Protein in INSANE! Membrane UpperLeaflet>POPC=1.0 LowerLeaflet>POPC=1.0
248785
    1AU     AUC    1  37.506   5.732   7.535
    1AU     AUC    2  37.758   5.737   7.369
    1AU     AUC    3  37.747   5.724   7.699
    1AU     AUC    4  37.236   5.740   7.380
    1AU     AUC    5  37.262   5.769   7.705
    1AU     AUC    6  37.345   5.985   7.513
    1AU     AUC    7  37.692   5.997   7.516
    1AU     AUC    8  37.327   5.478   7.543
    1AU     AUC    9  37.658   5.456   7.545
    1AU     AUC   10  37.500   5.572   7.798
    1AU     AUC   11  37.519   5.912   7.779
    1AU     AUC   12  37.493   5.559   7.287
    1AU     AUC   13  37.513   5.865   7.271
    1AU     AUC   14  38.061   5.728   7.204
    1AU     AUC   15  38.069   5.708   7.545
    1AU     AUC   16  38.027   5.695   7.899
    1AU     AUC   17  36.934   5.714   7.228
    1AU     AUC   18  36.933   5.773   7.556
    1AU     AUC   19  36.962   5.812   7.888
    1AU     AUC   20  37.180   6.298   7.474
    1AU     AUC   21  37.540   6.272   7.457
    1AU     AUC   22  37.906   6.260   7.487
    1AU     AUC   23  37.123   5.189   7.548
    1AU     AUC   24  37.474   5.165   7.529
    1AU     AUC   25  37.830   5.154   7.546
    1AU     AUC   26  37.459   5.406   8.101
    1AU     AUC   27  37.496   5.748   8.101
    1AU     AUC   28  37.553   6.112   8.062
    1AU     AUC   29  37.524   5.369   6.997
    1AU     AUC   30  37.472   5.710   6.973
    1AU     AUC   31  37.469   6.033   6.957
    1AU     AUC   32  37.741   5.510   8.012
    1AU     AUC   33  37.797   5.886   7.987
    1AU     AUC   34  37.796   5.572   7.072
    1AU     AUC   35  37.761   5.884   7.079
    1AU     AUC   36  37.207   5.630   8.000
    1AU     AUC   37  37.254   5.980   7.971
    1AU     AUC   38  37.218   5.529   7.103
    1AU     AUC   39  37.172   5.857   7.083
    1AU     AUC   40  37.999   6.000   7.346
    1AU     AUC   41  37.965   5.997   7.705
    1AU     AUC   42  37.040   6.012   7.383
    1AU     AUC   43  37.085   6.078   7.713
    1AU     AUC   44  37.962   5.449   7.407
    1AU     AUC   45  37.910   5.403   7.739
    1AU     AUC   46  37.041   5.426   7.373
    1AU     AUC   47  37.067   5.500   7.716
    1AU     AUC   48  37.405   6.230   7.782
    1AU     AUC   49  37.744   6.185   7.793
    1AU     AUC   50  37.292   5.297   7.817
    1AU     AUC   51  37.610   5.244   7.809
    1AU     AUC   52  37.315   6.163   7.215
    1AU     AUC   53  37.680   6.179   7.226
    1AU     AUC   54  37.346   5.265   7.258
    1AU     AUC   55  37.706   5.310   7.274
    1AU    AUSL   56  38.005   5.600   8.316
    1AU    AUSL   57  37.755   5.227   8.222
    1AU     AUL   58  38.062   5.228   8.389
    1AU    AUSL   59  37.590   5.542   8.460
    1AU    AUSL   60  37.352   5.951   8.451
    1AU     AUL   61  37.588   5.826   8.710
    1AU    AUSL   62  37.689   5.899   8.204
    1AU    AUSL   63  38.140   5.958   8.126
    1AU     AUL   64  37.958   5.923   8.435
    1AU    AUSL   65  37.913   5.760   6.840
    1AU    AUSL   66  37.774   6.156   6.981
    1AU     AUL   67  37.988   6.088   6.681
    1AU    AUSL   68  37.725   5.438   6.612
    1AU    AUSL   69  38.232   5.508   6.982
    1AU     AUL   70  38.100   5.582   6.665
    1AU    AUSL   71  37.557   5.942   6.670
    1AU    AUSL   72  37.379   5.556   6.829
    1AU     AUL   73  37.510   5.635   6.524
    1AU    AUSL   74  36.968   5.913   8.243
    1AU    AUSL   75  37.331   6.222   8.111
    1AU     AUL   76  37.168   6.190   8.412
    1AU    AUSL   77  37.269   5.600   8.191
    1AU    AUSL   78  36.820   5.523   8.105
    1AU     AUL   79  36.877   5.612   8.341
    1AU    AUSL   80  36.943   5.538   6.795
    1AU    AUSL   81  37.192   5.188   6.947
    1AU     AUL   82  37.216   5.274   6.641
    1AU    AUSL   83  37.129   5.906   6.675
    1AU    AUSL   84  36.849   5.887   7.050
    1AU     AUL   85  36.732   5.768   6.776
    1AU    AUSL   86  38.297   6.195   7.476
    1AU    AUSL   87  38.172   5.985   7.096
    1AU     AUL   88  38.467   6.190   7.128
    1AU    AUSL   89  38.462   5.799   7.367
    1AU    AUSL   90  38.411   5.501   7.768
    1AU     AUL   91  38.673   5.585   7.571
    1AU    AUSL   92  38.184   5.854   7.718
    1AU    AUSL   93  38.142   6.298   7.853
    1AU     AUL   94  38.390   6.038   7.878
    1AU    AUSL   95  36.931   6.375   7.522
    1AU    AUSL   96  36.968   6.127   7.878
    1AU     AUL   97  36.659   6.372   7.745
    1AU    AUSL   98  36.730   5.996   7.444
    1AU    AUSL   99  36.883   6.312   7.106
    1AU     AUL  100  36.647   6.237   7.263
    1AU    AUSL  101  36.603   5.918   7.888
    1AU    AUSL  102  36.570   5.612   7.349
    1AU     AUL  103  36.448   5.929   7.590
    1AU    AUSL  104  38.189   5.152   7.615
    1AU    AUSL  105  38.015   5.435   7.925
    1AU     AUL  106  38.322   5.341   8.001
    1AU    AUSL  107  38.147   5.522   7.397
    1AU    AUSL  108  38.137   5.120   7.188
    1AU     AUL  109  38.381   5.330   7.250
    1AU    AUSL  110  36.723   5.233   7.553
    1AU    AUSL  111  36.934   5.443   7.205
    1AU     AUL  112  36.584   5.336   7.213
    1AU    AUSL  113  36.840   5.634   7.694
    1AU    AUSL  114  37.030   5.250   7.849
    1AU     AUL  115  36.649   5.403   7.848
    1AU    AUSL  116  37.572   6.558   7.966
    1AU    AUSL  117  37.117   6.537   7.878
    1AU     AUL  118  37.339   6.582   8.194
    1AU    AUSL  119  37.404   6.413   7.591
    1AU    AUSL  120  37.655   6.546   7.247
    1AU     AUL  121  37.424   6.753   7.554
    1AU    AUSL  122  37.842   6.489   7.623
    1AU    AUSL  123  37.836   6.288   8.153
    1AU     AUL  124  37.955   6.578   7.941
    1AU    AUSL  125  37.430   5.092   7.970
    1AU    AUSL  126  37.854   5.033   7.849
    1AU     AUL  127  37.615   4.971   8.223
    1AU    AUSL  128  37.122   4.870   7.699
    1AU    AUSL  129  37.150   5.207   8.274
    1AU     AUL  130  37.158   4.909   8.050
    1AU    AUSL  131  37.554   4.795   7.667
    1AU    AUSL  132  37.347   5.040   7.362
    1AU     AUL  133  37.230   4.695   7.487
    1AU    AUSL  134  37.482   6.431   6.843
    1AU    AUSL  135  38.054   6.409   7.199
    1AU     AUL  136  37.798   6.519   6.936
    1AU    AUSL  137  37.233   6.525   7.210
    1AU    AUSL  138  37.256   6.114   7.014
    1AU     AUL  139  37.163   6.420   6.856
    1AU    AUSL  140  37.572   4.988   6.981
    1AU    AUSL  141  36.939   5.002   7.258
    1AU     AUL  142  37.235   4.854   7.043
    1AU    AUSL  143  37.779   5.012   7.381
    1AU    AUSL  144  37.802   5.345   7.018
    1AU     AUL  145  37.896   4.972   7.050
    1AU       S  146  38.027   4.777   8.227
    1AU     LIG  147  38.074   4.543   8.352
    1AU     LIG  148  38.196   4.383   8.479
    1AU     LIG  149  38.354   4.206   8.590
    1AU       S  150  38.061   5.567   8.719
    1AU     LIG  151  38.224   5.625   8.921
    1AU     LIG  152  38.314   5.681   9.146
    1AU     LIG  153  38.420   5.648   9.383
    1AU       S  154  37.739   5.374   8.725
    1AU     LIG  155  37.795   5.280   9.005
    1AU     LIG  156  37.961   5.296   9.203
    1AU     LIG  157  38.095   5.251   9.419
    1AU       S  158  37.114   5.864   8.757
    1AU     LIG  159  37.077   5.888   9.059
    1AU     LIG  160  36.959   5.873   9.261
    1AU     LIG  161  36.811   5.850   9.479
    1AU       S  162  37.639   6.298   8.566
    1AU     LIG  163  37.756   6.435   8.771
    1AU     LIG  164  37.969   6.355   8.933
    1AU     LIG  165  38.192   6.229   8.947
    1AU       S  166  38.331   6.190   8.334
    1AU     LIG  167  38.514   6.230   8.555
    1AU     LIG  168  38.654   6.387   8.669
    1AU     LIG  169  38.830   6.563   8.744
    1AU       S  170  37.932   5.819   6.306
    1AU     LIG  171  38.147   5.874   6.093
    1AU     LIG  172  38.281   5.708   5.955
    1AU     LIG  173  38.341   5.517   5.795
    1AU       S  174  38.147   6.519   6.652
    1AU     LIG  175  38.193   6.712   6.462
    1AU     LIG  176  38.356   6.802   6.288
    1AU     LIG  177  38.521   6.893   6.123
    1AU       S  178  38.407   5.230   6.768
    1AU     LIG  179  38.569   5.143   6.527
    1AU     LIG  180  38.583   4.924   6.388
    1AU     LIG  181  38.599   4.669   6.348
    1AU       S  182  37.853   5.524   6.240
    1AU     LIG  183  37.875   5.400   6.011
    1AU     LIG  184  37.862   5.327   5.771
    1AU     LIG  185  37.933   5.307   5.521
    1AU       S  186  37.119   5.584   6.303
    1AU     LIG  187  37.174   5.551   6.024
    1AU     LIG  188  37.180   5.497   5.795
    1AU     LIG  189  37.104   5.456   5.540
    1AU       S  190  37.689   5.965   6.264
    1AU     LIG  191  37.590   5.899   5.973
    1AU     LIG  192  37.732   5.824   5.780
    1AU     LIG  193  37.925   5.816   5.607
    1AU       S  194  36.838   5.952   8.643
    1AU     LIG  195  36.627   5.927   8.819
    1AU     LIG  196  36.573   5.711   8.977
    1AU     LIG  197  36.503   5.579   9.166
    1AU       S  198  36.869   6.510   8.268
    1AU     LIG  199  36.783   6.665   8.501
    1AU     LIG  200  36.642   6.676   8.694
    1AU     LIG  201  36.473   6.765   8.877
    1AU       S  202  36.592   5.244   8.284
    1AU     LIG  203  36.346   5.175   8.381
    1AU     LIG  204  36.201   4.983   8.457
    1AU     LIG  205  36.074   4.801   8.575
    1AU       S  206  37.163   5.572   8.684
    1AU     LIG  207  37.086   5.396   8.887
    1AU     LIG  208  36.973   5.376   9.105
    1AU     LIG  209  36.928   5.362   9.361
    1AU       S  210  36.857   5.496   6.418
    1AU     LIG  211  36.678   5.426   6.208
    1AU     LIG  212  36.667   5.497   5.957
    1AU     LIG  213  36.655   5.607   5.737
    1AU       S  214  36.891   4.948   6.745
    1AU     LIG  215  36.817   4.761   6.540
    1AU     LIG  216  36.659   4.719   6.354
    1AU     LIG  217  36.475   4.670   6.184
    1AU       S  218  36.521   6.174   6.798
    1AU     LIG  219  36.314   6.343   6.744
    1AU     LIG  220  36.262   6.542   6.588
    1AU     LIG  221  36.238   6.665   6.367
    1AU       S  222  37.019   5.852   6.393
    1AU     LIG  223  36.852   5.953   6.139
    1AU     LIG  224  36.935   5.990   5.913
    1AU     LIG  225  37.043   5.970   5.679
    1AU       S  226  38.378   6.333   6.708
    1AU     LIG  227  38.593   6.379   6.537
    1AU     LIG  228  38.750   6.491   6.389
    1AU     LIG  229  38.931   6.610   6.245
    1AU       S  230  38.630   6.309   7.556
    1AU     LIG  231  38.843   6.513   7.540
    1AU     LIG  232  39.087   6.557   7.511
    1AU     LIG  233  39.340   6.620   7.532
    1AU       S  234  38.806   6.010   7.388
    1AU     LIG  235  39.075   6.081   7.293
    1AU     LIG  236  39.315   6.147   7.306
    1AU     LIG  237  39.537   6.261   7.226
    1AU       S  238  38.670   5.131   7.790
    1AU     LIG  239  38.905   5.029   7.920
    1AU     LIG  240  39.158   5.024   7.859
    1AU     LIG  241  39.407   4.992   7.780
    1AU       S  242  38.367   6.438   8.127
    1AU     LIG  243  38.562   6.615   8.210
    1AU     LIG  244  38.607   6.814   8.357
    1AU     LIG  245  38.626   6.993   8.540
    1AU       S  246  38.777   6.042   7.663
    1AU     LIG  247  39.015   6.113   7.814
    1AU     LIG  248  39.252   6.180   7.811
    1AU     LIG  249  39.482   6.270   7.878
    1AU       S  250  36.703   6.287   8.203
    1AU     LIG  251  36.464   6.279   8.380
    1AU     LIG  252  36.278   6.418   8.444
    1AU     LIG  253  36.102   6.537   8.594
    1AU       S  254  36.870   6.711   7.463
    1AU     LIG  255  36.710   6.919   7.335
    1AU     LIG  256  36.464   6.899   7.239
    1AU     LIG  257  36.276   6.742   7.123
    1AU       S  258  36.306   5.930   7.139
    1AU     LIG  259  36.068   5.935   7.071
    1AU     LIG  260  35.813   6.011   7.141
    1AU     LIG  261  35.668   6.224   7.163
    1AU       S  262  36.736   6.584   6.929
    1AU     LIG  263  36.663   6.792   6.787
    1AU     LIG  264  36.521   6.971   6.702
    1AU     LIG  265  36.390   7.126   6.537
    1AU       S  266  36.217   5.526   7.449
    1AU     LIG  267  35.940   5.516   7.337
    1AU     LIG  268  35.697   5.498   7.332
    1AU     LIG  269  35.463   5.377   7.284
    1AU       S  270  36.408   5.845   8.097
    1AU     LIG  271  36.095   5.949   8.182
    1AU     LIG  272  35.978   6.161   8.094
    1AU     LIG  273  35.798   6.308   7.968
    1AU       S  274  38.400   4.961   7.606
    1AU     LIG  275  38.534   4.659   7.622
    1AU     LIG  276  38.762   4.593   7.697
    1AU     LIG  277  39.033   4.579   7.655
    1AU       S  278  38.244   4.900   8.066
    1AU     LIG  279  38.491   4.764   8.105
    1AU     LIG  280  38.621   4.676   8.287
    1AU     LIG  281  38.668   4.606   8.537
    1AU       S  282  38.657   5.111   7.519
    1AU     LIG  283  38.880   4.989   7.383
    1AU     LIG  284  39.121   4.990   7.343
    1AU     LIG  285  39.362   4.918   7.280
    1AU       S  286  38.349   4.968   6.925
    1AU     LIG  287  38.414   4.708   6.822
    1AU     LIG  288  38.287   4.485   6.774
    1AU     LIG  289  38.246   4.266   6.659
    1AU       S  290  36.714   5.143   6.817
    1AU     LIG  291  36.481   5.153   6.620
    1AU     LIG  292  36.304   5.036   6.527
    1AU     LIG  293  36.098   4.878   6.465
    1AU       S  294  36.299   5.235   7.583
    1AU     LIG  295  36.082   5.069   7.588
    1AU     LIG  296  35.855   5.021   7.482
    1AU     LIG  297  35.622   4.917   7.441
    1AU       S  298  36.711   5.014   8.082
    1AU     LIG  299  36.535   4.806   8.068
    1AU     LIG  300  36.415   4.620   8.174
    1AU     LIG  301  36.282   4.434   8.287
    1AU       S  302  36.241   5.530   7.713
    1AU     LIG  303  36.007   5.502   7.888
    1AU     LIG  304  35.768   5.410   7.835
    1AU     LIG  305  35.559   5.275   7.809
    1AU       S  306  36.910   6.729   7.989
    1AU     LIG  307  36.675   6.918   8.062
    1AU     LIG  308  36.450   6.881   8.206
    1AU     LIG  309  36.318   6.958   8.412
    1AU       S  310  37.653   6.915   8.053
    1AU     LIG  311  37.764   7.102   8.255
    1AU     LIG  312  37.652   7.292   8.380
    1AU     LIG  313  37.507   7.493   8.444
    1AU       S  314  37.415   7.050   7.925
    1AU     LIG  315  37.326   7.275   7.968
    1AU     LIG  316  37.300   7.534   7.984
    1AU     LIG  317  37.309   7.785   8.012
    1AU       S  318  37.580   6.893   7.131
    1AU     LIG  319  37.646   7.162   7.146
    1AU     LIG  320  37.680   7.394   7.130
    1AU     LIG  321  37.743   7.637   7.042
    1AU       S  322  38.090   6.405   8.364
    1AU     LIG  323  38.165   6.624   8.543
    1AU     LIG  324  38.266   6.705   8.736
    1AU     LIG  325  38.392   6.723   8.967
    1AU       S  326  37.792   6.966   7.734
    1AU     LIG  327  37.824   7.239   7.718
    1AU     LIG  328  37.799   7.449   7.875
    1AU     LIG  329  37.811   7.633   8.040
    1AU       S  330  37.513   4.556   8.062
    1AU     LIG  331  37.632   4.350   8.213
    1AU     LIG  332  37.620   4.143   8.334
    1AU     LIG  333  37.601   3.906   8.434
    1AU       S  334  37.996   4.789   7.902
    1AU     LIG  335  38.100   4.485   7.827
    1AU     LIG  336  38.260   4.351   7.925
    1AU     LIG  337  38.472   4.251   8.057
    1AU       S  338  37.261   4.470   7.896
    1AU     LIG  339  37.212   4.203   7.918
    1AU     LIG  340  37.234   3.985   8.033
    1AU     LIG  341  37.224   3.747   8.129
    1AU       S  342  36.855   5.096   8.386
    1AU     LIG  343  36.728   4.878   8.570
    1AU     LIG  344  36.591   4.704   8.640
    1AU     LIG  345  36.454   4.510   8.762
    1AU       S  346  37.579   4.566   7.221
    1AU     LIG  347  37.518   4.238   7.210
    1AU     LIG  348  37.503   4.042   7.090
    1AU     LIG  349  37.503   3.775   7.027
    1AU       S  350  37.593   4.519   7.758
    1AU     LIG  351  37.693   4.217   7.712
    1AU     LIG  352  37.706   4.020   7.838
    1AU     LIG  353  37.700   3.774   7.941
    1AU       S  354  37.432   6.813   6.835
    1AU     LIG  355  37.438   7.042   6.681
    1AU     LIG  356  37.561   7.258   6.641
    1AU     LIG  357  37.627   7.492   6.564
    1AU       S  358  38.271   6.589   6.958
    1AU     LIG  359  38.469   6.793   6.901
    1AU     LIG  360  38.628   6.867   6.721
    1AU     LIG  361  38.776   6.989   6.558
    1AU       S  362  37.229   6.834   7.112
    1AU     LIG  363  37.117   7.112   7.085
    1AU     LIG  364  37.174   7.338   6.998
    1AU     LIG  365  37.248   7.563   6.907
    1AU       S  366  36.791   6.244   6.654
    1AU     LIG  367  36.731   6.379   6.415
    1AU     LIG  368  36.741   6.609   6.319
    1AU     LIG  369  36.714   6.848   6.239
    1AU       S  370  36.736   4.912   7.029
    1AU     LIG  371  36.479   4.739   6.950
    1AU     LIG  372  36.392   4.597   6.784
    1AU     LIG  373  36.306   4.424   6.606
    1AU       S  374  37.649   4.605   6.941
    1AU     LIG  375  37.766   4.426   6.769
    1AU     LIG  376  37.739   4.216   6.646
    1AU     LIG  377  37.663   3.978   6.582
    1AU       S  378  37.842   4.606   7.324
    1AU     LIG  379  38.006   4.365   7.293
    1AU     LIG  380  38.013   4.159   7.128
    1AU     LIG  381  37.998   3.942   6.984
    1AU       S  382  38.103   5.115   6.673
    1AU     LIG  383  38.089   4.937   6.470
    1AU     LIG  384  38.079   4.709   6.376
    1AU     LIG  385  38.130   4.506   6.221
    2AU     AUC  386  18.947  30.531   7.535
    2AU     AUC  387  19.199  30.536   7.369
    2AU     AUC  388  19.188  30.523   7.699
    2AU     AUC  389  18.677  30.539   7.380
    2AU     AUC  390  18.703  30.568   7.705
    2AU     AUC  391  18.786  30.784   7.513
    2AU     AUC  392  19.133  30.796   7.516
    2AU     AUC  393  18.768  30.277   7.543
    2AU     AUC  394  19.099  30.255   7.545
    2AU     AUC  395  18.941  30.371   7.798
    2AU     AUC  396  18.960  30.711   7.779
    2AU     AUC  397  18.934  30.358   7.287
    2AU     AUC  398  18.954  30.664   7.271
    2AU     AUC  399  19.502  30.527   7.204
    2AU     AUC  400  19.510  30.507   7.545
    2AU     AUC  401  19.468  30.494   7.899
    2AU     AUC  402  18.375  30.513   7.228
    2AU     AUC  403  18.374  30.572   7.556
    2AU     AUC  404  18.403  30.611   7.888
    2AU     AUC  405  18.621  31.097   7.474
    2AU     AUC  406  18.981  31.071   7.457
    2AU     AUC  407  19.347  31.059   7.487
    2AU     AUC  408  18.564  29.988   7.548
    2AU     AUC  409  18.915  29.964   7.529
    2AU     AUC  410  19.271  29.953   7.546
    2AU     AUC  411  18.900  30.205   8.101
    2AU     AUC  412  18.937  30.547   8.101
    2AU     AUC  413  18.994  30.911   8.062
    2AU     AUC  414  18.965  30.168   6.997
    2AU     AUC  415  18.913  30.509   6.973
    2AU     AUC  416  18.910  30.832   6.957
    2AU     AUC  417  19.182  30.309   8.012
    2AU     AUC  418  19.238  30.685   7.987
    2AU     AUC  419  19.237  30.371   7.072
    2AU     AUC  420  19.202  30.683   7.079
    2AU     AUC  421  18.648  30.429   8.000
    2AU     AUC  422  18.695  30.779   7.971
    2AU     AUC  423  18.659  30.328   7.103
    2AU     AUC  424  18.613  30.656   7.083
    2AU     AUC  425  19.440  30.799   7.346
    2AU     AUC  426  19.406  30.796   7.705
    2AU     AUC  427  18.481  30.811   7.383
    2AU     AUC  428  18.526  30.877   7.713
    2AU     AUC  429  19.403  30.248   7.407
    2AU     AUC  430  19.351  30.202   7.739
    2AU     AUC  431  18.482  30.225   7.373
    2AU     AUC  432  18.508  30.299   7.716
    2AU     AUC  433  18.846  31.029   7.782
    2AU     AUC  434  19.185  30.984   7.793
    2AU     AUC  435  18.733  30.096   7.817
    2AU     AUC  436  19.051  30.043   7.809
    2AU     AUC  437  18.756  30.962   7.215
    2AU     AUC  438  19.121  30.978   7.226
    2AU     AUC  439  18.787  30.064   7.258
    2AU     AUC  440  19.147  30.109   7.274
    2AU    AUSL  441  19.446  30.399   8.316
    2AU    AUSL  442  19.196  30.026   8.222
    2AU     AUL  443  19.503  30.027   8.389
    2AU    AUSL  444  19.031  30.341   8.460
    2AU    AUSL  445  18.793  30.750   8.451
    2AU     AUL  446  19.029  30.625   8.710
    2AU    AUSL  447  19.130  30.698   8.204
    2AU    AUSL  448  19.581  30.757   8.126
    2AU     AUL  449  19.399  30.722   8.435
    2AU    AUSL  450  19.354  30.559   6.840
    2AU    AUSL  451  19.215  30.955   6.981
    2AU     AUL  452  19.429  30.887   6.681
    2AU    AUSL  453  19.166  30.237   6.612
    2AU    AUSL  454  19.673  30.307   6.982
    2AU     AUL  455  19.541  30.381   6.665
    2AU    AUSL  456  18.998  30.741   6.670
    2AU    AUSL  457  18.820  30.355   6.829
    2AU     AUL  458  18.951  30.434   6.524
    2AU    AUSL  459  18.409  30.712   8.243
    2AU    AUSL  460  18.772  31.021   8.111
    2AU     AUL  461  18.609  30.989   8.412
    2AU    AUSL  462  18.710  30.399   8.191
    2AU    AUSL  463  18.261  30.322   8.105
    2AU     AUL  464  18.318  30.411   8.341
    2AU    AUSL  465  18.384  30.337   6.795
    2AU    AUSL  466  18.633  29.987   6.947
    2AU     AUL  467  18.657  30.073   6.641
    2AU    AUSL  468  18.570  30.705   6.675
    2AU    AUSL  469  18.290  30.686   7.050
    2AU     AUL  470  18.173  30.567   6.776
    2AU    AUSL  471  19.738  30.994   7.476
    2AU    AUSL  472  19.613  30.784   7.096
    2AU     AUL  473  19.908  30.989   7.128
    2AU    AUSL  474  19.903  30.598   7.367
    2AU    AUSL  475  19.852  30.300   7.768
    2AU     AUL  476  20.114  30.384   7.571
    2AU    AUSL  477  19.625  30.653   7.718
    2AU    AUSL  478  19.583  31.097   7.853
    2AU     AUL  479  19.831  30.837   7.878
    2AU    AUSL  480  18.372  31.174   7.522
    2AU    AUSL  481  18.409  30.926   7.878
    2AU     AUL  482  18.100  31.171   7.745
    2AU    AUSL  483  18.171  30.795   7.444
    2AU    AUSL  484  18.324  31.111   7.106
    2AU     AUL  485  18.088  31.036   7.263
    2AU    AUSL  486  18.044  30.717   7.888
    2AU    AUSL  487  18.011  30.411   7.349
    2AU     AUL  488  17.889  30.728   7.590
    2AU    AUSL  489  19.630  29.951   7.615
    2AU    AUSL  490  19.456  30.234   7.925
    2AU     AUL  491  19.763  30.140   8.001
    2AU    AUSL  492  19.588  30.321   7.397
    2AU    AUSL  493  19.578  29.919   7.188
    2AU     AUL  494  19.822  30.129   7.250
    2AU    AUSL  495  18.164  30.032   7.553
    2AU    AUSL  496  18.375  30.242   7.205
    2AU     AUL  497  18.025  30.135   7.213
    2AU    AUSL  498  18.281  30.433   7.694
    2AU    AUSL  499  18.471  30.049   7.849
    2AU     AUL  500  18.090  30.202   7.848
    2AU    AUSL  501  19.013  31.357   7.966
    2AU    AUSL  502  18.558  31.336   7.878
    2AU     AUL  503  18.780  31.381   8.194
    2AU    AUSL  504  18.845  31.212   7.591
    2AU    AUSL  505  19.096  31.345   7.247
    2AU     AUL  506  18.865  31.552   7.554
    2AU    AUSL  507  19.283  31.288   7.623
    2AU    AUSL  508  19.277  31.087   8.153
    2AU     AUL  509  19.396  31.377   7.941
    2AU    AUSL  510  18.871  29.891   7.970
    2AU    AUSL  511  19.295  29.832   7.849
    2AU     AUL  512  19.056  29.770   8.223
    2AU    AUSL  513  18.563  29.669   7.699
    2AU    AUSL  514  18.591  30.006   8.274
    2AU     AUL  515  18.599  29.708   8.050
    2AU    AUSL  516  18.995  29.594   7.667
    2AU    AUSL  517  18.788  29.839   7.362
    2AU     AUL  518  18.671  29.494   7.487
    2AU    AUSL  519  18.923  31.230   6.843
    2AU    AUSL  520  19.495  31.208   7.199
    2AU     AUL  521  19.239  31.318   6.936
    2AU    AUSL  522  18.674  31.324   7.210
    2AU    AUSL  523  18.697  30.913   7.014
    2AU     AUL  524  18.604  31.219   6.856
    2AU    AUSL  525  19.013  29.787   6.981
    2AU    AUSL  526  18.380  29.801   7.258
    2AU     AUL  527  18.676  29.653   7.043
    2AU    AUSL  528  19.220  29.811   7.381
    2AU    AUSL  529  19.243  30.144   7.018
    2AU     AUL  530  19.337  29.771   7.050
    2AU       S  531  19.468  29.576   8.227
    2AU     LIG  532  19.515  29.342   8.352
    2AU     LIG  533  19.637  29.182   8.479
    2AU     LIG  534  19.795  29.005   8.590
    2AU       S  535  19.502  30.366   8.719
    2AU     LIG  536  19.665  30.424   8.921
    2AU     LIG  537  19.755  30.480   9.146
    2AU     LIG  538  19.861  30.447   9.383
    2AU       S  539  19.180  30.173   8.725
    2AU     LIG  540  19.236  30.079   9.005
    2AU     LIG  541  19.402  30.095   9.203
    2AU     LIG  542  19.536  30.050   9.419
    2AU       S  543  18.555  30.663   8.757
    2AU     LIG  544  18.518  30.687   9.059
    2AU     LIG  545  18.400  30.672   9.261
    2AU     LIG  546  18.252  30.649   9.479
    2AU       S  547  19.080  31.097   8.566
    2AU     LIG  548  19.197  31.234   8.771
    2AU     LIG  549  19.410  31.154   8.933
    2AU     LIG  550  19.633  31.028   8.947
    2AU       S  551  19.772  30.989   8.334
    2AU     LIG  552  19.955  31.029   8.555
    2AU     LIG  553  20.095  31.186   8.669
    2AU     LIG  554  20.271  31.362   8.744
    2AU       S  555  19.373  30.618   6.306
    2AU     LIG  556  19.588  30.673   6.093
    2AU     LIG  557  19.722  30.507   5.955
    2AU     LIG  558  19.782  30.316   5.795
    2AU       S  559  19.588  31.318   6.652
    2AU     LIG  560  19.634  31.511   6.462
    2AU     LIG  561  19.797  31.601   6.288
    2AU     LIG  562  19.962  31.692   6.123
    2AU       S  563  19.848  30.029   6.768
    2AU     LIG  564  20.010  29.942   6.527
    2AU     LIG  565  20.024  29.723   6.388
    2AU     LIG  566  20.040  29.468   6.348
    2AU       S  567  19.294  30.323   6.240
    2AU     LIG  568  19.316  30.199   6.011
    2AU     LIG  569  19.303  30.126   5.771
    2AU     LIG  570  19.374  30.106   5.521
    2AU       S  571  18.560  30.383   6.303
    2AU     LIG  572  18.615  30.350   6.024
    2AU     LIG  573  18.621  30.296   5.795
    2AU     LIG  574  18.545  30.255   5.540
    2AU       S  575  19.130  30.764   6.264
    2AU     LIG  576  19.031  30.698   5.973
    2AU     LIG  577  19.173  30.623   5.780
    2AU     LIG  578  19.366  30.615   5.607
    2AU       S  579  18.279  30.751   8.643
    2AU     LIG  580  18.068  30.726   8.819
    2AU     LIG  581  18.014  30.510   8.977
    2AU     LIG  582  17.944  30.378   9.166
    2AU       S  583  18.310  31.309   8.268
    2AU     LIG  584  18.224  31.464   8.501
    2AU     LIG  585  18.083  31.475   8.694
    2AU     LIG  586  17.914  31.564   8.877
    2AU       S  587  18.033  30.043   8.284
    2AU     LIG  588  17.787  29.974   8.381
    2AU     LIG  589  17.642  29.782   8.457
    2AU     LIG  590  17.515  29.600   8.575
    2AU       S  591  18.604  30.371   8.684
    2AU     LIG  592  18.527  30.195   8.887
    2AU     LIG  593  18.414  30.175   9.105
    2AU     LIG  594  18.369  30.161   9.361
    2AU       S  595  18.298  30.295   6.418
    2AU     LIG  596  18.119  30.225   6.208
    2AU     LIG  597  18.108  30.296   5.957
    2AU     LIG  598  18.096  30.406   5.737
    2AU       S  599  18.332  29.747   6.745
    2AU     LIG  600  18.258  29.560   6.540
    2AU     LIG  601  18.100  29.518   6.354
    2AU     LIG  602  17.916  29.469   6.184
    2AU       S  603  17.962  30.973   6.798
    2AU     LIG  604  17.755  31.142   6.744
    2AU     LIG  605  17.703  31.341   6.588
    2AU     LIG  606  17.679  31.464   6.367
    2AU       S  607  18.460  30.651   6.393
    2AU     LIG  608  18.293  30.752   6.139
    2AU     LIG  609  18.376  30.789   5.913
    2AU     LIG  610  18.484  30.769   5.679
    2AU       S  611  19.819  31.132   6.708
    2AU     LIG  612  20.034  31.178   6.537
    2AU     LIG  613  20.191  31.290   6.389
    2AU     LIG  614  20.372  31.409   6.245
    2AU       S  615  20.071  31.108   7.556
    2AU     LIG  616  20.284  31.312   7.540
    2AU     LIG  617  20.528  31.356   7.511
    2AU     LIG  618  20.781  31.419   7.532
    2AU       S  619  20.247  30.809   7.388
    2AU     LIG  620  20.516  30.880   7.293
    2AU     LIG  621  20.756  30.946   7.306
    2AU     LIG  622  20.978  31.060   7.226
    2AU       S  623  20.111  29.930   7.790
    2AU     LIG  624  20.346  29.828   7.920
    2AU     LIG  625  20.599  29.823   7.859
    2AU     LIG  626  20.848  29.791   7.780
    2AU       S  627  19.808  31.237   8.127
    2AU     LIG  628  20.003  31.414   8.210
    2AU     LIG  629  20.048  31.613   8.357
    2AU     LIG  630  20.067  31.792   8.540
    2AU       S  631  20.218  30.841   7.663
    2AU     LIG  632  20.456  30.912   7.814
    2AU     LIG  633  20.693  30.979   7.811
    2AU     LIG  634  20.923  31.069   7.878
    2AU       S  635  18.144  31.086   8.203
    2AU     LIG  636  17.905  31.078   8.380
    2AU     LIG  637  17.719  31.217   8.444
    2AU     LIG  638  17.543  31.336   8.594
    2AU       S  639  18.311  31.510   7.463
    2AU     LIG  640  18.151  31.718   7.335
    2AU     LIG  641  17.905  31.698   7.239
    2AU     LIG  642  17.717  31.541   7.123
    2AU       S  643  17.747  30.729   7.139
    2AU     LIG  644  17.509  30.734   7.071
    2AU     LIG  645  17.254  30.810   7.141
    2AU     LIG  646  17.109  31.023   7.163
    2AU       S  647  18.177  31.383   6.929
    2AU     LIG  648  18.104  31.591   6.787
    2AU     LIG  649  17.962  31.770   6.702
    2AU     LIG  650  17.831  31.925   6.537
    2AU       S  651  17.658  30.325   7.449
    2AU     LIG  652  17.381  30.315   7.337
    2AU     LIG  653  17.138  30.297   7.332
    2AU     LIG  654  16.904  30.176   7.284
    2AU       S  655  17.849  30.644   8.097
    2AU     LIG  656  17.536  30.748   8.182
    2AU     LIG  657  17.419  30.960   8.094
    2AU     LIG  658  17.239  31.107   7.968
    2AU       S  659  19.841  29.760   7.606
    2AU     LIG  660  19.975  29.458   7.622
    2AU     LIG  661  20.203  29.392   7.697
    2AU     LIG  662  20.474  29.378   7.655
    2AU       S  663  19.685  29.699   8.066
    2AU     LIG  664  19.932  29.563   8.105
    2AU     LIG  665  20.062  29.475   8.287
    2AU     LIG  666  20.109  29.405   8.537
    2AU       S  667  20.098  29.910   7.519
    2AU     LIG  668  20.321  29.788   7.383
    2AU     LIG  669  20.562  29.789   7.343
    2AU     LIG  670  20.803  29.717   7.280
    2AU       S  671  19.790  29.767   6.925
    2AU     LIG  672  19.855  29.507   6.822
    2AU     LIG  673  19.728  29.284   6.774
    2AU     LIG  674  19.687  29.065   6.659
    2AU       S  675  18.155  29.942   6.817
    2AU     LIG  676  17.922  29.952   6.620
    2AU     LIG  677  17.745  29.835   6.527
    2AU     LIG  678  17.539  29.677   6.465
    2AU       S  679  17.740  30.034   7.583
    2AU     LIG  680  17.523  29.868   7.588
    2AU     LIG  681  17.296  29.820   7.482
    2AU     LIG  682  17.063  29.716   7.441
    2AU       S  683  18.152  29.813   8.082
    2AU     LIG  684  17.976  29.605   8.068
    2AU     LIG  685  17.856  29.419   8.174
    2AU     LIG  686  17.723  29.233   8.287
    2AU       S  687  17.682  30.329   7.713
    2AU     LIG  688  17.448  30.301   7.888
    2AU     LIG  689  17.209  30.209   7.835
    2AU     LIG  690  17.000  30.074   7.809
    2AU       S  691  18.351  31.528   7.989
    2AU     LIG  692  18.116  31.717   8.062
    2AU     LIG  693  17.891  31.680   8.206
    2AU     LIG  694  17.759  31.757   8.412
    2AU       S  695  19.094  31.714   8.053
    2AU     LIG  696  19.205  31.901   8.255
    2AU     LIG  697  19.093  32.091   8.380
    2AU     LIG  698  18.948  32.292   8.444
    2AU       S  699  18.856  31.849   7.925
    2AU     LIG  700  18.767  32.074   7.968
    2AU     LIG  701  18.741  32.333   7.984
    2AU     LIG  702  18.750  32.584   8.012
    2AU       S  703  19.021  31.692   7.131
    2AU     LIG  704  19.087  31.961   7.146
    2AU     LIG  705  19.121  32.193   7.130
    2AU     LIG  706  19.184  32.436   7.042
    2AU       S  707  19.531  31.204   8.364
    2AU     LIG  708  19.606  31.423   8.543
    2AU     LIG  709  19.707  31.504   8.736
    2AU     LIG  710  19.833  31.522   8.967
    2AU       S  711  19.233  31.765   7.734
    2AU     LIG  712  19.265  32.038   7.718
    2AU     LIG  713  19.240  32.248   7.875
    2AU     LIG  714  19.252  32.432   8.040
    2AU       S  715  18.954  29.355   8.062
    2AU     LIG  716  19.073  29.149   8.213
    2AU     LIG  717  19.061  28.942   8.334
    2AU     LIG  718  19.042  28.705   8.434
    2AU       S  719  19.437  29.588   7.902
    2AU     LIG  720  19.541  29.284   7.827
    2AU     LIG  721  19.701  29.150   7.925
    2AU     LIG  722  19.913  29.050   8.057
    2AU       S  723  18.702  29.269   7.896
    2AU     LIG  724  18.653  29.002   7.918
    2AU     LIG  725  18.675  28.784   8.033
    2AU     LIG  726  18.665  28.546   8.129
    2AU       S  727  18.296  29.895   8.386
    2AU     LIG  728  18.169  29.677   8.570
    2AU     LIG  729  18.032  29.503   8.640
    2AU     LIG  730  17.895  29.309   8.762
    2AU       S  731  19.020  29.365   7.221
    2AU     LIG  732  18.959  29.037   7.210
    2AU     LIG  733  18.944  28.841   7.090
    2AU     LIG  734  18.944  28.574   7.027
    2AU       S  735  19.034  29.318   7.758
    2AU     LIG  736  19.134  29.016   7.712
    2AU     LIG  737  19.147  28.819   7.838
    2AU     LIG  738  19.141  28.573   7.941
    2AU       S  739  18.873  31.612   6.835
    2AU     LIG  740  18.879  31.841   6.681
    2AU     LIG  741  19.002  32.057   6.641
    2AU     LIG  742  19.068  32.291   6.564
    2AU       S  743  19.712  31.388   6.958
    2AU     LIG  744  19.910  31.592   6.901
    2AU     LIG  745  20.069  31.666   6.721
    2AU     LIG  746  20.217  31.788   6.558
    2AU       S  747  18.670  31.633   7.112
    2AU     LIG  748  18.558  31.911   7.085
    2AU     LIG  749  18.615  32.137   6.998
    2AU     LIG  750  18.689  32.362   6.907
    2AU       S  751  18.232  31.043   6.654
    2AU     LIG  752  18.172  31.178   6.415
    2AU     LIG  753  18.182  31.408   6.319
    2AU     LIG  754  18.155  31.647   6.239
    2AU       S  755  18.177  29.711   7.029
    2AU     LIG  756  17.920  29.538   6.950
    2AU     LIG  757  17.833  29.396   6.784
    2AU     LIG  758  17.747  29.223   6.606
    2AU       S  759  19.090  29.404   6.941
    2AU     LIG  760  19.207  29.225   6.769
    2AU     LIG  761  19.180  29.015   6.646
    2AU     LIG  762  19.104  28.777   6.582
    2AU       S  763  19.283  29.405   7.324
    2AU     LIG  764  19.447  29.164   7.293
    2AU     LIG  765  19.454  28.958   7.128
    2AU     LIG  766  19.439  28.741   6.984
    2AU       S  767  19.544  29.914   6.673
    2AU     LIG  768  19.530  29.736   6.470
    2AU     LIG  769  19.520  29.508   6.376
    2AU     LIG  770  19.571  29.305   6.221
    3AU     AUC  771  32.637  35.530   7.535
    3AU     AUC  772  32.889  35.535   7.369
    3AU     AUC  773  32.878  35.522   7.699
    3AU     AUC  774  32.367  35.538   7.380
    3AU     AUC  775  32.393  35.567   7.705
    3AU     AUC  776  32.476  35.783   7.513
    3AU     AUC  777  32.823  35.795   7.516
    3AU     AUC  778  32.458  35.276   7.543
    3AU     AUC  779  32.789  35.254   7.545
    3AU     AUC  780  32.631  35.370   7.798
    3AU     AUC  781  32.650  35.710   7.779
    3AU     AUC  782  32.624  35.357   7.287
    3AU     AUC  783  32.644  35.663   7.271
    3AU     AUC  784  33.192  35.526   7.204
    3AU     AUC  785  33.200  35.506   7.545
    3AU     AUC  786  33.158  35.493   7.899
    3AU     AUC  787  32.065  35.512   7.228
    3AU     AUC  788  32.064  35.571   7.556
    3AU     AUC  789  32.093  35.610   7.888
    3AU     AUC  790  32.311  36.096   7.474
    3AU     AUC  791  32.671  36.070   7.457
    3AU     AUC  792  33.037  36.058   7.487
    3AU     AUC  793  32.254  34.987   7.548
    3AU     AUC  794  32.605  34.963   7.529
    3AU     AUC  795  32.961  34.952   7.546
    3AU     AUC  796  32.590  35.204   8.101
    3AU     AUC  797  32.627  35.546   8.101
    3AU     AUC  798  32.684  35.910   8.062
    3AU     AUC  799  32.655  35.167   6.997
    3AU     AUC  800  32.603  35.508   6.973
    3AU     AUC  801  32.600  35.831   6.957
    3AU     AUC  802  32.872  35.308   8.012
    3AU     AUC  803  32.928  35.684   7.987
    3AU     AUC  804  32.927  35.370   7.072
    3AU     AUC  805  32.892  35.682   7.079
    3AU     AUC  806  32.338  35.428   8.000
    3AU     AUC  807  32.385  35.778   7.971
    3AU     AUC  808  32.349  35.327   7.103
    3AU     AUC  809  32.303  35.655   7.083
    3AU     AUC  810  33.130  35.798   7.346
    3AU     AUC  811  33.096  35.795   7.705
    3AU     AUC  812  32.171  35.810   7.383
    3AU     AUC  813  32.216  35.876   7.713
    3AU     AUC  814  33.093  35.247   7.407
    3AU     AUC  815  33.041  35.201   7.739
    3AU     AUC  816  32.172  35.224   7.373
    3AU     AUC  817  32.198  35.298   7.716
    3AU     AUC  818  32.536  36.028   7.782
    3AU     AUC  819  32.875  35.983   7.793
    3AU     AUC  820  32.423  35.095   7.817
    3AU     AUC  821  32.741  35.042   7.809
    3AU     AUC  822  32.446  35.961   7.215
    3AU     AUC  823  32.811  35.977   7.226
    3AU     AUC  824  32.477  35.063   7.258
    3AU     AUC  825  32.837  35.108   7.274
    3AU    AUSL  826  33.136  35.398   8.316
    3AU    AUSL  827  32.886  35.025   8.222
    3AU     AUL  828  33.193  35.026   8.389
    3AU    AUSL  829  32.721  35.340   8.460
    3AU    AUSL  830  32.483  35.749   8.451
    3AU     AUL  831  32.719  35.624   8.710
    3AU    AUSL  832  32.820  35.697   8.204
    3AU    AUSL  833  33.271  35.756   8.126
    3AU     AUL  834  33.089  35.721   8.435
    3AU    AUSL  835  33.044  35.558   6.840
    3AU    AUSL  836  32.905  35.954   6.981
    3AU     AUL  837  33.119  35.886   6.681
    3AU    AUSL  838  32.856  35.236   6.612
    3AU    AUSL  839  33.363  35.306   6.982
    3AU     AUL  840  33.231  35.380   6.665
    3AU    AUSL  841  32.688  35.740   6.670
    3AU    AUSL  842  32.510  35.354   6.829
    3AU     AUL  843  32.641  35.433   6.524
    3AU    AUSL  844  32.099  35.711   8.243
    3AU    AUSL  845  32.462  36.020   8.111
    3AU     AUL  846  32.299  35.988   8.412
    3AU    AUSL  847  32.400  35.398   8.191
    3AU    AUSL  848  31.951  35.321   8.105
    3AU     AUL  849  32.008  35.410   8.341
    3AU    AUSL  850  32.074  35.336   6.795
    3AU    AUSL  851  32.323  34.986   6.947
    3AU     AUL  852  32.347  35.072   6.641
    3AU    AUSL  853  32.260  35.704   6.675
    3AU    AUSL  854  31.980  35.685   7.050
    3AU     AUL  855  31.863  35.566   6.776
    3AU    AUSL  856  33.428  35.993   7.476
    3AU    AUSL  857  33.303  35.783   7.096
    3AU     AUL  858  33.598  35.988   7.128
    3AU    AUSL  859  33.593  35.597   7.367
    3AU    AUSL  860  33.542  35.299   7.768
    3AU     AUL  861  33.804  35.383   7.571
    3AU    AUSL  862  33.315  35.652   7.718
    3AU    AUSL  863  33.273  36.096   7.853
    3AU     AUL  864  33.521  35.836   7.878
    3AU    AUSL  865  32.062  36.173   7.522
    3AU    AUSL  866  32.099  35.925   7.878
    3AU     AUL  867  31.790  36.170   7.745
    3AU    AUSL  868  31.861  35.794   7.444
    3AU    AUSL  869  32.014  36.110   7.106
    3AU     AUL  870  31.778  36.035   7.263
    3AU    AUSL  871  31.734  35.716   7.888
    3AU    AUSL  872  31.701  35.410   7.349
    3AU     AUL  873  31.579  35.727   7.590
    3AU    AUSL  874  33.320  34.950   7.615
    3AU    AUSL  875  33.146  35.233   7.925
    3AU     AUL  876  33.453  35.139   8.001
    3AU    AUSL  877  33.278  35.320   7.397
    3AU    AUSL  878  33.268  34.918   7.188
    3AU     AUL  879  33.512  35.128   7.250
    3AU    AUSL  880  31.854  35.031   7.553
    3AU    AUSL  881  32.065  35.241   7.205
    3AU     AUL  882  31.715  35.134   7.213
    3AU    AUSL  883  31.971  35.432   7.694
    3AU    AUSL  884  32.161  35.048   7.849
    3AU     AUL  885  31.780  35.201   7.848
    3AU    AUSL  886  32.703  36.356   7.966
    3AU    AUSL  887  32.248  36.335   7.878
    3AU     AUL  888  32.470  36.380   8.194
    3AU    AUSL  889  32.535  36.211   7.591
    3AU    AUSL  890  32.786  36.344   7.247
    3AU     AUL  891  32.555  36.551   7.554
    3AU    AUSL  892  32.973  36.287   7.623
    3AU    AUSL  893  32.967  36.086   8.153
    3AU     AUL  894  33.086  36.376   7.941
    3AU    AUSL  895  32.561  34.890   7.970
    3AU    AUSL  896  32.985  34.831   7.849
    3AU     AUL  897  32.746  34.769   8.223
    3AU    AUSL  898  32.253  34.668   7.699
    3AU    AUSL  899  32.281  35.005   8.274
    3AU     AUL  900  32.289  34.707   8.050
    3AU    AUSL  901  32.685  34.593   7.667
    3AU    AUSL  902  32.478  34.838   7.362
    3AU     AUL  903  32.361  34.493   7.487
    3AU    AUSL  904  32.613  36.229   6.843
    3AU    AUSL  905  33.185  36.207   7.199
    3AU     AUL  906  32.929  36.317   6.936
    3AU    AUSL  907  32.364  36.323   7.210
    3AU    AUSL  908  32.387  35.912   7.014
    3AU     AUL  909  32.294  36.218   6.856
    3AU    AUSL  910  32.703  34.786   6.981
    3AU    AUSL  911  32.070  34.800   7.258
    3AU     AUL  912  32.366  34.652   7.043
    3AU    AUSL  913  32.910  34.810   7.381
    3AU    AUSL  914  32.933  35.143   7.018
    3AU     AUL  915  33.027  34.770   7.050
    3AU       S  916  33.158  34.575   8.227
    3AU     LIG  917  33.205  34.341   8.352
    3AU     LIG  918  33.327  34.181   8.479
    3AU     LIG  919  33.485  34.004   8.590
    3AU       S  920  33.192  35.365   8.719
    3AU     LIG  921  33.355  35.423   8.921
    3AU     LIG  922  33.445  35.479   9.146
    3AU     LIG  923  33.551  35.446   9.383
    3AU       S  924  32.870  35.172   8.725
    3AU     LIG  925  32.926  35.078   9.005
    3AU     LIG  926  33.092  35.094   9.203
    3AU     LIG  927  33.226  35.049   9.419
    3AU       S  928  32.245  35.662   8.757
    3AU     LIG  929  32.208  35.686   9.059
    3AU     LIG  930  32.090  35.671   9.261
    3AU     LIG  931  31.942  35.648   9.479
    3AU       S  932  32.770  36.096   8.566
    3AU     LIG  933  32.887  36.233   8.771
    3AU     LIG  934  33.100  36.153   8.933
    3AU     LIG  935  33.323  36.027   8.947
    3AU       S  936  33.462  35.988   8.334
    3AU     LIG  937  33.645  36.028   8.555
    3AU     LIG  938  33.785  36.185   8.669
    3AU     LIG  939  33.961  36.361   8.744
    3AU       S  940  33.063  35.617   6.306
    3AU     LIG  941  33.278  35.672   6.093
    3AU     LIG  942  33.412  35.506   5.955
    3AU     LIG  943  33.472  35.315   5.795
    3AU       S  944  33.278  36.317   6.652
    3AU     LIG  945  33.324  36.510   6.462
    3AU     LIG  946  33.487  36.600   6.288
    3AU     LIG  947  33.652  36.691   6.123
    3AU       S  948  33.538  35.028   6.768
    3AU     LIG  949  33.700  34.941   6.527
    3AU     LIG  950  33.714  34.722   6.388
    3AU     LIG  951  33.730  34.467   6.348
    3AU       S  952  32.984  35.322   6.240
    3AU     LIG  953  33.006  35.198   6.011
    3AU     LIG  954  32.993  35.125   5.771
    3AU     LIG  955  33.064  35.105   5.521
    3AU       S  956  32.250  35.382   6.303
    3AU     LIG  957  32.305  35.349   6.024
    3AU     LIG  958  32.311  35.295   5.795
    3AU     LIG  959  32.235  35.254   5.540
    3AU       S  960  32.820  35.763   6.264
    3AU     LIG  961  32.721  35.697   5.973
    3AU     LIG  962  32.863  35.622   5.780
    3AU     LIG  963  33.056  35.614   5.607
    3AU       S  964  31.969  35.750   8.643
    3AU     LIG  965  31.758  35.725   8.819
    3AU     LIG  966  31.704  35.509   8.977
    3AU     LIG  967  31.634  35.377   9.166
    3AU       S  968  32.000  36.308   8.268
    3AU     LIG  969  31.914  36.463   8.501
    3AU     LIG  970  31.773  36.474   8.694
    3AU     LIG  971  31.604  36.563   8.877
    3AU       S  972  31.723  35.042   8.284
    3AU     LIG  973  31.477  34.973   8.381
    3AU     LIG  974  31.332  34.781   8.457
    3AU     LIG  975  31.205  34.599   8.575
    3AU       S  976  32.294  35.370   8.684
    3AU     LIG  977  32.217  35.194   8.887
    3AU     LIG  978  32.104  35.174   9.105
    3AU     LIG  979  32.059  35.160   9.361
    3AU       S  980  31.988  35.294   6.418
    3AU     LIG  981  31.809  35.224   6.208
    3AU     LIG  982  31.798  35.295   5.957
    3AU     LIG  983  31.786  35.405   5.737
    3AU       S  984  32.022  34.746   6.745
    3AU     LIG  985  31.948  34.559   6.540
    3AU     LIG  986  31.790  34.517   6.354
    3AU     LIG  987  31.606  34.468   6.184
    3AU       S  988  31.652  35.972   6.798
    3AU     LIG  989  31.445  36.141   6.744
    3AU     LIG  990  31.393  36.340   6.588
    3AU     LIG  991  31.369  36.463   6.367
    3AU       S  992  32.150  35.650   6.393
    3AU     LIG  993  31.983  35.751   6.139
    3AU     LIG  994  32.066  35.788   5.913
    3AU     LIG  995  32.174  35.768   5.679
    3AU       S  996  33.509  36.131   6.708
    3AU     LIG  997  33.724  36.177   6.537
    3AU     LIG  998  33.881  36.289   6.389
    3AU     LIG  999  34.062  36.408   6.245
    3AU       S 1000  33.761  36.107   7.556
    3AU     LIG 1001  33.974  36.311   7.540
    3AU     LIG 1002  34.218  36.355   7.511
    3AU     LIG 1003  34.471  36.418   7.532
    3AU       S 1004  33.937  35.808   7.388
    3AU     LIG 1005  34.206  35.879   7.293
    3AU     LIG 1006  34.446  35.945   7.306
    3AU     LIG 1007  34.668  36.059   7.226
    3AU       S 1008  33.801  34.929   7.790
    3AU     LIG 1009  34.036  34.827   7.920
    3AU     LIG 1010  34.289  34.822   7.859
    3AU     LIG 1011  34.538  34.790   7.780
    3AU       S 1012  33.498  36.236   8.127
    3AU     LIG 1013  33.693  36.413   8.210
    3AU     LIG 1014  33.738  36.612   8.357
    3AU     LIG 1015  33.757  36.791   8.540
    3AU       S 1016  33.908  35.840   7.663
    3AU     LIG 1017  34.146  35.911   7.814
    3AU     LIG 1018  34.383  35.978   7.811
    3AU     LIG 1019  34.613  36.068   7.878
    3AU       S 1020  31.834  36.085   8.203
    3AU     LIG 1021  31.595  36.077   8.380
    3AU     LIG 1022  31.409  36.216   8.444
    3AU     LIG 1023  31.233  36.335   8.594
    3AU       S 1024  32.001  36.509   7.463
    3AU     LIG 1025  31.841  36.717   7.335
    3AU     LIG 1026  31.595  36.697   7.239
    3AU     LIG 1027  31.407  36.540   7.123
    3AU       S 1028  31.437  35.728   7.139
    3AU     LIG 1029  31.199  35.733   7.071
    3AU     LIG 1030  30.944  35.809   7.141
    3AU     LIG 1031  30.799  36.022   7.163
    3AU       S 1032  31.867  36.382   6.929
    3AU     LIG 1033  31.794  36.590   6.787
    3AU     LIG 1034  31.652  36.769   6.702
    3AU     LIG 1035  31.521  36.924   6.537
    3AU       S 1036  31.348  35.324   7.449
    3AU     LIG 1037  31.071  35.314   7.337
    3AU     LIG 1038  30.828  35.296   7.332
    3AU     LIG 1039  30.594  35.175   7.284
    3AU       S 1040  31.539  35.643   8.097
    3AU     LIG 1041  31.226  35.747   8.182
    3AU     LIG 1042  31.109  35.959   8.094
    3AU     LIG 1043  30.929  36.106   7.968
    3AU       S 1044  33.531  34.759   7.606
    3AU     LIG 1045  33.665  34.457   7.622
    3AU     LIG 1046  33.893  34.391   7.697
    3AU     LIG 1047  34.164  34.377   7.655
    3AU       S 1048  33.375  34.698   8.066
    3AU     LIG 1049  33.622  34.562   8.105
    3AU     LIG 1050  33.752  34.474   8.287
    3AU     LIG 1051  33.799  34.404   8.537
    3AU       S 1052  33.788  34.909   7.519
    3AU     LIG 1053  34.011  34.787   7.383
    3AU     LIG 1054  34.252  34.788   7.343
    3AU     LIG 1055  34.493  34.716   7.280
    3AU       S 1056  33.480  34.766   6.925
    3AU     LIG 1057  33.545  34.506   6.822
    3AU     LIG 1058  33.418  34.283   6.774
    3AU     LIG 1059  33.377  34.064   6.659
    3AU       S 1060  31.845  34.941   6.817
    3AU     LIG 1061  31.612  34.951   6.620
    3AU     LIG 1062  31.435  34.834   6.527
    3AU     LIG 1063  31.229  34.676   6.465
    3AU       S 1064  31.430  35.033   7.583
    3AU     LIG 1065  31.213  34.867   7.588
    3AU     LIG 1066  30.986  34.819   7.482
    3AU     LIG 1067  30.753  34.715   7.441
    3AU       S 1068  31.842  34.812   8.082
    3AU     LIG 1069  31.666  34.604   8.068
    3AU     LIG 1070  31.546  34.418   8.174
    3AU     LIG 1071  31.413  34.232   8.287
    3AU       S 1072  31.372  35.328   7.713
    3AU     LIG 1073  31.138  35.300   7.888
    3AU     LIG 1074  30.899  35.208   7.835
    3AU     LIG 1075  30.690  35.073   7.809
    3AU       S 1076  32.041  36.527   7.989
    3AU     LIG 1077  31.806  36.716   8.062
    3AU     LIG 1078  31.581  36.679   8.206
    3AU     LIG 1079  31.449  36.756   8.412
    3AU       S 1080  32.784  36.713   8.053
    3AU     LIG 1081  32.895  36.900   8.255
    3AU     LIG 1082  32.783  37.090   8.380
    3AU     LIG 1083  32.638  37.291   8.444
    3AU       S 1084  32.546  36.848   7.925
    3AU     LIG 1085  32.457  37.073   7.968
    3AU     LIG 1086  32.431  37.332   7.984
    3AU     LIG 1087  32.440  37.583   8.012
    3AU       S 1088  32.711  36.691   7.131
    3AU     LIG 1089  32.777  36.960   7.146
    3AU     LIG 1090  32.811  37.192   7.130
    3AU     LIG 1091  32.874  37.435   7.042
    3AU       S 1092  33.221  36.203   8.364
    3AU     LIG 1093  33.296  36.422   8.543
    3AU     LIG 1094  33.397  36.503   8.736
    3AU     LIG 1095  33.523  36.521   8.967
    3AU       S 1096  32.923  36.764   7.734
    3AU     LIG 1097  32.955  37.037   7.718
    3AU     LIG 1098  32.930  37.247   7.875
    3AU     LIG 1099  32.942  37.431   8.040
    3AU       S 1100  32.644  34.354   8.062
    3AU     LIG 1101  32.763  34.148   8.213
    3AU     LIG 1102  32.751  33.941   8.334
    3AU     LIG 1103  32.732  33.704   8.434
    3AU       S 1104  33.127  34.587   7.902
    3AU     LIG 1105  33.231  34.283   7.827
    3AU     LIG 1106  33.391  34.149   7.925
    3AU     LIG 1107  33.603  34.049   8.057
    3AU       S 1108  32.392  34.268   7.896
    3AU     LIG 1109  32.343  34.001   7.918
    3AU     LIG 1110  32.365  33.783   8.033
    3AU     LIG 1111  32.355  33.545   8.129
    3AU       S 1112  31.986  34.894   8.386
    3AU     LIG 1113  31.859  34.676   8.570
    3AU     LIG 1114  31.722  34.502   8.640
    3AU     LIG 1115  31.585  34.308   8.762
    3AU       S 1116  32.710  34.364   7.221
    3AU     LIG 1117  32.649  34.036   7.210
    3AU     LIG 1118  32.634  33.840   7.090
    3AU     LIG 1119  32.634  33.573   7.027
    3AU       S 1120  32.724  34.317   7.758
    3AU     LIG 1121  32.824  34.015   7.712
    3AU     LIG 1122  32.837  33.818   7.838
    3AU     LIG 1123  32.831  33.572   7.941
    3AU       S 1124  32.563  36.611   6.835
    3AU     LIG 1125  32.569  36.840   6.681
    3AU     LIG 1126  32.692  37.056   6.641
    3AU     LIG 1127  32.758  37.290   6.564
    3AU       S 1128  33.402  36.387   6.958
    3AU     LIG 1129  33.600  36.591   6.901
    3AU     LIG 1130  33.759  36.665   6.721
    3AU     LIG 1131  33.907  36.787   6.558
    3AU       S 1132  32.360  36.632   7.112
    3AU     LIG 1133  32.248  36.910   7.085
    3AU     LIG 1134  32.305  37.136   6.998
    3AU     LIG 1135  32.379  37.361   6.907
    3AU       S 1136  31.922  36.042   6.654
    3AU     LIG 1137  31.862  36.177   6.415
    3AU     LIG 1138  31.872  36.407   6.319
    3AU     LIG 1139  31.845  36.646   6.239
    3AU       S 1140  31.867  34.710   7.029
    3AU     LIG 1141  31.610  34.537   6.950
    3AU     LIG 1142  31.523  34.395   6.784
    3AU     LIG 1143  31.437  34.222   6.606
    3AU       S 1144  32.780  34.403   6.941
    3AU     LIG 1145  32.897  34.224   6.769
    3AU     LIG 1146  32.870  34.014   6.646
    3AU     LIG 1147  32.794  33.776   6.582
    3AU       S 1148  32.973  34.404   7.324
    3AU     LIG 1149  33.137  34.163   7.293
    3AU     LIG 1150  33.144  33.957   7.128
    3AU     LIG 1151  33.129  33.740   6.984
    3AU       S 1152  33.234  34.913   6.673
    3AU     LIG 1153  33.220  34.735   6.470
    3AU     LIG 1154  33.210  34.507   6.376
    3AU     LIG 1155  33.261  34.304   6.221
    4AU     AUC 1156   7.807  31.794   7.535
    4AU     AUC 1157   8.059  31.799   7.369
    4AU     AUC 1158   8.048  31.786   7.699
    4AU     AUC 1159   7.537  31.802   7.380
    4AU     AUC 1160   7.563  31.831   7.705
    4AU     AUC 1161   7.646  32.047   7.513
    4AU     AUC 1162   7.993  32.059   7.516
    4AU     AUC 1163   7.628  31.540   7.543
    4AU     AUC 1164   7.959  31.518   7.545
    4AU     AUC 1165   7.801  31.634   7.798
    4AU     AUC 1166   7.820  31.974   7.779
    4AU     AUC 1167   7.794  31.621   7.287
    4AU     AUC 1168   7.814  31.927   7.271
    4AU     AUC 1169   8.362  31.790   7.204
    4AU     AUC 1170   8.370  31.770   7.545
    4AU     AUC 1171   8.328  31.757   7.899
    4AU     AUC 1172   7.235  31.776   7.228
    4AU     AUC 1173   7.234  31.835   7.556
    4AU     AUC 1174   7.263  31.874   7.888
    4AU     AUC 1175   7.481  32.360   7.474
    4AU     AUC 1176   7.841  32.334   7.457
    4AU     AUC 1177   8.207  32.322   7.487
    4AU     AUC 1178   7.424  31.251   7.548
    4AU     AUC 1179   7.775  31.227   7.529
    4AU     AUC 1180   8.131  31.216   7.546
    4AU     AUC 1181   7.760  31.468   8.101
    4AU     AUC 1182   7.797  31.810   8.101
    4AU     AUC 1183   7.854  32.174   8.062
    4AU     AUC 1184   7.825  31.431   6.997
    4AU     AUC 1185   7.773  31.772   6.973
    4AU     AUC 1186   7.770  32.095   6.957
    4AU     AUC 1187   8.042  31.572   8.012
    4AU     AUC 1188   8.098  31.948   7.987
    4AU     AUC 1189   8.097  31.634   7.072
    4AU     AUC 1190   8.062  31.946   7.079
    4AU     AUC 1191   7.508  31.692   8.000
    4AU     AUC 1192   7.555  32.042   7.971
    4AU     AUC 1193   7.519  31.591   7.103
    4AU     AUC 1194   7.473  31.919   7.083
    4AU     AUC 1195   8.300  32.062   7.346
    4AU     AUC 1196   8.266  32.059   7.705
    4AU     AUC 1197   7.341  32.074   7.383
    4AU     AUC 1198   7.386  32.140   7.713
    4AU     AUC 1199   8.263  31.511   7.407
    4AU     AUC 1200   8.211  31.465   7.739
    4AU     AUC 1201   7.342  31.488   7.373
    4AU     AUC 1202   7.368  31.562   7.716
    4AU     AUC 1203   7.706  32.292   7.782
    4AU     AUC 1204   8.045  32.247   7.793
    4AU     AUC 1205   7.593  31.359   7.817
    4AU     AUC 1206   7.911  31.306   7.809
    4AU     AUC 1207   7.616  32.225   7.215
    4AU     AUC 1208   7.981  32.241   7.226
    4AU     AUC 1209   7.647  31.327   7.258
    4AU     AUC 1210   8.007  31.372   7.274
    4AU    AUSL 1211   8.306  31.662   8.316
    4AU    AUSL 1212   8.056  31.289   8.222
    4AU     AUL 1213   8.363  31.290   8.389
    4AU    AUSL 1214   7.891  31.604   8.460
    4AU    AUSL 1215   7.653  32.013   8.451
    4AU     AUL 1216   7.889  31.888   8.710
    4AU    AUSL 1217   7.990  31.961   8.204
    4AU    AUSL 1218   8.441  32.020   8.126
    4AU     AUL 1219   8.259  31.985   8.435
    4AU    AUSL 1220   8.214  31.822   6.840
    4AU    AUSL 1221   8.075  32.218   6.981
    4AU     AUL 1222   8.289  32.150   6.681
    4AU    AUSL 1223   8.026  31.500   6.612
    4AU    AUSL 1224   8.533  31.570   6.982
    4AU     AUL 1225   8.401  31.644   6.665
    4AU    AUSL 1226   7.858  32.004   6.670
    4AU    AUSL 1227   7.680  31.618   6.829
    4AU     AUL 1228   7.811  31.697   6.524
    4AU    AUSL 1229   7.269  31.975   8.243
    4AU    AUSL 1230   7.632  32.284   8.111
    4AU     AUL 1231   7.469  32.252   8.412
    4AU    AUSL 1232   7.570  31.662   8.191
    4AU    AUSL 1233   7.121  31.585   8.105
    4AU     AUL 1234   7.178  31.674   8.341
    4AU    AUSL 1235   7.244  31.600   6.795
    4AU    AUSL 1236   7.493  31.250   6.947
    4AU     AUL 1237   7.517  31.336   6.641
    4AU    AUSL 1238   7.430  31.968   6.675
    4AU    AUSL 1239   7.150  31.949   7.050
    4AU     AUL 1240   7.033  31.830   6.776
    4AU    AUSL 1241   8.598  32.257   7.476
    4AU    AUSL 1242   8.473  32.047   7.096
    4AU     AUL 1243   8.768  32.252   7.128
    4AU    AUSL 1244   8.763  31.861   7.367
    4AU    AUSL 1245   8.712  31.563   7.768
    4AU     AUL 1246   8.974  31.647   7.571
    4AU    AUSL 1247   8.485  31.916   7.718
    4AU    AUSL 1248   8.443  32.360   7.853
    4AU     AUL 1249   8.691  32.100   7.878
    4AU    AUSL 1250   7.232  32.437   7.522
    4AU    AUSL 1251   7.269  32.189   7.878
    4AU     AUL 1252   6.960  32.434   7.745
    4AU    AUSL 1253   7.031  32.058   7.444
    4AU    AUSL 1254   7.184  32.374   7.106
    4AU     AUL 1255   6.948  32.299   7.263
    4AU    AUSL 1256   6.904  31.980   7.888
    4AU    AUSL 1257   6.871  31.674   7.349
    4AU     AUL 1258   6.749  31.991   7.590
    4AU    AUSL 1259   8.490  31.214   7.615
    4AU    AUSL 1260   8.316  31.497   7.925
    4AU     AUL 1261   8.623  31.403   8.001
    4AU    AUSL 1262   8.448  31.584   7.397
    4AU    AUSL 1263   8.438  31.182   7.188
    4AU     AUL 1264   8.682  31.392   7.250
    4AU    AUSL 1265   7.024  31.295   7.553
    4AU    AUSL 1266   7.235  31.505   7.205
    4AU     AUL 1267   6.885  31.398   7.213
    4AU    AUSL 1268   7.141  31.696   7.694
    4AU    AUSL 1269   7.331  31.312   7.849
    4AU     AUL 1270   6.950  31.465   7.848
    4AU    AUSL 1271   7.873  32.620   7.966
    4AU    AUSL 1272   7.418  32.599   7.878
    4AU     AUL 1273   7.640  32.644   8.194
    4AU    AUSL 1274   7.705  32.475   7.591
    4AU    AUSL 1275   7.956  32.608   7.247
    4AU     AUL 1276   7.725  32.815   7.554
    4AU    AUSL 1277   8.143  32.551   7.623
    4AU    AUSL 1278   8.137  32.350   8.153
    4AU     AUL 1279   8.256  32.640   7.941
    4AU    AUSL 1280   7.731  31.154   7.970
    4AU    AUSL 1281   8.155  31.095   7.849
    4AU     AUL 1282   7.916  31.033   8.223
    4AU    AUSL 1283   7.423  30.932   7.699
    4AU    AUSL 1284   7.451  31.269   8.274
    4AU     AUL 1285   7.459  30.971   8.050
    4AU    AUSL 1286   7.855  30.857   7.667
    4AU    AUSL 1287   7.648  31.102   7.362
    4AU     AUL 1288   7.531  30.757   7.487
    4AU    AUSL 1289   7.783  32.493   6.843
    4AU    AUSL 1290   8.355  32.471   7.199
    4AU     AUL 1291   8.099  32.581   6.936
    4AU    AUSL 1292   7.534  32.587   7.210
    4AU    AUSL 1293   7.557  32.176   7.014
    4AU     AUL 1294   7.464  32.482   6.856
    4AU    AUSL 1295   7.873  31.050   6.981
    4AU    AUSL 1296   7.240  31.064   7.258
    4AU     AUL 1297   7.536  30.916   7.043
    4AU    AUSL 1298   8.080  31.074   7.381
    4AU    AUSL 1299   8.103  31.407   7.018
    4AU     AUL 1300   8.197  31.034   7.050
    4AU       S 1301   8.328  30.839   8.227
    4AU     LIG 1302   8.375  30.605   8.352
    4AU     LIG 1303   8.497  30.445   8.479
    4AU     LIG 1304   8.655  30.268   8.590
    4AU       S 1305   8.362  31.629   8.719
    4AU     LIG 1306   8.525  31.687   8.921
    4AU     LIG 1307   8.615  31.743   9.146
    4AU     LIG 1308   8.721  31.710   9.383
    4AU       S 1309   8.040  31.436   8.725
    4AU     LIG 1310   8.096  31.342   9.005
    4AU     LIG 1311   8.262  31.358   9.203
    4AU     LIG 1312   8.396  31.313   9.419
    4AU       S 1313   7.415  31.926   8.757
    4AU     LIG 1314   7.378  31.950   9.059
    4AU     LIG 1315   7.260  31.935   9.261
    4AU     LIG 1316   7.112  31.912   9.479
    4AU       S 1317   7.940  32.360   8.566
    4AU     LIG 1318   8.057  32.497   8.771
    4AU     LIG 1319   8.270  32.417   8.933
    4AU     LIG 1320   8.493  32.291   8.947
    4AU       S 1321   8.632  32.252   8.334
    4AU     LIG 1322   8.815  32.292   8.555
    4AU     LIG 1323   8.955  32.449   8.669
    4AU     LIG 1324   9.131  32.625   8.744
    4AU       S 1325   8.233  31.881   6.306
    4AU     LIG 1326   8.448  31.936   6.093
    4AU     LIG 1327   8.582  31.770   5.955
    4AU     LIG 1328   8.642  31.579   5.795
    4AU       S 1329   8.448  32.581   6.652
    4AU     LIG 1330   8.494  32.774   6.462
    4AU     LIG 1331   8.657  32.864   6.288
    4AU     LIG 1332   8.822  32.955   6.123
    4AU       S 1333   8.708  31.292   6.768
    4AU     LIG 1334   8.870  31.205   6.527
    4AU     LIG 1335   8.884  30.986   6.388
    4AU     LIG 1336   8.900  30.731   6.348
    4AU       S 1337   8.154  31.586   6.240
    4AU     LIG 1338   8.176  31.462   6.011
    4AU     LIG 1339   8.163  31.389   5.771
    4AU     LIG 1340   8.234  31.369   5.521
    4AU       S 1341   7.420  31.646   6.303
    4AU     LIG 1342   7.475  31.613   6.024
    4AU     LIG 1343   7.481  31.559   5.795
    4AU     LIG 1344   7.405  31.518   5.540
    4AU       S 1345   7.990  32.027   6.264
    4AU     LIG 1346   7.891  31.961   5.973
    4AU     LIG 1347   8.033  31.886   5.780
    4AU     LIG 1348   8.226  31.878   5.607
    4AU       S 1349   7.139  32.014   8.643
    4AU     LIG 1350   6.928  31.989   8.819
    4AU     LIG 1351   6.874  31.773   8.977
    4AU     LIG 1352   6.804  31.641   9.166
    4AU       S 1353   7.170  32.572   8.268
    4AU     LIG 1354   7.084  32.727   8.501
    4AU     LIG 1355   6.943  32.738   8.694
    4AU     LIG 1356   6.774  32.827   8.877
    4AU       S 1357   6.893  31.306   8.284
    4AU     LIG 1358   6.647  31.237   8.381
    4AU     LIG 1359   6.502  31.045   8.457
    4AU     LIG 1360   6.375  30.863   8.575
    4AU       S 1361   7.464  31.634   8.684
    4AU     LIG 1362   7.387  31.458   8.887
    4AU     LIG 1363   7.274  31.438   9.105
    4AU     LIG 1364   7.229  31.424   9.361
    4AU       S 1365   7.158  31.558   6.418
    4AU     LIG 1366   6.979  31.488   6.208
    4AU     LIG 1367   6.968  31.559   5.957
    4AU     LIG 1368   6.956  31.669   5.737
    4AU       S 1369   7.192  31.010   6.745
    4AU     LIG 1370   7.118  30.823   6.540
    4AU     LIG 1371   6.960  30.781   6.354
    4AU     LIG 1372   6.776  30.732   6.184
    4AU       S 1373   6.822  32.236   6.798
    4AU     LIG 1374   6.615  32.405   6.744
    4AU     LIG 1375   6.563  32.604   6.588
    4AU     LIG 1376   6.539  32.727   6.367
    4AU       S 1377   7.320  31.914   6.393
    4AU     LIG 1378   7.153  32.015   6.139
    4AU     LIG 1379   7.236  32.052   5.913
    4AU     LIG 1380   7.344  32.032   5.679
    4AU       S 1381   8.679  32.395   6.708
    4AU     LIG 1382   8.894  32.441   6.537
    4AU     LIG 1383   9.051  32.553   6.389
    4AU     LIG 1384   9.232  32.672   6.245
    4AU       S 1385   8.931  32.371   7.556
    4AU     LIG 1386   9.144  32.575   7.540
    4AU     LIG 1387   9.388  32.619   7.511
    4AU     LIG 1388   9.641  32.682   7.532
    4AU       S 1389   9.107  32.072   7.388
    4AU     LIG 1390   9.376  32.143   7.293
    4AU     LIG 1391   9.616  32.209   7.306
    4AU     LIG 1392   9.838  32.323   7.226
    4AU       S 1393   8.971  31.193   7.790
    4AU     LIG 1394   9.206  31.091   7.920
    4AU     LIG 1395   9.459  31.086   7.859
    4AU     LIG 1396   9.708  31.054   7.780
    4AU       S 1397   8.668  32.500   8.127
    4AU     LIG 1398   8.863  32.677   8.210
    4AU     LIG 1399   8.908  32.876   8.357
    4AU     LIG 1400   8.927  33.055   8.540
    4AU       S 1401   9.078  32.104   7.663
    4AU     LIG 1402   9.316  32.175   7.814
    4AU     LIG 1403   9.553  32.242   7.811
    4AU     LIG 1404   9.783  32.332   7.878
    4AU       S 1405   7.004  32.349   8.203
    4AU     LIG 1406   6.765  32.341   8.380
    4AU     LIG 1407   6.579  32.480   8.444
    4AU     LIG 1408   6.403  32.599   8.594
    4AU       S 1409   7.171  32.773   7.463
    4AU     LIG 1410   7.011  32.981   7.335
    4AU     LIG 1411   6.765  32.961   7.239
    4AU     LIG 1412   6.577  32.804   7.123
    4AU       S 1413   6.607  31.992   7.139
    4AU     LIG 1414   6.369  31.997   7.071
    4AU     LIG 1415   6.114  32.073   7.141
    4AU     LIG 1416   5.969  32.286   7.163
    4AU       S 1417   7.037  32.646   6.929
    4AU     LIG 1418   6.964  32.854   6.787
    4AU     LIG 1419   6.822  33.033   6.702
    4AU     LIG 1420   6.691  33.188   6.537
    4AU       S 1421   6.518  31.588   7.449
    4AU     LIG 1422   6.241  31.578   7.337
    4AU     LIG 1423   5.998  31.560   7.332
    4AU     LIG 1424   5.764  31.439   7.284
    4AU       S 1425   6.709  31.907   8.097
    4AU     LIG 1426   6.396  32.011   8.182
    4AU     LIG 1427   6.279  32.223   8.094
    4AU     LIG 1428   6.099  32.370   7.968
    4AU       S 1429   8.701  31.023   7.606
    4AU     LIG 1430   8.835  30.721   7.622
    4AU     LIG 1431   9.063  30.655   7.697
    4AU     LIG 1432   9.334  30.641   7.655
    4AU       S 1433   8.545  30.962   8.066
    4AU     LIG 1434   8.792  30.826   8.105
    4AU     LIG 1435   8.922  30.738   8.287
    4AU     LIG 1436   8.969  30.668   8.537
    4AU       S 1437   8.958  31.173   7.519
    4AU     LIG 1438   9.181  31.051   7.383
    4AU     LIG 1439   9.422  31.052   7.343
    4AU     LIG 1440   9.663  30.980   7.280
    4AU       S 1441   8.650  31.030   6.925
    4AU     LIG 1442   8.715  30.770   6.822
    4AU     LIG 1443   8.588  30.547   6.774
    4AU     LIG 1444   8.547  30.328   6.659
    4AU       S 1445   7.015  31.205   6.817
    4AU     LIG 1446   6.782  31.215   6.620
    4AU     LIG 1447   6.605  31.098   6.527
    4AU     LIG 1448   6.399  30.940   6.465
    4AU       S 1449   6.600  31.297   7.583
    4AU     LIG 1450   6.383  31.131   7.588
    4AU     LIG 1451   6.156  31.083   7.482
    4AU     LIG 1452   5.923  30.979   7.441
    4AU       S 1453   7.012  31.076   8.082
    4AU     LIG 1454   6.836  30.868   8.068
    4AU     LIG 1455   6.716  30.682   8.174
    4AU     LIG 1456   6.583  30.496   8.287
    4AU       S 1457   6.542  31.592   7.713
    4AU     LIG 1458   6.308  31.564   7.888
    4AU     LIG 1459   6.069  31.472   7.835
    4AU     LIG 1460   5.860  31.337   7.809
    4AU       S 1461   7.211  32.791   7.989
    4AU     LIG 1462   6.976  32.980   8.062
    4AU     LIG 1463   6.751  32.943   8.206
    4AU     LIG 1464   6.619  33.020   8.412
    4AU       S 1465   7.954  32.977   8.053
    4AU     LIG 1466   8.065  33.164   8.255
    4AU     LIG 1467   7.953  33.354   8.380
    4AU     LIG 1468   7.808  33.555   8.444
    4AU       S 1469   7.716  33.112   7.925
    4AU     LIG 1470   7.627  33.337   7.968
    4AU     LIG 1471   7.601  33.596   7.984
    4AU     LIG 1472   7.610  33.847   8.012
    4AU       S 1473   7.881  32.955   7.131
    4AU     LIG 1474   7.947  33.224   7.146
    4AU     LIG 1475   7.981  33.456   7.130
    4AU     LIG 1476   8.044  33.699   7.042
    4AU       S 1477   8.391  32.467   8.364
    4AU     LIG 1478   8.466  32.686   8.543
    4AU     LIG 1479   8.567  32.767   8.736
    4AU     LIG 1480   8.693  32.785   8.967
    4AU       S 1481   8.093  33.028   7.734
    4AU     LIG 1482   8.125  33.301   7.718
    4AU     LIG 1483   8.100  33.511   7.875
    4AU     LIG 1484   8.112  33.695   8.040
    4AU       S 1485   7.814  30.618   8.062
    4AU     LIG 1486   7.933  30.412   8.213
    4AU     LIG 1487   7.921  30.205   8.334
    4AU     LIG 1488   7.902  29.968   8.434
    4AU       S 1489   8.297  30.851   7.902
    4AU     LIG 1490   8.401  30.547   7.827
    4AU     LIG 1491   8.561  30.413   7.925
    4AU     LIG 1492   8.773  30.313   8.057
    4AU       S 1493   7.562  30.532   7.896
    4AU     LIG 1494   7.513  30.265   7.918
    4AU     LIG 1495   7.535  30.047   8.033
    4AU     LIG 1496   7.525  29.809   8.129
    4AU       S 1497   7.156  31.158   8.386
    4AU     LIG 1498   7.029  30.940   8.570
    4AU     LIG 1499   6.892  30.766   8.640
    4AU     LIG 1500   6.755  30.572   8.762
    4AU       S 1501   7.880  30.628   7.221
    4AU     LIG 1502   7.819  30.300   7.210
    4AU     LIG 1503   7.804  30.104   7.090
    4AU     LIG 1504   7.804  29.837   7.027
    4AU       S 1505   7.894  30.581   7.758
    4AU     LIG 1506   7.994  30.279   7.712
    4AU     LIG 1507   8.007  30.082   7.838
    4AU     LIG 1508   8.001  29.836   7.941
    4AU       S 1509   7.733  32.875   6.835
    4AU     LIG 1510   7.739  33.104   6.681
    4AU     LIG 1511   7.862  33.320   6.641
    4AU     LIG 1512   7.928  33.554   6.564
    4AU       S 1513   8.572  32.651   6.958
    4AU     LIG 1514   8.770  32.855   6.901
    4AU     LIG 1515   8.929  32.929   6.721
    4AU     LIG 1516   9.077  33.051   6.558
    4AU       S 1517   7.530  32.896   7.112
    4AU     LIG 1518   7.418  33.174   7.085
    4AU     LIG 1519   7.475  33.400   6.998
    4AU     LIG 1520   7.549  33.625   6.907
    4AU       S 1521   7.092  32.306   6.654
    4AU     LIG 1522   7.032  32.441   6.415
    4AU     LIG 1523   7.042  32.671   6.319
    4AU     LIG 1524   7.015  32.910   6.239
    4AU       S 1525   7.037  30.974   7.029
    4AU     LIG 1526   6.780  30.801   6.950
    4AU     LIG 1527   6.693  30.659   6.784
    4AU     LIG 1528   6.607  30.486   6.606
    4AU       S 1529   7.950  30.667   6.941
    4AU     LIG 1530   8.067  30.488   6.769
    4AU     LIG 1531   8.040  30.278   6.646
    4AU     LIG 1532   7.964  30.040   6.582
    4AU       S 1533   8.143  30.668   7.324
    4AU     LIG 1534   8.307  30.427   7.293
    4AU     LIG 1535   8.314  30.221   7.128
    4AU     LIG 1536   8.299  30.004   6.984
    4AU       S 1537   8.404  31.177   6.673
    4AU     LIG 1538   8.390  30.999   6.470
    4AU     LIG 1539   8.380  30.771   6.376
    4AU     LIG 1540   8.431  30.568   6.221
    5AU     AUC 1541  11.753   5.134   7.535
    5AU     AUC 1542  12.005   5.139   7.369
    5AU     AUC 1543  11.994   5.126   7.699
    5AU     AUC 1544  11.483   5.142   7.380
    5AU     AUC 1545  11.509   5.171   7.705
    5AU     AUC 1546  11.592   5.387   7.513
    5AU     AUC 1547  11.939   5.399   7.516
    5AU     AUC 1548  11.574   4.880   7.543
    5AU     AUC 1549  11.905   4.858   7.545
    5AU     AUC 1550  11.747   4.974   7.798
    5AU     AUC 1551  11.766   5.314   7.779
    5AU     AUC 1552  11.740   4.961   7.287
    5AU     AUC 1553  11.760   5.267   7.271
    5AU     AUC 1554  12.308   5.130   7.204
    5AU     AUC 1555  12.316   5.110   7.545
    5AU     AUC 1556  12.274   5.097   7.899
    5AU     AUC 1557  11.181   5.116   7.228
    5AU     AUC 1558  11.180   5.175   7.556
    5AU     AUC 1559  11.209   5.214   7.888
    5AU     AUC 1560  11.427   5.700   7.474
    5AU     AUC 1561  11.787   5.674   7.457
    5AU     AUC 1562  12.153   5.662   7.487
    5AU     AUC 1563  11.370   4.591   7.548
    5AU     AUC 1564  11.721   4.567   7.529
    5AU     AUC 1565  12.077   4.556   7.546
    5AU     AUC 1566  11.706   4.808   8.101
    5AU     AUC 1567  11.743   5.150   8.101
    5AU     AUC 1568  11.800   5.514   8.062
    5AU     AUC 1569  11.771   4.771   6.997
    5AU     AUC 1570  11.719   5.112   6.973
    5AU     AUC 1571  11.716   5.435   6.957
    5AU     AUC 1572  11.988   4.912   8.012
    5AU     AUC 1573  12.044   5.288   7.987
    5AU     AUC 1574  12.043   4.974   7.072
    5AU     AUC 1575  12.008   5.286   7.079
    5AU     AUC 1576  11.454   5.032   8.000
    5AU     AUC 1577  11.501   5.382   7.971
    5AU     AUC 1578  11.465   4.931   7.103
    5AU     AUC 1579  11.419   5.259   7.083
    5AU     AUC 1580  12.246   5.402   7.346
    5AU     AUC 1581  12.212   5.399   7.705
    5AU     AUC 1582  11.287   5.414   7.383
    5AU     AUC 1583  11.332   5.480   7.713
    5AU     AUC 1584  12.209   4.851   7.407
    5AU     AUC 1585  12.157   4.805   7.739
    5AU     AUC 1586  11.288   4.828   7.373
    5AU     AUC 1587  11.314   4.902   7.716
    5AU     AUC 1588  11.652   5.632   7.782
    5AU     AUC 1589  11.991   5.587   7.793
    5AU     AUC 1590  11.539   4.699   7.817
    5AU     AUC 1591  11.857   4.646   7.809
    5AU     AUC 1592  11.562   5.565   7.215
    5AU     AUC 1593  11.927   5.581   7.226
    5AU     AUC 1594  11.593   4.667   7.258
    5AU     AUC 1595  11.953   4.712   7.274
    5AU    AUSL 1596  12.252   5.002   8.316
    5AU    AUSL 1597  12.002   4.629   8.222
    5AU     AUL 1598  12.309   4.630   8.389
    5AU    AUSL 1599  11.837   4.944   8.460
    5AU    AUSL 1600  11.599   5.353   8.451
    5AU     AUL 1601  11.835   5.228   8.710
    5AU    AUSL 1602  11.936   5.301   8.204
    5AU    AUSL 1603  12.387   5.360   8.126
    5AU     AUL 1604  12.205   5.325   8.435
    5AU    AUSL 1605  12.160   5.162   6.840
    5AU    AUSL 1606  12.021   5.558   6.981
    5AU     AUL 1607  12.235   5.490   6.681
    5AU    AUSL 1608  11.972   4.840   6.612
    5AU    AUSL 1609  12.479   4.910   6.982
    5AU     AUL 1610  12.347   4.984   6.665
    5AU    AUSL 1611  11.804   5.344   6.670
    5AU    AUSL 1612  11.626   4.958   6.829
    5AU     AUL 1613  11.757   5.037   6.524
    5AU    AUSL 1614  11.215   5.315   8.243
    5AU    AUSL 1615  11.578   5.624   8.111
    5AU     AUL 1616  11.415   5.592   8.412
    5AU    AUSL 1617  11.516   5.002   8.191
    5AU    AUSL 1618  11.067   4.925   8.105
    5AU     AUL 1619  11.124   5.014   8.341
    5AU    AUSL 1620  11.190   4.940   6.795
    5AU    AUSL 1621  11.439   4.590   6.947
    5AU     AUL 1622  11.463   4.676   6.641
    5AU    AUSL 1623  11.376   5.308   6.675
    5AU    AUSL 1624  11.096   5.289   7.050
    5AU     AUL 1625  10.979   5.170   6.776
    5AU    AUSL 1626  12.544   5.597   7.476
    5AU    AUSL 1627  12.419   5.387   7.096
    5AU     AUL 1628  12.714   5.592   7.128
    5AU    AUSL 1629  12.709   5.201   7.367
    5AU    AUSL 1630  12.658   4.903   7.768
    5AU     AUL 1631  12.920   4.987   7.571
    5AU    AUSL 1632  12.431   5.256   7.718
    5AU    AUSL 1633  12.389   5.700   7.853
    5AU     AUL 1634  12.637   5.440   7.878
    5AU    AUSL 1635  11.178   5.777   7.522
    5AU    AUSL 1636  11.215   5.529   7.878
    5AU     AUL 1637  10.906   5.774   7.745
    5AU    AUSL 1638  10.977   5.398   7.444
    5AU    AUSL 1639  11.130   5.714   7.106
    5AU     AUL 1640  10.894   5.639   7.263
    5AU    AUSL 1641  10.850   5.320   7.888
    5AU    AUSL 1642  10.817   5.014   7.349
    5AU     AUL 1643  10.695   5.331   7.590
    5AU    AUSL 1644  12.436   4.554   7.615
    5AU    AUSL 1645  12.262   4.837   7.925
    5AU     AUL 1646  12.569   4.743   8.001
    5AU    AUSL 1647  12.394   4.924   7.397
    5AU    AUSL 1648  12.384   4.522   7.188
    5AU     AUL 1649  12.628   4.732   7.250
    5AU    AUSL 1650  10.970   4.635   7.553
    5AU    AUSL 1651  11.181   4.845   7.205
    5AU     AUL 1652  10.831   4.738   7.213
    5AU    AUSL 1653  11.087   5.036   7.694
    5AU    AUSL 1654  11.277   4.652   7.849
    5AU     AUL 1655  10.896   4.805   7.848
    5AU    AUSL 1656  11.819   5.960   7.966
    5AU    AUSL 1657  11.364   5.939   7.878
    5AU     AUL 1658  11.586   5.984   8.194
    5AU    AUSL 1659  11.651   5.815   7.591
    5AU    AUSL 1660  11.902   5.948   7.247
    5AU     AUL 1661  11.671   6.155   7.554
    5AU    AUSL 1662  12.089   5.891   7.623
    5AU    AUSL 1663  12.083   5.690   8.153
    5AU     AUL 1664  12.202   5.980   7.941
    5AU    AUSL 1665  11.677   4.494   7.970
    5AU    AUSL 1666  12.101   4.435   7.849
    5AU     AUL 1667  11.862   4.373   8.223
    5AU    AUSL 1668  11.369   4.272   7.699
    5AU    AUSL 1669  11.397   4.609   8.274
    5AU     AUL 1670  11.405   4.311   8.050
    5AU    AUSL 1671  11.801   4.197   7.667
    5AU    AUSL 1672  11.594   4.442   7.362
    5AU     AUL 1673  11.477   4.097   7.487
    5AU    AUSL 1674  11.729   5.833   6.843
    5AU    AUSL 1675  12.301   5.811   7.199
    5AU     AUL 1676  12.045   5.921   6.936
    5AU    AUSL 1677  11.480   5.927   7.210
    5AU    AUSL 1678  11.503   5.516   7.014
    5AU     AUL 1679  11.410   5.822   6.856
    5AU    AUSL 1680  11.819   4.390   6.981
    5AU    AUSL 1681  11.186   4.404   7.258
    5AU     AUL 1682  11.482   4.256   7.043
    5AU    AUSL 1683  12.026   4.414   7.381
    5AU    AUSL 1684  12.049   4.747   7.018
    5AU     AUL 1685  12.143   4.374   7.050
    5AU       S 1686  12.274   4.179   8.227
    5AU     LIG 1687  12.321   3.945   8.352
    5AU     LIG 1688  12.443   3.785   8.479
    5AU     LIG 1689  12.601   3.608   8.590
    5AU       S 1690  12.308   4.969   8.719
    5AU     LIG 1691  12.471   5.027   8.921
    5AU     LIG 1692  12.561   5.083   9.146
    5AU     LIG 1693  12.667   5.050   9.383
    5AU       S 1694  11.986   4.776   8.725
    5AU     LIG 1695  12.042   4.682   9.005
    5AU     LIG 1696  12.208   4.698   9.203
    5AU     LIG 1697  12.342   4.653   9.419
    5AU       S 1698  11.361   5.266   8.757
    5AU     LIG 1699  11.324   5.290   9.059
    5AU     LIG 1700  11.206   5.275   9.261
    5AU     LIG 1701  11.058   5.252   9.479
    5AU       S 1702  11.886   5.700   8.566
    5AU     LIG 1703  12.003   5.837   8.771
    5AU     LIG 1704  12.216   5.757   8.933
    5AU     LIG 1705  12.439   5.631   8.947
    5AU       S 1706  12.578   5.592   8.334
    5AU     LIG 1707  12.761   5.632   8.555
    5AU     LIG 1708  12.901   5.789   8.669
    5AU     LIG 1709  13.077   5.965   8.744
    5AU       S 1710  12.179   5.221   6.306
    5AU     LIG 1711  12.394   5.276   6.093
    5AU     LIG 1712  12.528   5.110   5.955
    5AU     LIG 1713  12.588   4.919   5.795
    5AU       S 1714  12.394   5.921   6.652
    5AU     LIG 1715  12.440   6.114   6.462
    5AU     LIG 1716  12.603   6.204   6.288
    5AU     LIG 1717  12.768   6.295   6.123
    5AU       S 1718  12.654   4.632   6.768
    5AU     LIG 1719  12.816   4.545   6.527
    5AU     LIG 1720  12.830   4.326   6.388
    5AU     LIG 1721  12.846   4.071   6.348
    5AU       S 1722  12.100   4.926   6.240
    5AU     LIG 1723  12.122   4.802   6.011
    5AU     LIG 1724  12.109   4.729   5.771
    5AU     LIG 1725  12.180   4.709   5.521
    5AU       S 1726  11.366   4.986   6.303
    5AU     LIG 1727  11.421   4.953   6.024
    5AU     LIG 1728  11.427   4.899   5.795
    5AU     LIG 1729  11.351   4.858   5.540
    5AU       S 1730  11.936   5.367   6.264
    5AU     LIG 1731  11.837   5.301   5.973
    5AU     LIG 1732  11.979   5.226   5.780
    5AU     LIG 1733  12.172   5.218   5.607
    5AU       S 1734  11.085   5.354   8.643
    5AU     LIG 1735  10.874   5.329   8.819
    5AU     LIG 1736  10.820   5.113   8.977
    5AU     LIG 1737  10.750   4.981   9.166
    5AU       S 1738  11.116   5.912   8.268
    5AU     LIG 1739  11.030   6.067   8.501
    5AU     LIG 1740  10.889   6.078   8.694
    5AU     LIG 1741  10.720   6.167   8.877
    5AU       S 1742  10.839   4.646   8.284
    5AU     LIG 1743  10.593   4.577   8.381
    5AU     LIG 1744  10.448   4.385   8.457
    5AU     LIG 1745  10.321   4.203   8.575
    5AU       S 1746  11.410   4.974   8.684
    5AU     LIG 1747  11.333   4.798   8.887
    5AU     LIG 1748  11.220   4.778   9.105
    5AU     LIG 1749  11.175   4.764   9.361
    5AU       S 1750  11.104   4.898   6.418
    5AU     LIG 1751  10.925   4.828   6.208
    5AU     LIG 1752  10.914   4.899   5.957
    5AU     LIG 1753  10.902   5.009   5.737
    5AU       S 1754  11.138   4.350   6.745
    5AU     LIG 1755  11.064   4.163   6.540
    5AU     LIG 1756  10.906   4.121   6.354
    5AU     LIG 1757  10.722   4.072   6.184
    5AU       S 1758  10.768   5.576   6.798
    5AU     LIG 1759  10.561   5.745   6.744
    5AU     LIG 1760  10.509   5.944   6.588
    5AU     LIG 1761  10.485   6.067   6.367
    5AU       S 1762  11.266   5.254   6.393
    5AU     LIG 1763  11.099   5.355   6.139
    5AU     LIG 1764  11.182   5.392   5.913
    5AU     LIG 1765  11.290   5.372   5.679
    5AU       S 1766  12.625   5.735   6.708
    5AU     LIG 1767  12.840   5.781   6.537
    5AU     LIG 1768  12.997   5.893   6.389
    5AU     LIG 1769  13.178   6.012   6.245
    5AU       S 1770  12.877   5.711   7.556
    5AU     LIG 1771  13.090   5.915   7.540
    5AU     LIG 1772  13.334   5.959   7.511
    5AU     LIG 1773  13.587   6.022   7.532
    5AU       S 1774  13.053   5.412   7.388
    5AU     LIG 1775  13.322   5.483   7.293
    5AU     LIG 1776  13.562   5.549   7.306
    5AU     LIG 1777  13.784   5.663   7.226
    5AU       S 1778  12.917   4.533   7.790
    5AU     LIG 1779  13.152   4.431   7.920
    5AU     LIG 1780  13.405   4.426   7.859
    5AU     LIG 1781  13.654   4.394   7.780
    5AU       S 1782  12.614   5.840   8.127
    5AU     LIG 1783  12.809   6.017   8.210
    5AU     LIG 1784  12.854   6.216   8.357
    5AU     LIG 1785  12.873   6.395   8.540
    5AU       S 1786  13.024   5.444   7.663
    5AU     LIG 1787  13.262   5.515   7.814
    5AU     LIG 1788  13.499   5.582   7.811
    5AU     LIG 1789  13.729   5.672   7.878
    5AU       S 1790  10.950   5.689   8.203
    5AU     LIG 1791  10.711   5.681   8.380
    5AU     LIG 1792  10.525   5.820   8.444
    5AU     LIG 1793  10.349   5.939   8.594
    5AU       S 1794  11.117   6.113   7.463
    5AU     LIG 1795  10.957   6.321   7.335
    5AU     LIG 1796  10.711   6.301   7.239
    5AU     LIG 1797  10.523   6.144   7.123
    5AU       S 1798  10.553   5.332   7.139
    5AU     LIG 1799  10.315   5.337   7.071
    5AU     LIG 1800  10.060   5.413   7.141
    5AU     LIG 1801   9.915   5.626   7.163
    5AU       S 1802  10.983   5.986   6.929
    5AU     LIG 1803  10.910   6.194   6.787
    5AU     LIG 1804  10.768   6.373   6.702
    5AU     LIG 1805  10.637   6.528   6.537
    5AU       S 1806  10.464   4.928   7.449
    5AU     LIG 1807  10.187   4.918   7.337
    5AU     LIG 1808   9.944   4.900   7.332
    5AU     LIG 1809   9.710   4.779   7.284
    5AU       S 1810  10.655   5.247   8.097
    5AU     LIG 1811  10.342   5.351   8.182
    5AU     LIG 1812  10.225   5.563   8.094
    5AU     LIG 1813  10.045   5.710   7.968
    5AU       S 1814  12.647   4.363   7.606
    5AU     LIG 1815  12.781   4.061   7.622
    5AU     LIG 1816  13.009   3.995   7.697
    5AU     LIG 1817  13.280   3.981   7.655
    5AU       S 1818  12.491   4.302   8.066
    5AU     LIG 1819  12.738   4.166   8.105
    5AU     LIG 1820  12.868   4.078   8.287
    5AU     LIG 1821  12.915   4.008   8.537
    5AU       S 1822  12.904   4.513   7.519
    5AU     LIG 1823  13.127   4.391   7.383
    5AU     LIG 1824  13.368   4.392   7.343
    5AU     LIG 1825  13.609   4.320   7.280
    5AU       S 1826  12.596   4.370   6.925
    5AU     LIG 1827  12.661   4.110   6.822
    5AU     LIG 1828  12.534   3.887   6.774
    5AU     LIG 1829  12.493   3.668   6.659
    5AU       S 1830  10.961   4.545   6.817
    5AU     LIG 1831  10.728   4.555   6.620
    5AU     LIG 1832  10.551   4.438   6.527
    5AU     LIG 1833  10.345   4.280   6.465
    5AU       S 1834  10.546   4.637   7.583
    5AU     LIG 1835  10.329   4.471   7.588
    5AU     LIG 1836  10.102   4.423   7.482
    5AU     LIG 1837   9.869   4.319   7.441
    5AU       S 1838  10.958   4.416   8.082
    5AU     LIG 1839  10.782   4.208   8.068
    5AU     LIG 1840  10.662   4.022   8.174
    5AU     LIG 1841  10.529   3.836   8.287
    5AU       S 1842  10.488   4.932   7.713
    5AU     LIG 1843  10.254   4.904   7.888
    5AU     LIG 1844  10.015   4.812   7.835
    5AU     LIG 1845   9.806   4.677   7.809
    5AU       S 1846  11.157   6.131   7.989
    5AU     LIG 1847  10.922   6.320   8.062
    5AU     LIG 1848  10.697   6.283   8.206
    5AU     LIG 1849  10.565   6.360   8.412
    5AU       S 1850  11.900   6.317   8.053
    5AU     LIG 1851  12.011   6.504   8.255
    5AU     LIG 1852  11.899   6.694   8.380
    5AU     LIG 1853  11.754   6.895   8.444
    5AU       S 1854  11.662   6.452   7.925
    5AU     LIG 1855  11.573   6.677   7.968
    5AU     LIG 1856  11.547   6.936   7.984
    5AU     LIG 1857  11.556   7.187   8.012
    5AU       S 1858  11.827   6.295   7.131
    5AU     LIG 1859  11.893   6.564   7.146
    5AU     LIG 1860  11.927   6.796   7.130
    5AU     LIG 1861  11.990   7.039   7.042
    5AU       S 1862  12.337   5.807   8.364
    5AU     LIG 1863  12.412   6.026   8.543
    5AU     LIG 1864  12.513   6.107   8.736
    5AU     LIG 1865  12.639   6.125   8.967
    5AU       S 1866  12.039   6.368   7.734
    5AU     LIG 1867  12.071   6.641   7.718
    5AU     LIG 1868  12.046   6.851   7.875
    5AU     LIG 1869  12.058   7.035   8.040
    5AU       S 1870  11.760   3.958   8.062
    5AU     LIG 1871  11.879   3.752   8.213
    5AU     LIG 1872  11.867   3.545   8.334
    5AU     LIG 1873  11.848   3.308   8.434
    5AU       S 1874  12.243   4.191   7.902
    5AU     LIG 1875  12.347   3.887   7.827
    5AU     LIG 1876  12.507   3.753   7.925
    5AU     LIG 1877  12.719   3.653   8.057
    5AU       S 1878  11.508   3.872   7.896
    5AU     LIG 1879  11.459   3.605   7.918
    5AU     LIG 1880  11.481   3.387   8.033
    5AU     LIG 1881  11.471   3.149   8.129
    5AU       S 1882  11.102   4.498   8.386
    5AU     LIG 1883  10.975   4.280   8.570
    5AU     LIG 1884  10.838   4.106   8.640
    5AU     LIG 1885  10.701   3.912   8.762
    5AU       S 1886  11.826   3.968   7.221
    5AU     LIG 1887  11.765   3.640   7.210
    5AU     LIG 1888  11.750   3.444   7.090
    5AU     LIG 1889  11.750   3.177   7.027
    5AU       S 1890  11.840   3.921   7.758
    5AU     LIG 1891  11.940   3.619   7.712
    5AU     LIG 1892  11.953   3.422   7.838
    5AU     LIG 1893  11.947   3.176   7.941
    5AU       S 1894  11.679   6.215   6.835
    5AU     LIG 1895  11.685   6.444   6.681
    5AU     LIG 1896  11.808   6.660   6.641
    5AU     LIG 1897  11.874   6.894   6.564
    5AU       S 1898  12.518   5.991   6.958
    5AU     LIG 1899  12.716   6.195   6.901
    5AU     LIG 1900  12.875   6.269   6.721
    5AU     LIG 1901  13.023   6.391   6.558
    5AU       S 1902  11.476   6.236   7.112
    5AU     LIG 1903  11.364   6.514   7.085
    5AU     LIG 1904  11.421   6.740   6.998
    5AU     LIG 1905  11.495   6.965   6.907
    5AU       S 1906  11.038   5.646   6.654
    5AU     LIG 1907  10.978   5.781   6.415
    5AU     LIG 1908  10.988   6.011   6.319
    5AU     LIG 1909  10.961   6.250   6.239
    5AU       S 1910  10.983   4.314   7.029
    5AU     LIG 1911  10.726   4.141   6.950
    5AU     LIG 1912  10.639   3.999   6.784
    5AU     LIG 1913  10.553   3.826   6.606
    5AU       S 1914  11.896   4.007   6.941
    5AU     LIG 1915  12.013   3.828   6.769
    5AU     LIG 1916  11.986   3.618   6.646
    5AU     LIG 1917  11.910   3.380   6.582
    5AU       S 1918  12.089   4.008   7.324
    5AU     LIG 1919  12.253   3.767   7.293
    5AU     LIG 1920  12.260   3.561   7.128
    5AU     LIG 1921  12.245   3.344   6.984
    5AU       S 1922  12.350   4.517   6.673
    5AU     LIG 1923  12.336   4.339   6.470
    5AU     LIG 1924  12.326   4.111   6.376
    5AU     LIG 1925  12.377   3.908   6.221
    6AU     AUC 1926  15.767  13.267   7.535
    6AU     AUC 1927  16.019  13.272   7.369
    6AU     AUC 1928  16.008  13.259   7.699
    6AU     AUC 1929  15.497  13.275   7.380
    6AU     AUC 1930  15.523  13.304   7.705
    6AU     AUC 1931  15.606  13.520   7.513
    6AU     AUC 1932  15.953  13.532   7.516
    6AU     AUC 1933  15.588  13.013   7.543
    6AU     AUC 1934  15.919  12.991   7.545
    6AU     AUC 1935  15.761  13.107   7.798
    6AU     AUC 1936  15.780  13.447   7.779
    6AU     AUC 1937  15.754  13.094   7.287
    6AU     AUC 1938  15.774  13.400   7.271
    6AU     AUC 1939  16.322  13.263   7.204
    6AU     AUC 1940  16.330  13.243   7.545
    6AU     AUC 1941  16.288  13.230   7.899
    6AU     AUC 1942  15.195  13.249   7.228
    6AU     AUC 1943  15.194  13.308   7.556
    6AU     AUC 1944  15.223  13.347   7.888
    6AU     AUC 1945  15.441  13.833   7.474
    6AU     AUC 1946  15.801  13.807   7.457
    6AU     AUC 1947  16.167  13.795   7.487
    6AU     AUC 1948  15.384  12.724   7.548
    6AU     AUC 1949  15.735  12.700   7.529
    6AU     AUC 1950  16.091  12.689   7.546
    6AU     AUC 1951  15.720  12.941   8.101
    6AU     AUC 1952  15.757  13.283   8.101
    6AU     AUC 1953  15.814  13.647   8.062
    6AU     AUC 1954  15.785  12.904   6.997
    6AU     AUC 1955  15.733  13.245   6.973
    6AU     AUC 1956  15.730  13.568   6.957
    6AU     AUC 1957  16.002  13.045   8.012
    6AU     AUC 1958  16.058  13.421   7.987
    6AU     AUC 1959  16.057  13.107   7.072
    6AU     AUC 1960  16.022  13.419   7.079
    6AU     AUC 1961  15.468  13.165   8.000
    6AU     AUC 1962  15.515  13.515   7.971
    6AU     AUC 1963  15.479  13.064   7.103
    6AU     AUC 1964  15.433  13.392   7.083
    6AU     AUC 1965  16.260  13.535   7.346
    6AU     AUC 1966  16.226  13.532   7.705
    6AU     AUC 1967  15.301  13.547   7.383
    6AU     AUC 1968  15.346  13.613   7.713
    6AU     AUC 1969  16.223  12.984   7.407
    6AU     AUC 1970  16.171  12.938   7.739
    6AU     AUC 1971  15.302  12.961   7.373
    6AU     AUC 1972  15.328  13.035   7.716
    6AU     AUC 1973  15.666  13.765   7.782
    6AU     AUC 1974  16.005  13.720   7.793
    6AU     AUC 1975  15.553  12.832   7.817
    6AU     AUC 1976  15.871  12.779   7.809
    6AU     AUC 1977  15.576  13.698   7.215
    6AU     AUC 1978  15.941  13.714   7.226
    6AU     AUC 1979  15.607  12.800   7.258
    6AU     AUC 1980  15.967  12.845   7.274
    6AU    AUSL 1981  16.266  13.135   8.316
    6AU    AUSL 1982  16.016  12.762   8.222
    6AU     AUL 1983  16.323  12.763   8.389
    6AU    AUSL 1984  15.851  13.077   8.460
    6AU    AUSL 1985  15.613  13.486   8.451
    6AU     AUL 1986  15.849  13.361   8.710
    6AU    AUSL 1987  15.950  13.434   8.204
    6AU    AUSL 1988  16.401  13.493   8.126
    6AU     AUL 1989  16.219  13.458   8.435
    6AU    AUSL 1990  16.174  13.295   6.840
    6AU    AUSL 1991  16.035  13.691   6.981
    6AU     AUL 1992  16.249  13.623   6.681
    6AU    AUSL 1993  15.986  12.973   6.612
    6AU    AUSL 1994  16.493  13.043   6.982
    6AU     AUL 1995  16.361  13.117   6.665
    6AU    AUSL 1996  15.818  13.477   6.670
    6AU    AUSL 1997  15.640  13.091   6.829
    6AU     AUL 1998  15.771  13.170   6.524
    6AU    AUSL 1999  15.229  13.448   8.243
    6AU    AUSL 2000  15.592  13.757   8.111
    6AU     AUL 2001  15.429  13.725   8.412
    6AU    AUSL 2002  15.530  13.135   8.191
    6AU    AUSL 2003  15.081  13.058   8.105
    6AU     AUL 2004  15.138  13.147   8.341
    6AU    AUSL 2005  15.204  13.073   6.795
    6AU    AUSL 2006  15.453  12.723   6.947
    6AU     AUL 2007  15.477  12.809   6.641
    6AU    AUSL 2008  15.390  13.441   6.675
    6AU    AUSL 2009  15.110  13.422   7.050
    6AU     AUL 2010  14.993  13.303   6.776
    6AU    AUSL 2011  16.558  13.730   7.476
    6AU    AUSL 2012  16.433  13.520   7.096
    6AU     AUL 2013  16.728  13.725   7.128
    6AU    AUSL 2014  16.723  13.334   7.367
    6AU    AUSL 2015  16.672  13.036   7.768
    6AU     AUL 2016  16.934  13.120   7.571
    6AU    AUSL 2017  16.445  13.389   7.718
    6AU    AUSL 2018  16.403  13.833   7.853
    6AU     AUL 2019  16.651  13.573   7.878
    6AU    AUSL 2020  15.192  13.910   7.522
    6AU    AUSL 2021  15.229  13.662   7.878
    6AU     AUL 2022  14.920  13.907   7.745
    6AU    AUSL 2023  14.991  13.531   7.444
    6AU    AUSL 2024  15.144  13.847   7.106
    6AU     AUL 2025  14.908  13.772   7.263
    6AU    AUSL 2026  14.864  13.453   7.888
    6AU    AUSL 2027  14.831  13.147   7.349
    6AU     AUL 2028  14.709  13.464   7.590
    6AU    AUSL 2029  16.450  12.687   7.615
    6AU    AUSL 2030  16.276  12.970   7.925
    6AU     AUL 2031  16.583  12.876   8.001
    6AU    AUSL 2032  16.408  13.057   7.397
    6AU    AUSL 2033  16.398  12.655   7.188
    6AU     AUL 2034  16.642  12.865   7.250
    6AU    AUSL 2035  14.984  12.768   7.553
    6AU    AUSL 2036  15.195  12.978   7.205
    6AU     AUL 2037  14.845  12.871   7.213
    6AU    AUSL 2038  15.101  13.169   7.694
    6AU    AUSL 2039  15.291  12.785   7.849
    6AU     AUL 2040  14.910  12.938   7.848
    6AU    AUSL 2041  15.833  14.093   7.966
    6AU    AUSL 2042  15.378  14.072   7.878
    6AU     AUL 2043  15.600  14.117   8.194
    6AU    AUSL 2044  15.665  13.948   7.591
    6AU    AUSL 2045  15.916  14.081   7.247
    6AU     AUL 2046  15.685  14.288   7.554
    6AU    AUSL 2047  16.103  14.024   7.623
    6AU    AUSL 2048  16.097  13.823   8.153
    6AU     AUL 2049  16.216  14.113   7.941
    6AU    AUSL 2050  15.691  12.627   7.970
    6AU    AUSL 2051  16.115  12.568   7.849
    6AU     AUL 2052  15.876  12.506   8.223
    6AU    AUSL 2053  15.383  12.405   7.699
    6AU    AUSL 2054  15.411  12.742   8.274
    6AU     AUL 2055  15.419  12.444   8.050
    6AU    AUSL 2056  15.815  12.330   7.667
    6AU    AUSL 2057  15.608  12.575   7.362
    6AU     AUL 2058  15.491  12.230   7.487
    6AU    AUSL 2059  15.743  13.966   6.843
    6AU    AUSL 2060  16.315  13.944   7.199
    6AU     AUL 2061  16.059  14.054   6.936
    6AU    AUSL 2062  15.494  14.060   7.210
    6AU    AUSL 2063  15.517  13.649   7.014
    6AU     AUL 2064  15.424  13.955   6.856
    6AU    AUSL 2065  15.833  12.523   6.981
    6AU    AUSL 2066  15.200  12.537   7.258
    6AU     AUL 2067  15.496  12.389   7.043
    6AU    AUSL 2068  16.040  12.547   7.381
    6AU    AUSL 2069  16.063  12.880   7.018
    6AU     AUL 2070  16.157  12.507   7.050
    6AU       S 2071  16.288  12.312   8.227
    6AU     LIG 2072  16.335  12.078   8.352
    6AU     LIG 2073  16.457  11.918   8.479
    6AU     LIG 2074  16.615  11.741   8.590
    6AU       S 2075  16.322  13.102   8.719
    6AU     LIG 2076  16.485  13.160   8.921
    6AU     LIG 2077  16.575  13.216   9.146
    6AU     LIG 2078  16.681  13.183   9.383
    6AU       S 2079  16.000  12.909   8.725
    6AU     LIG 2080  16.056  12.815   9.005
    6AU     LIG 2081  16.222  12.831   9.203
    6AU     LIG 2082  16.356  12.786   9.419
    6AU       S 2083  15.375  13.399   8.757
    6AU     LIG 2084  15.338  13.423   9.059
    6AU     LIG 2085  15.220  13.408   9.261
    6AU     LIG 2086  15.072  13.385   9.479
    6AU       S 2087  15.900  13.833   8.566
    6AU     LIG 2088  16.017  13.970   8.771
    6AU     LIG 2089  16.230  13.890   8.933
    6AU     LIG 2090  16.453  13.764   8.947
    6AU       S 2091  16.592  13.725   8.334
    6AU     LIG 2092  16.775  13.765   8.555
    6AU     LIG 2093  16.915  13.922   8.669
    6AU     LIG 2094  17.091  14.098   8.744
    6AU       S 2095  16.193  13.354   6.306
    6AU     LIG 2096  16.408  13.409   6.093
    6AU     LIG 2097  16.542  13.243   5.955
    6AU     LIG 2098  16.602  13.052   5.795
    6AU       S 2099  16.408  14.054   6.652
    6AU     LIG 2100  16.454  14.247   6.462
    6AU     LIG 2101  16.617  14.337   6.288
    6AU     LIG 2102  16.782  14.428   6.123
    6AU       S 2103  16.668  12.765   6.768
    6AU     LIG 2104  16.830  12.678   6.527
    6AU     LIG 2105  16.844  12.459   6.388
    6AU     LIG 2106  16.860  12.204   6.348
    6AU       S 2107  16.114  13.059   6.240
    6AU     LIG 2108  16.136  12.935   6.011
    6AU     LIG 2109  16.123  12.862   5.771
    6AU     LIG 2110  16.194  12.842   5.521
    6AU       S 2111  15.380  13.119   6.303
    6AU     LIG 2112  15.435  13.086   6.024
    6AU     LIG 2113  15.441  13.032   5.795
    6AU     LIG 2114  15.365  12.991   5.540
    6AU       S 2115  15.950  13.500   6.264
    6AU     LIG 2116  15.851  13.434   5.973
    6AU     LIG 2117  15.993  13.359   5.780
    6AU     LIG 2118  16.186  13.351   5.607
    6AU       S 2119  15.099  13.487   8.643
    6AU     LIG 2120  14.888  13.462   8.819
    6AU     LIG 2121  14.834  13.246   8.977
    6AU     LIG 2122  14.764  13.114   9.166
    6AU       S 2123  15.130  14.045   8.268
    6AU     LIG 2124  15.044  14.200   8.501
    6AU     LIG 2125  14.903  14.211   8.694
    6AU     LIG 2126  14.734  14.300   8.877
    6AU       S 2127  14.853  12.779   8.284
    6AU     LIG 2128  14.607  12.710   8.381
    6AU     LIG 2129  14.462  12.518   8.457
    6AU     LIG 2130  14.335  12.336   8.575
    6AU       S 2131  15.424  13.107   8.684
    6AU     LIG 2132  15.347  12.931   8.887
    6AU     LIG 2133  15.234  12.911   9.105
    6AU     LIG 2134  15.189  12.897   9.361
    6AU       S 2135  15.118  13.031   6.418
    6AU     LIG 2136  14.939  12.961   6.208
    6AU     LIG 2137  14.928  13.032   5.957
    6AU     LIG 2138  14.916  13.142   5.737
    6AU       S 2139  15.152  12.483   6.745
    6AU     LIG 2140  15.078  12.296   6.540
    6AU     LIG 2141  14.920  12.254   6.354
    6AU     LIG 2142  14.736  12.205   6.184
    6AU       S 2143  14.782  13.709   6.798
    6AU     LIG 2144  14.575  13.878   6.744
    6AU     LIG 2145  14.523  14.077   6.588
    6AU     LIG 2146  14.499  14.200   6.367
    6AU       S 2147  15.280  13.387   6.393
    6AU     LIG 2148  15.113  13.488   6.139
    6AU     LIG 2149  15.196  13.525   5.913
    6AU     LIG 2150  15.304  13.505   5.679
    6AU       S 2151  16.639  13.868   6.708
    6AU     LIG 2152  16.854  13.914   6.537
    6AU     LIG 2153  17.011  14.026   6.389
    6AU     LIG 2154  17.192  14.145   6.245
    6AU       S 2155  16.891  13.844   7.556
    6AU     LIG 2156  17.104  14.048   7.540
    6AU     LIG 2157  17.348  14.092   7.511
    6AU     LIG 2158  17.601  14.155   7.532
    6AU       S 2159  17.067  13.545   7.388
    6AU     LIG 2160  17.336  13.616   7.293
    6AU     LIG 2161  17.576  13.682   7.306
    6AU     LIG 2162  17.798  13.796   7.226
    6AU       S 2163  16.931  12.666   7.790
    6AU     LIG 2164  17.166  12.564   7.920
    6AU     LIG 2165  17.419  12.559   7.859
    6AU     LIG 2166  17.668  12.527   7.780
    6AU       S 2167  16.628  13.973   8.127
    6AU     LIG 2168  16.823  14.150   8.210
    6AU     LIG 2169  16.868  14.349   8.357
    6AU     LIG 2170  16.887  14.528   8.540
    6AU       S 2171  17.038  13.577   7.663
    6AU     LIG 2172  17.276  13.648   7.814
    6AU     LIG 2173  17.513  13.715   7.811
    6AU     LIG 2174  17.743  13.805   7.878
    6AU       S 2175  14.964  13.822   8.203
    6AU     LIG 2176  14.725  13.814   8.380
    6AU     LIG 2177  14.539  13.953   8.444
    6AU     LIG 2178  14.363  14.072   8.594
    6AU       S 2179  15.131  14.246   7.463
    6AU     LIG 2180  14.971  14.454   7.335
    6AU     LIG 2181  14.725  14.434   7.239
    6AU     LIG 2182  14.537  14.277   7.123
    6AU       S 2183  14.567  13.465   7.139
    6AU     LIG 2184  14.329  13.470   7.071
    6AU     LIG 2185  14.074  13.546   7.141
    6AU     LIG 2186  13.929  13.759   7.163
    6AU       S 2187  14.997  14.119   6.929
    6AU     LIG 2188  14.924  14.327   6.787
    6AU     LIG 2189  14.782  14.506   6.702
    6AU     LIG 2190  14.651  14.661   6.537
    6AU       S 2191  14.478  13.061   7.449
    6AU     LIG 2192  14.201  13.051   7.337
    6AU     LIG 2193  13.958  13.033   7.332
    6AU     LIG 2194  13.724  12.912   7.284
    6AU       S 2195  14.669  13.380   8.097
    6AU     LIG 2196  14.356  13.484   8.182
    6AU     LIG 2197  14.239  13.696   8.094
    6AU     LIG 2198  14.059  13.843   7.968
    6AU       S 2199  16.661  12.496   7.606
    6AU     LIG 2200  16.795  12.194   7.622
    6AU     LIG 2201  17.023  12.128   7.697
    6AU     LIG 2202  17.294  12.114   7.655
    6AU       S 2203  16.505  12.435   8.066
    6AU     LIG 2204  16.752  12.299   8.105
    6AU     LIG 2205  16.882  12.211   8.287
    6AU     LIG 2206  16.929  12.141   8.537
    6AU       S 2207  16.918  12.646   7.519
    6AU     LIG 2208  17.141  12.524   7.383
    6AU     LIG 2209  17.382  12.525   7.343
    6AU     LIG 2210  17.623  12.453   7.280
    6AU       S 2211  16.610  12.503   6.925
    6AU     LIG 2212  16.675  12.243   6.822
    6AU     LIG 2213  16.548  12.020   6.774
    6AU     LIG 2214  16.507  11.801   6.659
    6AU       S 2215  14.975  12.678   6.817
    6AU     LIG 2216  14.742  12.688   6.620
    6AU     LIG 2217  14.565  12.571   6.527
    6AU     LIG 2218  14.359  12.413   6.465
    6AU       S 2219  14.560  12.770   7.583
    6AU     LIG 2220  14.343  12.604   7.588
    6AU     LIG 2221  14.116  12.556   7.482
    6AU     LIG 2222  13.883  12.452   7.441
    6AU       S 2223  14.972  12.549   8.082
    6AU     LIG 2224  14.796  12.341   8.068
    6AU     LIG 2225  14.676  12.155   8.174
    6AU     LIG 2226  14.543  11.969   8.287
    6AU       S 2227  14.502  13.065   7.713
    6AU     LIG 2228  14.268  13.037   7.888
    6AU     LIG 2229  14.029  12.945   7.835
    6AU     LIG 2230  13.820  12.810   7.809
    6AU       S 2231  15.171  14.264   7.989
    6AU     LIG 2232  14.936  14.453   8.062
    6AU     LIG 2233  14.711  14.416   8.206
    6AU     LIG 2234  14.579  14.493   8.412
    6AU       S 2235  15.914  14.450   8.053
    6AU     LIG 2236  16.025  14.637   8.255
    6AU     LIG 2237  15.913  14.827   8.380
    6AU     LIG 2238  15.768  15.028   8.444
    6AU       S 2239  15.676  14.585   7.925
    6AU     LIG 2240  15.587  14.810   7.968
    6AU     LIG 2241  15.561  15.069   7.984
    6AU     LIG 2242  15.570  15.320   8.012
    6AU       S 2243  15.841  14.428   7.131
    6AU     LIG 2244  15.907  14.697   7.146
    6AU     LIG 2245  15.941  14.929   7.130
    6AU     LIG 2246  16.004  15.172   7.042
    6AU       S 2247  16.351  13.940   8.364
    6AU     LIG 2248  16.426  14.159   8.543
    6AU     LIG 2249  16.527  14.240   8.736
    6AU     LIG 2250  16.653  14.258   8.967
    6AU       S 2251  16.053  14.501   7.734
    6AU     LIG 2252  16.085  14.774   7.718
    6AU     LIG 2253  16.060  14.984   7.875
    6AU     LIG 2254  16.072  15.168   8.040
    6AU       S 2255  15.774  12.091   8.062
    6AU     LIG 2256  15.893  11.885   8.213
    6AU     LIG 2257  15.881  11.678   8.334
    6AU     LIG 2258  15.862  11.441   8.434
    6AU       S 2259  16.257  12.324   7.902
    6AU     LIG 2260  16.361  12.020   7.827
    6AU     LIG 2261  16.521  11.886   7.925
    6AU     LIG 2262  16.733  11.786   8.057
    6AU       S 2263  15.522  12.005   7.896
    6AU     LIG 2264  15.473  11.738   7.918
    6AU     LIG 2265  15.495  11.520   8.033
    6AU     LIG 2266  15.485  11.282   8.129
    6AU       S 2267  15.116  12.631   8.386
    6AU     LIG 2268  14.989  12.413   8.570
    6AU     LIG 2269  14.852  12.239   8.640
    6AU     LIG 2270  14.715  12.045   8.762
    6AU       S 2271  15.840  12.101   7.221
    6AU     LIG 2272  15.779  11.773   7.210
    6AU     LIG 2273  15.764  11.577   7.090
    6AU     LIG 2274  15.764  11.310   7.027
    6AU       S 2275  15.854  12.054   7.758
    6AU     LIG 2276  15.954  11.752   7.712
    6AU     LIG 2277  15.967  11.555   7.838
    6AU     LIG 2278  15.961  11.309   7.941
    6AU       S 2279  15.693  14.348   6.835
    6AU     LIG 2280  15.699  14.577   6.681
    6AU     LIG 2281  15.822  14.793   6.641
    6AU     LIG 2282  15.888  15.027   6.564
    6AU       S 2283  16.532  14.124   6.958
    6AU     LIG 2284  16.730  14.328   6.901
    6AU     LIG 2285  16.889  14.402   6.721
    6AU     LIG 2286  17.037  14.524   6.558
    6AU       S 2287  15.490  14.369   7.112
    6AU     LIG 2288  15.378  14.647   7.085
    6AU     LIG 2289  15.435  14.873   6.998
    6AU     LIG 2290  15.509  15.098   6.907
    6AU       S 2291  15.052  13.779   6.654
    6AU     LIG 2292  14.992  13.914   6.415
    6AU     LIG 2293  15.002  14.144   6.319
    6AU     LIG 2294  14.975  14.383   6.239
    6AU       S 2295  14.997  12.447   7.029
    6AU     LIG 2296  14.740  12.274   6.950
    6AU     LIG 2297  14.653  12.132   6.784
    6AU     LIG 2298  14.567  11.959   6.606
    6AU       S 2299  15.910  12.140   6.941
    6AU     LIG 2300  16.027  11.961   6.769
    6AU     LIG 2301  16.000  11.751   6.646
    6AU     LIG 2302  15.924  11.513   6.582
    6AU       S 2303  16.103  12.141   7.324
    6AU     LIG 2304  16.267  11.900   7.293
    6AU     LIG 2305  16.274  11.694   7.128
    6AU     LIG 2306  16.259  11.477   6.984
    6AU       S 2307  16.364  12.650   6.673
    6AU     LIG 2308  16.350  12.472   6.470
    6AU     LIG 2309  16.340  12.244   6.376
    6AU     LIG 2310  16.391  12.041   6.221
    7AU     AUC 2311  36.117  21.534   7.535
    7AU     AUC 2312  36.369  21.539   7.369
    7AU     AUC 2313  36.358  21.526   7.699
    7AU     AUC 2314  35.847  21.542   7.380
    7AU     AUC 2315  35.873  21.571   7.705
    7AU     AUC 2316  35.956  21.787   7.513
    7AU     AUC 2317  36.303  21.799   7.516
    7AU     AUC 2318  35.938  21.280   7.543
    7AU     AUC 2319  36.269  21.258   7.545
    7AU     AUC 2320  36.111  21.374   7.798
    7AU     AUC 2321  36.130  21.714   7.779
    7AU     AUC 2322  36.104  21.361   7.287
    7AU     AUC 2323  36.124  21.667   7.271
    7AU     AUC 2324  36.672  21.530   7.204
    7AU     AUC 2325  36.680  21.510   7.545
    7AU     AUC 2326  36.638  21.497   7.899
    7AU     AUC 2327  35.545  21.516   7.228
    7AU     AUC 2328  35.544  21.575   7.556
    7AU     AUC 2329  35.573  21.614   7.888
    7AU     AUC 2330  35.791  22.100   7.474
    7AU     AUC 2331  36.151  22.074   7.457
    7AU     AUC 2332  36.517  22.062   7.487
    7AU     AUC 2333  35.734  20.991   7.548
    7AU     AUC 2334  36.085  20.967   7.529
    7AU     AUC 2335  36.441  20.956   7.546
    7AU     AUC 2336  36.070  21.208   8.101
    7AU     AUC 2337  36.107  21.550   8.101
    7AU     AUC 2338  36.164  21.914   8.062
    7AU     AUC 2339  36.135  21.171   6.997
    7AU     AUC 2340  36.083  21.512   6.973
    7AU     AUC 2341  36.080  21.835   6.957
    7AU     AUC 2342  36.352  21.312   8.012
    7AU     AUC 2343  36.408  21.688   7.987
    7AU     AUC 2344  36.407  21.374   7.072
    7AU     AUC 2345  36.372  21.686   7.079
    7AU     AUC 2346  35.818  21.432   8.000
    7AU     AUC 2347  35.865  21.782   7.971
    7AU     AUC 2348  35.829  21.331   7.103
    7AU     AUC 2349  35.783  21.659   7.083
    7AU     AUC 2350  36.610  21.802   7.346
    7AU     AUC 2351  36.576  21.799   7.705
    7AU     AUC 2352  35.651  21.814   7.383
    7AU     AUC 2353  35.696  21.880   7.713
    7AU     AUC 2354  36.573  21.251   7.407
    7AU     AUC 2355  36.521  21.205   7.739
    7AU     AUC 2356  35.652  21.228   7.373
    7AU     AUC 2357  35.678  21.302   7.716
    7AU     AUC 2358  36.016  22.032   7.782
    7AU     AUC 2359  36.355  21.987   7.793
    7AU     AUC 2360  35.903  21.099   7.817
    7AU     AUC 2361  36.221  21.046   7.809
    7AU     AUC 2362  35.926  21.965   7.215
    7AU     AUC 2363  36.291  21.981   7.226
    7AU     AUC 2364  35.957  21.067   7.258
    7AU     AUC 2365  36.317  21.112   7.274
    7AU    AUSL 2366  36.616  21.402   8.316
    7AU    AUSL 2367  36.366  21.029   8.222
    7AU     AUL 2368  36.673  21.030   8.389
    7AU    AUSL 2369  36.201  21.344   8.460
    7AU    AUSL 2370  35.963  21.753   8.451
    7AU     AUL 2371  36.199  21.628   8.710
    7AU    AUSL 2372  36.300  21.701   8.204
    7AU    AUSL 2373  36.751  21.760   8.126
    7AU     AUL 2374  36.569  21.725   8.435
    7AU    AUSL 2375  36.524  21.562   6.840
    7AU    AUSL 2376  36.385  21.958   6.981
    7AU     AUL 2377  36.599  21.890   6.681
    7AU    AUSL 2378  36.336  21.240   6.612
    7AU    AUSL 2379  36.843  21.310   6.982
    7AU     AUL 2380  36.711  21.384   6.665
    7AU    AUSL 2381  36.168  21.744   6.670
    7AU    AUSL 2382  35.990  21.358   6.829
    7AU     AUL 2383  36.121  21.437   6.524
    7AU    AUSL 2384  35.579  21.715   8.243
    7AU    AUSL 2385  35.942  22.024   8.111
    7AU     AUL 2386  35.779  21.992   8.412
    7AU    AUSL 2387  35.880  21.402   8.191
    7AU    AUSL 2388  35.431  21.325   8.105
    7AU     AUL 2389  35.488  21.414   8.341
    7AU    AUSL 2390  35.554  21.340   6.795
    7AU    AUSL 2391  35.803  20.990   6.947
    7AU     AUL 2392  35.827  21.076   6.641
    7AU    AUSL 2393  35.740  21.708   6.675
    7AU    AUSL 2394  35.460  21.689   7.050
    7AU     AUL 2395  35.343  21.570   6.776
    7AU    AUSL 2396  36.908  21.997   7.476
    7AU    AUSL 2397  36.783  21.787   7.096
    7AU     AUL 2398  37.078  21.992   7.128
    7AU    AUSL 2399  37.073  21.601   7.367
    7AU    AUSL 2400  37.022  21.303   7.768
    7AU     AUL 2401  37.284  21.387   7.571
    7AU    AUSL 2402  36.795  21.656   7.718
    7AU    AUSL 2403  36.753  22.100   7.853
    7AU     AUL 2404  37.001  21.840   7.878
    7AU    AUSL 2405  35.542  22.177   7.522
    7AU    AUSL 2406  35.579  21.929   7.878
    7AU     AUL 2407  35.270  22.174   7.745
    7AU    AUSL 2408  35.341  21.798   7.444
    7AU    AUSL 2409  35.494  22.114   7.106
    7AU     AUL 2410  35.258  22.039   7.263
    7AU    AUSL 2411  35.214  21.720   7.888
    7AU    AUSL 2412  35.181  21.414   7.349
    7AU     AUL 2413  35.059  21.731   7.590
    7AU    AUSL 2414  36.800  20.954   7.615
    7AU    AUSL 2415  36.626  21.237   7.925
    7AU     AUL 2416  36.933  21.143   8.001
    7AU    AUSL 2417  36.758  21.324   7.397
    7AU    AUSL 2418  36.748  20.922   7.188
    7AU     AUL 2419  36.992  21.132   7.250
    7AU    AUSL 2420  35.334  21.035   7.553
    7AU    AUSL 2421  35.545  21.245   7.205
    7AU     AUL 2422  35.195  21.138   7.213
    7AU    AUSL 2423  35.451  21.436   7.694
    7AU    AUSL 2424  35.641  21.052   7.849
    7AU     AUL 2425  35.260  21.205   7.848
    7AU    AUSL 2426  36.183  22.360   7.966
    7AU    AUSL 2427  35.728  22.339   7.878
    7AU     AUL 2428  35.950  22.384   8.194
    7AU    AUSL 2429  36.015  22.215   7.591
    7AU    AUSL 2430  36.266  22.348   7.247
    7AU     AUL 2431  36.035  22.555   7.554
    7AU    AUSL 2432  36.453  22.291   7.623
    7AU    AUSL 2433  36.447  22.090   8.153
    7AU     AUL 2434  36.566  22.380   7.941
    7AU    AUSL 2435  36.041  20.894   7.970
    7AU    AUSL 2436  36.465  20.835   7.849
    7AU     AUL 2437  36.226  20.773   8.223
    7AU    AUSL 2438  35.733  20.672   7.699
    7AU    AUSL 2439  35.761  21.009   8.274
    7AU     AUL 2440  35.769  20.711   8.050
    7AU    AUSL 2441  36.165  20.597   7.667
    7AU    AUSL 2442  35.958  20.842   7.362
    7AU     AUL 2443  35.841  20.497   7.487
    7AU    AUSL 2444  36.093  22.233   6.843
    7AU    AUSL 2445  36.665  22.211   7.199
    7AU     AUL 2446  36.409  22.321   6.936
    7AU    AUSL 2447  35.844  22.327   7.210
    7AU    AUSL 2448  35.867  21.916   7.014
    7AU     AUL 2449  35.774  22.222   6.856
    7AU    AUSL 2450  36.183  20.790   6.981
    7AU    AUSL 2451  35.550  20.804   7.258
    7AU     AUL 2452  35.846  20.656   7.043
    7AU    AUSL 2453  36.390  20.814   7.381
    7AU    AUSL 2454  36.413  21.147   7.018
    7AU     AUL 2455  36.507  20.774   7.050
    7AU       S 2456  36.638  20.579   8.227
    7AU     LIG 2457  36.685  20.345   8.352
    7AU     LIG 2458  36.807  20.185   8.479
    7AU     LIG 2459  36.965  20.008   8.590
    7AU       S 2460  36.672  21.369   8.719
    7AU     LIG 2461  36.835  21.427   8.921
    7AU     LIG 2462  36.925  21.483   9.146
    7AU     LIG 2463  37.031  21.450   9.383
    7AU       S 2464  36.350  21.176   8.725
    7AU     LIG 2465  36.406  21.082   9.005
    7AU     LIG 2466  36.572  21.098   9.203
    7AU     LIG 2467  36.706  21.053   9.419
    7AU       S 2468  35.725  21.666   8.757
    7AU     LIG 2469  35.688  21.690   9.059
    7AU     LIG 2470  35.570  21.675   9.261
    7AU     LIG 2471  35.422  21.652   9.479
    7AU       S 2472  36.250  22.100   8.566
    7AU     LIG 2473  36.367  22.237   8.771
    7AU     LIG 2474  36.580  22.157   8.933
    7AU     LIG 2475  36.803  22.031   8.947
    7AU       S 2476  36.942  21.992   8.334
    7AU     LIG 2477  37.125  22.032   8.555
    7AU     LIG 2478  37.265  22.189   8.669
    7AU     LIG 2479  37.441  22.365   8.744
    7AU       S 2480  36.543  21.621   6.306
    7AU     LIG 2481  36.758  21.676   6.093
    7AU     LIG 2482  36.892  21.510   5.955
    7AU     LIG 2483  36.952  21.319   5.795
    7AU       S 2484  36.758  22.321   6.652
    7AU     LIG 2485  36.804  22.514   6.462
    7AU     LIG 2486  36.967  22.604   6.288
    7AU     LIG 2487  37.132  22.695   6.123
    7AU       S 2488  37.018  21.032   6.768
    7AU     LIG 2489  37.180  20.945   6.527
    7AU     LIG 2490  37.194  20.726   6.388
    7AU     LIG 2491  37.210  20.471   6.348
    7AU       S 2492  36.464  21.326   6.240
    7AU     LIG 2493  36.486  21.202   6.011
    7AU     LIG 2494  36.473  21.129   5.771
    7AU     LIG 2495  36.544  21.109   5.521
    7AU       S 2496  35.730  21.386   6.303
    7AU     LIG 2497  35.785  21.353   6.024
    7AU     LIG 2498  35.791  21.299   5.795
    7AU     LIG 2499  35.715  21.258   5.540
    7AU       S 2500  36.300  21.767   6.264
    7AU     LIG 2501  36.201  21.701   5.973
    7AU     LIG 2502  36.343  21.626   5.780
    7AU     LIG 2503  36.536  21.618   5.607
    7AU       S 2504  35.449  21.754   8.643
    7AU     LIG 2505  35.238  21.729   8.819
    7AU     LIG 2506  35.184  21.513   8.977
    7AU     LIG 2507  35.114  21.381   9.166
    7AU       S 2508  35.480  22.312   8.268
    7AU     LIG 2509  35.394  22.467   8.501
    7AU     LIG 2510  35.253  22.478   8.694
    7AU     LIG 2511  35.084  22.567   8.877
    7AU       S 2512  35.203  21.046   8.284
    7AU     LIG 2513  34.957  20.977   8.381
    7AU     LIG 2514  34.812  20.785   8.457
    7AU     LIG 2515  34.685  20.603   8.575
    7AU       S 2516  35.774  21.374   8.684
    7AU     LIG 2517  35.697  21.198   8.887
    7AU     LIG 2518  35.584  21.178   9.105
    7AU     LIG 2519  35.539  21.164   9.361
    7AU       S 2520  35.468  21.298   6.418
    7AU     LIG 2521  35.289  21.228   6.208
    7AU     LIG 2522  35.278  21.299   5.957
    7AU     LIG 2523  35.266  21.409   5.737
    7AU       S 2524  35.502  20.750   6.745
    7AU     LIG 2525  35.428  20.563   6.540
    7AU     LIG 2526  35.270  20.521   6.354
    7AU     LIG 2527  35.086  20.472   6.184
    7AU       S 2528  35.132  21.976   6.798
    7AU     LIG 2529  34.925  22.145   6.744
    7AU     LIG 2530  34.873  22.344   6.588
    7AU     LIG 2531  34.849  22.467   6.367
    7AU       S 2532  35.630  21.654   6.393
    7AU     LIG 2533  35.463  21.755   6.139
    7AU     LIG 2534  35.546  21.792   5.913
    7AU     LIG 2535  35.654  21.772   5.679
    7AU       S 2536  36.989  22.135   6.708
    7AU     LIG 2537  37.204  22.181   6.537
    7AU     LIG 2538  37.361  22.293   6.389
    7AU     LIG 2539  37.542  22.412   6.245
    7AU       S 2540  37.241  22.111   7.556
    7AU     LIG 2541  37.454  22.315   7.540
    7AU     LIG 2542  37.698  22.359   7.511
    7AU     LIG 2543  37.951  22.422   7.532
    7AU       S 2544  37.417  21.812   7.388
    7AU     LIG 2545  37.686  21.883   7.293
    7AU     LIG 2546  37.926  21.949   7.306
    7AU     LIG 2547  38.148  22.063   7.226
    7AU       S 2548  37.281  20.933   7.790
    7AU     LIG 2549  37.516  20.831   7.920
    7AU     LIG 2550  37.769  20.826   7.859
    7AU     LIG 2551  38.018  20.794   7.780
    7AU       S 2552  36.978  22.240   8.127
    7AU     LIG 2553  37.173  22.417   8.210
    7AU     LIG 2554  37.218  22.616   8.357
    7AU     LIG 2555  37.237  22.795   8.540
    7AU       S 2556  37.388  21.844   7.663
    7AU     LIG 2557  37.626  21.915   7.814
    7AU     LIG 2558  37.863  21.982   7.811
    7AU     LIG 2559  38.093  22.072   7.878
    7AU       S 2560  35.314  22.089   8.203
    7AU     LIG 2561  35.075  22.081   8.380
    7AU     LIG 2562  34.889  22.220   8.444
    7AU     LIG 2563  34.713  22.339   8.594
    7AU       S 2564  35.481  22.513   7.463
    7AU     LIG 2565  35.321  22.721   7.335
    7AU     LIG 2566  35.075  22.701   7.239
    7AU     LIG 2567  34.887  22.544   7.123
    7AU       S 2568  34.917  21.732   7.139
    7AU     LIG 2569  34.679  21.737   7.071
    7AU     LIG 2570  34.424  21.813   7.141
    7AU     LIG 2571  34.279  22.026   7.163
    7AU       S 2572  35.347  22.386   6.929
    7AU     LIG 2573  35.274  22.594   6.787
    7AU     LIG 2574  35.132  22.773   6.702
    7AU     LIG 2575  35.001  22.928   6.537
    7AU       S 2576  34.828  21.328   7.449
    7AU     LIG 2577  34.551  21.318   7.337
    7AU     LIG 2578  34.308  21.300   7.332
    7AU     LIG 2579  34.074  21.179   7.284
    7AU       S 2580  35.019  21.647   8.097
    7AU     LIG 2581  34.706  21.751   8.182
    7AU     LIG 2582  34.589  21.963   8.094
    7AU     LIG 2583  34.409  22.110   7.968
    7AU       S 2584  37.011  20.763   7.606
    7AU     LIG 2585  37.145  20.461   7.622
    7AU     LIG 2586  37.373  20.395   7.697
    7AU     LIG 2587  37.644  20.381   7.655
    7AU       S 2588  36.855  20.702   8.066
    7AU     LIG 2589  37.102  20.566   8.105
    7AU     LIG 2590  37.232  20.478   8.287
    7AU     LIG 2591  37.279  20.408   8.537
    7AU       S 2592  37.268  20.913   7.519
    7AU     LIG 2593  37.491  20.791   7.383
    7AU     LIG 2594  37.732  20.792   7.343
    7AU     LIG 2595  37.973  20.720   7.280
    7AU       S 2596  36.960  20.770   6.925
    7AU     LIG 2597  37.025  20.510   6.822
    7AU     LIG 2598  36.898  20.287   6.774
    7AU     LIG 2599  36.857  20.068   6.659
    7AU       S 2600  35.325  20.945   6.817
    7AU     LIG 2601  35.092  20.955   6.620
    7AU     LIG 2602  34.915  20.838   6.527
    7AU     LIG 2603  34.709  20.680   6.465
    7AU       S 2604  34.910  21.037   7.583
    7AU     LIG 2605  34.693  20.871   7.588
    7AU     LIG 2606  34.466  20.823   7.482
    7AU     LIG 2607  34.233  20.719   7.441
    7AU       S 2608  35.322  20.816   8.082
    7AU     LIG 2609  35.146  20.608   8.068
    7AU     LIG 2610  35.026  20.422   8.174
    7AU     LIG 2611  34.893  20.236   8.287
    7AU       S 2612  34.852  21.332   7.713
    7AU     LIG 2613  34.618  21.304   7.888
    7AU     LIG 2614  34.379  21.212   7.835
    7AU     LIG 2615  34.170  21.077   7.809
    7AU       S 2616  35.521  22.531   7.989
    7AU     LIG 2617  35.286  22.720   8.062
    7AU     LIG 2618  35.061  22.683   8.206
    7AU     LIG 2619  34.929  22.760   8.412
    7AU       S 2620  36.264  22.717   8.053
    7AU     LIG 2621  36.375  22.904   8.255
    7AU     LIG 2622  36.263  23.094   8.380
    7AU     LIG 2623  36.118  23.295   8.444
    7AU       S 2624  36.026  22.852   7.925
    7AU     LIG 2625  35.937  23.077   7.968
    7AU     LIG 2626  35.911  23.336   7.984
    7AU     LIG 2627  35.920  23.587   8.012
    7AU       S 2628  36.191  22.695   7.131
    7AU     LIG 2629  36.257  22.964   7.146
    7AU     LIG 2630  36.291  23.196   7.130
    7AU     LIG 2631  36.354  23.439   7.042
    7AU       S 2632  36.701  22.207   8.364
    7AU     LIG 2633  36.776  22.426   8.543
    7AU     LIG 2634  36.877  22.507   8.736
    7AU     LIG 2635  37.003  22.525   8.967
    7AU       S 2636  36.403  22.768   7.734
    7AU     LIG 2637  36.435  23.041   7.718
    7AU     LIG 2638  36.410  23.251   7.875
    7AU     LIG 2639  36.422  23.435   8.040
    7AU       S 2640  36.124  20.358   8.062
    7AU     LIG 2641  36.243  20.152   8.213
    7AU     LIG 2642  36.231  19.945   8.334
    7AU     LIG 2643  36.212  19.708   8.434
    7AU       S 2644  36.607  20.591   7.902
    7AU     LIG 2645  36.711  20.287   7.827
    7AU     LIG 2646  36.871  20.153   7.925
    7AU     LIG 2647  37.083  20.053   8.057
    7AU       S 2648  35.872  20.272   7.896
    7AU     LIG 2649  35.823  20.005   7.918
    7AU     LIG 2650  35.845  19.787   8.033
    7AU     LIG 2651  35.835  19.549   8.129
    7AU       S 2652  35.466  20.898   8.386
    7AU     LIG 2653  35.339  20.680   8.570
    7AU     LIG 2654  35.202  20.506   8.640
    7AU     LIG 2655  35.065  20.312   8.762
    7AU       S 2656  36.190  20.368   7.221
    7AU     LIG 2657  36.129  20.040   7.210
    7AU     LIG 2658  36.114  19.844   7.090
    7AU     LIG 2659  36.114  19.577   7.027
    7AU       S 2660  36.204  20.321   7.758
    7AU     LIG 2661  36.304  20.019   7.712
    7AU     LIG 2662  36.317  19.822   7.838
    7AU     LIG 2663  36.311  19.576   7.941
    7AU       S 2664  36.043  22.615   6.835
    7AU     LIG 2665  36.049  22.844   6.681
    7AU     LIG 2666  36.172  23.060   6.641
    7AU     LIG 2667  36.238  23.294   6.564
    7AU       S 2668  36.882  22.391   6.958
    7AU     LIG 2669  37.080  22.595   6.901
    7AU     LIG 2670  37.239  22.669   6.721
    7AU     LIG 2671  37.387  22.791   6.558
    7AU       S 2672  35.840  22.636   7.112
    7AU     LIG 2673  35.728  22.914   7.085
    7AU     LIG 2674  35.785  23.140   6.998
    7AU     LIG 2675  35.859  23.365   6.907
    7AU       S 2676  35.402  22.046   6.654
    7AU     LIG 2677  35.342  22.181   6.415
    7AU     LIG 2678  35.352  22.411   6.319
    7AU     LIG 2679  35.325  22.650   6.239
    7AU       S 2680  35.347  20.714   7.029
    7AU     LIG 2681  35.090  20.541   6.950
    7AU     LIG 2682  35.003  20.399   6.784
    7AU     LIG 2683  34.917  20.226   6.606
    7AU       S 2684  36.260  20.407   6.941
    7AU     LIG 2685  36.377  20.228   6.769
    7AU     LIG 2686  36.350  20.018   6.646
    7AU     LIG 2687  36.274  19.780   6.582
    7AU       S 2688  36.453  20.408   7.324
    7AU     LIG 2689  36.617  20.167   7.293
    7AU     LIG 2690  36.624  19.961   7.128
    7AU     LIG 2691  36.609  19.744   6.984
    7AU       S 2692  36.714  20.917   6.673
    7AU     LIG 2693  36.700  20.739   6.470
    7AU     LIG 2694  36.690  20.511   6.376
    7AU     LIG 2695  36.741  20.308   6.221
    8AU     AUC 2696   9.241  21.220   7.535
    8AU     AUC 2697   9.493  21.225   7.369
    8AU     AUC 2698   9.482  21.212   7.699
    8AU     AUC 2699   8.971  21.228   7.380
    8AU     AUC 2700   8.997  21.257   7.705
    8AU     AUC 2701   9.080  21.473   7.513
    8AU     AUC 2702   9.427  21.485   7.516
    8AU     AUC 2703   9.062  20.966   7.543
    8AU     AUC 2704   9.393  20.944   7.545
    8AU     AUC 2705   9.235  21.060   7.798
    8AU     AUC 2706   9.254  21.400   7.779
    8AU     AUC 2707   9.228  21.047   7.287
    8AU     AUC 2708   9.248  21.353   7.271
    8AU     AUC 2709   9.796  21.216   7.204
    8AU     AUC 2710   9.804  21.196   7.545
    8AU     AUC 2711   9.762  21.183   7.899
    8AU     AUC 2712   8.669  21.202   7.228
    8AU     AUC 2713   8.668  21.261   7.556
    8AU     AUC 2714   8.697  21.300   7.888
    8AU     AUC 2715   8.915  21.786   7.474
    8AU     AUC 2716   9.275  21.760   7.457
    8AU     AUC 2717   9.641  21.748   7.487
    8AU     AUC 2718   8.858  20.677   7.548
    8AU     AUC 2719   9.209  20.653   7.529
    8AU     AUC 2720   9.565  20.642   7.546
    8AU     AUC 2721   9.194  20.894   8.101
    8AU     AUC 2722   9.231  21.236   8.101
    8AU     AUC 2723   9.288  21.600   8.062
    8AU     AUC 2724   9.259  20.857   6.997
    8AU     AUC 2725   9.207  21.198   6.973
    8AU     AUC 2726   9.204  21.521   6.957
    8AU     AUC 2727   9.476  20.998   8.012
    8AU     AUC 2728   9.532  21.374   7.987
    8AU     AUC 2729   9.531  21.060   7.072
    8AU     AUC 2730   9.496  21.372   7.079
    8AU     AUC 2731   8.942  21.118   8.000
    8AU     AUC 2732   8.989  21.468   7.971
    8AU     AUC 2733   8.953  21.017   7.103
    8AU     AUC 2734   8.907  21.345   7.083
    8AU     AUC 2735   9.734  21.488   7.346
    8AU     AUC 2736   9.700  21.485   7.705
    8AU     AUC 2737   8.775  21.500   7.383
    8AU     AUC 2738   8.820  21.566   7.713
    8AU     AUC 2739   9.697  20.937   7.407
    8AU     AUC 2740   9.645  20.891   7.739
    8AU     AUC 2741   8.776  20.914   7.373
    8AU     AUC 2742   8.802  20.988   7.716
    8AU     AUC 2743   9.140  21.718   7.782
    8AU     AUC 2744   9.479  21.673   7.793
    8AU     AUC 2745   9.027  20.785   7.817
    8AU     AUC 2746   9.345  20.732   7.809
    8AU     AUC 2747   9.050  21.651   7.215
    8AU     AUC 2748   9.415  21.667   7.226
    8AU     AUC 2749   9.081  20.753   7.258
    8AU     AUC 2750   9.441  20.798   7.274
    8AU    AUSL 2751   9.740  21.088   8.316
    8AU    AUSL 2752   9.490  20.715   8.222
    8AU     AUL 2753   9.797  20.716   8.389
    8AU    AUSL 2754   9.325  21.030   8.460
    8AU    AUSL 2755   9.087  21.439   8.451
    8AU     AUL 2756   9.323  21.314   8.710
    8AU    AUSL 2757   9.424  21.387   8.204
    8AU    AUSL 2758   9.875  21.446   8.126
    8AU     AUL 2759   9.693  21.411   8.435
    8AU    AUSL 2760   9.648  21.248   6.840
    8AU    AUSL 2761   9.509  21.644   6.981
    8AU     AUL 2762   9.723  21.576   6.681
    8AU    AUSL 2763   9.460  20.926   6.612
    8AU    AUSL 2764   9.967  20.996   6.982
    8AU     AUL 2765   9.835  21.070   6.665
    8AU    AUSL 2766   9.292  21.430   6.670
    8AU    AUSL 2767   9.114  21.044   6.829
    8AU     AUL 2768   9.245  21.123   6.524
    8AU    AUSL 2769   8.703  21.401   8.243
    8AU    AUSL 2770   9.066  21.710   8.111
    8AU     AUL 2771   8.903  21.678   8.412
    8AU    AUSL 2772   9.004  21.088   8.191
    8AU    AUSL 2773   8.555  21.011   8.105
    8AU     AUL 2774   8.612  21.100   8.341
    8AU    AUSL 2775   8.678  21.026   6.795
    8AU    AUSL 2776   8.927  20.676   6.947
    8AU     AUL 2777   8.951  20.762   6.641
    8AU    AUSL 2778   8.864  21.394   6.675
    8AU    AUSL 2779   8.584  21.375   7.050
    8AU     AUL 2780   8.467  21.256   6.776
    8AU    AUSL 2781  10.032  21.683   7.476
    8AU    AUSL 2782   9.907  21.473   7.096
    8AU     AUL 2783  10.202  21.678   7.128
    8AU    AUSL 2784  10.197  21.287   7.367
    8AU    AUSL 2785  10.146  20.989   7.768
    8AU     AUL 2786  10.408  21.073   7.571
    8AU    AUSL 2787   9.919  21.342   7.718
    8AU    AUSL 2788   9.877  21.786   7.853
    8AU     AUL 2789  10.125  21.526   7.878
    8AU    AUSL 2790   8.666  21.863   7.522
    8AU    AUSL 2791   8.703  21.615   7.878
    8AU     AUL 2792   8.394  21.860   7.745
    8AU    AUSL 2793   8.465  21.484   7.444
    8AU    AUSL 2794   8.618  21.800   7.106
    8AU     AUL 2795   8.382  21.725   7.263
    8AU    AUSL 2796   8.338  21.406   7.888
    8AU    AUSL 2797   8.305  21.100   7.349
    8AU     AUL 2798   8.183  21.417   7.590
    8AU    AUSL 2799   9.924  20.640   7.615
    8AU    AUSL 2800   9.750  20.923   7.925
    8AU     AUL 2801  10.057  20.829   8.001
    8AU    AUSL 2802   9.882  21.010   7.397
    8AU    AUSL 2803   9.872  20.608   7.188
    8AU     AUL 2804  10.116  20.818   7.250
    8AU    AUSL 2805   8.458  20.721   7.553
    8AU    AUSL 2806   8.669  20.931   7.205
    8AU     AUL 2807   8.319  20.824   7.213
    8AU    AUSL 2808   8.575  21.122   7.694
    8AU    AUSL 2809   8.765  20.738   7.849
    8AU     AUL 2810   8.384  20.891   7.848
    8AU    AUSL 2811   9.307  22.046   7.966
    8AU    AUSL 2812   8.852  22.025   7.878
    8AU     AUL 2813   9.074  22.070   8.194
    8AU    AUSL 2814   9.139  21.901   7.591
    8AU    AUSL 2815   9.390  22.034   7.247
    8AU     AUL 2816   9.159  22.241   7.554
    8AU    AUSL 2817   9.577  21.977   7.623
    8AU    AUSL 2818   9.571  21.776   8.153
    8AU     AUL 2819   9.690  22.066   7.941
    8AU    AUSL 2820   9.165  20.580   7.970
    8AU    AUSL 2821   9.589  20.521   7.849
    8AU     AUL 2822   9.350  20.459   8.223
    8AU    AUSL 2823   8.857  20.358   7.699
    8AU    AUSL 2824   8.885  20.695   8.274
    8AU     AUL 2825   8.893  20.397   8.050
    8AU    AUSL 2826   9.289  20.283   7.667
    8AU    AUSL 2827   9.082  20.528   7.362
    8AU     AUL 2828   8.965  20.183   7.487
    8AU    AUSL 2829   9.217  21.919   6.843
    8AU    AUSL 2830   9.789  21.897   7.199
    8AU     AUL 2831   9.533  22.007   6.936
    8AU    AUSL 2832   8.968  22.013   7.210
    8AU    AUSL 2833   8.991  21.602   7.014
    8AU     AUL 2834   8.898  21.908   6.856
    8AU    AUSL 2835   9.307  20.476   6.981
    8AU    AUSL 2836   8.674  20.490   7.258
    8AU     AUL 2837   8.970  20.342   7.043
    8AU    AUSL 2838   9.514  20.500   7.381
    8AU    AUSL 2839   9.537  20.833   7.018
    8AU     AUL 2840   9.631  20.460   7.050
    8AU       S 2841   9.762  20.265   8.227
    8AU     LIG 2842   9.809  20.031   8.352
    8AU     LIG 2843   9.931  19.871   8.479
    8AU     LIG 2844  10.089  19.694   8.590
    8AU       S 2845   9.796  21.055   8.719
    8AU     LIG 2846   9.959  21.113   8.921
    8AU     LIG 2847  10.049  21.169   9.146
    8AU     LIG 2848  10.155  21.136   9.383
    8AU       S 2849   9.474  20.862   8.725
    8AU     LIG 2850   9.530  20.768   9.005
    8AU     LIG 2851   9.696  20.784   9.203
    8AU     LIG 2852   9.830  20.739   9.419
    8AU       S 2853   8.849  21.352   8.757
    8AU     LIG 2854   8.812  21.376   9.059
    8AU     LIG 2855   8.694  21.361   9.261
    8AU     LIG 2856   8.546  21.338   9.479
    8AU       S 2857   9.374  21.786   8.566
    8AU     LIG 2858   9.491  21.923   8.771
    8AU     LIG 2859   9.704  21.843   8.933
    8AU     LIG 2860   9.927  21.717   8.947
    8AU       S 2861  10.066  21.678   8.334
    8AU     LIG 2862  10.249  21.718   8.555
    8AU     LIG 2863  10.389  21.875   8.669
    8AU     LIG 2864  10.565  22.051   8.744
    8AU       S 2865   9.667  21.307   6.306
    8AU     LIG 2866   9.882  21.362   6.093
    8AU     LIG 2867  10.016  21.196   5.955
    8AU     LIG 2868  10.076  21.005   5.795
    8AU       S 2869   9.882  22.007   6.652
    8AU     LIG 2870   9.928  22.200   6.462
    8AU     LIG 2871  10.091  22.290   6.288
    8AU     LIG 2872  10.256  22.381   6.123
    8AU       S 2873  10.142  20.718   6.768
    8AU     LIG 2874  10.304  20.631   6.527
    8AU     LIG 2875  10.318  20.412   6.388
    8AU     LIG 2876  10.334  20.157   6.348
    8AU       S 2877   9.588  21.012   6.240
    8AU     LIG 2878   9.610  20.888   6.011
    8AU     LIG 2879   9.597  20.815   5.771
    8AU     LIG 2880   9.668  20.795   5.521
    8AU       S 2881   8.854  21.072   6.303
    8AU     LIG 2882   8.909  21.039   6.024
    8AU     LIG 2883   8.915  20.985   5.795
    8AU     LIG 2884   8.839  20.944   5.540
    8AU       S 2885   9.424  21.453   6.264
    8AU     LIG 2886   9.325  21.387   5.973
    8AU     LIG 2887   9.467  21.312   5.780
    8AU     LIG 2888   9.660  21.304   5.607
    8AU       S 2889   8.573  21.440   8.643
    8AU     LIG 2890   8.362  21.415   8.819
    8AU     LIG 2891   8.308  21.199   8.977
    8AU     LIG 2892   8.238  21.067   9.166
    8AU       S 2893   8.604  21.998   8.268
    8AU     LIG 2894   8.518  22.153   8.501
    8AU     LIG 2895   8.377  22.164   8.694
    8AU     LIG 2896   8.208  22.253   8.877
    8AU       S 2897   8.327  20.732   8.284
    8AU     LIG 2898   8.081  20.663   8.381
    8AU     LIG 2899   7.936  20.471   8.457
    8AU     LIG 2900   7.809  20.289   8.575
    8AU       S 2901   8.898  21.060   8.684
    8AU     LIG 2902   8.821  20.884   8.887
    8AU     LIG 2903   8.708  20.864   9.105
    8AU     LIG 2904   8.663  20.850   9.361
    8AU       S 2905   8.592  20.984   6.418
    8AU     LIG 2906   8.413  20.914   6.208
    8AU     LIG 2907   8.402  20.985   5.957
    8AU     LIG 2908   8.390  21.095   5.737
    8AU       S 2909   8.626  20.436   6.745
    8AU     LIG 2910   8.552  20.249   6.540
    8AU     LIG 2911   8.394  20.207   6.354
    8AU     LIG 2912   8.210  20.158   6.184
    8AU       S 2913   8.256  21.662   6.798
    8AU     LIG 2914   8.049  21.831   6.744
    8AU     LIG 2915   7.997  22.030   6.588
    8AU     LIG 2916   7.973  22.153   6.367
    8AU       S 2917   8.754  21.340   6.393
    8AU     LIG 2918   8.587  21.441   6.139
    8AU     LIG 2919   8.670  21.478   5.913
    8AU     LIG 2920   8.778  21.458   5.679
    8AU       S 2921  10.113  21.821   6.708
    8AU     LIG 2922  10.328  21.867   6.537
    8AU     LIG 2923  10.485  21.979   6.389
    8AU     LIG 2924  10.666  22.098   6.245
    8AU       S 2925  10.365  21.797   7.556
    8AU     LIG 2926  10.578  22.001   7.540
    8AU     LIG 2927  10.822  22.045   7.511
    8AU     LIG 2928  11.075  22.108   7.532
    8AU       S 2929  10.541  21.498   7.388
    8AU     LIG 2930  10.810  21.569   7.293
    8AU     LIG 2931  11.050  21.635   7.306
    8AU     LIG 2932  11.272  21.749   7.226
    8AU       S 2933  10.405  20.619   7.790
    8AU     LIG 2934  10.640  20.517   7.920
    8AU     LIG 2935  10.893  20.512   7.859
    8AU     LIG 2936  11.142  20.480   7.780
    8AU       S 2937  10.102  21.926   8.127
    8AU     LIG 2938  10.297  22.103   8.210
    8AU     LIG 2939  10.342  22.302   8.357
    8AU     LIG 2940  10.361  22.481   8.540
    8AU       S 2941  10.512  21.530   7.663
    8AU     LIG 2942  10.750  21.601   7.814
    8AU     LIG 2943  10.987  21.668   7.811
    8AU     LIG 2944  11.217  21.758   7.878
    8AU       S 2945   8.438  21.775   8.203
    8AU     LIG 2946   8.199  21.767   8.380
    8AU     LIG 2947   8.013  21.906   8.444
    8AU     LIG 2948   7.837  22.025   8.594
    8AU       S 2949   8.605  22.199   7.463
    8AU     LIG 2950   8.445  22.407   7.335
    8AU     LIG 2951   8.199  22.387   7.239
    8AU     LIG 2952   8.011  22.230   7.123
    8AU       S 2953   8.041  21.418   7.139
    8AU     LIG 2954   7.803  21.423   7.071
    8AU     LIG 2955   7.548  21.499   7.141
    8AU     LIG 2956   7.403  21.712   7.163
    8AU       S 2957   8.471  22.072   6.929
    8AU     LIG 2958   8.398  22.280   6.787
    8AU     LIG 2959   8.256  22.459   6.702
    8AU     LIG 2960   8.125  22.614   6.537
    8AU       S 2961   7.952  21.014   7.449
    8AU     LIG 2962   7.675  21.004   7.337
    8AU     LIG 2963   7.432  20.986   7.332
    8AU     LIG 2964   7.198  20.865   7.284
    8AU       S 2965   8.143  21.333   8.097
    8AU     LIG 2966   7.830  21.437   8.182
    8AU     LIG 2967   7.713  21.649   8.094
    8AU     LIG 2968   7.533  21.796   7.968
    8AU       S 2969  10.135  20.449   7.606
    8AU     LIG 2970  10.269  20.147   7.622
    8AU     LIG 2971  10.497  20.081   7.697
    8AU     LIG 2972  10.768  20.067   7.655
    8AU       S 2973   9.979  20.388   8.066
    8AU     LIG 2974  10.226  20.252   8.105
    8AU     LIG 2975  10.356  20.164   8.287
    8AU     LIG 2976  10.403  20.094   8.537
    8AU       S 2977  10.392  20.599   7.519
    8AU     LIG 2978  10.615  20.477   7.383
    8AU     LIG 2979  10.856  20.478   7.343
    8AU     LIG 2980  11.097  20.406   7.280
    8AU       S 2981  10.084  20.456   6.925
    8AU     LIG 2982  10.149  20.196   6.822
    8AU     LIG 2983  10.022  19.973   6.774
    8AU     LIG 2984   9.981  19.754   6.659
    8AU       S 2985   8.449  20.631   6.817
    8AU     LIG 2986   8.216  20.641   6.620
    8AU     LIG 2987   8.039  20.524   6.527
    8AU     LIG 2988   7.833  20.366   6.465
    8AU       S 2989   8.034  20.723   7.583
    8AU     LIG 2990   7.817  20.557   7.588
    8AU     LIG 2991   7.590  20.509   7.482
    8AU     LIG 2992   7.357  20.405   7.441
    8AU       S 2993   8.446  20.502   8.082
    8AU     LIG 2994   8.270  20.294   8.068
    8AU     LIG 2995   8.150  20.108   8.174
    8AU     LIG 2996   8.017  19.922   8.287
    8AU       S 2997   7.976  21.018   7.713
    8AU     LIG 2998   7.742  20.990   7.888
    8AU     LIG 2999   7.503  20.898   7.835
    8AU     LIG 3000   7.294  20.763   7.809
    8AU       S 3001   8.645  22.217   7.989
    8AU     LIG 3002   8.410  22.406   8.062
    8AU     LIG 3003   8.185  22.369   8.206
    8AU     LIG 3004   8.053  22.446   8.412
    8AU       S 3005   9.388  22.403   8.053
    8AU     LIG 3006   9.499  22.590   8.255
    8AU     LIG 3007   9.387  22.780   8.380
    8AU     LIG 3008   9.242  22.981   8.444
    8AU       S 3009   9.150  22.538   7.925
    8AU     LIG 3010   9.061  22.763   7.968
    8AU     LIG 3011   9.035  23.022   7.984
    8AU     LIG 3012   9.044  23.273   8.012
    8AU       S 3013   9.315  22.381   7.131
    8AU     LIG 3014   9.381  22.650   7.146
    8AU     LIG 3015   9.415  22.882   7.130
    8AU     LIG 3016   9.478  23.125   7.042
    8AU       S 3017   9.825  21.893   8.364
    8AU     LIG 3018   9.900  22.112   8.543
    8AU     LIG 3019  10.001  22.193   8.736
    8AU     LIG 3020  10.127  22.211   8.967
    8AU       S 3021   9.527  22.454   7.734
    8AU     LIG 3022   9.559  22.727   7.718
    8AU     LIG 3023   9.534  22.937   7.875
    8AU     LIG 3024   9.546  23.121   8.040
    8AU       S 3025   9.248  20.044   8.062
    8AU     LIG 3026   9.367  19.838   8.213
    8AU     LIG 3027   9.355  19.631   8.334
    8AU     LIG 3028   9.336  19.394   8.434
    8AU       S 3029   9.731  20.277   7.902
    8AU     LIG 3030   9.835  19.973   7.827
    8AU     LIG 3031   9.995  19.839   7.925
    8AU     LIG 3032  10.207  19.739   8.057
    8AU       S 3033   8.996  19.958   7.896
    8AU     LIG 3034   8.947  19.691   7.918
    8AU     LIG 3035   8.969  19.473   8.033
    8AU     LIG 3036   8.959  19.235   8.129
    8AU       S 3037   8.590  20.584   8.386
    8AU     LIG 3038   8.463  20.366   8.570
    8AU     LIG 3039   8.326  20.192   8.640
    8AU     LIG 3040   8.189  19.998   8.762
    8AU       S 3041   9.314  20.054   7.221
    8AU     LIG 3042   9.253  19.726   7.210
    8AU     LIG 3043   9.238  19.530   7.090
    8AU     LIG 3044   9.238  19.263   7.027
    8AU       S 3045   9.328  20.007   7.758
    8AU     LIG 3046   9.428  19.705   7.712
    8AU     LIG 3047   9.441  19.508   7.838
    8AU     LIG 3048   9.435  19.262   7.941
    8AU       S 3049   9.167  22.301   6.835
    8AU     LIG 3050   9.173  22.530   6.681
    8AU     LIG 3051   9.296  22.746   6.641
    8AU     LIG 3052   9.362  22.980   6.564
    8AU       S 3053  10.006  22.077   6.958
    8AU     LIG 3054  10.204  22.281   6.901
    8AU     LIG 3055  10.363  22.355   6.721
    8AU     LIG 3056  10.511  22.477   6.558
    8AU       S 3057   8.964  22.322   7.112
    8AU     LIG 3058   8.852  22.600   7.085
    8AU     LIG 3059   8.909  22.826   6.998
    8AU     LIG 3060   8.983  23.051   6.907
    8AU       S 3061   8.526  21.732   6.654
    8AU     LIG 3062   8.466  21.867   6.415
    8AU     LIG 3063   8.476  22.097   6.319
    8AU     LIG 3064   8.449  22.336   6.239
    8AU       S 3065   8.471  20.400   7.029
    8AU     LIG 3066   8.214  20.227   6.950
    8AU     LIG 3067   8.127  20.085   6.784
    8AU     LIG 3068   8.041  19.912   6.606
    8AU       S 3069   9.384  20.093   6.941
    8AU     LIG 3070   9.501  19.914   6.769
    8AU     LIG 3071   9.474  19.704   6.646
    8AU     LIG 3072   9.398  19.466   6.582
    8AU       S 3073   9.577  20.094   7.324
    8AU     LIG 3074   9.741  19.853   7.293
    8AU     LIG 3075   9.748  19.647   7.128
    8AU     LIG 3076   9.733  19.430   6.984
    8AU       S 3077   9.838  20.603   6.673
    8AU     LIG 3078   9.824  20.425   6.470
    8AU     LIG 3079   9.814  20.197   6.376
    8AU     LIG 3080   9.865  19.994   6.221
    9AU     AUC 3081  23.398   8.725   7.535
    9AU     AUC 3082  23.650   8.730   7.369
    9AU     AUC 3083  23.639   8.717   7.699
    9AU     AUC 3084  23.128   8.733   7.380
    9AU     AUC 3085  23.154   8.762   7.705
    9AU     AUC 3086  23.237   8.978   7.513
    9AU     AUC 3087  23.584   8.990   7.516
    9AU     AUC 3088  23.219   8.471   7.543
    9AU     AUC 3089  23.550   8.449   7.545
    9AU     AUC 3090  23.392   8.565   7.798
    9AU     AUC 3091  23.411   8.905   7.779
    9AU     AUC 3092  23.385   8.552   7.287
    9AU     AUC 3093  23.405   8.858   7.271
    9AU     AUC 3094  23.953   8.721   7.204
    9AU     AUC 3095  23.961   8.701   7.545
    9AU     AUC 3096  23.919   8.688   7.899
    9AU     AUC 3097  22.826   8.707   7.228
    9AU     AUC 3098  22.825   8.766   7.556
    9AU     AUC 3099  22.854   8.805   7.888
    9AU     AUC 3100  23.072   9.291   7.474
    9AU     AUC 3101  23.432   9.265   7.457
    9AU     AUC 3102  23.798   9.253   7.487
    9AU     AUC 3103  23.015   8.182   7.548
    9AU     AUC 3104  23.366   8.158   7.529
    9AU     AUC 3105  23.722   8.147   7.546
    9AU     AUC 3106  23.351   8.399   8.101
    9AU     AUC 3107  23.388   8.741   8.101
    9AU     AUC 3108  23.445   9.105   8.062
    9AU     AUC 3109  23.416   8.362   6.997
    9AU     AUC 3110  23.364   8.703   6.973
    9AU     AUC 3111  23.361   9.026   6.957
    9AU     AUC 3112  23.633   8.503   8.012
    9AU     AUC 3113  23.689   8.879   7.987
    9AU     AUC 3114  23.688   8.565   7.072
    9AU     AUC 3115  23.653   8.877   7.079
    9AU     AUC 3116  23.099   8.623   8.000
    9AU     AUC 3117  23.146   8.973   7.971
    9AU     AUC 3118  23.110   8.522   7.103
    9AU     AUC 3119  23.064   8.850   7.083
    9AU     AUC 3120  23.891   8.993   7.346
    9AU     AUC 3121  23.857   8.990   7.705
    9AU     AUC 3122  22.932   9.005   7.383
    9AU     AUC 3123  22.977   9.071   7.713
    9AU     AUC 3124  23.854   8.442   7.407
    9AU     AUC 3125  23.802   8.396   7.739
    9AU     AUC 3126  22.933   8.419   7.373
    9AU     AUC 3127  22.959   8.493   7.716
    9AU     AUC 3128  23.297   9.223   7.782
    9AU     AUC 3129  23.636   9.178   7.793
    9AU     AUC 3130  23.184   8.290   7.817
    9AU     AUC 3131  23.502   8.237   7.809
    9AU     AUC 3132  23.207   9.156   7.215
    9AU     AUC 3133  23.572   9.172   7.226
    9AU     AUC 3134  23.238   8.258   7.258
    9AU     AUC 3135  23.598   8.303   7.274
    9AU    AUSL 3136  23.897   8.593   8.316
    9AU    AUSL 3137  23.647   8.220   8.222
    9AU     AUL 3138  23.954   8.221   8.389
    9AU    AUSL 3139  23.482   8.535   8.460
    9AU    AUSL 3140  23.244   8.944   8.451
    9AU     AUL 3141  23.480   8.819   8.710
    9AU    AUSL 3142  23.581   8.892   8.204
    9AU    AUSL 3143  24.032   8.951   8.126
    9AU     AUL 3144  23.850   8.916   8.435
    9AU    AUSL 3145  23.805   8.753   6.840
    9AU    AUSL 3146  23.666   9.149   6.981
    9AU     AUL 3147  23.880   9.081   6.681
    9AU    AUSL 3148  23.617   8.431   6.612
    9AU    AUSL 3149  24.124   8.501   6.982
    9AU     AUL 3150  23.992   8.575   6.665
    9AU    AUSL 3151  23.449   8.935   6.670
    9AU    AUSL 3152  23.271   8.549   6.829
    9AU     AUL 3153  23.402   8.628   6.524
    9AU    AUSL 3154  22.860   8.906   8.243
    9AU    AUSL 3155  23.223   9.215   8.111
    9AU     AUL 3156  23.060   9.183   8.412
    9AU    AUSL 3157  23.161   8.593   8.191
    9AU    AUSL 3158  22.712   8.516   8.105
    9AU     AUL 3159  22.769   8.605   8.341
    9AU    AUSL 3160  22.835   8.531   6.795
    9AU    AUSL 3161  23.084   8.181   6.947
    9AU     AUL 3162  23.108   8.267   6.641
    9AU    AUSL 3163  23.021   8.899   6.675
    9AU    AUSL 3164  22.741   8.880   7.050
    9AU     AUL 3165  22.624   8.761   6.776
    9AU    AUSL 3166  24.189   9.188   7.476
    9AU    AUSL 3167  24.064   8.978   7.096
    9AU     AUL 3168  24.359   9.183   7.128
    9AU    AUSL 3169  24.354   8.792   7.367
    9AU    AUSL 3170  24.303   8.494   7.768
    9AU     AUL 3171  24.565   8.578   7.571
    9AU    AUSL 3172  24.076   8.847   7.718
    9AU    AUSL 3173  24.034   9.291   7.853
    9AU     AUL 3174  24.282   9.031   7.878
    9AU    AUSL 3175  22.823   9.368   7.522
    9AU    AUSL 3176  22.860   9.120   7.878
    9AU     AUL 3177  22.551   9.365   7.745
    9AU    AUSL 3178  22.622   8.989   7.444
    9AU    AUSL 3179  22.775   9.305   7.106
    9AU     AUL 3180  22.539   9.230   7.263
    9AU    AUSL 3181  22.495   8.911   7.888
    9AU    AUSL 3182  22.462   8.605   7.349
    9AU     AUL 3183  22.340   8.922   7.590
    9AU    AUSL 3184  24.081   8.145   7.615
    9AU    AUSL 3185  23.907   8.428   7.925
    9AU     AUL 3186  24.214   8.334   8.001
    9AU    AUSL 3187  24.039   8.515   7.397
    9AU    AUSL 3188  24.029   8.113   7.188
    9AU     AUL 3189  24.273   8.323   7.250
    9AU    AUSL 3190  22.615   8.226   7.553
    9AU    AUSL 3191  22.826   8.436   7.205
    9AU     AUL 3192  22.476   8.329   7.213
    9AU    AUSL 3193  22.732   8.627   7.694
    9AU    AUSL 3194  22.922   8.243   7.849
    9AU     AUL 3195  22.541   8.396   7.848
    9AU    AUSL 3196  23.464   9.551   7.966
    9AU    AUSL 3197  23.009   9.530   7.878
    9AU     AUL 3198  23.231   9.575   8.194
    9AU    AUSL 3199  23.296   9.406   7.591
    9AU    AUSL 3200  23.547   9.539   7.247
    9AU     AUL 3201  23.316   9.746   7.554
    9AU    AUSL 3202  23.734   9.482   7.623
    9AU    AUSL 3203  23.728   9.281   8.153
    9AU     AUL 3204  23.847   9.571   7.941
    9AU    AUSL 3205  23.322   8.085   7.970
    9AU    AUSL 3206  23.746   8.026   7.849
    9AU     AUL 3207  23.507   7.964   8.223
    9AU    AUSL 3208  23.014   7.863   7.699
    9AU    AUSL 3209  23.042   8.200   8.274
    9AU     AUL 3210  23.050   7.902   8.050
    9AU    AUSL 3211  23.446   7.788   7.667
    9AU    AUSL 3212  23.239   8.033   7.362
    9AU     AUL 3213  23.122   7.688   7.487
    9AU    AUSL 3214  23.374   9.424   6.843
    9AU    AUSL 3215  23.946   9.402   7.199
    9AU     AUL 3216  23.690   9.512   6.936
    9AU    AUSL 3217  23.125   9.518   7.210
    9AU    AUSL 3218  23.148   9.107   7.014
    9AU     AUL 3219  23.055   9.413   6.856
    9AU    AUSL 3220  23.464   7.981   6.981
    9AU    AUSL 3221  22.831   7.995   7.258
    9AU     AUL 3222  23.127   7.847   7.043
    9AU    AUSL 3223  23.671   8.005   7.381
    9AU    AUSL 3224  23.694   8.338   7.018
    9AU     AUL 3225  23.788   7.965   7.050
    9AU       S 3226  23.919   7.770   8.227
    9AU     LIG 3227  23.966   7.536   8.352
    9AU     LIG 3228  24.088   7.376   8.479
    9AU     LIG 3229  24.246   7.199   8.590
    9AU       S 3230  23.953   8.560   8.719
    9AU     LIG 3231  24.116   8.618   8.921
    9AU     LIG 3232  24.206   8.674   9.146
    9AU     LIG 3233  24.312   8.641   9.383
    9AU       S 3234  23.631   8.367   8.725
    9AU     LIG 3235  23.687   8.273   9.005
    9AU     LIG 3236  23.853   8.289   9.203
    9AU     LIG 3237  23.987   8.244   9.419
    9AU       S 3238  23.006   8.857   8.757
    9AU     LIG 3239  22.969   8.881   9.059
    9AU     LIG 3240  22.851   8.866   9.261
    9AU     LIG 3241  22.703   8.843   9.479
    9AU       S 3242  23.531   9.291   8.566
    9AU     LIG 3243  23.648   9.428   8.771
    9AU     LIG 3244  23.861   9.348   8.933
    9AU     LIG 3245  24.084   9.222   8.947
    9AU       S 3246  24.223   9.183   8.334
    9AU     LIG 3247  24.406   9.223   8.555
    9AU     LIG 3248  24.546   9.380   8.669
    9AU     LIG 3249  24.722   9.556   8.744
    9AU       S 3250  23.824   8.812   6.306
    9AU     LIG 3251  24.039   8.867   6.093
    9AU     LIG 3252  24.173   8.701   5.955
    9AU     LIG 3253  24.233   8.510   5.795
    9AU       S 3254  24.039   9.512   6.652
    9AU     LIG 3255  24.085   9.705   6.462
    9AU     LIG 3256  24.248   9.795   6.288
    9AU     LIG 3257  24.413   9.886   6.123
    9AU       S 3258  24.299   8.223   6.768
    9AU     LIG 3259  24.461   8.136   6.527
    9AU     LIG 3260  24.475   7.917   6.388
    9AU     LIG 3261  24.491   7.662   6.348
    9AU       S 3262  23.745   8.517   6.240
    9AU     LIG 3263  23.767   8.393   6.011
    9AU     LIG 3264  23.754   8.320   5.771
    9AU     LIG 3265  23.825   8.300   5.521
    9AU       S 3266  23.011   8.577   6.303
    9AU     LIG 3267  23.066   8.544   6.024
    9AU     LIG 3268  23.072   8.490   5.795
    9AU     LIG 3269  22.996   8.449   5.540
    9AU       S 3270  23.581   8.958   6.264
    9AU     LIG 3271  23.482   8.892   5.973
    9AU     LIG 3272  23.624   8.817   5.780
    9AU     LIG 3273  23.817   8.809   5.607
    9AU       S 3274  22.730   8.945   8.643
    9AU     LIG 3275  22.519   8.920   8.819
    9AU     LIG 3276  22.465   8.704   8.977
    9AU     LIG 3277  22.395   8.572   9.166
    9AU       S 3278  22.761   9.503   8.268
    9AU     LIG 3279  22.675   9.658   8.501
    9AU     LIG 3280  22.534   9.669   8.694
    9AU     LIG 3281  22.365   9.758   8.877
    9AU       S 3282  22.484   8.237   8.284
    9AU     LIG 3283  22.238   8.168   8.381
    9AU     LIG 3284  22.093   7.976   8.457
    9AU     LIG 3285  21.966   7.794   8.575
    9AU       S 3286  23.055   8.565   8.684
    9AU     LIG 3287  22.978   8.389   8.887
    9AU     LIG 3288  22.865   8.369   9.105
    9AU     LIG 3289  22.820   8.355   9.361
    9AU       S 3290  22.749   8.489   6.418
    9AU     LIG 3291  22.570   8.419   6.208
    9AU     LIG 3292  22.559   8.490   5.957
    9AU     LIG 3293  22.547   8.600   5.737
    9AU       S 3294  22.783   7.941   6.745
    9AU     LIG 3295  22.709   7.754   6.540
    9AU     LIG 3296  22.551   7.712   6.354
    9AU     LIG 3297  22.367   7.663   6.184
    9AU       S 3298  22.413   9.167   6.798
    9AU     LIG 3299  22.206   9.336   6.744
    9AU     LIG 3300  22.154   9.535   6.588
    9AU     LIG 3301  22.130   9.658   6.367
    9AU       S 3302  22.911   8.845   6.393
    9AU     LIG 3303  22.744   8.946   6.139
    9AU     LIG 3304  22.827   8.983   5.913
    9AU     LIG 3305  22.935   8.963   5.679
    9AU       S 3306  24.270   9.326   6.708
    9AU     LIG 3307  24.485   9.372   6.537
    9AU     LIG 3308  24.642   9.484   6.389
    9AU     LIG 3309  24.823   9.603   6.245
    9AU       S 3310  24.522   9.302   7.556
    9AU     LIG 3311  24.735   9.506   7.540
    9AU     LIG 3312  24.979   9.550   7.511
    9AU     LIG 3313  25.232   9.613   7.532
    9AU       S 3314  24.698   9.003   7.388
    9AU     LIG 3315  24.967   9.074   7.293
    9AU     LIG 3316  25.207   9.140   7.306
    9AU     LIG 3317  25.429   9.254   7.226
    9AU       S 3318  24.562   8.124   7.790
    9AU     LIG 3319  24.797   8.022   7.920
    9AU     LIG 3320  25.050   8.017   7.859
    9AU     LIG 3321  25.299   7.985   7.780
    9AU       S 3322  24.259   9.431   8.127
    9AU     LIG 3323  24.454   9.608   8.210
    9AU     LIG 3324  24.499   9.807   8.357
    9AU     LIG 3325  24.518   9.986   8.540
    9AU       S 3326  24.669   9.035   7.663
    9AU     LIG 3327  24.907   9.106   7.814
    9AU     LIG 3328  25.144   9.173   7.811
    9AU     LIG 3329  25.374   9.263   7.878
    9AU       S 3330  22.595   9.280   8.203
    9AU     LIG 3331  22.356   9.272   8.380
    9AU     LIG 3332  22.170   9.411   8.444
    9AU     LIG 3333  21.994   9.530   8.594
    9AU       S 3334  22.762   9.704   7.463
    9AU     LIG 3335  22.602   9.912   7.335
    9AU     LIG 3336  22.356   9.892   7.239
    9AU     LIG 3337  22.168   9.735   7.123
    9AU       S 3338  22.198   8.923   7.139
    9AU     LIG 3339  21.960   8.928   7.071
    9AU     LIG 3340  21.705   9.004   7.141
    9AU     LIG 3341  21.560   9.217   7.163
    9AU       S 3342  22.628   9.577   6.929
    9AU     LIG 3343  22.555   9.785   6.787
    9AU     LIG 3344  22.413   9.964   6.702
    9AU     LIG 3345  22.282  10.119   6.537
    9AU       S 3346  22.109   8.519   7.449
    9AU     LIG 3347  21.832   8.509   7.337
    9AU     LIG 3348  21.589   8.491   7.332
    9AU     LIG 3349  21.355   8.370   7.284
    9AU       S 3350  22.300   8.838   8.097
    9AU     LIG 3351  21.987   8.942   8.182
    9AU     LIG 3352  21.870   9.154   8.094
    9AU     LIG 3353  21.690   9.301   7.968
    9AU       S 3354  24.292   7.954   7.606
    9AU     LIG 3355  24.426   7.652   7.622
    9AU     LIG 3356  24.654   7.586   7.697
    9AU     LIG 3357  24.925   7.572   7.655
    9AU       S 3358  24.136   7.893   8.066
    9AU     LIG 3359  24.383   7.757   8.105
    9AU     LIG 3360  24.513   7.669   8.287
    9AU     LIG 3361  24.560   7.599   8.537
    9AU       S 3362  24.549   8.104   7.519
    9AU     LIG 3363  24.772   7.982   7.383
    9AU     LIG 3364  25.013   7.983   7.343
    9AU     LIG 3365  25.254   7.911   7.280
    9AU       S 3366  24.241   7.961   6.925
    9AU     LIG 3367  24.306   7.701   6.822
    9AU     LIG 3368  24.179   7.478   6.774
    9AU     LIG 3369  24.138   7.259   6.659
    9AU       S 3370  22.606   8.136   6.817
    9AU     LIG 3371  22.373   8.146   6.620
    9AU     LIG 3372  22.196   8.029   6.527
    9AU     LIG 3373  21.990   7.871   6.465
    9AU       S 3374  22.191   8.228   7.583
    9AU     LIG 3375  21.974   8.062   7.588
    9AU     LIG 3376  21.747   8.014   7.482
    9AU     LIG 3377  21.514   7.910   7.441
    9AU       S 3378  22.603   8.007   8.082
    9AU     LIG 3379  22.427   7.799   8.068
    9AU     LIG 3380  22.307   7.613   8.174
    9AU     LIG 3381  22.174   7.427   8.287
    9AU       S 3382  22.133   8.523   7.713
    9AU     LIG 3383  21.899   8.495   7.888
    9AU     LIG 3384  21.660   8.403   7.835
    9AU     LIG 3385  21.451   8.268   7.809
    9AU       S 3386  22.802   9.722   7.989
    9AU     LIG 3387  22.567   9.911   8.062
    9AU     LIG 3388  22.342   9.874   8.206
    9AU     LIG 3389  22.210   9.951   8.412
    9AU       S 3390  23.545   9.908   8.053
    9AU     LIG 3391  23.656  10.095   8.255
    9AU     LIG 3392  23.544  10.285   8.380
    9AU     LIG 3393  23.399  10.486   8.444
    9AU       S 3394  23.307  10.043   7.925
    9AU     LIG 3395  23.218  10.268   7.968
    9AU     LIG 3396  23.192  10.527   7.984
    9AU     LIG 3397  23.201  10.778   8.012
    9AU       S 3398  23.472   9.886   7.131
    9AU     LIG 3399  23.538  10.155   7.146
    9AU     LIG 3400  23.572  10.387   7.130
    9AU     LIG 3401  23.635  10.630   7.042
    9AU       S 3402  23.982   9.398   8.364
    9AU     LIG 3403  24.057   9.617   8.543
    9AU     LIG 3404  24.158   9.698   8.736
    9AU     LIG 3405  24.284   9.716   8.967
    9AU       S 3406  23.684   9.959   7.734
    9AU     LIG 3407  23.716  10.232   7.718
    9AU     LIG 3408  23.691  10.442   7.875
    9AU     LIG 3409  23.703  10.626   8.040
    9AU       S 3410  23.405   7.549   8.062
    9AU     LIG 3411  23.524   7.343   8.213
    9AU     LIG 3412  23.512   7.136   8.334
    9AU     LIG 3413  23.493   6.899   8.434
    9AU       S 3414  23.888   7.782   7.902
    9AU     LIG 3415  23.992   7.478   7.827
    9AU     LIG 3416  24.152   7.344   7.925
    9AU     LIG 3417  24.364   7.244   8.057
    9AU       S 3418  23.153   7.463   7.896
    9AU     LIG 3419  23.104   7.196   7.918
    9AU     LIG 3420  23.126   6.978   8.033
    9AU     LIG 3421  23.116   6.740   8.129
    9AU       S 3422  22.747   8.089   8.386
    9AU     LIG 3423  22.620   7.871   8.570
    9AU     LIG 3424  22.483   7.697   8.640
    9AU     LIG 3425  22.346   7.503   8.762
    9AU       S 3426  23.471   7.559   7.221
    9AU     LIG 3427  23.410   7.231   7.210
    9AU     LIG 3428  23.395   7.035   7.090
    9AU     LIG 3429  23.395   6.768   7.027
    9AU       S 3430  23.485   7.512   7.758
    9AU     LIG 3431  23.585   7.210   7.712
    9AU     LIG 3432  23.598   7.013   7.838
    9AU     LIG 3433  23.592   6.767   7.941
    9AU       S 3434  23.324   9.806   6.835
    9AU     LIG 3435  23.330  10.035   6.681
    9AU     LIG 3436  23.453  10.251   6.641
    9AU     LIG 3437  23.519  10.485   6.564
    9AU       S 3438  24.163   9.582   6.958
    9AU     LIG 3439  24.361   9.786   6.901
    9AU     LIG 3440  24.520   9.860   6.721
    9AU     LIG 3441  24.668   9.982   6.558
    9AU       S 3442  23.121   9.827   7.112
    9AU     LIG 3443  23.009  10.105   7.085
    9AU     LIG 3444  23.066  10.331   6.998
    9AU     LIG 3445  23.140  10.556   6.907
    9AU       S 3446  22.683   9.237   6.654
    9AU     LIG 3447  22.623   9.372   6.415
    9AU     LIG 3448  22.633   9.602   6.319
    9AU     LIG 3449  22.606   9.841   6.239
    9AU       S 3450  22.628   7.905   7.029
    9AU     LIG 3451  22.371   7.732   6.950
    9AU     LIG 3452  22.284   7.590   6.784
    9AU     LIG 3453  22.198   7.417   6.606
    9AU       S 3454  23.541   7.598   6.941
    9AU     LIG 3455  23.658   7.419   6.769
    9AU     LIG 3456  23.631   7.209   6.646
    9AU     LIG 3457  23.555   6.971   6.582
    9AU       S 3458  23.734   7.599   7.324
    9AU     LIG 3459  23.898   7.358   7.293
    9AU     LIG 3460  23.905   7.152   7.128
    9AU     LIG 3461  23.890   6.935   6.984
    9AU       S 3462  23.995   8.108   6.673
    9AU     LIG 3463  23.981   7.930   6.470
    9AU     LIG 3464  23.971   7.702   6.376
    9AU     LIG 3465  24.022   7.499   6.221
   10AU     AUC 3466  31.926  51.730   7.535
   10AU     AUC 3467  32.178  51.735   7.369
   10AU     AUC 3468  32.167  51.722   7.699
   10AU     AUC 3469  31.656  51.738   7.380
   10AU     AUC 3470  31.682  51.767   7.705
   10AU     AUC 3471  31.765  51.983   7.513
   10AU     AUC 3472  32.112  51.995   7.516
   10AU     AUC 3473  31.747  51.476   7.543
   10AU     AUC 3474  32.078  51.454   7.545
   10AU     AUC 3475  31.920  51.570   7.798
   10AU     AUC 3476  31.939  51.910   7.779
   10AU     AUC 3477  31.913  51.557   7.287
   10AU     AUC 3478  31.933  51.863   7.271
   10AU     AUC 3479  32.481  51.726   7.204
   10AU     AUC 3480  32.489  51.706   7.545
   10AU     AUC 3481  32.447  51.693   7.899
   10AU     AUC 3482  31.354  51.712   7.228
   10AU     AUC 3483  31.353  51.771   7.556
   10AU     AUC 3484  31.382  51.810   7.888
   10AU     AUC 3485  31.600  52.296   7.474
   10AU     AUC 3486  31.960  52.270   7.457
   10AU     AUC 3487  32.326  52.258   7.487
   10AU     AUC 3488  31.543  51.187   7.548
   10AU     AUC 3489  31.894  51.163   7.529
   10AU     AUC 3490  32.250  51.152   7.546
   10AU     AUC 3491  31.879  51.404   8.101
   10AU     AUC 3492  31.916  51.746   8.101
   10AU     AUC 3493  31.973  52.110   8.062
   10AU     AUC 3494  31.944  51.367   6.997
   10AU     AUC 3495  31.892  51.708   6.973
   10AU     AUC 3496  31.889  52.031   6.957
   10AU     AUC 3497  32.161  51.508   8.012
   10AU     AUC 3498  32.217  51.884   7.987
   10AU     AUC 3499  32.216  51.570   7.072
   10AU     AUC 3500  32.181  51.882   7.079
   10AU     AUC 3501  31.627  51.628   8.000
   10AU     AUC 3502  31.674  51.978   7.971
   10AU     AUC 3503  31.638  51.527   7.103
   10AU     AUC 3504  31.592  51.855   7.083
   10AU     AUC 3505  32.419  51.998   7.346
   10AU     AUC 3506  32.385  51.995   7.705
   10AU     AUC 3507  31.460  52.010   7.383
   10AU     AUC 3508  31.505  52.076   7.713
   10AU     AUC 3509  32.382  51.447   7.407
   10AU     AUC 3510  32.330  51.401   7.739
   10AU     AUC 3511  31.461  51.424   7.373
   10AU     AUC 3512  31.487  51.498   7.716
   10AU     AUC 3513  31.825  52.228   7.782
   10AU     AUC 3514  32.164  52.183   7.793
   10AU     AUC 3515  31.712  51.295   7.817
   10AU     AUC 3516  32.030  51.242   7.809
   10AU     AUC 3517  31.735  52.161   7.215
   10AU     AUC 3518  32.100  52.177   7.226
   10AU     AUC 3519  31.766  51.263   7.258
   10AU     AUC 3520  32.126  51.308   7.274
   10AU    AUSL 3521  32.425  51.598   8.316
   10AU    AUSL 3522  32.175  51.225   8.222
   10AU     AUL 3523  32.482  51.226   8.389
   10AU    AUSL 3524  32.010  51.540   8.460
   10AU    AUSL 3525  31.772  51.949   8.451
   10AU     AUL 3526  32.008  51.824   8.710
   10AU    AUSL 3527  32.109  51.897   8.204
   10AU    AUSL 3528  32.560  51.956   8.126
   10AU     AUL 3529  32.378  51.921   8.435
   10AU    AUSL 3530  32.333  51.758   6.840
   10AU    AUSL 3531  32.194  52.154   6.981
   10AU     AUL 3532  32.408  52.086   6.681
   10AU    AUSL 3533  32.145  51.436   6.612
   10AU    AUSL 3534  32.652  51.506   6.982
   10AU     AUL 3535  32.520  51.580   6.665
   10AU    AUSL 3536  31.977  51.940   6.670
   10AU    AUSL 3537  31.799  51.554   6.829
   10AU     AUL 3538  31.930  51.633   6.524
   10AU    AUSL 3539  31.388  51.911   8.243
   10AU    AUSL 3540  31.751  52.220   8.111
   10AU     AUL 3541  31.588  52.188   8.412
   10AU    AUSL 3542  31.689  51.598   8.191
   10AU    AUSL 3543  31.240  51.521   8.105
   10AU     AUL 3544  31.297  51.610   8.341
   10AU    AUSL 3545  31.363  51.536   6.795
   10AU    AUSL 3546  31.612  51.186   6.947
   10AU     AUL 3547  31.636  51.272   6.641
   10AU    AUSL 3548  31.549  51.904   6.675
   10AU    AUSL 3549  31.269  51.885   7.050
   10AU     AUL 3550  31.152  51.766   6.776
   10AU    AUSL 3551  32.717  52.193   7.476
   10AU    AUSL 3552  32.592  51.983   7.096
   10AU     AUL 3553  32.887  52.188   7.128
   10AU    AUSL 3554  32.882  51.797   7.367
   10AU    AUSL 3555  32.831  51.499   7.768
   10AU     AUL 3556  33.093  51.583   7.571
   10AU    AUSL 3557  32.604  51.852   7.718
   10AU    AUSL 3558  32.562  52.296   7.853
   10AU     AUL 3559  32.810  52.036   7.878
   10AU    AUSL 3560  31.351  52.373   7.522
   10AU    AUSL 3561  31.388  52.125   7.878
   10AU     AUL 3562  31.079  52.370   7.745
   10AU    AUSL 3563  31.150  51.994   7.444
   10AU    AUSL 3564  31.303  52.310   7.106
   10AU     AUL 3565  31.067  52.235   7.263
   10AU    AUSL 3566  31.023  51.916   7.888
   10AU    AUSL 3567  30.990  51.610   7.349
   10AU     AUL 3568  30.868  51.927   7.590
   10AU    AUSL 3569  32.609  51.150   7.615
   10AU    AUSL 3570  32.435  51.433   7.925
   10AU     AUL 3571  32.742  51.339   8.001
   10AU    AUSL 3572  32.567  51.520   7.397
   10AU    AUSL 3573  32.557  51.118   7.188
   10AU     AUL 3574  32.801  51.328   7.250
   10AU    AUSL 3575  31.143  51.231   7.553
   10AU    AUSL 3576  31.354  51.441   7.205
   10AU     AUL 3577  31.004  51.334   7.213
   10AU    AUSL 3578  31.260  51.632   7.694
   10AU    AUSL 3579  31.450  51.248   7.849
   10AU     AUL 3580  31.069  51.401   7.848
   10AU    AUSL 3581  31.992  52.556   7.966
   10AU    AUSL 3582  31.537  52.535   7.878
   10AU     AUL 3583  31.759  52.580   8.194
   10AU    AUSL 3584  31.824  52.411   7.591
   10AU    AUSL 3585  32.075  52.544   7.247
   10AU     AUL 3586  31.844  52.751   7.554
   10AU    AUSL 3587  32.262  52.487   7.623
   10AU    AUSL 3588  32.256  52.286   8.153
   10AU     AUL 3589  32.375  52.576   7.941
   10AU    AUSL 3590  31.850  51.090   7.970
   10AU    AUSL 3591  32.274  51.031   7.849
   10AU     AUL 3592  32.035  50.969   8.223
   10AU    AUSL 3593  31.542  50.868   7.699
   10AU    AUSL 3594  31.570  51.205   8.274
   10AU     AUL 3595  31.578  50.907   8.050
   10AU    AUSL 3596  31.974  50.793   7.667
   10AU    AUSL 3597  31.767  51.038   7.362
   10AU     AUL 3598  31.650  50.693   7.487
   10AU    AUSL 3599  31.902  52.429   6.843
   10AU    AUSL 3600  32.474  52.407   7.199
   10AU     AUL 3601  32.218  52.517   6.936
   10AU    AUSL 3602  31.653  52.523   7.210
   10AU    AUSL 3603  31.676  52.112   7.014
   10AU     AUL 3604  31.583  52.418   6.856
   10AU    AUSL 3605  31.992  50.986   6.981
   10AU    AUSL 3606  31.359  51.000   7.258
   10AU     AUL 3607  31.655  50.852   7.043
   10AU    AUSL 3608  32.199  51.010   7.381
   10AU    AUSL 3609  32.222  51.343   7.018
   10AU     AUL 3610  32.316  50.970   7.050
   10AU       S 3611  32.447  50.775   8.227
   10AU     LIG 3612  32.494  50.541   8.352
   10AU     LIG 3613  32.616  50.381   8.479
   10AU     LIG 3614  32.774  50.204   8.590
   10AU       S 3615  32.481  51.565   8.719
   10AU     LIG 3616  32.644  51.623   8.921
   10AU     LIG 3617  32.734  51.679   9.146
   10AU     LIG 3618  32.840  51.646   9.383
   10AU       S 3619  32.159  51.372   8.725
   10AU     LIG 3620  32.215  51.278   9.005
   10AU     LIG 3621  32.381  51.294   9.203
   10AU     LIG 3622  32.515  51.249   9.419
   10AU       S 3623  31.534  51.862   8.757
   10AU     LIG 3624  31.497  51.886   9.059
   10AU     LIG 3625  31.379  51.871   9.261
   10AU     LIG 3626  31.231  51.848   9.479
   10AU       S 3627  32.059  52.296   8.566
   10AU     LIG 3628  32.176  52.433   8.771
   10AU     LIG 3629  32.389  52.353   8.933
   10AU     LIG 3630  32.612  52.227   8.947
   10AU       S 3631  32.751  52.188   8.334
   10AU     LIG 3632  32.934  52.228   8.555
   10AU     LIG 3633  33.074  52.385   8.669
   10AU     LIG 3634  33.250  52.561   8.744
   10AU       S 3635  32.352  51.817   6.306
   10AU     LIG 3636  32.567  51.872   6.093
   10AU     LIG 3637  32.701  51.706   5.955
   10AU     LIG 3638  32.761  51.515   5.795
   10AU       S 3639  32.567  52.517   6.652
   10AU     LIG 3640  32.613  52.710   6.462
   10AU     LIG 3641  32.776  52.800   6.288
   10AU     LIG 3642  32.941  52.891   6.123
   10AU       S 3643  32.827  51.228   6.768
   10AU     LIG 3644  32.989  51.141   6.527
   10AU     LIG 3645  33.003  50.922   6.388
   10AU     LIG 3646  33.019  50.667   6.348
   10AU       S 3647  32.273  51.522   6.240
   10AU     LIG 3648  32.295  51.398   6.011
   10AU     LIG 3649  32.282  51.325   5.771
   10AU     LIG 3650  32.353  51.305   5.521
   10AU       S 3651  31.539  51.582   6.303
   10AU     LIG 3652  31.594  51.549   6.024
   10AU     LIG 3653  31.600  51.495   5.795
   10AU     LIG 3654  31.524  51.454   5.540
   10AU       S 3655  32.109  51.963   6.264
   10AU     LIG 3656  32.010  51.897   5.973
   10AU     LIG 3657  32.152  51.822   5.780
   10AU     LIG 3658  32.345  51.814   5.607
   10AU       S 3659  31.258  51.950   8.643
   10AU     LIG 3660  31.047  51.925   8.819
   10AU     LIG 3661  30.993  51.709   8.977
   10AU     LIG 3662  30.923  51.577   9.166
   10AU       S 3663  31.289  52.508   8.268
   10AU     LIG 3664  31.203  52.663   8.501
   10AU     LIG 3665  31.062  52.674   8.694
   10AU     LIG 3666  30.893  52.763   8.877
   10AU       S 3667  31.012  51.242   8.284
   10AU     LIG 3668  30.766  51.173   8.381
   10AU     LIG 3669  30.621  50.981   8.457
   10AU     LIG 3670  30.494  50.799   8.575
   10AU       S 3671  31.583  51.570   8.684
   10AU     LIG 3672  31.506  51.394   8.887
   10AU     LIG 3673  31.393  51.374   9.105
   10AU     LIG 3674  31.348  51.360   9.361
   10AU       S 3675  31.277  51.494   6.418
   10AU     LIG 3676  31.098  51.424   6.208
   10AU     LIG 3677  31.087  51.495   5.957
   10AU     LIG 3678  31.075  51.605   5.737
   10AU       S 3679  31.311  50.946   6.745
   10AU     LIG 3680  31.237  50.759   6.540
   10AU     LIG 3681  31.079  50.717   6.354
   10AU     LIG 3682  30.895  50.668   6.184
   10AU       S 3683  30.941  52.172   6.798
   10AU     LIG 3684  30.734  52.341   6.744
   10AU     LIG 3685  30.682  52.540   6.588
   10AU     LIG 3686  30.658  52.663   6.367
   10AU       S 3687  31.439  51.850   6.393
   10AU     LIG 3688  31.272  51.951   6.139
   10AU     LIG 3689  31.355  51.988   5.913
   10AU     LIG 3690  31.463  51.968   5.679
   10AU       S 3691  32.798  52.331   6.708
   10AU     LIG 3692  33.013  52.377   6.537
   10AU     LIG 3693  33.170  52.489   6.389
   10AU     LIG 3694  33.351  52.608   6.245
   10AU       S 3695  33.050  52.307   7.556
   10AU     LIG 3696  33.263  52.511   7.540
   10AU     LIG 3697  33.507  52.555   7.511
   10AU     LIG 3698  33.760  52.618   7.532
   10AU       S 3699  33.226  52.008   7.388
   10AU     LIG 3700  33.495  52.079   7.293
   10AU     LIG 3701  33.735  52.145   7.306
   10AU     LIG 3702  33.957  52.259   7.226
   10AU       S 3703  33.090  51.129   7.790
   10AU     LIG 3704  33.325  51.027   7.920
   10AU     LIG 3705  33.578  51.022   7.859
   10AU     LIG 3706  33.827  50.990   7.780
   10AU       S 3707  32.787  52.436   8.127
   10AU     LIG 3708  32.982  52.613   8.210
   10AU     LIG 3709  33.027  52.812   8.357
   10AU     LIG 3710  33.046  52.991   8.540
   10AU       S 3711  33.197  52.040   7.663
   10AU     LIG 3712  33.435  52.111   7.814
   10AU     LIG 3713  33.672  52.178   7.811
   10AU     LIG 3714  33.902  52.268   7.878
   10AU       S 3715  31.123  52.285   8.203
   10AU     LIG 3716  30.884  52.277   8.380
   10AU     LIG 3717  30.698  52.416   8.444
   10AU     LIG 3718  30.522  52.535   8.594
   10AU       S 3719  31.290  52.709   7.463
   10AU     LIG 3720  31.130  52.917   7.335
   10AU     LIG 3721  30.884  52.897   7.239
   10AU     LIG 3722  30.696  52.740   7.123
   10AU       S 3723  30.726  51.928   7.139
   10AU     LIG 3724  30.488  51.933   7.071
   10AU     LIG 3725  30.233  52.009   7.141
   10AU     LIG 3726  30.088  52.222   7.163
   10AU       S 3727  31.156  52.582   6.929
   10AU     LIG 3728  31.083  52.790   6.787
   10AU     LIG 3729  30.941  52.969   6.702
   10AU     LIG 3730  30.810  53.124   6.537
   10AU       S 3731  30.637  51.524   7.449
   10AU     LIG 3732  30.360  51.514   7.337
   10AU     LIG 3733  30.117  51.496   7.332
   10AU     LIG 3734  29.883  51.375   7.284
   10AU       S 3735  30.828  51.843   8.097
   10AU     LIG 3736  30.515  51.947   8.182
   10AU     LIG 3737  30.398  52.159   8.094
   10AU     LIG 3738  30.218  52.306   7.968
   10AU       S 3739  32.820  50.959   7.606
   10AU     LIG 3740  32.954  50.657   7.622
   10AU     LIG 3741  33.182  50.591   7.697
   10AU     LIG 3742  33.453  50.577   7.655
   10AU       S 3743  32.664  50.898   8.066
   10AU     LIG 3744  32.911  50.762   8.105
   10AU     LIG 3745  33.041  50.674   8.287
   10AU     LIG 3746  33.088  50.604   8.537
   10AU       S 3747  33.077  51.109   7.519
   10AU     LIG 3748  33.300  50.987   7.383
   10AU     LIG 3749  33.541  50.988   7.343
   10AU     LIG 3750  33.782  50.916   7.280
   10AU       S 3751  32.769  50.966   6.925
   10AU     LIG 3752  32.834  50.706   6.822
   10AU     LIG 3753  32.707  50.483   6.774
   10AU     LIG 3754  32.666  50.264   6.659
   10AU       S 3755  31.134  51.141   6.817
   10AU     LIG 3756  30.901  51.151   6.620
   10AU     LIG 3757  30.724  51.034   6.527
   10AU     LIG 3758  30.518  50.876   6.465
   10AU       S 3759  30.719  51.233   7.583
   10AU     LIG 3760  30.502  51.067   7.588
   10AU     LIG 3761  30.275  51.019   7.482
   10AU     LIG 3762  30.042  50.915   7.441
   10AU       S 3763  31.131  51.012   8.082
   10AU     LIG 3764  30.955  50.804   8.068
   10AU     LIG 3765  30.835  50.618   8.174
   10AU     LIG 3766  30.702  50.432   8.287
   10AU       S 3767  30.661  51.528   7.713
   10AU     LIG 3768  30.427  51.500   7.888
   10AU     LIG 3769  30.188  51.408   7.835
   10AU     LIG 3770  29.979  51.273   7.809
   10AU       S 3771  31.330  52.727   7.989
   10AU     LIG 3772  31.095  52.916   8.062
   10AU     LIG 3773  30.870  52.879   8.206
   10AU     LIG 3774  30.738  52.956   8.412
   10AU       S 3775  32.073  52.913   8.053
   10AU     LIG 3776  32.184  53.100   8.255
   10AU     LIG 3777  32.072  53.290   8.380
   10AU     LIG 3778  31.927  53.491   8.444
   10AU       S 3779  31.835  53.048   7.925
   10AU     LIG 3780  31.746  53.273   7.968
   10AU     LIG 3781  31.720  53.532   7.984
   10AU     LIG 3782  31.729  53.783   8.012
   10AU       S 3783  32.000  52.891   7.131
   10AU     LIG 3784  32.066  53.160   7.146
   10AU     LIG 3785  32.100  53.392   7.130
   10AU     LIG 3786  32.163  53.635   7.042
   10AU       S 3787  32.510  52.403   8.364
   10AU     LIG 3788  32.585  52.622   8.543
   10AU     LIG 3789  32.686  52.703   8.736
   10AU     LIG 3790  32.812  52.721   8.967
   10AU       S 3791  32.212  52.964   7.734
   10AU     LIG 3792  32.244  53.237   7.718
   10AU     LIG 3793  32.219  53.447   7.875
   10AU     LIG 3794  32.231  53.631   8.040
   10AU       S 3795  31.933  50.554   8.062
   10AU     LIG 3796  32.052  50.348   8.213
   10AU     LIG 3797  32.040  50.141   8.334
   10AU     LIG 3798  32.021  49.904   8.434
   10AU       S 3799  32.416  50.787   7.902
   10AU     LIG 3800  32.520  50.483   7.827
   10AU     LIG 3801  32.680  50.349   7.925
   10AU     LIG 3802  32.892  50.249   8.057
   10AU       S 3803  31.681  50.468   7.896
   10AU     LIG 3804  31.632  50.201   7.918
   10AU     LIG 3805  31.654  49.983   8.033
   10AU     LIG 3806  31.644  49.745   8.129
   10AU       S 3807  31.275  51.094   8.386
   10AU     LIG 3808  31.148  50.876   8.570
   10AU     LIG 3809  31.011  50.702   8.640
   10AU     LIG 3810  30.874  50.508   8.762
   10AU       S 3811  31.999  50.564   7.221
   10AU     LIG 3812  31.938  50.236   7.210
   10AU     LIG 3813  31.923  50.040   7.090
   10AU     LIG 3814  31.923  49.773   7.027
   10AU       S 3815  32.013  50.517   7.758
   10AU     LIG 3816  32.113  50.215   7.712
   10AU     LIG 3817  32.126  50.018   7.838
   10AU     LIG 3818  32.120  49.772   7.941
   10AU       S 3819  31.852  52.811   6.835
   10AU     LIG 3820  31.858  53.040   6.681
   10AU     LIG 3821  31.981  53.256   6.641
   10AU     LIG 3822  32.047  53.490   6.564
   10AU       S 3823  32.691  52.587   6.958
   10AU     LIG 3824  32.889  52.791   6.901
   10AU     LIG 3825  33.048  52.865   6.721
   10AU     LIG 3826  33.196  52.987   6.558
   10AU       S 3827  31.649  52.832   7.112
   10AU     LIG 3828  31.537  53.110   7.085
   10AU     LIG 3829  31.594  53.336   6.998
   10AU     LIG 3830  31.668  53.561   6.907
   10AU       S 3831  31.211  52.242   6.654
   10AU     LIG 3832  31.151  52.377   6.415
   10AU     LIG 3833  31.161  52.607   6.319
   10AU     LIG 3834  31.134  52.846   6.239
   10AU       S 3835  31.156  50.910   7.029
   10AU     LIG 3836  30.899  50.737   6.950
   10AU     LIG 3837  30.812  50.595   6.784
   10AU     LIG 3838  30.726  50.422   6.606
   10AU       S 3839  32.069  50.603   6.941
   10AU     LIG 3840  32.186  50.424   6.769
   10AU     LIG 3841  32.159  50.214   6.646
   10AU     LIG 3842  32.083  49.976   6.582
   10AU       S 3843  32.262  50.604   7.324
   10AU     LIG 3844  32.426  50.363   7.293
   10AU     LIG 3845  32.433  50.157   7.128
   10AU     LIG 3846  32.418  49.940   6.984
   10AU       S 3847  32.523  51.113   6.673
   10AU     LIG 3848  32.509  50.935   6.470
   10AU     LIG 3849  32.499  50.707   6.376
   10AU     LIG 3850  32.550  50.504   6.221
   11POPC   NC3 3851  13.634  33.803   9.464
   11POPC   PO4 3852  13.666  33.846   9.164
   11POPC   GL1 3853  13.670  33.847   8.864
   11POPC   GL2 3854  13.564  33.794   8.864
   11POPC   C1A 3855  13.601  33.835   8.564
   11POPC   D2A 3856  13.634  33.824   8.264
   11POPC   C3A 3857  13.583  33.815   7.964
   11POPC   C4A 3858  13.583  33.820   7.664
   11POPC   C1B 3859  13.369  33.720   8.564
   11POPC   C2B 3860  13.377  33.713   8.264
   11POPC   C3B 3861  13.430  33.707   7.964
   11POPC   C4B 3862  13.415  33.674   7.664
   12POPC   NC3 3863  16.692   6.686   9.464
   12POPC   PO4 3864  16.759   6.617   9.164
   12POPC   GL1 3865  16.749   6.631   8.864
   12POPC   GL2 3866  16.629   6.691   8.864
   12POPC   C1A 3867  16.685   6.692   8.564
   12POPC   D2A 3868  16.713   6.674   8.264
   12POPC   C3A 3869  16.696   6.637   7.964
   12POPC   C4A 3870  16.777   6.622   7.664
   12POPC   C1B 3871  16.447   6.656   8.564
   12POPC   C2B 3872  16.456   6.720   8.264
   12POPC   C3B 3873  16.474   6.686   7.964
   12POPC   C4B 3874  16.475   6.685   7.664
   13POPC   NC3 3875  24.442   4.360   9.464
   13POPC   PO4 3876  24.449   4.326   9.164
   13POPC   GL1 3877  24.528   4.305   8.864
   13POPC   GL2 3878  24.528   4.411   8.864
   13POPC   C1A 3879  24.490   4.282   8.564
   13POPC   D2A 3880  24.535   4.366   8.264
   13POPC   C3A 3881  24.502   4.278   7.964
   13POPC   C4A 3882  24.480   4.282   7.664
   13POPC   C1B 3883  24.622   4.555   8.564
   13POPC   C2B 3884  24.587   4.600   8.264
   13POPC   C3B 3885  24.558   4.567   7.964
   13POPC   C4B 3886  24.616   4.528   7.664
   14POPC   NC3 3887  43.907  29.890   9.464
   14POPC   PO4 3888  43.857  29.875   9.164
   14POPC   GL1 3889  43.880  29.894   8.864
   14POPC   GL2 3890  43.814  30.017   8.864
   14POPC   C1A 3891  43.924  29.924   8.564
   14POPC   D2A 3892  43.842  29.944   8.264
   14POPC   C3A 3893  43.907  29.923   7.964
   14POPC   C4A 3894  43.839  29.877   7.664
   14POPC   C1B 3895  43.731  30.080   8.564
   14POPC   C2B 3896  43.705  30.089   8.264
   14POPC   C3B 3897  43.721  30.047   7.964
   14POPC   C4B 3898  43.728  30.113   7.664
   15POPC   NC3 3899   9.013  39.246   9.464
   15POPC   PO4 3900   8.986  39.217   9.164
   15POPC   GL1 3901   8.959  39.268   8.864
   15POPC   GL2 3902   9.050  39.357   8.864
   15POPC   C1A 3903   8.936  39.252   8.564
   15POPC   D2A 3904   8.948  39.249   8.264
   15POPC   C3A 3905   8.928  39.212   7.964
   15POPC   C4A 3906   8.938  39.281   7.664
   15POPC   C1B 3907   9.007  39.444   8.564
   15POPC   C2B 3908   9.069  39.424   8.264
   15POPC   C3B 3909   9.067  39.513   7.964
   15POPC   C4B 3910   9.088  39.491   7.664
   16POPC   NC3 3911  19.023  44.633   9.464
   16POPC   PO4 3912  19.022  44.667   9.164
   16POPC   GL1 3913  19.076  44.698   8.864
   16POPC   GL2 3914  19.027  44.801   8.864
   16POPC   C1A 3915  19.100  44.636   8.564
   16POPC   D2A 3916  19.074  44.702   8.264
   16POPC   C3A 3917  19.061  44.701   7.964
   16POPC   C4A 3918  19.080  44.682   7.664
   16POPC   C1B 3919  19.072  44.898   8.564
   16POPC   C2B 3920  19.033  44.930   8.264
   16POPC   C3B 3921  19.020  44.923   7.964
   16POPC   C4B 3922  19.103  44.897   7.664
   17POPC   NC3 3923  34.562  42.330   9.464
   17POPC   PO4 3924  34.565  42.320   9.164
   17POPC   GL1 3925  34.532  42.345   8.864
   17POPC   GL2 3926  34.486  42.324   8.864
   17POPC   C1A 3927  34.559  42.296   8.564
   17POPC   D2A 3928  34.575  42.330   8.264
   17POPC   C3A 3929  34.595  42.353   7.964
   17POPC   C4A 3930  34.547  42.355   7.664
   17POPC   C1B 3931  34.386  42.432   8.564
   17POPC   C2B 3932  34.351  42.431   8.264
   17POPC   C3B 3933  34.327  42.368   7.964
   17POPC   C4B 3934  34.363  42.386   7.664
   18POPC   NC3 3935  31.472  32.285   9.464
   18POPC   PO4 3936  31.508  32.207   9.164
   18POPC   GL1 3937  31.509  32.206   8.864
   18POPC   GL2 3938  31.365  32.200   8.864
   18POPC   C1A 3939  31.471  32.289   8.564
   18POPC   D2A 3940  31.451  32.285   8.264
   18POPC   C3A 3941  31.497  32.237   7.964
   18POPC   C4A 3942  31.497  32.257   7.664
   18POPC   C1B 3943  31.268  32.143   8.564
   18POPC   C2B 3944  31.212  32.153   8.264
   18POPC   C3B 3945  31.242  32.137   7.964
   18POPC   C4B 3946  31.266  32.186   7.664
   19POPC   NC3 3947  32.245  23.745   9.464
   19POPC   PO4 3948  32.280  23.669   9.164
   19POPC   GL1 3949  32.293  23.693   8.864
   19POPC   GL2 3950  32.178  23.638   8.864
   19POPC   C1A 3951  32.243  23.684   8.564
   19POPC   D2A 3952  32.270  23.670   8.264
   19POPC   C3A 3953  32.244  23.739   7.964
   19POPC   C4A 3954  32.199  23.678   7.664
   19POPC   C1B 3955  32.234  23.464   8.564
   19POPC   C2B 3956  32.204  23.490   8.264
   19POPC   C3B 3957  32.238  23.518   7.964
   19POPC   C4B 3958  32.241  23.497   7.664
   20POPC   NC3 3959  21.427  16.696   9.464
   20POPC   PO4 3960  21.409  16.723   9.164
   20POPC   GL1 3961  21.404  16.737   8.864
   20POPC   GL2 3962  21.427  16.670   8.864
   20POPC   C1A 3963  21.357  16.737   8.564
   20POPC   D2A 3964  21.380  16.760   8.264
   20POPC   C3A 3965  21.377  16.739   7.964
   20POPC   C4A 3966  21.358  16.732   7.664
   20POPC   C1B 3967  21.594  16.504   8.564
   20POPC   C2B 3968  21.553  16.557   8.264
   20POPC   C3B 3969  21.606  16.521   7.964
   20POPC   C4B 3970  21.548  16.524   7.664
   21POPC   NC3 3971  19.024   9.747   9.464
   21POPC   PO4 3972  19.015   9.785   9.164
   21POPC   GL1 3973  19.105   9.765   8.864
   21POPC   GL2 3974  19.096   9.828   8.864
   21POPC   C1A 3975  19.011   9.745   8.564
   21POPC   D2A 3976  19.078   9.714   8.264
   21POPC   C3A 3977  19.030   9.755   7.964
   21POPC   C4A 3978  19.010   9.704   7.664
   21POPC   C1B 3979  19.164  10.023   8.564
   21POPC   C2B 3980  19.128   9.971   8.264
   21POPC   C3B 3981  19.124  10.006   7.964
   21POPC   C4B 3982  19.082   9.976   7.664
   22POPC   NC3 3983  33.777  32.294   9.464
   22POPC   PO4 3984  33.797  32.242   9.164
   22POPC   GL1 3985  33.760  32.269   8.864
   22POPC   GL2 3986  33.884  32.215   8.864
   22POPC   C1A 3987  33.760  32.270   8.564
   22POPC   D2A 3988  33.828  32.198   8.264
   22POPC   C3A 3989  33.752  32.295   7.964
   22POPC   C4A 3990  33.817  32.281   7.664
   22POPC   C1B 3991  34.034  32.085   8.564
   22POPC   C2B 3992  33.976  32.122   8.264
   22POPC   C3B 3993  33.948  32.106   7.964
   22POPC   C4B 3994  33.996  32.126   7.664
   23POPC   NC3 3995  41.603   4.275   9.464
   23POPC   PO4 3996  41.549   4.291   9.164
   23POPC   GL1 3997  41.525   4.273   8.864
   23POPC   GL2 3998  41.413   4.278   8.864
   23POPC   C1A 3999  41.509   4.354   8.564
   23POPC   D2A 4000  41.536   4.272   8.264
   23POPC   C3A 4001  41.525   4.324   7.964
   23POPC   C4A 4002  41.513   4.345   7.664
   23POPC   C1B 4003  41.333   4.244   8.564
   23POPC   C2B 4004  41.310   4.159   8.264
   23POPC   C3B 4005  41.312   4.207   7.964
   23POPC   C4B 4006  41.387   4.160   7.664
   24POPC   NC3 4007   1.178  40.818   9.464
   24POPC   PO4 4008   1.228  40.761   9.164
   24POPC   GL1 4009   1.201  40.766   8.864
   24POPC   GL2 4010   1.242  40.639   8.864
   24POPC   C1A 4011   1.184  40.798   8.564
   24POPC   D2A 4012   1.229  40.757   8.264
   24POPC   C3A 4013   1.187  40.778   7.964
   24POPC   C4A 4014   1.260  40.813   7.664
   24POPC   C1B 4015   1.180  40.586   8.564
   24POPC   C2B 4016   1.138  40.490   8.264
   24POPC   C3B 4017   1.143  40.504   7.964
   24POPC   C4B 4018   1.186  40.498   7.664
   25POPC   NC3 4019  17.543  36.918   9.464
   25POPC   PO4 4020  17.495  36.855   9.164
   25POPC   GL1 4021  17.533  36.920   8.864
   25POPC   GL2 4022  17.408  36.875   8.864
   25POPC   C1A 4023  17.490  36.881   8.564
   25POPC   D2A 4024  17.549  36.885   8.264
   25POPC   C3A 4025  17.469  36.887   7.964
   25POPC   C4A 4026  17.524  36.891   7.664
   25POPC   C1B 4027  17.221  36.911   8.564
   25POPC   C2B 4028  17.284  36.984   8.264
   25POPC   C3B 4029  17.246  36.934   7.964
   25POPC   C4B 4030  17.258  36.970   7.664
   26POPC   NC3 4031  19.041   0.438   9.464
   26POPC   PO4 4032  19.031   0.445   9.164
   26POPC   GL1 4033  19.065   0.480   8.864
   26POPC   GL2 4034  18.957   0.587   8.864
   26POPC   C1A 4035  19.011   0.433   8.564
   26POPC   D2A 4036  19.107   0.400   8.264
   26POPC   C3A 4037  19.100   0.424   7.964
   26POPC   C4A 4038  19.101   0.434   7.664
   26POPC   C1B 4039  18.891   0.617   8.564
   26POPC   C2B 4040  18.933   0.638   8.264
   26POPC   C3B 4041  18.933   0.684   7.964
   26POPC   C4B 4042  18.940   0.672   7.664
   27POPC   NC3 4043  25.302  44.660   9.464
   27POPC   PO4 4044  25.235  44.650   9.164
   27POPC   GL1 4045  25.277  44.628   8.864
   27POPC   GL2 4046  25.315  44.533   8.864
   27POPC   C1A 4047  25.297  44.709   8.564
   27POPC   D2A 4048  25.262  44.677   8.264
   27POPC   C3A 4049  25.285  44.619   7.964
   27POPC   C4A 4050  25.228  44.698   7.664
   27POPC   C1B 4051  25.475  44.493   8.564
   27POPC   C2B 4052  25.414  44.433   8.264
   27POPC   C3B 4053  25.387  44.464   7.964
   27POPC   C4B 4054  25.417  44.445   7.664
   28POPC   NC3 4055  21.349  35.341   9.464
   28POPC   PO4 4056  21.373  35.395   9.164
   28POPC   GL1 4057  21.431  35.339   8.864
   28POPC   GL2 4058  21.269  35.382   8.864
   28POPC   C1A 4059  21.380  35.335   8.564
   28POPC   D2A 4060  21.419  35.327   8.264
   28POPC   C3A 4061  21.408  35.330   7.964
   28POPC   C4A 4062  21.407  35.364   7.664
   28POPC   C1B 4063  21.125  35.409   8.564
   28POPC   C2B 4064  21.106  35.401   8.264
   28POPC   C3B 4065  21.102  35.344   7.964
   28POPC   C4B 4066  21.151  35.405   7.664
   29POPC   NC3 4067  37.687  43.103   9.464
   29POPC   PO4 4068  37.707  43.157   9.164
   29POPC   GL1 4069  37.657  43.121   8.864
   29POPC   GL2 4070  37.581  43.000   8.864
   29POPC   C1A 4071  37.719  43.062   8.564
   29POPC   D2A 4072  37.674  43.079   8.264
   29POPC   C3A 4073  37.650  43.118   7.964
   29POPC   C4A 4074  37.647  43.145   7.664
   29POPC   C1B 4075  37.527  42.994   8.564
   29POPC   C2B 4076  37.475  43.002   8.264
   29POPC   C3B 4077  37.486  42.987   7.964
   29POPC   C4B 4078  37.519  42.918   7.664
   30POPC   NC3 4079  12.096  34.584   9.464
   30POPC   PO4 4080  12.062  34.616   9.164
   30POPC   GL1 4081  12.082  34.598   8.864
   30POPC   GL2 4082  11.949  34.570   8.864
   30POPC   C1A 4083  12.121  34.537   8.564
   30POPC   D2A 4084  12.057  34.551   8.264
   30POPC   C3A 4085  12.050  34.604   7.964
   30POPC   C4A 4086  12.064  34.600   7.664
   30POPC   C1B 4087  11.816  34.590   8.564
   30POPC   C2B 4088  11.816  34.545   8.264
   30POPC   C3B 4089  11.871  34.578   7.964
   30POPC   C4B 4090  11.846  34.615   7.664
   31POPC   NC3 4091   0.460   9.754   9.464
   31POPC   PO4 4092   0.450   9.709   9.164
   31POPC   GL1 4093   0.458   9.737   8.864
   31POPC   GL2 4094   0.511   9.859   8.864
   31POPC   C1A 4095   0.483   9.756   8.564
   31POPC   D2A 4096   0.470   9.747   8.264
   31POPC   C3A 4097   0.405   9.778   7.964
   31POPC   C4A 4098   0.483   9.731   7.664
   31POPC   C1B 4099   0.540   9.946   8.564
   31POPC   C2B 4100   0.502  10.005   8.264
   31POPC   C3B 4101   0.527   9.942   7.964
   31POPC   C4B 4102   0.525  10.008   7.664
   32POPC   NC3 4103   9.021   9.793   9.464
   32POPC   PO4 4104   9.020   9.750   9.164
   32POPC   GL1 4105   9.011   9.713   8.864
   32POPC   GL2 4106   9.072   9.697   8.864
   32POPC   C1A 4107   8.995   9.776   8.564
   32POPC   D2A 4108   8.990   9.736   8.264
   32POPC   C3A 4109   9.011   9.782   7.964
   32POPC   C4A 4110   8.943   9.726   7.664
   32POPC   C1B 4111   9.146   9.552   8.564
   32POPC   C2B 4112   9.124   9.551   8.264
   32POPC   C3B 4113   9.176   9.605   7.964
   32POPC   C4B 4114   9.104   9.523   7.664
   33POPC   NC3 4115  39.982  31.483   9.464
   33POPC   PO4 4116  40.031  31.450   9.164
   33POPC   GL1 4117  40.042  31.500   8.864
   33POPC   GL2 4118  39.993  31.593   8.864
   33POPC   C1A 4119  39.969  31.496   8.564
   33POPC   D2A 4120  39.978  31.444   8.264
   33POPC   C3A 4121  40.011  31.449   7.964
   33POPC   C4A 4122  40.051  31.436   7.664
   33POPC   C1B 4123  39.961  31.742   8.564
   33POPC   C2B 4124  40.000  31.674   8.264
   33POPC   C3B 4125  40.017  31.762   7.964
   33POPC   C4B 4126  39.943  31.704   7.664
   34POPC   NC3 4127   7.402  43.120   9.464
   34POPC   PO4 4128   7.404  43.079   9.164
   34POPC   GL1 4129   7.465  43.065   8.864
   34POPC   GL2 4130   7.271  43.149   8.864
   34POPC   C1A 4131   7.465  43.092   8.564
   34POPC   D2A 4132   7.435  43.090   8.264
   34POPC   C3A 4133   7.461  43.107   7.964
   34POPC   C4A 4134   7.387  43.098   7.664
   34POPC   C1B 4135   7.208  43.236   8.564
   34POPC   C2B 4136   7.216  43.214   8.264
   34POPC   C3B 4137   7.152  43.162   7.964
   34POPC   C4B 4138   7.223  43.247   7.664
   35POPC   NC3 4139  37.668  12.097   9.464
   35POPC   PO4 4140  37.704  12.120   9.164
   35POPC   GL1 4141  37.702  12.089   8.864
   35POPC   GL2 4142  37.544  12.015   8.864
   35POPC   C1A 4143  37.672  12.113   8.564
   35POPC   D2A 4144  37.657  12.028   8.264
   35POPC   C3A 4145  37.696  12.114   7.964
   35POPC   C4A 4146  37.715  12.091   7.664
   35POPC   C1B 4147  37.494  11.965   8.564
   35POPC   C2B 4148  37.437  11.936   8.264
   35POPC   C3B 4149  37.468  12.004   7.964
   35POPC   C4B 4150  37.434  11.924   7.664
   36POPC   NC3 4151  40.045   6.640   9.464
   36POPC   PO4 4152  39.995   6.677   9.164
   36POPC   GL1 4153  39.987   6.674   8.864
   36POPC   GL2 4154  40.058   6.750   8.864
   36POPC   C1A 4155  40.039   6.596   8.564
   36POPC   D2A 4156  40.012   6.612   8.264
   36POPC   C3A 4157  39.960   6.620   7.964
   36POPC   C4A 4158  40.018   6.637   7.664
   36POPC   C1B 4159  40.169   6.908   8.564
   36POPC   C2B 4160  40.083   6.872   8.264
   36POPC   C3B 4161  40.094   6.900   7.964
   36POPC   C4B 4162  40.168   6.831   7.664
   37POPC   NC3 4163  31.495   0.390   9.464
   37POPC   PO4 4164  31.476   0.463   9.164
   37POPC   GL1 4165  31.427   0.388   8.864
   37POPC   GL2 4166  31.402   0.335   8.864
   37POPC   C1A 4167  31.501   0.400   8.564
   37POPC   D2A 4168  31.490   0.428   8.264
   37POPC   C3A 4169  31.506   0.482   7.964
   37POPC   C4A 4170  31.461   0.409   7.664
   37POPC   C1B 4171  31.353   0.183   8.564
   37POPC   C2B 4172  31.387   0.196   8.264
   37POPC   C3B 4173  31.363   0.151   7.964
   37POPC   C4B 4174  31.416   0.238   7.664
   38POPC   NC3 4175  29.138  14.410   9.464
   38POPC   PO4 4176  29.105  14.433   9.164
   38POPC   GL1 4177  29.139  14.436   8.864
   38POPC   GL2 4178  29.111  14.566   8.864
   38POPC   C1A 4179  29.151  14.413   8.564
   38POPC   D2A 4180  29.195  14.354   8.264
   38POPC   C3A 4181  29.160  14.366   7.964
   38POPC   C4A 4182  29.127  14.453   7.664
   38POPC   C1B 4183  29.123  14.646   8.564
   38POPC   C2B 4184  29.123  14.615   8.264
   38POPC   C3B 4185  29.148  14.643   7.964
   38POPC   C4B 4186  29.137  14.656   7.664
   39POPC   NC3 4187  23.679  15.134   9.464
   39POPC   PO4 4188  23.701  15.164   9.164
   39POPC   GL1 4189  23.681  15.149   8.864
   39POPC   GL2 4190  23.685  15.270   8.864
   39POPC   C1A 4191  23.698  15.173   8.564
   39POPC   D2A 4192  23.715  15.204   8.264
   39POPC   C3A 4193  23.714  15.167   7.964
   39POPC   C4A 4194  23.705  15.183   7.664
   39POPC   C1B 4195  23.673  15.459   8.564
   39POPC   C2B 4196  23.696  15.444   8.264
   39POPC   C3B 4197  23.727  15.418   7.964
   39POPC   C4B 4198  23.703  15.423   7.664
   40POPC   NC3 4199   5.876   4.288   9.464
   40POPC   PO4 4200   5.852   4.305   9.164
   40POPC   GL1 4201   5.833   4.307   8.864
   40POPC   GL2 4202   5.831   4.412   8.864
   40POPC   C1A 4203   5.841   4.320   8.564
   40POPC   D2A 4204   5.826   4.357   8.264
   40POPC   C3A 4205   5.890   4.312   7.964
   40POPC   C4A 4206   5.882   4.284   7.664
   40POPC   C1B 4207   5.791   4.607   8.564
   40POPC   C2B 4208   5.816   4.555   8.264
   40POPC   C3B 4209   5.827   4.562   7.964
   40POPC   C4B 4210   5.797   4.574   7.664
   41POPC   NC3 4211   5.044  19.091   9.464
   41POPC   PO4 4212   5.070  19.077   9.164
   41POPC   GL1 4213   5.066  19.022   8.864
   41POPC   GL2 4214   4.958  19.062   8.864
   41POPC   C1A 4215   5.119  19.038   8.564
   41POPC   D2A 4216   5.113  19.024   8.264
   41POPC   C3A 4217   5.101  19.088   7.964
   41POPC   C4A 4218   5.123  19.017   7.664
   41POPC   C1B 4219   4.831  18.970   8.564
   41POPC   C2B 4220   4.824  19.037   8.264
   41POPC   C3B 4221   4.813  19.034   7.964
   41POPC   C4B 4222   4.896  18.984   7.664
   42POPC   NC3 4223  43.082  38.484   9.464
   42POPC   PO4 4224  43.109  38.482   9.164
   42POPC   GL1 4225  43.108  38.453   8.864
   42POPC   GL2 4226  43.034  38.305   8.864
   42POPC   C1A 4227  43.078  38.485   8.564
   42POPC   D2A 4228  43.080  38.505   8.264
   42POPC   C3A 4229  43.089  38.446   7.964
   42POPC   C4A 4230  43.088  38.445   7.664
   42POPC   C1B 4231  43.091  38.205   8.564
   42POPC   C2B 4232  43.011  38.229   8.264
   42POPC   C3B 4233  43.025  38.207   7.964
   42POPC   C4B 4234  43.012  38.219   7.664
   43POPC   NC3 4235  23.721  32.236   9.464
   43POPC   PO4 4236  23.762  32.215   9.164
   43POPC   GL1 4237  23.701  32.296   8.864
   43POPC   GL2 4238  23.727  32.143   8.864
   43POPC   C1A 4239  23.709  32.199   8.564
   43POPC   D2A 4240  23.747  32.263   8.264
   43POPC   C3A 4241  23.734  32.269   7.964
   43POPC   C4A 4242  23.699  32.259   7.664
   43POPC   C1B 4243  23.778  31.977   8.564
   43POPC   C2B 4244  23.767  31.982   8.264
   43POPC   C3B 4245  23.789  32.048   7.964
   43POPC   C4B 4246  23.748  32.038   7.664
   44POPC   NC3 4247  28.334  13.608   9.464
   44POPC   PO4 4248  28.416  13.592   9.164
   44POPC   GL1 4249  28.363  13.602   8.864
   44POPC   GL2 4250  28.360  13.501   8.864
   44POPC   C1A 4251  28.384  13.669   8.564
   44POPC   D2A 4252  28.357  13.647   8.264
   44POPC   C3A 4253  28.364  13.652   7.964
   44POPC   C4A 4254  28.362  13.656   7.664
   44POPC   C1B 4255  28.307  13.388   8.564
   44POPC   C2B 4256  28.300  13.411   8.264
   44POPC   C3B 4257  28.301  13.337   7.964
   44POPC   C4B 4258  28.293  13.374   7.664
   45POPC   NC3 4259  14.377  40.006   9.464
   45POPC   PO4 4260  14.365  39.996   9.164
   45POPC   GL1 4261  14.383  40.011   8.864
   45POPC   GL2 4262  14.267  39.882   8.864
   45POPC   C1A 4263  14.396  39.992   8.564
   45POPC   D2A 4264  14.383  40.019   8.264
   45POPC   C3A 4265  14.390  39.985   7.964
   45POPC   C4A 4266  14.402  40.001   7.664
   45POPC   C1B 4267  14.267  39.798   8.564
   45POPC   C2B 4268  14.174  39.862   8.264
   45POPC   C3B 4269  14.258  39.875   7.964
   45POPC   C4B 4270  14.190  39.863   7.664
   46POPC   NC3 4271   0.484  43.889   9.464
   46POPC   PO4 4272   0.461  43.905   9.164
   46POPC   GL1 4273   0.397  43.872   8.864
   46POPC   GL2 4274   0.376  43.835   8.864
   46POPC   C1A 4275   0.449  43.936   8.564
   46POPC   D2A 4276   0.406  43.894   8.264
   46POPC   C3A 4277   0.396  43.848   7.964
   46POPC   C4A 4278   0.480  43.893   7.664
   46POPC   C1B 4279   0.272  43.718   8.564
   46POPC   C2B 4280   0.207  43.716   8.264
   46POPC   C3B 4281   0.253  43.691   7.964
   46POPC   C4B 4282   0.256  43.755   7.664
   47POPC   NC3 4283  19.879   5.870   9.464
   47POPC   PO4 4284  19.792   5.827   9.164
   47POPC   GL1 4285  19.873   5.866   8.864
   47POPC   GL2 4286  19.713   5.961   8.864
   47POPC   C1A 4287  19.809   5.867   8.564
   47POPC   D2A 4288  19.872   5.834   8.264
   47POPC   C3A 4289  19.852   5.876   7.964
   47POPC   C4A 4290  19.806   5.840   7.664
   47POPC   C1B 4291  19.597   5.987   8.564
   47POPC   C2B 4292  19.632   6.012   8.264
   47POPC   C3B 4293  19.594   6.012   7.964
   47POPC   C4B 4294  19.632   5.930   7.664
   48POPC   NC3 4295  37.638  40.810   9.464
   48POPC   PO4 4296  37.727  40.738   9.164
   48POPC   GL1 4297  37.696  40.803   8.864
   48POPC   GL2 4298  37.681  40.888   8.864
   48POPC   C1A 4299  37.644  40.773   8.564
   48POPC   D2A 4300  37.669  40.766   8.264
   48POPC   C3A 4301  37.632  40.767   7.964
   48POPC   C4A 4302  37.696  40.770   7.664
   48POPC   C1B 4303  37.710  40.989   8.564
   48POPC   C2B 4304  37.732  41.002   8.264
   48POPC   C3B 4305  37.716  41.000   7.964
   48POPC   C4B 4306  37.688  41.054   7.664
   49POPC   NC3 4307  17.515  37.683   9.464
   49POPC   PO4 4308  17.460  37.652   9.164
   49POPC   GL1 4309  17.478  37.686   8.864
   49POPC   GL2 4310  17.395  37.575   8.864
   49POPC   C1A 4311  17.475  37.706   8.564
   49POPC   D2A 4312  17.522  37.696   8.264
   49POPC   C3A 4313  17.490  37.722   7.964
   49POPC   C4A 4314  17.467  37.716   7.664
   49POPC   C1B 4315  17.335  37.501   8.564
   49POPC   C2B 4316  17.328  37.494   8.264
   49POPC   C3B 4317  17.353  37.477   7.964
   49POPC   C4B 4318  17.333  37.466   7.664
   50POPC   NC3 4319  22.976  42.338   9.464
   50POPC   PO4 4320  22.973  42.363   9.164
   50POPC   GL1 4321  22.935  42.339   8.864
   50POPC   GL2 4322  22.835  42.257   8.864
   50POPC   C1A 4323  22.945  42.382   8.564
   50POPC   D2A 4324  22.907  42.360   8.264
   50POPC   C3A 4325  22.941  42.348   7.964
   50POPC   C4A 4326  22.980  42.366   7.664
   50POPC   C1B 4327  22.725  42.226   8.564
   50POPC   C2B 4328  22.739  42.219   8.264
   50POPC   C3B 4329  22.737  42.207   7.964
   50POPC   C4B 4330  22.683  42.203   7.664
   51POPC   NC3 4331  23.677  35.313   9.464
   51POPC   PO4 4332  23.667  35.343   9.164
   51POPC   GL1 4333  23.724  35.328   8.864
   51POPC   GL2 4334  23.738  35.447   8.864
   51POPC   C1A 4335  23.706  35.346   8.564
   51POPC   D2A 4336  23.674  35.377   8.264
   51POPC   C3A 4337  23.692  35.385   7.964
   51POPC   C4A 4338  23.753  35.389   7.664
   51POPC   C1B 4339  23.790  35.595   8.564
   51POPC   C2B 4340  23.750  35.626   8.264
   51POPC   C3B 4341  23.749  35.598   7.964
   51POPC   C4B 4342  23.803  35.573   7.664
   52POPC   NC3 4343  12.843  15.136   9.464
   52POPC   PO4 4344  12.899  15.177   9.164
   52POPC   GL1 4345  12.823  15.227   8.864
   52POPC   GL2 4346  12.763  15.166   8.864
   52POPC   C1A 4347  12.875  15.220   8.564
   52POPC   D2A 4348  12.885  15.222   8.264
   52POPC   C3A 4349  12.848  15.184   7.964
   52POPC   C4A 4350  12.843  15.199   7.664
   52POPC   C1B 4351  12.566  15.205   8.564
   52POPC   C2B 4352  12.572  15.159   8.264
   52POPC   C3B 4353  12.613  15.120   7.964
   52POPC   C4B 4354  12.583  15.193   7.664
   53POPC   NC3 4355  30.709  15.186   9.464
   53POPC   PO4 4356  30.658  15.165   9.164
   53POPC   GL1 4357  30.686  15.165   8.864
   53POPC   GL2 4358  30.814  15.219   8.864
   53POPC   C1A 4359  30.718  15.167   8.564
   53POPC   D2A 4360  30.658  15.204   8.264
   53POPC   C3A 4361  30.727  15.178   7.964
   53POPC   C4A 4362  30.713  15.196   7.664
   53POPC   C1B 4363  30.987  15.232   8.564
   53POPC   C2B 4364  30.925  15.246   8.264
   53POPC   C3B 4365  30.939  15.254   7.964
   53POPC   C4B 4366  30.990  15.236   7.664
   54POPC   NC3 4367   3.566  27.582   9.464
   54POPC   PO4 4368   3.536  27.632   9.164
   54POPC   GL1 4369   3.586  27.547   8.864
   54POPC   GL2 4370   3.655  27.570   8.864
   54POPC   C1A 4371   3.554  27.580   8.564
   54POPC   D2A 4372   3.588  27.629   8.264
   54POPC   C3A 4373   3.529  27.617   7.964
   54POPC   C4A 4374   3.540  27.625   7.664
   54POPC   C1B 4375   3.750  27.552   8.564
   54POPC   C2B 4376   3.774  27.553   8.264
   54POPC   C3B 4377   3.749  27.574   7.964
   54POPC   C4B 4378   3.797  27.585   7.664
   55POPC   NC3 4379   5.054  20.600   9.464
   55POPC   PO4 4380   5.129  20.645   9.164
   55POPC   GL1 4381   5.076  20.660   8.864
   55POPC   GL2 4382   5.035  20.686   8.864
   55POPC   C1A 4383   5.113  20.635   8.564
   55POPC   D2A 4384   5.117  20.603   8.264
   55POPC   C3A 4385   5.084  20.641   7.964
   55POPC   C4A 4386   5.096  20.597   7.664
   55POPC   C1B 4387   4.869  20.782   8.564
   55POPC   C2B 4388   4.882  20.744   8.264
   55POPC   C3B 4389   4.896  20.759   7.964
   55POPC   C4B 4390   4.902  20.699   7.664
   56POPC   NC3 4391   9.774  28.346   9.464
   56POPC   PO4 4392   9.739  28.419   9.164
   56POPC   GL1 4393   9.798  28.417   8.864
   56POPC   GL2 4394   9.667  28.372   8.864
   56POPC   C1A 4395   9.721  28.407   8.564
   56POPC   D2A 4396   9.748  28.377   8.264
   56POPC   C3A 4397   9.729  28.392   7.964
   56POPC   C4A 4398   9.780  28.330   7.664
   56POPC   C1B 4399   9.492  28.434   8.564
   56POPC   C2B 4400   9.550  28.472   8.264
   56POPC   C3B 4401   9.523  28.445   7.964
   56POPC   C4B 4402   9.477  28.481   7.664
   57POPC   NC3 4403  16.758  32.216   9.464
   57POPC   PO4 4404  16.725  32.259   9.164
   57POPC   GL1 4405  16.731  32.255   8.864
   57POPC   GL2 4406  16.780  32.415   8.864
   57POPC   C1A 4407  16.765  32.205   8.564
   57POPC   D2A 4408  16.776  32.258   8.264
   57POPC   C3A 4409  16.757  32.278   7.964
   57POPC   C4A 4410  16.719  32.291   7.664
   57POPC   C1B 4411  16.789  32.547   8.564
   57POPC   C2B 4412  16.739  32.449   8.264
   57POPC   C3B 4413  16.722  32.542   7.964
   57POPC   C4B 4414  16.719  32.536   7.664
   58POPC   NC3 4415   1.189  22.171   9.464
   58POPC   PO4 4416   1.173  22.189   9.164
   58POPC   GL1 4417   1.175  22.141   8.864
   58POPC   GL2 4418   1.116  22.195   8.864
   58POPC   C1A 4419   1.171  22.147   8.564
   58POPC   D2A 4420   1.251  22.153   8.264
   58POPC   C3A 4421   1.250  22.173   7.964
   58POPC   C4A 4422   1.258  22.131   7.664
   58POPC   C1B 4423   0.999  22.131   8.564
   58POPC   C2B 4424   0.947  22.209   8.264
   58POPC   C3B 4425   0.938  22.172   7.964
   58POPC   C4B 4426   0.978  22.164   7.664
   59POPC   NC3 4427   9.795  29.932   9.464
   59POPC   PO4 4428   9.792  29.895   9.164
   59POPC   GL1 4429   9.729  29.876   8.864
   59POPC   GL2 4430   9.663  29.967   8.864
   59POPC   C1A 4431   9.722  29.951   8.564
   59POPC   D2A 4432   9.739  29.921   8.264
   59POPC   C3A 4433   9.739  29.963   7.964
   59POPC   C4A 4434   9.749  29.928   7.664
   59POPC   C1B 4435   9.499  30.006   8.564
   59POPC   C2B 4436   9.550  30.029   8.264
   59POPC   C3B 4437   9.528  29.960   7.964
   59POPC   C4B 4438   9.505  29.985   7.664
   60POPC   NC3 4439  14.441  23.678   9.464
   60POPC   PO4 4440  14.441  23.700   9.164
   60POPC   GL1 4441  14.394  23.695   8.864
   60POPC   GL2 4442  14.445  23.755   8.864
   60POPC   C1A 4443  14.368  23.686   8.564
   60POPC   D2A 4444  14.391  23.692   8.264
   60POPC   C3A 4445  14.370  23.679   7.964
   60POPC   C4A 4446  14.419  23.715   7.664
   60POPC   C1B 4447  14.576  23.945   8.564
   60POPC   C2B 4448  14.532  23.924   8.264
   60POPC   C3B 4449  14.542  23.889   7.964
   60POPC   C4B 4450  14.532  23.942   7.664
   61POPC   NC3 4451  39.253  26.066   9.464
   61POPC   PO4 4452  39.276  26.053   9.164
   61POPC   GL1 4453  39.215  26.025   8.864
   61POPC   GL2 4454  39.336  26.067   8.864
   61POPC   C1A 4455  39.236  25.992   8.564
   61POPC   D2A 4456  39.207  26.042   8.264
   61POPC   C3A 4457  39.221  26.050   7.964
   61POPC   C4A 4458  39.268  26.086   7.664
   61POPC   C1B 4459  39.475  26.077   8.564
   61POPC   C2B 4460  39.495  26.051   8.264
   61POPC   C3B 4461  39.492  26.060   7.964
   61POPC   C4B 4462  39.509  26.019   7.664
   62POPC   NC3 4463  22.945  27.630   9.464
   62POPC   PO4 4464  22.896  27.638   9.164
   62POPC   GL1 4465  22.975  27.550   8.864
   62POPC   GL2 4466  22.783  27.659   8.864
   62POPC   C1A 4467  22.934  27.598   8.564
   62POPC   D2A 4468  22.898  27.580   8.264
   62POPC   C3A 4469  22.980  27.603   7.964
   62POPC   C4A 4470  22.954  27.596   7.664
   62POPC   C1B 4471  22.689  27.646   8.564
   62POPC   C2B 4472  22.739  27.588   8.264
   62POPC   C3B 4473  22.696  27.617   7.964
   62POPC   C4B 4474  22.660  27.664   7.664
   63POPC   NC3 4475  29.113  33.825   9.464
   63POPC   PO4 4476  29.121  33.798   9.164
   63POPC   GL1 4477  29.188  33.811   8.864
   63POPC   GL2 4478  29.190  33.726   8.864
   63POPC   C1A 4479  29.130  33.814   8.564
   63POPC   D2A 4480  29.153  33.814   8.264
   63POPC   C3A 4481  29.103  33.754   7.964
   63POPC   C4A 4482  29.096  33.802   7.664
   63POPC   C1B 4483  29.350  33.591   8.564
   63POPC   C2B 4484  29.358  33.626   8.264
   63POPC   C3B 4485  29.285  33.598   7.964
   63POPC   C4B 4486  29.284  33.607   7.664
   64POPC   NC3 4487   8.965  27.635   9.464
   64POPC   PO4 4488   8.982  27.626   9.164
   64POPC   GL1 4489   8.939  27.606   8.864
   64POPC   GL2 4490   9.029  27.675   8.864
   64POPC   C1A 4491   9.010  27.633   8.564
   64POPC   D2A 4492   9.004  27.579   8.264
   64POPC   C3A 4493   8.928  27.579   7.964
   64POPC   C4A 4494   8.958  27.582   7.664
   64POPC   C1B 4495   9.171  27.841   8.564
   64POPC   C2B 4496   9.135  27.843   8.264
   64POPC   C3B 4497   9.141  27.769   7.964
   64POPC   C4B 4498   9.135  27.780   7.664
   65POPC   NC3 4499  33.811   6.604   9.464
   65POPC   PO4 4500  33.807   6.616   9.164
   65POPC   GL1 4501  33.825   6.623   8.864
   65POPC   GL2 4502  33.798   6.766   8.864
   65POPC   C1A 4503  33.814   6.630   8.564
   65POPC   D2A 4504  33.779   6.632   8.264
   65POPC   C3A 4505  33.798   6.663   7.964
   65POPC   C4A 4506  33.781   6.650   7.664
   65POPC   C1B 4507  33.874   6.925   8.564
   65POPC   C2B 4508  33.857   6.838   8.264
   65POPC   C3B 4509  33.852   6.906   7.964
   65POPC   C4B 4510  33.883   6.846   7.664
   66POPC   NC3 4511   4.338   8.933   9.464
   66POPC   PO4 4512   4.360   8.946   9.164
   66POPC   GL1 4513   4.321   8.941   8.864
   66POPC   GL2 4514   4.355   8.815   8.864
   66POPC   C1A 4515   4.282   8.932   8.564
   66POPC   D2A 4516   4.331   8.959   8.264
   66POPC   C3A 4517   4.278   8.974   7.964
   66POPC   C4A 4518   4.303   8.999   7.664
   66POPC   C1B 4519   4.387   8.714   8.564
   66POPC   C2B 4520   4.425   8.688   8.264
   66POPC   C3B 4521   4.383   8.750   7.964
   66POPC   C4B 4522   4.429   8.767   7.664
   67POPC   NC3 4523  33.760  43.857   9.464
   67POPC   PO4 4524  33.758  43.859   9.164
   67POPC   GL1 4525  33.848  43.926   8.864
   67POPC   GL2 4526  33.648  43.940   8.864
   67POPC   C1A 4527  33.794  43.891   8.564
   67POPC   D2A 4528  33.761  43.874   8.264
   67POPC   C3A 4529  33.841  43.855   7.964
   67POPC   C4A 4530  33.802  43.840   7.664
   67POPC   C1B 4531  33.533  44.000   8.564
   67POPC   C2B 4532  33.590  43.956   8.264
   67POPC   C3B 4533  33.521  43.959   7.964
   67POPC   C4B 4534  33.526  43.982   7.664
   68POPC   NC3 4535  10.496  26.800   9.464
   68POPC   PO4 4536  10.541  26.795   9.164
   68POPC   GL1 4537  10.502  26.801   8.864
   68POPC   GL2 4538  10.641  26.760   8.864
   68POPC   C1A 4539  10.562  26.850   8.564
   68POPC   D2A 4540  10.497  26.821   8.264
   68POPC   C3A 4541  10.546  26.774   7.964
   68POPC   C4A 4542  10.570  26.865   7.664
   68POPC   C1B 4543  10.747  26.626   8.564
   68POPC   C2B 4544  10.691  26.658   8.264
   68POPC   C3B 4545  10.760  26.644   7.964
   68POPC   C4B 4546  10.728  26.687   7.664
   69POPC   NC3 4547  14.376  28.382   9.464
   69POPC   PO4 4548  14.447  28.417   9.164
   69POPC   GL1 4549  14.392  28.364   8.864
   69POPC   GL2 4550  14.499  28.429   8.864
   69POPC   C1A 4551  14.396  28.417   8.564
   69POPC   D2A 4552  14.368  28.410   8.264
   69POPC   C3A 4553  14.361  28.393   7.964
   69POPC   C4A 4554  14.424  28.359   7.664
   69POPC   C1B 4555  14.636  28.391   8.564
   69POPC   C2B 4556  14.654  28.395   8.264
   69POPC   C3B 4557  14.636  28.451   7.964
   69POPC   C4B 4558  14.630  28.436   7.664
   70POPC   NC3 4559  24.512  18.314   9.464
   70POPC   PO4 4560  24.449  18.291   9.164
   70POPC   GL1 4561  24.466  18.295   8.864
   70POPC   GL2 4562  24.637  18.266   8.864
   70POPC   C1A 4563  24.447  18.291   8.564
   70POPC   D2A 4564  24.521  18.239   8.264
   70POPC   C3A 4565  24.475  18.310   7.964
   70POPC   C4A 4566  24.534  18.254   7.664
   70POPC   C1B 4567  24.719  18.236   8.564
   70POPC   C2B 4568  24.700  18.235   8.264
   70POPC   C3B 4569  24.770  18.276   7.964
   70POPC   C4B 4570  24.704  18.252   7.664
   71POPC   NC3 4571  29.946  34.572   9.464
   71POPC   PO4 4572  29.935  34.625   9.164
   71POPC   GL1 4573  29.945  34.598   8.864
   71POPC   GL2 4574  30.012  34.484   8.864
   71POPC   C1A 4575  29.883  34.590   8.564
   71POPC   D2A 4576  29.919  34.536   8.264
   71POPC   C3A 4577  29.879  34.613   7.964
   71POPC   C4A 4578  29.946  34.587   7.664
   71POPC   C1B 4579  30.038  34.298   8.564
   71POPC   C2B 4580  30.011  34.301   8.264
   71POPC   C3B 4581  30.017  34.380   7.964
   71POPC   C4B 4582  30.066  34.317   7.664
   72POPC   NC3 4583  29.098  22.181   9.464
   72POPC   PO4 4584  29.155  22.146   9.164
   72POPC   GL1 4585  29.109  22.196   8.864
   72POPC   GL2 4586  29.036  22.230   8.864
   72POPC   C1A 4587  29.151  22.182   8.564
   72POPC   D2A 4588  29.190  22.182   8.264
   72POPC   C3A 4589  29.177  22.124   7.964
   72POPC   C4A 4590  29.183  22.188   7.664
   72POPC   C1B 4591  28.946  22.330   8.564
   72POPC   C2B 4592  28.951  22.330   8.264
   72POPC   C3B 4593  28.909  22.299   7.964
   72POPC   C4B 4594  28.967  22.315   7.664
   73POPC   NC3 4595  33.054  28.328   9.464
   73POPC   PO4 4596  33.045  28.324   9.164
   73POPC   GL1 4597  32.997  28.373   8.864
   73POPC   GL2 4598  33.140  28.373   8.864
   73POPC   C1A 4599  32.991  28.364   8.564
   73POPC   D2A 4600  33.051  28.338   8.264
   73POPC   C3A 4601  33.059  28.414   7.964
   73POPC   C4A 4602  33.029  28.320   7.664
   73POPC   C1B 4603  33.310  28.332   8.564
   73POPC   C2B 4604  33.301  28.300   8.264
   73POPC   C3B 4605  33.239  28.313   7.964
   73POPC   C4B 4606  33.302  28.336   7.664
   74POPC   NC3 4607   0.456   8.972   9.464
   74POPC   PO4 4608   0.428   8.997   9.164
   74POPC   GL1 4609   0.409   8.973   8.864
   74POPC   GL2 4610   0.438   8.824   8.864
   74POPC   C1A 4611   0.452   8.971   8.564
   74POPC   D2A 4612   0.389   8.943   8.264
   74POPC   C3A 4613   0.411   9.021   7.964
   74POPC   C4A 4614   0.432   8.923   7.664
   74POPC   C1B 4615   0.483   8.725   8.564
   74POPC   C2B 4616   0.546   8.716   8.264
   74POPC   C3B 4617   0.554   8.690   7.964
   74POPC   C4B 4618   0.547   8.699   7.664
   75POPC   NC3 4619  44.656  17.466   9.464
   75POPC   PO4 4620  44.689  17.515   9.164
   75POPC   GL1 4621  44.630  17.479   8.864
   75POPC   GL2 4622  44.581  17.658   8.864
   75POPC   C1A 4623  44.677  17.540   8.564
   75POPC   D2A 4624  44.705  17.516   8.264
   75POPC   C3A 4625  44.616  17.492   7.964
   75POPC   C4A 4626  44.693  17.527   7.664
   75POPC   C1B 4627  44.567  17.745   8.564
   75POPC   C2B 4628  44.635  17.737   8.264
   75POPC   C3B 4629  44.636  17.752   7.964
   75POPC   C4B 4630  44.570  17.735   7.664
   76POPC   NC3 4631  12.844   0.431   9.464
   76POPC   PO4 4632  12.810   0.393   9.164
   76POPC   GL1 4633  12.850   0.413   8.864
   76POPC   GL2 4634  12.982   0.380   8.864
   76POPC   C1A 4635  12.830   0.447   8.564
   76POPC   D2A 4636  12.827   0.437   8.264
   76POPC   C3A 4637  12.831   0.422   7.964
   76POPC   C4A 4638  12.843   0.475   7.664
   76POPC   C1B 4639  13.136   0.383   8.564
   76POPC   C2B 4640  13.085   0.400   8.264
   76POPC   C3B 4641  13.092   0.437   7.964
   76POPC   C4B 4642  13.079   0.448   7.664
   77POPC   NC3 4643  43.914   9.017   9.464
   77POPC   PO4 4644  43.892   8.935   9.164
   77POPC   GL1 4645  43.853   9.009   8.864
   77POPC   GL2 4646  43.746   8.963   8.864
   77POPC   C1A 4647  43.920   8.992   8.564
   77POPC   D2A 4648  43.879   8.987   8.264
   77POPC   C3A 4649  43.855   8.967   7.964
   77POPC   C4A 4650  43.885   8.964   7.664
   77POPC   C1B 4651  43.649   9.018   8.564
   77POPC   C2B 4652  43.616   9.031   8.264
   77POPC   C3B 4653  43.665   9.006   7.964
   77POPC   C4B 4654  43.634   8.998   7.664
   78POPC   NC3 4655  40.024  24.497   9.464
   78POPC   PO4 4656  39.961  24.487   9.164
   78POPC   GL1 4657  40.004  24.491   8.864
   78POPC   GL2 4658  39.908  24.491   8.864
   78POPC   C1A 4659  40.024  24.488   8.564
   78POPC   D2A 4660  40.010  24.467   8.264
   78POPC   C3A 4661  40.027  24.452   7.964
   78POPC   C4A 4662  40.051  24.444   7.664
   78POPC   C1B 4663  39.793  24.497   8.564
   78POPC   C2B 4664  39.774  24.498   8.264
   78POPC   C3B 4665  39.798  24.522   7.964
   78POPC   C4B 4666  39.804  24.462   7.664
   79POPC   NC3 4667   6.632  20.610   9.464
   79POPC   PO4 4668   6.688  20.572   9.164
   79POPC   GL1 4669   6.669  20.593   8.864
   79POPC   GL2 4670   6.688  20.517   8.864
   79POPC   C1A 4671   6.677  20.562   8.564
   79POPC   D2A 4672   6.686  20.654   8.264
   79POPC   C3A 4673   6.689  20.634   7.964
   79POPC   C4A 4674   6.637  20.591   7.664
   79POPC   C1B 4675   6.636  20.388   8.564
   79POPC   C2B 4676   6.657  20.401   8.264
   79POPC   C3B 4677   6.684  20.367   7.964
   79POPC   C4B 4678   6.715  20.404   7.664
   80POPC   NC3 4679   8.997  18.315   9.464
   80POPC   PO4 4680   8.963  18.266   9.164
   80POPC   GL1 4681   8.958  18.327   8.864
   80POPC   GL2 4682   9.101  18.232   8.864
   80POPC   C1A 4683   8.964  18.279   8.564
   80POPC   D2A 4684   8.990  18.326   8.264
   80POPC   C3A 4685   8.939  18.244   7.964
   80POPC   C4A 4686   8.973  18.246   7.664
   80POPC   C1B 4687   9.180  18.217   8.564
   80POPC   C2B 4688   9.218  18.208   8.264
   80POPC   C3B 4689   9.204  18.274   7.964
   80POPC   C4B 4690   9.268  18.235   7.664
   81POPC   NC3 4691  31.482  42.300   9.464
   81POPC   PO4 4692  31.494  42.309   9.164
   81POPC   GL1 4693  31.458  42.305   8.864
   81POPC   GL2 4694  31.597  42.389   8.864
   81POPC   C1A 4695  31.489  42.367   8.564
   81POPC   D2A 4696  31.492  42.326   8.264
   81POPC   C3A 4697  31.467  42.359   7.964
   81POPC   C4A 4698  31.522  42.376   7.664
   81POPC   C1B 4699  31.603  42.508   8.564
   81POPC   C2B 4700  31.579  42.508   8.264
   81POPC   C3B 4701  31.671  42.520   7.964
   81POPC   C4B 4702  31.647  42.555   7.664
   82POPC   NC3 4703  42.304  19.044   9.464
   82POPC   PO4 4704  42.348  19.032   9.164
   82POPC   GL1 4705  42.336  19.051   8.864
   82POPC   GL2 4706  42.290  18.897   8.864
   82POPC   C1A 4707  42.334  19.105   8.564
   82POPC   D2A 4708  42.351  19.099   8.264
   82POPC   C3A 4709  42.316  19.034   7.964
   82POPC   C4A 4710  42.293  19.103   7.664
   82POPC   C1B 4711  42.307  18.806   8.564
   82POPC   C2B 4712  42.337  18.837   8.264
   82POPC   C3B 4713  42.359  18.808   7.964
   82POPC   C4B 4714  42.293  18.856   7.664
   83POPC   NC3 4715  34.536  19.790   9.464
   83POPC   PO4 4716  34.530  19.823   9.164
   83POPC   GL1 4717  34.563  19.788   8.864
   83POPC   GL2 4718  34.474  19.892   8.864
   83POPC   C1A 4719  34.556  19.823   8.564
   83POPC   D2A 4720  34.596  19.791   8.264
   83POPC   C3A 4721  34.600  19.812   7.964
   83POPC   C4A 4722  34.559  19.841   7.664
   83POPC   C1B 4723  34.403  19.995   8.564
   83POPC   C2B 4724  34.429  20.057   8.264
   83POPC   C3B 4725  34.400  20.045   7.964
   83POPC   C4B 4726  34.420  20.000   7.664
   84POPC   NC3 4727  39.196  10.528   9.464
   84POPC   PO4 4728  39.253  10.505   9.164
   84POPC   GL1 4729  39.274  10.539   8.864
   84POPC   GL2 4730  39.292  10.375   8.864
   84POPC   C1A 4731  39.199  10.550   8.564
   84POPC   D2A 4732  39.243  10.559   8.264
   84POPC   C3A 4733  39.231  10.508   7.964
   84POPC   C4A 4734  39.234  10.554   7.664
   84POPC   C1B 4735  39.326  10.323   8.564
   84POPC   C2B 4736  39.314  10.240   8.264
   84POPC   C3B 4737  39.285  10.235   7.964
   84POPC   C4B 4738  39.331  10.289   7.664
   85POPC   NC3 4739  26.843  29.871   9.464
   85POPC   PO4 4740  26.851  29.944   9.164
   85POPC   GL1 4741  26.770  29.969   8.864
   85POPC   GL2 4742  26.753  29.800   8.864
   85POPC   C1A 4743  26.784  29.965   8.564
   85POPC   D2A 4744  26.803  29.903   8.264
   85POPC   C3A 4745  26.821  29.936   7.964
   85POPC   C4A 4746  26.786  29.896   7.664
   85POPC   C1B 4747  26.753  29.726   8.564
   85POPC   C2B 4748  26.753  29.692   8.264
   85POPC   C3B 4749  26.690  29.705   7.964
   85POPC   C4B 4750  26.747  29.697   7.664
   86POPC   NC3 4751  15.153   0.476   9.464
   86POPC   PO4 4752  15.175   0.427   9.164
   86POPC   GL1 4753  15.163   0.462   8.864
   86POPC   GL2 4754  15.186   0.319   8.864
   86POPC   C1A 4755  15.137   0.412   8.564
   86POPC   D2A 4756  15.156   0.488   8.264
   86POPC   C3A 4757  15.187   0.388   7.964
   86POPC   C4A 4758  15.224   0.441   7.664
   86POPC   C1B 4759  15.085   0.163   8.564
   86POPC   C2B 4760  15.128   0.167   8.264
   86POPC   C3B 4761  15.086   0.215   7.964
   86POPC   C4B 4762  15.131   0.198   7.664
   87POPC   NC3 4763  33.757  26.083   9.464
   87POPC   PO4 4764  33.775  26.003   9.164
   87POPC   GL1 4765  33.847  26.034   8.864
   87POPC   GL2 4766  33.750  25.962   8.864
   87POPC   C1A 4767  33.841  26.072   8.564
   87POPC   D2A 4768  33.770  26.011   8.264
   87POPC   C3A 4769  33.809  26.075   7.964
   87POPC   C4A 4770  33.834  26.006   7.664
   87POPC   C1B 4771  33.678  25.856   8.564
   87POPC   C2B 4772  33.648  25.825   8.264
   87POPC   C3B 4773  33.677  25.897   7.964
   87POPC   C4B 4774  33.633  25.825   7.664
   88POPC   NC3 4775  19.038  39.264   9.464
   88POPC   PO4 4776  19.045  39.194   9.164
   88POPC   GL1 4777  19.098  39.251   8.864
   88POPC   GL2 4778  19.025  39.317   8.864
   88POPC   C1A 4779  19.098  39.280   8.564
   88POPC   D2A 4780  19.106  39.223   8.264
   88POPC   C3A 4781  19.013  39.203   7.964
   88POPC   C4A 4782  19.091  39.278   7.664
   88POPC   C1B 4783  18.937  39.427   8.564
   88POPC   C2B 4784  18.866  39.474   8.264
   88POPC   C3B 4785  18.932  39.391   7.964
   88POPC   C4B 4786  18.921  39.382   7.664
   89POPC   NC3 4787  15.996  32.985   9.464
   89POPC   PO4 4788  15.912  33.074   9.164
   89POPC   GL1 4789  15.941  33.025   8.864
   89POPC   GL2 4790  15.930  32.918   8.864
   89POPC   C1A 4791  15.912  33.018   8.564
   89POPC   D2A 4792  15.961  33.038   8.264
   89POPC   C3A 4793  15.948  32.986   7.964
   89POPC   C4A 4794  15.939  32.982   7.664
   89POPC   C1B 4795  15.825  32.801   8.564
   89POPC   C2B 4796  15.848  32.817   8.264
   89POPC   C3B 4797  15.841  32.770   7.964
   89POPC   C4B 4798  15.864  32.754   7.664
   90POPC   NC3 4799  15.912  40.753   9.464
   90POPC   PO4 4800  15.913  40.765   9.164
   90POPC   GL1 4801  15.927  40.831   8.864
   90POPC   GL2 4802  15.869  40.664   8.864
   90POPC   C1A 4803  15.913  40.786   8.564
   90POPC   D2A 4804  15.993  40.830   8.264
   90POPC   C3A 4805  15.927  40.734   7.964
   90POPC   C4A 4806  15.918  40.827   7.664
   90POPC   C1B 4807  15.831  40.534   8.564
   90POPC   C2B 4808  15.757  40.570   8.264
   90POPC   C3B 4809  15.781  40.564   7.964
   90POPC   C4B 4810  15.781  40.584   7.664
   91POPC   NC3 4811  10.561  23.721   9.464
   91POPC   PO4 4812  10.573  23.745   9.164
   91POPC   GL1 4813  10.485  23.680   8.864
   91POPC   GL2 4814  10.454  23.660   8.864
   91POPC   C1A 4815  10.543  23.668   8.564
   91POPC   D2A 4816  10.490  23.672   8.264
   91POPC   C3A 4817  10.526  23.667   7.964
   91POPC   C4A 4818  10.537  23.706   7.664
   91POPC   C1B 4819  10.295  23.581   8.564
   91POPC   C2B 4820  10.309  23.554   8.264
   91POPC   C3B 4821  10.353  23.544   7.964
   91POPC   C4B 4822  10.319  23.513   7.664
   92POPC   NC3 4823   9.709  27.609   9.464
   92POPC   PO4 4824   9.732  27.543   9.164
   92POPC   GL1 4825   9.709  27.571   8.864
   92POPC   GL2 4826   9.608  27.671   8.864
   92POPC   C1A 4827   9.709  27.561   8.564
   92POPC   D2A 4828   9.700  27.548   8.264
   92POPC   C3A 4829   9.779  27.619   7.964
   92POPC   C4A 4830   9.759  27.603   7.664
   92POPC   C1B 4831   9.570  27.753   8.564
   92POPC   C2B 4832   9.488  27.679   8.264
   92POPC   C3B 4833   9.483  27.711   7.964
   92POPC   C4B 4834   9.495  27.700   7.664
   93POPC   NC3 4835  37.663  18.319   9.464
   93POPC   PO4 4836  37.689  18.242   9.164
   93POPC   GL1 4837  37.668  18.289   8.864
   93POPC   GL2 4838  37.549  18.291   8.864
   93POPC   C1A 4839  37.650  18.299   8.564
   93POPC   D2A 4840  37.675  18.330   8.264
   93POPC   C3A 4841  37.644  18.246   7.964
   93POPC   C4A 4842  37.642  18.276   7.664
   93POPC   C1B 4843  37.401  18.238   8.564
   93POPC   C2B 4844  37.436  18.279   8.264
   93POPC   C3B 4845  37.449  18.263   7.964
   93POPC   C4B 4846  37.459  18.307   7.664
   94POPC   NC3 4847  30.744   5.052   9.464
   94POPC   PO4 4848  30.742   5.131   9.164
   94POPC   GL1 4849  30.744   5.111   8.864
   94POPC   GL2 4850  30.751   5.200   8.864
   94POPC   C1A 4851  30.664   5.048   8.564
   94POPC   D2A 4852  30.700   5.131   8.264
   94POPC   C3A 4853  30.650   5.055   7.964
   94POPC   C4A 4854  30.689   5.072   7.664
   94POPC   C1B 4855  30.882   5.337   8.564
   94POPC   C2B 4856  30.816   5.290   8.264
   94POPC   C3B 4857  30.843   5.273   7.964
   94POPC   C4B 4858  30.841   5.330   7.664
   95POPC   NC3 4859  32.294  19.065   9.464
   95POPC   PO4 4860  32.206  19.027   9.164
   95POPC   GL1 4861  32.206  19.030   8.864
   95POPC   GL2 4862  32.347  19.042   8.864
   95POPC   C1A 4863  32.199  19.018   8.564
   95POPC   D2A 4864  32.214  19.015   8.264
   95POPC   C3A 4865  32.249  19.012   7.964
   95POPC   C4A 4866  32.217  19.021   7.664
   95POPC   C1B 4867  32.444  18.967   8.564
   95POPC   C2B 4868  32.473  18.946   8.264
   95POPC   C3B 4869  32.469  19.014   7.964
   95POPC   C4B 4870  32.506  18.982   7.664
   96POPC   NC3 4871  16.714  15.132   9.464
   96POPC   PO4 4872  16.721  15.187   9.164
   96POPC   GL1 4873  16.779  15.145   8.864
   96POPC   GL2 4874  16.815  15.159   8.864
   96POPC   C1A 4875  16.709  15.176   8.564
   96POPC   D2A 4876  16.733  15.214   8.264
   96POPC   C3A 4877  16.692  15.194   7.964
   96POPC   C4A 4878  16.689  15.142   7.664
   96POPC   C1B 4879  16.996  15.133   8.564
   96POPC   C2B 4880  16.986  15.118   8.264
   96POPC   C3B 4881  16.957  15.156   7.964
   96POPC   C4B 4882  16.942  15.114   7.664
   97POPC   NC3 4883  32.997   2.001   9.464
   97POPC   PO4 4884  32.977   1.997   9.164
   97POPC   GL1 4885  33.020   1.958   8.864
   97POPC   GL2 4886  33.075   1.885   8.864
   97POPC   C1A 4887  32.975   2.005   8.564
   97POPC   D2A 4888  33.066   2.000   8.264
   97POPC   C3A 4889  33.052   2.037   7.964
   97POPC   C4A 4890  33.031   1.976   7.664
   97POPC   C1B 4891  33.201   1.803   8.564
   97POPC   C2B 4892  33.129   1.759   8.264
   97POPC   C3B 4893  33.171   1.787   7.964
   97POPC   C4B 4894  33.169   1.819   7.664
   98POPC   NC3 4895   5.850  21.394   9.464
   98POPC   PO4 4896   5.883  21.373   9.164
   98POPC   GL1 4897   5.913  21.429   8.864
   98POPC   GL2 4898   5.993  21.440   8.864
   98POPC   C1A 4899   5.825  21.351   8.564
   98POPC   D2A 4900   5.891  21.396   8.264
   98POPC   C3A 4901   5.833  21.388   7.964
   98POPC   C4A 4902   5.841  21.433   7.664
   98POPC   C1B 4903   6.166  21.431   8.564
   98POPC   C2B 4904   6.102  21.407   8.264
   98POPC   C3B 4905   6.101  21.452   7.964
   98POPC   C4B 4906   6.130  21.363   7.664
   99POPC   NC3 4907   3.562  40.039   9.464
   99POPC   PO4 4908   3.557  39.992   9.164
   99POPC   GL1 4909   3.535  40.052   8.864
   99POPC   GL2 4910   3.497  40.099   8.864
   99POPC   C1A 4911   3.530  40.036   8.564
   99POPC   D2A 4912   3.547  40.019   8.264
   99POPC   C3A 4913   3.518  39.994   7.964
   99POPC   C4A 4914   3.561  40.055   7.664
   99POPC   C1B 4915   3.548  40.303   8.564
   99POPC   C2B 4916   3.555  40.272   8.264
   99POPC   C3B 4917   3.534  40.303   7.964
   99POPC   C4B 4918   3.505  40.305   7.664
  100POPC   NC3 4919  31.449  17.523   9.464
  100POPC   PO4 4920  31.513  17.526   9.164
  100POPC   GL1 4921  31.477  17.507   8.864
  100POPC   GL2 4922  31.569  17.455   8.864
  100POPC   C1A 4923  31.452  17.556   8.564
  100POPC   D2A 4924  31.489  17.502   8.264
  100POPC   C3A 4925  31.443  17.508   7.964
  100POPC   C4A 4926  31.518  17.520   7.664
  100POPC   C1B 4927  31.672  17.506   8.564
  100POPC   C2B 4928  31.729  17.484   8.264
  100POPC   C3B 4929  31.755  17.463   7.964
  100POPC   C4B 4930  31.700  17.505   7.664
  101POPC   NC3 4931  36.916  36.143   9.464
  101POPC   PO4 4932  36.860  36.156   9.164
  101POPC   GL1 4933  36.924  36.170   8.864
  101POPC   GL2 4934  36.983  36.269   8.864
  101POPC   C1A 4935  36.895  36.102   8.564
  101POPC   D2A 4936  36.867  36.106   8.264
  101POPC   C3A 4937  36.937  36.097   7.964
  101POPC   C4A 4938  36.935  36.138   7.664
  101POPC   C1B 4939  36.996  36.308   8.564
  101POPC   C2B 4940  37.004  36.367   8.264
  101POPC   C3B 4941  37.002  36.356   7.964
  101POPC   C4B 4942  37.025  36.366   7.664
  102POPC   NC3 4943  24.470  36.911   9.464
  102POPC   PO4 4944  24.483  36.937   9.164
  102POPC   GL1 4945  24.497  36.945   8.864
  102POPC   GL2 4946  24.429  36.798   8.864
  102POPC   C1A 4947  24.467  36.929   8.564
  102POPC   D2A 4948  24.499  36.882   8.264
  102POPC   C3A 4949  24.491  36.925   7.964
  102POPC   C4A 4950  24.527  36.933   7.664
  102POPC   C1B 4951  24.285  36.829   8.564
  102POPC   C2B 4952  24.311  36.822   8.264
  102POPC   C3B 4953  24.235  36.816   7.964
  102POPC   C4B 4954  24.238  36.791   7.664
  103POPC   NC3 4955  29.958   9.739   9.464
  103POPC   PO4 4956  29.910   9.757   9.164
  103POPC   GL1 4957  29.949   9.765   8.864
  103POPC   GL2 4958  29.973   9.814   8.864
  103POPC   C1A 4959  29.884   9.784   8.564
  103POPC   D2A 4960  29.923   9.714   8.264
  103POPC   C3A 4961  29.898   9.776   7.964
  103POPC   C4A 4962  29.931   9.709   7.664
  103POPC   C1B 4963  30.068   9.997   8.564
  103POPC   C2B 4964  30.020   9.960   8.264
  103POPC   C3B 4965  30.055  10.011   7.964
  103POPC   C4B 4966  30.067   9.993   7.664
  104POPC   NC3 4967  22.905  35.384   9.464
  104POPC   PO4 4968  22.947  35.385   9.164
  104POPC   GL1 4969  22.914  35.330   8.864
  104POPC   GL2 4970  23.064  35.285   8.864
  104POPC   C1A 4971  22.968  35.325   8.564
  104POPC   D2A 4972  22.944  35.352   8.264
  104POPC   C3A 4973  22.946  35.366   7.964
  104POPC   C4A 4974  22.978  35.399   7.664
  104POPC   C1B 4975  23.108  35.222   8.564
  104POPC   C2B 4976  23.110  35.182   8.264
  104POPC   C3B 4977  23.182  35.229   7.964
  104POPC   C4B 4978  23.151  35.256   7.664
  105POPC   NC3 4979  32.285   9.721   9.464
  105POPC   PO4 4980  32.231   9.709   9.164
  105POPC   GL1 4981  32.297   9.772   8.864
  105POPC   GL2 4982  32.301   9.856   8.864
  105POPC   C1A 4983  32.252   9.772   8.564
  105POPC   D2A 4984  32.239   9.785   8.264
  105POPC   C3A 4985  32.248   9.775   7.964
  105POPC   C4A 4986  32.218   9.742   7.664
  105POPC   C1B 4987  32.403   9.903   8.564
  105POPC   C2B 4988  32.433   9.889   8.264
  105POPC   C3B 4989  32.424   9.934   7.964
  105POPC   C4B 4990  32.452   9.896   7.664
  106POPC   NC3 4991  26.848  38.407   9.464
  106POPC   PO4 4992  26.841  38.408   9.164
  106POPC   GL1 4993  26.775  38.451   8.864
  106POPC   GL2 4994  26.941  38.356   8.864
  106POPC   C1A 4995  26.847  38.440   8.564
  106POPC   D2A 4996  26.845  38.480   8.264
  106POPC   C3A 4997  26.836  38.448   7.964
  106POPC   C4A 4998  26.789  38.422   7.664
  106POPC   C1B 4999  26.983  38.264   8.564
  106POPC   C2B 5000  26.927  38.298   8.264
  106POPC   C3B 5001  27.019  38.247   7.964
  106POPC   C4B 5002  26.969  38.258   7.664
  107POPC   NC3 5003  28.328  14.424   9.464
  107POPC   PO4 5004  28.345  14.450   9.164
  107POPC   GL1 5005  28.358  14.430   8.864
  107POPC   GL2 5006  28.296  14.523   8.864
  107POPC   C1A 5007  28.336  14.365   8.564
  107POPC   D2A 5008  28.328  14.384   8.264
  107POPC   C3A 5009  28.331  14.446   7.964
  107POPC   C4A 5010  28.415  14.382   7.664
  107POPC   C1B 5011  28.269  14.598   8.564
  107POPC   C2B 5012  28.273  14.680   8.264
  107POPC   C3B 5013  28.263  14.660   7.964
  107POPC   C4B 5014  28.328  14.690   7.664
  108POPC   NC3 5015  20.651  39.214   9.464
  108POPC   PO4 5016  20.597  39.242   9.164
  108POPC   GL1 5017  20.599  39.223   8.864
  108POPC   GL2 5018  20.538  39.073   8.864
  108POPC   C1A 5019  20.608  39.245   8.564
  108POPC   D2A 5020  20.567  39.253   8.264
  108POPC   C3A 5021  20.585  39.265   7.964
  108POPC   C4A 5022  20.604  39.214   7.664
  108POPC   C1B 5023  20.535  38.994   8.564
  108POPC   C2B 5024  20.502  38.962   8.264
  108POPC   C3B 5025  20.449  38.967   7.964
  108POPC   C4B 5026  20.490  39.041   7.664
  109POPC   NC3 5027  15.977  37.697   9.464
  109POPC   PO4 5028  15.931  37.708   9.164
  109POPC   GL1 5029  15.932  37.711   8.864
  109POPC   GL2 5030  15.839  37.653   8.864
  109POPC   C1A 5031  15.935  37.667   8.564
  109POPC   D2A 5032  15.936  37.650   8.264
  109POPC   C3A 5033  15.935  37.687   7.964
  109POPC   C4A 5034  15.928  37.700   7.664
  109POPC   C1B 5035  15.680  37.585   8.564
  109POPC   C2B 5036  15.749  37.608   8.264
  109POPC   C3B 5037  15.711  37.565   7.964
  109POPC   C4B 5038  15.725  37.638   7.664
  110POPC   NC3 5039   7.434   8.980   9.464
  110POPC   PO4 5040   7.461   8.953   9.164
  110POPC   GL1 5041   7.389   8.965   8.864
  110POPC   GL2 5042   7.583   8.977   8.864
  110POPC   C1A 5043   7.458   9.011   8.564
  110POPC   D2A 5044   7.450   8.949   8.264
  110POPC   C3A 5045   7.420   8.942   7.964
  110POPC   C4A 5046   7.445   8.952   7.664
  110POPC   C1B 5047   7.626   8.992   8.564
  110POPC   C2B 5048   7.704   8.952   8.264
  110POPC   C3B 5049   7.625   8.962   7.964
  110POPC   C4B 5050   7.672   8.950   7.664
  111POPC   NC3 5051  15.141  32.278   9.464
  111POPC   PO4 5052  15.150  32.199   9.164
  111POPC   GL1 5053  15.224  32.223   8.864
  111POPC   GL2 5054  15.138  32.403   8.864
  111POPC   C1A 5055  15.200  32.273   8.564
  111POPC   D2A 5056  15.163  32.216   8.264
  111POPC   C3A 5057  15.130  32.283   7.964
  111POPC   C4A 5058  15.155  32.203   7.664
  111POPC   C1B 5059  15.032  32.464   8.564
  111POPC   C2B 5060  15.111  32.449   8.264
  111POPC   C3B 5061  15.049  32.464   7.964
  111POPC   C4B 5062  15.050  32.490   7.664
  112POPC   NC3 5063  29.101   3.536   9.464
  112POPC   PO4 5064  29.176   3.565   9.164
  112POPC   GL1 5065  29.117   3.537   8.864
  112POPC   GL2 5066  29.049   3.399   8.864
  112POPC   C1A 5067  29.185   3.516   8.564
  112POPC   D2A 5068  29.138   3.523   8.264
  112POPC   C3A 5069  29.177   3.506   7.964
  112POPC   C4A 5070  29.136   3.518   7.664
  112POPC   C1B 5071  29.035   3.330   8.564
  112POPC   C2B 5072  29.076   3.295   8.264
  112POPC   C3B 5073  29.019   3.295   7.964
  112POPC   C4B 5074  29.029   3.275   7.664
  113POPC   NC3 5075  33.797  12.071   9.464
  113POPC   PO4 5076  33.780  12.032   9.164
  113POPC   GL1 5077  33.836  12.124   8.864
  113POPC   GL2 5078  33.694  11.970   8.864
  113POPC   C1A 5079  33.792  12.116   8.564
  113POPC   D2A 5080  33.788  12.098   8.264
  113POPC   C3A 5081  33.838  12.083   7.964
  113POPC   C4A 5082  33.779  12.077   7.664
  113POPC   C1B 5083  33.615  11.904   8.564
  113POPC   C2B 5084  33.558  11.887   8.264
  113POPC   C3B 5085  33.553  11.921   7.964
  113POPC   C4B 5086  33.590  11.959   7.664
  114POPC   NC3 5087  32.218  18.319   9.464
  114POPC   PO4 5088  32.237  18.272   9.164
  114POPC   GL1 5089  32.264  18.240   8.864
  114POPC   GL2 5090  32.346  18.251   8.864
  114POPC   C1A 5091  32.230  18.254   8.564
  114POPC   D2A 5092  32.268  18.245   8.264
  114POPC   C3A 5093  32.211  18.269   7.964
  114POPC   C4A 5094  32.270  18.234   7.664
  114POPC   C1B 5095  32.460  18.187   8.564
  114POPC   C2B 5096  32.485  18.150   8.264
  114POPC   C3B 5097  32.445  18.229   7.964
  114POPC   C4B 5098  32.441  18.208   7.664
  115POPC   NC3 5099  43.870  24.516   9.464
  115POPC   PO4 5100  43.921  24.467   9.164
  115POPC   GL1 5101  43.851  24.443   8.864
  115POPC   GL2 5102  43.827  24.380   8.864
  115POPC   C1A 5103  43.932  24.476   8.564
  115POPC   D2A 5104  43.905  24.486   8.264
  115POPC   C3A 5105  43.844  24.454   7.964
  115POPC   C4A 5106  43.930  24.517   7.664
  115POPC   C1B 5107  43.755  24.209   8.564
  115POPC   C2B 5108  43.755  24.288   8.264
  115POPC   C3B 5109  43.772  24.284   7.964
  115POPC   C4B 5110  43.828  24.242   7.664
  116POPC   NC3 5111   9.764   0.471   9.464
  116POPC   PO4 5112   9.734   0.469   9.164
  116POPC   GL1 5113   9.729   0.462   8.864
  116POPC   GL2 5114   9.710   0.576   8.864
  116POPC   C1A 5115   9.762   0.471   8.564
  116POPC   D2A 5116   9.778   0.473   8.264
  116POPC   C3A 5117   9.700   0.403   7.964
  116POPC   C4A 5118   9.702   0.422   7.664
  116POPC   C1B 5119   9.649   0.664   8.564
  116POPC   C2B 5120   9.690   0.658   8.264
  116POPC   C3B 5121   9.718   0.701   7.964
  116POPC   C4B 5122   9.648   0.641   7.664
  117POPC   NC3 5123   1.194  32.229   9.464
  117POPC   PO4 5124   1.164  32.235   9.164
  117POPC   GL1 5125   1.245  32.258   8.864
  117POPC   GL2 5126   1.295  32.215   8.864
  117POPC   C1A 5127   1.187  32.290   8.564
  117POPC   D2A 5128   1.177  32.296   8.264
  117POPC   C3A 5129   1.224  32.280   7.964
  117POPC   C4A 5130   1.237  32.255   7.664
  117POPC   C1B 5131   1.409  32.105   8.564
  117POPC   C2B 5132   1.373  32.078   8.264
  117POPC   C3B 5133   1.452  32.114   7.964
  117POPC   C4B 5134   1.369  32.070   7.664
  118POPC   NC3 5135  43.151  26.045   9.464
  118POPC   PO4 5136  43.081  26.036   9.164
  118POPC   GL1 5137  43.147  26.063   8.864
  118POPC   GL2 5138  43.233  26.127   8.864
  118POPC   C1A 5139  43.137  26.085   8.564
  118POPC   D2A 5140  43.082  26.042   8.264
  118POPC   C3A 5141  43.092  26.052   7.964
  118POPC   C4A 5142  43.094  26.011   7.664
  118POPC   C1B 5143  43.231  26.214   8.564
  118POPC   C2B 5144  43.246  26.273   8.264
  118POPC   C3B 5145  43.286  26.233   7.964
  118POPC   C4B 5146  43.238  26.264   7.664
  119POPC   NC3 5147   9.751  16.694   9.464
  119POPC   PO4 5148   9.727  16.752   9.164
  119POPC   GL1 5149   9.776  16.743   8.864
  119POPC   GL2 5150   9.766  16.794   8.864
  119POPC   C1A 5151   9.786  16.706   8.564
  119POPC   D2A 5152   9.736  16.744   8.264
  119POPC   C3A 5153   9.756  16.704   7.964
  119POPC   C4A 5154   9.751  16.692   7.664
  119POPC   C1B 5155   9.878  16.913   8.564
  119POPC   C2B 5156   9.880  16.975   8.264
  119POPC   C3B 5157   9.909  16.950   7.964
  119POPC   C4B 5158   9.848  16.950   7.664
  120POPC   NC3 5159  15.989  31.498   9.464
  120POPC   PO4 5160  15.974  31.437   9.164
  120POPC   GL1 5161  16.004  31.480   8.864
  120POPC   GL2 5162  15.922  31.349   8.864
  120POPC   C1A 5163  15.907  31.496   8.564
  120POPC   D2A 5164  15.990  31.460   8.264
  120POPC   C3A 5165  15.921  31.483   7.964
  120POPC   C4A 5166  15.954  31.510   7.664
  120POPC   C1B 5167  16.011  31.193   8.564
  120POPC   C2B 5168  15.958  31.247   8.264
  120POPC   C3B 5169  15.928  31.251   7.964
  120POPC   C4B 5170  15.946  31.229   7.664
  121POPC   NC3 5171  27.550  40.008   9.464
  121POPC   PO4 5172  27.615  40.035   9.164
  121POPC   GL1 5173  27.550  39.992   8.864
  121POPC   GL2 5174  27.727  40.004   8.864
  121POPC   C1A 5175  27.597  40.028   8.564
  121POPC   D2A 5176  27.624  39.975   8.264
  121POPC   C3A 5177  27.603  40.056   7.964
  121POPC   C4A 5178  27.548  39.996   7.664
  121POPC   C1B 5179  27.829  39.989   8.564
  121POPC   C2B 5180  27.801  39.898   8.264
  121POPC   C3B 5181  27.884  39.916   7.964
  121POPC   C4B 5182  27.801  39.968   7.664
  122POPC   NC3 5183  22.960  44.707   9.464
  122POPC   PO4 5184  22.942  44.646   9.164
  122POPC   GL1 5185  22.958  44.687   8.864
  122POPC   GL2 5186  22.979  44.544   8.864
  122POPC   C1A 5187  22.910  44.648   8.564
  122POPC   D2A 5188  22.945  44.627   8.264
  122POPC   C3A 5189  22.950  44.709   7.964
  122POPC   C4A 5190  22.958  44.663   7.664
  122POPC   C1B 5191  22.972  44.463   8.564
  122POPC   C2B 5192  23.012  44.444   8.264
  122POPC   C3B 5193  22.989  44.424   7.964
  122POPC   C4B 5194  22.935  44.426   7.664
  123POPC   NC3 5195   4.304  26.802   9.464
  123POPC   PO4 5196   4.300  26.800   9.164
  123POPC   GL1 5197   4.357  26.789   8.864
  123POPC   GL2 5198   4.194  26.721   8.864
  123POPC   C1A 5199   4.335  26.846   8.564
  123POPC   D2A 5200   4.326  26.815   8.264
  123POPC   C3A 5201   4.348  26.775   7.964
  123POPC   C4A 5202   4.275  26.843   7.664
  123POPC   C1B 5203   4.166  26.684   8.564
  123POPC   C2B 5204   4.130  26.637   8.264
  123POPC   C3B 5205   4.125  26.678   7.964
  123POPC   C4B 5206   4.150  26.702   7.664
  124POPC   NC3 5207  41.535  30.746   9.464
  124POPC   PO4 5208  41.534  30.733   9.164
  124POPC   GL1 5209  41.529  30.652   8.864
  124POPC   GL2 5210  41.688  30.604   8.864
  124POPC   C1A 5211  41.602  30.718   8.564
  124POPC   D2A 5212  41.510  30.669   8.264
  124POPC   C3A 5213  41.579  30.684   7.964
  124POPC   C4A 5214  41.559  30.696   7.664
  124POPC   C1B 5215  41.735  30.534   8.564
  124POPC   C2B 5216  41.770  30.534   8.264
  124POPC   C3B 5217  41.769  30.563   7.964
  124POPC   C4B 5218  41.789  30.590   7.664
  125POPC   NC3 5219  20.650  40.817   9.464
  125POPC   PO4 5220  20.592  40.771   9.164
  125POPC   GL1 5221  20.648  40.757   8.864
  125POPC   GL2 5222  20.463  40.858   8.864
  125POPC   C1A 5223  20.585  40.740   8.564
  125POPC   D2A 5224  20.607  40.828   8.264
  125POPC   C3A 5225  20.617  40.769   7.964
  125POPC   C4A 5226  20.587  40.807   7.664
  125POPC   C1B 5227  20.402  40.963   8.564
  125POPC   C2B 5228  20.395  40.976   8.264
  125POPC   C3B 5229  20.450  40.911   7.964
  125POPC   C4B 5230  20.412  40.882   7.664
  126POPC   NC3 5231  22.122  35.338   9.464
  126POPC   PO4 5232  22.150  35.309   9.164
  126POPC   GL1 5233  22.150  35.357   8.864
  126POPC   GL2 5234  22.058  35.433   8.864
  126POPC   C1A 5235  22.139  35.383   8.564
  126POPC   D2A 5236  22.173  35.332   8.264
  126POPC   C3A 5237  22.185  35.349   7.964
  126POPC   C4A 5238  22.175  35.343   7.664
  126POPC   C1B 5239  21.999  35.581   8.564
  126POPC   C2B 5240  22.064  35.541   8.264
  126POPC   C3B 5241  22.019  35.584   7.964
  126POPC   C4B 5242  22.000  35.525   7.664
  127POPC   NC3 5243   7.446  12.036   9.464
  127POPC   PO4 5244   7.392  12.089   9.164
  127POPC   GL1 5245   7.373  12.102   8.864
  127POPC   GL2 5246   7.359  11.952   8.864
  127POPC   C1A 5247   7.452  12.088   8.564
  127POPC   D2A 5248   7.408  12.045   8.264
  127POPC   C3A 5249   7.385  12.078   7.964
  127POPC   C4A 5250   7.460  12.060   7.664
  127POPC   C1B 5251   7.413  11.865   8.564
  127POPC   C2B 5252   7.397  11.782   8.264
  127POPC   C3B 5253   7.418  11.809   7.964
  127POPC   C4B 5254   7.363  11.874   7.664
  128POPC   NC3 5255  12.892  17.520   9.464
  128POPC   PO4 5256  12.863  17.504   9.164
  128POPC   GL1 5257  12.864  17.546   8.864
  128POPC   GL2 5258  12.881  17.378   8.864
  128POPC   C1A 5259  12.833  17.524   8.564
  128POPC   D2A 5260  12.834  17.538   8.264
  128POPC   C3A 5261  12.831  17.471   7.964
  128POPC   C4A 5262  12.862  17.513   7.664
  128POPC   C1B 5263  12.927  17.288   8.564
  128POPC   C2B 5264  12.996  17.268   8.264
  128POPC   C3B 5265  12.975  17.237   7.964
  128POPC   C4B 5266  12.935  17.249   7.664
  129POPC   NC3 5267  20.567   8.997   9.464
  129POPC   PO4 5268  20.619   8.977   9.164
  129POPC   GL1 5269  20.616   8.932   8.864
  129POPC   GL2 5270  20.738   9.007   8.864
  129POPC   C1A 5271  20.617   8.937   8.564
  129POPC   D2A 5272  20.611   8.927   8.264
  129POPC   C3A 5273  20.655   8.970   7.964
  129POPC   C4A 5274  20.617   8.956   7.664
  129POPC   C1B 5275  20.847   9.088   8.564
  129POPC   C2B 5276  20.781   9.070   8.264
  129POPC   C3B 5277  20.850   9.141   7.964
  129POPC   C4B 5278  20.840   9.076   7.664
  130POPC   NC3 5279  11.266  42.364   9.464
  130POPC   PO4 5280  11.318  42.355   9.164
  130POPC   GL1 5281  11.332  42.323   8.864
  130POPC   GL2 5282  11.223  42.253   8.864
  130POPC   C1A 5283  11.253  42.286   8.564
  130POPC   D2A 5284  11.314  42.306   8.264
  130POPC   C3A 5285  11.329  42.333   7.964
  130POPC   C4A 5286  11.302  42.368   7.664
  130POPC   C1B 5287  11.135  42.142   8.564
  130POPC   C2B 5288  11.138  42.140   8.264
  130POPC   C3B 5289  11.074  42.199   7.964
  130POPC   C4B 5290  11.159  42.135   7.664
  131POPC   NC3 5291  44.623  28.345   9.464
  131POPC   PO4 5292  44.647  28.407   9.164
  131POPC   GL1 5293  44.691  28.337   8.864
  131POPC   GL2 5294  44.736  28.303   8.864
  131POPC   C1A 5295  44.690  28.413   8.564
  131POPC   D2A 5296  44.632  28.360   8.264
  131POPC   C3A 5297  44.694  28.401   7.964
  131POPC   C4A 5298  44.622  28.343   7.664
  131POPC   C1B 5299  44.902  28.337   8.564
  131POPC   C2B 5300  44.919  28.268   8.264
  131POPC   C3B 5301  44.884  28.263   7.964
  131POPC   C4B 5302  44.923  28.270   7.664
  132POPC   NC3 5303  27.566   6.668   9.464
  132POPC   PO4 5304  27.593   6.651   9.164
  132POPC   GL1 5305  27.566   6.672   8.864
  132POPC   GL2 5306  27.586   6.730   8.864
  132POPC   C1A 5307  27.568   6.665   8.564
  132POPC   D2A 5308  27.547   6.600   8.264
  132POPC   C3A 5309  27.552   6.628   7.964
  132POPC   C4A 5310  27.640   6.677   7.664
  132POPC   C1B 5311  27.581   6.916   8.564
  132POPC   C2B 5312  27.587   6.885   8.264
  132POPC   C3B 5313  27.647   6.918   7.964
  132POPC   C4B 5314  27.605   6.928   7.664
  133POPC   NC3 5315  43.110  29.173   9.464
  133POPC   PO4 5316  43.072  29.139   9.164
  133POPC   GL1 5317  43.137  29.189   8.864
  133POPC   GL2 5318  43.021  29.179   8.864
  133POPC   C1A 5319  43.149  29.154   8.564
  133POPC   D2A 5320  43.113  29.124   8.264
  133POPC   C3A 5321  43.123  29.166   7.964
  133POPC   C4A 5322  43.158  29.117   7.664
  133POPC   C1B 5323  42.906  29.259   8.564
  133POPC   C2B 5324  42.939  29.297   8.264
  133POPC   C3B 5325  42.944  29.326   7.964
  133POPC   C4B 5326  42.925  29.289   7.664
  134POPC   NC3 5327   6.604  44.650   9.464
  134POPC   PO4 5328   6.664  44.633   9.164
  134POPC   GL1 5329   6.622  44.653   8.864
  134POPC   GL2 5330   6.592  44.514   8.864
  134POPC   C1A 5331   6.692  44.684   8.564
  134POPC   D2A 5332   6.691  44.672   8.264
  134POPC   C3A 5333   6.688  44.699   7.964
  134POPC   C4A 5334   6.601  44.647   7.664
  134POPC   C1B 5335   6.656  44.422   8.564
  134POPC   C2B 5336   6.663  44.457   8.264
  134POPC   C3B 5337   6.649  44.402   7.964
  134POPC   C4B 5338   6.641  44.404   7.664
  135POPC   NC3 5339  42.327  42.294   9.464
  135POPC   PO4 5340  42.315  42.359   9.164
  135POPC   GL1 5341  42.301  42.316   8.864
  135POPC   GL2 5342  42.274  42.171   8.864
  135POPC   C1A 5343  42.350  42.356   8.564
  135POPC   D2A 5344  42.380  42.318   8.264
  135POPC   C3A 5345  42.288  42.375   7.964
  135POPC   C4A 5346  42.344  42.300   7.664
  135POPC   C1B 5347  42.246  42.065   8.564
  135POPC   C2B 5348  42.248  42.145   8.264
  135POPC   C3B 5349  42.246  42.118   7.964
  135POPC   C4B 5350  42.278  42.121   7.664
  136POPC   NC3 5351  34.617  36.881   9.464
  136POPC   PO4 5352  34.590  36.858   9.164
  136POPC   GL1 5353  34.612  36.878   8.864
  136POPC   GL2 5354  34.477  36.932   8.864
  136POPC   C1A 5355  34.595  36.922   8.564
  136POPC   D2A 5356  34.570  36.934   8.264
  136POPC   C3A 5357  34.625  36.932   7.964
  136POPC   C4A 5358  34.560  36.921   7.664
  136POPC   C1B 5359  34.278  36.891   8.564
  136POPC   C2B 5360  34.319  36.884   8.264
  136POPC   C3B 5361  34.337  36.890   7.964
  136POPC   C4B 5362  34.360  36.917   7.664
  137POPC   NC3 5363  15.932  32.267   9.464
  137POPC   PO4 5364  15.988  32.214   9.164
  137POPC   GL1 5365  15.981  32.267   8.864
  137POPC   GL2 5366  15.894  32.323   8.864
  137POPC   C1A 5367  15.990  32.276   8.564
  137POPC   D2A 5368  15.981  32.211   8.264
  137POPC   C3A 5369  15.966  32.216   7.964
  137POPC   C4A 5370  15.907  32.257   7.664
  137POPC   C1B 5371  15.905  32.524   8.564
  137POPC   C2B 5372  15.886  32.517   8.264
  137POPC   C3B 5373  15.838  32.481   7.964
  137POPC   C4B 5374  15.909  32.508   7.664
  138POPC   NC3 5375  25.997  34.623   9.464
  138POPC   PO4 5376  26.023  34.577   9.164
  138POPC   GL1 5377  25.996  34.561   8.864
  138POPC   GL2 5378  26.131  34.712   8.864
  138POPC   C1A 5379  26.011  34.580   8.564
  138POPC   D2A 5380  26.008  34.536   8.264
  138POPC   C3A 5381  26.034  34.541   7.964
  138POPC   C4A 5382  26.031  34.534   7.664
  138POPC   C1B 5383  26.241  34.716   8.564
  138POPC   C2B 5384  26.264  34.753   8.264
  138POPC   C3B 5385  26.252  34.790   7.964
  138POPC   C4B 5386  26.263  34.767   7.664
  139POPC   NC3 5387  24.521  28.418   9.464
  139POPC   PO4 5388  24.509  28.416   9.164
  139POPC   GL1 5389  24.505  28.328   8.864
  139POPC   GL2 5390  24.406  28.337   8.864
  139POPC   C1A 5391  24.461  28.384   8.564
  139POPC   D2A 5392  24.521  28.345   8.264
  139POPC   C3A 5393  24.479  28.358   7.964
  139POPC   C4A 5394  24.487  28.363   7.664
  139POPC   C1B 5395  24.303  28.222   8.564
  139POPC   C2B 5396  24.314  28.194   8.264
  139POPC   C3B 5397  24.245  28.212   7.964
  139POPC   C4B 5398  24.314  28.205   7.664
  140POPC   NC3 5399  12.806   1.255   9.464
  140POPC   PO4 5400  12.888   1.196   9.164
  140POPC   GL1 5401  12.838   1.235   8.864
  140POPC   GL2 5402  12.702   1.235   8.864
  140POPC   C1A 5403  12.804   1.179   8.564
  140POPC   D2A 5404  12.862   1.213   8.264
  140POPC   C3A 5405  12.862   1.182   7.964
  140POPC   C4A 5406  12.894   1.171   7.664
  140POPC   C1B 5407  12.615   1.254   8.564
  140POPC   C2B 5408  12.589   1.185   8.264
  140POPC   C3B 5409  12.592   1.242   7.964
  140POPC   C4B 5410  12.571   1.203   7.664
  141POPC   NC3 5411  29.158  11.316   9.464
  141POPC   PO4 5412  29.097  11.309   9.164
  141POPC   GL1 5413  29.104  11.275   8.864
  141POPC   GL2 5414  29.096  11.223   8.864
  141POPC   C1A 5415  29.134  11.329   8.564
  141POPC   D2A 5416  29.127  11.330   8.264
  141POPC   C3A 5417  29.155  11.327   7.964
  141POPC   C4A 5418  29.160  11.258   7.664
  141POPC   C1B 5419  28.935  11.088   8.564
  141POPC   C2B 5420  28.960  11.081   8.264
  141POPC   C3B 5421  28.949  11.128   7.964
  141POPC   C4B 5422  28.947  11.087   7.664
  142POPC   NC3 5423  23.755  26.046   9.464
  142POPC   PO4 5424  23.715  26.066   9.164
  142POPC   GL1 5425  23.671  26.024   8.864
  142POPC   GL2 5426  23.833  26.105   8.864
  142POPC   C1A 5427  23.699  26.068   8.564
  142POPC   D2A 5428  23.694  26.021   8.264
  142POPC   C3A 5429  23.749  26.013   7.964
  142POPC   C4A 5430  23.748  26.090   7.664
  142POPC   C1B 5431  23.879  26.264   8.564
  142POPC   C2B 5432  23.812  26.288   8.264
  142POPC   C3B 5433  23.833  26.228   7.964
  142POPC   C4B 5434  23.860  26.243   7.664
  143POPC   NC3 5435  12.099  35.394   9.464
  143POPC   PO4 5436  12.106  35.337   9.164
  143POPC   GL1 5437  12.056  35.350   8.864
  143POPC   GL2 5438  11.924  35.385   8.864
  143POPC   C1A 5439  12.063  35.385   8.564
  143POPC   D2A 5440  12.114  35.382   8.264
  143POPC   C3A 5441  12.052  35.341   7.964
  143POPC   C4A 5442  12.078  35.372   7.664
  143POPC   C1B 5443  11.794  35.382   8.564
  143POPC   C2B 5444  11.782  35.387   8.264
  143POPC   C3B 5445  11.835  35.401   7.964
  143POPC   C4B 5446  11.795  35.452   7.664
  144POPC   NC3 5447  30.673  10.515   9.464
  144POPC   PO4 5448  30.690  10.538   9.164
  144POPC   GL1 5449  30.666  10.563   8.864
  144POPC   GL2 5450  30.772  10.594   8.864
  144POPC   C1A 5451  30.670  10.485   8.564
  144POPC   D2A 5452  30.718  10.555   8.264
  144POPC   C3A 5453  30.672  10.506   7.964
  144POPC   C4A 5454  30.666  10.557   7.664
  144POPC   C1B 5455  30.762  10.730   8.564
  144POPC   C2B 5456  30.838  10.785   8.264
  144POPC   C3B 5457  30.796  10.798   7.964
  144POPC   C4B 5458  30.820  10.780   7.664
  145POPC   NC3 5459  39.973  32.253   9.464
  145POPC   PO4 5460  40.031  32.198   9.164
  145POPC   GL1 5461  39.998  32.240   8.864
  145POPC   GL2 5462  40.076  32.338   8.864
  145POPC   C1A 5463  40.008  32.286   8.564
  145POPC   D2A 5464  40.030  32.266   8.264
  145POPC   C3A 5465  39.965  32.290   7.964
  145POPC   C4A 5466  39.997  32.263   7.664
  145POPC   C1B 5467  40.178  32.408   8.564
  145POPC   C2B 5468  40.182  32.388   8.264
  145POPC   C3B 5469  40.170  32.363   7.964
  145POPC   C4B 5470  40.169  32.451   7.664
  146POPC   NC3 5471  18.289  22.193   9.464
  146POPC   PO4 5472  18.312  22.205   9.164
  146POPC   GL1 5473  18.318  22.212   8.864
  146POPC   GL2 5474  18.303  22.018   8.864
  146POPC   C1A 5475  18.287  22.198   8.564
  146POPC   D2A 5476  18.276  22.161   8.264
  146POPC   C3A 5477  18.323  22.136   7.964
  146POPC   C4A 5478  18.291  22.137   7.664
  146POPC   C1B 5479  18.377  21.968   8.564
  146POPC   C2B 5480  18.387  21.927   8.264
  146POPC   C3B 5481  18.382  21.870   7.964
  146POPC   C4B 5482  18.295  21.892   7.664
  147POPC   NC3 5483  35.350  28.415   9.464
  147POPC   PO4 5484  35.371  28.336   9.164
  147POPC   GL1 5485  35.326  28.385   8.864
  147POPC   GL2 5486  35.426  28.422   8.864
  147POPC   C1A 5487  35.379  28.325   8.564
  147POPC   D2A 5488  35.325  28.340   8.264
  147POPC   C3A 5489  35.307  28.341   7.964
  147POPC   C4A 5490  35.365  28.370   7.664
  147POPC   C1B 5491  35.547  28.414   8.564
  147POPC   C2B 5492  35.559  28.393   8.264
  147POPC   C3B 5493  35.583  28.451   7.964
  147POPC   C4B 5494  35.597  28.460   7.664
  148POPC   NC3 5495  43.871   3.557   9.464
  148POPC   PO4 5496  43.891   3.548   9.164
  148POPC   GL1 5497  43.910   3.553   8.864
  148POPC   GL2 5498  43.739   3.565   8.864
  148POPC   C1A 5499  43.883   3.567   8.564
  148POPC   D2A 5500  43.873   3.575   8.264
  148POPC   C3A 5501  43.846   3.515   7.964
  148POPC   C4A 5502  43.932   3.546   7.664
  148POPC   C1B 5503  43.647   3.623   8.564
  148POPC   C2B 5504  43.662   3.660   8.264
  148POPC   C3B 5505  43.716   3.689   7.964
  148POPC   C4B 5506  43.641   3.673   7.664
  149POPC   NC3 5507  34.605  23.741   9.464
  149POPC   PO4 5508  34.534  23.755   9.164
  149POPC   GL1 5509  34.543  23.756   8.864
  149POPC   GL2 5510  34.656  23.810   8.864
  149POPC   C1A 5511  34.568  23.730   8.564
  149POPC   D2A 5512  34.528  23.702   8.264
  149POPC   C3A 5513  34.608  23.743   7.964
  149POPC   C4A 5514  34.592  23.699   7.664
  149POPC   C1B 5515  34.810  23.835   8.564
  149POPC   C2B 5516  34.738  23.883   8.264
  149POPC   C3B 5517  34.728  23.884   7.964
  149POPC   C4B 5518  34.776  23.848   7.664
  150POPC   NC3 5519  33.005   8.932   9.464
  150POPC   PO4 5520  33.028   9.007   9.164
  150POPC   GL1 5521  33.068   8.937   8.864
  150POPC   GL2 5522  33.105   9.061   8.864
  150POPC   C1A 5523  33.054   8.968   8.564
  150POPC   D2A 5524  33.011   8.956   8.264
  150POPC   C3A 5525  32.989   8.923   7.964
  150POPC   C4A 5526  33.064   8.979   7.664
  150POPC   C1B 5527  33.261   9.087   8.564
  150POPC   C2B 5528  33.220   9.034   8.264
  150POPC   C3B 5529  33.250   9.126   7.964
  150POPC   C4B 5530  33.224   9.092   7.664
  151POPC   NC3 5531  38.475  27.608   9.464
  151POPC   PO4 5532  38.440  27.569   9.164
  151POPC   GL1 5533  38.471  27.569   8.864
  151POPC   GL2 5534  38.588  27.636   8.864
  151POPC   C1A 5535  38.433  27.625   8.564
  151POPC   D2A 5536  38.413  27.585   8.264
  151POPC   C3A 5537  38.436  27.616   7.964
  151POPC   C4A 5538  38.462  27.635   7.664
  151POPC   C1B 5539  38.676  27.630   8.564
  151POPC   C2B 5540  38.659  27.650   8.264
  151POPC   C3B 5541  38.740  27.721   7.964
  151POPC   C4B 5542  38.698  27.696   7.664
  152POPC   NC3 5543  26.040  40.046   9.464
  152POPC   PO4 5544  26.059  39.972   9.164
  152POPC   GL1 5545  26.066  40.005   8.864
  152POPC   GL2 5546  25.996  40.138   8.864
  152POPC   C1A 5547  26.019  39.999   8.564
  152POPC   D2A 5548  26.069  40.002   8.264
  152POPC   C3A 5549  26.079  39.962   7.964
  152POPC   C4A 5550  26.047  40.039   7.664
  152POPC   C1B 5551  25.972  40.265   8.564
  152POPC   C2B 5552  25.979  40.220   8.264
  152POPC   C3B 5553  25.972  40.286   7.964
  152POPC   C4B 5554  25.998  40.215   7.664
  153POPC   NC3 5555  26.003  13.663   9.464
  153POPC   PO4 5556  26.064  13.677   9.164
  153POPC   GL1 5557  26.021  13.587   8.864
  153POPC   GL2 5558  25.962  13.555   8.864
  153POPC   C1A 5559  26.017  13.652   8.564
  153POPC   D2A 5560  26.055  13.590   8.264
  153POPC   C3A 5561  26.025  13.670   7.964
  153POPC   C4A 5562  26.023  13.599   7.664
  153POPC   C1B 5563  25.800  13.511   8.564
  153POPC   C2B 5564  25.774  13.528   8.264
  153POPC   C3B 5565  25.848  13.490   7.964
  153POPC   C4B 5566  25.794  13.519   7.664
  154POPC   NC3 5567  29.180  15.208   9.464
  154POPC   PO4 5568  29.180  15.146   9.164
  154POPC   GL1 5569  29.178  15.144   8.864
  154POPC   GL2 5570  29.154  15.052   8.864
  154POPC   C1A 5571  29.169  15.146   8.564
  154POPC   D2A 5572  29.156  15.182   8.264
  154POPC   C3A 5573  29.131  15.186   7.964
  154POPC   C4A 5574  29.179  15.149   7.664
  154POPC   C1B 5575  29.154  14.946   8.564
  154POPC   C2B 5576  29.115  14.958   8.264
  154POPC   C3B 5577  29.119  14.943   7.964
  154POPC   C4B 5578  29.165  14.898   7.664
  155POPC   NC3 5579  20.633  22.131   9.464
  155POPC   PO4 5580  20.592  22.168   9.164
  155POPC   GL1 5581  20.609  22.121   8.864
  155POPC   GL2 5582  20.629  22.030   8.864
  155POPC   C1A 5583  20.630  22.209   8.564
  155POPC   D2A 5584  20.632  22.184   8.264
  155POPC   C3A 5585  20.639  22.119   7.964
  155POPC   C4A 5586  20.586  22.114   7.664
  155POPC   C1B 5587  20.530  21.907   8.564
  155POPC   C2B 5588  20.578  21.890   8.264
  155POPC   C3B 5589  20.538  21.960   7.964
  155POPC   C4B 5590  20.590  21.955   7.664
  156POPC   NC3 5591   5.849  22.142   9.464
  156POPC   PO4 5592   5.873  22.212   9.164
  156POPC   GL1 5593   5.842  22.135   8.864
  156POPC   GL2 5594   5.855  22.009   8.864
  156POPC   C1A 5595   5.838  22.125   8.564
  156POPC   D2A 5596   5.853  22.143   8.264
  156POPC   C3A 5597   5.865  22.144   7.964
  156POPC   C4A 5598   5.834  22.142   7.664
  156POPC   C1B 5599   5.943  21.948   8.564
  156POPC   C2B 5600   5.921  21.890   8.264
  156POPC   C3B 5601   5.893  21.952   7.964
  156POPC   C4B 5602   5.868  21.961   7.664
  157POPC   NC3 5603  15.923  41.531   9.464
  157POPC   PO4 5604  15.985  41.574   9.164
  157POPC   GL1 5605  15.998  41.525   8.864
  157POPC   GL2 5606  15.856  41.449   8.864
  157POPC   C1A 5607  15.963  41.573   8.564
  157POPC   D2A 5608  15.960  41.584   8.264
  157POPC   C3A 5609  15.967  41.608   7.964
  157POPC   C4A 5610  15.986  41.573   7.664
  157POPC   C1B 5611  15.820  41.363   8.564
  157POPC   C2B 5612  15.802  41.375   8.264
  157POPC   C3B 5613  15.794  41.333   7.964
  157POPC   C4B 5614  15.811  41.365   7.664
  158POPC   NC3 5615  25.292   2.747   9.464
  158POPC   PO4 5616  25.248   2.814   9.164
  158POPC   GL1 5617  25.217   2.751   8.864
  158POPC   GL2 5618  25.123   2.657   8.864
  158POPC   C1A 5619  25.238   2.774   8.564
  158POPC   D2A 5620  25.227   2.795   8.264
  158POPC   C3A 5621  25.288   2.812   7.964
  158POPC   C4A 5622  25.241   2.803   7.664
  158POPC   C1B 5623  25.064   2.563   8.564
  158POPC   C2B 5624  25.036   2.573   8.264
  158POPC   C3B 5625  25.049   2.592   7.964
  158POPC   C4B 5626  25.069   2.630   7.664
  159POPC   NC3 5627  20.591   2.727   9.464
  159POPC   PO4 5628  20.565   2.762   9.164
  159POPC   GL1 5629  20.645   2.716   8.864
  159POPC   GL2 5630  20.710   2.818   8.864
  159POPC   C1A 5631  20.596   2.777   8.564
  159POPC   D2A 5632  20.588   2.752   8.264
  159POPC   C3A 5633  20.604   2.759   7.964
  159POPC   C4A 5634  20.614   2.752   7.664
  159POPC   C1B 5635  20.812   2.977   8.564
  159POPC   C2B 5636  20.828   2.969   8.264
  159POPC   C3B 5637  20.761   2.904   7.964
  159POPC   C4B 5638  20.791   2.941   7.664
  160POPC   NC3 5639  12.123  11.346   9.464
  160POPC   PO4 5640  12.121  11.286   9.164
  160POPC   GL1 5641  12.085  11.262   8.864
  160POPC   GL2 5642  11.940  11.246   8.864
  160POPC   C1A 5643  12.123  11.347   8.564
  160POPC   D2A 5644  12.055  11.272   8.264
  160POPC   C3A 5645  12.048  11.262   7.964
  160POPC   C4A 5646  12.113  11.303   7.664
  160POPC   C1B 5647  11.861  11.163   8.564
  160POPC   C2B 5648  11.822  11.211   8.264
  160POPC   C3B 5649  11.814  11.219   7.964
  160POPC   C4B 5650  11.804  11.179   7.664
  161POPC   NC3 5651  37.713  36.948   9.464
  161POPC   PO4 5652  37.711  36.909   9.164
  161POPC   GL1 5653  37.658  36.858   8.864
  161POPC   GL2 5654  37.826  36.838   8.864
  161POPC   C1A 5655  37.701  36.927   8.564
  161POPC   D2A 5656  37.679  36.950   8.264
  161POPC   C3A 5657  37.662  36.868   7.964
  161POPC   C4A 5658  37.711  36.855   7.664
  161POPC   C1B 5659  37.924  36.817   8.564
  161POPC   C2B 5660  37.942  36.790   8.264
  161POPC   C3B 5661  37.873  36.774   7.964
  161POPC   C4B 5662  37.941  36.792   7.664
  162POPC   NC3 5663   7.410  14.368   9.464
  162POPC   PO4 5664   7.385  14.402   9.164
  162POPC   GL1 5665   7.405  14.443   8.864
  162POPC   GL2 5666   7.504  14.529   8.864
  162POPC   C1A 5667   7.415  14.371   8.564
  162POPC   D2A 5668   7.430  14.435   8.264
  162POPC   C3A 5669   7.375  14.397   7.964
  162POPC   C4A 5670   7.425  14.391   7.664
  162POPC   C1B 5671   7.473  14.591   8.564
  162POPC   C2B 5672   7.539  14.598   8.264
  162POPC   C3B 5673   7.499  14.667   7.964
  162POPC   C4B 5674   7.542  14.675   7.664
  163POPC   NC3 5675  19.106  22.966   9.464
  163POPC   PO4 5676  19.038  22.926   9.164
  163POPC   GL1 5677  19.010  22.960   8.864
  163POPC   GL2 5678  19.155  23.041   8.864
  163POPC   C1A 5679  19.088  22.910   8.564
  163POPC   D2A 5680  19.047  22.970   8.264
  163POPC   C3A 5681  19.097  22.951   7.964
  163POPC   C4A 5682  19.065  22.946   7.664
  163POPC   C1B 5683  19.281  23.064   8.564
  163POPC   C2B 5684  19.210  23.126   8.264
  163POPC   C3B 5685  19.255  23.141   7.964
  163POPC   C4B 5686  19.206  23.111   7.664
  164POPC   NC3 5687  20.579   1.174   9.464
  164POPC   PO4 5688  20.589   1.234   9.164
  164POPC   GL1 5689  20.600   1.246   8.864
  164POPC   GL2 5690  20.733   1.321   8.864
  164POPC   C1A 5691  20.654   1.248   8.564
  164POPC   D2A 5692  20.651   1.240   8.264
  164POPC   C3A 5693  20.564   1.256   7.964
  164POPC   C4A 5694  20.630   1.219   7.664
  164POPC   C1B 5695  20.827   1.372   8.564
  164POPC   C2B 5696  20.813   1.311   8.264
  164POPC   C3B 5697  20.857   1.344   7.964
  164POPC   C4B 5698  20.868   1.307   7.664
  165POPC   NC3 5699  13.674   2.811   9.464
  165POPC   PO4 5700  13.605   2.782   9.164
  165POPC   GL1 5701  13.637   2.767   8.864
  165POPC   GL2 5702  13.572   2.638   8.864
  165POPC   C1A 5703  13.581   2.811   8.564
  165POPC   D2A 5704  13.599   2.811   8.264
  165POPC   C3A 5705  13.633   2.800   7.964
  165POPC   C4A 5706  13.637   2.801   7.664
  165POPC   C1B 5707  13.623   2.481   8.564
  165POPC   C2B 5708  13.555   2.475   8.264
  165POPC   C3B 5709  13.626   2.484   7.964
  165POPC   C4B 5710  13.625   2.562   7.664
  166POPC   NC3 5711   0.455  36.136   9.464
  166POPC   PO4 5712   0.418  36.167   9.164
  166POPC   GL1 5713   0.394  36.162   8.864
  166POPC   GL2 5714   0.534  36.224   8.864
  166POPC   C1A 5715   0.478  36.099   8.564
  166POPC   D2A 5716   0.450  36.092   8.264
  166POPC   C3A 5717   0.479  36.165   7.964
  166POPC   C4A 5718   0.473  36.121   7.664
  166POPC   C1B 5719   0.593  36.316   8.564
  166POPC   C2B 5720   0.591  36.290   8.264
  166POPC   C3B 5721   0.553  36.348   7.964
  166POPC   C4B 5722   0.629  36.359   7.664
  167POPC   NC3 5723  26.076  27.642   9.464
  167POPC   PO4 5724  26.003  27.564   9.164
  167POPC   GL1 5725  26.060  27.604   8.864
  167POPC   GL2 5726  26.067  27.712   8.864
  167POPC   C1A 5727  26.011  27.579   8.564
  167POPC   D2A 5728  26.066  27.616   8.264
  167POPC   C3A 5729  26.010  27.618   7.964
  167POPC   C4A 5730  26.091  27.610   7.664
  167POPC   C1B 5731  26.126  27.792   8.564
  167POPC   C2B 5732  26.192  27.775   8.264
  167POPC   C3B 5733  26.187  27.800   7.964
  167POPC   C4B 5734  26.171  27.817   7.664
  168POPC   NC3 5735  28.409  42.327   9.464
  168POPC   PO4 5736  28.345  42.336   9.164
  168POPC   GL1 5737  28.405  42.304   8.864
  168POPC   GL2 5738  28.373  42.161   8.864
  168POPC   C1A 5739  28.363  42.288   8.564
  168POPC   D2A 5740  28.380  42.329   8.264
  168POPC   C3A 5741  28.331  42.340   7.964
  168POPC   C4A 5742  28.380  42.302   7.664
  168POPC   C1B 5743  28.311  42.130   8.564
  168POPC   C2B 5744  28.320  42.071   8.264
  168POPC   C3B 5745  28.330  42.038   7.964
  168POPC   C4B 5746  28.353  42.052   7.664
  169POPC   NC3 5747  11.349   9.777   9.464
  169POPC   PO4 5748  11.331   9.712   9.164
  169POPC   GL1 5749  11.331   9.743   8.864
  169POPC   GL2 5750  11.411   9.888   8.864
  169POPC   C1A 5751  11.329   9.786   8.564
  169POPC   D2A 5752  11.316   9.712   8.264
  169POPC   C3A 5753  11.291   9.781   7.964
  169POPC   C4A 5754  11.334   9.784   7.664
  169POPC   C1B 5755  11.436   9.925   8.564
  169POPC   C2B 5756  11.470   9.921   8.264
  169POPC   C3B 5757  11.424   9.918   7.964
  169POPC   C4B 5758  11.460   9.983   7.664
  170POPC   NC3 5759  22.906  25.234   9.464
  170POPC   PO4 5760  22.941  25.272   9.164
  170POPC   GL1 5761  22.917  25.256   8.864
  170POPC   GL2 5762  22.818  25.333   8.864
  170POPC   C1A 5763  22.925  25.313   8.564
  170POPC   D2A 5764  22.948  25.238   8.264
  170POPC   C3A 5765  22.946  25.297   7.964
  170POPC   C4A 5766  22.918  25.257   7.664
  170POPC   C1B 5767  22.667  25.334   8.564
  170POPC   C2B 5768  22.711  25.327   8.264
  170POPC   C3B 5769  22.663  25.293   7.964
  170POPC   C4B 5770  22.699  25.278   7.664
  171POPC   NC3 5771   8.156   0.390   9.464
  171POPC   PO4 5772   8.201   0.476   9.164
  171POPC   GL1 5773   8.173   0.388   8.864
  171POPC   GL2 5774   8.137   0.582   8.864
  171POPC   C1A 5775   8.178   0.390   8.564
  171POPC   D2A 5776   8.227   0.476   8.264
  171POPC   C3A 5777   8.231   0.440   7.964
  171POPC   C4A 5778   8.182   0.402   7.664
  171POPC   C1B 5779   8.108   0.640   8.564
  171POPC   C2B 5780   8.104   0.632   8.264
  171POPC   C3B 5781   8.107   0.660   7.964
  171POPC   C4B 5782   8.103   0.702   7.664
  172POPC   NC3 5783  41.606  11.303   9.464
  172POPC   PO4 5784  41.605  11.255   9.164
  172POPC   GL1 5785  41.597  11.307   8.864
  172POPC   GL2 5786  41.535  11.450   8.864
  172POPC   C1A 5787  41.539  11.304   8.564
  172POPC   D2A 5788  41.595  11.315   8.264
  172POPC   C3A 5789  41.517  11.254   7.964
  172POPC   C4A 5790  41.597  11.281   7.664
  172POPC   C1B 5791  41.559  11.594   8.564
  172POPC   C2B 5792  41.565  11.543   8.264
  172POPC   C3B 5793  41.592  11.568   7.964
  172POPC   C4B 5794  41.516  11.501   7.664
  173POPC   NC3 5795  12.843   8.962   9.464
  173POPC   PO4 5796  12.874   8.979   9.164
  173POPC   GL1 5797  12.897   8.956   8.864
  173POPC   GL2 5798  12.731   8.920   8.864
  173POPC   C1A 5799  12.816   8.973   8.564
  173POPC   D2A 5800  12.884   9.011   8.264
  173POPC   C3A 5801  12.885   8.954   7.964
  173POPC   C4A 5802  12.831   8.962   7.664
  173POPC   C1B 5803  12.667   8.769   8.564
  173POPC   C2B 5804  12.675   8.852   8.264
  173POPC   C3B 5805  12.672   8.765   7.964
  173POPC   C4B 5806  12.705   8.819   7.664
  174POPC   NC3 5807   3.528  15.961   9.464
  174POPC   PO4 5808   3.492  15.973   9.164
  174POPC   GL1 5809   3.572  16.001   8.864
  174POPC   GL2 5810   3.612  15.863   8.864
  174POPC   C1A 5811   3.587  15.942   8.564
  174POPC   D2A 5812   3.586  15.922   8.264
  174POPC   C3A 5813   3.503  15.941   7.964
  174POPC   C4A 5814   3.576  15.919   7.664
  174POPC   C1B 5815   3.622  15.712   8.564
  174POPC   C2B 5816   3.678  15.730   8.264
  174POPC   C3B 5817   3.612  15.770   7.964
  174POPC   C4B 5818   3.630  15.706   7.664
  175POPC   NC3 5819  43.907  11.259   9.464
  175POPC   PO4 5820  43.860  11.338   9.164
  175POPC   GL1 5821  43.882  11.301   8.864
  175POPC   GL2 5822  43.940  11.195   8.864
  175POPC   C1A 5823  43.932  11.320   8.564
  175POPC   D2A 5824  43.863  11.262   8.264
  175POPC   C3A 5825  43.836  11.345   7.964
  175POPC   C4A 5826  43.919  11.263   7.664
  175POPC   C1B 5827  43.997  11.022   8.564
  175POPC   C2B 5828  43.941  11.018   8.264
  175POPC   C3B 5829  43.955  11.093   7.964
  175POPC   C4B 5830  43.930  11.054   7.664
  176POPC   NC3 5831  21.364  23.713   9.464
  176POPC   PO4 5832  21.338  23.741   9.164
  176POPC   GL1 5833  21.402  23.670   8.864
  176POPC   GL2 5834  21.433  23.751   8.864
  176POPC   C1A 5835  21.412  23.714   8.564
  176POPC   D2A 5836  21.388  23.693   8.264
  176POPC   C3A 5837  21.381  23.703   7.964
  176POPC   C4A 5838  21.431  23.678   7.664
  176POPC   C1B 5839  21.591  23.854   8.564
  176POPC   C2B 5840  21.611  23.914   8.264
  176POPC   C3B 5841  21.581  23.860   7.964
  176POPC   C4B 5842  21.546  23.916   7.664
  177POPC   NC3 5843  44.623  16.713   9.464
  177POPC   PO4 5844  44.665  16.703   9.164
  177POPC   GL1 5845  44.647  16.767   8.864
  177POPC   GL2 5846  44.739  16.795   8.864
  177POPC   C1A 5847  44.696  16.707   8.564
  177POPC   D2A 5848  44.646  16.686   8.264
  177POPC   C3A 5849  44.680  16.743   7.964
  177POPC   C4A 5850  44.705  16.763   7.664
  177POPC   C1B 5851  44.873  16.868   8.564
  177POPC   C2B 5852  44.873  16.843   8.264
  177POPC   C3B 5853  44.840  16.847   7.964
  177POPC   C4B 5854  44.867  16.877   7.664
  178POPC   NC3 5855   2.787   9.000   9.464
  178POPC   PO4 5856   2.729   8.928   9.164
  178POPC   GL1 5857   2.801   8.944   8.864
  178POPC   GL2 5858   2.766   8.811   8.864
  178POPC   C1A 5859   2.722   8.982   8.564
  178POPC   D2A 5860   2.728   8.954   8.264
  178POPC   C3A 5861   2.813   8.998   7.964
  178POPC   C4A 5862   2.779   8.940   7.664
  178POPC   C1B 5863   2.779   8.746   8.564
  178POPC   C2B 5864   2.794   8.740   8.264
  178POPC   C3B 5865   2.714   8.768   7.964
  178POPC   C4B 5866   2.708   8.699   7.664
  179POPC   NC3 5867   9.707  24.485   9.464
  179POPC   PO4 5868   9.727  24.456   9.164
  179POPC   GL1 5869   9.751  24.487   8.864
  179POPC   GL2 5870   9.687  24.550   8.864
  179POPC   C1A 5871   9.756  24.461   8.564
  179POPC   D2A 5872   9.737  24.478   8.264
  179POPC   C3A 5873   9.793  24.479   7.964
  179POPC   C4A 5874   9.735  24.519   7.664
  179POPC   C1B 5875   9.593  24.652   8.564
  179POPC   C2B 5876   9.529  24.694   8.264
  179POPC   C3B 5877   9.565  24.692   7.964
  179POPC   C4B 5878   9.604  24.688   7.664
  180POPC   NC3 5879  18.330   9.793   9.464
  180POPC   PO4 5880  18.292   9.731   9.164
  180POPC   GL1 5881  18.324   9.746   8.864
  180POPC   GL2 5882  18.352   9.625   8.864
  180POPC   C1A 5883  18.253   9.730   8.564
  180POPC   D2A 5884  18.240   9.785   8.264
  180POPC   C3A 5885  18.249   9.742   7.964
  180POPC   C4A 5886  18.332   9.758   7.664
  180POPC   C1B 5887  18.337   9.538   8.564
  180POPC   C2B 5888  18.354   9.481   8.264
  180POPC   C3B 5889  18.334   9.489   7.964
  180POPC   C4B 5890  18.388   9.495   7.664
  181POPC   NC3 5891  40.029  12.886   9.464
  181POPC   PO4 5892  40.057  12.807   9.164
  181POPC   GL1 5893  40.036  12.840   8.864
  181POPC   GL2 5894  40.089  12.855   8.864
  181POPC   C1A 5895  39.970  12.834   8.564
  181POPC   D2A 5896  40.031  12.868   8.264
  181POPC   C3A 5897  39.982  12.839   7.964
  181POPC   C4A 5898  40.019  12.877   7.664
  181POPC   C1B 5899  40.205  12.934   8.564
  181POPC   C2B 5900  40.200  12.879   8.264
  181POPC   C3B 5901  40.200  12.939   7.964
  181POPC   C4B 5902  40.271  12.954   7.664
  182POPC   NC3 5903  40.741  14.382   9.464
  182POPC   PO4 5904  40.773  14.415   9.164
  182POPC   GL1 5905  40.747  14.393   8.864
  182POPC   GL2 5906  40.849  14.299   8.864
  182POPC   C1A 5907  40.826  14.370   8.564
  182POPC   D2A 5908  40.749  14.414   8.264
  182POPC   C3A 5909  40.759  14.441   7.964
  182POPC   C4A 5910  40.812  14.387   7.664
  182POPC   C1B 5911  40.829  14.140   8.564
  182POPC   C2B 5912  40.808  14.151   8.264
  182POPC   C3B 5913  40.788  14.157   7.964
  182POPC   C4B 5914  40.815  14.162   7.664
  183POPC   NC3 5915  31.448  16.707   9.464
  183POPC   PO4 5916  31.437  16.720   9.164
  183POPC   GL1 5917  31.436  16.763   8.864
  183POPC   GL2 5918  31.561  16.804   8.864
  183POPC   C1A 5919  31.449  16.691   8.564
  183POPC   D2A 5920  31.463  16.706   8.264
  183POPC   C3A 5921  31.454  16.729   7.964
  183POPC   C4A 5922  31.516  16.703   7.664
  183POPC   C1B 5923  31.588  16.939   8.564
  183POPC   C2B 5924  31.559  16.969   8.264
  183POPC   C3B 5925  31.578  16.969   7.964
  183POPC   C4B 5926  31.594  16.917   7.664
  184POPC   NC3 5927   2.024  12.082   9.464
  184POPC   PO4 5928   1.969  12.063   9.164
  184POPC   GL1 5929   2.030  12.114   8.864
  184POPC   GL2 5930   2.091  12.192   8.864
  184POPC   C1A 5931   2.036  12.041   8.564
  184POPC   D2A 5932   2.034  12.056   8.264
  184POPC   C3A 5933   2.008  12.044   7.964
  184POPC   C4A 5934   1.989  12.111   7.664
  184POPC   C1B 5935   2.147  12.269   8.564
  184POPC   C2B 5936   2.168  12.283   8.264
  184POPC   C3B 5937   2.156  12.241   7.964
  184POPC   C4B 5938   2.158  12.281   7.664
  185POPC   NC3 5939   6.665  37.695   9.464
  185POPC   PO4 5940   6.672  37.679   9.164
  185POPC   GL1 5941   6.605  37.670   8.864
  185POPC   GL2 5942   6.784  37.746   8.864
  185POPC   C1A 5943   6.653  37.660   8.564
  185POPC   D2A 5944   6.661  37.698   8.264
  185POPC   C3A 5945   6.680  37.636   7.964
  185POPC   C4A 5946   6.620  37.720   7.664
  185POPC   C1B 5947   6.861  37.746   8.564
  185POPC   C2B 5948   6.913  37.771   8.264
  185POPC   C3B 5949   6.864  37.758   7.964
  185POPC   C4B 5950   6.917  37.723   7.664
  186POPC   NC3 5951   4.300  39.258   9.464
  186POPC   PO4 5952   4.320  39.237   9.164
  186POPC   GL1 5953   4.362  39.235   8.864
  186POPC   GL2 5954   4.223  39.242   8.864
  186POPC   C1A 5955   4.333  39.182   8.564
  186POPC   D2A 5956   4.309  39.245   8.264
  186POPC   C3A 5957   4.315  39.276   7.964
  186POPC   C4A 5958   4.280  39.267   7.664
  186POPC   C1B 5959   4.068  39.261   8.564
  186POPC   C2B 5960   4.100  39.266   8.264
  186POPC   C3B 5961   4.046  39.253   7.964
  186POPC   C4B 5962   4.109  39.258   7.664
  187POPC   NC3 5963  35.337  38.473   9.464
  187POPC   PO4 5964  35.318  38.409   9.164
  187POPC   GL1 5965  35.307  38.408   8.864
  187POPC   GL2 5966  35.345  38.591   8.864
  187POPC   C1A 5967  35.399  38.429   8.564
  187POPC   D2A 5968  35.368  38.423   8.264
  187POPC   C3A 5969  35.311  38.426   7.964
  187POPC   C4A 5970  35.365  38.504   7.664
  187POPC   C1B 5971  35.300  38.735   8.564
  187POPC   C2B 5972  35.328  38.687   8.264
  187POPC   C3B 5973  35.315  38.685   7.964
  187POPC   C4B 5974  35.299  38.699   7.664
  188POPC   NC3 5975  12.111  42.331   9.464
  188POPC   PO4 5976  12.084  42.348   9.164
  188POPC   GL1 5977  12.028  42.312   8.864
  188POPC   GL2 5978  11.963  42.384   8.864
  188POPC   C1A 5979  12.039  42.292   8.564
  188POPC   D2A 5980  12.117  42.324   8.264
  188POPC   C3A 5981  12.083  42.367   7.964
  188POPC   C4A 5982  12.109  42.291   7.664
  188POPC   C1B 5983  11.809  42.430   8.564
  188POPC   C2B 5984  11.825  42.416   8.264
  188POPC   C3B 5985  11.871  42.429   7.964
  188POPC   C4B 5986  11.792  42.362   7.664
  189POPC   NC3 5987  12.033  43.932   9.464
  189POPC   PO4 5988  12.034  43.910   9.164
  189POPC   GL1 5989  12.054  43.837   8.864
  189POPC   GL2 5990  12.146  43.858   8.864
  189POPC   C1A 5991  12.064  43.873   8.564
  189POPC   D2A 5992  12.100  43.934   8.264
  189POPC   C3A 5993  12.119  43.857   7.964
  189POPC   C4A 5994  12.089  43.845   7.664
  189POPC   C1B 5995  12.274  43.799   8.564
  189POPC   C2B 5996  12.309  43.774   8.264
  189POPC   C3B 5997  12.315  43.828   7.964
  189POPC   C4B 5998  12.284  43.842   7.664
  190POPC   NC3 5999  36.166   1.943   9.464
  190POPC   PO4 6000  36.099   1.994   9.164
  190POPC   GL1 6001  36.109   1.963   8.864
  190POPC   GL2 6002  36.252   1.874   8.864
  190POPC   C1A 6003  36.088   2.037   8.564
  190POPC   D2A 6004  36.121   1.996   8.264
  190POPC   C3A 6005  36.147   2.024   7.964
  190POPC   C4A 6006  36.162   1.980   7.664
  190POPC   C1B 6007  36.331   1.887   8.564
  190POPC   C2B 6008  36.319   1.820   8.264
  190POPC   C3B 6009  36.373   1.862   7.964
  190POPC   C4B 6010  36.324   1.856   7.664
  191POPC   NC3 6011  23.709  23.758   9.464
  191POPC   PO4 6012  23.740  23.692   9.164
  191POPC   GL1 6013  23.734  23.716   8.864
  191POPC   GL2 6014  23.691  23.576   8.864
  191POPC   C1A 6015  23.745  23.738   8.564
  191POPC   D2A 6016  23.698  23.728   8.264
  191POPC   C3A 6017  23.695  23.740   7.964
  191POPC   C4A 6018  23.712  23.734   7.664
  191POPC   C1B 6019  23.651  23.523   8.564
  191POPC   C2B 6020  23.620  23.505   8.264
  191POPC   C3B 6021  23.622  23.518   7.964
  191POPC   C4B 6022  23.576  23.452   7.664
  192POPC   NC3 6023  44.686  37.656   9.464
  192POPC   PO4 6024  44.689  37.712   9.164
  192POPC   GL1 6025  44.615  37.643   8.864
  192POPC   GL2 6026  44.747  37.659   8.864
  192POPC   C1A 6027  44.698  37.686   8.564
  192POPC   D2A 6028  44.615  37.728   8.264
  192POPC   C3A 6029  44.679  37.648   7.964
  192POPC   C4A 6030  44.626  37.647   7.664
  192POPC   C1B 6031  44.932  37.625   8.564
  192POPC   C2B 6032  44.950  37.639   8.264
  192POPC   C3B 6033  44.907  37.612   7.964
  192POPC   C4B 6034  44.912  37.675   7.664
  193POPC   NC3 6035   8.147  24.534   9.464
  193POPC   PO4 6036   8.234  24.491   9.164
  193POPC   GL1 6037   8.238  24.525   8.864
  193POPC   GL2 6038   8.231  24.623   8.864
  193POPC   C1A 6039   8.229  24.484   8.564
  193POPC   D2A 6040   8.161  24.474   8.264
  193POPC   C3A 6041   8.200  24.502   7.964
  193POPC   C4A 6042   8.210  24.460   7.664
  193POPC   C1B 6043   8.277  24.689   8.564
  193POPC   C2B 6044   8.311  24.725   8.264
  193POPC   C3B 6045   8.283  24.707   7.964
  193POPC   C4B 6046   8.221  24.703   7.664
  194POPC   NC3 6047  36.086  16.720   9.464
  194POPC   PO4 6048  36.149  16.724   9.164
  194POPC   GL1 6049  36.099  16.735   8.864
  194POPC   GL2 6050  36.104  16.605   8.864
  194POPC   C1A 6051  36.130  16.762   8.564
  194POPC   D2A 6052  36.159  16.775   8.264
  194POPC   C3A 6053  36.105  16.729   7.964
  194POPC   C4A 6054  36.176  16.746   7.664
  194POPC   C1B 6055  36.024  16.473   8.564
  194POPC   C2B 6056  36.062  16.525   8.264
  194POPC   C3B 6057  36.026  16.501   7.964
  194POPC   C4B 6058  36.053  16.513   7.664
  195POPC   NC3 6059   3.500  16.685   9.464
  195POPC   PO4 6060   3.522  16.682   9.164
  195POPC   GL1 6061   3.532  16.705   8.864
  195POPC   GL2 6062   3.410  16.706   8.864
  195POPC   C1A 6063   3.505  16.780   8.564
  195POPC   D2A 6064   3.507  16.727   8.264
  195POPC   C3A 6065   3.577  16.722   7.964
  195POPC   C4A 6066   3.585  16.777   7.664
  195POPC   C1B 6067   3.362  16.635   8.564
  195POPC   C2B 6068   3.303  16.632   8.264
  195POPC   C3B 6069   3.324  16.611   7.964
  195POPC   C4B 6070   3.266  16.630   7.664
  196POPC   NC3 6071  13.670  39.258   9.464
  196POPC   PO4 6072  13.603  39.254   9.164
  196POPC   GL1 6073  13.662  39.232   8.864
  196POPC   GL2 6074  13.607  39.103   8.864
  196POPC   C1A 6075  13.588  39.207   8.564
  196POPC   D2A 6076  13.652  39.198   8.264
  196POPC   C3A 6077  13.631  39.266   7.964
  196POPC   C4A 6078  13.623  39.254   7.664
  196POPC   C1B 6079  13.558  39.032   8.564
  196POPC   C2B 6080  13.503  38.993   8.264
  196POPC   C3B 6081  13.499  39.044   7.964
  196POPC   C4B 6082  13.467  39.060   7.664
  197POPC   NC3 6083   5.844   8.992   9.464
  197POPC   PO4 6084   5.881   9.007   9.164
  197POPC   GL1 6085   5.862   8.947   8.864
  197POPC   GL2 6086   5.993   8.934   8.864
  197POPC   C1A 6087   5.874   8.939   8.564
  197POPC   D2A 6088   5.840   8.988   8.264
  197POPC   C3A 6089   5.891   9.012   7.964
  197POPC   C4A 6090   5.828   8.940   7.664
  197POPC   C1B 6091   6.048   8.856   8.564
  197POPC   C2B 6092   6.108   8.870   8.264
  197POPC   C3B 6093   6.053   8.813   7.964
  197POPC   C4B 6094   6.071   8.810   7.664
  198POPC   NC3 6095  41.516  20.564   9.464
  198POPC   PO4 6096  41.575  20.565   9.164
  198POPC   GL1 6097  41.558  20.634   8.864
  198POPC   GL2 6098  41.468  20.487   8.864
  198POPC   C1A 6099  41.594  20.565   8.564
  198POPC   D2A 6100  41.547  20.592   8.264
  198POPC   C3A 6101  41.545  20.622   7.964
  198POPC   C4A 6102  41.605  20.610   7.664
  198POPC   C1B 6103  41.440  20.439   8.564
  198POPC   C2B 6104  41.475  20.348   8.264
  198POPC   C3B 6105  41.466  20.386   7.964
  198POPC   C4B 6106  41.456  20.371   7.664
  199POPC   NC3 6107  28.394  27.606   9.464
  199POPC   PO4 6108  28.412  27.564   9.164
  199POPC   GL1 6109  28.381  27.613   8.864
  199POPC   GL2 6110  28.274  27.457   8.864
  199POPC   C1A 6111  28.340  27.590   8.564
  199POPC   D2A 6112  28.347  27.591   8.264
  199POPC   C3A 6113  28.390  27.568   7.964
  199POPC   C4A 6114  28.407  27.619   7.664
  199POPC   C1B 6115  28.219  27.354   8.564
  199POPC   C2B 6116  28.278  27.370   8.264
  199POPC   C3B 6117  28.267  27.427   7.964
  199POPC   C4B 6118  28.253  27.332   7.664
  200POPC   NC3 6119  30.666   1.241   9.464
  200POPC   PO4 6120  30.706   1.254   9.164
  200POPC   GL1 6121  30.716   1.232   8.864
  200POPC   GL2 6122  30.851   1.204   8.864
  200POPC   C1A 6123  30.740   1.212   8.564
  200POPC   D2A 6124  30.739   1.196   8.264
  200POPC   C3A 6125  30.742   1.225   7.964
  200POPC   C4A 6126  30.682   1.171   7.664
  200POPC   C1B 6127  30.967   1.224   8.564
  200POPC   C2B 6128  30.922   1.275   8.264
  200POPC   C3B 6129  30.906   1.280   7.964
  200POPC   C4B 6130  30.954   1.239   7.664
  201POPC   NC3 6131  44.647  43.149   9.464
  201POPC   PO4 6132  44.647  43.068   9.164
  201POPC   GL1 6133  44.651  43.096   8.864
  201POPC   GL2 6134  44.723  43.249   8.864
  201POPC   C1A 6135  44.699  43.077   8.564
  201POPC   D2A 6136  44.712  43.063   8.264
  201POPC   C3A 6137  44.703  43.137   7.964
  201POPC   C4A 6138  44.646  43.140   7.664
  201POPC   C1B 6139  44.786  43.384   8.564
  201POPC   C2B 6140  44.742  43.384   8.264
  201POPC   C3B 6141  44.786  43.351   7.964
  201POPC   C4B 6142  44.773  43.365   7.664
  202POPC   NC3 6143  43.907   6.664   9.464
  202POPC   PO4 6144  43.913   6.688   9.164
  202POPC   GL1 6145  43.861   6.601   8.864
  202POPC   GL2 6146  43.999   6.578   8.864
  202POPC   C1A 6147  43.870   6.659   8.564
  202POPC   D2A 6148  43.935   6.671   8.264
  202POPC   C3A 6149  43.909   6.687   7.964
  202POPC   C4A 6150  43.918   6.633   7.664
  202POPC   C1B 6151  44.056   6.559   8.564
  202POPC   C2B 6152  44.086   6.479   8.264
  202POPC   C3B 6153  44.109   6.509   7.964
  202POPC   C4B 6154  44.075   6.550   7.664
  203POPC   NC3 6155  15.147  29.941   9.464
  203POPC   PO4 6156  15.163  29.962   9.164
  203POPC   GL1 6157  15.167  29.910   8.864
  203POPC   GL2 6158  15.033  29.858   8.864
  203POPC   C1A 6159  15.185  29.893   8.564
  203POPC   D2A 6160  15.171  29.962   8.264
  203POPC   C3A 6161  15.200  29.968   7.964
  203POPC   C4A 6162  15.183  29.968   7.664
  203POPC   C1B 6163  14.941  29.874   8.564
  203POPC   C2B 6164  14.929  29.873   8.264
  203POPC   C3B 6165  14.932  29.883   7.964
  203POPC   C4B 6166  14.991  29.853   7.664
  204POPC   NC3 6167   3.551   5.919   9.464
  204POPC   PO4 6168   3.502   5.908   9.164
  204POPC   GL1 6169   3.570   5.907   8.864
  204POPC   GL2 6170   3.430   5.917   8.864
  204POPC   C1A 6171   3.579   5.917   8.564
  204POPC   D2A 6172   3.502   5.888   8.264
  204POPC   C3A 6173   3.509   5.893   7.964
  204POPC   C4A 6174   3.540   5.883   7.664
  204POPC   C1B 6175   3.342   6.049   8.564
  204POPC   C2B 6176   3.339   6.072   8.264
  204POPC   C3B 6177   3.360   6.017   7.964
  204POPC   C4B 6178   3.327   6.006   7.664
  205POPC   NC3 6179  12.894  32.226   9.464
  205POPC   PO4 6180  12.826  32.247   9.164
  205POPC   GL1 6181  12.876  32.266   8.864
  205POPC   GL2 6182  12.927  32.207   8.864
  205POPC   C1A 6183  12.902  32.275   8.564
  205POPC   D2A 6184  12.819  32.266   8.264
  205POPC   C3A 6185  12.840  32.250   7.964
  205POPC   C4A 6186  12.852  32.218   7.664
  205POPC   C1B 6187  13.090  32.137   8.564
  205POPC   C2B 6188  13.093  32.171   8.264
  205POPC   C3B 6189  13.129  32.131   7.964
  205POPC   C4B 6190  13.045  32.212   7.664
  206POPC   NC3 6191   5.105  42.347   9.464
  206POPC   PO4 6192   5.079  42.325   9.164
  206POPC   GL1 6193   5.128  42.301   8.864
  206POPC   GL2 6194   5.139  42.235   8.864
  206POPC   C1A 6195   5.089  42.319   8.564
  206POPC   D2A 6196   5.136  42.342   8.264
  206POPC   C3A 6197   5.049  42.330   7.964
  206POPC   C4A 6198   5.085  42.320   7.664
  206POPC   C1B 6199   5.128  42.075   8.564
  206POPC   C2B 6200   5.132  42.110   8.264
  206POPC   C3B 6201   5.193  42.062   7.964
  206POPC   C4B 6202   5.121  42.122   7.664
  207POPC   NC3 6203  25.230  12.824   9.464
  207POPC   PO4 6204  25.290  12.814   9.164
  207POPC   GL1 6205  25.262  12.824   8.864
  207POPC   GL2 6206  25.352  12.887   8.864
  207POPC   C1A 6207  25.239  12.897   8.564
  207POPC   D2A 6208  25.283  12.895   8.264
  207POPC   C3A 6209  25.262  12.831   7.964
  207POPC   C4A 6210  25.300  12.836   7.664
  207POPC   C1B 6211  25.443  12.957   8.564
  207POPC   C2B 6212  25.460  12.946   8.264
  207POPC   C3B 6213  25.498  12.921   7.964
  207POPC   C4B 6214  25.480  12.923   7.664
  208POPC   NC3 6215  44.688  22.959   9.464
  208POPC   PO4 6216  44.667  22.975   9.164
  208POPC   GL1 6217  44.619  22.913   8.864
  208POPC   GL2 6218  44.710  23.012   8.864
  208POPC   C1A 6219  44.629  22.967   8.564
  208POPC   D2A 6220  44.652  22.895   8.264
  208POPC   C3A 6221  44.644  22.969   7.964
  208POPC   C4A 6222  44.636  22.956   7.664
  208POPC   C1B 6223  44.691  23.172   8.564
  208POPC   C2B 6224  44.693  23.182   8.264
  208POPC   C3B 6225  44.721  23.188   7.964
  208POPC   C4B 6226  44.708  23.155   7.664
  209POPC   NC3 6227  26.070  12.877   9.464
  209POPC   PO4 6228  26.069  12.848   9.164
  209POPC   GL1 6229  26.056  12.825   8.864
  209POPC   GL2 6230  26.206  12.796   8.864
  209POPC   C1A 6231  26.062  12.807   8.564
  209POPC   D2A 6232  26.015  12.842   8.264
  209POPC   C3A 6233  26.023  12.835   7.964
  209POPC   C4A 6234  26.026  12.843   7.664
  209POPC   C1B 6235  26.263  12.782   8.564
  209POPC   C2B 6236  26.283  12.773   8.264
  209POPC   C3B 6237  26.332  12.804   7.964
  209POPC   C4B 6238  26.322  12.865   7.664
  210POPC   NC3 6239   6.659   1.182   9.464
  210POPC   PO4 6240   6.650   1.256   9.164
  210POPC   GL1 6241   6.679   1.254   8.864
  210POPC   GL2 6242   6.734   1.190   8.864
  210POPC   C1A 6243   6.612   1.171   8.564
  210POPC   D2A 6244   6.604   1.190   8.264
  210POPC   C3A 6245   6.659   1.227   7.964
  210POPC   C4A 6246   6.690   1.201   7.664
  210POPC   C1B 6247   6.869   1.152   8.564
  210POPC   C2B 6248   6.884   1.113   8.264
  210POPC   C3B 6249   6.923   1.193   7.964
  210POPC   C4B 6250   6.916   1.111   7.664
  211POPC   NC3 6251   7.378  18.238   9.464
  211POPC   PO4 6252   7.404  18.284   9.164
  211POPC   GL1 6253   7.412  18.325   8.864
  211POPC   GL2 6254   7.438  18.150   8.864
  211POPC   C1A 6255   7.438  18.269   8.564
  211POPC   D2A 6256   7.427  18.275   8.264
  211POPC   C3A 6257   7.430  18.273   7.964
  211POPC   C4A 6258   7.392  18.248   7.664
  211POPC   C1B 6259   7.583  18.081   8.564
  211POPC   C2B 6260   7.534  18.041   8.264
  211POPC   C3B 6261   7.492  18.047   7.964
  211POPC   C4B 6262   7.558  18.037   7.664
  212POPC   NC3 6263  12.852  35.400   9.464
  212POPC   PO4 6264  12.897  35.358   9.164
  212POPC   GL1 6265  12.889  35.384   8.864
  212POPC   GL2 6266  12.980  35.367   8.864
  212POPC   C1A 6267  12.827  35.346   8.564
  212POPC   D2A 6268  12.879  35.396   8.264
  212POPC   C3A 6269  12.854  35.336   7.964
  212POPC   C4A 6270  12.818  35.330   7.664
  212POPC   C1B 6271  13.125  35.354   8.564
  212POPC   C2B 6272  13.067  35.368   8.264
  212POPC   C3B 6273  13.096  35.393   7.964
  212POPC   C4B 6274  13.074  35.372   7.664
  213POPC   NC3 6275  34.557   5.047   9.464
  213POPC   PO4 6276  34.578   5.106   9.164
  213POPC   GL1 6277  34.544   5.066   8.864
  213POPC   GL2 6278  34.744   5.069   8.864
  213POPC   C1A 6279  34.578   5.081   8.564
  213POPC   D2A 6280  34.588   5.052   8.264
  213POPC   C3A 6281  34.529   5.073   7.964
  213POPC   C4A 6282  34.624   5.101   7.664
  213POPC   C1B 6283  34.791   5.018   8.564
  213POPC   C2B 6284  34.853   5.073   8.264
  213POPC   C3B 6285  34.832   5.035   7.964
  213POPC   C4B 6286  34.824   5.092   7.664
  214POPC   NC3 6287   2.034  20.600   9.464
  214POPC   PO4 6288   1.974  20.599   9.164
  214POPC   GL1 6289   2.000  20.622   8.864
  214POPC   GL2 6290   1.935  20.735   8.864
  214POPC   C1A 6291   2.032  20.583   8.564
  214POPC   D2A 6292   2.032  20.611   8.264
  214POPC   C3A 6293   2.004  20.581   7.964
  214POPC   C4A 6294   2.020  20.598   7.664
  214POPC   C1B 6295   1.990  20.839   8.564
  214POPC   C2B 6296   1.985  20.840   8.264
  214POPC   C3B 6297   1.996  20.848   7.964
  214POPC   C4B 6298   1.932  20.836   7.664
  215POPC   NC3 6299  15.180  38.442   9.464
  215POPC   PO4 6300  15.154  38.484   9.164
  215POPC   GL1 6301  15.217  38.485   8.864
  215POPC   GL2 6302  15.228  38.354   8.864
  215POPC   C1A 6303  15.191  38.451   8.564
  215POPC   D2A 6304  15.161  38.461   8.264
  215POPC   C3A 6305  15.202  38.415   7.964
  215POPC   C4A 6306  15.190  38.496   7.664
  215POPC   C1B 6307  15.307  38.204   8.564
  215POPC   C2B 6308  15.318  38.230   8.264
  215POPC   C3B 6309  15.280  38.190   7.964
  215POPC   C4B 6310  15.286  38.202   7.664
  216POPC   NC3 6311  12.065  14.382   9.464
  216POPC   PO4 6312  12.100  14.439   9.164
  216POPC   GL1 6313  12.120  14.356   8.864
  216POPC   GL2 6314  11.955  14.301   8.864
  216POPC   C1A 6315  12.117  14.418   8.564
  216POPC   D2A 6316  12.033  14.357   8.264
  216POPC   C3A 6317  12.045  14.382   7.964
  216POPC   C4A 6318  12.063  14.365   7.664
  216POPC   C1B 6319  11.890  14.295   8.564
  216POPC   C2B 6320  11.862  14.217   8.264
  216POPC   C3B 6321  11.834  14.222   7.964
  216POPC   C4B 6322  11.907  14.279   7.664
  217POPC   NC3 6323  29.919  33.049   9.464
  217POPC   PO4 6324  29.904  33.031   9.164
  217POPC   GL1 6325  29.937  33.053   8.864
  217POPC   GL2 6326  29.769  33.045   8.864
  217POPC   C1A 6327  29.947  32.993   8.564
  217POPC   D2A 6328  29.879  32.977   8.264
  217POPC   C3A 6329  29.887  33.017   7.964
  217POPC   C4A 6330  29.916  32.977   7.664
  217POPC   C1B 6331  29.660  33.071   8.564
  217POPC   C2B 6332  29.657  33.110   8.264
  217POPC   C3B 6333  29.729  33.059   7.964
  217POPC   C4B 6334  29.701  33.076   7.664
  218POPC   NC3 6335  29.968  22.934   9.464
  218POPC   PO4 6336  29.937  22.900   9.164
  218POPC   GL1 6337  29.893  22.984   8.864
  218POPC   GL2 6338  29.811  22.835   8.864
  218POPC   C1A 6339  29.880  22.947   8.564
  218POPC   D2A 6340  29.913  22.908   8.264
  218POPC   C3A 6341  29.894  22.903   7.964
  218POPC   C4A 6342  29.935  22.936   7.664
  218POPC   C1B 6343  29.811  22.697   8.564
  218POPC   C2B 6344  29.739  22.684   8.264
  218POPC   C3B 6345  29.785  22.765   7.964
  218POPC   C4B 6346  29.755  22.726   7.664
  219POPC   NC3 6347  36.905   7.388   9.464
  219POPC   PO4 6348  36.869   7.460   9.164
  219POPC   GL1 6349  36.905   7.414   8.864
  219POPC   GL2 6350  36.790   7.348   8.864
  219POPC   C1A 6351  36.921   7.406   8.564
  219POPC   D2A 6352  36.861   7.414   8.264
  219POPC   C3A 6353  36.899   7.458   7.964
  219POPC   C4A 6354  36.894   7.423   7.664
  219POPC   C1B 6355  36.699   7.282   8.564
  219POPC   C2B 6356  36.728   7.251   8.264
  219POPC   C3B 6357  36.725   7.301   7.964
  219POPC   C4B 6358  36.685   7.256   7.664
  220POPC   NC3 6359   1.224   2.006   9.464
  220POPC   PO4 6360   1.165   1.952   9.164
  220POPC   GL1 6361   1.263   1.941   8.864
  220POPC   GL2 6362   1.330   2.041   8.864
  220POPC   C1A 6363   1.172   1.966   8.564
  220POPC   D2A 6364   1.166   1.992   8.264
  220POPC   C3A 6365   1.193   1.959   7.964
  220POPC   C4A 6366   1.251   2.004   7.664
  220POPC   C1B 6367   1.475   2.117   8.564
  220POPC   C2B 6368   1.431   2.149   8.264
  220POPC   C3B 6369   1.422   2.095   7.964
  220POPC   C4B 6370   1.435   2.122   7.664
  221POPC   NC3 6371  11.266  36.926   9.464
  221POPC   PO4 6372  11.337  36.940   9.164
  221POPC   GL1 6373  11.279  36.884   8.864
  221POPC   GL2 6374  11.459  36.854   8.864
  221POPC   C1A 6375  11.281  36.939   8.564
  221POPC   D2A 6376  11.336  36.856   8.264
  221POPC   C3A 6377  11.294  36.892   7.964
  221POPC   C4A 6378  11.312  36.937   7.664
  221POPC   C1B 6379  11.509  36.851   8.564
  221POPC   C2B 6380  11.512  36.903   8.264
  221POPC   C3B 6381  11.578  36.865   7.964
  221POPC   C4B 6382  11.558  36.901   7.664
  222POPC   NC3 6383  21.435   3.544   9.464
  222POPC   PO4 6384  21.338   3.538   9.164
  222POPC   GL1 6385  21.407   3.505   8.864
  222POPC   GL2 6386  21.294   3.553   8.864
  222POPC   C1A 6387  21.379   3.559   8.564
  222POPC   D2A 6388  21.384   3.558   8.264
  222POPC   C3A 6389  21.392   3.510   7.964
  222POPC   C4A 6390  21.384   3.577   7.664
  222POPC   C1B 6391  21.143   3.674   8.564
  222POPC   C2B 6392  21.208   3.690   8.264
  222POPC   C3B 6393  21.151   3.666   7.964
  222POPC   C4B 6394  21.183   3.657   7.664
  223POPC   NC3 6395  29.961  32.219   9.464
  223POPC   PO4 6396  29.943  32.232   9.164
  223POPC   GL1 6397  29.928  32.221   8.864
  223POPC   GL2 6398  29.837  32.318   8.864
  223POPC   C1A 6399  29.934  32.227   8.564
  223POPC   D2A 6400  29.934  32.226   8.264
  223POPC   C3A 6401  29.945  32.262   7.964
  223POPC   C4A 6402  29.941  32.258   7.664
  223POPC   C1B 6403  29.789  32.493   8.564
  223POPC   C2B 6404  29.806  32.476   8.264
  223POPC   C3B 6405  29.781  32.483   7.964
  223POPC   C4B 6406  29.821  32.417   7.664
  224POPC   NC3 6407   1.187  44.685   9.464
  224POPC   PO4 6408   1.181  44.656   9.164
  224POPC   GL1 6409   1.218  44.662   8.864
  224POPC   GL2 6410   1.297  44.700   8.864
  224POPC   C1A 6411   1.208  44.664   8.564
  224POPC   D2A 6412   1.261  44.679   8.264
  224POPC   C3A 6413   1.231  44.671   7.964
  224POPC   C4A 6414   1.169  44.701   7.664
  224POPC   C1B 6415   1.460  44.776   8.564
  224POPC   C2B 6416   1.465  44.735   8.264
  224POPC   C3B 6417   1.416  44.789   7.964
  224POPC   C4B 6418   1.401  44.747   7.664
  225POPC   NC3 6419  28.387  15.909   9.464
  225POPC   PO4 6420  28.395  15.953   9.164
  225POPC   GL1 6421  28.412  15.940   8.864
  225POPC   GL2 6422  28.283  15.982   8.864
  225POPC   C1A 6423  28.326  15.968   8.564
  225POPC   D2A 6424  28.413  15.953   8.264
  225POPC   C3A 6425  28.405  15.924   7.964
  225POPC   C4A 6426  28.323  15.997   7.664
  225POPC   C1B 6427  28.119  15.902   8.564
  225POPC   C2B 6428  28.155  15.880   8.264
  225POPC   C3B 6429  28.156  15.943   7.964
  225POPC   C4B 6430  28.146  15.968   7.664
  226POPC   NC3 6431  19.031  36.918   9.464
  226POPC   PO4 6432  19.060  36.860   9.164
  226POPC   GL1 6433  19.013  36.881   8.864
  226POPC   GL2 6434  19.158  36.958   8.864
  226POPC   C1A 6435  19.096  36.912   8.564
  226POPC   D2A 6436  19.090  36.915   8.264
  226POPC   C3A 6437  19.043  36.863   7.964
  226POPC   C4A 6438  19.039  36.936   7.664
  226POPC   C1B 6439  19.233  37.053   8.564
  226POPC   C2B 6440  19.182  37.127   8.264
  226POPC   C3B 6441  19.224  37.055   7.964
  226POPC   C4B 6442  19.227  37.076   7.664
  227POPC   NC3 6443  19.043  15.211   9.464
  227POPC   PO4 6444  19.013  15.226   9.164
  227POPC   GL1 6445  19.022  15.210   8.864
  227POPC   GL2 6446  19.126  15.115   8.864
  227POPC   C1A 6447  19.040  15.130   8.564
  227POPC   D2A 6448  19.041  15.184   8.264
  227POPC   C3A 6449  19.092  15.201   7.964
  227POPC   C4A 6450  19.097  15.146   7.664
  227POPC   C1B 6451  19.227  14.920   8.564
  227POPC   C2B 6452  19.220  14.926   8.264
  227POPC   C3B 6453  19.167  14.990   7.964
  227POPC   C4B 6454  19.185  14.955   7.664
  228POPC   NC3 6455  40.012  29.892   9.464
  228POPC   PO4 6456  40.028  29.887   9.164
  228POPC   GL1 6457  39.957  29.946   8.864
  228POPC   GL2 6458  40.063  29.784   8.864
  228POPC   C1A 6459  39.978  29.917   8.564
  228POPC   D2A 6460  40.006  29.879   8.264
  228POPC   C3A 6461  39.964  29.901   7.964
  228POPC   C4A 6462  40.009  29.960   7.664
  228POPC   C1B 6463  40.078  29.669   8.564
  228POPC   C2B 6464  40.050  29.631   8.264
  228POPC   C3B 6465  40.066  29.690   7.964
  228POPC   C4B 6466  40.086  29.639   7.664
  229POPC   NC3 6467  39.959  22.185   9.464
  229POPC   PO4 6468  39.965  22.149   9.164
  229POPC   GL1 6469  39.958  22.138   8.864
  229POPC   GL2 6470  39.904  22.098   8.864
  229POPC   C1A 6471  40.001  22.139   8.564
  229POPC   D2A 6472  40.051  22.180   8.264
  229POPC   C3A 6473  40.038  22.178   7.964
  229POPC   C4A 6474  40.040  22.124   7.664
  229POPC   C1B 6475  39.722  22.107   8.564
  229POPC   C2B 6476  39.786  22.130   8.264
  229POPC   C3B 6477  39.808  22.094   7.964
  229POPC   C4B 6478  39.736  22.151   7.664
  230POPC   NC3 6479  21.382  32.278   9.464
  230POPC   PO4 6480  21.342  32.289   9.164
  230POPC   GL1 6481  21.380  32.262   8.864
  230POPC   GL2 6482  21.443  32.290   8.864
  230POPC   C1A 6483  21.381  32.272   8.564
  230POPC   D2A 6484  21.383  32.253   8.264
  230POPC   C3A 6485  21.365  32.239   7.964
  230POPC   C4A 6486  21.383  32.223   7.664
  230POPC   C1B 6487  21.583  32.466   8.564
  230POPC   C2B 6488  21.557  32.467   8.264
  230POPC   C3B 6489  21.523  32.393   7.964
  230POPC   C4B 6490  21.533  32.462   7.664
  231POPC   NC3 6491   0.429   8.147   9.464
  231POPC   PO4 6492   0.471   8.233   9.164
  231POPC   GL1 6493   0.404   8.222   8.864
  231POPC   GL2 6494   0.583   8.173   8.864
  231POPC   C1A 6495   0.411   8.209   8.564
  231POPC   D2A 6496   0.473   8.211   8.264
  231POPC   C3A 6497   0.483   8.194   7.964
  231POPC   C4A 6498   0.473   8.165   7.664
  231POPC   C1B 6499   0.709   8.116   8.564
  231POPC   C2B 6500   0.643   8.130   8.264
  231POPC   C3B 6501   0.680   8.098   7.964
  231POPC   C4B 6502   0.664   8.153   7.664
  232POPC   NC3 6503   7.378   2.792   9.464
  232POPC   PO4 6504   7.470   2.731   9.164
  232POPC   GL1 6505   7.441   2.734   8.864
  232POPC   GL2 6506   7.558   2.797   8.864
  232POPC   C1A 6507   7.386   2.742   8.564
  232POPC   D2A 6508   7.469   2.796   8.264
  232POPC   C3A 6509   7.386   2.777   7.964
  232POPC   C4A 6510   7.419   2.785   7.664
  232POPC   C1B 6511   7.672   2.898   8.564
  232POPC   C2B 6512   7.673   2.872   8.264
  232POPC   C3B 6513   7.670   2.859   7.964
  232POPC   C4B 6514   7.617   2.836   7.664
  233POPC   NC3 6515  16.730  33.063   9.464
  233POPC   PO4 6516  16.688  33.062   9.164
  233POPC   GL1 6517  16.747  32.987   8.864
  233POPC   GL2 6518  16.783  32.913   8.864
  233POPC   C1A 6519  16.706  33.052   8.564
  233POPC   D2A 6520  16.756  33.026   8.264
  233POPC   C3A 6521  16.705  32.988   7.964
  233POPC   C4A 6522  16.726  33.023   7.664
  233POPC   C1B 6523  16.857  32.819   8.564
  233POPC   C2B 6524  16.790  32.751   8.264
  233POPC   C3B 6525  16.870  32.790   7.964
  233POPC   C4B 6526  16.789  32.783   7.664
  234POPC   NC3 6527  18.288  43.910   9.464
  234POPC   PO4 6528  18.281  43.899   9.164
  234POPC   GL1 6529  18.301  43.864   8.864
  234POPC   GL2 6530  18.340  43.971   8.864
  234POPC   C1A 6531  18.265  43.852   8.564
  234POPC   D2A 6532  18.261  43.912   8.264
  234POPC   C3A 6533  18.262  43.860   7.964
  234POPC   C4A 6534  18.236  43.854   7.664
  234POPC   C1B 6535  18.337  44.158   8.564
  234POPC   C2B 6536  18.390  44.112   8.264
  234POPC   C3B 6537  18.361  44.145   7.964
  234POPC   C4B 6538  18.397  44.079   7.664
  235POPC   NC3 6539  40.013  15.163   9.464
  235POPC   PO4 6540  40.044  15.174   9.164
  235POPC   GL1 6541  40.051  15.157   8.864
  235POPC   GL2 6542  39.906  15.218   8.864
  235POPC   C1A 6543  39.961  15.187   8.564
  235POPC   D2A 6544  40.040  15.229   8.264
  235POPC   C3A 6545  40.043  15.199   7.964
  235POPC   C4A 6546  40.031  15.136   7.664
  235POPC   C1B 6547  39.788  15.251   8.564
  235POPC   C2B 6548  39.745  15.299   8.264
  235POPC   C3B 6549  39.737  15.229   7.964
  235POPC   C4B 6550  39.821  15.311   7.664
  236POPC   NC3 6551  27.601   8.221   9.464
  236POPC   PO4 6552  27.578   8.193   9.164
  236POPC   GL1 6553  27.602   8.185   8.864
  236POPC   GL2 6554  27.549   8.329   8.864
  236POPC   C1A 6555  27.609   8.148   8.564
  236POPC   D2A 6556  27.588   8.189   8.264
  236POPC   C3A 6557  27.578   8.243   7.964
  236POPC   C4A 6558  27.567   8.177   7.664
  236POPC   C1B 6559  27.455   8.431   8.564
  236POPC   C2B 6560  27.498   8.404   8.264
  236POPC   C3B 6561  27.464   8.360   7.964
  236POPC   C4B 6562  27.487   8.418   7.664
  237POPC   NC3 6563  29.123   2.721   9.464
  237POPC   PO4 6564  29.144   2.759   9.164
  237POPC   GL1 6565  29.129   2.721   8.864
  237POPC   GL2 6566  29.174   2.888   8.864
  237POPC   C1A 6567  29.165   2.767   8.564
  237POPC   D2A 6568  29.110   2.779   8.264
  237POPC   C3A 6569  29.188   2.744   7.964
  237POPC   C4A 6570  29.098   2.753   7.664
  237POPC   C1B 6571  29.227   3.012   8.564
  237POPC   C2B 6572  29.230   3.019   8.264
  237POPC   C3B 6573  29.255   2.995   7.964
  237POPC   C4B 6574  29.249   3.014   7.664
  238POPC   NC3 6575  26.090  33.791   9.464
  238POPC   PO4 6576  26.018  33.780   9.164
  238POPC   GL1 6577  26.085  33.756   8.864
  238POPC   GL2 6578  25.995  33.932   8.864
  238POPC   C1A 6579  26.014  33.784   8.564
  238POPC   D2A 6580  26.041  33.796   8.264
  238POPC   C3A 6581  26.002  33.847   7.964
  238POPC   C4A 6582  26.036  33.786   7.664
  238POPC   C1B 6583  25.934  34.009   8.564
  238POPC   C2B 6584  25.939  34.058   8.264
  238POPC   C3B 6585  25.953  33.991   7.964
  238POPC   C4B 6586  25.894  33.995   7.664
  239POPC   NC3 6587  41.532  26.866   9.464
  239POPC   PO4 6588  41.562  26.819   9.164
  239POPC   GL1 6589  41.534  26.790   8.864
  239POPC   GL2 6590  41.540  26.677   8.864
  239POPC   C1A 6591  41.519  26.774   8.564
  239POPC   D2A 6592  41.555  26.863   8.264
  239POPC   C3A 6593  41.595  26.807   7.964
  239POPC   C4A 6594  41.520  26.854   7.664
  239POPC   C1B 6595  41.616  26.615   8.564
  239POPC   C2B 6596  41.607  26.616   8.264
  239POPC   C3B 6597  41.605  26.612   7.964
  239POPC   C4B 6598  41.634  26.525   7.664
  240POPC   NC3 6599  34.558   6.621   9.464
  240POPC   PO4 6600  34.528   6.626   9.164
  240POPC   GL1 6601  34.533   6.599   8.864
  240POPC   GL2 6602  34.511   6.743   8.864
  240POPC   C1A 6603  34.610   6.619   8.564
  240POPC   D2A 6604  34.526   6.630   8.264
  240POPC   C3A 6605  34.619   6.656   7.964
  240POPC   C4A 6606  34.606   6.678   7.664
  240POPC   C1B 6607  34.389   6.834   8.564
  240POPC   C2B 6608  34.376   6.857   8.264
  240POPC   C3B 6609  34.412   6.779   7.964
  240POPC   C4B 6610  34.356   6.790   7.664
  241POPC   NC3 6611  18.281  39.193   9.464
  241POPC   PO4 6612  18.280  39.257   9.164
  241POPC   GL1 6613  18.286  39.228   8.864
  241POPC   GL2 6614  18.283  39.368   8.864
  241POPC   C1A 6615  18.271  39.262   8.564
  241POPC   D2A 6616  18.328  39.212   8.264
  241POPC   C3A 6617  18.307  39.277   7.964
  241POPC   C4A 6618  18.265  39.183   7.664
  241POPC   C1B 6619  18.326  39.444   8.564
  241POPC   C2B 6620  18.373  39.461   8.264
  241POPC   C3B 6621  18.356  39.437   7.964
  241POPC   C4B 6622  18.391  39.431   7.664
  242POPC   NC3 6623   1.951   7.440   9.464
  242POPC   PO4 6624   2.039   7.443   9.164
  242POPC   GL1 6625   1.973   7.430   8.864
  242POPC   GL2 6626   1.909   7.574   8.864
  242POPC   C1A 6627   2.014   7.376   8.564
  242POPC   D2A 6628   1.946   7.452   8.264
  242POPC   C3A 6629   1.994   7.403   7.964
  242POPC   C4A 6630   2.035   7.460   7.664
  242POPC   C1B 6631   1.918   7.635   8.564
  242POPC   C2B 6632   1.919   7.695   8.264
  242POPC   C3B 6633   1.872   7.612   7.964
  242POPC   C4B 6634   1.844   7.670   7.664
  243POPC   NC3 6635  29.951  17.550   9.464
  243POPC   PO4 6636  29.918  17.514   9.164
  243POPC   GL1 6637  29.969  17.513   8.864
  243POPC   GL2 6638  29.855  17.625   8.864
  243POPC   C1A 6639  29.915  17.457   8.564
  243POPC   D2A 6640  29.965  17.488   8.264
  243POPC   C3A 6641  29.921  17.545   7.964
  243POPC   C4A 6642  29.957  17.460   7.664
  243POPC   C1B 6643  29.795  17.664   8.564
  243POPC   C2B 6644  29.787  17.714   8.264
  243POPC   C3B 6645  29.762  17.641   7.964
  243POPC   C4B 6646  29.732  17.650   7.664
  244POPC   NC3 6647   2.022   8.223   9.464
  244POPC   PO4 6648   1.942   8.153   9.164
  244POPC   GL1 6649   2.016   8.244   8.864
  244POPC   GL2 6650   2.120   8.100   8.864
  244POPC   C1A 6651   2.032   8.224   8.564
  244POPC   D2A 6652   1.994   8.228   8.264
  244POPC   C3A 6653   2.017   8.158   7.964
  244POPC   C4A 6654   2.007   8.218   7.664
  244POPC   C1B 6655   2.199   8.088   8.564
  244POPC   C2B 6656   2.182   8.090   8.264
  244POPC   C3B 6657   2.182   8.089   7.964
  244POPC   C4B 6658   2.162   8.086   7.664
  245POPC   NC3 6659   3.530   2.021   9.464
  245POPC   PO4 6660   3.507   2.001   9.164
  245POPC   GL1 6661   3.535   2.027   8.864
  245POPC   GL2 6662   3.625   1.954   8.864
  245POPC   C1A 6663   3.542   1.957   8.564
  245POPC   D2A 6664   3.586   1.990   8.264
  245POPC   C3A 6665   3.492   2.006   7.964
  245POPC   C4A 6666   3.514   1.941   7.664
  245POPC   C1B 6667   3.800   1.814   8.564
  245POPC   C2B 6668   3.767   1.875   8.264
  245POPC   C3B 6669   3.745   1.883   7.964
  245POPC   C4B 6670   3.772   1.880   7.664
  246POPC   NC3 6671  35.341  36.880   9.464
  246POPC   PO4 6672  35.330  36.862   9.164
  246POPC   GL1 6673  35.328  36.951   8.864
  246POPC   GL2 6674  35.361  36.804   8.864
  246POPC   C1A 6675  35.311  36.943   8.564
  246POPC   D2A 6676  35.378  36.925   8.264
  246POPC   C3A 6677  35.344  36.907   7.964
  246POPC   C4A 6678  35.374  36.937   7.664
  246POPC   C1B 6679  35.431  36.730   8.564
  246POPC   C2B 6680  35.479  36.662   8.264
  246POPC   C3B 6681  35.506  36.654   7.964
  246POPC   C4B 6682  35.483  36.680   7.664
  247POPC   NC3 6683  20.589  42.370   9.464
  247POPC   PO4 6684  20.643  42.335   9.164
  247POPC   GL1 6685  20.576  42.315   8.864
  247POPC   GL2 6686  20.581  42.252   8.864
  247POPC   C1A 6687  20.636  42.324   8.564
  247POPC   D2A 6688  20.571  42.295   8.264
  247POPC   C3A 6689  20.569  42.363   7.964
  247POPC   C4A 6690  20.623  42.327   7.664
  247POPC   C1B 6691  20.497  42.107   8.564
  247POPC   C2B 6692  20.467  42.137   8.264
  247POPC   C3B 6693  20.458  42.130   7.964
  247POPC   C4B 6694  20.508  42.161   7.664
  248POPC   NC3 6695  40.055  25.288   9.464
  248POPC   PO4 6696  39.989  25.283   9.164
  248POPC   GL1 6697  40.010  25.242   8.864
  248POPC   GL2 6698  39.971  25.209   8.864
  248POPC   C1A 6699  40.048  25.240   8.564
  248POPC   D2A 6700  39.994  25.264   8.264
  248POPC   C3A 6701  39.996  25.251   7.964
  248POPC   C4A 6702  39.967  25.281   7.664
  248POPC   C1B 6703  39.886  25.085   8.564
  248POPC   C2B 6704  39.896  25.070   8.264
  248POPC   C3B 6705  39.904  25.077   7.964
  248POPC   C4B 6706  39.844  25.023   7.664
  249POPC   NC3 6707  15.993  26.781   9.464
  249POPC   PO4 6708  15.959  26.814   9.164
  249POPC   GL1 6709  15.990  26.859   8.864
  249POPC   GL2 6710  16.027  26.674   8.864
  249POPC   C1A 6711  16.005  26.830   8.564
  249POPC   D2A 6712  15.950  26.775   8.264
  249POPC   C3A 6713  15.933  26.813   7.964
  249POPC   C4A 6714  15.961  26.817   7.664
  249POPC   C1B 6715  16.022  26.574   8.564
  249POPC   C2B 6716  16.006  26.551   8.264
  249POPC   C3B 6717  16.050  26.610   7.964
  249POPC   C4B 6718  16.037  26.528   7.664
  250POPC   NC3 6719   3.525  14.400   9.464
  250POPC   PO4 6720   3.555  14.417   9.164
  250POPC   GL1 6721   3.498  14.422   8.864
  250POPC   GL2 6722   3.682  14.403   8.864
  250POPC   C1A 6723   3.495  14.391   8.564
  250POPC   D2A 6724   3.542  14.380   8.264
  250POPC   C3A 6725   3.547  14.396   7.964
  250POPC   C4A 6726   3.495  14.445   7.664
  250POPC   C1B 6727   3.800  14.356   8.564
  250POPC   C2B 6728   3.803  14.289   8.264
  250POPC   C3B 6729   3.743  14.363   7.964
  250POPC   C4B 6730   3.820  14.293   7.664
  251POPC   NC3 6731  27.548  16.697   9.464
  251POPC   PO4 6732  27.584  16.724   9.164
  251POPC   GL1 6733  27.545  16.736   8.864
  251POPC   GL2 6734  27.526  16.764   8.864
  251POPC   C1A 6735  27.567  16.767   8.564
  251POPC   D2A 6736  27.640  16.770   8.264
  251POPC   C3A 6737  27.577  16.687   7.964
  251POPC   C4A 6738  27.618  16.686   7.664
  251POPC   C1B 6739  27.372  16.911   8.564
  251POPC   C2B 6740  27.377  16.883   8.264
  251POPC   C3B 6741  27.385  16.848   7.964
  251POPC   C4B 6742  27.393  16.910   7.664
  252POPC   NC3 6743  23.760  12.053   9.464
  252POPC   PO4 6744  23.707  12.085   9.164
  252POPC   GL1 6745  23.750  12.070   8.864
  252POPC   GL2 6746  23.844  11.943   8.864
  252POPC   C1A 6747  23.726  12.081   8.564
  252POPC   D2A 6748  23.696  12.118   8.264
  252POPC   C3A 6749  23.722  12.118   7.964
  252POPC   C4A 6750  23.726  12.091   7.664
  252POPC   C1B 6751  23.840  11.851   8.564
  252POPC   C2B 6752  23.854  11.858   8.264
  252POPC   C3B 6753  23.901  11.912   7.964
  252POPC   C4B 6754  23.861  11.855   7.664
  253POPC   NC3 6755   2.031  25.254   9.464
  253POPC   PO4 6756   1.963  25.251   9.164
  253POPC   GL1 6757   2.009  25.293   8.864
  253POPC   GL2 6758   2.033  25.406   8.864
  253POPC   C1A 6759   1.949  25.270   8.564
  253POPC   D2A 6760   1.951  25.302   8.264
  253POPC   C3A 6761   1.997  25.315   7.964
  253POPC   C4A 6762   2.025  25.310   7.664
  253POPC   C1B 6763   2.124  25.494   8.564
  253POPC   C2B 6764   2.121  25.401   8.264
  253POPC   C3B 6765   2.146  25.482   7.964
  253POPC   C4B 6766   2.141  25.406   7.664
  254POPC   NC3 6767  36.865   9.745   9.464
  254POPC   PO4 6768  36.921   9.773   9.164
  254POPC   GL1 6769  36.858   9.775   8.864
  254POPC   GL2 6770  36.812   9.727   8.864
  254POPC   C1A 6771  36.920   9.754   8.564
  254POPC   D2A 6772  36.864   9.795   8.264
  254POPC   C3A 6773  36.878   9.748   7.964
  254POPC   C4A 6774  36.951   9.703   7.664
  254POPC   C1B 6775  36.678   9.794   8.564
  254POPC   C2B 6776  36.641   9.814   8.264
  254POPC   C3B 6777  36.624   9.819   7.964
  254POPC   C4B 6778  36.644   9.836   7.664
  255POPC   NC3 6779  25.310  29.126   9.464
  255POPC   PO4 6780  25.292  29.166   9.164
  255POPC   GL1 6781  25.283  29.192   8.864
  255POPC   GL2 6782  25.252  29.020   8.864
  255POPC   C1A 6783  25.293  29.148   8.564
  255POPC   D2A 6784  25.268  29.186   8.264
  255POPC   C3A 6785  25.275  29.170   7.964
  255POPC   C4A 6786  25.266  29.114   7.664
  255POPC   C1B 6787  25.188  28.941   8.564
  255POPC   C2B 6788  25.256  28.850   8.264
  255POPC   C3B 6789  25.201  28.940   7.964
  255POPC   C4B 6790  25.266  28.946   7.664
  256POPC   NC3 6791  25.265  26.008   9.464
  256POPC   PO4 6792  25.233  26.008   9.164
  256POPC   GL1 6793  25.271  26.049   8.864
  256POPC   GL2 6794  25.126  26.090   8.864
  256POPC   C1A 6795  25.293  26.032   8.564
  256POPC   D2A 6796  25.218  26.007   8.264
  256POPC   C3A 6797  25.261  26.030   7.964
  256POPC   C4A 6798  25.275  26.022   7.664
  256POPC   C1B 6799  24.990  26.049   8.564
  256POPC   C2B 6800  24.972  26.032   8.264
  256POPC   C3B 6801  25.068  26.029   7.964
  256POPC   C4B 6802  25.037  26.088   7.664
  257POPC   NC3 6803  39.279  11.348   9.464
  257POPC   PO4 6804  39.209  11.253   9.164
  257POPC   GL1 6805  39.222  11.323   8.864
  257POPC   GL2 6806  39.125  11.393   8.864
  257POPC   C1A 6807  39.238  11.332   8.564
  257POPC   D2A 6808  39.249  11.271   8.264
  257POPC   C3A 6809  39.233  11.268   7.964
  257POPC   C4A 6810  39.269  11.344   7.664
  257POPC   C1B 6811  39.056  11.450   8.564
  257POPC   C2B 6812  38.989  11.418   8.264
  257POPC   C3B 6813  38.992  11.425   7.964
  257POPC   C4B 6814  39.070  11.408   7.664
  258POPC   NC3 6815  31.450  29.112   9.464
  258POPC   PO4 6816  31.489  29.102   9.164
  258POPC   GL1 6817  31.505  29.119   8.864
  258POPC   GL2 6818  31.597  29.192   8.864
  258POPC   C1A 6819  31.449  29.097   8.564
  258POPC   D2A 6820  31.502  29.140   8.264
  258POPC   C3A 6821  31.453  29.165   7.964
  258POPC   C4A 6822  31.476  29.107   7.664
  258POPC   C1B 6823  31.630  29.335   8.564
  258POPC   C2B 6824  31.664  29.279   8.264
  258POPC   C3B 6825  31.675  29.255   7.964
  258POPC   C4B 6826  31.711  29.332   7.664
  259POPC   NC3 6827  44.691  30.721   9.464
  259POPC   PO4 6828  44.655  30.682   9.164
  259POPC   GL1 6829  44.659  30.712   8.864
  259POPC   GL2 6830  44.569  30.760   8.864
  259POPC   C1A 6831  44.669  30.684   8.564
  259POPC   D2A 6832  44.665  30.669   8.264
  259POPC   C3A 6833  44.701  30.654   7.964
  259POPC   C4A 6834  44.697  30.693   7.664
  259POPC   C1B 6835  44.476  30.872   8.564
  259POPC   C2B 6836  44.535  30.887   8.264
  259POPC   C3B 6837  44.527  30.868   7.964
  259POPC   C4B 6838  44.495  30.871   7.664
  260POPC   NC3 6839   9.791  26.009   9.464
  260POPC   PO4 6840   9.783  26.079   9.164
  260POPC   GL1 6841   9.762  25.992   8.864
  260POPC   GL2 6842   9.637  25.998   8.864
  260POPC   C1A 6843   9.747  26.002   8.564
  260POPC   D2A 6844   9.708  25.998   8.264
  260POPC   C3A 6845   9.727  26.064   7.964
  260POPC   C4A 6846   9.730  26.091   7.664
  260POPC   C1B 6847   9.476  26.039   8.564
  260POPC   C2B 6848   9.486  26.020   8.264
  260POPC   C3B 6849   9.469  26.009   7.964
  260POPC   C4B 6850   9.548  25.996   7.664
  261POPC   NC3 6851  19.030  43.121   9.464
  261POPC   PO4 6852  19.033  43.091   9.164
  261POPC   GL1 6853  19.065  43.108   8.864
  261POPC   GL2 6854  18.893  43.159   8.864
  261POPC   C1A 6855  19.073  43.101   8.564
  261POPC   D2A 6856  19.037  43.082   8.264
  261POPC   C3A 6857  19.087  43.152   7.964
  261POPC   C4A 6858  19.040  43.085   7.664
  261POPC   C1B 6859  18.782  43.206   8.564
  261POPC   C2B 6860  18.804  43.135   8.264
  261POPC   C3B 6861  18.859  43.177   7.964
  261POPC   C4B 6862  18.779  43.131   7.664
  262POPC   NC3 6863   0.406  44.617   9.464
  262POPC   PO4 6864   0.488  44.613   9.164
  262POPC   GL1 6865   0.420  44.648   8.864
  262POPC   GL2 6866   0.453  44.765   8.864
  262POPC   C1A 6867   0.477  44.697   8.564
  262POPC   D2A 6868   0.475  44.691   8.264
  262POPC   C3A 6869   0.430  44.624   7.964
  262POPC   C4A 6870   0.444  44.694   7.664
  262POPC   C1B 6871   0.408  44.874   8.564
  262POPC   C2B 6872   0.393  44.953   8.264
  262POPC   C3B 6873   0.401  44.894   7.964
  262POPC   C4B 6874   0.477  44.889   7.664
  263POPC   NC3 6875  31.473  23.753   9.464
  263POPC   PO4 6876  31.507  23.679   9.164
  263POPC   GL1 6877  31.430  23.680   8.864
  263POPC   GL2 6878  31.558  23.815   8.864
  263POPC   C1A 6879  31.493  23.737   8.564
  263POPC   D2A 6880  31.426  23.756   8.264
  263POPC   C3A 6881  31.445  23.740   7.964
  263POPC   C4A 6882  31.514  23.698   7.664
  263POPC   C1B 6883  31.569  23.955   8.564
  263POPC   C2B 6884  31.566  23.999   8.264
  263POPC   C3B 6885  31.525  23.922   7.964
  263POPC   C4B 6886  31.526  23.944   7.664
  264POPC   NC3 6887  11.255  12.123   9.464
  264POPC   PO4 6888  11.312  12.048   9.164
  264POPC   GL1 6889  11.271  12.102   8.864
  264POPC   GL2 6890  11.180  11.957   8.864
  264POPC   C1A 6891  11.319  12.070   8.564
  264POPC   D2A 6892  11.275  12.069   8.264
  264POPC   C3A 6893  11.293  12.122   7.964
  264POPC   C4A 6894  11.340  12.045   7.664
  264POPC   C1B 6895  11.132  11.882   8.564
  264POPC   C2B 6896  11.112  11.895   8.264
  264POPC   C3B 6897  11.111  11.896   7.964
  264POPC   C4B 6898  11.113  11.894   7.664
  265POPC   NC3 6899  32.248  30.691   9.464
  265POPC   PO4 6900  32.243  30.683   9.164
  265POPC   GL1 6901  32.202  30.708   8.864
  265POPC   GL2 6902  32.203  30.598   8.864
  265POPC   C1A 6903  32.228  30.711   8.564
  265POPC   D2A 6904  32.235  30.658   8.264
  265POPC   C3A 6905  32.256  30.680   7.964
  265POPC   C4A 6906  32.256  30.683   7.664
  265POPC   C1B 6907  32.151  30.505   8.564
  265POPC   C2B 6908  32.115  30.466   8.264
  265POPC   C3B 6909  32.131  30.451   7.964
  265POPC   C4B 6910  32.077  30.528   7.664
  266POPC   NC3 6911  40.802  29.920   9.464
  266POPC   PO4 6912  40.793  29.949   9.164
  266POPC   GL1 6913  40.753  29.935   8.864
  266POPC   GL2 6914  40.950  29.912   8.864
  266POPC   C1A 6915  40.811  29.901   8.564
  266POPC   D2A 6916  40.780  29.969   8.264
  266POPC   C3A 6917  40.769  29.940   7.964
  266POPC   C4A 6918  40.758  29.904   7.664
  266POPC   C1B 6919  41.034  29.903   8.564
  266POPC   C2B 6920  41.016  29.879   8.264
  266POPC   C3B 6921  40.996  29.858   7.964
  266POPC   C4B 6922  41.074  29.814   7.664
  267POPC   NC3 6923   6.663   9.704   9.464
  267POPC   PO4 6924   6.607   9.738   9.164
  267POPC   GL1 6925   6.670   9.706   8.864
  267POPC   GL2 6926   6.715   9.650   8.864
  267POPC   C1A 6927   6.643   9.707   8.564
  267POPC   D2A 6928   6.662   9.777   8.264
  267POPC   C3A 6929   6.611   9.762   7.964
  267POPC   C4A 6930   6.661   9.744   7.664
  267POPC   C1B 6931   6.762   9.562   8.564
  267POPC   C2B 6932   6.688   9.543   8.264
  267POPC   C3B 6933   6.713   9.475   7.964
  267POPC   C4B 6934   6.727   9.518   7.664
  268POPC   NC3 6935  34.587  43.072   9.464
  268POPC   PO4 6936  34.552  43.107   9.164
  268POPC   GL1 6937  34.548  43.104   8.864
  268POPC   GL2 6938  34.547  43.220   8.864
  268POPC   C1A 6939  34.570  43.064   8.564
  268POPC   D2A 6940  34.615  43.101   8.264
  268POPC   C3A 6941  34.548  43.149   7.964
  268POPC   C4A 6942  34.585  43.126   7.664
  268POPC   C1B 6943  34.466  43.317   8.564
  268POPC   C2B 6944  34.480  43.330   8.264
  268POPC   C3B 6945  34.422  43.288   7.964
  268POPC   C4B 6946  34.443  43.301   7.664
  269POPC   NC3 6947  17.483  34.542   9.464
  269POPC   PO4 6948  17.459  34.561   9.164
  269POPC   GL1 6949  17.466  34.541   8.864
  269POPC   GL2 6950  17.614  34.559   8.864
  269POPC   C1A 6951  17.462  34.531   8.564
  269POPC   D2A 6952  17.546  34.576   8.264
  269POPC   C3A 6953  17.527  34.588   7.964
  269POPC   C4A 6954  17.524  34.567   7.664
  269POPC   C1B 6955  17.730  34.658   8.564
  269POPC   C2B 6956  17.749  34.594   8.264
  269POPC   C3B 6957  17.701  34.662   7.964
  269POPC   C4B 6958  17.756  34.681   7.664
  270POPC   NC3 6959  29.971   1.973   9.464
  270POPC   PO4 6960  29.934   1.988   9.164
  270POPC   GL1 6961  29.957   2.002   8.864
  270POPC   GL2 6962  30.045   2.082   8.864
  270POPC   C1A 6963  29.969   1.945   8.564
  270POPC   D2A 6964  29.955   1.941   8.264
  270POPC   C3A 6965  29.924   2.040   7.964
  270POPC   C4A 6966  29.938   1.964   7.664
  270POPC   C1B 6967  30.128   2.153   8.564
  270POPC   C2B 6968  30.138   2.205   8.264
  270POPC   C3B 6969  30.088   2.165   7.964
  270POPC   C4B 6970  30.126   2.154   7.664
  271POPC   NC3 6971  40.754   1.235   9.464
  271POPC   PO4 6972  40.811   1.177   9.164
  271POPC   GL1 6973  40.793   1.205   8.864
  271POPC   GL2 6974  40.704   1.322   8.864
  271POPC   C1A 6975  40.773   1.235   8.564
  271POPC   D2A 6976  40.736   1.228   8.264
  271POPC   C3A 6977  40.792   1.194   7.964
  271POPC   C4A 6978  40.804   1.250   7.664
  271POPC   C1B 6979  40.677   1.456   8.564
  271POPC   C2B 6980  40.657   1.479   8.264
  271POPC   C3B 6981  40.714   1.445   7.964
  271POPC   C4B 6982  40.696   1.487   7.664
  272POPC   NC3 6983   7.420  29.151   9.464
  272POPC   PO4 6984   7.456  29.107   9.164
  272POPC   GL1 6985   7.388  29.172   8.864
  272POPC   GL2 6986   7.408  29.252   8.864
  272POPC   C1A 6987   7.385  29.113   8.564
  272POPC   D2A 6988   7.418  29.147   8.264
  272POPC   C3A 6989   7.384  29.123   7.964
  272POPC   C4A 6990   7.425  29.163   7.664
  272POPC   C1B 6991   7.385  29.416   8.564
  272POPC   C2B 6992   7.398  29.374   8.264
  272POPC   C3B 6993   7.376  29.423   7.964
  272POPC   C4B 6994   7.403  29.406   7.664
  273POPC   NC3 6995   1.943  24.490   9.464
  273POPC   PO4 6996   1.981  24.495   9.164
  273POPC   GL1 6997   1.978  24.448   8.864
  273POPC   GL2 6998   1.951  24.356   8.864
  273POPC   C1A 6999   1.944  24.478   8.564
  273POPC   D2A 7000   1.943  24.491   8.264
  273POPC   C3A 7001   1.975  24.508   7.964
  273POPC   C4A 7002   1.956  24.495   7.664
  273POPC   C1B 7003   1.898  24.280   8.564
  273POPC   C2B 7004   1.832  24.279   8.264
  273POPC   C3B 7005   1.890  24.251   7.964
  273POPC   C4B 7006   1.867  24.256   7.664
  274POPC   NC3 7007  41.523   7.406   9.464
  274POPC   PO4 7008  41.606   7.426   9.164
  274POPC   GL1 7009  41.514   7.382   8.864
  274POPC   GL2 7010  41.402   7.354   8.864
  274POPC   C1A 7011  41.555   7.380   8.564
  274POPC   D2A 7012  41.543   7.432   8.264
  274POPC   C3A 7013  41.589   7.420   7.964
  274POPC   C4A 7014  41.539   7.404   7.664
  274POPC   C1B 7015  41.296   7.309   8.564
  274POPC   C2B 7016  41.290   7.304   8.264
  274POPC   C3B 7017  41.319   7.303   7.964
  274POPC   C4B 7018  41.348   7.303   7.664
  275POPC   NC3 7019  35.381  12.084   9.464
  275POPC   PO4 7020  35.381  12.120   9.164
  275POPC   GL1 7021  35.397  12.092   8.864
  275POPC   GL2 7022  35.242  12.130   8.864
  275POPC   C1A 7023  35.335  12.126   8.564
  275POPC   D2A 7024  35.379  12.125   8.264
  275POPC   C3A 7025  35.391  12.118   7.964
  275POPC   C4A 7026  35.319  12.052   7.664
  275POPC   C1B 7027  35.080  12.087   8.564
  275POPC   C2B 7028  35.094  12.062   8.264
  275POPC   C3B 7029  35.141  12.126   7.964
  275POPC   C4B 7030  35.114  12.119   7.664
  276POPC   NC3 7031   7.375  17.556   9.464
  276POPC   PO4 7032   7.381  17.471   9.164
  276POPC   GL1 7033   7.409  17.532   8.864
  276POPC   GL2 7034   7.388  17.649   8.864
  276POPC   C1A 7035   7.381  17.475   8.564
  276POPC   D2A 7036   7.442  17.485   8.264
  276POPC   C3A 7037   7.430  17.532   7.964
  276POPC   C4A 7038   7.418  17.514   7.664
  276POPC   C1B 7039   7.408  17.751   8.564
  276POPC   C2B 7040   7.477  17.744   8.264
  276POPC   C3B 7041   7.486  17.783   7.964
  276POPC   C4B 7042   7.475  17.705   7.664
  277POPC   NC3 7043   2.034  43.918   9.464
  277POPC   PO4 7044   2.012  43.860   9.164
  277POPC   GL1 7045   1.952  43.898   8.864
  277POPC   GL2 7046   2.152  43.959   8.864
  277POPC   C1A 7047   1.947  43.894   8.564
  277POPC   D2A 7048   2.038  43.924   8.264
  277POPC   C3A 7049   2.002  43.853   7.964
  277POPC   C4A 7050   2.019  43.922   7.664
  277POPC   C1B 7051   2.239  43.944   8.564
  277POPC   C2B 7052   2.184  43.941   8.264
  277POPC   C3B 7053   2.195  43.904   7.964
  277POPC   C4B 7054   2.207  43.929   7.664
  278POPC   NC3 7055  22.113  43.130   9.464
  278POPC   PO4 7056  22.154  43.071   9.164
  278POPC   GL1 7057  22.172  43.155   8.864
  278POPC   GL2 7058  22.267  43.097   8.864
  278POPC   C1A 7059  22.129  43.138   8.564
  278POPC   D2A 7060  22.183  43.109   8.264
  278POPC   C3A 7061  22.201  43.144   7.964
  278POPC   C4A 7062  22.112  43.072   7.664
  278POPC   C1B 7063  22.433  42.984   8.564
  278POPC   C2B 7064  22.401  43.033   8.264
  278POPC   C3B 7065  22.382  43.044   7.964
  278POPC   C4B 7066  22.416  42.986   7.664
  279POPC   NC3 7067  39.996  28.409   9.464
  279POPC   PO4 7068  39.960  28.323   9.164
  279POPC   GL1 7069  40.030  28.405   8.864
  279POPC   GL2 7070  40.017  28.199   8.864
  279POPC   C1A 7071  40.023  28.371   8.564
  279POPC   D2A 7072  39.996  28.341   8.264
  279POPC   C3A 7073  40.029  28.342   7.964
  279POPC   C4A 7074  40.005  28.398   7.664
  279POPC   C1B 7075  40.061  28.083   8.564
  279POPC   C2B 7076  40.031  28.163   8.264
  279POPC   C3B 7077  40.050  28.122   7.964
  279POPC   C4B 7078  40.079  28.163   7.664
  280POPC   NC3 7079  44.707  32.284   9.464
  280POPC   PO4 7080  44.680  32.271   9.164
  280POPC   GL1 7081  44.673  32.278   8.864
  280POPC   GL2 7082  44.595  32.131   8.864
  280POPC   C1A 7083  44.675  32.238   8.564
  280POPC   D2A 7084  44.659  32.227   8.264
  280POPC   C3A 7085  44.693  32.291   7.964
  280POPC   C4A 7086  44.688  32.265   7.664
  280POPC   C1B 7087  44.626  32.048   8.564
  280POPC   C2B 7088  44.590  32.021   8.264
  280POPC   C3B 7089  44.629  31.984   7.964
  280POPC   C4B 7090  44.595  32.022   7.664
  281POPC   NC3 7091  22.908  24.469   9.464
  281POPC   PO4 7092  22.915  24.529   9.164
  281POPC   GL1 7093  22.889  24.478   8.864
  281POPC   GL2 7094  22.945  24.610   8.864
  281POPC   C1A 7095  22.963  24.511   8.564
  281POPC   D2A 7096  22.917  24.536   8.264
  281POPC   C3A 7097  22.922  24.463   7.964
  281POPC   C4A 7098  22.889  24.470   7.664
  281POPC   C1B 7099  22.834  24.739   8.564
  281POPC   C2B 7100  22.887  24.700   8.264
  281POPC   C3B 7101  22.854  24.725   7.964
  281POPC   C4B 7102  22.913  24.704   7.664
  282POPC   NC3 7103  11.292  39.241   9.464
  282POPC   PO4 7104  11.330  39.230   9.164
  282POPC   GL1 7105  11.327  39.183   8.864
  282POPC   GL2 7106  11.201  39.391   8.864
  282POPC   C1A 7107  11.269  39.223   8.564
  282POPC   D2A 7108  11.311  39.235   8.264
  282POPC   C3A 7109  11.340  39.214   7.964
  282POPC   C4A 7110  11.308  39.186   7.664
  282POPC   C1B 7111  11.197  39.461   8.564
  282POPC   C2B 7112  11.182  39.407   8.264
  282POPC   C3B 7113  11.174  39.483   7.964
  282POPC   C4B 7114  11.236  39.412   7.664
  283POPC   NC3 7115  22.164  41.557   9.464
  283POPC   PO4 7116  22.175  41.515   9.164
  283POPC   GL1 7117  22.210  41.587   8.864
  283POPC   GL2 7118  22.291  41.597   8.864
  283POPC   C1A 7119  22.185  41.602   8.564
  283POPC   D2A 7120  22.136  41.530   8.264
  283POPC   C3A 7121  22.132  41.552   7.964
  283POPC   C4A 7122  22.169  41.551   7.664
  283POPC   C1B 7123  22.377  41.670   8.564
  283POPC   C2B 7124  22.355  41.712   8.264
  283POPC   C3B 7125  22.404  41.736   7.964
  283POPC   C4B 7126  22.349  41.647   7.664
  284POPC   NC3 7127  13.587   5.099   9.464
  284POPC   PO4 7128  13.657   5.121   9.164
  284POPC   GL1 7129  13.638   5.092   8.864
  284POPC   GL2 7130  13.570   4.996   8.864
  284POPC   C1A 7131  13.609   5.112   8.564
  284POPC   D2A 7132  13.610   5.087   8.264
  284POPC   C3A 7133  13.650   5.129   7.964
  284POPC   C4A 7134  13.656   5.109   7.664
  284POPC   C1B 7135  13.527   4.828   8.564
  284POPC   C2B 7136  13.549   4.805   8.264
  284POPC   C3B 7137  13.563   4.873   7.964
  284POPC   C4B 7138  13.592   4.882   7.664
  285POPC   NC3 7139  22.932  15.132   9.464
  285POPC   PO4 7140  22.930  15.204   9.164
  285POPC   GL1 7141  22.910  15.196   8.864
  285POPC   GL2 7142  22.834  15.206   8.864
  285POPC   C1A 7143  22.940  15.176   8.564
  285POPC   D2A 7144  22.985  15.209   8.264
  285POPC   C3A 7145  22.945  15.166   7.964
  285POPC   C4A 7146  22.890  15.189   7.664
  285POPC   C1B 7147  22.680  15.120   8.564
  285POPC   C2B 7148  22.714  15.100   8.264
  285POPC   C3B 7149  22.722  15.124   7.964
  285POPC   C4B 7150  22.733  15.147   7.664
  286POPC   NC3 7151  28.406  21.422   9.464
  286POPC   PO4 7152  28.373  21.348   9.164
  286POPC   GL1 7153  28.379  21.415   8.864
  286POPC   GL2 7154  28.404  21.238   8.864
  286POPC   C1A 7155  28.366  21.338   8.564
  286POPC   D2A 7156  28.329  21.397   8.264
  286POPC   C3A 7157  28.356  21.379   7.964
  286POPC   C4A 7158  28.399  21.432   7.664
  286POPC   C1B 7159  28.325  21.114   8.564
  286POPC   C2B 7160  28.370  21.108   8.264
  286POPC   C3B 7161  28.404  21.142   7.964
  286POPC   C4B 7162  28.351  21.165   7.664
  287POPC   NC3 7163  16.732  11.304   9.464
  287POPC   PO4 7164  16.754  11.319   9.164
  287POPC   GL1 7165  16.774  11.273   8.864
  287POPC   GL2 7166  16.757  11.418   8.864
  287POPC   C1A 7167  16.700  11.322   8.564
  287POPC   D2A 7168  16.691  11.317   8.264
  287POPC   C3A 7169  16.719  11.284   7.964
  287POPC   C4A 7170  16.742  11.311   7.664
  287POPC   C1B 7171  16.747  11.595   8.564
  287POPC   C2B 7172  16.705  11.558   8.264
  287POPC   C3B 7173  16.728  11.555   7.964
  287POPC   C4B 7174  16.760  11.555   7.664
  288POPC   NC3 7175  16.705  40.018   9.464
  288POPC   PO4 7176  16.716  39.973   9.164
  288POPC   GL1 7177  16.769  39.962   8.864
  288POPC   GL2 7178  16.621  39.917   8.864
  288POPC   C1A 7179  16.686  39.977   8.564
  288POPC   D2A 7180  16.688  40.018   8.264
  288POPC   C3A 7181  16.734  40.042   7.964
  288POPC   C4A 7182  16.703  40.006   7.664
  288POPC   C1B 7183  16.543  39.862   8.564
  288POPC   C2B 7184  16.498  39.793   8.264
  288POPC   C3B 7185  16.546  39.864   7.964
  288POPC   C4B 7186  16.546  39.850   7.664
  289POPC   NC3 7187  35.365  33.017   9.464
  289POPC   PO4 7188  35.320  33.065   9.164
  289POPC   GL1 7189  35.335  33.056   8.864
  289POPC   GL2 7190  35.213  33.064   8.864
  289POPC   C1A 7191  35.316  32.986   8.564
  289POPC   D2A 7192  35.357  33.044   8.264
  289POPC   C3A 7193  35.316  33.054   7.964
  289POPC   C4A 7194  35.335  33.044   7.664
  289POPC   C1B 7195  35.148  33.046   8.564
  289POPC   C2B 7196  35.142  33.005   8.264
  289POPC   C3B 7197  35.125  33.029   7.964
  289POPC   C4B 7198  35.067  33.039   7.664
  290POPC   NC3 7199  36.885  26.791   9.464
  290POPC   PO4 7200  36.924  26.770   9.164
  290POPC   GL1 7201  36.883  26.843   8.864
  290POPC   GL2 7202  36.843  26.918   8.864
  290POPC   C1A 7203  36.859  26.832   8.564
  290POPC   D2A 7204  36.898  26.792   8.264
  290POPC   C3A 7205  36.945  26.802   7.964
  290POPC   C4A 7206  36.950  26.816   7.664
  290POPC   C1B 7207  36.874  27.108   8.564
  290POPC   C2B 7208  36.911  27.088   8.264
  290POPC   C3B 7209  36.871  27.095   7.964
  290POPC   C4B 7210  36.897  27.101   7.664
  291POPC   NC3 7211  16.727  31.519   9.464
  291POPC   PO4 7212  16.766  31.445   9.164
  291POPC   GL1 7213  16.762  31.464   8.864
  291POPC   GL2 7214  16.901  31.449   8.864
  291POPC   C1A 7215  16.706  31.451   8.564
  291POPC   D2A 7216  16.746  31.521   8.264
  291POPC   C3A 7217  16.731  31.470   7.964
  291POPC   C4A 7218  16.726  31.487   7.664
  291POPC   C1B 7219  17.028  31.445   8.564
  291POPC   C2B 7220  16.981  31.485   8.264
  291POPC   C3B 7221  17.003  31.485   7.964
  291POPC   C4B 7222  17.019  31.482   7.664
  292POPC   NC3 7223  32.221  29.123   9.464
  292POPC   PO4 7224  32.215  29.157   9.164
  292POPC   GL1 7225  32.284  29.142   8.864
  292POPC   GL2 7226  32.203  28.989   8.864
  292POPC   C1A 7227  32.263  29.154   8.564
  292POPC   D2A 7228  32.204  29.188   8.264
  292POPC   C3A 7229  32.242  29.170   7.964
  292POPC   C4A 7230  32.246  29.194   7.664
  292POPC   C1B 7231  32.182  28.930   8.564
  292POPC   C2B 7232  32.176  28.960   8.264
  292POPC   C3B 7233  32.155  28.943   7.964
  292POPC   C4B 7234  32.105  28.929   7.664
  293POPC   NC3 7235  39.270  33.827   9.464
  293POPC   PO4 7236  39.200  33.763   9.164
  293POPC   GL1 7237  39.205  33.814   8.864
  293POPC   GL2 7238  39.084  33.753   8.864
  293POPC   C1A 7239  39.216  33.804   8.564
  293POPC   D2A 7240  39.251  33.794   8.264
  293POPC   C3A 7241  39.216  33.753   7.964
  293POPC   C4A 7242  39.275  33.765   7.664
  293POPC   C1B 7243  39.030  33.684   8.564
  293POPC   C2B 7244  39.000  33.687   8.264
  293POPC   C3B 7245  38.973  33.747   7.964
  293POPC   C4B 7246  38.990  33.734   7.664
  294POPC   NC3 7247   8.949  12.047   9.464
  294POPC   PO4 7248   8.950  12.101   9.164
  294POPC   GL1 7249   9.004  12.085   8.864
  294POPC   GL2 7250   8.999  11.978   8.864
  294POPC   C1A 7251   9.018  12.040   8.564
  294POPC   D2A 7252   8.978  12.124   8.264
  294POPC   C3A 7253   8.988  12.038   7.964
  294POPC   C4A 7254   8.980  12.068   7.664
  294POPC   C1B 7255   9.069  11.892   8.564
  294POPC   C2B 7256   9.122  11.806   8.264
  294POPC   C3B 7257   9.042  11.807   7.964
  294POPC   C4B 7258   9.112  11.832   7.664
  295POPC   NC3 7259   0.443  16.715   9.464
  295POPC   PO4 7260   0.458  16.682   9.164
  295POPC   GL1 7261   0.462  16.721   8.864
  295POPC   GL2 7262   0.567  16.782   8.864
  295POPC   C1A 7263   0.486  16.738   8.564
  295POPC   D2A 7264   0.443  16.696   8.264
  295POPC   C3A 7265   0.469  16.686   7.964
  295POPC   C4A 7266   0.399  16.747   7.664
  295POPC   C1B 7267   0.593  16.918   8.564
  295POPC   C2B 7268   0.632  16.886   8.264
  295POPC   C3B 7269   0.615  16.922   7.964
  295POPC   C4B 7270   0.668  16.838   7.664
  296POPC   NC3 7271  11.297  10.489   9.464
  296POPC   PO4 7272  11.261  10.514   9.164
  296POPC   GL1 7273  11.325  10.519   8.864
  296POPC   GL2 7274  11.416  10.548   8.864
  296POPC   C1A 7275  11.298  10.518   8.564
  296POPC   D2A 7276  11.270  10.503   8.264
  296POPC   C3A 7277  11.258  10.540   7.964
  296POPC   C4A 7278  11.344  10.561   7.664
  296POPC   C1B 7279  11.513  10.543   8.564
  296POPC   C2B 7280  11.596  10.548   8.264
  296POPC   C3B 7281  11.555  10.601   7.964
  296POPC   C4B 7282  11.583  10.518   7.664
  297POPC   NC3 7283  43.077  12.865   9.464
  297POPC   PO4 7284  43.062  12.862   9.164
  297POPC   GL1 7285  43.077  12.893   8.864
  297POPC   GL2 7286  43.037  12.866   8.864
  297POPC   C1A 7287  43.121  12.828   8.564
  297POPC   D2A 7288  43.099  12.832   8.264
  297POPC   C3A 7289  43.154  12.869   7.964
  297POPC   C4A 7290  43.134  12.862   7.664
  297POPC   C1B 7291  42.888  12.755   8.564
  297POPC   C2B 7292  42.849  12.784   8.264
  297POPC   C3B 7293  42.877  12.844   7.964
  297POPC   C4B 7294  42.892  12.825   7.664
  298POPC   NC3 7295   2.782  44.690   9.464
  298POPC   PO4 7296   2.755  44.703   9.164
  298POPC   GL1 7297   2.759  44.612   8.864
  298POPC   GL2 7298   2.673  44.565   8.864
  298POPC   C1A 7299   2.718  44.636   8.564
  298POPC   D2A 7300   2.757  44.692   8.264
  298POPC   C3A 7301   2.790  44.703   7.964
  298POPC   C4A 7302   2.814  44.658   7.664
  298POPC   C1B 7303   2.638  44.396   8.564
  298POPC   C2B 7304   2.652  44.470   8.264
  298POPC   C3B 7305   2.698  44.410   7.964
  298POPC   C4B 7306   2.681  44.445   7.664
  299POPC   NC3 7307  16.770  17.482   9.464
  299POPC   PO4 7308  16.768  17.550   9.164
  299POPC   GL1 7309  16.698  17.545   8.864
  299POPC   GL2 7310  16.788  17.470   8.864
  299POPC   C1A 7311  16.745  17.465   8.564
  299POPC   D2A 7312  16.722  17.538   8.264
  299POPC   C3A 7313  16.779  17.526   7.964
  299POPC   C4A 7314  16.725  17.459   7.664
  299POPC   C1B 7315  16.982  17.359   8.564
  299POPC   C2B 7316  16.963  17.403   8.264
  299POPC   C3B 7317  16.913  17.376   7.964
  299POPC   C4B 7318  16.953  17.413   7.664
  300POPC   NC3 7319  28.352  20.618   9.464
  300POPC   PO4 7320  28.411  20.579   9.164
  300POPC   GL1 7321  28.372  20.583   8.864
  300POPC   GL2 7322  28.265  20.484   8.864
  300POPC   C1A 7323  28.396  20.606   8.564
  300POPC   D2A 7324  28.371  20.568   8.264
  300POPC   C3A 7325  28.333  20.624   7.964
  300POPC   C4A 7326  28.387  20.567   7.664
  300POPC   C1B 7327  28.208  20.430   8.564
  300POPC   C2B 7328  28.289  20.390   8.264
  300POPC   C3B 7329  28.242  20.348   7.964
  300POPC   C4B 7330  28.255  20.360   7.664
  301POPC   NC3 7331  13.597  35.338   9.464
  301POPC   PO4 7332  13.648  35.327   9.164
  301POPC   GL1 7333  13.595  35.384   8.864
  301POPC   GL2 7334  13.534  35.246   8.864
  301POPC   C1A 7335  13.670  35.397   8.564
  301POPC   D2A 7336  13.608  35.332   8.264
  301POPC   C3A 7337  13.652  35.336   7.964
  301POPC   C4A 7338  13.586  35.357   7.664
  301POPC   C1B 7339  13.402  35.221   8.564
  301POPC   C2B 7340  13.381  35.200   8.264
  301POPC   C3B 7341  13.395  35.183   7.964
  301POPC   C4B 7342  13.410  35.270   7.664
  302POPC   NC3 7343  42.321  15.134   9.464
  302POPC   PO4 7344  42.292  15.150   9.164
  302POPC   GL1 7345  42.363  15.156   8.864
  302POPC   GL2 7346  42.281  15.036   8.864
  302POPC   C1A 7347  42.374  15.187   8.564
  302POPC   D2A 7348  42.318  15.167   8.264
  302POPC   C3A 7349  42.337  15.184   7.964
  302POPC   C4A 7350  42.370  15.186   7.664
  302POPC   C1B 7351  42.175  14.994   8.564
  302POPC   C2B 7352  42.235  14.988   8.264
  302POPC   C3B 7353  42.171  15.002   7.964
  302POPC   C4B 7354  42.184  14.926   7.664
  303POPC   NC3 7355  24.515   1.251   9.464
  303POPC   PO4 7356  24.451   1.217   9.164
  303POPC   GL1 7357  24.499   1.225   8.864
  303POPC   GL2 7358  24.531   1.124   8.864
  303POPC   C1A 7359  24.535   1.231   8.564
  303POPC   D2A 7360  24.518   1.242   8.264
  303POPC   C3A 7361  24.537   1.180   7.964
  303POPC   C4A 7362  24.533   1.182   7.664
  303POPC   C1B 7363  24.619   1.034   8.564
  303POPC   C2B 7364  24.648   1.043   8.264
  303POPC   C3B 7365  24.601   1.015   7.964
  303POPC   C4B 7366  24.683   0.975   7.664
  304POPC   NC3 7367  43.921  27.554   9.464
  304POPC   PO4 7368  43.890  27.552   9.164
  304POPC   GL1 7369  43.936  27.629   8.864
  304POPC   GL2 7370  43.870  27.667   8.864
  304POPC   C1A 7371  43.889  27.560   8.564
  304POPC   D2A 7372  43.908  27.576   8.264
  304POPC   C3A 7373  43.890  27.581   7.964
  304POPC   C4A 7374  43.893  27.618   7.664
  304POPC   C1B 7375  43.802  27.868   8.564
  304POPC   C2B 7376  43.797  27.784   8.264
  304POPC   C3B 7377  43.769  27.838   7.964
  304POPC   C4B 7378  43.793  27.813   7.664
  305POPC   NC3 7379   4.288  27.586   9.464
  305POPC   PO4 7380   4.313  27.544   9.164
  305POPC   GL1 7381   4.341  27.614   8.864
  305POPC   GL2 7382   4.276  27.743   8.864
  305POPC   C1A 7383   4.310  27.623   8.564
  305POPC   D2A 7384   4.336  27.596   8.264
  305POPC   C3A 7385   4.276  27.607   7.964
  305POPC   C4A 7386   4.361  27.568   7.664
  305POPC   C1B 7387   4.328  27.886   8.564
  305POPC   C2B 7388   4.285  27.805   8.264
  305POPC   C3B 7389   4.306  27.853   7.964
  305POPC   C4B 7390   4.316  27.848   7.664
  306POPC   NC3 7391  26.824   8.968   9.464
  306POPC   PO4 7392  26.809   9.017   9.164
  306POPC   GL1 7393  26.835   8.998   8.864
  306POPC   GL2 7394  26.671   9.038   8.864
  306POPC   C1A 7395  26.803   8.989   8.564
  306POPC   D2A 7396  26.776   8.955   8.264
  306POPC   C3A 7397  26.861   8.932   7.964
  306POPC   C4A 7398  26.863   8.930   7.664
  306POPC   C1B 7399  26.608   9.077   8.564
  306POPC   C2B 7400  26.607   9.068   8.264
  306POPC   C3B 7401  26.588   9.107   7.964
  306POPC   C4B 7402  26.654   9.137   7.664
  307POPC   NC3 7403   1.172  10.545   9.464
  307POPC   PO4 7404   1.240  10.514   9.164
  307POPC   GL1 7405   1.194  10.525   8.864
  307POPC   GL2 7406   1.095  10.504   8.864
  307POPC   C1A 7407   1.224  10.532   8.564
  307POPC   D2A 7408   1.174  10.564   8.264
  307POPC   C3A 7409   1.259  10.507   7.964
  307POPC   C4A 7410   1.173  10.493   7.664
  307POPC   C1B 7411   1.030  10.370   8.564
  307POPC   C2B 7412   0.967  10.427   8.264
  307POPC   C3B 7413   0.991  10.369   7.964
  307POPC   C4B 7414   0.970  10.454   7.664
  308POPC   NC3 7415  33.842   3.545   9.464
  308POPC   PO4 7416  33.773   3.567   9.164
  308POPC   GL1 7417  33.821   3.503   8.864
  308POPC   GL2 7418  33.639   3.507   8.864
  308POPC   C1A 7419  33.794   3.539   8.564
  308POPC   D2A 7420  33.834   3.568   8.264
  308POPC   C3A 7421  33.806   3.590   7.964
  308POPC   C4A 7422  33.754   3.510   7.664
  308POPC   C1B 7423  33.554   3.559   8.564
  308POPC   C2B 7424  33.578   3.569   8.264
  308POPC   C3B 7425  33.526   3.505   7.964
  308POPC   C4B 7426  33.545   3.595   7.664
  309POPC   NC3 7427  29.158  18.297   9.464
  309POPC   PO4 7428  29.180  18.286   9.164
  309POPC   GL1 7429  29.102  18.294   8.864
  309POPC   GL2 7430  29.231  18.171   8.864
  309POPC   C1A 7431  29.108  18.300   8.564
  309POPC   D2A 7432  29.188  18.306   8.264
  309POPC   C3A 7433  29.119  18.274   7.964
  309POPC   C4A 7434  29.106  18.322   7.664
  309POPC   C1B 7435  29.346  18.172   8.564
  309POPC   C2B 7436  29.307  18.120   8.264
  309POPC   C3B 7437  29.339  18.175   7.964
  309POPC   C4B 7438  29.401  18.182   7.664
  310POPC   NC3 7439  17.511  17.465   9.464
  310POPC   PO4 7440  17.497  17.489   9.164
  310POPC   GL1 7441  17.548  17.514   8.864
  310POPC   GL2 7442  17.410  17.353   8.864
  310POPC   C1A 7443  17.540  17.540   8.564
  310POPC   D2A 7444  17.526  17.541   8.264
  310POPC   C3A 7445  17.527  17.500   7.964
  310POPC   C4A 7446  17.508  17.527   7.664
  310POPC   C1B 7447  17.363  17.321   8.564
  310POPC   C2B 7448  17.411  17.246   8.264
  310POPC   C3B 7449  17.448  17.247   7.964
  310POPC   C4B 7450  17.421  17.263   7.664
  311POPC   NC3 7451  34.556  24.453   9.464
  311POPC   PO4 7452  34.601  24.498   9.164
  311POPC   GL1 7453  34.531  24.471   8.864
  311POPC   GL2 7454  34.434  24.438   8.864
  311POPC   C1A 7455  34.586  24.517   8.564
  311POPC   D2A 7456  34.527  24.524   8.264
  311POPC   C3A 7457  34.579  24.456   7.964
  311POPC   C4A 7458  34.549  24.518   7.664
  311POPC   C1B 7459  34.302  24.515   8.564
  311POPC   C2B 7460  34.352  24.424   8.264
  311POPC   C3B 7461  34.296  24.508   7.964
  311POPC   C4B 7462  34.311  24.514   7.664
  312POPC   NC3 7463   5.904  33.005   9.464
  312POPC   PO4 7464   5.851  33.065   9.164
  312POPC   GL1 7465   5.823  33.029   8.864
  312POPC   GL2 7466   5.712  32.959   8.864
  312POPC   C1A 7467   5.830  33.066   8.564
  312POPC   D2A 7468   5.854  32.988   8.264
  312POPC   C3A 7469   5.878  33.053   7.964
  312POPC   C4A 7470   5.850  33.030   7.664
  312POPC   C1B 7471   5.670  32.984   8.564
  312POPC   C2B 7472   5.610  32.923   8.264
  312POPC   C3B 7473   5.646  32.938   7.964
  312POPC   C4B 7474   5.637  32.975   7.664
  313POPC   NC3 7475  35.397  35.365   9.464
  313POPC   PO4 7476  35.400  35.357   9.164
  313POPC   GL1 7477  35.334  35.304   8.864
  313POPC   GL2 7478  35.347  35.492   8.864
  313POPC   C1A 7479  35.336  35.353   8.564
  313POPC   D2A 7480  35.358  35.373   8.264
  313POPC   C3A 7481  35.396  35.359   7.964
  313POPC   C4A 7482  35.366  35.377   7.664
  313POPC   C1B 7483  35.246  35.544   8.564
  313POPC   C2B 7484  35.251  35.582   8.264
  313POPC   C3B 7485  35.215  35.602   7.964
  313POPC   C4B 7486  35.237  35.593   7.664
  314POPC   NC3 7487  38.426  10.524   9.464
  314POPC   PO4 7488  38.436  10.512   9.164
  314POPC   GL1 7489  38.463  10.514   8.864
  314POPC   GL2 7490  38.293  10.518   8.864
  314POPC   C1A 7491  38.406  10.572   8.564
  314POPC   D2A 7492  38.485  10.475   8.264
  314POPC   C3A 7493  38.431  10.536   7.964
  314POPC   C4A 7494  38.429  10.510   7.664
  314POPC   C1B 7495  38.196  10.564   8.564
  314POPC   C2B 7496  38.250  10.611   8.264
  314POPC   C3B 7497  38.206  10.641   7.964
  314POPC   C4B 7498  38.250  10.594   7.664
  315POPC   NC3 7499  20.614   9.747   9.464
  315POPC   PO4 7500  20.643   9.758   9.164
  315POPC   GL1 7501  20.641   9.793   8.864
  315POPC   GL2 7502  20.589   9.642   8.864
  315POPC   C1A 7503  20.626   9.784   8.564
  315POPC   D2A 7504  20.631   9.788   8.264
  315POPC   C3A 7505  20.564   9.762   7.964
  315POPC   C4A 7506  20.563   9.797   7.664
  315POPC   C1B 7507  20.659   9.539   8.564
  315POPC   C2B 7508  20.666   9.517   8.264
  315POPC   C3B 7509  20.672   9.508   7.964
  315POPC   C4B 7510  20.643   9.457   7.664
  316POPC   NC3 7511   2.001  37.723   9.464
  316POPC   PO4 7512   2.001  37.710   9.164
  316POPC   GL1 7513   2.021  37.711   8.864
  316POPC   GL2 7514   2.079  37.753   8.864
  316POPC   C1A 7515   1.999  37.686   8.564
  316POPC   D2A 7516   2.035  37.651   8.264
  316POPC   C3A 7517   1.992  37.661   7.964
  316POPC   C4A 7518   2.025  37.635   7.664
  316POPC   C1B 7519   2.174  37.832   8.564
  316POPC   C2B 7520   2.161  37.867   8.264
  316POPC   C3B 7521   2.175  37.867   7.964
  316POPC   C4B 7522   2.208  37.813   7.664
  317POPC   NC3 7523  43.095  22.985   9.464
  317POPC   PO4 7524  43.154  22.980   9.164
  317POPC   GL1 7525  43.084  22.984   8.864
  317POPC   GL2 7526  43.100  22.786   8.864
  317POPC   C1A 7527  43.082  22.896   8.564
  317POPC   D2A 7528  43.143  22.982   8.264
  317POPC   C3A 7529  43.101  22.890   7.964
  317POPC   C4A 7530  43.099  22.919   7.664
  317POPC   C1B 7531  43.029  22.699   8.564
  317POPC   C2B 7532  43.025  22.704   8.264
  317POPC   C3B 7533  42.985  22.733   7.964
  317POPC   C4B 7534  43.035  22.677   7.664
  318POPC   NC3 7535  31.469   3.565   9.464
  318POPC   PO4 7536  31.517   3.510   9.164
  318POPC   GL1 7537  31.437   3.577   8.864
  318POPC   GL2 7538  31.575   3.530   8.864
  318POPC   C1A 7539  31.469   3.532   8.564
  318POPC   D2A 7540  31.506   3.569   8.264
  318POPC   C3A 7541  31.490   3.529   7.964
  318POPC   C4A 7542  31.492   3.497   7.664
  318POPC   C1B 7543  31.704   3.577   8.564
  318POPC   C2B 7544  31.700   3.543   8.264
  318POPC   C3B 7545  31.717   3.486   7.964
  318POPC   C4B 7546  31.746   3.508   7.664
  319POPC   NC3 7547  39.219  24.490   9.464
  319POPC   PO4 7548  39.206  24.536   9.164
  319POPC   GL1 7549  39.226  24.443   8.864
  319POPC   GL2 7550  39.352  24.567   8.864
  319POPC   C1A 7551  39.218  24.492   8.564
  319POPC   D2A 7552  39.279  24.513   8.264
  319POPC   C3A 7553  39.204  24.440   7.964
  319POPC   C4A 7554  39.251  24.458   7.664
  319POPC   C1B 7555  39.454  24.690   8.564
  319POPC   C2B 7556  39.376  24.690   8.264
  319POPC   C3B 7557  39.390  24.671   7.964
  319POPC   C4B 7558  39.397  24.640   7.664
  320POPC   NC3 7559  39.973  36.908   9.464
  320POPC   PO4 7560  39.962  36.884   9.164
  320POPC   GL1 7561  39.957  36.953   8.864
  320POPC   GL2 7562  40.178  36.944   8.864
  320POPC   C1A 7563  39.993  36.953   8.564
  320POPC   D2A 7564  40.048  36.879   8.264
  320POPC   C3A 7565  39.982  36.870   7.964
  320POPC   C4A 7566  40.050  36.916   7.664
  320POPC   C1B 7567  40.211  36.900   8.564
  320POPC   C2B 7568  40.250  36.918   8.264
  320POPC   C3B 7569  40.218  36.881   7.964
  320POPC   C4B 7570  40.208  36.940   7.664
  321POPC   NC3 7571  15.984  36.856   9.464
  321POPC   PO4 7572  15.971  36.953   9.164
  321POPC   GL1 7573  15.912  36.869   8.864
  321POPC   GL2 7574  16.085  36.987   8.864
  321POPC   C1A 7575  15.994  36.861   8.564
  321POPC   D2A 7576  15.921  36.949   8.264
  321POPC   C3A 7577  15.955  36.899   7.964
  321POPC   C4A 7578  15.981  36.863   7.664
  321POPC   C1B 7579  16.159  36.923   8.564
  321POPC   C2B 7580  16.215  37.003   8.264
  321POPC   C3B 7581  16.215  37.003   7.964
  321POPC   C4B 7582  16.217  36.968   7.664
  322POPC   NC3 7583  23.732  24.502   9.464
  322POPC   PO4 7584  23.743  24.538   9.164
  322POPC   GL1 7585  23.729  24.502   8.864
  322POPC   GL2 7586  23.824  24.589   8.864
  322POPC   C1A 7587  23.755  24.472   8.564
  322POPC   D2A 7588  23.708  24.476   8.264
  322POPC   C3A 7589  23.723  24.512   7.964
  322POPC   C4A 7590  23.692  24.475   7.664
  322POPC   C1B 7591  23.899  24.632   8.564
  322POPC   C2B 7592  23.923  24.688   8.264
  322POPC   C3B 7593  23.898  24.671   7.964
  322POPC   C4B 7594  23.891  24.606   7.664
  323POPC   NC3 7595  20.603  21.352   9.464
  323POPC   PO4 7596  20.596  21.375   9.164
  323POPC   GL1 7597  20.616  21.366   8.864
  323POPC   GL2 7598  20.473  21.387   8.864
  323POPC   C1A 7599  20.647  21.357   8.564
  323POPC   D2A 7600  20.624  21.423   8.264
  323POPC   C3A 7601  20.609  21.414   7.964
  323POPC   C4A 7602  20.585  21.361   7.664
  323POPC   C1B 7603  20.353  21.377   8.564
  323POPC   C2B 7604  20.395  21.371   8.264
  323POPC   C3B 7605  20.404  21.333   7.964
  323POPC   C4B 7606  20.378  21.339   7.664
  324POPC   NC3 7607   5.119  44.658   9.464
  324POPC   PO4 7608   5.089  44.703   9.164
  324POPC   GL1 7609   5.136  44.650   8.864
  324POPC   GL2 7610   5.174  44.659   8.864
  324POPC   C1A 7611   5.093  44.682   8.564
  324POPC   D2A 7612   5.129  44.690   8.264
  324POPC   C3A 7613   5.105  44.638   7.964
  324POPC   C4A 7614   5.096  44.681   7.664
  324POPC   C1B 7615   5.305  44.728   8.564
  324POPC   C2B 7616   5.297  44.647   8.264
  324POPC   C3B 7617   5.341  44.650   7.964
  324POPC   C4B 7618   5.368  44.666   7.664
  325POPC   NC3 7619  36.907  12.862   9.464
  325POPC   PO4 7620  36.860  12.833   9.164
  325POPC   GL1 7621  36.920  12.818   8.864
  325POPC   GL2 7622  37.005  12.742   8.864
  325POPC   C1A 7623  36.865  12.849   8.564
  325POPC   D2A 7624  36.949  12.833   8.264
  325POPC   C3A 7625  36.871  12.879   7.964
  325POPC   C4A 7626  36.914  12.851   7.664
  325POPC   C1B 7627  37.133  12.727   8.564
  325POPC   C2B 7628  37.145  12.757   8.264
  325POPC   C3B 7629  37.106  12.666   7.964
  325POPC   C4B 7630  37.082  12.664   7.664
  326POPC   NC3 7631  17.527  10.476   9.464
  326POPC   PO4 7632  17.459  10.529   9.164
  326POPC   GL1 7633  17.517  10.488   8.864
  326POPC   GL2 7634  17.643  10.534   8.864
  326POPC   C1A 7635  17.468  10.565   8.564
  326POPC   D2A 7636  17.498  10.509   8.264
  326POPC   C3A 7637  17.496  10.542   7.964
  326POPC   C4A 7638  17.486  10.526   7.664
  326POPC   C1B 7639  17.782  10.505   8.564
  326POPC   C2B 7640  17.714  10.517   8.264
  326POPC   C3B 7641  17.730  10.493   7.964
  326POPC   C4B 7642  17.767  10.476   7.664
  327POPC   NC3 7643   1.172  30.707   9.464
  327POPC   PO4 7644   1.164  30.714   9.164
  327POPC   GL1 7645   1.220  30.733   8.864
  327POPC   GL2 7646   1.378  30.625   8.864
  327POPC   C1A 7647   1.182  30.694   8.564
  327POPC   D2A 7648   1.201  30.742   8.264
  327POPC   C3A 7649   1.204  30.677   7.964
  327POPC   C4A 7650   1.166  30.716   7.664
  327POPC   C1B 7651   1.453  30.619   8.564
  327POPC   C2B 7652   1.447  30.546   8.264
  327POPC   C3B 7653   1.441  30.595   7.964
  327POPC   C4B 7654   1.465  30.592   7.664
  328POPC   NC3 7655  14.430  40.749   9.464
  328POPC   PO4 7656  14.425  40.744   9.164
  328POPC   GL1 7657  14.364  40.792   8.864
  328POPC   GL2 7658  14.373  40.938   8.864
  328POPC   C1A 7659  14.401  40.811   8.564
  328POPC   D2A 7660  14.375  40.823   8.264
  328POPC   C3A 7661  14.441  40.736   7.964
  328POPC   C4A 7662  14.414  40.769   7.664
  328POPC   C1B 7663  14.357  41.038   8.564
  328POPC   C2B 7664  14.384  41.023   8.264
  328POPC   C3B 7665  14.354  41.054   7.964
  328POPC   C4B 7666  14.356  41.060   7.664
  329POPC   NC3 7667  33.048  40.037   9.464
  329POPC   PO4 7668  33.064  40.013   9.164
  329POPC   GL1 7669  33.038  40.014   8.864
  329POPC   GL2 7670  32.860  40.017   8.864
  329POPC   C1A 7671  32.988  39.995   8.564
  329POPC   D2A 7672  33.072  40.005   8.264
  329POPC   C3A 7673  33.008  40.019   7.964
  329POPC   C4A 7674  33.018  39.958   7.664
  329POPC   C1B 7675  32.766  40.030   8.564
  329POPC   C2B 7676  32.816  39.967   8.264
  329POPC   C3B 7677  32.802  39.988   7.964
  329POPC   C4B 7678  32.748  40.035   7.664
  330POPC   NC3 7679  31.437   1.961   9.464
  330POPC   PO4 7680  31.443   2.002   9.164
  330POPC   GL1 7681  31.493   1.972   8.864
  330POPC   GL2 7682  31.613   2.082   8.864
  330POPC   C1A 7683  31.434   1.948   8.564
  330POPC   D2A 7684  31.480   2.001   8.264
  330POPC   C3A 7685  31.495   2.001   7.964
  330POPC   C4A 7686  31.515   1.950   7.664
  330POPC   C1B 7687  31.667   2.143   8.564
  330POPC   C2B 7688  31.715   2.146   8.264
  330POPC   C3B 7689  31.724   2.130   7.964
  330POPC   C4B 7690  31.745   2.142   7.664
  331POPC   NC3 7691   3.540  43.879   9.464
  331POPC   PO4 7692   3.498  43.852   9.164
  331POPC   GL1 7693   3.580  43.867   8.864
  331POPC   GL2 7694   3.609  43.972   8.864
  331POPC   C1A 7695   3.529  43.915   8.564
  331POPC   D2A 7696   3.521  43.890   8.264
  331POPC   C3A 7697   3.505  43.841   7.964
  331POPC   C4A 7698   3.540  43.921   7.664
  331POPC   C1B 7699   3.675  44.058   8.564
  331POPC   C2B 7700   3.689  44.034   8.264
  331POPC   C3B 7701   3.671  44.027   7.964
  331POPC   C4B 7702   3.688  44.083   7.664
  332POPC   NC3 7703   1.191   5.066   9.464
  332POPC   PO4 7704   1.183   5.103   9.164
  332POPC   GL1 7705   1.238   5.049   8.864
  332POPC   GL2 7706   1.209   5.238   8.864
  332POPC   C1A 7707   1.200   5.088   8.564
  332POPC   D2A 7708   1.173   5.054   8.264
  332POPC   C3A 7709   1.250   5.123   7.964
  332POPC   C4A 7710   1.255   5.136   7.664
  332POPC   C1B 7711   1.106   5.282   8.564
  332POPC   C2B 7712   1.085   5.276   8.264
  332POPC   C3B 7713   1.111   5.311   7.964
  332POPC   C4B 7714   1.060   5.291   7.664
  333POPC   NC3 7715   7.391  41.535   9.464
  333POPC   PO4 7716   7.376  41.590   9.164
  333POPC   GL1 7717   7.455  41.542   8.864
  333POPC   GL2 7718   7.529  41.633   8.864
  333POPC   C1A 7719   7.468  41.598   8.564
  333POPC   D2A 7720   7.418  41.510   8.264
  333POPC   C3A 7721   7.442  41.512   7.964
  333POPC   C4A 7722   7.424  41.553   7.664
  333POPC   C1B 7723   7.567  41.788   8.564
  333POPC   C2B 7724   7.539  41.715   8.264
  333POPC   C3B 7725   7.612  41.762   7.964
  333POPC   C4B 7726   7.614  41.794   7.664
  334POPC   NC3 7727  12.864  18.323   9.464
  334POPC   PO4 7728  12.821  18.246   9.164
  334POPC   GL1 7729  12.822  18.254   8.864
  334POPC   GL2 7730  12.897  18.136   8.864
  334POPC   C1A 7731  12.866  18.247   8.564
  334POPC   D2A 7732  12.807  18.321   8.264
  334POPC   C3A 7733  12.883  18.331   7.964
  334POPC   C4A 7734  12.824  18.261   7.664
  334POPC   C1B 7735  12.835  18.033   8.564
  334POPC   C2B 7736  12.911  18.031   8.264
  334POPC   C3B 7737  12.881  17.986   7.964
  334POPC   C4B 7738  12.858  18.039   7.664
  335POPC   NC3 7739  25.284  17.535   9.464
  335POPC   PO4 7740  25.303  17.505   9.164
  335POPC   GL1 7741  25.298  17.523   8.864
  335POPC   GL2 7742  25.411  17.539   8.864
  335POPC   C1A 7743  25.237  17.545   8.564
  335POPC   D2A 7744  25.264  17.479   8.264
  335POPC   C3A 7745  25.257  17.552   7.964
  335POPC   C4A 7746  25.217  17.545   7.664
  335POPC   C1B 7747  25.443  17.591   8.564
  335POPC   C2B 7748  25.496  17.631   8.264
  335POPC   C3B 7749  25.531  17.641   7.964
  335POPC   C4B 7750  25.453  17.639   7.664
  336POPC   NC3 7751  40.816  12.074   9.464
  336POPC   PO4 7752  40.768  12.121   9.164
  336POPC   GL1 7753  40.795  12.067   8.864
  336POPC   GL2 7754  40.778  12.233   8.864
  336POPC   C1A 7755  40.804  12.026   8.564
  336POPC   D2A 7756  40.765  12.124   8.264
  336POPC   C3A 7757  40.818  12.067   7.964
  336POPC   C4A 7758  40.770  12.067   7.664
  336POPC   C1B 7759  40.810  12.328   8.564
  336POPC   C2B 7760  40.811  12.352   8.264
  336POPC   C3B 7761  40.827  12.300   7.964
  336POPC   C4B 7762  40.814  12.296   7.664
  337POPC   NC3 7763  19.785  28.344   9.464
  337POPC   PO4 7764  19.797  28.371   9.164
  337POPC   GL1 7765  19.869  28.350   8.864
  337POPC   GL2 7766  19.817  28.494   8.864
  337POPC   C1A 7767  19.812  28.340   8.564
  337POPC   D2A 7768  19.797  28.378   8.264
  337POPC   C3A 7769  19.852  28.336   7.964
  337POPC   C4A 7770  19.842  28.359   7.664
  337POPC   C1B 7771  19.676  28.602   8.564
  337POPC   C2B 7772  19.755  28.549   8.264
  337POPC   C3B 7773  19.695  28.541   7.964
  337POPC   C4B 7774  19.749  28.552   7.664
  338POPC   NC3 7775  28.380   9.727   9.464
  338POPC   PO4 7776  28.389   9.739   9.164
  338POPC   GL1 7777  28.345   9.735   8.864
  338POPC   GL2 7778  28.319   9.654   8.864
  338POPC   C1A 7779  28.383   9.776   8.564
  338POPC   D2A 7780  28.394   9.749   8.264
  338POPC   C3A 7781  28.372   9.785   7.964
  338POPC   C4A 7782  28.327   9.699   7.664
  338POPC   C1B 7783  28.282   9.514   8.564
  338POPC   C2B 7784  28.266   9.492   8.264
  338POPC   C3B 7785  28.313   9.543   7.964
  338POPC   C4B 7786  28.329   9.560   7.664
  339POPC   NC3 7787  26.862  35.395   9.464
  339POPC   PO4 7788  26.772  35.346   9.164
  339POPC   GL1 7789  26.821  35.342   8.864
  339POPC   GL2 7790  26.827  35.519   8.864
  339POPC   C1A 7791  26.834  35.401   8.564
  339POPC   D2A 7792  26.852  35.321   8.264
  339POPC   C3A 7793  26.769  35.386   7.964
  339POPC   C4A 7794  26.841  35.324   7.664
  339POPC   C1B 7795  26.922  35.559   8.564
  339POPC   C2B 7796  26.843  35.606   8.264
  339POPC   C3B 7797  26.864  35.561   7.964
  339POPC   C4B 7798  26.868  35.620   7.664
  340POPC   NC3 7799  29.128   0.424   9.464
  340POPC   PO4 7800  29.101   0.474   9.164
  340POPC   GL1 7801  29.120   0.399   8.864
  340POPC   GL2 7802  29.047   0.318   8.864
  340POPC   C1A 7803  29.114   0.424   8.564
  340POPC   D2A 7804  29.191   0.426   8.264
  340POPC   C3A 7805  29.135   0.485   7.964
  340POPC   C4A 7806  29.102   0.414   7.664
  340POPC   C1B 7807  28.956   0.325   8.564
  340POPC   C2B 7808  28.911   0.256   8.264
  340POPC   C3B 7809  28.957   0.295   7.964
  340POPC   C4B 7810  28.973   0.289   7.664
  341POPC   NC3 7811  22.938  19.060   9.464
  341POPC   PO4 7812  22.973  19.058   9.164
  341POPC   GL1 7813  22.921  19.048   8.864
  341POPC   GL2 7814  22.827  18.986   8.864
  341POPC   C1A 7815  22.943  19.080   8.564
  341POPC   D2A 7816  22.908  19.012   8.264
  341POPC   C3A 7817  22.981  19.089   7.964
  341POPC   C4A 7818  22.926  19.106   7.664
  341POPC   C1B 7819  22.756  18.870   8.564
  341POPC   C2B 7820  22.745  18.832   8.264
  341POPC   C3B 7821  22.765  18.835   7.964
  341POPC   C4B 7822  22.784  18.848   7.664
  342POPC   NC3 7823  14.396   2.027   9.464
  342POPC   PO4 7824  14.371   2.027   9.164
  342POPC   GL1 7825  14.451   2.022   8.864
  342POPC   GL2 7826  14.318   1.861   8.864
  342POPC   C1A 7827  14.432   1.985   8.564
  342POPC   D2A 7828  14.420   2.032   8.264
  342POPC   C3A 7829  14.367   2.003   7.964
  342POPC   C4A 7830  14.367   2.005   7.664
  342POPC   C1B 7831  14.199   1.749   8.564
  342POPC   C2B 7832  14.214   1.787   8.264
  342POPC   C3B 7833  14.201   1.819   7.964
  342POPC   C4B 7834  14.202   1.777   7.664
  343POPC   NC3 7835  14.354  32.264   9.464
  343POPC   PO4 7836  14.374  32.242   9.164
  343POPC   GL1 7837  14.416  32.278   8.864
  343POPC   GL2 7838  14.288  32.275   8.864
  343POPC   C1A 7839  14.387  32.289   8.564
  343POPC   D2A 7840  14.403  32.271   8.264
  343POPC   C3A 7841  14.428  32.276   7.964
  343POPC   C4A 7842  14.396  32.292   7.664
  343POPC   C1B 7843  14.136  32.391   8.564
  343POPC   C2B 7844  14.182  32.307   8.264
  343POPC   C3B 7845  14.172  32.390   7.964
  343POPC   C4B 7846  14.158  32.299   7.664
  344POPC   NC3 7847  21.370  28.363   9.464
  344POPC   PO4 7848  21.362  28.378   9.164
  344POPC   GL1 7849  21.358  28.410   8.864
  344POPC   GL2 7850  21.404  28.484   8.864
  344POPC   C1A 7851  21.355  28.415   8.564
  344POPC   D2A 7852  21.432  28.412   8.264
  344POPC   C3A 7853  21.345  28.398   7.964
  344POPC   C4A 7854  21.378  28.325   7.664
  344POPC   C1B 7855  21.325  28.602   8.564
  344POPC   C2B 7856  21.357  28.611   8.264
  344POPC   C3B 7857  21.379  28.615   7.964
  344POPC   C4B 7858  21.381  28.654   7.664
  345POPC   NC3 7859  35.361   0.428   9.464
  345POPC   PO4 7860  35.353   0.436   9.164
  345POPC   GL1 7861  35.341   0.470   8.864
  345POPC   GL2 7862  35.350   0.580   8.864
  345POPC   C1A 7863  35.313   0.458   8.564
  345POPC   D2A 7864  35.375   0.464   8.264
  345POPC   C3A 7865  35.352   0.486   7.964
  345POPC   C4A 7866  35.356   0.405   7.664
  345POPC   C1B 7867  35.228   0.694   8.564
  345POPC   C2B 7868  35.321   0.667   8.264
  345POPC   C3B 7869  35.282   0.711   7.964
  345POPC   C4B 7870  35.275   0.661   7.664
  346POPC   NC3 7871  19.790  33.023   9.464
  346POPC   PO4 7872  19.797  33.008   9.164
  346POPC   GL1 7873  19.798  33.006   8.864
  346POPC   GL2 7874  19.696  33.107   8.864
  346POPC   C1A 7875  19.844  33.056   8.564
  346POPC   D2A 7876  19.831  33.008   8.264
  346POPC   C3A 7877  19.790  32.996   7.964
  346POPC   C4A 7878  19.824  33.059   7.664
  346POPC   C1B 7879  19.677  33.218   8.564
  346POPC   C2B 7880  19.645  33.161   8.264
  346POPC   C3B 7881  19.606  33.209   7.964
  346POPC   C4B 7882  19.694  33.236   7.664
  347POPC   NC3 7883  44.692  26.795   9.464
  347POPC   PO4 7884  44.688  26.850   9.164
  347POPC   GL1 7885  44.678  26.821   8.864
  347POPC   GL2 7886  44.652  26.716   8.864
  347POPC   C1A 7887  44.652  26.844   8.564
  347POPC   D2A 7888  44.689  26.784   8.264
  347POPC   C3A 7889  44.661  26.777   7.964
  347POPC   C4A 7890  44.657  26.805   7.664
  347POPC   C1B 7891  44.718  26.581   8.564
  347POPC   C2B 7892  44.783  26.614   8.264
  347POPC   C3B 7893  44.770  26.612   7.964
  347POPC   C4B 7894  44.707  26.578   7.664
  348POPC   NC3 7895   7.467  36.892   9.464
  348POPC   PO4 7896   7.392  36.894   9.164
  348POPC   GL1 7897   7.396  36.889   8.864
  348POPC   GL2 7898   7.473  37.061   8.864
  348POPC   C1A 7899   7.421  36.884   8.564
  348POPC   D2A 7900   7.407  36.936   8.264
  348POPC   C3A 7901   7.457  36.953   7.964
  348POPC   C4A 7902   7.374  36.907   7.664
  348POPC   C1B 7903   7.500  37.135   8.564
  348POPC   C2B 7904   7.508  37.110   8.264
  348POPC   C3B 7905   7.507  37.175   7.964
  348POPC   C4B 7906   7.460  37.179   7.664
  349POPC   NC3 7907  31.446  21.342   9.464
  349POPC   PO4 7908  31.461  21.338   9.164
  349POPC   GL1 7909  31.450  21.379   8.864
  349POPC   GL2 7910  31.584  21.437   8.864
  349POPC   C1A 7911  31.473  21.378   8.564
  349POPC   D2A 7912  31.429  21.344   8.264
  349POPC   C3A 7913  31.492  21.387   7.964
  349POPC   C4A 7914  31.423  21.360   7.664
  349POPC   C1B 7915  31.715  21.585   8.564
  349POPC   C2B 7916  31.669  21.507   8.264
  349POPC   C3B 7917  31.692  21.536   7.964
  349POPC   C4B 7918  31.694  21.563   7.664
  350POPC   NC3 7919  26.815  19.798   9.464
  350POPC   PO4 7920  26.775  19.874   9.164
  350POPC   GL1 7921  26.784  19.791   8.864
  350POPC   GL2 7922  26.725  19.725   8.864
  350POPC   C1A 7923  26.863  19.836   8.564
  350POPC   D2A 7924  26.769  19.827   8.264
  350POPC   C3A 7925  26.810  19.861   7.964
  350POPC   C4A 7926  26.799  19.831   7.664
  350POPC   C1B 7927  26.678  19.563   8.564
  350POPC   C2B 7928  26.660  19.594   8.264
  350POPC   C3B 7929  26.731  19.569   7.964
  350POPC   C4B 7930  26.669  19.614   7.664
  351POPC   NC3 7931  26.839  14.401   9.464
  351POPC   PO4 7932  26.844  14.354   9.164
  351POPC   GL1 7933  26.768  14.372   8.864
  351POPC   GL2 7934  26.909  14.521   8.864
  351POPC   C1A 7935  26.790  14.356   8.564
  351POPC   D2A 7936  26.867  14.386   8.264
  351POPC   C3A 7937  26.837  14.366   7.964
  351POPC   C4A 7938  26.838  14.408   7.664
  351POPC   C1B 7939  26.953  14.554   8.564
  351POPC   C2B 7940  27.036  14.619   8.264
  351POPC   C3B 7941  27.027  14.565   7.964
  351POPC   C4B 7942  27.029  14.581   7.664
  352POPC   NC3 7943  39.251  27.557   9.464
  352POPC   PO4 7944  39.272  27.593   9.164
  352POPC   GL1 7945  39.254  27.641   8.864
  352POPC   GL2 7946  39.234  27.423   8.864
  352POPC   C1A 7947  39.256  27.592   8.564
  352POPC   D2A 7948  39.188  27.589   8.264
  352POPC   C3A 7949  39.252  27.613   7.964
  352POPC   C4A 7950  39.244  27.544   7.664
  352POPC   C1B 7951  39.142  27.323   8.564
  352POPC   C2B 7952  39.149  27.303   8.264
  352POPC   C3B 7953  39.211  27.353   7.964
  352POPC   C4B 7954  39.127  27.310   7.664
  353POPC   NC3 7955  44.640  12.105   9.464
  353POPC   PO4 7956  44.700  12.042   9.164
  353POPC   GL1 7957  44.658  12.072   8.864
  353POPC   GL2 7958  44.561  12.048   8.864
  353POPC   C1A 7959  44.694  12.027   8.564
  353POPC   D2A 7960  44.707  12.093   8.264
  353POPC   C3A 7961  44.685  12.106   7.964
  353POPC   C4A 7962  44.678  12.104   7.664
  353POPC   C1B 7963  44.408  11.910   8.564
  353POPC   C2B 7964  44.448  11.973   8.264
  353POPC   C3B 7965  44.405  11.913   7.964
  353POPC   C4B 7966  44.415  11.955   7.664
  354POPC   NC3 7967   9.795  44.694   9.464
  354POPC   PO4 7968   9.725  44.691   9.164
  354POPC   GL1 7969   9.790  44.706   8.864
  354POPC   GL2 7970   9.576  44.642   8.864
  354POPC   C1A 7971   9.710  44.676   8.564
  354POPC   D2A 7972   9.745  44.626   8.264
  354POPC   C3A 7973   9.796  44.676   7.964
  354POPC   C4A 7974   9.751  44.706   7.664
  354POPC   C1B 7975   9.514  44.704   8.564
  354POPC   C2B 7976   9.471  44.685   8.264
  354POPC   C3B 7977   9.498  44.729   7.964
  354POPC   C4B 7978   9.456  44.724   7.664
  355POPC   NC3 7979  20.591  13.663   9.464
  355POPC   PO4 7980  20.621  13.659   9.164
  355POPC   GL1 7981  20.605  13.594   8.864
  355POPC   GL2 7982  20.565  13.719   8.864
  355POPC   C1A 7983  20.602  13.651   8.564
  355POPC   D2A 7984  20.583  13.587   8.264
  355POPC   C3A 7985  20.627  13.583   7.964
  355POPC   C4A 7986  20.610  13.646   7.664
  355POPC   C1B 7987  20.429  13.854   8.564
  355POPC   C2B 7988  20.430  13.756   8.264
  355POPC   C3B 7989  20.481  13.765   7.964
  355POPC   C4B 7990  20.412  13.837   7.664
  356POPC   NC3 7991  23.736   2.793   9.464
  356POPC   PO4 7992  23.667   2.786   9.164
  356POPC   GL1 7993  23.712   2.814   8.864
  356POPC   GL2 7994  23.807   2.916   8.864
  356POPC   C1A 7995  23.725   2.721   8.564
  356POPC   D2A 7996  23.721   2.728   8.264
  356POPC   C3A 7997  23.744   2.746   7.964
  356POPC   C4A 7998  23.677   2.780   7.664
  356POPC   C1B 7999  23.848   2.980   8.564
  356POPC   C2B 8000  23.773   3.014   8.264
  356POPC   C3B 8001  23.782   2.982   7.964
  356POPC   C4B 8002  23.792   2.947   7.664
  357POPC   NC3 8003   2.745  43.861   9.464
  357POPC   PO4 8004   2.786  43.861   9.164
  357POPC   GL1 8005   2.786  43.847   8.864
  357POPC   GL2 8006   2.684  43.752   8.864
  357POPC   C1A 8007   2.807  43.855   8.564
  357POPC   D2A 8008   2.775  43.850   8.264
  357POPC   C3A 8009   2.736  43.880   7.964
  357POPC   C4A 8010   2.762  43.842   7.664
  357POPC   C1B 8011   2.590  43.640   8.564
  357POPC   C2B 8012   2.631  43.664   8.264
  357POPC   C3B 8013   2.633  43.642   7.964
  357POPC   C4B 8014   2.664  43.693   7.664
  358POPC   NC3 8015   2.780  34.564   9.464
  358POPC   PO4 8016   2.798  34.625   9.164
  358POPC   GL1 8017   2.717  34.571   8.864
  358POPC   GL2 8018   2.697  34.676   8.864
  358POPC   C1A 8019   2.778  34.593   8.564
  358POPC   D2A 8020   2.775  34.558   8.264
  358POPC   C3A 8021   2.810  34.557   7.964
  358POPC   C4A 8022   2.747  34.602   7.664
  358POPC   C1B 8023   2.654  34.831   8.564
  358POPC   C2B 8024   2.629  34.839   8.264
  358POPC   C3B 8025   2.610  34.779   7.964
  358POPC   C4B 8026   2.616  34.833   7.664
  359POPC   NC3 8027  38.435  39.258   9.464
  359POPC   PO4 8028  38.412  39.210   9.164
  359POPC   GL1 8029  38.444  39.230   8.864
  359POPC   GL2 8030  38.551  39.334   8.864
  359POPC   C1A 8031  38.454  39.220   8.564
  359POPC   D2A 8032  38.499  39.195   8.264
  359POPC   C3A 8033  38.429  39.268   7.964
  359POPC   C4A 8034  38.435  39.189   7.664
  359POPC   C1B 8035  38.660  39.356   8.564
  359POPC   C2B 8036  38.649  39.440   8.264
  359POPC   C3B 8037  38.655  39.367   7.964
  359POPC   C4B 8038  38.661  39.377   7.664
  360POPC   NC3 8039  20.567  23.749   9.464
  360POPC   PO4 8040  20.630  23.709   9.164
  360POPC   GL1 8041  20.569  23.751   8.864
  360POPC   GL2 8042  20.658  23.595   8.864
  360POPC   C1A 8043  20.622  23.739   8.564
  360POPC   D2A 8044  20.568  23.714   8.264
  360POPC   C3A 8045  20.575  23.714   7.964
  360POPC   C4A 8046  20.649  23.694   7.664
  360POPC   C1B 8047  20.791  23.555   8.564
  360POPC   C2B 8048  20.716  23.536   8.264
  360POPC   C3B 8049  20.737  23.470   7.964
  360POPC   C4B 8050  20.704  23.493   7.664
  361POPC   NC3 8051  38.450  43.097   9.464
  361POPC   PO4 8052  38.434  43.135   9.164
  361POPC   GL1 8053  38.488  43.143   8.864
  361POPC   GL2 8054  38.512  43.208   8.864
  361POPC   C1A 8055  38.412  43.114   8.564
  361POPC   D2A 8056  38.464  43.096   8.264
  361POPC   C3A 8057  38.424  43.141   7.964
  361POPC   C4A 8058  38.452  43.126   7.664
  361POPC   C1B 8059  38.658  43.277   8.564
  361POPC   C2B 8060  38.621  43.285   8.264
  361POPC   C3B 8061  38.655  43.269   7.964
  361POPC   C4B 8062  38.601  43.236   7.664
  362POPC   NC3 8063  10.551   2.802   9.464
  362POPC   PO4 8064  10.555   2.795   9.164
  362POPC   GL1 8065  10.484   2.729   8.864
  362POPC   GL2 8066  10.510   2.597   8.864
  362POPC   C1A 8067  10.555   2.815   8.564
  362POPC   D2A 8068  10.529   2.738   8.264
  362POPC   C3A 8069  10.545   2.778   7.964
  362POPC   C4A 8070  10.557   2.795   7.664
  362POPC   C1B 8071  10.601   2.500   8.564
  362POPC   C2B 8072  10.607   2.527   8.264
  362POPC   C3B 8073  10.632   2.540   7.964
  362POPC   C4B 8074  10.556   2.493   7.664
  363POPC   NC3 8075   1.171  19.024   9.464
  363POPC   PO4 8076   1.250  19.058   9.164
  363POPC   GL1 8077   1.219  19.067   8.864
  363POPC   GL2 8078   1.352  19.099   8.864
  363POPC   C1A 8079   1.185  19.066   8.564
  363POPC   D2A 8080   1.191  19.021   8.264
  363POPC   C3A 8081   1.212  19.074   7.964
  363POPC   C4A 8082   1.250  19.058   7.664
  363POPC   C1B 8083   1.431  19.092   8.564
  363POPC   C2B 8084   1.503  19.031   8.264
  363POPC   C3B 8085   1.467  19.087   7.964
  363POPC   C4B 8086   1.512  19.107   7.664
  364POPC   NC3 8087  33.833   1.947   9.464
  364POPC   PO4 8088  33.799   2.038   9.164
  364POPC   GL1 8089  33.759   2.040   8.864
  364POPC   GL2 8090  33.919   1.965   8.864
  364POPC   C1A 8091  33.760   1.982   8.564
  364POPC   D2A 8092  33.825   1.966   8.264
  364POPC   C3A 8093  33.829   2.028   7.964
  364POPC   C4A 8094  33.777   1.984   7.664
  364POPC   C1B 8095  34.038   1.997   8.564
  364POPC   C2B 8096  34.029   2.061   8.264
  364POPC   C3B 8097  34.046   2.059   7.964
  364POPC   C4B 8098  34.058   2.051   7.664
  365POPC   NC3 8099   4.293  36.177   9.464
  365POPC   PO4 8100   4.291  36.085   9.164
  365POPC   GL1 8101   4.314  36.095   8.864
  365POPC   GL2 8102   4.348  36.241   8.864
  365POPC   C1A 8103   4.286  36.131   8.564
  365POPC   D2A 8104   4.360  36.134   8.264
  365POPC   C3A 8105   4.308  36.079   7.964
  365POPC   C4A 8106   4.327  36.106   7.664
  365POPC   C1B 8107   4.324  36.341   8.564
  365POPC   C2B 8108   4.389  36.373   8.264
  365POPC   C3B 8109   4.312  36.348   7.964
  365POPC   C4B 8110   4.318  36.381   7.664
  366POPC   NC3 8111  13.643  43.159   9.464
  366POPC   PO4 8112  13.589  43.068   9.164
  366POPC   GL1 8113  13.591  43.094   8.864
  366POPC   GL2 8114  13.797  43.087   8.864
  366POPC   C1A 8115  13.668  43.142   8.564
  366POPC   D2A 8116  13.623  43.066   8.264
  366POPC   C3A 8117  13.666  43.136   7.964
  366POPC   C4A 8118  13.603  43.114   7.664
  366POPC   C1B 8119  13.853  43.023   8.564
  366POPC   C2B 8120  13.838  43.020   8.264
  366POPC   C3B 8121  13.896  43.027   7.964
  366POPC   C4B 8122  13.871  43.065   7.664
  367POPC   NC3 8123  20.602  25.301   9.464
  367POPC   PO4 8124  20.583  25.248   9.164
  367POPC   GL1 8125  20.629  25.241   8.864
  367POPC   GL2 8126  20.663  25.354   8.864
  367POPC   C1A 8127  20.626  25.224   8.564
  367POPC   D2A 8128  20.615  25.248   8.264
  367POPC   C3A 8129  20.561  25.277   7.964
  367POPC   C4A 8130  20.600  25.249   7.664
  367POPC   C1B 8131  20.656  25.536   8.564
  367POPC   C2B 8132  20.699  25.510   8.264
  367POPC   C3B 8133  20.627  25.536   7.964
  367POPC   C4B 8134  20.647  25.538   7.664
  368POPC   NC3 8135  21.410  44.647   9.464
  368POPC   PO4 8136  21.404  44.697   9.164
  368POPC   GL1 8137  21.388  44.703   8.864
  368POPC   GL2 8138  21.466  44.626   8.864
  368POPC   C1A 8139  21.381  44.668   8.564
  368POPC   D2A 8140  21.351  44.629   8.264
  368POPC   C3A 8141  21.396  44.641   7.964
  368POPC   C4A 8142  21.408  44.634   7.664
  368POPC   C1B 8143  21.577  44.572   8.564
  368POPC   C2B 8144  21.643  44.543   8.264
  368POPC   C3B 8145  21.647  44.624   7.964
  368POPC   C4B 8146  21.598  44.580   7.664
  369POPC   NC3 8147  39.981   8.174   9.464
  369POPC   PO4 8148  39.981   8.207   9.164
  369POPC   GL1 8149  40.006   8.162   8.864
  369POPC   GL2 8150  40.110   8.150   8.864
  369POPC   C1A 8151  39.988   8.159   8.564
  369POPC   D2A 8152  40.054   8.168   8.264
  369POPC   C3A 8153  39.979   8.220   7.964
  369POPC   C4A 8154  39.984   8.204   7.664
  369POPC   C1B 8155  40.163   8.004   8.564
  369POPC   C2B 8156  40.186   7.976   8.264
  369POPC   C3B 8157  40.178   7.976   7.964
  369POPC   C4B 8158  40.160   7.971   7.664
  370POPC   NC3 8159  41.575  36.151   9.464
  370POPC   PO4 8160  41.597  36.129   9.164
  370POPC   GL1 8161  41.600  36.110   8.864
  370POPC   GL2 8162  41.650  36.054   8.864
  370POPC   C1A 8163  41.525  36.111   8.564
  370POPC   D2A 8164  41.563  36.079   8.264
  370POPC   C3A 8165  41.524  36.158   7.964
  370POPC   C4A 8166  41.558  36.100   7.664
  370POPC   C1B 8167  41.740  36.030   8.564
  370POPC   C2B 8168  41.745  35.966   8.264
  370POPC   C3B 8169  41.751  36.024   7.964
  370POPC   C4B 8170  41.720  35.982   7.664
  371POPC   NC3 8171   1.953   1.995   9.464
  371POPC   PO4 8172   2.036   1.973   9.164
  371POPC   GL1 8173   1.954   1.962   8.864
  371POPC   GL2 8174   1.877   2.003   8.864
  371POPC   C1A 8175   2.036   2.001   8.564
  371POPC   D2A 8176   1.970   1.987   8.264
  371POPC   C3A 8177   1.978   2.027   7.964
  371POPC   C4A 8178   2.003   1.996   7.664
  371POPC   C1B 8179   1.708   2.013   8.564
  371POPC   C2B 8180   1.747   2.088   8.264
  371POPC   C3B 8181   1.794   2.032   7.964
  371POPC   C4B 8182   1.794   2.090   7.664
  372POPC   NC3 8183  41.546  14.448   9.464
  372POPC   PO4 8184  41.578  14.374   9.164
  372POPC   GL1 8185  41.524  14.434   8.864
  372POPC   GL2 8186  41.635  14.376   8.864
  372POPC   C1A 8187  41.581  14.360   8.564
  372POPC   D2A 8188  41.565  14.416   8.264
  372POPC   C3A 8189  41.592  14.391   7.964
  372POPC   C4A 8190  41.582  14.435   7.664
  372POPC   C1B 8191  41.796  14.383   8.564
  372POPC   C2B 8192  41.761  14.438   8.264
  372POPC   C3B 8193  41.797  14.390   7.964
  372POPC   C4B 8194  41.835  14.409   7.664
  373POPC   NC3 8195  42.352  15.939   9.464
  373POPC   PO4 8196  42.333  15.982   9.164
  373POPC   GL1 8197  42.383  15.917   8.864
  373POPC   GL2 8198  42.241  15.954   8.864
  373POPC   C1A 8199  42.320  15.979   8.564
  373POPC   D2A 8200  42.348  15.932   8.264
  373POPC   C3A 8201  42.327  15.927   7.964
  373POPC   C4A 8202  42.321  15.982   7.664
  373POPC   C1B 8203  42.051  16.007   8.564
  373POPC   C2B 8204  42.074  15.971   8.264
  373POPC   C3B 8205  42.075  15.998   7.964
  373POPC   C4B 8206  42.096  15.987   7.664
  374POPC   NC3 8207   3.568  17.477   9.464
  374POPC   PO4 8208   3.553  17.507   9.164
  374POPC   GL1 8209   3.516  17.480   8.864
  374POPC   GL2 8210   3.659  17.416   8.864
  374POPC   C1A 8211   3.550  17.474   8.564
  374POPC   D2A 8212   3.555  17.548   8.264
  374POPC   C3A 8213   3.558  17.531   7.964
  374POPC   C4A 8214   3.498  17.519   7.664
  374POPC   C1B 8215   3.659  17.308   8.564
  374POPC   C2B 8216   3.727  17.268   8.264
  374POPC   C3B 8217   3.702  17.310   7.964
  374POPC   C4B 8218   3.698  17.323   7.664
  375POPC   NC3 8219   4.287  25.218   9.464
  375POPC   PO4 8220   4.273  25.282   9.164
  375POPC   GL1 8221   4.319  25.219   8.864
  375POPC   GL2 8222   4.232  25.198   8.864
  375POPC   C1A 8223   4.347  25.314   8.564
  375POPC   D2A 8224   4.268  25.219   8.264
  375POPC   C3A 8225   4.325  25.295   7.964
  375POPC   C4A 8226   4.327  25.251   7.664
  375POPC   C1B 8227   4.194  25.049   8.564
  375POPC   C2B 8228   4.272  25.048   8.264
  375POPC   C3B 8229   4.243  25.050   7.964
  375POPC   C4B 8230   4.189  25.014   7.664
  376POPC   NC3 8231  36.150  29.970   9.464
  376POPC   PO4 8232  36.078  29.950   9.164
  376POPC   GL1 8233  36.084  29.962   8.864
  376POPC   GL2 8234  36.149  30.046   8.864
  376POPC   C1A 8235  36.165  29.878   8.564
  376POPC   D2A 8236  36.100  29.967   8.264
  376POPC   C3A 8237  36.098  29.890   7.964
  376POPC   C4A 8238  36.157  29.946   7.664
  376POPC   C1B 8239  36.265  30.126   8.564
  376POPC   C2B 8240  36.253  30.185   8.264
  376POPC   C3B 8241  36.201  30.182   7.964
  376POPC   C4B 8242  36.274  30.110   7.664
  377POPC   NC3 8243   4.328   7.411   9.464
  377POPC   PO4 8244   4.339   7.451   9.164
  377POPC   GL1 8245   4.315   7.385   8.864
  377POPC   GL2 8246   4.155   7.506   8.864
  377POPC   C1A 8247   4.285   7.404   8.564
  377POPC   D2A 8248   4.351   7.422   8.264
  377POPC   C3A 8249   4.298   7.430   7.964
  377POPC   C4A 8250   4.367   7.453   7.664
  377POPC   C1B 8251   4.074   7.541   8.564
  377POPC   C2B 8252   4.100   7.520   8.264
  377POPC   C3B 8253   4.140   7.488   7.964
  377POPC   C4B 8254   4.106   7.559   7.664
  378POPC   NC3 8255  33.784  40.015   9.464
  378POPC   PO4 8256  33.787  39.998   9.164
  378POPC   GL1 8257  33.799  39.977   8.864
  378POPC   GL2 8258  33.661  39.951   8.864
  378POPC   C1A 8259  33.752  40.008   8.564
  378POPC   D2A 8260  33.797  39.987   8.264
  378POPC   C3A 8261  33.818  39.976   7.964
  378POPC   C4A 8262  33.783  39.986   7.664
  378POPC   C1B 8263  33.620  39.883   8.564
  378POPC   C2B 8264  33.556  39.878   8.264
  378POPC   C3B 8265  33.561  39.879   7.964
  378POPC   C4B 8266  33.598  39.946   7.664
  379POPC   NC3 8267  12.108  23.726   9.464
  379POPC   PO4 8268  12.071  23.683   9.164
  379POPC   GL1 8269  12.115  23.747   8.864
  379POPC   GL2 8270  12.095  23.634   8.864
  379POPC   C1A 8271  12.117  23.736   8.564
  379POPC   D2A 8272  12.126  23.665   8.264
  379POPC   C3A 8273  12.111  23.702   7.964
  379POPC   C4A 8274  12.096  23.667   7.664
  379POPC   C1B 8275  12.105  23.423   8.564
  379POPC   C2B 8276  12.179  23.451   8.264
  379POPC   C3B 8277  12.141  23.514   7.964
  379POPC   C4B 8278  12.133  23.430   7.664
  380POPC   NC3 8279  29.162  24.523   9.464
  380POPC   PO4 8280  29.173  24.504   9.164
  380POPC   GL1 8281  29.160  24.525   8.864
  380POPC   GL2 8282  29.052  24.633   8.864
  380POPC   C1A 8283  29.097  24.472   8.564
  380POPC   D2A 8284  29.137  24.511   8.264
  380POPC   C3A 8285  29.152  24.538   7.964
  380POPC   C4A 8286  29.151  24.537   7.664
  380POPC   C1B 8287  29.012  24.720   8.564
  380POPC   C2B 8288  29.047  24.724   8.264
  380POPC   C3B 8289  29.056  24.708   7.964
  380POPC   C4B 8290  29.083  24.767   7.664
  381POPC   NC3 8291  13.630  34.541   9.464
  381POPC   PO4 8292  13.665  34.553   9.164
  381POPC   GL1 8293  13.627  34.614   8.864
  381POPC   GL2 8294  13.786  34.568   8.864
  381POPC   C1A 8295  13.648  34.572   8.564
  381POPC   D2A 8296  13.645  34.526   8.264
  381POPC   C3A 8297  13.646  34.590   7.964
  381POPC   C4A 8298  13.591  34.610   7.664
  381POPC   C1B 8299  13.899  34.563   8.564
  381POPC   C2B 8300  13.843  34.524   8.264
  381POPC   C3B 8301  13.888  34.532   7.964
  381POPC   C4B 8302  13.876  34.512   7.664
  382POPC   NC3 8303  21.376   5.110   9.464
  382POPC   PO4 8304  21.426   5.138   9.164
  382POPC   GL1 8305  21.337   5.107   8.864
  382POPC   GL2 8306  21.450   5.167   8.864
  382POPC   C1A 8307  21.400   5.073   8.564
  382POPC   D2A 8308  21.394   5.078   8.264
  382POPC   C3A 8309  21.401   5.105   7.964
  382POPC   C4A 8310  21.384   5.099   7.664
  382POPC   C1B 8311  21.489   5.357   8.564
  382POPC   C2B 8312  21.486   5.282   8.264
  382POPC   C3B 8313  21.534   5.316   7.964
  382POPC   C4B 8314  21.468   5.352   7.664
  383POPC   NC3 8315  26.783  26.815   9.464
  383POPC   PO4 8316  26.833  26.785   9.164
  383POPC   GL1 8317  26.782  26.782   8.864
  383POPC   GL2 8318  26.816  26.710   8.864
  383POPC   C1A 8319  26.803  26.801   8.564
  383POPC   D2A 8320  26.805  26.819   8.264
  383POPC   C3A 8321  26.774  26.797   7.964
  383POPC   C4A 8322  26.807  26.840   7.664
  383POPC   C1B 8323  26.803  26.592   8.564
  383POPC   C2B 8324  26.771  26.601   8.264
  383POPC   C3B 8325  26.817  26.602   7.964
  383POPC   C4B 8326  26.756  26.565   7.664
  384POPC   NC3 8327  44.616  22.133   9.464
  384POPC   PO4 8328  44.617  22.198   9.164
  384POPC   GL1 8329  44.672  22.209   8.864
  384POPC   GL2 8330  44.549  22.253   8.864
  384POPC   C1A 8331  44.693  22.178   8.564
  384POPC   D2A 8332  44.656  22.159   8.264
  384POPC   C3A 8333  44.635  22.125   7.964
  384POPC   C4A 8334  44.621  22.145   7.664
  384POPC   C1B 8335  44.489  22.333   8.564
  384POPC   C2B 8336  44.474  22.316   8.264
  384POPC   C3B 8337  44.428  22.260   7.964
  384POPC   C4B 8338  44.474  22.306   7.664
  385POPC   NC3 8339  15.225   1.196   9.464
  385POPC   PO4 8340  15.227   1.249   9.164
  385POPC   GL1 8341  15.168   1.250   8.864
  385POPC   GL2 8342  15.252   1.315   8.864
  385POPC   C1A 8343  15.211   1.214   8.564
  385POPC   D2A 8344  15.177   1.213   8.264
  385POPC   C3A 8345  15.182   1.243   7.964
  385POPC   C4A 8346  15.164   1.259   7.664
  385POPC   C1B 8347  15.306   1.438   8.564
  385POPC   C2B 8348  15.299   1.456   8.264
  385POPC   C3B 8349  15.279   1.447   7.964
  385POPC   C4B 8350  15.252   1.484   7.664
  386POPC   NC3 8351  26.833   0.422   9.464
  386POPC   PO4 8352  26.769   0.418   9.164
  386POPC   GL1 8353  26.838   0.394   8.864
  386POPC   GL2 8354  26.682   0.386   8.864
  386POPC   C1A 8355  26.771   0.474   8.564
  386POPC   D2A 8356  26.849   0.443   8.264
  386POPC   C3A 8357  26.828   0.469   7.964
  386POPC   C4A 8358  26.815   0.407   7.664
  386POPC   C1B 8359  26.591   0.361   8.564
  386POPC   C2B 8360  26.621   0.290   8.264
  386POPC   C3B 8361  26.549   0.348   7.964
  386POPC   C4B 8362  26.541   0.311   7.664
  387POPC   NC3 8363  27.619   2.762   9.464
  387POPC   PO4 8364  27.560   2.738   9.164
  387POPC   GL1 8365  27.588   2.764   8.864
  387POPC   GL2 8366  27.569   2.911   8.864
  387POPC   C1A 8367  27.581   2.735   8.564
  387POPC   D2A 8368  27.566   2.808   8.264
  387POPC   C3A 8369  27.558   2.722   7.964
  387POPC   C4A 8370  27.627   2.762   7.664
  387POPC   C1B 8371  27.602   2.983   8.564
  387POPC   C2B 8372  27.616   3.063   8.264
  387POPC   C3B 8373  27.576   3.059   7.964
  387POPC   C4B 8374  27.533   3.007   7.664
  388POPC   NC3 8375   5.861  26.790   9.464
  388POPC   PO4 8376   5.849  26.845   9.164
  388POPC   GL1 8377   5.836  26.826   8.864
  388POPC   GL2 8378   6.001  26.771   8.864
  388POPC   C1A 8379   5.895  26.851   8.564
  388POPC   D2A 8380   5.845  26.801   8.264
  388POPC   C3A 8381   5.886  26.786   7.964
  388POPC   C4A 8382   5.867  26.781   7.664
  388POPC   C1B 8383   6.060  26.691   8.564
  388POPC   C2B 8384   6.117  26.701   8.264
  388POPC   C3B 8385   6.125  26.687   7.964
  388POPC   C4B 8386   6.135  26.741   7.664
  389POPC   NC3 8387  12.842  12.900   9.464
  389POPC   PO4 8388  12.872  12.828   9.164
  389POPC   GL1 8389  12.812  12.831   8.864
  389POPC   GL2 8390  12.879  12.983   8.864
  389POPC   C1A 8391  12.864  12.847   8.564
  389POPC   D2A 8392  12.834  12.860   8.264
  389POPC   C3A 8393  12.896  12.879   7.964
  389POPC   C4A 8394  12.816  12.881   7.664
  389POPC   C1B 8395  13.025  13.083   8.564
  389POPC   C2B 8396  13.028  13.061   8.264
  389POPC   C3B 8397  12.976  13.048   7.964
  389POPC   C4B 8398  13.036  13.033   7.664
  390POPC   NC3 8399  44.685  31.440   9.464
  390POPC   PO4 8400  44.620  31.443   9.164
  390POPC   GL1 8401  44.662  31.442   8.864
  390POPC   GL2 8402  44.784  31.355   8.864
  390POPC   C1A 8403  44.696  31.441   8.564
  390POPC   D2A 8404  44.690  31.470   8.264
  390POPC   C3A 8405  44.619  31.469   7.964
  390POPC   C4A 8406  44.637  31.473   7.664
  390POPC   C1B 8407  44.902  31.306   8.564
  390POPC   C2B 8408  44.851  31.286   8.264
  390POPC   C3B 8409  44.823  31.284   7.964
  390POPC   C4B 8410  44.861  31.305   7.664
  391POPC   NC3 8411  37.656   9.721   9.464
  391POPC   PO4 8412  37.670   9.787   9.164
  391POPC   GL1 8413  37.729   9.765   8.864
  391POPC   GL2 8414  37.735   9.812   8.864
  391POPC   C1A 8415  37.673   9.765   8.564
  391POPC   D2A 8416  37.678   9.792   8.264
  391POPC   C3A 8417  37.685   9.751   7.964
  391POPC   C4A 8418  37.713   9.791   7.664
  391POPC   C1B 8419  37.869   9.921   8.564
  391POPC   C2B 8420  37.899   9.905   8.264
  391POPC   C3B 8421  37.920   9.866   7.964
  391POPC   C4B 8422  37.928   9.879   7.664
  392POPC   NC3 8423  34.573  27.606   9.464
  392POPC   PO4 8424  34.582  27.589   9.164
  392POPC   GL1 8425  34.565  27.557   8.864
  392POPC   GL2 8426  34.694  27.523   8.864
  392POPC   C1A 8427  34.552  27.609   8.564
  392POPC   D2A 8428  34.546  27.582   8.264
  392POPC   C3A 8429  34.553  27.640   7.964
  392POPC   C4A 8430  34.613  27.573   7.664
  392POPC   C1B 8431  34.717  27.412   8.564
  392POPC   C2B 8432  34.753  27.445   8.264
  392POPC   C3B 8433  34.774  27.461   7.964
  392POPC   C4B 8434  34.765  27.416   7.664
  393POPC   NC3 8435  27.588  27.630   9.464
  393POPC   PO4 8436  27.590  27.610   9.164
  393POPC   GL1 8437  27.593  27.596   8.864
  393POPC   GL2 8438  27.598  27.708   8.864
  393POPC   C1A 8439  27.572  27.593   8.564
  393POPC   D2A 8440  27.622  27.609   8.264
  393POPC   C3A 8441  27.597  27.625   7.964
  393POPC   C4A 8442  27.637  27.564   7.664
  393POPC   C1B 8443  27.546  27.870   8.564
  393POPC   C2B 8444  27.567  27.875   8.264
  393POPC   C3B 8445  27.592  27.835   7.964
  393POPC   C4B 8446  27.549  27.870   7.664
  394POPC   NC3 8447  36.882   8.175   9.464
  394POPC   PO4 8448  36.858   8.222   9.164
  394POPC   GL1 8449  36.875   8.238   8.864
  394POPC   GL2 8450  36.889   8.366   8.864
  394POPC   C1A 8451  36.939   8.238   8.564
  394POPC   D2A 8452  36.860   8.203   8.264
  394POPC   C3A 8453  36.863   8.232   7.964
  394POPC   C4A 8454  36.952   8.194   7.664
  394POPC   C1B 8455  36.883   8.487   8.564
  394POPC   C2B 8456  36.892   8.415   8.264
  394POPC   C3B 8457  36.953   8.475   7.964
  394POPC   C4B 8458  36.943   8.442   7.664
  395POPC   NC3 8459  20.584  24.456   9.464
  395POPC   PO4 8460  20.656  24.517   9.164
  395POPC   GL1 8461  20.588  24.479   8.864
  395POPC   GL2 8462  20.730  24.396   8.864
  395POPC   C1A 8463  20.572  24.447   8.564
  395POPC   D2A 8464  20.606  24.522   8.264
  395POPC   C3A 8465  20.659  24.486   7.964
  395POPC   C4A 8466  20.615  24.446   7.664
  395POPC   C1B 8467  20.832  24.348   8.564
  395POPC   C2B 8468  20.793  24.328   8.264
  395POPC   C3B 8469  20.864  24.361   7.964
  395POPC   C4B 8470  20.870  24.409   7.664
  396POPC   NC3 8471   7.373   4.311   9.464
  396POPC   PO4 8472   7.423   4.357   9.164
  396POPC   GL1 8473   7.423   4.333   8.864
  396POPC   GL2 8474   7.293   4.278   8.864
  396POPC   C1A 8475   7.397   4.300   8.564
  396POPC   D2A 8476   7.387   4.347   8.264
  396POPC   C3A 8477   7.430   4.334   7.964
  396POPC   C4A 8478   7.405   4.306   7.664
  396POPC   C1B 8479   7.194   4.219   8.564
  396POPC   C2B 8480   7.213   4.229   8.264
  396POPC   C3B 8481   7.218   4.179   7.964
  396POPC   C4B 8482   7.204   4.137   7.664
  397POPC   NC3 8483   9.703  23.738   9.464
  397POPC   PO4 8484   9.739  23.737   9.164
  397POPC   GL1 8485   9.724  23.762   8.864
  397POPC   GL2 8486   9.663  23.614   8.864
  397POPC   C1A 8487   9.770  23.671   8.564
  397POPC   D2A 8488   9.754  23.727   8.264
  397POPC   C3A 8489   9.777  23.738   7.964
  397POPC   C4A 8490   9.761  23.678   7.664
  397POPC   C1B 8491   9.606  23.457   8.564
  397POPC   C2B 8492   9.605  23.540   8.264
  397POPC   C3B 8493   9.573  23.488   7.964
  397POPC   C4B 8494   9.604  23.479   7.664
  398POPC   NC3 8495  28.414   0.445   9.464
  398POPC   PO4 8496  28.332   0.410   9.164
  398POPC   GL1 8497  28.345   0.404   8.864
  398POPC   GL2 8498  28.319   0.313   8.864
  398POPC   C1A 8499  28.376   0.391   8.564
  398POPC   D2A 8500  28.328   0.451   8.264
  398POPC   C3A 8501  28.361   0.432   7.964
  398POPC   C4A 8502  28.342   0.445   7.664
  398POPC   C1B 8503  28.335   0.246   8.564
  398POPC   C2B 8504  28.265   0.165   8.264
  398POPC   C3B 8505  28.324   0.165   7.964
  398POPC   C4B 8506  28.289   0.242   7.664
  399POPC   NC3 8507  37.691  17.493   9.464
  399POPC   PO4 8508  37.681  17.499   9.164
  399POPC   GL1 8509  37.715  17.553   8.864
  399POPC   GL2 8510  37.794  17.540   8.864
  399POPC   C1A 8511  37.633  17.477   8.564
  399POPC   D2A 8512  37.677  17.522   8.264
  399POPC   C3A 8513  37.673  17.511   7.964
  399POPC   C4A 8514  37.687  17.469   7.664
  399POPC   C1B 8515  37.932  17.589   8.564
  399POPC   C2B 8516  37.944  17.600   8.264
  399POPC   C3B 8517  37.901  17.570   7.964
  399POPC   C4B 8518  37.875  17.596   7.664
  400POPC   NC3 8519  25.239  34.546   9.464
  400POPC   PO4 8520  25.242  34.569   9.164
  400POPC   GL1 8521  25.224  34.535   8.864
  400POPC   GL2 8522  25.183  34.523   8.864
  400POPC   C1A 8523  25.243  34.569   8.564
  400POPC   D2A 8524  25.301  34.570   8.264
  400POPC   C3A 8525  25.238  34.561   7.964
  400POPC   C4A 8526  25.315  34.532   7.664
  400POPC   C1B 8527  25.020  34.493   8.564
  400POPC   C2B 8528  25.012  34.507   8.264
  400POPC   C3B 8529  25.073  34.545   7.964
  400POPC   C4B 8530  25.040  34.523   7.664
  401POPC   NC3 8531   7.413  44.642   9.464
  401POPC   PO4 8532   7.470  44.684   9.164
  401POPC   GL1 8533   7.447  44.650   8.864
  401POPC   GL2 8534   7.576  44.628   8.864
  401POPC   C1A 8535   7.450  44.663   8.564
  401POPC   D2A 8536   7.382  44.635   8.264
  401POPC   C3A 8537   7.373  44.666   7.964
  401POPC   C4A 8538   7.388  44.712   7.664
  401POPC   C1B 8539   7.610  44.612   8.564
  401POPC   C2B 8540   7.687  44.592   8.264
  401POPC   C3B 8541   7.681  44.564   7.964
  401POPC   C4B 8542   7.659  44.607   7.664
  402POPC   NC3 8543   5.890  23.744   9.464
  402POPC   PO4 8544   5.828  23.666   9.164
  402POPC   GL1 8545   5.893  23.709   8.864
  402POPC   GL2 8546   5.828  23.619   8.864
  402POPC   C1A 8547   5.832  23.682   8.564
  402POPC   D2A 8548   5.885  23.697   8.264
  402POPC   C3A 8549   5.888  23.763   7.964
  402POPC   C4A 8550   5.911  23.713   7.664
  402POPC   C1B 8551   5.815  23.456   8.564
  402POPC   C2B 8552   5.876  23.437   8.264
  402POPC   C3B 8553   5.818  23.494   7.964
  402POPC   C4B 8554   5.822  23.471   7.664
  403POPC   NC3 8555   7.458  40.772   9.464
  403POPC   PO4 8556   7.443  40.756   9.164
  403POPC   GL1 8557   7.372  40.813   8.864
  403POPC   GL2 8558   7.534  40.885   8.864
  403POPC   C1A 8559   7.433  40.785   8.564
  403POPC   D2A 8560   7.432  40.797   8.264
  403POPC   C3A 8561   7.430  40.740   7.964
  403POPC   C4A 8562   7.464  40.756   7.664
  403POPC   C1B 8563   7.663  40.949   8.564
  403POPC   C2B 8564   7.640  40.940   8.264
  403POPC   C3B 8565   7.627  40.925   7.964
  403POPC   C4B 8566   7.676  40.873   7.664
  404POPC   NC3 8567  27.582  12.847   9.464
  404POPC   PO4 8568  27.594  12.844   9.164
  404POPC   GL1 8569  27.563  12.898   8.864
  404POPC   GL2 8570  27.513  12.705   8.864
  404POPC   C1A 8571  27.593  12.883   8.564
  404POPC   D2A 8572  27.618  12.815   8.264
  404POPC   C3A 8573  27.592  12.826   7.964
  404POPC   C4A 8574  27.546  12.878   7.664
  404POPC   C1B 8575  27.472  12.615   8.564
  404POPC   C2B 8576  27.453  12.621   8.264
  404POPC   C3B 8577  27.534  12.655   7.964
  404POPC   C4B 8578  27.510  12.600   7.664
  405POPC   NC3 8579  24.526  42.369   9.464
  405POPC   PO4 8580  24.531  42.292   9.164
  405POPC   GL1 8581  24.488  42.366   8.864
  405POPC   GL2 8582  24.386  42.426   8.864
  405POPC   C1A 8583  24.507  42.342   8.564
  405POPC   D2A 8584  24.511  42.290   8.264
  405POPC   C3A 8585  24.468  42.344   7.964
  405POPC   C4A 8586  24.523  42.285   7.664
  405POPC   C1B 8587  24.345  42.477   8.564
  405POPC   C2B 8588  24.282  42.465   8.264
  405POPC   C3B 8589  24.276  42.475   7.964
  405POPC   C4B 8590  24.297  42.461   7.664
  406POPC   NC3 8591   7.445  26.012   9.464
  406POPC   PO4 8592   7.392  26.072   9.164
  406POPC   GL1 8593   7.470  26.056   8.864
  406POPC   GL2 8594   7.403  26.203   8.864
  406POPC   C1A 8595   7.438  25.995   8.564
  406POPC   D2A 8596   7.446  26.053   8.264
  406POPC   C3A 8597   7.413  26.066   7.964
  406POPC   C4A 8598   7.414  26.090   7.664
  406POPC   C1B 8599   7.395  26.299   8.564
  406POPC   C2B 8600   7.430  26.249   8.264
  406POPC   C3B 8601   7.450  26.287   7.964
  406POPC   C4B 8602   7.477  26.258   7.664
  407POPC   NC3 8603  34.576   2.782   9.464
  407POPC   PO4 8604  34.625   2.800   9.164
  407POPC   GL1 8605  34.579   2.763   8.864
  407POPC   GL2 8606  34.578   2.633   8.864
  407POPC   C1A 8607  34.610   2.765   8.564
  407POPC   D2A 8608  34.584   2.811   8.264
  407POPC   C3A 8609  34.618   2.717   7.964
  407POPC   C4A 8610  34.591   2.742   7.664
  407POPC   C1B 8611  34.619   2.551   8.564
  407POPC   C2B 8612  34.588   2.495   8.264
  407POPC   C3B 8613  34.528   2.481   7.964
  407POPC   C4B 8614  34.570   2.550   7.664
  408POPC   NC3 8615  40.020  13.600   9.464
  408POPC   PO4 8616  39.957  13.677   9.164
  408POPC   GL1 8617  40.015  13.634   8.864
  408POPC   GL2 8618  39.993  13.483   8.864
  408POPC   C1A 8619  39.975  13.600   8.564
  408POPC   D2A 8620  40.047  13.617   8.264
  408POPC   C3A 8621  40.015  13.668   7.964
  408POPC   C4A 8622  40.019  13.636   7.664
  408POPC   C1B 8623  40.060  13.407   8.564
  408POPC   C2B 8624  40.078  13.391   8.264
  408POPC   C3B 8625  40.017  13.368   7.964
  408POPC   C4B 8626  40.058  13.366   7.664
  409POPC   NC3 8627  39.206  43.895   9.464
  409POPC   PO4 8628  39.195  43.896   9.164
  409POPC   GL1 8629  39.250  43.935   8.864
  409POPC   GL2 8630  39.295  43.766   8.864
  409POPC   C1A 8631  39.251  43.885   8.564
  409POPC   D2A 8632  39.212  43.849   8.264
  409POPC   C3A 8633  39.207  43.876   7.964
  409POPC   C4A 8634  39.244  43.850   7.664
  409POPC   C1B 8635  39.341  43.683   8.564
  409POPC   C2B 8636  39.317  43.621   8.264
  409POPC   C3B 8637  39.308  43.661   7.964
  409POPC   C4B 8638  39.338  43.671   7.664
  410POPC   NC3 8639  38.484   0.449   9.464
  410POPC   PO4 8640  38.498   0.480   9.164
  410POPC   GL1 8641  38.489   0.456   8.864
  410POPC   GL2 8642  38.567   0.500   8.864
  410POPC   C1A 8643  38.444   0.388   8.564
  410POPC   D2A 8644  38.481   0.477   8.264
  410POPC   C3A 8645  38.462   0.401   7.964
  410POPC   C4A 8646  38.412   0.476   7.664
  410POPC   C1B 8647  38.587   0.611   8.564
  410POPC   C2B 8648  38.612   0.583   8.264
  410POPC   C3B 8649  38.574   0.588   7.964
  410POPC   C4B 8650  38.598   0.650   7.664
  411POPC   NC3 8651   2.751  16.766   9.464
  411POPC   PO4 8652   2.802  16.723   9.164
  411POPC   GL1 8653   2.807  16.744   8.864
  411POPC   GL2 8654   2.631  16.834   8.864
  411POPC   C1A 8655   2.811  16.700   8.564
  411POPC   D2A 8656   2.813  16.712   8.264
  411POPC   C3A 8657   2.756  16.728   7.964
  411POPC   C4A 8658   2.759  16.769   7.664
  411POPC   C1B 8659   2.547  16.813   8.564
  411POPC   C2B 8660   2.551  16.886   8.264
  411POPC   C3B 8661   2.510  16.809   7.964
  411POPC   C4B 8662   2.508  16.837   7.664
  412POPC   NC3 8663  38.485  30.717   9.464
  412POPC   PO4 8664  38.483  30.647   9.164
  412POPC   GL1 8665  38.499  30.696   8.864
  412POPC   GL2 8666  38.398  30.839   8.864
  412POPC   C1A 8667  38.463  30.694   8.564
  412POPC   D2A 8668  38.457  30.737   8.264
  412POPC   C3A 8669  38.459  30.682   7.964
  412POPC   C4A 8670  38.413  30.715   7.664
  412POPC   C1B 8671  38.311  30.927   8.564
  412POPC   C2B 8672  38.295  30.848   8.264
  412POPC   C3B 8673  38.307  30.856   7.964
  412POPC   C4B 8674  38.332  30.924   7.664
  413POPC   NC3 8675  33.012   9.772   9.464
  413POPC   PO4 8676  33.037   9.744   9.164
  413POPC   GL1 8677  33.064   9.731   8.864
  413POPC   GL2 8678  32.968   9.621   8.864
  413POPC   C1A 8679  33.008   9.704   8.564
  413POPC   D2A 8680  33.053   9.752   8.264
  413POPC   C3A 8681  33.062   9.798   7.964
  413POPC   C4A 8682  33.054   9.754   7.664
  413POPC   C1B 8683  32.970   9.467   8.564
  413POPC   C2B 8684  32.974   9.533   8.264
  413POPC   C3B 8685  33.007   9.542   7.964
  413POPC   C4B 8686  32.967   9.486   7.664
  414POPC   NC3 8687   5.120  38.460   9.464
  414POPC   PO4 8688   5.089  38.463   9.164
  414POPC   GL1 8689   5.080  38.416   8.864
  414POPC   GL2 8690   5.073  38.347   8.864
  414POPC   C1A 8691   5.135  38.464   8.564
  414POPC   D2A 8692   5.060  38.504   8.264
  414POPC   C3A 8693   5.080  38.419   7.964
  414POPC   C4A 8694   5.044  38.459   7.664
  414POPC   C1B 8695   5.016  38.164   8.564
  414POPC   C2B 8696   5.004  38.175   8.264
  414POPC   C3B 8697   4.984  38.256   7.964
  414POPC   C4B 8698   5.058  38.246   7.664
  415POPC   NC3 8699  38.469   8.198   9.464
  415POPC   PO4 8700  38.416   8.216   9.164
  415POPC   GL1 8701  38.496   8.147   8.864
  415POPC   GL2 8702  38.515   8.266   8.864
  415POPC   C1A 8703  38.433   8.235   8.564
  415POPC   D2A 8704  38.475   8.221   8.264
  415POPC   C3A 8705  38.461   8.203   7.964
  415POPC   C4A 8706  38.437   8.208   7.664
  415POPC   C1B 8707  38.618   8.395   8.564
  415POPC   C2B 8708  38.686   8.334   8.264
  415POPC   C3B 8709  38.675   8.395   7.964
  415POPC   C4B 8710  38.614   8.342   7.664
  416POPC   NC3 8711  41.588  18.262   9.464
  416POPC   PO4 8712  41.602  18.312   9.164
  416POPC   GL1 8713  41.530  18.293   8.864
  416POPC   GL2 8714  41.666  18.280   8.864
  416POPC   C1A 8715  41.577  18.266   8.564
  416POPC   D2A 8716  41.586  18.298   8.264
  416POPC   C3A 8717  41.511  18.317   7.964
  416POPC   C4A 8718  41.522  18.256   7.664
  416POPC   C1B 8719  41.827  18.398   8.564
  416POPC   C2B 8720  41.841  18.364   8.264
  416POPC   C3B 8721  41.776  18.368   7.964
  416POPC   C4B 8722  41.790  18.347   7.664
  417POPC   NC3 8723  30.661  25.308   9.464
  417POPC   PO4 8724  30.649  25.256   9.164
  417POPC   GL1 8725  30.669  25.295   8.864
  417POPC   GL2 8726  30.800  25.384   8.864
  417POPC   C1A 8727  30.709  25.234   8.564
  417POPC   D2A 8728  30.712  25.245   8.264
  417POPC   C3A 8729  30.721  25.278   7.964
  417POPC   C4A 8730  30.650  25.267   7.664
  417POPC   C1B 8731  30.890  25.415   8.564
  417POPC   C2B 8732  30.912  25.474   8.264
  417POPC   C3B 8733  30.861  25.403   7.964
  417POPC   C4B 8734  30.920  25.467   7.664
  418POPC   NC3 8735  19.096  15.948   9.464
  418POPC   PO4 8736  19.063  15.962   9.164
  418POPC   GL1 8737  19.099  15.939   8.864
  418POPC   GL2 8738  18.917  16.008   8.864
  418POPC   C1A 8739  19.074  15.917   8.564
  418POPC   D2A 8740  19.013  15.968   8.264
  418POPC   C3A 8741  19.022  15.970   7.964
  418POPC   C4A 8742  19.017  15.959   7.664
  418POPC   C1B 8743  18.853  15.973   8.564
  418POPC   C2B 8744  18.802  16.044   8.264
  418POPC   C3B 8745  18.809  16.027   7.964
  418POPC   C4B 8746  18.769  16.008   7.664
  419POPC   NC3 8747   7.453   5.050   9.464
  419POPC   PO4 8748   7.424   5.132   9.164
  419POPC   GL1 8749   7.431   5.081   8.864
  419POPC   GL2 8750   7.473   5.201   8.864
  419POPC   C1A 8751   7.458   5.141   8.564
  419POPC   D2A 8752   7.391   5.133   8.264
  419POPC   C3A 8753   7.420   5.107   7.964
  419POPC   C4A 8754   7.412   5.124   7.664
  419POPC   C1B 8755   7.549   5.300   8.564
  419POPC   C2B 8756   7.483   5.331   8.264
  419POPC   C3B 8757   7.507   5.358   7.964
  419POPC   C4B 8758   7.479   5.303   7.664
  420POPC   NC3 8759   8.147  29.177   9.464
  420POPC   PO4 8760   8.231  29.186   9.164
  420POPC   GL1 8761   8.183  29.156   8.864
  420POPC   GL2 8762   8.264  29.046   8.864
  420POPC   C1A 8763   8.222  29.170   8.564
  420POPC   D2A 8764   8.229  29.153   8.264
  420POPC   C3A 8765   8.224  29.165   7.964
  420POPC   C4A 8766   8.153  29.184   7.664
  420POPC   C1B 8767   8.234  28.858   8.564
  420POPC   C2B 8768   8.295  28.898   8.264
  420POPC   C3B 8769   8.257  28.865   7.964
  420POPC   C4B 8770   8.215  28.853   7.664
  421POPC   NC3 8771  35.306  13.655   9.464
  421POPC   PO4 8772  35.354  13.646   9.164
  421POPC   GL1 8773  35.339  13.667   8.864
  421POPC   GL2 8774  35.317  13.536   8.864
  421POPC   C1A 8775  35.309  13.588   8.564
  421POPC   D2A 8776  35.320  13.606   8.264
  421POPC   C3A 8777  35.319  13.607   7.964
  421POPC   C4A 8778  35.333  13.645   7.664
  421POPC   C1B 8779  35.373  13.375   8.564
  421POPC   C2B 8780  35.299  13.384   8.264
  421POPC   C3B 8781  35.334  13.388   7.964
  421POPC   C4B 8782  35.353  13.381   7.664
  422POPC   NC3 8783   8.964   4.292   9.464
  422POPC   PO4 8784   9.012   4.293   9.164
  422POPC   GL1 8785   8.989   4.346   8.864
  422POPC   GL2 8786   8.831   4.216   8.864
  422POPC   C1A 8787   8.998   4.357   8.564
  422POPC   D2A 8788   8.938   4.284   8.264
  422POPC   C3A 8789   9.008   4.331   7.964
  422POPC   C4A 8790   8.995   4.334   7.664
  422POPC   C1B 8791   8.754   4.113   8.564
  422POPC   C2B 8792   8.823   4.141   8.264
  422POPC   C3B 8793   8.812   4.189   7.964
  422POPC   C4B 8794   8.752   4.162   7.664
  423POPC   NC3 8795  11.320  25.277   9.464
  423POPC   PO4 8796  11.339  25.278   9.164
  423POPC   GL1 8797  11.311  25.295   8.864
  423POPC   GL2 8798  11.386  25.351   8.864
  423POPC   C1A 8799  11.284  25.239   8.564
  423POPC   D2A 8800  11.291  25.291   8.264
  423POPC   C3A 8801  11.339  25.309   7.964
  423POPC   C4A 8802  11.268  25.270   7.664
  423POPC   C1B 8803  11.469  25.402   8.564
  423POPC   C2B 8804  11.536  25.400   8.264
  423POPC   C3B 8805  11.469  25.385   7.964
  423POPC   C4B 8806  11.477  25.454   7.664
  424POPC   NC3 8807  19.857   7.470   9.464
  424POPC   PO4 8808  19.865   7.433   9.164
  424POPC   GL1 8809  19.847   7.425   8.864
  424POPC   GL2 8810  19.925   7.419   8.864
  424POPC   C1A 8811  19.830   7.377   8.564
  424POPC   D2A 8812  19.883   7.391   8.264
  424POPC   C3A 8813  19.831   7.400   7.964
  424POPC   C4A 8814  19.856   7.452   7.664
  424POPC   C1B 8815  20.055   7.309   8.564
  424POPC   C2B 8816  20.079   7.319   8.264
  424POPC   C3B 8817  20.100   7.298   7.964
  424POPC   C4B 8818  20.033   7.288   7.664
  425POPC   NC3 8819   5.891   2.736   9.464
  425POPC   PO4 8820   5.844   2.761   9.164
  425POPC   GL1 8821   5.910   2.732   8.864
  425POPC   GL2 8822   5.975   2.832   8.864
  425POPC   C1A 8823   5.874   2.812   8.564
  425POPC   D2A 8824   5.861   2.797   8.264
  425POPC   C3A 8825   5.837   2.792   7.964
  425POPC   C4A 8826   5.907   2.716   7.664
  425POPC   C1B 8827   6.071   2.894   8.564
  425POPC   C2B 8828   6.112   2.898   8.264
  425POPC   C3B 8829   6.139   2.902   7.964
  425POPC   C4B 8830   6.101   2.867   7.664
  426POPC   NC3 8831  32.212  31.462   9.464
  426POPC   PO4 8832  32.209  31.517   9.164
  426POPC   GL1 8833  32.276  31.431   8.864
  426POPC   GL2 8834  32.221  31.565   8.864
  426POPC   C1A 8835  32.291  31.519   8.564
  426POPC   D2A 8836  32.219  31.506   8.264
  426POPC   C3A 8837  32.267  31.426   7.964
  426POPC   C4A 8838  32.258  31.447   7.664
  426POPC   C1B 8839  32.068  31.706   8.564
  426POPC   C2B 8840  32.095  31.695   8.264
  426POPC   C3B 8841  32.150  31.683   7.964
  426POPC   C4B 8842  32.142  31.658   7.664
  427POPC   NC3 8843  30.663  16.722   9.464
  427POPC   PO4 8844  30.736  16.743   9.164
  427POPC   GL1 8845  30.672  16.770   8.864
  427POPC   GL2 8846  30.798  16.672   8.864
  427POPC   C1A 8847  30.746  16.746   8.564
  427POPC   D2A 8848  30.742  16.710   8.264
  427POPC   C3A 8849  30.712  16.733   7.964
  427POPC   C4A 8850  30.705  16.732   7.664
  427POPC   C1B 8851  30.857  16.616   8.564
  427POPC   C2B 8852  30.865  16.608   8.264
  427POPC   C3B 8853  30.929  16.549   7.964
  427POPC   C4B 8854  30.879  16.616   7.664
  428POPC   NC3 8855   7.382  15.210   9.464
  428POPC   PO4 8856   7.417  15.165   9.164
  428POPC   GL1 8857   7.372  15.216   8.864
  428POPC   GL2 8858   7.537  15.078   8.864
  428POPC   C1A 8859   7.400  15.161   8.564
  428POPC   D2A 8860   7.425  15.146   8.264
  428POPC   C3A 8861   7.435  15.182   7.964
  428POPC   C4A 8862   7.387  15.209   7.664
  428POPC   C1B 8863   7.596  15.019   8.564
  428POPC   C2B 8864   7.572  15.054   8.264
  428POPC   C3B 8865   7.607  15.070   7.964
  428POPC   C4B 8866   7.662  14.982   7.664
  429POPC   NC3 8867  38.433  33.009   9.464
  429POPC   PO4 8868  38.454  33.064   9.164
  429POPC   GL1 8869  38.426  33.048   8.864
  429POPC   GL2 8870  38.389  33.181   8.864
  429POPC   C1A 8871  38.415  33.063   8.564
  429POPC   D2A 8872  38.475  32.998   8.264
  429POPC   C3A 8873  38.497  33.054   7.964
  429POPC   C4A 8874  38.429  33.069   7.664
  429POPC   C1B 8875  38.349  33.278   8.564
  429POPC   C2B 8876  38.334  33.235   8.264
  429POPC   C3B 8877  38.343  33.284   7.964
  429POPC   C4B 8878  38.361  33.262   7.664
  430POPC   NC3 8879  34.582  17.506   9.464
  430POPC   PO4 8880  34.624  17.533   9.164
  430POPC   GL1 8881  34.551  17.462   8.864
  430POPC   GL2 8882  34.460  17.652   8.864
  430POPC   C1A 8883  34.600  17.476   8.564
  430POPC   D2A 8884  34.589  17.472   8.264
  430POPC   C3A 8885  34.624  17.539   7.964
  430POPC   C4A 8886  34.530  17.544   7.664
  430POPC   C1B 8887  34.371  17.725   8.564
  430POPC   C2B 8888  34.414  17.671   8.264
  430POPC   C3B 8889  34.390  17.692   7.964
  430POPC   C4B 8890  34.438  17.750   7.664
  431POPC   NC3 8891  37.705  39.981   9.464
  431POPC   PO4 8892  37.712  40.013   9.164
  431POPC   GL1 8893  37.641  40.011   8.864
  431POPC   GL2 8894  37.614  39.927   8.864
  431POPC   C1A 8895  37.707  40.018   8.564
  431POPC   D2A 8896  37.675  39.996   8.264
  431POPC   C3A 8897  37.667  39.971   7.964
  431POPC   C4A 8898  37.705  40.024   7.664
  431POPC   C1B 8899  37.575  39.814   8.564
  431POPC   C2B 8900  37.582  39.757   8.264
  431POPC   C3B 8901  37.554  39.826   7.964
  431POPC   C4B 8902  37.585  39.757   7.664
  432POPC   NC3 8903  21.347  20.654   9.464
  432POPC   PO4 8904  21.395  20.579   9.164
  432POPC   GL1 8905  21.359  20.656   8.864
  432POPC   GL2 8906  21.239  20.700   8.864
  432POPC   C1A 8907  21.412  20.597   8.564
  432POPC   D2A 8908  21.395  20.642   8.264
  432POPC   C3A 8909  21.387  20.636   7.964
  432POPC   C4A 8910  21.360  20.642   7.664
  432POPC   C1B 8911  21.209  20.759   8.564
  432POPC   C2B 8912  21.133  20.702   8.264
  432POPC   C3B 8913  21.133  20.673   7.964
  432POPC   C4B 8914  21.160  20.727   7.664
  433POPC   NC3 8915  44.679  43.887   9.464
  433POPC   PO4 8916  44.638  43.881   9.164
  433POPC   GL1 8917  44.638  43.915   8.864
  433POPC   GL2 8918  44.625  43.951   8.864
  433POPC   C1A 8919  44.708  43.931   8.564
  433POPC   D2A 8920  44.664  43.867   8.264
  433POPC   C3A 8921  44.672  43.879   7.964
  433POPC   C4A 8922  44.618  43.865   7.664
  433POPC   C1B 8923  44.585  44.098   8.564
  433POPC   C2B 8924  44.533  44.086   8.264
  433POPC   C3B 8925  44.595  44.138   7.964
  433POPC   C4B 8926  44.526  44.120   7.664
  434POPC   NC3 8927  19.029   4.329   9.464
  434POPC   PO4 8928  19.045   4.278   9.164
  434POPC   GL1 8929  19.009   4.281   8.864
  434POPC   GL2 8930  18.917   4.381   8.864
  434POPC   C1A 8931  19.046   4.334   8.564
  434POPC   D2A 8932  19.083   4.349   8.264
  434POPC   C3A 8933  19.102   4.275   7.964
  434POPC   C4A 8934  19.049   4.358   7.664
  434POPC   C1B 8935  18.826   4.498   8.564
  434POPC   C2B 8936  18.843   4.452   8.264
  434POPC   C3B 8937  18.856   4.523   7.964
  434POPC   C4B 8938  18.814   4.467   7.664
  435POPC   NC3 8939  11.333  38.454   9.464
  435POPC   PO4 8940  11.344  38.491   9.164
  435POPC   GL1 8941  11.270  38.483   8.864
  435POPC   GL2 8942  11.196  38.595   8.864
  435POPC   C1A 8943  11.263  38.433   8.564
  435POPC   D2A 8944  11.346  38.504   8.264
  435POPC   C3A 8945  11.334  38.466   7.964
  435POPC   C4A 8946  11.344  38.418   7.664
  435POPC   C1B 8947  11.169  38.650   8.564
  435POPC   C2B 8948  11.173  38.661   8.264
  435POPC   C3B 8949  11.196  38.670   7.964
  435POPC   C4B 8950  11.164  38.629   7.664
  436POPC   NC3 8951  14.392  34.582   9.464
  436POPC   PO4 8952  14.399  34.531   9.164
  436POPC   GL1 8953  14.430  34.601   8.864
  436POPC   GL2 8954  14.353  34.663   8.864
  436POPC   C1A 8955  14.375  34.598   8.564
  436POPC   D2A 8956  14.404  34.572   8.264
  436POPC   C3A 8957  14.392  34.568   7.964
  436POPC   C4A 8958  14.355  34.620   7.664
  436POPC   C1B 8959  14.267  34.845   8.564
  436POPC   C2B 8960  14.296  34.813   8.264
  436POPC   C3B 8961  14.301  34.798   7.964
  436POPC   C4B 8962  14.253  34.784   7.664
  437POPC   NC3 8963  12.842  19.024   9.464
  437POPC   PO4 8964  12.871  19.011   9.164
  437POPC   GL1 8965  12.856  19.070   8.864
  437POPC   GL2 8966  12.833  19.209   8.864
  437POPC   C1A 8967  12.862  19.104   8.564
  437POPC   D2A 8968  12.821  19.092   8.264
  437POPC   C3A 8969  12.845  19.009   7.964
  437POPC   C4A 8970  12.863  19.020   7.664
  437POPC   C1B 8971  12.819  19.270   8.564
  437POPC   C2B 8972  12.870  19.335   8.264
  437POPC   C3B 8973  12.782  19.268   7.964
  437POPC   C4B 8974  12.811  19.331   7.664
  438POPC   NC3 8975  12.069   8.923   9.464
  438POPC   PO4 8976  12.088   8.960   9.164
  438POPC   GL1 8977  12.089   8.992   8.864
  438POPC   GL2 8978  12.089   8.883   8.864
  438POPC   C1A 8979  12.124   9.014   8.564
  438POPC   D2A 8980  12.065   8.958   8.264
  438POPC   C3A 8981  12.104   9.012   7.964
  438POPC   C4A 8982  12.030   9.005   7.664
  438POPC   C1B 8983  11.959   8.689   8.564
  438POPC   C2B 8984  11.993   8.709   8.264
  438POPC   C3B 8985  12.010   8.754   7.964
  438POPC   C4B 8986  11.978   8.741   7.664
  439POPC   NC3 8987  34.549   9.768   9.464
  439POPC   PO4 8988  34.602   9.763   9.164
  439POPC   GL1 8989  34.552   9.725   8.864
  439POPC   GL2 8990  34.649   9.660   8.864
  439POPC   C1A 8991  34.620   9.778   8.564
  439POPC   D2A 8992  34.620   9.777   8.264
  439POPC   C3A 8993  34.556   9.786   7.964
  439POPC   C4A 8994  34.554   9.729   7.664
  439POPC   C1B 8995  34.711   9.545   8.564
  439POPC   C2B 8996  34.726   9.507   8.264
  439POPC   C3B 8997  34.751   9.550   7.964
  439POPC   C4B 8998  34.686   9.550   7.664
  440POPC   NC3 8999  26.853  11.325   9.464
  440POPC   PO4 9000  26.812  11.276   9.164
  440POPC   GL1 9001  26.798  11.330   8.864
  440POPC   GL2 9002  26.778  11.132   8.864
  440POPC   C1A 9003  26.849  11.279   8.564
  440POPC   D2A 9004  26.812  11.324   8.264
  440POPC   C3A 9005  26.773  11.303   7.964
  440POPC   C4A 9006  26.789  11.293   7.664
  440POPC   C1B 9007  26.847  11.076   8.564
  440POPC   C2B 9008  26.857  11.066   8.264
  440POPC   C3B 9009  26.858  11.028   7.964
  440POPC   C4B 9010  26.820  11.018   7.664
  441POPC   NC3 9011  44.626  25.229   9.464
  441POPC   PO4 9012  44.620  25.271   9.164
  441POPC   GL1 9013  44.649  25.236   8.864
  441POPC   GL2 9014  44.791  25.313   8.864
  441POPC   C1A 9015  44.665  25.286   8.564
  441POPC   D2A 9016  44.677  25.310   8.264
  441POPC   C3A 9017  44.677  25.304   7.964
  441POPC   C4A 9018  44.612  25.234   7.664
  441POPC   C1B 9019  44.904  25.392   8.564
  441POPC   C2B 9020  44.861  25.422   8.264
  441POPC   C3B 9021  44.859  25.388   7.964
  441POPC   C4B 9022  44.861  25.437   7.664
  442POPC   NC3 9023  12.805  31.426   9.464
  442POPC   PO4 9024  12.895  31.504   9.164
  442POPC   GL1 9025  12.858  31.440   8.864
  442POPC   GL2 9026  12.825  31.624   8.864
  442POPC   C1A 9027  12.841  31.432   8.564
  442POPC   D2A 9028  12.851  31.518   8.264
  442POPC   C3A 9029  12.845  31.500   7.964
  442POPC   C4A 9030  12.864  31.437   7.664
  442POPC   C1B 9031  12.823  31.714   8.564
  442POPC   C2B 9032  12.835  31.679   8.264
  442POPC   C3B 9033  12.888  31.769   7.964
  442POPC   C4B 9034  12.830  31.739   7.664
  443POPC   NC3 9035  32.241  26.864   9.464
  443POPC   PO4 9036  32.293  26.863   9.164
  443POPC   GL1 9037  32.279  26.839   8.864
  443POPC   GL2 9038  32.133  26.752   8.864
  443POPC   C1A 9039  32.296  26.817   8.564
  443POPC   D2A 9040  32.237  26.866   8.264
  443POPC   C3A 9041  32.255  26.796   7.964
  443POPC   C4A 9042  32.231  26.850   7.664
  443POPC   C1B 9043  32.020  26.620   8.564
  443POPC   C2B 9044  32.039  26.686   8.264
  443POPC   C3B 9045  32.064  26.703   7.964
  443POPC   C4B 9046  32.006  26.645   7.664
  444POPC   NC3 9047  36.949  43.071   9.464
  444POPC   PO4 9048  36.934  43.079   9.164
  444POPC   GL1 9049  36.945  43.153   8.864
  444POPC   GL2 9050  36.938  43.228   8.864
  444POPC   C1A 9051  36.928  43.113   8.564
  444POPC   D2A 9052  36.911  43.088   8.264
  444POPC   C3A 9053  36.872  43.150   7.964
  444POPC   C4A 9054  36.939  43.088   7.664
  444POPC   C1B 9055  36.921  43.386   8.564
  444POPC   C2B 9056  36.910  43.385   8.264
  444POPC   C3B 9057  36.898  43.380   7.964
  444POPC   C4B 9058  36.925  43.403   7.664
  445POPC   NC3 9059  31.479  25.267   9.464
  445POPC   PO4 9060  31.441  25.271   9.164
  445POPC   GL1 9061  31.501  25.217   8.864
  445POPC   GL2 9062  31.591  25.193   8.864
  445POPC   C1A 9063  31.470  25.278   8.564
  445POPC   D2A 9064  31.423  25.264   8.264
  445POPC   C3A 9065  31.459  25.247   7.964
  445POPC   C4A 9066  31.463  25.290   7.664
  445POPC   C1B 9067  31.631  25.099   8.564
  445POPC   C2B 9068  31.606  25.055   8.264
  445POPC   C3B 9069  31.657  25.029   7.964
  445POPC   C4B 9070  31.603  25.036   7.664
  446POPC   NC3 9071  43.064  13.655   9.464
  446POPC   PO4 9072  43.074  13.594   9.164
  446POPC   GL1 9073  43.105  13.647   8.864
  446POPC   GL2 9074  43.046  13.478   8.864
  446POPC   C1A 9075  43.062  13.594   8.564
  446POPC   D2A 9076  43.158  13.593   8.264
  446POPC   C3A 9077  43.148  13.579   7.964
  446POPC   C4A 9078  43.106  13.642   7.664
  446POPC   C1B 9079  43.017  13.441   8.564
  446POPC   C2B 9080  43.013  13.382   8.264
  446POPC   C3B 9081  43.014  13.417   7.964
  446POPC   C4B 9082  43.037  13.435   7.664
  447POPC   NC3 9083  36.857  44.648   9.464
  447POPC   PO4 9084  36.890  44.644   9.164
  447POPC   GL1 9085  36.857  44.697   8.864
  447POPC   GL2 9086  36.799  44.732   8.864
  447POPC   C1A 9087  36.920  44.664   8.564
  447POPC   D2A 9088  36.951  44.617   8.264
  447POPC   C3A 9089  36.883  44.705   7.964
  447POPC   C4A 9090  36.903  44.621   7.664
  447POPC   C1B 9091  36.717  44.858   8.564
  447POPC   C2B 9092  36.712  44.846   8.264
  447POPC   C3B 9093  36.715  44.862   7.964
  447POPC   C4B 9094  36.698  44.852   7.664
  448POPC   NC3 9095  37.664  24.517   9.464
  448POPC   PO4 9096  37.653  24.519   9.164
  448POPC   GL1 9097  37.630  24.453   8.864
  448POPC   GL2 9098  37.805  24.442   8.864
  448POPC   C1A 9099  37.723  24.493   8.564
  448POPC   D2A 9100  37.693  24.511   8.264
  448POPC   C3A 9101  37.661  24.450   7.964
  448POPC   C4A 9102  37.634  24.476   7.664
  448POPC   C1B 9103  37.851  24.310   8.564
  448POPC   C2B 9104  37.917  24.333   8.264
  448POPC   C3B 9105  37.839  24.313   7.964
  448POPC   C4B 9106  37.843  24.297   7.664
  449POPC   NC3 9107   5.905  37.708   9.464
  449POPC   PO4 9108   5.849  37.717   9.164
  449POPC   GL1 9109   5.901  37.720   8.864
  449POPC   GL2 9110   5.964  37.700   8.864
  449POPC   C1A 9111   5.882  37.689   8.564
  449POPC   D2A 9112   5.874  37.664   8.264
  449POPC   C3A 9113   5.825  37.720   7.964
  449POPC   C4A 9114   5.828  37.695   7.664
  449POPC   C1B 9115   6.079  37.788   8.564
  449POPC   C2B 9116   6.050  37.799   8.264
  449POPC   C3B 9117   6.041  37.794   7.964
  449POPC   C4B 9118   6.038  37.856   7.664
  450POPC   NC3 9119  37.647  19.878   9.464
  450POPC   PO4 9120  37.690  19.813   9.164
  450POPC   GL1 9121  37.691  19.800   8.864
  450POPC   GL2 9122  37.598  19.886   8.864
  450POPC   C1A 9123  37.660  19.820   8.564
  450POPC   D2A 9124  37.724  19.811   8.264
  450POPC   C3A 9125  37.690  19.876   7.964
  450POPC   C4A 9126  37.662  19.805   7.664
  450POPC   C1B 9127  37.533  20.005   8.564
  450POPC   C2B 9128  37.520  19.989   8.264
  450POPC   C3B 9129  37.451  20.050   7.964
  450POPC   C4B 9130  37.470  19.974   7.664
  451POPC   NC3 9131  18.235  16.772   9.464
  451POPC   PO4 9132  18.267  16.717   9.164
  451POPC   GL1 9133  18.317  16.714   8.864
  451POPC   GL2 9134  18.352  16.793   8.864
  451POPC   C1A 9135  18.234  16.752   8.564
  451POPC   D2A 9136  18.293  16.742   8.264
  451POPC   C3A 9137  18.304  16.727   7.964
  451POPC   C4A 9138  18.301  16.700   7.664
  451POPC   C1B 9139  18.445  16.964   8.564
  451POPC   C2B 9140  18.407  16.904   8.264
  451POPC   C3B 9141  18.394  16.936   7.964
  451POPC   C4B 9142  18.416  16.931   7.664
  452POPC   NC3 9143  23.739  17.513   9.464
  452POPC   PO4 9144  23.687  17.523   9.164
  452POPC   GL1 9145  23.703  17.486   8.864
  452POPC   GL2 9146  23.842  17.469   8.864
  452POPC   C1A 9147  23.727  17.534   8.564
  452POPC   D2A 9148  23.750  17.546   8.264
  452POPC   C3A 9149  23.699  17.515   7.964
  452POPC   C4A 9150  23.739  17.495   7.664
  452POPC   C1B 9151  23.920  17.387   8.564
  452POPC   C2B 9152  23.954  17.409   8.264
  452POPC   C3B 9153  23.909  17.356   7.964
  452POPC   C4B 9154  23.932  17.373   7.664
  453POPC   NC3 9155  26.079   9.012   9.464
  453POPC   PO4 9156  26.037   9.018   9.164
  453POPC   GL1 9157  26.045   8.953   8.864
  453POPC   GL2 9158  25.977   9.087   8.864
  453POPC   C1A 9159  26.040   8.934   8.564
  453POPC   D2A 9160  26.012   8.965   8.264
  453POPC   C3A 9161  26.018   8.997   7.964
  453POPC   C4A 9162  26.059   8.999   7.664
  453POPC   C1B 9163  25.888   9.132   8.564
  453POPC   C2B 9164  25.878   9.196   8.264
  453POPC   C3B 9165  25.833   9.170   7.964
  453POPC   C4B 9166  25.864   9.147   7.664
  454POPC   NC3 9167   7.371  40.006   9.464
  454POPC   PO4 9168   7.436  39.999   9.164
  454POPC   GL1 9169   7.382  40.050   8.864
  454POPC   GL2 9170   7.529  40.092   8.864
  454POPC   C1A 9171   7.432  40.055   8.564
  454POPC   D2A 9172   7.392  40.049   8.264
  454POPC   C3A 9173   7.443  39.961   7.964
  454POPC   C4A 9174   7.451  40.030   7.664
  454POPC   C1B 9175   7.591  40.149   8.564
  454POPC   C2B 9176   7.597  40.239   8.264
  454POPC   C3B 9177   7.639  40.175   7.964
  454POPC   C4B 9178   7.613  40.161   7.664
  455POPC   NC3 9179  27.611  26.071   9.464
  455POPC   PO4 9180  27.590  26.059   9.164
  455POPC   GL1 9181  27.641  26.000   8.864
  455POPC   GL2 9182  27.628  26.153   8.864
  455POPC   C1A 9183  27.627  26.030   8.564
  455POPC   D2A 9184  27.624  26.062   8.264
  455POPC   C3A 9185  27.629  26.057   7.964
  455POPC   C4A 9186  27.582  26.061   7.664
  455POPC   C1B 9187  27.640  26.275   8.564
  455POPC   C2B 9188  27.638  26.304   8.264
  455POPC   C3B 9189  27.669  26.282   7.964
  455POPC   C4B 9190  27.606  26.280   7.664
  456POPC   NC3 9191  17.542  43.868   9.464
  456POPC   PO4 9192  17.541  43.856   9.164
  456POPC   GL1 9193  17.478  43.838   8.864
  456POPC   GL2 9194  17.586  43.898   8.864
  456POPC   C1A 9195  17.462  43.839   8.564
  456POPC   D2A 9196  17.511  43.916   8.264
  456POPC   C3A 9197  17.529  43.878   7.964
  456POPC   C4A 9198  17.495  43.924   7.664
  456POPC   C1B 9199  17.737  43.942   8.564
  456POPC   C2B 9200  17.790  43.976   8.264
  456POPC   C3B 9201  17.709  43.947   7.964
  456POPC   C4B 9202  17.734  43.958   7.664
  457POPC   NC3 9203   1.991  29.136   9.464
  457POPC   PO4 9204   1.986  29.131   9.164
  457POPC   GL1 9205   1.988  29.130   8.864
  457POPC   GL2 9206   1.994  29.070   8.864
  457POPC   C1A 9207   2.017  29.191   8.564
  457POPC   D2A 9208   1.957  29.126   8.264
  457POPC   C3A 9209   2.005  29.114   7.964
  457POPC   C4A 9210   1.988  29.130   7.664
  457POPC   C1B 9211   2.037  28.886   8.564
  457POPC   C2B 9212   2.049  28.911   8.264
  457POPC   C3B 9213   2.033  28.945   7.964
  457POPC   C4B 9214   2.044  28.868   7.664
  458POPC   NC3 9215  15.923   9.719   9.464
  458POPC   PO4 9216  15.914   9.736   9.164
  458POPC   GL1 9217  15.938   9.768   8.864
  458POPC   GL2 9218  16.059   9.856   8.864
  458POPC   C1A 9219  15.992   9.717   8.564
  458POPC   D2A 9220  15.957   9.766   8.264
  458POPC   C3A 9221  15.975   9.767   7.964
  458POPC   C4A 9222  15.908   9.755   7.664
  458POPC   C1B 9223  16.052   9.928   8.564
  458POPC   C2B 9224  16.120   9.969   8.264
  458POPC   C3B 9225  16.113  10.005   7.964
  458POPC   C4B 9226  16.047   9.939   7.664
  459POPC   NC3 9227  38.407  19.879   9.464
  459POPC   PO4 9228  38.496  19.798   9.164
  459POPC   GL1 9229  38.470  19.868   8.864
  459POPC   GL2 9230  38.366  19.685   8.864
  459POPC   C1A 9231  38.489  19.880   8.564
  459POPC   D2A 9232  38.499  19.868   8.264
  459POPC   C3A 9233  38.503  19.797   7.964
  459POPC   C4A 9234  38.418  19.850   7.664
  459POPC   C1B 9235  38.278  19.584   8.564
  459POPC   C2B 9236  38.357  19.578   8.264
  459POPC   C3B 9237  38.284  19.637   7.964
  459POPC   C4B 9238  38.365  19.619   7.664
  460POPC   NC3 9239  38.479   3.566   9.464
  460POPC   PO4 9240  38.494   3.505   9.164
  460POPC   GL1 9241  38.419   3.562   8.864
  460POPC   GL2 9242  38.598   3.593   8.864
  460POPC   C1A 9243  38.408   3.504   8.564
  460POPC   D2A 9244  38.433   3.577   8.264
  460POPC   C3A 9245  38.452   3.514   7.964
  460POPC   C4A 9246  38.407   3.552   7.664
  460POPC   C1B 9247  38.658   3.588   8.564
  460POPC   C2B 9248  38.739   3.632   8.264
  460POPC   C3B 9249  38.687   3.589   7.964
  460POPC   C4B 9250  38.657   3.593   7.664
  461POPC   NC3 9251  28.382  11.257   9.464
  461POPC   PO4 9252  28.335  11.259   9.164
  461POPC   GL1 9253  28.329  11.296   8.864
  461POPC   GL2 9254  28.502  11.328   8.864
  461POPC   C1A 9255  28.387  11.277   8.564
  461POPC   D2A 9256  28.347  11.285   8.264
  461POPC   C3A 9257  28.328  11.256   7.964
  461POPC   C4A 9258  28.355  11.338   7.664
  461POPC   C1B 9259  28.553  11.439   8.564
  461POPC   C2B 9260  28.606  11.394   8.264
  461POPC   C3B 9261  28.599  11.467   7.964
  461POPC   C4B 9262  28.601  11.436   7.664
  462POPC   NC3 9263  10.491  17.503   9.464
  462POPC   PO4 9264  10.496  17.491   9.164
  462POPC   GL1 9265  10.529  17.477   8.864
  462POPC   GL2 9266  10.582  17.380   8.864
  462POPC   C1A 9267  10.524  17.492   8.564
  462POPC   D2A 9268  10.508  17.493   8.264
  462POPC   C3A 9269  10.541  17.528   7.964
  462POPC   C4A 9270  10.540  17.468   7.664
  462POPC   C1B 9271  10.682  17.280   8.564
  462POPC   C2B 9272  10.661  17.316   8.264
  462POPC   C3B 9273  10.692  17.358   7.964
  462POPC   C4B 9274  10.710  17.269   7.664
  463POPC   NC3 9275  26.808  42.316   9.464
  463POPC   PO4 9276  26.775  42.345   9.164
  463POPC   GL1 9277  26.852  42.342   8.864
  463POPC   GL2 9278  26.877  42.314   8.864
  463POPC   C1A 9279  26.770  42.360   8.564
  463POPC   D2A 9280  26.813  42.322   8.264
  463POPC   C3A 9281  26.804  42.336   7.964
  463POPC   C4A 9282  26.774  42.334   7.664
  463POPC   C1B 9283  27.047  42.157   8.564
  463POPC   C2B 9284  27.060  42.160   8.264
  463POPC   C3B 9285  27.046  42.207   7.964
  463POPC   C4B 9286  27.072  42.186   7.664
  464POPC   NC3 9287  29.923   3.548   9.464
  464POPC   PO4 9288  29.917   3.579   9.164
  464POPC   GL1 9289  29.948   3.508   8.864
  464POPC   GL2 9290  29.908   3.688   8.864
  464POPC   C1A 9291  29.895   3.571   8.564
  464POPC   D2A 9292  29.936   3.495   8.264
  464POPC   C3A 9293  29.916   3.518   7.964
  464POPC   C4A 9294  29.890   3.571   7.664
  464POPC   C1B 9295  29.835   3.745   8.564
  464POPC   C2B 9296  29.934   3.763   8.264
  464POPC   C3B 9297  29.913   3.833   7.964
  464POPC   C4B 9298  29.888   3.832   7.664
  465POPC   NC3 9299   0.453  39.184   9.464
  465POPC   PO4 9300   0.401  39.218   9.164
  465POPC   GL1 9301   0.441  39.274   8.864
  465POPC   GL2 9302   0.354  39.149   8.864
  465POPC   C1A 9303   0.450  39.183   8.564
  465POPC   D2A 9304   0.414  39.247   8.264
  465POPC   C3A 9305   0.389  39.279   7.964
  465POPC   C4A 9306   0.434  39.201   7.664
  465POPC   C1B 9307   0.222  39.106   8.564
  465POPC   C2B 9308   0.216  39.106   8.264
  465POPC   C3B 9309   0.213  39.148   7.964
  465POPC   C4B 9310   0.169  39.116   7.664
  466POPC   NC3 9311  43.108  42.307   9.464
  466POPC   PO4 9312  43.082  42.313   9.164
  466POPC   GL1 9313  43.102  42.339   8.864
  466POPC   GL2 9314  43.083  42.226   8.864
  466POPC   C1A 9315  43.128  42.306   8.564
  466POPC   D2A 9316  43.134  42.321   8.264
  466POPC   C3A 9317  43.072  42.301   7.964
  466POPC   C4A 9318  43.127  42.295   7.664
  466POPC   C1B 9319  43.091  42.048   8.564
  466POPC   C2B 9320  43.031  42.123   8.264
  466POPC   C3B 9321  43.091  42.101   7.964
  466POPC   C4B 9322  42.997  42.113   7.664
  467POPC   NC3 9323   5.881  29.897   9.464
  467POPC   PO4 9324   5.912  29.961   9.164
  467POPC   GL1 9325   5.914  29.912   8.864
  467POPC   GL2 9326   5.723  29.945   8.864
  467POPC   C1A 9327   5.892  29.969   8.564
  467POPC   D2A 9328   5.909  29.945   8.264
  467POPC   C3A 9329   5.886  29.921   7.964
  467POPC   C4A 9330   5.865  29.896   7.664
  467POPC   C1B 9331   5.695  30.022   8.564
  467POPC   C2B 9332   5.690  30.052   8.264
  467POPC   C3B 9333   5.633  30.082   7.964
  467POPC   C4B 9334   5.697  30.006   7.664
  468POPC   NC3 9335  29.162  25.994   9.464
  468POPC   PO4 9336  29.145  26.071   9.164
  468POPC   GL1 9337  29.128  26.055   8.864
  468POPC   GL2 9338  29.284  25.992   8.864
  468POPC   C1A 9339  29.124  26.044   8.564
  468POPC   D2A 9340  29.100  26.068   8.264
  468POPC   C3A 9341  29.170  26.053   7.964
  468POPC   C4A 9342  29.122  26.090   7.664
  468POPC   C1B 9343  29.386  25.944   8.564
  468POPC   C2B 9344  29.368  25.928   8.264
  468POPC   C3B 9345  29.410  25.964   7.964
  468POPC   C4B 9346  29.408  25.943   7.664
  469POPC   NC3 9347  17.491  26.860   9.464
  469POPC   PO4 9348  17.553  26.772   9.164
  469POPC   GL1 9349  17.518  26.848   8.864
  469POPC   GL2 9350  17.397  26.747   8.864
  469POPC   C1A 9351  17.525  26.849   8.564
  469POPC   D2A 9352  17.472  26.833   8.264
  469POPC   C3A 9353  17.508  26.800   7.964
  469POPC   C4A 9354  17.507  26.821   7.664
  469POPC   C1B 9355  17.327  26.668   8.564
  469POPC   C2B 9356  17.315  26.659   8.264
  469POPC   C3B 9357  17.285  26.678   7.964
  469POPC   C4B 9358  17.375  26.633   7.664
  470POPC   NC3 9359  34.586   4.310   9.464
  470POPC   PO4 9360  34.572   4.269   9.164
  470POPC   GL1 9361  34.592   4.326   8.864
  470POPC   GL2 9362  34.722   4.339   8.864
  470POPC   C1A 9363  34.615   4.329   8.564
  470POPC   D2A 9364  34.571   4.332   8.264
  470POPC   C3A 9365  34.529   4.350   7.964
  470POPC   C4A 9366  34.606   4.327   7.664
  470POPC   C1B 9367  34.796   4.269   8.564
  470POPC   C2B 9368  34.794   4.272   8.264
  470POPC   C3B 9369  34.795   4.247   7.964
  470POPC   C4B 9370  34.830   4.241   7.664
  471POPC   NC3 9371  10.490  11.261   9.464
  471POPC   PO4 9372  10.516  11.288   9.164
  471POPC   GL1 9373  10.516  11.300   8.864
  471POPC   GL2 9374  10.532  11.182   8.864
  471POPC   C1A 9375  10.562  11.316   8.564
  471POPC   D2A 9376  10.546  11.292   8.264
  471POPC   C3A 9377  10.477  11.306   7.964
  471POPC   C4A 9378  10.566  11.274   7.664
  471POPC   C1B 9379  10.404  11.057   8.564
  471POPC   C2B 9380  10.447  11.033   8.264
  471POPC   C3B 9381  10.457  11.064   7.964
  471POPC   C4B 9382  10.401  11.028   7.664
  472POPC   NC3 9383   3.505  19.009   9.464
  472POPC   PO4 9384   3.584  19.058   9.164
  472POPC   GL1 9385   3.555  19.066   8.864
  472POPC   GL2 9386   3.699  19.001   8.864
  472POPC   C1A 9387   3.498  19.010   8.564
  472POPC   D2A 9388   3.571  19.087   8.264
  472POPC   C3A 9389   3.577  19.090   7.964
  472POPC   C4A 9390   3.510  19.050   7.664
  472POPC   C1B 9391   3.775  18.914   8.564
  472POPC   C2B 9392   3.767  18.904   8.264
  472POPC   C3B 9393   3.810  18.914   7.964
  472POPC   C4B 9394   3.788  18.951   7.664
  473POPC   NC3 9395  42.327  43.137   9.464
  473POPC   PO4 9396  42.363  43.153   9.164
  473POPC   GL1 9397  42.339  43.145   8.864
  473POPC   GL2 9398  42.456  43.037   8.864
  473POPC   C1A 9399  42.335  43.095   8.564
  473POPC   D2A 9400  42.325  43.100   8.264
  473POPC   C3A 9401  42.297  43.117   7.964
  473POPC   C4A 9402  42.383  43.123   7.664
  473POPC   C1B 9403  42.548  42.991   8.564
  473POPC   C2B 9404  42.604  43.034   8.264
  473POPC   C3B 9405  42.531  43.036   7.964
  473POPC   C4B 9406  42.594  42.957   7.664
  474POPC   NC3 9407  44.626  18.324   9.464
  474POPC   PO4 9408  44.688  18.314   9.164
  474POPC   GL1 9409  44.707  18.305   8.864
  474POPC   GL2 9410  44.785  18.267   8.864
  474POPC   C1A 9411  44.670  18.233   8.564
  474POPC   D2A 9412  44.707  18.294   8.264
  474POPC   C3A 9413  44.644  18.303   7.964
  474POPC   C4A 9414  44.624  18.298   7.664
  474POPC   C1B 9415  44.935  18.215   8.564
  474POPC   C2B 9416  44.930  18.233   8.264
  474POPC   C3B 9417  44.913  18.153   7.964
  474POPC   C4B 9418  44.907  18.157   7.664
  475POPC   NC3 9419  19.819  43.071   9.464
  475POPC   PO4 9420  19.797  43.155   9.164
  475POPC   GL1 9421  19.874  43.122   8.864
  475POPC   GL2 9422  19.810  43.213   8.864
  475POPC   C1A 9423  19.868  43.113   8.564
  475POPC   D2A 9424  19.870  43.150   8.264
  475POPC   C3A 9425  19.838  43.115   7.964
  475POPC   C4A 9426  19.879  43.115   7.664
  475POPC   C1B 9427  19.804  43.302   8.564
  475POPC   C2B 9428  19.800  43.320   8.264
  475POPC   C3B 9429  19.761  43.320   7.964
  475POPC   C4B 9430  19.783  43.312   7.664
  476POPC   NC3 9431   4.290   5.138   9.464
  476POPC   PO4 9432   4.345   5.113   9.164
  476POPC   GL1 9433   4.358   5.099   8.864
  476POPC   GL2 9434   4.236   5.013   8.864
  476POPC   C1A 9435   4.277   5.098   8.564
  476POPC   D2A 9436   4.322   5.080   8.264
  476POPC   C3A 9437   4.272   5.090   7.964
  476POPC   C4A 9438   4.337   5.104   7.664
  476POPC   C1B 9439   4.099   4.976   8.564
  476POPC   C2B 9440   4.153   4.908   8.264
  476POPC   C3B 9441   4.159   4.918   7.964
  476POPC   C4B 9442   4.179   4.920   7.664
  477POPC   NC3 9443  29.872  16.701   9.464
  477POPC   PO4 9444  29.890  16.743   9.164
  477POPC   GL1 9445  29.945  16.713   8.864
  477POPC   GL2 9446  29.821  16.776   8.864
  477POPC   C1A 9447  29.877  16.774   8.564
  477POPC   D2A 9448  29.915  16.728   8.264
  477POPC   C3A 9449  29.911  16.773   7.964
  477POPC   C4A 9450  29.961  16.715   7.664
  477POPC   C1B 9451  29.695  16.712   8.564
  477POPC   C2B 9452  29.666  16.710   8.264
  477POPC   C3B 9453  29.721  16.803   7.964
  477POPC   C4B 9454  29.698  16.774   7.664
  478POPC   NC3 9455  40.827   4.354   9.464
  478POPC   PO4 9456  40.798   4.315   9.164
  478POPC   GL1 9457  40.795   4.293   8.864
  478POPC   GL2 9458  40.789   4.455   8.864
  478POPC   C1A 9459  40.767   4.364   8.564
  478POPC   D2A 9460  40.827   4.275   8.264
  478POPC   C3A 9461  40.786   4.295   7.964
  478POPC   C4A 9462  40.757   4.329   7.664
  478POPC   C1B 9463  40.783   4.596   8.564
  478POPC   C2B 9464  40.798   4.547   8.264
  478POPC   C3B 9465  40.807   4.584   7.964
  478POPC   C4B 9466  40.787   4.548   7.664
  479POPC   NC3 9467  22.915  11.265   9.464
  479POPC   PO4 9468  22.937  11.263   9.164
  479POPC   GL1 9469  22.942  11.344   8.864
  479POPC   GL2 9470  22.932  11.186   8.864
  479POPC   C1A 9471  22.917  11.277   8.564
  479POPC   D2A 9472  22.928  11.280   8.264
  479POPC   C3A 9473  22.908  11.323   7.964
  479POPC   C4A 9474  22.888  11.281   7.664
  479POPC   C1B 9475  22.913  11.094   8.564
  479POPC   C2B 9476  22.896  11.036   8.264
  479POPC   C3B 9477  22.898  11.078   7.964
  479POPC   C4B 9478  22.912  11.064   7.664
  480POPC   NC3 9479  29.964  38.492   9.464
  480POPC   PO4 9480  29.958  38.484   9.164
  480POPC   GL1 9481  29.881  38.468   8.864
  480POPC   GL2 9482  29.821  38.549   8.864
  480POPC   C1A 9483  29.946  38.414   8.564
  480POPC   D2A 9484  29.900  38.414   8.264
  480POPC   C3A 9485  29.901  38.480   7.964
  480POPC   C4A 9486  29.953  38.482   7.664
  480POPC   C1B 9487  29.816  38.691   8.564
  480POPC   C2B 9488  29.763  38.638   8.264
  480POPC   C3B 9489  29.757  38.667   7.964
  480POPC   C4B 9490  29.749  38.619   7.664
  481POPC   NC3 9491   4.341  28.384   9.464
  481POPC   PO4 9492   4.357  28.411   9.164
  481POPC   GL1 9493   4.349  28.349   8.864
  481POPC   GL2 9494   4.192  28.317   8.864
  481POPC   C1A 9495   4.344  28.388   8.564
  481POPC   D2A 9496   4.294  28.388   8.264
  481POPC   C3A 9497   4.311  28.338   7.964
  481POPC   C4A 9498   4.279  28.350   7.664
  481POPC   C1B 9499   4.145  28.234   8.564
  481POPC   C2B 9500   4.082  28.236   8.264
  481POPC   C3B 9501   4.097  28.258   7.964
  481POPC   C4B 9502   4.160  28.172   7.664
  482POPC   NC3 9503  10.526  12.056   9.464
  482POPC   PO4 9504  10.549  12.050   9.164
  482POPC   GL1 9505  10.510  12.030   8.864
  482POPC   GL2 9506  10.420  12.177   8.864
  482POPC   C1A 9507  10.536  12.046   8.564
  482POPC   D2A 9508  10.524  12.095   8.264
  482POPC   C3A 9509  10.511  12.116   7.964
  482POPC   C4A 9510  10.533  12.113   7.664
  482POPC   C1B 9511  10.355  12.266   8.564
  482POPC   C2B 9512  10.410  12.276   8.264
  482POPC   C3B 9513  10.366  12.251   7.964
  482POPC   C4B 9514  10.369  12.245   7.664
  483POPC   NC3 9515  40.812  33.846   9.464
  483POPC   PO4 9516  40.814  33.765   9.164
  483POPC   GL1 9517  40.734  33.752   8.864
  483POPC   GL2 9518  40.670  33.751   8.864
  483POPC   C1A 9519  40.773  33.779   8.564
  483POPC   D2A 9520  40.807  33.811   8.264
  483POPC   C3A 9521  40.769  33.755   7.964
  483POPC   C4A 9522  40.740  33.818   7.664
  483POPC   C1B 9523  40.530  33.710   8.564
  483POPC   C2B 9524  40.532  33.708   8.264
  483POPC   C3B 9525  40.524  33.700   7.964
  483POPC   C4B 9526  40.516  33.736   7.664
  484POPC   NC3 9527   4.296  22.173   9.464
  484POPC   PO4 9528   4.269  22.152   9.164
  484POPC   GL1 9529   4.307  22.164   8.864
  484POPC   GL2 9530   4.489  22.158   8.864
  484POPC   C1A 9531   4.353  22.189   8.564
  484POPC   D2A 9532   4.351  22.141   8.264
  484POPC   C3A 9533   4.351  22.193   7.964
  484POPC   C4A 9534   4.327  22.177   7.664
  484POPC   C1B 9535   4.610  22.105   8.564
  484POPC   C2B 9536   4.514  22.107   8.264
  484POPC   C3B 9537   4.550  22.077   7.964
  484POPC   C4B 9538   4.558  22.104   7.664
  485POPC   NC3 9539  15.913  10.487   9.464
  485POPC   PO4 9540  15.917  10.480   9.164
  485POPC   GL1 9541  15.997  10.543   8.864
  485POPC   GL2 9542  15.949  10.634   8.864
  485POPC   C1A 9543  15.928  10.546   8.564
  485POPC   D2A 9544  15.996  10.509   8.264
  485POPC   C3A 9545  15.935  10.475   7.964
  485POPC   C4A 9546  15.959  10.537   7.664
  485POPC   C1B 9547  15.878  10.760   8.564
  485POPC   C2B 9548  15.922  10.769   8.264
  485POPC   C3B 9549  15.930  10.812   7.964
  485POPC   C4B 9550  15.915  10.775   7.664
  486POPC   NC3 9551  12.035  19.852   9.464
  486POPC   PO4 9552  12.047  19.820   9.164
  486POPC   GL1 9553  12.032  19.871   8.864
  486POPC   GL2 9554  11.915  19.784   8.864
  486POPC   C1A 9555  12.090  19.854   8.564
  486POPC   D2A 9556  12.052  19.853   8.264
  486POPC   C3A 9557  12.040  19.855   7.964
  486POPC   C4A 9558  12.090  19.805   7.664
  486POPC   C1B 9559  11.866  19.787   8.564
  486POPC   C2B 9560  11.829  19.840   8.264
  486POPC   C3B 9561  11.821  19.776   7.964
  486POPC   C4B 9562  11.781  19.830   7.664
  487POPC   NC3 9563  25.302  22.895   9.464
  487POPC   PO4 9564  25.272  22.939   9.164
  487POPC   GL1 9565  25.251  22.920   8.864
  487POPC   GL2 9566  25.292  23.076   8.864
  487POPC   C1A 9567  25.233  22.938   8.564
  487POPC   D2A 9568  25.253  22.925   8.264
  487POPC   C3A 9569  25.269  22.961   7.964
  487POPC   C4A 9570  25.240  22.944   7.664
  487POPC   C1B 9571  25.368  23.177   8.564
  487POPC   C2B 9572  25.393  23.152   8.264
  487POPC   C3B 9573  25.408  23.198   7.964
  487POPC   C4B 9574  25.376  23.153   7.664
  488POPC   NC3 9575  32.218  38.417   9.464
  488POPC   PO4 9576  32.249  38.456   9.164
  488POPC   GL1 9577  32.276  38.427   8.864
  488POPC   GL2 9578  32.146  38.410   8.864
  488POPC   C1A 9579  32.217  38.466   8.564
  488POPC   D2A 9580  32.286  38.411   8.264
  488POPC   C3A 9581  32.284  38.504   7.964
  488POPC   C4A 9582  32.242  38.453   7.664
  488POPC   C1B 9583  32.014  38.415   8.564
  488POPC   C2B 9584  31.988  38.396   8.264
  488POPC   C3B 9585  31.996  38.407   7.964
  488POPC   C4B 9586  31.997  38.389   7.664
  489POPC   NC3 9587  27.609  20.603   9.464
  489POPC   PO4 9588  27.575  20.656   9.164
  489POPC   GL1 9589  27.630  20.604   8.864
  489POPC   GL2 9590  27.732  20.643   8.864
  489POPC   C1A 9591  27.573  20.649   8.564
  489POPC   D2A 9592  27.602  20.594   8.264
  489POPC   C3A 9593  27.552  20.607   7.964
  489POPC   C4A 9594  27.587  20.660   7.664
  489POPC   C1B 9595  27.803  20.690   8.564
  489POPC   C2B 9596  27.794  20.693   8.264
  489POPC   C3B 9597  27.798  20.656   7.964
  489POPC   C4B 9598  27.793  20.648   7.664
  490POPC   NC3 9599  22.154  19.837   9.464
  490POPC   PO4 9600  22.114  19.869   9.164
  490POPC   GL1 9601  22.166  19.813   8.864
  490POPC   GL2 9602  22.206  19.953   8.864
  490POPC   C1A 9603  22.200  19.839   8.564
  490POPC   D2A 9604  22.146  19.867   8.264
  490POPC   C3A 9605  22.149  19.809   7.964
  490POPC   C4A 9606  22.141  19.846   7.664
  490POPC   C1B 9607  22.202  20.078   8.564
  490POPC   C2B 9608  22.222  20.123   8.264
  490POPC   C3B 9609  22.149  20.062   7.964
  490POPC   C4B 9610  22.203  20.044   7.664
  491POPC   NC3 9611  44.672  41.586   9.464
  491POPC   PO4 9612  44.654  41.578   9.164
  491POPC   GL1 9613  44.702  41.605   8.864
  491POPC   GL2 9614  44.553  41.558   8.864
  491POPC   C1A 9615  44.706  41.584   8.564
  491POPC   D2A 9616  44.695  41.578   8.264
  491POPC   C3A 9617  44.704  41.540   7.964
  491POPC   C4A 9618  44.633  41.509   7.664
  491POPC   C1B 9619  44.439  41.608   8.564
  491POPC   C2B 9620  44.406  41.643   8.264
  491POPC   C3B 9621  44.394  41.648   7.964
  491POPC   C4B 9622  44.438  41.607   7.664
  492POPC   NC3 9623  24.503  12.109   9.464
  492POPC   PO4 9624  24.515  12.060   9.164
  492POPC   GL1 9625  24.453  12.079   8.864
  492POPC   GL2 9626  24.625  12.035   8.864
  492POPC   C1A 9627  24.485  12.030   8.564
  492POPC   D2A 9628  24.461  12.086   8.264
  492POPC   C3A 9629  24.516  12.033   7.964
  492POPC   C4A 9630  24.481  12.097   7.664
  492POPC   C1B 9631  24.706  12.034   8.564
  492POPC   C2B 9632  24.755  12.024   8.264
  492POPC   C3B 9633  24.753  12.021   7.964
  492POPC   C4B 9634  24.758  12.006   7.664
  493POPC   NC3 9635  30.677  41.584   9.464
  493POPC   PO4 9636  30.663  41.608   9.164
  493POPC   GL1 9637  30.699  41.536   8.864
  493POPC   GL2 9638  30.805  41.639   8.864
  493POPC   C1A 9639  30.738  41.591   8.564
  493POPC   D2A 9640  30.655  41.519   8.264
  493POPC   C3A 9641  30.656  41.588   7.964
  493POPC   C4A 9642  30.732  41.519   7.664
  493POPC   C1B 9643  30.867  41.692   8.564
  493POPC   C2B 9644  30.889  41.710   8.264
  493POPC   C3B 9645  30.890  41.681   7.964
  493POPC   C4B 9646  30.902  41.687   7.664
  494POPC   NC3 9647  19.865  39.213   9.464
  494POPC   PO4 9648  19.817  39.268   9.164
  494POPC   GL1 9649  19.846  39.228   8.864
  494POPC   GL2 9650  19.777  39.278   8.864
  494POPC   C1A 9651  19.802  39.261   8.564
  494POPC   D2A 9652  19.813  39.208   8.264
  494POPC   C3A 9653  19.834  39.263   7.964
  494POPC   C4A 9654  19.843  39.190   7.664
  494POPC   C1B 9655  19.646  39.357   8.564
  494POPC   C2B 9656  19.627  39.414   8.264
  494POPC   C3B 9657  19.662  39.369   7.964
  494POPC   C4B 9658  19.684  39.337   7.664
  495POPC   NC3 9659   5.902   8.164   9.464
  495POPC   PO4 9660   5.859   8.209   9.164
  495POPC   GL1 9661   5.902   8.157   8.864
  495POPC   GL2 9662   5.905   8.308   8.864
  495POPC   C1A 9663   5.827   8.223   8.564
  495POPC   D2A 9664   5.909   8.154   8.264
  495POPC   C3A 9665   5.908   8.162   7.964
  495POPC   C4A 9666   5.900   8.178   7.664
  495POPC   C1B 9667   6.018   8.377   8.564
  495POPC   C2B 9668   6.079   8.384   8.264
  495POPC   C3B 9669   6.015   8.426   7.964
  495POPC   C4B 9670   6.055   8.365   7.664
  496POPC   NC3 9671  10.501  35.302   9.464
  496POPC   PO4 9672  10.476  35.391   9.164
  496POPC   GL1 9673  10.565  35.324   8.864
  496POPC   GL2 9674  10.550  35.478   8.864
  496POPC   C1A 9675  10.500  35.380   8.564
  496POPC   D2A 9676  10.561  35.313   8.264
  496POPC   C3A 9677  10.550  35.335   7.964
  496POPC   C4A 9678  10.510  35.362   7.664
  496POPC   C1B 9679  10.593  35.618   8.564
  496POPC   C2B 9680  10.596  35.559   8.264
  496POPC   C3B 9681  10.658  35.584   7.964
  496POPC   C4B 9682  10.673  35.532   7.664
  497POPC   NC3 9683  11.253  40.004   9.464
  497POPC   PO4 9684  11.310  40.041   9.164
  497POPC   GL1 9685  11.298  40.044   8.864
  497POPC   GL2 9686  11.331  40.143   8.864
  497POPC   C1A 9687  11.309  40.036   8.564
  497POPC   D2A 9688  11.306  39.989   8.264
  497POPC   C3A 9689  11.288  39.980   7.964
  497POPC   C4A 9690  11.284  40.056   7.664
  497POPC   C1B 9691  11.300  40.293   8.564
  497POPC   C2B 9692  11.301  40.225   8.264
  497POPC   C3B 9693  11.284  40.221   7.964
  497POPC   C4B 9694  11.296  40.285   7.664
  498POPC   NC3 9695  38.470  36.895   9.464
  498POPC   PO4 9696  38.465  36.860   9.164
  498POPC   GL1 9697  38.456  36.936   8.864
  498POPC   GL2 9698  38.298  36.871   8.864
  498POPC   C1A 9699  38.497  36.946   8.564
  498POPC   D2A 9700  38.482  36.934   8.264
  498POPC   C3A 9701  38.410  36.914   7.964
  498POPC   C4A 9702  38.450  36.935   7.664
  498POPC   C1B 9703  38.195  36.871   8.564
  498POPC   C2B 9704  38.243  36.910   8.264
  498POPC   C3B 9705  38.169  36.920   7.964
  498POPC   C4B 9706  38.191  36.918   7.664
  499POPC   NC3 9707  36.884   1.256   9.464
  499POPC   PO4 9708  36.930   1.237   9.164
  499POPC   GL1 9709  36.910   1.180   8.864
  499POPC   GL2 9710  36.993   1.159   8.864
  499POPC   C1A 9711  36.916   1.230   8.564
  499POPC   D2A 9712  36.914   1.182   8.264
  499POPC   C3A 9713  36.914   1.250   7.964
  499POPC   C4A 9714  36.854   1.195   7.664
  499POPC   C1B 9715  37.156   1.118   8.564
  499POPC   C2B 9716  37.157   1.081   8.264
  499POPC   C3B 9717  37.130   1.154   7.964
  499POPC   C4B 9718  37.082   1.074   7.664
  500POPC   NC3 9719  41.509  43.934   9.464
  500POPC   PO4 9720  41.534  43.846   9.164
  500POPC   GL1 9721  41.606  43.837   8.864
  500POPC   GL2 9722  41.470  43.798   8.864
  500POPC   C1A 9723  41.593  43.886   8.564
  500POPC   D2A 9724  41.608  43.903   8.264
  500POPC   C3A 9725  41.567  43.909   7.964
  500POPC   C4A 9726  41.527  43.919   7.664
  500POPC   C1B 9727  41.446  43.734   8.564
  500POPC   C2B 9728  41.400  43.698   8.264
  500POPC   C3B 9729  41.401  43.688   7.964
  500POPC   C4B 9730  41.448  43.674   7.664
  501POPC   NC3 9731  29.187  37.639   9.464
  501POPC   PO4 9732  29.143  37.644   9.164
  501POPC   GL1 9733  29.134  37.634   8.864
  501POPC   GL2 9734  29.195  37.840   8.864
  501POPC   C1A 9735  29.180  37.682   8.564
  501POPC   D2A 9736  29.101  37.694   8.264
  501POPC   C3A 9737  29.100  37.723   7.964
  501POPC   C4A 9738  29.166  37.648   7.664
  501POPC   C1B 9739  29.167  37.964   8.564
  501POPC   C2B 9740  29.217  37.911   8.264
  501POPC   C3B 9741  29.160  37.953   7.964
  501POPC   C4B 9742  29.191  37.941   7.664
  502POPC   NC3 9743  18.328  44.676   9.464
  502POPC   PO4 9744  18.324  44.631   9.164
  502POPC   GL1 9745  18.267  44.623   8.864
  502POPC   GL2 9746  18.176  44.668   8.864
  502POPC   C1A 9747  18.331  44.661   8.564
  502POPC   D2A 9748  18.241  44.648   8.264
  502POPC   C3A 9749  18.328  44.649   7.964
  502POPC   C4A 9750  18.331  44.665   7.664
  502POPC   C1B 9751  18.065  44.579   8.564
  502POPC   C2B 9752  18.071  44.569   8.264
  502POPC   C3B 9753  18.058  44.592   7.964
  502POPC   C4B 9754  18.015  44.626   7.664
  503POPC   NC3 9755  33.790  25.296   9.464
  503POPC   PO4 9756  33.784  25.266   9.164
  503POPC   GL1 9757  33.847  25.264   8.864
  503POPC   GL2 9758  33.845  25.186   8.864
  503POPC   C1A 9759  33.791  25.292   8.564
  503POPC   D2A 9760  33.797  25.221   8.264
  503POPC   C3A 9761  33.804  25.237   7.964
  503POPC   C4A 9762  33.777  25.258   7.664
  503POPC   C1B 9763  33.939  25.081   8.564
  503POPC   C2B 9764  33.909  25.063   8.264
  503POPC   C3B 9765  33.942  25.079   7.964
  503POPC   C4B 9766  33.941  25.034   7.664
  504POPC   NC3 9767  41.605  39.275   9.464
  504POPC   PO4 9768  41.575  39.278   9.164
  504POPC   GL1 9769  41.510  39.184   8.864
  504POPC   GL2 9770  41.626  39.339   8.864
  504POPC   C1A 9771  41.523  39.210   8.564
  504POPC   D2A 9772  41.548  39.231   8.264
  504POPC   C3A 9773  41.519  39.244   7.964
  504POPC   C4A 9774  41.568  39.195   7.664
  504POPC   C1B 9775  41.672  39.483   8.564
  504POPC   C2B 9776  41.711  39.396   8.264
  504POPC   C3B 9777  41.721  39.464   7.964
  504POPC   C4B 9778  41.656  39.463   7.664
  505POPC   NC3 9779  13.608  19.028   9.464
  505POPC   PO4 9780  13.623  19.022   9.164
  505POPC   GL1 9781  13.627  19.027   8.864
  505POPC   GL2 9782  13.512  19.194   8.864
  505POPC   C1A 9783  13.616  19.036   8.564
  505POPC   D2A 9784  13.618  19.090   8.264
  505POPC   C3A 9785  13.642  19.067   7.964
  505POPC   C4A 9786  13.632  19.026   7.664
  505POPC   C1B 9787  13.480  19.309   8.564
  505POPC   C2B 9788  13.536  19.305   8.264
  505POPC   C3B 9789  13.526  19.240   7.964
  505POPC   C4B 9790  13.475  19.299   7.664
  506POPC   NC3 9791  38.427  39.979   9.464
  506POPC   PO4 9792  38.415  40.026   9.164
  506POPC   GL1 9793  38.460  39.999   8.864
  506POPC   GL2 9794  38.320  39.983   8.864
  506POPC   C1A 9795  38.470  39.971   8.564
  506POPC   D2A 9796  38.440  40.037   8.264
  506POPC   C3A 9797  38.432  40.033   7.964
  506POPC   C4A 9798  38.500  39.992   7.664
  506POPC   C1B 9799  38.175  39.966   8.564
  506POPC   C2B 9800  38.253  40.016   8.264
  506POPC   C3B 9801  38.214  39.955   7.964
  506POPC   C4B 9802  38.244  39.964   7.664
  507POPC   NC3 9803  26.854  15.991   9.464
  507POPC   PO4 9804  26.777  15.911   9.164
  507POPC   GL1 9805  26.811  15.991   8.864
  507POPC   GL2 9806  26.974  16.034   8.864
  507POPC   C1A 9807  26.781  15.998   8.564
  507POPC   D2A 9808  26.780  15.974   8.264
  507POPC   C3A 9809  26.778  15.967   7.964
  507POPC   C4A 9810  26.849  15.918   7.664
  507POPC   C1B 9811  27.029  16.001   8.564
  507POPC   C2B 9812  27.096  16.014   8.264
  507POPC   C3B 9813  27.053  16.024   7.964
  507POPC   C4B 9814  27.048  16.016   7.664
  508POPC   NC3 9815  21.380  24.530   9.464
  508POPC   PO4 9816  21.423  24.519   9.164
  508POPC   GL1 9817  21.386  24.466   8.864
  508POPC   GL2 9818  21.318  24.342   8.864
  508POPC   C1A 9819  21.372  24.475   8.564
  508POPC   D2A 9820  21.395  24.515   8.264
  508POPC   C3A 9821  21.403  24.445   7.964
  508POPC   C4A 9822  21.417  24.482   7.664
  508POPC   C1B 9823  21.376  24.234   8.564
  508POPC   C2B 9824  21.383  24.276   8.264
  508POPC   C3B 9825  21.345  24.232   7.964
  508POPC   C4B 9826  21.379  24.253   7.664
  509POPC   NC3 9827  43.907   5.086   9.464
  509POPC   PO4 9828  43.902   5.079   9.164
  509POPC   GL1 9829  43.910   5.130   8.864
  509POPC   GL2 9830  44.024   5.018   8.864
  509POPC   C1A 9831  43.860   5.131   8.564
  509POPC   D2A 9832  43.922   5.073   8.264
  509POPC   C3A 9833  43.888   5.104   7.964
  509POPC   C4A 9834  43.905   5.068   7.664
  509POPC   C1B 9835  44.111   5.004   8.564
  509POPC   C2B 9836  44.078   5.057   8.264
  509POPC   C3B 9837  44.099   4.972   7.964
  509POPC   C4B 9838  44.084   4.975   7.664
  510POPC   NC3 9839  29.918  28.330   9.464
  510POPC   PO4 9840  29.966  28.339   9.164
  510POPC   GL1 9841  29.919  28.412   8.864
  510POPC   GL2 9842  29.983  28.264   8.864
  510POPC   C1A 9843  29.949  28.326   8.564
  510POPC   D2A 9844  29.884  28.397   8.264
  510POPC   C3A 9845  29.884  28.393   7.964
  510POPC   C4A 9846  29.920  28.364   7.664
  510POPC   C1B 9847  30.087  28.183   8.564
  510POPC   C2B 9848  30.060  28.173   8.264
  510POPC   C3B 9849  30.061  28.171   7.964
  510POPC   C4B 9850  30.072  28.145   7.664
  511POPC   NC3 9851  39.230  13.631   9.464
  511POPC   PO4 9852  39.269  13.666   9.164
  511POPC   GL1 9853  39.210  13.582   8.864
  511POPC   GL2 9854  39.309  13.770   8.864
  511POPC   C1A 9855  39.196  13.653   8.564
  511POPC   D2A 9856  39.185  13.645   8.264
  511POPC   C3A 9857  39.241  13.623   7.964
  511POPC   C4A 9858  39.244  13.660   7.664
  511POPC   C1B 9859  39.308  13.895   8.564
  511POPC   C2B 9860  39.364  13.904   8.264
  511POPC   C3B 9861  39.275  13.849   7.964
  511POPC   C4B 9862  39.314  13.849   7.664
  512POPC   NC3 9863  25.254  20.567   9.464
  512POPC   PO4 9864  25.251  20.562   9.164
  512POPC   GL1 9865  25.216  20.655   8.864
  512POPC   GL2 9866  25.122  20.597   8.864
  512POPC   C1A 9867  25.287  20.587   8.564
  512POPC   D2A 9868  25.308  20.657   8.264
  512POPC   C3A 9869  25.293  20.588   7.964
  512POPC   C4A 9870  25.308  20.607   7.664
  512POPC   C1B 9871  25.064  20.604   8.564
  512POPC   C2B 9872  24.985  20.650   8.264
  512POPC   C3B 9873  25.030  20.624   7.964
  512POPC   C4B 9874  24.971  20.673   7.664
  513POPC   NC3 9875  17.488  28.346   9.464
  513POPC   PO4 9876  17.502  28.362   9.164
  513POPC   GL1 9877  17.512  28.334   8.864
  513POPC   GL2 9878  17.420  28.429   8.864
  513POPC   C1A 9879  17.522  28.329   8.564
  513POPC   D2A 9880  17.461  28.392   8.264
  513POPC   C3A 9881  17.477  28.383   7.964
  513POPC   C4A 9882  17.500  28.388   7.664
  513POPC   C1B 9883  17.325  28.545   8.564
  513POPC   C2B 9884  17.319  28.455   8.264
  513POPC   C3B 9885  17.250  28.545   7.964
  513POPC   C4B 9886  17.256  28.490   7.664
  514POPC   NC3 9887  11.320  29.898   9.464
  514POPC   PO4 9888  11.279  29.925   9.164
  514POPC   GL1 9889  11.309  29.888   8.864
  514POPC   GL2 9890  11.253  30.018   8.864
  514POPC   C1A 9891  11.343  29.921   8.564
  514POPC   D2A 9892  11.299  29.878   8.264
  514POPC   C3A 9893  11.252  29.909   7.964
  514POPC   C4A 9894  11.265  29.932   7.664
  514POPC   C1B 9895  11.163  30.174   8.564
  514POPC   C2B 9896  11.223  30.181   8.264
  514POPC   C3B 9897  11.207  30.149   7.964
  514POPC   C4B 9898  11.159  30.112   7.664
  515POPC   NC3 9899  26.085  40.788   9.464
  515POPC   PO4 9900  26.087  40.795   9.164
  515POPC   GL1 9901  25.997  40.734   8.864
  515POPC   GL2 9902  25.977  40.907   8.864
  515POPC   C1A 9903  26.032  40.773   8.564
  515POPC   D2A 9904  26.039  40.743   8.264
  515POPC   C3A 9905  26.073  40.787   7.964
  515POPC   C4A 9906  26.074  40.778   7.664
  515POPC   C1B 9907  25.944  41.027   8.564
  515POPC   C2B 9908  26.014  41.025   8.264
  515POPC   C3B 9909  26.005  41.058   7.964
  515POPC   C4B 9910  25.960  40.980   7.664
  516POPC   NC3 9911  24.488  43.150   9.464
  516POPC   PO4 9912  24.493  43.083   9.164
  516POPC   GL1 9913  24.509  43.138   8.864
  516POPC   GL2 9914  24.614  43.109   8.864
  516POPC   C1A 9915  24.512  43.082   8.564
  516POPC   D2A 9916  24.484  43.072   8.264
  516POPC   C3A 9917  24.511  43.135   7.964
  516POPC   C4A 9918  24.485  43.110   7.664
  516POPC   C1B 9919  24.719  43.082   8.564
  516POPC   C2B 9920  24.770  43.061   8.264
  516POPC   C3B 9921  24.750  43.077   7.964
  516POPC   C4B 9922  24.763  43.106   7.664
  517POPC   NC3 9923  41.562   1.961   9.464
  517POPC   PO4 9924  41.595   2.006   9.164
  517POPC   GL1 9925  41.594   1.984   8.864
  517POPC   GL2 9926  41.689   1.907   8.864
  517POPC   C1A 9927  41.545   2.037   8.564
  517POPC   D2A 9928  41.529   1.947   8.264
  517POPC   C3A 9929  41.534   1.968   7.964
  517POPC   C4A 9930  41.605   1.952   7.664
  517POPC   C1B 9931  41.807   1.838   8.564
  517POPC   C2B 9932  41.723   1.807   8.264
  517POPC   C3B 9933  41.735   1.868   7.964
  517POPC   C4B 9934  41.739   1.876   7.664
  518POPC   NC3 9935  30.710  29.175   9.464
  518POPC   PO4 9936  30.654  29.158   9.164
  518POPC   GL1 9937  30.701  29.096   8.864
  518POPC   GL2 9938  30.837  29.129   8.864
  518POPC   C1A 9939  30.677  29.142   8.564
  518POPC   D2A 9940  30.721  29.111   8.264
  518POPC   C3A 9941  30.680  29.192   7.964
  518POPC   C4A 9942  30.745  29.122   7.664
  518POPC   C1B 9943  30.952  29.131   8.564
  518POPC   C2B 9944  30.910  29.109   8.264
  518POPC   C3B 9945  30.921  29.081   7.964
  518POPC   C4B 9946  30.962  29.123   7.664
  519POPC   NC3 9947  12.072  33.043   9.464
  519POPC   PO4 9948  12.042  33.012   9.164
  519POPC   GL1 9949  12.086  32.982   8.864
  519POPC   GL2 9950  11.984  33.022   8.864
  519POPC   C1A 9951  12.064  33.060   8.564
  519POPC   D2A 9952  12.061  33.045   8.264
  519POPC   C3A 9953  12.030  33.020   7.964
  519POPC   C4A 9954  12.062  32.977   7.664
  519POPC   C1B 9955  11.808  33.041   8.564
  519POPC   C2B 9956  11.807  33.024   8.264
  519POPC   C3B 9957  11.847  33.066   7.964
  519POPC   C4B 9958  11.834  33.018   7.664
  520POPC   NC3 9959  24.443  33.802   9.464
  520POPC   PO4 9960  24.499  33.802   9.164
  520POPC   GL1 9961  24.533  33.789   8.864
  520POPC   GL2 9962  24.448  33.692   8.864
  520POPC   C1A 9963  24.471  33.753   8.564
  520POPC   D2A 9964  24.524  33.778   8.264
  520POPC   C3A 9965  24.503  33.848   7.964
  520POPC   C4A 9966  24.470  33.774   7.664
  520POPC   C1B 9967  24.466  33.539   8.564
  520POPC   C2B 9968  24.510  33.553   8.264
  520POPC   C3B 9969  24.433  33.508   7.964
  520POPC   C4B 9970  24.512  33.598   7.664
  521POPC   NC3 9971  12.102  13.647   9.464
  521POPC   PO4 9972  12.087  13.675   9.164
  521POPC   GL1 9973  12.121  13.653   8.864
  521POPC   GL2 9974  12.167  13.608   8.864
  521POPC   C1A 9975  12.118  13.650   8.564
  521POPC   D2A 9976  12.099  13.597   8.264
  521POPC   C3A 9977  12.057  13.658   7.964
  521POPC   C4A 9978  12.065  13.583   7.664
  521POPC   C1B 9979  12.295  13.477   8.564
  521POPC   C2B 9980  12.270  13.491   8.264
  521POPC   C3B 9981  12.268  13.509   7.964
  521POPC   C4B 9982  12.277  13.530   7.664
  522POPC   NC3 9983  25.296  37.723   9.464
  522POPC   PO4 9984  25.244  37.630   9.164
  522POPC   GL1 9985  25.285  37.714   8.864
  522POPC   GL2 9986  25.381  37.750   8.864
  522POPC   C1A 9987  25.241  37.654   8.564
  522POPC   D2A 9988  25.298  37.694   8.264
  522POPC   C3A 9989  25.252  37.681   7.964
  522POPC   C4A 9990  25.260  37.681   7.664
  522POPC   C1B 9991  25.423  37.844   8.564
  522POPC   C2B 9992  25.492  37.890   8.264
  522POPC   C3B 9993  25.446  37.837   7.964
  522POPC   C4B 9994  25.447  37.888   7.664
  523POPC   NC3 9995  33.830  18.277   9.464
  523POPC   PO4 9996  33.829  18.264   9.164
  523POPC   GL1 9997  33.824  18.257   8.864
  523POPC   GL2 9998  33.633  18.306   8.864
  523POPC   C1A 9999  33.766  18.279   8.564
  523POPC   D2A10000  33.812  18.296   8.264
  523POPC   C3A10001  33.824  18.294   7.964
  523POPC   C4A10002  33.755  18.253   7.664
  523POPC   C1B10003  33.521  18.317   8.564
  523POPC   C2B10004  33.613  18.323   8.264
  523POPC   C3B10005  33.606  18.359   7.964
  523POPC   C4B10006  33.545  18.331   7.664
  524POPC   NC310007  39.256  38.476   9.464
  524POPC   PO410008  39.186  38.435   9.164
  524POPC   GL110009  39.216  38.413   8.864
  524POPC   GL210010  39.088  38.435   8.864
  524POPC   C1A10011  39.214  38.484   8.564
  524POPC   D2A10012  39.237  38.443   8.264
  524POPC   C3A10013  39.265  38.439   7.964
  524POPC   C4A10014  39.191  38.441   7.664
  524POPC   C1B10015  39.003  38.462   8.564
  524POPC   C2B10016  38.952  38.490   8.264
  524POPC   C3B10017  39.025  38.498   7.964
  524POPC   C4B10018  39.008  38.521   7.664
  525POPC   NC310019   1.954   5.819   9.464
  525POPC   PO410020   1.959   5.831   9.164
  525POPC   GL110021   1.947   5.885   8.864
  525POPC   GL210022   1.897   5.774   8.864
  525POPC   C1A10023   2.023   5.865   8.564
  525POPC   D2A10024   1.980   5.850   8.264
  525POPC   C3A10025   2.038   5.839   7.964
  525POPC   C4A10026   2.036   5.844   7.664
  525POPC   C1B10027   1.866   5.717   8.564
  525POPC   C2B10028   1.789   5.664   8.264
  525POPC   C3B10029   1.864   5.683   7.964
  525POPC   C4B10030   1.828   5.684   7.664
  526POPC   NC310031  37.684  11.294   9.464
  526POPC   PO410032  37.699  11.283   9.164
  526POPC   GL110033  37.654  11.291   8.864
  526POPC   GL210034  37.632  11.458   8.864
  526POPC   C1A10035  37.688  11.269   8.564
  526POPC   D2A10036  37.631  11.334   8.264
  526POPC   C3A10037  37.728  11.327   7.964
  526POPC   C4A10038  37.726  11.298   7.664
  526POPC   C1B10039  37.552  11.572   8.564
  526POPC   C2B10040  37.574  11.534   8.264
  526POPC   C3B10041  37.610  11.502   7.964
  526POPC   C4B10042  37.594  11.494   7.664
  527POPC   NC310043   6.598  12.845   9.464
  527POPC   PO410044   6.661  12.876   9.164
  527POPC   GL110045   6.636  12.805   8.864
  527POPC   GL210046   6.581  12.805   8.864
  527POPC   C1A10047   6.646  12.826   8.564
  527POPC   D2A10048   6.617  12.887   8.264
  527POPC   C3A10049   6.653  12.804   7.964
  527POPC   C4A10050   6.663  12.866   7.664
  527POPC   C1B10051   6.407  12.697   8.564
  527POPC   C2B10052   6.433  12.736   8.264
  527POPC   C3B10053   6.460  12.664   7.964
  527POPC   C4B10054   6.437  12.749   7.664
  528POPC   NC310055   2.760   7.425   9.464
  528POPC   PO410056   2.754   7.372   9.164
  528POPC   GL110057   2.767   7.409   8.864
  528POPC   GL210058   2.674   7.553   8.864
  528POPC   C1A10059   2.738   7.401   8.564
  528POPC   D2A10060   2.813   7.376   8.264
  528POPC   C3A10061   2.805   7.395   7.964
  528POPC   C4A10062   2.758   7.437   7.664
  528POPC   C1B10063   2.626   7.587   8.564
  528POPC   C2B10064   2.636   7.609   8.264
  528POPC   C3B10065   2.610   7.596   7.964
  528POPC   C4B10066   2.581   7.647   7.664
  529POPC   NC310067   8.946  24.511   9.464
  529POPC   PO410068   8.944  24.536   9.164
  529POPC   GL110069   8.978  24.476   8.864
  529POPC   GL210070   9.061  24.445   8.864
  529POPC   C1A10071   9.002  24.449   8.564
  529POPC   D2A10072   8.979  24.442   8.264
  529POPC   C3A10073   8.949  24.447   7.964
  529POPC   C4A10074   8.972  24.485   7.664
  529POPC   C1B10075   9.161  24.364   8.564
  529POPC   C2B10076   9.168  24.429   8.264
  529POPC   C3B10077   9.159  24.410   7.964
  529POPC   C4B10078   9.223  24.389   7.664
  530POPC   NC310079  36.862  25.223   9.464
  530POPC   PO410080  36.876  25.313   9.164
  530POPC   GL110081  36.897  25.255   8.864
  530POPC   GL210082  36.910  25.348   8.864
  530POPC   C1A10083  36.895  25.219   8.564
  530POPC   D2A10084  36.904  25.246   8.264
  530POPC   C3A10085  36.862  25.218   7.964
  530POPC   C4A10086  36.875  25.275   7.664
  530POPC   C1B10087  36.841  25.544   8.564
  530POPC   C2B10088  36.807  25.521   8.264
  530POPC   C3B10089  36.882  25.472   7.964
  530POPC   C4B10090  36.872  25.552   7.664
  531POPC   NC310091  36.173  41.532   9.464
  531POPC   PO410092  36.086  41.608   9.164
  531POPC   GL110093  36.079  41.521   8.864
  531POPC   GL210094  36.069  41.589   8.864
  531POPC   C1A10095  36.091  41.578   8.564
  531POPC   D2A10096  36.177  41.515   8.264
  531POPC   C3A10097  36.149  41.562   7.964
  531POPC   C4A10098  36.146  41.601   7.664
  531POPC   C1B10099  35.952  41.668   8.564
  531POPC   C2B10100  35.954  41.732   8.264
  531POPC   C3B10101  35.890  41.676   7.964
  531POPC   C4B10102  35.923  41.686   7.664
  532POPC   NC310103  14.427  20.573   9.464
  532POPC   PO410104  14.383  20.632   9.164
  532POPC   GL110105  14.435  20.581   8.864
  532POPC   GL210106  14.486  20.720   8.864
  532POPC   C1A10107  14.395  20.601   8.564
  532POPC   D2A10108  14.390  20.590   8.264
  532POPC   C3A10109  14.418  20.568   7.964
  532POPC   C4A10110  14.442  20.621   7.664
  532POPC   C1B10111  14.636  20.787   8.564
  532POPC   C2B10112  14.645  20.736   8.264
  532POPC   C3B10113  14.578  20.785   7.964
  532POPC   C4B10114  14.644  20.729   7.664
  533POPC   NC310115   3.584   4.284   9.464
  533POPC   PO410116   3.570   4.358   9.164
  533POPC   GL110117   3.541   4.361   8.864
  533POPC   GL210118   3.477   4.368   8.864
  533POPC   C1A10119   3.550   4.305   8.564
  533POPC   D2A10120   3.575   4.298   8.264
  533POPC   C3A10121   3.508   4.367   7.964
  533POPC   C4A10122   3.583   4.280   7.664
  533POPC   C1B10123   3.361   4.426   8.564
  533POPC   C2B10124   3.315   4.383   8.264
  533POPC   C3B10125   3.273   4.389   7.964
  533POPC   C4B10126   3.332   4.452   7.664
  534POPC   NC310127  41.523   3.571   9.464
  534POPC   PO410128  41.570   3.582   9.164
  534POPC   GL110129  41.557   3.589   8.864
  534POPC   GL210130  41.567   3.422   8.864
  534POPC   C1A10131  41.518   3.553   8.564
  534POPC   D2A10132  41.528   3.510   8.264
  534POPC   C3A10133  41.564   3.505   7.964
  534POPC   C4A10134  41.525   3.513   7.664
  534POPC   C1B10135  41.681   3.297   8.564
  534POPC   C2B10136  41.634   3.312   8.264
  534POPC   C3B10137  41.606   3.269   7.964
  534POPC   C4B10138  41.674   3.280   7.664
  535POPC   NC310139   6.599  23.698   9.464
  535POPC   PO410140   6.651  23.690   9.164
  535POPC   GL110141   6.616  23.684   8.864
  535POPC   GL210142   6.519  23.731   8.864
  535POPC   C1A10143   6.675  23.698   8.564
  535POPC   D2A10144   6.676  23.684   8.264
  535POPC   C3A10145   6.652  23.727   7.964
  535POPC   C4A10146   6.625  23.713   7.664
  535POPC   C1B10147   6.412  23.702   8.564
  535POPC   C2B10148   6.381  23.672   8.264
  535POPC   C3B10149   6.353  23.649   7.964
  535POPC   C4B10150   6.381  23.679   7.664
  536POPC   NC310151  25.270  43.926   9.464
  536POPC   PO410152  25.232  43.885   9.164
  536POPC   GL110153  25.277  43.913   8.864
  536POPC   GL210154  25.156  43.997   8.864
  536POPC   C1A10155  25.297  43.912   8.564
  536POPC   D2A10156  25.277  43.911   8.264
  536POPC   C3A10157  25.272  43.893   7.964
  536POPC   C4A10158  25.300  43.928   7.664
  536POPC   C1B10159  25.136  44.130   8.564
  536POPC   C2B10160  25.076  44.032   8.264
  536POPC   C3B10161  25.061  44.070   7.964
  536POPC   C4B10162  25.068  44.045   7.664
  537POPC   NC310163  36.162  13.672   9.464
  537POPC   PO410164  36.157  13.653   9.164
  537POPC   GL110165  36.143  13.629   8.864
  537POPC   GL210166  35.984  13.622   8.864
  537POPC   C1A10167  36.087  13.658   8.564
  537POPC   D2A10168  36.155  13.614   8.264
  537POPC   C3A10169  36.122  13.655   7.964
  537POPC   C4A10170  36.145  13.653   7.664
  537POPC   C1B10171  35.863  13.600   8.564
  537POPC   C2B10172  35.836  13.576   8.264
  537POPC   C3B10173  35.904  13.618   7.964
  537POPC   C4B10174  35.888  13.538   7.664
  538POPC   NC310175  19.861  37.652   9.464
  538POPC   PO410176  19.879  37.679   9.164
  538POPC   GL110177  19.882  37.681   8.864
  538POPC   GL210178  19.933  37.749   8.864
  538POPC   C1A10179  19.793  37.674   8.564
  538POPC   D2A10180  19.871  37.720   8.264
  538POPC   C3A10181  19.805  37.654   7.964
  538POPC   C4A10182  19.860  37.644   7.664
  538POPC   C1B10183  19.963  37.819   8.564
  538POPC   C2B10184  20.037  37.873   8.264
  538POPC   C3B10185  20.015  37.840   7.964
  538POPC   C4B10186  20.010  37.851   7.664
  539POPC   NC310187   9.016  41.586   9.464
  539POPC   PO410188   8.957  41.575   9.164
  539POPC   GL110189   9.011  41.560   8.864
  539POPC   GL210190   8.823  41.588   8.864
  539POPC   C1A10191   8.990  41.542   8.564
  539POPC   D2A10192   9.021  41.510   8.264
  539POPC   C3A10193   8.928  41.598   7.964
  539POPC   C4A10194   9.007  41.567   7.664
  539POPC   C1B10195   8.812  41.725   8.564
  539POPC   C2B10196   8.719  41.709   8.264
  539POPC   C3B10197   8.789  41.715   7.964
  539POPC   C4B10198   8.735  41.675   7.664
  540POPC   NC310199  19.109  40.738   9.464
  540POPC   PO410200  19.061  40.772   9.164
  540POPC   GL110201  19.087  40.756   8.864
  540POPC   GL210202  18.898  40.747   8.864
  540POPC   C1A10203  19.013  40.762   8.564
  540POPC   D2A10204  19.029  40.734   8.264
  540POPC   C3A10205  19.024  40.764   7.964
  540POPC   C4A10206  19.013  40.795   7.664
  540POPC   C1B10207  18.816  40.717   8.564
  540POPC   C2B10208  18.780  40.674   8.264
  540POPC   C3B10209  18.812  40.742   7.964
  540POPC   C4B10210  18.819  40.731   7.664
  541POPC   NC310211  39.241  42.380   9.464
  541POPC   PO410212  39.277  42.288   9.164
  541POPC   GL110213  39.230  42.345   8.864
  541POPC   GL210214  39.291  42.465   8.864
  541POPC   C1A10215  39.276  42.355   8.564
  541POPC   D2A10216  39.277  42.307   8.264
  541POPC   C3A10217  39.249  42.350   7.964
  541POPC   C4A10218  39.258  42.292   7.664
  541POPC   C1B10219  39.248  42.607   8.564
  541POPC   C2B10220  39.313  42.588   8.264
  541POPC   C3B10221  39.275  42.557   7.964
  541POPC   C4B10222  39.234  42.616   7.664
  542POPC   NC310223  33.814  22.141   9.464
  542POPC   PO410224  33.844  22.159   9.164
  542POPC   GL110225  33.845  22.209   8.864
  542POPC   GL210226  33.806  22.068   8.864
  542POPC   C1A10227  33.842  22.132   8.564
  542POPC   D2A10228  33.845  22.168   8.264
  542POPC   C3A10229  33.816  22.172   7.964
  542POPC   C4A10230  33.831  22.181   7.664
  542POPC   C1B10231  33.796  21.926   8.564
  542POPC   C2B10232  33.870  21.961   8.264
  542POPC   C3B10233  33.783  21.875   7.964
  542POPC   C4B10234  33.782  21.898   7.664
  543POPC   NC310235  26.838  12.069   9.464
  543POPC   PO410236  26.847  12.040   9.164
  543POPC   GL110237  26.814  12.043   8.864
  543POPC   GL210238  26.724  12.073   8.864
  543POPC   C1A10239  26.842  12.028   8.564
  543POPC   D2A10240  26.818  12.052   8.264
  543POPC   C3A10241  26.843  12.068   7.964
  543POPC   C4A10242  26.856  12.111   7.664
  543POPC   C1B10243  26.578  12.126   8.564
  543POPC   C2B10244  26.600  12.171   8.264
  543POPC   C3B10245  26.606  12.096   7.964
  543POPC   C4B10246  26.564  12.154   7.664
  544POPC   NC310247  20.657   0.443   9.464
  544POPC   PO410248  20.623   0.419   9.164
  544POPC   GL110249  20.596   0.395   8.864
  544POPC   GL210250  20.615   0.305   8.864
  544POPC   C1A10251  20.656   0.444   8.564
  544POPC   D2A10252  20.587   0.410   8.264
  544POPC   C3A10253  20.645   0.396   7.964
  544POPC   C4A10254  20.655   0.458   7.664
  544POPC   C1B10255  20.643   0.193   8.564
  544POPC   C2B10256  20.690   0.198   8.264
  544POPC   C3B10257  20.646   0.187   7.964
  544POPC   C4B10258  20.689   0.143   7.664
  545POPC   NC310259  20.657  33.009   9.464
  545POPC   PO410260  20.643  33.049   9.164
  545POPC   GL110261  20.593  32.976   8.864
  545POPC   GL210262  20.716  33.090   8.864
  545POPC   C1A10263  20.623  33.049   8.564
  545POPC   D2A10264  20.593  33.071   8.264
  545POPC   C3A10265  20.622  32.993   7.964
  545POPC   C4A10266  20.640  32.983   7.664
  545POPC   C1B10267  20.877  33.114   8.564
  545POPC   C2B10268  20.839  33.083   8.264
  545POPC   C3B10269  20.812  33.078   7.964
  545POPC   C4B10270  20.826  33.095   7.664
  546POPC   NC310271  17.475  24.466   9.464
  546POPC   PO410272  17.470  24.508   9.164
  546POPC   GL110273  17.548  24.502   8.864
  546POPC   GL210274  17.590  24.605   8.864
  546POPC   C1A10275  17.555  24.506   8.564
  546POPC   D2A10276  17.505  24.502   8.264
  546POPC   C3A10277  17.528  24.494   7.964
  546POPC   C4A10278  17.550  24.521   7.664
  546POPC   C1B10279  17.623  24.732   8.564
  546POPC   C2B10280  17.647  24.729   8.264
  546POPC   C3B10281  17.665  24.722   7.964
  546POPC   C4B10282  17.647  24.691   7.664
  547POPC   NC310283  12.803  36.887   9.464
  547POPC   PO410284  12.828  36.886   9.164
  547POPC   GL110285  12.814  36.866   8.864
  547POPC   GL210286  13.009  36.988   8.864
  547POPC   C1A10287  12.810  36.938   8.564
  547POPC   D2A10288  12.840  36.902   8.264
  547POPC   C3A10289  12.843  36.896   7.964
  547POPC   C4A10290  12.885  36.941   7.664
  547POPC   C1B10291  13.090  36.963   8.564
  547POPC   C2B10292  13.070  36.964   8.264
  547POPC   C3B10293  13.135  36.964   7.964
  547POPC   C4B10294  13.068  37.012   7.664
  548POPC   NC310295  23.743  44.705   9.464
  548POPC   PO410296  23.673  44.642   9.164
  548POPC   GL110297  23.753  44.673   8.864
  548POPC   GL210298  23.589  44.633   8.864
  548POPC   C1A10299  23.743  44.643   8.564
  548POPC   D2A10300  23.695  44.686   8.264
  548POPC   C3A10301  23.735  44.685   7.964
  548POPC   C4A10302  23.720  44.617   7.664
  548POPC   C1B10303  23.436  44.701   8.564
  548POPC   C2B10304  23.446  44.657   8.264
  548POPC   C3B10305  23.472  44.661   7.964
  548POPC   C4B10306  23.473  44.682   7.664
  549POPC   NC310307   1.184  12.867   9.464
  549POPC   PO410308   1.177  12.835   9.164
  549POPC   GL110309   1.200  12.872   8.864
  549POPC   GL210310   1.337  12.958   8.864
  549POPC   C1A10311   1.217  12.879   8.564
  549POPC   D2A10312   1.207  12.895   8.264
  549POPC   C3A10313   1.244  12.843   7.964
  549POPC   C4A10314   1.169  12.841   7.664
  549POPC   C1B10315   1.389  13.085   8.564
  549POPC   C2B10316   1.405  13.026   8.264
  549POPC   C3B10317   1.347  13.010   7.964
  549POPC   C4B10318   1.340  13.082   7.664
  550POPC   NC310319  43.124   4.313   9.464
  550POPC   PO410320  43.112   4.335   9.164
  550POPC   GL110321  43.111   4.319   8.864
  550POPC   GL210322  43.053   4.191   8.864
  550POPC   C1A10323  43.116   4.358   8.564
  550POPC   D2A10324  43.063   4.316   8.264
  550POPC   C3A10325  43.137   4.315   7.964
  550POPC   C4A10326  43.157   4.284   7.664
  550POPC   C1B10327  42.945   4.169   8.564
  550POPC   C2B10328  42.951   4.182   8.264
  550POPC   C3B10329  42.961   4.125   7.964
  550POPC   C4B10330  42.952   4.103   7.664
  551POPC   NC310331  38.459  12.109   9.464
  551POPC   PO410332  38.410  12.105   9.164
  551POPC   GL110333  38.478  12.089   8.864
  551POPC   GL210334  38.308  12.103   8.864
  551POPC   C1A10335  38.411  12.028   8.564
  551POPC   D2A10336  38.457  12.100   8.264
  551POPC   C3A10337  38.452  12.051   7.964
  551POPC   C4A10338  38.432  12.107   7.664
  551POPC   C1B10339  38.198  12.173   8.564
  551POPC   C2B10340  38.213  12.191   8.264
  551POPC   C3B10341  38.287  12.203   7.964
  551POPC   C4B10342  38.296  12.263   7.664
  552POPC   NC310343  33.821   9.022   9.464
  552POPC   PO410344  33.770   8.981   9.164
  552POPC   GL110345  33.825   9.019   8.864
  552POPC   GL210346  33.963   9.024   8.864
  552POPC   C1A10347  33.803   8.924   8.564
  552POPC   D2A10348  33.799   8.962   8.264
  552POPC   C3A10349  33.826   9.003   7.964
  552POPC   C4A10350  33.761   9.019   7.664
  552POPC   C1B10351  34.067   8.984   8.564
  552POPC   C2B10352  34.044   8.997   8.264
  552POPC   C3B10353  34.063   8.947   7.964
  552POPC   C4B10354  34.049   9.010   7.664
  553POPC   NC310355  36.144  43.091   9.464
  553POPC   PO410356  36.161  43.116   9.164
  553POPC   GL110357  36.151  43.081   8.864
  553POPC   GL210358  36.204  43.143   8.864
  553POPC   C1A10359  36.101  43.097   8.564
  553POPC   D2A10360  36.169  43.133   8.264
  553POPC   C3A10361  36.097  43.097   7.964
  553POPC   C4A10362  36.155  43.130   7.664
  553POPC   C1B10363  36.370  43.132   8.564
  553POPC   C2B10364  36.334  43.112   8.264
  553POPC   C3B10365  36.413  43.062   7.964
  553POPC   C4B10366  36.361  43.096   7.664
  554POPC   NC310367  28.415  15.185   9.464
  554POPC   PO410368  28.396  15.174   9.164
  554POPC   GL110369  28.395  15.216   8.864
  554POPC   GL210370  28.354  15.022   8.864
  554POPC   C1A10371  28.353  15.219   8.564
  554POPC   D2A10372  28.358  15.152   8.264
  554POPC   C3A10373  28.340  15.204   7.964
  554POPC   C4A10374  28.320  15.165   7.664
  554POPC   C1B10375  28.297  14.973   8.564
  554POPC   C2B10376  28.247  14.905   8.264
  554POPC   C3B10377  28.329  14.917   7.964
  554POPC   C4B10378  28.318  14.989   7.664
  555POPC   NC310379  33.805  28.377   9.464
  555POPC   PO410380  33.835  28.323   9.164
  555POPC   GL110381  33.758  28.395   8.864
  555POPC   GL210382  33.744  28.467   8.864
  555POPC   C1A10383  33.784  28.330   8.564
  555POPC   D2A10384  33.845  28.355   8.264
  555POPC   C3A10385  33.824  28.319   7.964
  555POPC   C4A10386  33.843  28.338   7.664
  555POPC   C1B10387  33.632  28.506   8.564
  555POPC   C2B10388  33.650  28.545   8.264
  555POPC   C3B10389  33.627  28.550   7.964
  555POPC   C4B10390  33.627  28.602   7.664
  556POPC   NC310391  37.633  42.369   9.464
  556POPC   PO410392  37.715  42.356   9.164
  556POPC   GL110393  37.699  42.374   8.864
  556POPC   GL210394  37.684  42.183   8.864
  556POPC   C1A10395  37.652  42.361   8.564
  556POPC   D2A10396  37.727  42.314   8.264
  556POPC   C3A10397  37.727  42.340   7.964
  556POPC   C4A10398  37.727  42.379   7.664
  556POPC   C1B10399  37.660  42.114   8.564
  556POPC   C2B10400  37.624  42.085   8.264
  556POPC   C3B10401  37.604  42.119   7.964
  556POPC   C4B10402  37.606  42.042   7.664
  557POPC   NC310403   1.976   6.654   9.464
  557POPC   PO410404   1.975   6.656   9.164
  557POPC   GL110405   2.033   6.654   8.864
  557POPC   GL210406   1.914   6.572   8.864
  557POPC   C1A10407   1.943   6.597   8.564
  557POPC   D2A10408   2.038   6.614   8.264
  557POPC   C3A10409   2.014   6.673   7.964
  557POPC   C4A10410   2.025   6.679   7.664
  557POPC   C1B10411   1.782   6.523   8.564
  557POPC   C2B10412   1.720   6.578   8.264
  557POPC   C3B10413   1.740   6.518   7.964
  557POPC   C4B10414   1.726   6.590   7.664
  558POPC   NC310415  31.471  40.031   9.464
  558POPC   PO410416  31.491  39.982   9.164
  558POPC   GL110417  31.454  40.000   8.864
  558POPC   GL210418  31.403  39.908   8.864
  558POPC   C1A10419  31.442  40.057   8.564
  558POPC   D2A10420  31.434  39.987   8.264
  558POPC   C3A10421  31.457  39.969   7.964
  558POPC   C4A10422  31.499  40.056   7.664
  558POPC   C1B10423  31.249  39.853   8.564
  558POPC   C2B10424  31.250  39.829   8.264
  558POPC   C3B10425  31.283  39.848   7.964
  558POPC   C4B10426  31.262  39.826   7.664
  559POPC   NC310427  15.931  18.319   9.464
  559POPC   PO410428  15.967  18.276   9.164
  559POPC   GL110429  15.954  18.327   8.864
  559POPC   GL210430  15.942  18.200   8.864
  559POPC   C1A10431  15.993  18.328   8.564
  559POPC   D2A10432  15.925  18.320   8.264
  559POPC   C3A10433  15.910  18.240   7.964
  559POPC   C4A10434  15.917  18.322   7.664
  559POPC   C1B10435  15.982  18.018   8.564
  559POPC   C2B10436  15.992  18.024   8.264
  559POPC   C3B10437  15.991  18.044   7.964
  559POPC   C4B10438  16.053  18.082   7.664
  560POPC   NC310439  43.887  30.657   9.464
  560POPC   PO410440  43.927  30.701   9.164
  560POPC   GL110441  43.858  30.649   8.864
  560POPC   GL210442  43.871  30.550   8.864
  560POPC   C1A10443  43.861  30.664   8.564
  560POPC   D2A10444  43.886  30.725   8.264
  560POPC   C3A10445  43.917  30.691   7.964
  560POPC   C4A10446  43.894  30.732   7.664
  560POPC   C1B10447  43.843  30.450   8.564
  560POPC   C2B10448  43.833  30.439   8.264
  560POPC   C3B10449  43.880  30.468   7.964
  560POPC   C4B10450  43.828  30.430   7.664
  561POPC   NC310451  40.027  27.589   9.464
  561POPC   PO410452  40.046  27.628   9.164
  561POPC   GL110453  39.995  27.588   8.864
  561POPC   GL210454  40.142  27.680   8.864
  561POPC   C1A10455  40.037  27.569   8.564
  561POPC   D2A10456  39.995  27.561   8.264
  561POPC   C3A10457  40.012  27.545   7.964
  561POPC   C4A10458  40.006  27.578   7.664
  561POPC   C1B10459  40.269  27.704   8.564
  561POPC   C2B10460  40.245  27.713   8.264
  561POPC   C3B10461  40.232  27.742   7.964
  561POPC   C4B10462  40.227  27.710   7.664
  562POPC   NC310463  33.804  30.684   9.464
  562POPC   PO410464  33.788  30.686   9.164
  562POPC   GL110465  33.811  30.708   8.864
  562POPC   GL210466  33.895  30.711   8.864
  562POPC   C1A10467  33.784  30.740   8.564
  562POPC   D2A10468  33.834  30.681   8.264
  562POPC   C3A10469  33.834  30.685   7.964
  562POPC   C4A10470  33.840  30.676   7.664
  562POPC   C1B10471  34.058  30.695   8.564
  562POPC   C2B10472  34.097  30.682   8.264
  562POPC   C3B10473  34.074  30.691   7.964
  562POPC   C4B10474  34.012  30.703   7.664
  563POPC   NC310475  27.638  38.444   9.464
  563POPC   PO410476  27.610  38.502   9.164
  563POPC   GL110477  27.587  38.431   8.864
  563POPC   GL210478  27.461  38.431   8.864
  563POPC   C1A10479  27.596  38.415   8.564
  563POPC   D2A10480  27.607  38.465   8.264
  563POPC   C3A10481  27.557  38.469   7.964
  563POPC   C4A10482  27.593  38.457   7.664
  563POPC   C1B10483  27.321  38.438   8.564
  563POPC   C2B10484  27.331  38.419   8.264
  563POPC   C3B10485  27.389  38.418   7.964
  563POPC   C4B10486  27.363  38.425   7.664
  564POPC   NC310487   0.452  33.058   9.464
  564POPC   PO410488   0.445  33.044   9.164
  564POPC   GL110489   0.465  33.006   8.864
  564POPC   GL210490   0.569  33.016   8.864
  564POPC   C1A10491   0.406  33.070   8.564
  564POPC   D2A10492   0.434  32.995   8.264
  564POPC   C3A10493   0.417  32.978   7.964
  564POPC   C4A10494   0.437  33.035   7.664
  564POPC   C1B10495   0.724  32.997   8.564
  564POPC   C2B10496   0.690  32.954   8.264
  564POPC   C3B10497   0.657  33.034   7.964
  564POPC   C4B10498   0.648  32.970   7.664
  565POPC   NC310499   3.586  13.604   9.464
  565POPC   PO410500   3.550  13.641   9.164
  565POPC   GL110501   3.551  13.580   8.864
  565POPC   GL210502   3.627  13.658   8.864
  565POPC   C1A10503   3.557  13.669   8.564
  565POPC   D2A10504   3.521  13.602   8.264
  565POPC   C3A10505   3.581  13.599   7.964
  565POPC   C4A10506   3.551  13.666   7.664
  565POPC   C1B10507   3.803  13.628   8.564
  565POPC   C2B10508   3.787  13.686   8.264
  565POPC   C3B10509   3.780  13.677   7.964
  565POPC   C4B10510   3.811  13.631   7.664
  566POPC   NC310511  19.033  40.042   9.464
  566POPC   PO410512  19.092  39.984   9.164
  566POPC   GL110513  19.084  39.967   8.864
  566POPC   GL210514  19.032  39.839   8.864
  566POPC   C1A10515  19.035  40.023   8.564
  566POPC   D2A10516  19.062  40.040   8.264
  566POPC   C3A10517  19.064  40.011   7.964
  566POPC   C4A10518  19.076  39.993   7.664
  566POPC   C1B10519  19.074  39.788   8.564
  566POPC   C2B10520  19.049  39.722   8.264
  566POPC   C3B10521  19.109  39.756   7.964
  566POPC   C4B10522  19.102  39.804   7.664
  567POPC   NC310523  35.333  25.254   9.464
  567POPC   PO410524  35.376  25.250   9.164
  567POPC   GL110525  35.384  25.271   8.864
  567POPC   GL210526  35.481  25.339   8.864
  567POPC   C1A10527  35.388  25.219   8.564
  567POPC   D2A10528  35.389  25.225   8.264
  567POPC   C3A10529  35.347  25.312   7.964
  567POPC   C4A10530  35.387  25.301   7.664
  567POPC   C1B10531  35.573  25.488   8.564
  567POPC   C2B10532  35.485  25.434   8.264
  567POPC   C3B10533  35.518  25.414   7.964
  567POPC   C4B10534  35.544  25.423   7.664
  568POPC   NC310535  28.392  29.887   9.464
  568POPC   PO410536  28.353  29.970   9.164
  568POPC   GL110537  28.396  29.951   8.864
  568POPC   GL210538  28.379  29.788   8.864
  568POPC   C1A10539  28.357  29.926   8.564
  568POPC   D2A10540  28.388  29.871   8.264
  568POPC   C3A10541  28.397  29.951   7.964
  568POPC   C4A10542  28.345  29.896   7.664
  568POPC   C1B10543  28.473  29.705   8.564
  568POPC   C2B10544  28.424  29.687   8.264
  568POPC   C3B10545  28.423  29.689   7.964
  568POPC   C4B10546  28.406  29.670   7.664
  569POPC   NC310547  22.968  17.546   9.464
  569POPC   PO410548  22.963  17.493   9.164
  569POPC   GL110549  22.945  17.511   8.864
  569POPC   GL210550  23.005  17.593   8.864
  569POPC   C1A10551  22.950  17.539   8.564
  569POPC   D2A10552  22.983  17.539   8.264
  569POPC   C3A10553  22.968  17.475   7.964
  569POPC   C4A10554  22.942  17.526   7.664
  569POPC   C1B10555  23.017  17.756   8.564
  569POPC   C2B10556  22.978  17.714   8.264
  569POPC   C3B10557  22.983  17.747   7.964
  569POPC   C4B10558  23.051  17.729   7.664
  570POPC   NC310559  14.405  36.131   9.464
  570POPC   PO410560  14.359  36.139   9.164
  570POPC   GL110561  14.419  36.104   8.864
  570POPC   GL210562  14.322  36.052   8.864
  570POPC   C1A10563  14.386  36.131   8.564
  570POPC   D2A10564  14.399  36.079   8.264
  570POPC   C3A10565  14.401  36.082   7.964
  570POPC   C4A10566  14.392  36.123   7.664
  570POPC   C1B10567  14.189  36.010   8.564
  570POPC   C2B10568  14.181  36.022   8.264
  570POPC   C3B10569  14.156  35.977   7.964
  570POPC   C4B10570  14.228  36.021   7.664
  571POPC   NC310571  14.381  22.161   9.464
  571POPC   PO410572  14.449  22.153   9.164
  571POPC   GL110573  14.386  22.120   8.864
  571POPC   GL210574  14.434  22.278   8.864
  571POPC   C1A10575  14.422  22.186   8.564
  571POPC   D2A10576  14.367  22.211   8.264
  571POPC   C3A10577  14.387  22.207   7.964
  571POPC   C4A10578  14.383  22.206   7.664
  571POPC   C1B10579  14.412  22.434   8.564
  571POPC   C2B10580  14.458  22.406   8.264
  571POPC   C3B10581  14.424  22.389   7.964
  571POPC   C4B10582  14.384  22.400   7.664
  572POPC   NC310583   5.132  33.071   9.464
  572POPC   PO410584   5.108  33.047   9.164
  572POPC   GL110585   5.129  33.001   8.864
  572POPC   GL210586   5.076  32.953   8.864
  572POPC   C1A10587   5.068  33.013   8.564
  572POPC   D2A10588   5.091  33.020   8.264
  572POPC   C3A10589   5.064  33.060   7.964
  572POPC   C4A10590   5.086  32.985   7.664
  572POPC   C1B10591   5.147  32.789   8.564
  572POPC   C2B10592   5.174  32.774   8.264
  572POPC   C3B10593   5.139  32.763   7.964
  572POPC   C4B10594   5.177  32.757   7.664
  573POPC   NC310595   5.820  39.181   9.464
  573POPC   PO410596   5.836  39.229   9.164
  573POPC   GL110597   5.853  39.212   8.864
  573POPC   GL210598   5.787  39.091   8.864
  573POPC   C1A10599   5.879  39.198   8.564
  573POPC   D2A10600   5.861  39.267   8.264
  573POPC   C3A10601   5.851  39.215   7.964
  573POPC   C4A10602   5.855  39.227   7.664
  573POPC   C1B10603   5.674  39.035   8.564
  573POPC   C2B10604   5.660  39.053   8.264
  573POPC   C3B10605   5.737  39.056   7.964
  573POPC   C4B10606   5.735  39.044   7.664
  574POPC   NC310607  10.537  26.071   9.464
  574POPC   PO410608  10.555  26.070   9.164
  574POPC   GL110609  10.539  26.044   8.864
  574POPC   GL210610  10.356  26.006   8.864
  574POPC   C1A10611  10.540  25.995   8.564
  574POPC   D2A10612  10.475  26.036   8.264
  574POPC   C3A10613  10.519  26.086   7.964
  574POPC   C4A10614  10.567  26.016   7.664
  574POPC   C1B10615  10.285  26.042   8.564
  574POPC   C2B10616  10.281  26.093   8.264
  574POPC   C3B10617  10.294  26.029   7.964
  574POPC   C4B10618  10.253  26.045   7.664
  575POPC   NC310619  24.472  32.226   9.464
  575POPC   PO410620  24.538  32.226   9.164
  575POPC   GL110621  24.484  32.273   8.864
  575POPC   GL210622  24.435  32.129   8.864
  575POPC   C1A10623  24.525  32.284   8.564
  575POPC   D2A10624  24.537  32.227   8.264
  575POPC   C3A10625  24.498  32.213   7.964
  575POPC   C4A10626  24.479  32.291   7.664
  575POPC   C1B10627  24.340  32.045   8.564
  575POPC   C2B10628  24.321  32.077   8.264
  575POPC   C3B10629  24.345  32.011   7.964
  575POPC   C4B10630  24.313  32.086   7.664
  576POPC   NC310631   6.650  11.285   9.464
  576POPC   PO410632   6.687  11.338   9.164
  576POPC   GL110633   6.694  11.252   8.864
  576POPC   GL210634   6.756  11.314   8.864
  576POPC   C1A10635   6.609  11.267   8.564
  576POPC   D2A10636   6.621  11.344   8.264
  576POPC   C3A10637   6.664  11.307   7.964
  576POPC   C4A10638   6.626  11.252   7.664
  576POPC   C1B10639   6.935  11.323   8.564
  576POPC   C2B10640   6.909  11.353   8.264
  576POPC   C3B10641   6.942  11.282   7.964
  576POPC   C4B10642   6.926  11.369   7.664
  577POPC   NC310643  12.027  31.436   9.464
  577POPC   PO410644  12.102  31.459   9.164
  577POPC   GL110645  12.125  31.497   8.864
  577POPC   GL210646  12.043  31.644   8.864
  577POPC   C1A10647  12.040  31.462   8.564
  577POPC   D2A10648  12.120  31.488   8.264
  577POPC   C3A10649  12.063  31.423   7.964
  577POPC   C4A10650  12.092  31.457   7.664
  577POPC   C1B10651  12.090  31.745   8.564
  577POPC   C2B10652  12.090  31.756   8.264
  577POPC   C3B10653  12.149  31.677   7.964
  577POPC   C4B10654  12.089  31.759   7.664
  578POPC   NC310655  44.632  40.798   9.464
  578POPC   PO410656  44.627  40.746   9.164
  578POPC   GL110657  44.637  40.803   8.864
  578POPC   GL210658  44.555  40.691   8.864
  578POPC   C1A10659  44.643  40.784   8.564
  578POPC   D2A10660  44.648  40.757   8.264
  578POPC   C3A10661  44.640  40.752   7.964
  578POPC   C4A10662  44.671  40.738   7.664
  578POPC   C1B10663  44.472  40.624   8.564
  578POPC   C2B10664  44.447  40.679   8.264
  578POPC   C3B10665  44.411  40.701   7.964
  578POPC   C4B10666  44.421  40.638   7.664
  579POPC   NC310667  44.671  36.856   9.464
  579POPC   PO410668  44.630  36.877   9.164
  579POPC   GL110669  44.702  36.909   8.864
  579POPC   GL210670  44.800  36.872   8.864
  579POPC   C1A10671  44.621  36.930   8.564
  579POPC   D2A10672  44.651  36.928   8.264
  579POPC   C3A10673  44.631  36.950   7.964
  579POPC   C4A10674  44.661  36.915   7.664
  579POPC   C1B10675  44.911  36.970   8.564
  579POPC   C2B10676  44.960  36.976   8.264
  579POPC   C3B10677  44.899  36.920   7.964
  579POPC   C4B10678  44.943  36.971   7.664
  580POPC   NC310679  39.991  41.563   9.464
  580POPC   PO410680  40.053  41.601   9.164
  580POPC   GL110681  39.970  41.602   8.864
  580POPC   GL210682  39.952  41.657   8.864
  580POPC   C1A10683  40.022  41.539   8.564
  580POPC   D2A10684  39.967  41.510   8.264
  580POPC   C3A10685  39.960  41.545   7.964
  580POPC   C4A10686  40.034  41.558   7.664
  580POPC   C1B10687  39.916  41.741   8.564
  580POPC   C2B10688  39.906  41.752   8.264
  580POPC   C3B10689  39.947  41.794   7.964
  580POPC   C4B10690  39.879  41.735   7.664
  581POPC   NC310691   8.187   5.054   9.464
  581POPC   PO410692   8.226   5.088   9.164
  581POPC   GL110693   8.170   5.132   8.864
  581POPC   GL210694   8.206   5.191   8.864
  581POPC   C1A10695   8.166   5.131   8.564
  581POPC   D2A10696   8.192   5.084   8.264
  581POPC   C3A10697   8.171   5.053   7.964
  581POPC   C4A10698   8.199   5.081   7.664
  581POPC   C1B10699   8.164   5.365   8.564
  581POPC   C2B10700   8.178   5.339   8.264
  581POPC   C3B10701   8.156   5.356   7.964
  581POPC   C4B10702   8.230   5.367   7.664
  582POPC   NC310703  24.527  24.463   9.464
  582POPC   PO410704  24.442  24.501   9.164
  582POPC   GL110705  24.508  24.486   8.864
  582POPC   GL210706  24.593  24.372   8.864
  582POPC   C1A10707  24.498  24.451   8.564
  582POPC   D2A10708  24.462  24.516   8.264
  582POPC   C3A10709  24.520  24.497   7.964
  582POPC   C4A10710  24.452  24.507   7.664
  582POPC   C1B10711  24.655  24.357   8.564
  582POPC   C2B10712  24.668  24.360   8.264
  582POPC   C3B10713  24.672  24.317   7.964
  582POPC   C4B10714  24.681  24.357   7.664
  583POPC   NC310715   8.930  36.872   9.464
  583POPC   PO410716   8.955  36.921   9.164
  583POPC   GL110717   8.948  36.892   8.864
  583POPC   GL210718   8.973  36.779   8.864
  583POPC   C1A10719   9.017  36.908   8.564
  583POPC   D2A10720   9.011  36.953   8.264
  583POPC   C3A10721   8.928  36.926   7.964
  583POPC   C4A10722   9.016  36.862   7.664
  583POPC   C1B10723   9.039  36.613   8.564
  583POPC   C2B10724   8.976  36.646   8.264
  583POPC   C3B10725   9.052  36.692   7.964
  583POPC   C4B10726   8.961  36.634   7.664
  584POPC   NC310727  29.181  19.859   9.464
  584POPC   PO410728  29.170  19.859   9.164
  584POPC   GL110729  29.122  19.812   8.864
  584POPC   GL210730  29.139  19.729   8.864
  584POPC   C1A10731  29.172  19.839   8.564
  584POPC   D2A10732  29.170  19.838   8.264
  584POPC   C3A10733  29.182  19.882   7.964
  584POPC   C4A10734  29.165  19.864   7.664
  584POPC   C1B10735  29.186  19.555   8.564
  584POPC   C2B10736  29.158  19.590   8.264
  584POPC   C3B10737  29.231  19.636   7.964
  584POPC   C4B10738  29.178  19.550   7.664
  585POPC   NC310739  33.826  16.685   9.464
  585POPC   PO410740  33.783  16.708   9.164
  585POPC   GL110741  33.779  16.721   8.864
  585POPC   GL210742  33.810  16.592   8.864
  585POPC   C1A10743  33.797  16.733   8.564
  585POPC   D2A10744  33.794  16.716   8.264
  585POPC   C3A10745  33.761  16.731   7.964
  585POPC   C4A10746  33.755  16.754   7.664
  585POPC   C1B10747  33.731  16.511   8.564
  585POPC   C2B10748  33.738  16.459   8.264
  585POPC   C3B10749  33.697  16.532   7.964
  585POPC   C4B10750  33.748  16.528   7.664
  586POPC   NC310751  31.480  27.614   9.464
  586POPC   PO410752  31.456  27.560   9.164
  586POPC   GL110753  31.434  27.638   8.864
  586POPC   GL210754  31.384  27.540   8.864
  586POPC   C1A10755  31.518  27.628   8.564
  586POPC   D2A10756  31.458  27.595   8.264
  586POPC   C3A10757  31.485  27.550   7.964
  586POPC   C4A10758  31.520  27.597   7.664
  586POPC   C1B10759  31.344  27.371   8.564
  586POPC   C2B10760  31.309  27.434   8.264
  586POPC   C3B10761  31.348  27.368   7.964
  586POPC   C4B10762  31.287  27.368   7.664
  587POPC   NC310763  34.599   7.459   9.464
  587POPC   PO410764  34.556   7.438   9.164
  587POPC   GL110765  34.616   7.452   8.864
  587POPC   GL210766  34.449   7.409   8.864
  587POPC   C1A10767  34.580   7.408   8.564
  587POPC   D2A10768  34.610   7.424   8.264
  587POPC   C3A10769  34.606   7.440   7.964
  587POPC   C4A10770  34.605   7.378   7.664
  587POPC   C1B10771  34.291   7.433   8.564
  587POPC   C2B10772  34.335   7.415   8.264
  587POPC   C3B10773  34.282   7.412   7.964
  587POPC   C4B10774  34.370   7.400   7.664
  588POPC   NC310775   8.197   4.337   9.464
  588POPC   PO410776   8.232   4.334   9.164
  588POPC   GL110777   8.181   4.360   8.864
  588POPC   GL210778   8.286   4.356   8.864
  588POPC   C1A10779   8.231   4.307   8.564
  588POPC   D2A10780   8.164   4.273   8.264
  588POPC   C3A10781   8.216   4.356   7.964
  588POPC   C4A10782   8.178   4.315   7.664
  588POPC   C1B10783   8.450   4.395   8.564
  588POPC   C2B10784   8.419   4.382   8.264
  588POPC   C3B10785   8.401   4.370   7.964
  588POPC   C4B10786   8.438   4.425   7.664
  589POPC   NC310787   1.959  38.485   9.464
  589POPC   PO410788   1.971  38.410   9.164
  589POPC   GL110789   1.973  38.444   8.864
  589POPC   GL210790   1.946  38.565   8.864
  589POPC   C1A10791   1.960  38.482   8.564
  589POPC   D2A10792   2.020  38.408   8.264
  589POPC   C3A10793   1.955  38.416   7.964
  589POPC   C4A10794   1.956  38.470   7.664
  589POPC   C1B10795   1.857  38.673   8.564
  589POPC   C2B10796   1.826  38.653   8.264
  589POPC   C3B10797   1.897  38.664   7.964
  589POPC   C4B10798   1.895  38.633   7.664
  590POPC   NC310799  12.115  41.530   9.464
  590POPC   PO410800  12.063  41.606   9.164
  590POPC   GL110801  12.078  41.509   8.864
  590POPC   GL210802  11.955  41.479   8.864
  590POPC   C1A10803  12.104  41.563   8.564
  590POPC   D2A10804  12.053  41.545   8.264
  590POPC   C3A10805  12.107  41.581   7.964
  590POPC   C4A10806  12.121  41.548   7.664
  590POPC   C1B10807  11.821  41.386   8.564
  590POPC   C2B10808  11.876  41.460   8.264
  590POPC   C3B10809  11.885  41.402   7.964
  590POPC   C4B10810  11.842  41.439   7.664
  591POPC   NC310811   6.671  16.730   9.464
  591POPC   PO410812   6.691  16.688   9.164
  591POPC   GL110813   6.602  16.690   8.864
  591POPC   GL210814   6.707  16.874   8.864
  591POPC   C1A10815   6.679  16.702   8.564
  591POPC   D2A10816   6.648  16.753   8.264
  591POPC   C3A10817   6.668  16.683   7.964
  591POPC   C4A10818   6.632  16.721   7.664
  591POPC   C1B10819   6.714  16.975   8.564
  591POPC   C2B10820   6.658  16.989   8.264
  591POPC   C3B10821   6.681  16.983   7.964
  591POPC   C4B10822   6.686  17.020   7.664
  592POPC   NC310823  22.199  42.325   9.464
  592POPC   PO410824  22.169  42.295   9.164
  592POPC   GL110825  22.115  42.322   8.864
  592POPC   GL210826  22.331  42.401   8.864
  592POPC   C1A10827  22.148  42.322   8.564
  592POPC   D2A10828  22.113  42.294   8.264
  592POPC   C3A10829  22.134  42.303   7.964
  592POPC   C4A10830  22.178  42.331   7.664
  592POPC   C1B10831  22.446  42.382   8.564
  592POPC   C2B10832  22.415  42.434   8.264
  592POPC   C3B10833  22.454  42.421   7.964
  592POPC   C4B10834  22.394  42.384   7.664
  593POPC   NC310835   8.962  26.084   9.464
  593POPC   PO410836   8.949  26.030   9.164
  593POPC   GL110837   8.968  26.054   8.864
  593POPC   GL210838   8.888  25.974   8.864
  593POPC   C1A10839   8.939  26.044   8.564
  593POPC   D2A10840   8.949  26.076   8.264
  593POPC   C3A10841   8.939  26.080   7.964
  593POPC   C4A10842   8.982  25.999   7.664
  593POPC   C1B10843   8.770  25.860   8.564
  593POPC   C2B10844   8.826  25.912   8.264
  593POPC   C3B10845   8.802  25.846   7.964
  593POPC   C4B10846   8.773  25.882   7.664
  594POPC   NC310847  36.918  26.023   9.464
  594POPC   PO410848  36.930  25.998   9.164
  594POPC   GL110849  36.914  26.039   8.864
  594POPC   GL210850  36.759  26.061   8.864
  594POPC   C1A10851  36.932  26.084   8.564
  594POPC   D2A10852  36.902  26.067   8.264
  594POPC   C3A10853  36.942  26.075   7.964
  594POPC   C4A10854  36.857  26.075   7.664
  594POPC   C1B10855  36.631  26.044   8.564
  594POPC   C2B10856  36.653  26.047   8.264
  594POPC   C3B10857  36.622  26.051   7.964
  594POPC   C4B10858  36.662  25.995   7.664
  595POPC   NC310859  15.229  36.116   9.464
  595POPC   PO410860  15.199  36.125   9.164
  595POPC   GL110861  15.205  36.169   8.864
  595POPC   GL210862  15.125  36.220   8.864
  595POPC   C1A10863  15.184  36.099   8.564
  595POPC   D2A10864  15.218  36.110   8.264
  595POPC   C3A10865  15.164  36.133   7.964
  595POPC   C4A10866  15.180  36.095   7.664
  595POPC   C1B10867  15.054  36.340   8.564
  595POPC   C2B10868  15.078  36.336   8.264
  595POPC   C3B10869  15.070  36.339   7.964
  595POPC   C4B10870  15.121  36.373   7.664
  596POPC   NC310871   9.789  13.611   9.464
  596POPC   PO410872   9.752  13.653   9.164
  596POPC   GL110873   9.720  13.652   8.864
  596POPC   GL210874   9.629  13.726   8.864
  596POPC   C1A10875   9.783  13.636   8.564
  596POPC   D2A10876   9.743  13.622   8.264
  596POPC   C3A10877   9.777  13.646   7.964
  596POPC   C4A10878   9.748  13.634   7.664
  596POPC   C1B10879   9.568  13.812   8.564
  596POPC   C2B10880   9.570  13.867   8.264
  596POPC   C3B10881   9.654  13.838   7.964
  596POPC   C4B10882   9.564  13.859   7.664
  597POPC   NC310883  26.799  18.290   9.464
  597POPC   PO410884  26.835  18.302   9.164
  597POPC   GL110885  26.815  18.298   8.864
  597POPC   GL210886  26.665  18.229   8.864
  597POPC   C1A10887  26.769  18.304   8.564
  597POPC   D2A10888  26.773  18.291   8.264
  597POPC   C3A10889  26.803  18.323   7.964
  597POPC   C4A10890  26.782  18.324   7.664
  597POPC   C1B10891  26.635  18.116   8.564
  597POPC   C2B10892  26.603  18.188   8.264
  597POPC   C3B10893  26.579  18.131   7.964
  597POPC   C4B10894  26.647  18.095   7.664
  598POPC   NC310895  38.475  32.202   9.464
  598POPC   PO410896  38.492  32.232   9.164
  598POPC   GL110897  38.431  32.244   8.864
  598POPC   GL210898  38.521  32.309   8.864
  598POPC   C1A10899  38.474  32.207   8.564
  598POPC   D2A10900  38.421  32.280   8.264
  598POPC   C3A10901  38.474  32.278   7.964
  598POPC   C4A10902  38.467  32.218   7.664
  598POPC   C1B10903  38.553  32.433   8.564
  598POPC   C2B10904  38.604  32.442   8.264
  598POPC   C3B10905  38.570  32.520   7.964
  598POPC   C4B10906  38.586  32.454   7.664
  599POPC   NC310907   5.110   2.729   9.464
  599POPC   PO410908   5.126   2.799   9.164
  599POPC   GL110909   5.054   2.745   8.864
  599POPC   GL210910   5.163   2.756   8.864
  599POPC   C1A10911   5.064   2.766   8.564
  599POPC   D2A10912   5.091   2.718   8.264
  599POPC   C3A10913   5.066   2.747   7.964
  599POPC   C4A10914   5.132   2.782   7.664
  599POPC   C1B10915   5.375   2.676   8.564
  599POPC   C2B10916   5.366   2.667   8.264
  599POPC   C3B10917   5.310   2.662   7.964
  599POPC   C4B10918   5.342   2.655   7.664
  600POPC   NC310919  33.030  23.750   9.464
  600POPC   PO410920  32.998  23.681   9.164
  600POPC   GL110921  33.029  23.753   8.864
  600POPC   GL210922  32.975  23.858   8.864
  600POPC   C1A10923  33.073  23.669   8.564
  600POPC   D2A10924  33.017  23.716   8.264
  600POPC   C3A10925  33.005  23.726   7.964
  600POPC   C4A10926  33.021  23.706   7.664
  600POPC   C1B10927  33.022  23.916   8.564
  600POPC   C2B10928  32.951  23.974   8.264
  600POPC   C3B10929  32.949  23.992   7.964
  600POPC   C4B10930  32.994  23.938   7.664
  601POPC   NC310931   0.406  12.878   9.464
  601POPC   PO410932   0.449  12.890   9.164
  601POPC   GL110933   0.465  12.840   8.864
  601POPC   GL210934   0.420  12.697   8.864
  601POPC   C1A10935   0.464  12.854   8.564
  601POPC   D2A10936   0.484  12.835   8.264
  601POPC   C3A10937   0.421  12.849   7.964
  601POPC   C4A10938   0.431  12.878   7.664
  601POPC   C1B10939   0.407  12.632   8.564
  601POPC   C2B10940   0.408  12.560   8.264
  601POPC   C3B10941   0.384  12.597   7.964
  601POPC   C4B10942   0.437  12.560   7.664
  602POPC   NC310943  42.365  40.814   9.464
  602POPC   PO410944  42.356  40.795   9.164
  602POPC   GL110945  42.302  40.790   8.864
  602POPC   GL210946  42.183  40.758   8.864
  602POPC   C1A10947  42.361  40.809   8.564
  602POPC   D2A10948  42.346  40.766   8.264
  602POPC   C3A10949  42.365  40.774   7.964
  602POPC   C4A10950  42.300  40.790   7.664
  602POPC   C1B10951  42.060  40.644   8.564
  602POPC   C2B10952  42.087  40.646   8.264
  602POPC   C3B10953  42.067  40.689   7.964
  602POPC   C4B10954  42.113  40.688   7.664
  603POPC   NC310955  32.204   2.034   9.464
  603POPC   PO410956  32.240   2.033   9.164
  603POPC   GL110957  32.211   2.023   8.864
  603POPC   GL210958  32.358   1.883   8.864
  603POPC   C1A10959  32.210   1.984   8.564
  603POPC   D2A10960  32.239   1.996   8.264
  603POPC   C3A10961  32.211   2.034   7.964
  603POPC   C4A10962  32.274   2.028   7.664
  603POPC   C1B10963  32.439   1.768   8.564
  603POPC   C2B10964  32.461   1.831   8.264
  603POPC   C3B10965  32.478   1.770   7.964
  603POPC   C4B10966  32.443   1.776   7.664
  604POPC   NC310967  14.378  24.525   9.464
  604POPC   PO410968  14.380  24.504   9.164
  604POPC   GL110969  14.379  24.516   8.864
  604POPC   GL210970  14.457  24.359   8.864
  604POPC   C1A10971  14.429  24.472   8.564
  604POPC   D2A10972  14.397  24.498   8.264
  604POPC   C3A10973  14.375  24.537   7.964
  604POPC   C4A10974  14.387  24.467   7.664
  604POPC   C1B10975  14.480  24.251   8.564
  604POPC   C2B10976  14.406  24.215   8.264
  604POPC   C3B10977  14.424  24.241   7.964
  604POPC   C4B10978  14.501  24.233   7.664
  605POPC   NC310979  38.433  13.610   9.464
  605POPC   PO410980  38.500  13.605   9.164
  605POPC   GL110981  38.435  13.633   8.864
  605POPC   GL210982  38.358  13.608   8.864
  605POPC   C1A10983  38.430  13.626   8.564
  605POPC   D2A10984  38.503  13.629   8.264
  605POPC   C3A10985  38.428  13.597   7.964
  605POPC   C4A10986  38.499  13.663   7.664
  605POPC   C1B10987  38.180  13.569   8.564
  605POPC   C2B10988  38.169  13.590   8.264
  605POPC   C3B10989  38.175  13.603   7.964
  605POPC   C4B10990  38.176  13.596   7.664
  606POPC   NC310991  23.693  29.887   9.464
  606POPC   PO410992  23.708  29.948   9.164
  606POPC   GL110993  23.740  29.879   8.864
  606POPC   GL210994  23.628  29.998   8.864
  606POPC   C1A10995  23.725  29.892   8.564
  606POPC   D2A10996  23.717  29.935   8.264
  606POPC   C3A10997  23.721  29.953   7.964
  606POPC   C4A10998  23.715  29.927   7.664
  606POPC   C1B10999  23.475  29.963   8.564
  606POPC   C2B11000  23.439  29.998   8.264
  606POPC   C3B11001  23.440  29.995   7.964
  606POPC   C4B11002  23.497  30.049   7.664
  607POPC   NC311003  37.680  30.700   9.464
  607POPC   PO411004  37.679  30.728   9.164
  607POPC   GL111005  37.638  30.682   8.864
  607POPC   GL211006  37.520  30.698   8.864
  607POPC   C1A11007  37.678  30.737   8.564
  607POPC   D2A11008  37.645  30.739   8.264
  607POPC   C3A11009  37.658  30.682   7.964
  607POPC   C4A11010  37.641  30.730   7.664
  607POPC   C1B11011  37.471  30.666   8.564
  607POPC   C2B11012  37.460  30.637   8.264
  607POPC   C3B11013  37.400  30.636   7.964
  607POPC   C4B11014  37.399  30.684   7.664
  608POPC   NC311015  38.419   9.720   9.464
  608POPC   PO411016  38.447   9.784   9.164
  608POPC   GL111017  38.411   9.791   8.864
  608POPC   GL211018  38.568   9.704   8.864
  608POPC   C1A11019  38.420   9.773   8.564
  608POPC   D2A11020  38.455   9.793   8.264
  608POPC   C3A11021  38.409   9.701   7.964
  608POPC   C4A11022  38.448   9.718   7.664
  608POPC   C1B11023  38.600   9.560   8.564
  608POPC   C2B11024  38.635   9.592   8.264
  608POPC   C3B11025  38.631   9.551   7.964
  608POPC   C4B11026  38.606   9.538   7.664
  609POPC   NC311027  26.075  38.449   9.464
  609POPC   PO411028  26.029  38.466   9.164
  609POPC   GL111029  26.071  38.430   8.864
  609POPC   GL211030  26.102  38.579   8.864
  609POPC   C1A11031  26.015  38.442   8.564
  609POPC   D2A11032  26.070  38.456   8.264
  609POPC   C3A11033  26.091  38.495   7.964
  609POPC   C4A11034  26.020  38.420   7.664
  609POPC   C1B11035  26.148  38.649   8.564
  609POPC   C2B11036  26.135  38.705   8.264
  609POPC   C3B11037  26.052  38.715   7.964
  609POPC   C4B11038  26.072  38.714   7.664
  610POPC   NC311039   1.955  14.438   9.464
  610POPC   PO411040   1.947  14.428   9.164
  610POPC   GL111041   2.025  14.374   8.864
  610POPC   GL211042   2.079  14.305   8.864
  610POPC   C1A11043   1.979  14.418   8.564
  610POPC   D2A11044   1.942  14.432   8.264
  610POPC   C3A11045   1.944  14.433   7.964
  610POPC   C4A11046   2.003  14.375   7.664
  610POPC   C1B11047   2.186  14.256   8.564
  610POPC   C2B11048   2.250  14.309   8.264
  610POPC   C3B11049   2.246  14.335   7.964
  610POPC   C4B11050   2.263  14.296   7.664
  611POPC   NC311051  18.256  16.005   9.464
  611POPC   PO411052  18.244  15.926   9.164
  611POPC   GL111053  18.315  15.971   8.864
  611POPC   GL211054  18.187  15.921   8.864
  611POPC   C1A11055  18.245  15.941   8.564
  611POPC   D2A11056  18.255  15.947   8.264
  611POPC   C3A11057  18.282  15.976   7.964
  611POPC   C4A11058  18.265  15.995   7.664
  611POPC   C1B11059  18.022  15.904   8.564
  611POPC   C2B11060  17.998  15.880   8.264
  611POPC   C3B11061  18.006  15.895   7.964
  611POPC   C4B11062  18.082  15.890   7.664
  612POPC   NC311063  38.448   8.924   9.464
  612POPC   PO411064  38.494   9.017   9.164
  612POPC   GL111065  38.446   8.958   8.864
  612POPC   GL211066  38.323   9.013   8.864
  612POPC   C1A11067  38.496   9.015   8.564
  612POPC   D2A11068  38.423   8.983   8.264
  612POPC   C3A11069  38.479   9.007   7.964
  612POPC   C4A11070  38.467   8.939   7.664
  612POPC   C1B11071  38.193   9.092   8.564
  612POPC   C2B11072  38.207   9.080   8.264
  612POPC   C3B11073  38.237   9.112   7.964
  612POPC   C4B11074  38.211   9.105   7.664
  613POPC   NC311075  13.635  12.072   9.464
  613POPC   PO411076  13.617  12.072   9.164
  613POPC   GL111077  13.619  12.027   8.864
  613POPC   GL211078  13.534  12.157   8.864
  613POPC   C1A11079  13.650  12.059   8.564
  613POPC   D2A11080  13.597  12.122   8.264
  613POPC   C3A11081  13.615  12.028   7.964
  613POPC   C4A11082  13.655  12.027   7.664
  613POPC   C1B11083  13.461  12.310   8.564
  613POPC   C2B11084  13.501  12.267   8.264
  613POPC   C3B11085  13.480  12.242   7.964
  613POPC   C4B11086  13.481  12.238   7.664
  614POPC   NC311087   5.141  36.856   9.464
  614POPC   PO411088   5.044  36.947   9.164
  614POPC   GL111089   5.094  36.907   8.864
  614POPC   GL211090   5.227  36.951   8.864
  614POPC   C1A11091   5.046  36.886   8.564
  614POPC   D2A11092   5.133  36.912   8.264
  614POPC   C3A11093   5.092  36.952   7.964
  614POPC   C4A11094   5.082  36.870   7.664
  614POPC   C1B11095   5.327  36.992   8.564
  614POPC   C2B11096   5.320  37.068   8.264
  614POPC   C3B11097   5.273  36.978   7.964
  614POPC   C4B11098   5.346  36.985   7.664
  615POPC   NC311099   2.039  22.173   9.464
  615POPC   PO411100   2.023  22.184   9.164
  615POPC   GL111101   1.954  22.196   8.864
  615POPC   GL211102   1.965  22.246   8.864
  615POPC   C1A11103   1.944  22.174   8.564
  615POPC   D2A11104   2.036  22.155   8.264
  615POPC   C3A11105   1.989  22.126   7.964
  615POPC   C4A11106   1.986  22.132   7.664
  615POPC   C1B11107   1.869  22.397   8.564
  615POPC   C2B11108   1.886  22.424   8.264
  615POPC   C3B11109   1.844  22.376   7.964
  615POPC   C4B11110   1.864  22.379   7.664
  616POPC   NC311111  11.272   2.793   9.464
  616POPC   PO411112  11.315   2.727   9.164
  616POPC   GL111113  11.283   2.753   8.864
  616POPC   GL211114  11.280   2.932   8.864
  616POPC   C1A11115  11.261   2.757   8.564
  616POPC   D2A11116  11.336   2.754   8.264
  616POPC   C3A11117  11.325   2.770   7.964
  616POPC   C4A11118  11.335   2.731   7.664
  616POPC   C1B11119  11.231   3.008   8.564
  616POPC   C2B11120  11.241   2.988   8.264
  616POPC   C3B11121  11.254   2.971   7.964
  616POPC   C4B11122  11.234   2.992   7.664
  617POPC   NC311123  41.527   8.952   9.464
  617POPC   PO411124  41.599   9.014   9.164
  617POPC   GL111125  41.577   8.986   8.864
  617POPC   GL211126  41.392   9.013   8.864
  617POPC   C1A11127  41.518   8.959   8.564
  617POPC   D2A11128  41.588   9.016   8.264
  617POPC   C3A11129  41.545   8.971   7.964
  617POPC   C4A11130  41.571   8.928   7.664
  617POPC   C1B11131  41.292   8.997   8.564
  617POPC   C2B11132  41.279   8.974   8.264
  617POPC   C3B11133  41.352   8.988   7.964
  617POPC   C4B11134  41.287   8.954   7.664
  618POPC   NC311135  11.347  31.458   9.464
  618POPC   PO411136  11.343  31.519   9.164
  618POPC   GL111137  11.271  31.450   8.864
  618POPC   GL211138  11.438  31.367   8.864
  618POPC   C1A11139  11.316  31.453   8.564
  618POPC   D2A11140  11.343  31.489   8.264
  618POPC   C3A11141  11.320  31.461   7.964
  618POPC   C4A11142  11.326  31.438   7.664
  618POPC   C1B11143  11.486  31.357   8.564
  618POPC   C2B11144  11.511  31.345   8.264
  618POPC   C3B11145  11.471  31.350   7.964
  618POPC   C4B11146  11.519  31.321   7.664
  619POPC   NC311147   9.723  36.939   9.464
  619POPC   PO411148   9.772  36.911   9.164
  619POPC   GL111149   9.751  36.909   8.864
  619POPC   GL211150   9.840  37.009   8.864
  619POPC   C1A11151   9.707  36.920   8.564
  619POPC   D2A11152   9.701  36.856   8.264
  619POPC   C3A11153   9.794  36.929   7.964
  619POPC   C4A11154   9.797  36.855   7.664
  619POPC   C1B11155   9.908  37.083   8.564
  619POPC   C2B11156   9.869  37.106   8.264
  619POPC   C3B11157   9.841  37.119   7.964
  619POPC   C4B11158   9.899  37.098   7.664
  620POPC   NC311159  33.789  15.159   9.464
  620POPC   PO411160  33.835  15.179   9.164
  620POPC   GL111161  33.794  15.150   8.864
  620POPC   GL211162  33.626  15.170   8.864
  620POPC   C1A11163  33.805  15.190   8.564
  620POPC   D2A11164  33.816  15.227   8.264
  620POPC   C3A11165  33.831  15.153   7.964
  620POPC   C4A11166  33.849  15.174   7.664
  620POPC   C1B11167  33.533  15.179   8.564
  620POPC   C2B11168  33.555  15.178   8.264
  620POPC   C3B11169  33.505  15.214   7.964
  620POPC   C4B11170  33.595  15.176   7.664
  621POPC   NC311171  22.967  16.760   9.464
  621POPC   PO411172  22.929  16.771   9.164
  621POPC   GL111173  22.894  16.759   8.864
  621POPC   GL211174  22.893  16.630   8.864
  621POPC   C1A11175  22.980  16.740   8.564
  621POPC   D2A11176  22.901  16.685   8.264
  621POPC   C3A11177  22.923  16.693   7.964
  621POPC   C4A11178  22.952  16.719   7.664
  621POPC   C1B11179  22.795  16.540   8.564
  621POPC   C2B11180  22.784  16.536   8.264
  621POPC   C3B11181  22.743  16.593   7.964
  621POPC   C4B11182  22.754  16.527   7.664
  622POPC   NC311183  22.984  33.771   9.464
  622POPC   PO411184  22.978  33.779   9.164
  622POPC   GL111185  22.982  33.767   8.864
  622POPC   GL211186  22.916  33.884   8.864
  622POPC   C1A11187  22.939  33.774   8.564
  622POPC   D2A11188  22.889  33.834   8.264
  622POPC   C3A11189  22.937  33.830   7.964
  622POPC   C4A11190  22.906  33.785   7.664
  622POPC   C1B11191  22.909  34.059   8.564
  622POPC   C2B11192  22.911  34.018   8.264
  622POPC   C3B11193  22.878  34.059   7.964
  622POPC   C4B11194  22.915  34.095   7.664
  623POPC   NC311195  24.494  19.861   9.464
  623POPC   PO411196  24.485  19.797   9.164
  623POPC   GL111197  24.467  19.841   8.864
  623POPC   GL211198  24.583  19.799   8.864
  623POPC   C1A11199  24.486  19.814   8.564
  623POPC   D2A11200  24.488  19.868   8.264
  623POPC   C3A11201  24.444  19.876   7.964
  623POPC   C4A11202  24.458  19.814   7.664
  623POPC   C1B11203  24.650  19.626   8.564
  623POPC   C2B11204  24.667  19.660   8.264
  623POPC   C3B11205  24.726  19.695   7.964
  623POPC   C4B11206  24.702  19.650   7.664
  624POPC   NC311207  31.460  43.889   9.464
  624POPC   PO411208  31.498  43.893   9.164
  624POPC   GL111209  31.469  43.842   8.864
  624POPC   GL211210  31.409  44.007   8.864
  624POPC   C1A11211  31.448  43.907   8.564
  624POPC   D2A11212  31.487  43.884   8.264
  624POPC   C3A11213  31.478  43.895   7.964
  624POPC   C4A11214  31.457  43.875   7.664
  624POPC   C1B11215  31.399  44.083   8.564
  624POPC   C2B11216  31.430  44.077   8.264
  624POPC   C3B11217  31.362  44.080   7.964
  624POPC   C4B11218  31.362  44.170   7.664
  625POPC   NC311219  43.106  10.506   9.464
  625POPC   PO411220  43.146  10.519   9.164
  625POPC   GL111221  43.074  10.554   8.864
  625POPC   GL211222  42.962  10.501   8.864
  625POPC   C1A11223  43.125  10.557   8.564
  625POPC   D2A11224  43.095  10.515   8.264
  625POPC   C3A11225  43.082  10.569   7.964
  625POPC   C4A11226  43.081  10.499   7.664
  625POPC   C1B11227  42.861  10.491   8.564
  625POPC   C2B11228  42.901  10.415   8.264
  625POPC   C3B11229  42.862  10.468   7.964
  625POPC   C4B11230  42.912  10.427   7.664
  626POPC   NC311231   1.187   4.291   9.464
  626POPC   PO411232   1.193   4.357   9.164
  626POPC   GL111233   1.197   4.358   8.864
  626POPC   GL211234   1.098   4.391   8.864
  626POPC   C1A11235   1.172   4.312   8.564
  626POPC   D2A11236   1.225   4.331   8.264
  626POPC   C3A11237   1.256   4.294   7.964
  626POPC   C4A11238   1.198   4.361   7.664
  626POPC   C1B11239   0.959   4.434   8.564
  626POPC   C2B11240   1.002   4.449   8.264
  626POPC   C3B11241   0.968   4.388   7.964
  626POPC   C4B11242   1.025   4.412   7.664
  627POPC   NC311243   3.534  26.842   9.464
  627POPC   PO411244   3.529  26.857   9.164
  627POPC   GL111245   3.564  26.788   8.864
  627POPC   GL211246   3.492  26.768   8.864
  627POPC   C1A11247   3.565  26.797   8.564
  627POPC   D2A11248   3.565  26.836   8.264
  627POPC   C3A11249   3.509  26.801   7.964
  627POPC   C4A11250   3.537  26.845   7.664
  627POPC   C1B11251   3.334  26.587   8.564
  627POPC   C2B11252   3.347  26.620   8.264
  627POPC   C3B11253   3.416  26.618   7.964
  627POPC   C4B11254   3.432  26.594   7.664
  628POPC   NC311255   1.248   2.765   9.464
  628POPC   PO411256   1.172   2.734   9.164
  628POPC   GL111257   1.247   2.798   8.864
  628POPC   GL211258   1.343   2.758   8.864
  628POPC   C1A11259   1.230   2.794   8.564
  628POPC   D2A11260   1.210   2.744   8.264
  628POPC   C3A11261   1.180   2.763   7.964
  628POPC   C4A11262   1.187   2.757   7.664
  628POPC   C1B11263   1.455   2.686   8.564
  628POPC   C2B11264   1.442   2.731   8.264
  628POPC   C3B11265   1.457   2.747   7.964
  628POPC   C4B11266   1.496   2.698   7.664
  629POPC   NC311267  31.451  15.938   9.464
  629POPC   PO411268  31.475  16.003   9.164
  629POPC   GL111269  31.436  15.964   8.864
  629POPC   GL211270  31.375  15.889   8.864
  629POPC   C1A11271  31.463  15.996   8.564
  629POPC   D2A11272  31.458  15.924   8.264
  629POPC   C3A11273  31.501  15.964   7.964
  629POPC   C4A11274  31.463  15.931   7.664
  629POPC   C1B11275  31.263  15.844   8.564
  629POPC   C2B11276  31.216  15.883   8.264
  629POPC   C3B11277  31.261  15.812   7.964
  629POPC   C4B11278  31.232  15.862   7.664
  630POPC   NC311279  14.443   5.855   9.464
  630POPC   PO411280  14.450   5.916   9.164
  630POPC   GL111281  14.448   5.891   8.864
  630POPC   GL211282  14.374   6.002   8.864
  630POPC   C1A11283  14.372   5.863   8.564
  630POPC   D2A11284  14.440   5.844   8.264
  630POPC   C3A11285  14.394   5.876   7.964
  630POPC   C4A11286  14.413   5.892   7.664
  630POPC   C1B11287  14.330   6.111   8.564
  630POPC   C2B11288  14.272   6.117   8.264
  630POPC   C3B11289  14.343   6.141   7.964
  630POPC   C4B11290  14.299   6.104   7.664
  631POPC   NC311291  22.185  43.891   9.464
  631POPC   PO411292  22.140  43.855   9.164
  631POPC   GL111293  22.128  43.846   8.864
  631POPC   GL211294  22.168  43.994   8.864
  631POPC   C1A11295  22.139  43.903   8.564
  631POPC   D2A11296  22.203  43.892   8.264
  631POPC   C3A11297  22.203  43.888   7.964
  631POPC   C4A11298  22.146  43.888   7.664
  631POPC   C1B11299  22.242  44.158   8.564
  631POPC   C2B11300  22.276  44.123   8.264
  631POPC   C3B11301  22.212  44.124   7.964
  631POPC   C4B11302  22.239  44.135   7.664
  632POPC   NC311303   2.787  29.917   9.464
  632POPC   PO411304   2.729  29.889   9.164
  632POPC   GL111305   2.756  29.876   8.864
  632POPC   GL211306   2.817  29.971   8.864
  632POPC   C1A11307   2.720  29.892   8.564
  632POPC   D2A11308   2.726  29.938   8.264
  632POPC   C3A11309   2.755  29.874   7.964
  632POPC   C4A11310   2.785  29.908   7.664
  632POPC   C1B11311   2.907  30.094   8.564
  632POPC   C2B11312   2.943  30.049   8.264
  632POPC   C3B11313   2.946  30.124   7.964
  632POPC   C4B11314   2.938  30.075   7.664
  633POPC   NC311315  15.921   5.859   9.464
  633POPC   PO411316  15.923   5.896   9.164
  633POPC   GL111317  15.963   5.822   8.864
  633POPC   GL211318  16.104   5.871   8.864
  633POPC   C1A11319  15.967   5.915   8.564
  633POPC   D2A11320  15.907   5.855   8.264
  633POPC   C3A11321  15.934   5.915   7.964
  633POPC   C4A11322  15.928   5.840   7.664
  633POPC   C1B11323  16.181   5.905   8.564
  633POPC   C2B11324  16.237   5.878   8.264
  633POPC   C3B11325  16.180   5.846   7.964
  633POPC   C4B11326  16.242   5.906   7.664
  634POPC   NC311327  17.491  11.271   9.464
  634POPC   PO411328  17.556  11.338   9.164
  634POPC   GL111329  17.468  11.331   8.864
  634POPC   GL211330  17.415  11.334   8.864
  634POPC   C1A11331  17.517  11.349   8.564
  634POPC   D2A11332  17.518  11.264   8.264
  634POPC   C3A11333  17.514  11.263   7.964
  634POPC   C4A11334  17.545  11.310   7.664
  634POPC   C1B11335  17.236  11.287   8.564
  634POPC   C2B11336  17.231  11.296   8.264
  634POPC   C3B11337  17.298  11.261   7.964
  634POPC   C4B11338  17.307  11.286   7.664
  635POPC   NC311339  36.950  39.270   9.464
  635POPC   PO411340  36.858  39.212   9.164
  635POPC   GL111341  36.943  39.191   8.864
  635POPC   GL211342  36.979  39.171   8.864
  635POPC   C1A11343  36.869  39.250   8.564
  635POPC   D2A11344  36.915  39.190   8.264
  635POPC   C3A11345  36.902  39.198   7.964
  635POPC   C4A11346  36.940  39.232   7.664
  635POPC   C1B11347  37.065  38.993   8.564
  635POPC   C2B11348  37.022  39.053   8.264
  635POPC   C3B11349  37.069  39.079   7.964
  635POPC   C4B11350  37.050  39.037   7.664
  636POPC   NC311351  38.446  23.671   9.464
  636POPC   PO411352  38.463  23.697   9.164
  636POPC   GL111353  38.462  23.748   8.864
  636POPC   GL211354  38.384  23.807   8.864
  636POPC   C1A11355  38.496  23.732   8.564
  636POPC   D2A11356  38.460  23.702   8.264
  636POPC   C3A11357  38.492  23.736   7.964
  636POPC   C4A11358  38.448  23.680   7.664
  636POPC   C1B11359  38.375  23.993   8.564
  636POPC   C2B11360  38.360  23.969   8.264
  636POPC   C3B11361  38.394  23.993   7.964
  636POPC   C4B11362  38.332  23.961   7.664
  637POPC   NC311363   2.773  12.879   9.464
  637POPC   PO411364   2.754  12.866   9.164
  637POPC   GL111365   2.751  12.898   8.864
  637POPC   GL211366   2.862  12.843   8.864
  637POPC   C1A11367   2.735  12.830   8.564
  637POPC   D2A11368   2.801  12.893   8.264
  637POPC   C3A11369   2.735  12.897   7.964
  637POPC   C4A11370   2.800  12.886   7.664
  637POPC   C1B11371   3.019  12.771   8.564
  637POPC   C2B11372   3.034  12.767   8.264
  637POPC   C3B11373   3.028  12.764   7.964
  637POPC   C4B11374   2.994  12.727   7.664
  638POPC   NC311375   6.691   8.206   9.464
  638POPC   PO411376   6.621   8.151   9.164
  638POPC   GL111377   6.686   8.227   8.864
  638POPC   GL211378   6.738   8.145   8.864
  638POPC   C1A11379   6.657   8.189   8.564
  638POPC   D2A11380   6.607   8.169   8.264
  638POPC   C3A11381   6.654   8.192   7.964
  638POPC   C4A11382   6.597   8.192   7.664
  638POPC   C1B11383   6.845   8.081   8.564
  638POPC   C2B11384   6.840   8.135   8.264
  638POPC   C3B11385   6.906   8.062   7.964
  638POPC   C4B11386   6.912   8.052   7.664
  639POPC   NC311387  20.562  27.568   9.464
  639POPC   PO411388  20.574  27.620   9.164
  639POPC   GL111389  20.585  27.565   8.864
  639POPC   GL211390  20.563  27.425   8.864
  639POPC   C1A11391  20.624  27.592   8.564
  639POPC   D2A11392  20.588  27.583   8.264
  639POPC   C3A11393  20.595  27.610   7.964
  639POPC   C4A11394  20.575  27.571   7.664
  639POPC   C1B11395  20.534  27.337   8.564
  639POPC   C2B11396  20.553  27.395   8.264
  639POPC   C3B11397  20.501  27.403   7.964
  639POPC   C4B11398  20.563  27.327   7.664
  640POPC   NC311399   5.889  25.285   9.464
  640POPC   PO411400   5.908  25.236   9.164
  640POPC   GL111401   5.909  25.301   8.864
  640POPC   GL211402   5.793  25.338   8.864
  640POPC   C1A11403   5.906  25.296   8.564
  640POPC   D2A11404   5.889  25.284   8.264
  640POPC   C3A11405   5.837  25.273   7.964
  640POPC   C4A11406   5.886  25.220   7.664
  640POPC   C1B11407   5.714  25.476   8.564
  640POPC   C2B11408   5.680  25.472   8.264
  640POPC   C3B11409   5.704  25.489   7.964
  640POPC   C4B11410   5.651  25.455   7.664
  641POPC   NC311411   9.719   1.186   9.464
  641POPC   PO411412   9.798   1.202   9.164
  641POPC   GL111413   9.788   1.172   8.864
  641POPC   GL211414   9.705   1.108   8.864
  641POPC   C1A11415   9.794   1.253   8.564
  641POPC   D2A11416   9.715   1.218   8.264
  641POPC   C3A11417   9.718   1.187   7.964
  641POPC   C4A11418   9.781   1.215   7.664
  641POPC   C1B11419   9.714   0.924   8.564
  641POPC   C2B11420   9.794   0.984   8.264
  641POPC   C3B11421   9.718   0.988   7.964
  641POPC   C4B11422   9.769   1.009   7.664
  642POPC   NC311423  23.722  38.479   9.464
  642POPC   PO411424  23.722  38.444   9.164
  642POPC   GL111425  23.671  38.468   8.864
  642POPC   GL211426  23.590  38.420   8.864
  642POPC   C1A11427  23.691  38.432   8.564
  642POPC   D2A11428  23.731  38.455   8.264
  642POPC   C3A11429  23.670  38.492   7.964
  642POPC   C4A11430  23.667  38.481   7.664
  642POPC   C1B11431  23.489  38.455   8.564
  642POPC   C2B11432  23.424  38.444   8.264
  642POPC   C3B11433  23.505  38.420   7.964
  642POPC   C4B11434  23.431  38.421   7.664
  643POPC   NC311435  19.852  24.474   9.464
  643POPC   PO411436  19.814  24.451   9.164
  643POPC   GL111437  19.803  24.519   8.864
  643POPC   GL211438  19.771  24.353   8.864
  643POPC   C1A11439  19.803  24.458   8.564
  643POPC   D2A11440  19.824  24.445   8.264
  643POPC   C3A11441  19.847  24.482   7.964
  643POPC   C4A11442  19.793  24.490   7.664
  643POPC   C1B11443  19.761  24.246   8.564
  643POPC   C2B11444  19.778  24.233   8.264
  643POPC   C3B11445  19.819  24.197   7.964
  643POPC   C4B11446  19.842  24.290   7.664
  644POPC   NC311447  22.960   5.058   9.464
  644POPC   PO411448  22.976   5.100   9.164
  644POPC   GL111449  22.963   5.142   8.864
  644POPC   GL211450  22.922   5.020   8.864
  644POPC   C1A11451  22.914   5.067   8.564
  644POPC   D2A11452  22.947   5.141   8.264
  644POPC   C3A11453  22.916   5.112   7.964
  644POPC   C4A11454  22.919   5.136   7.664
  644POPC   C1B11455  22.854   4.896   8.564
  644POPC   C2B11456  22.795   4.886   8.264
  644POPC   C3B11457  22.844   4.871   7.964
  644POPC   C4B11458  22.849   4.904   7.664
  645POPC   NC311459  43.076  36.898   9.464
  645POPC   PO411460  43.060  36.951   9.164
  645POPC   GL111461  43.155  36.939   8.864
  645POPC   GL211462  43.011  36.794   8.864
  645POPC   C1A11463  43.158  36.871   8.564
  645POPC   D2A11464  43.126  36.879   8.264
  645POPC   C3A11465  43.074  36.901   7.964
  645POPC   C4A11466  43.118  36.888   7.664
  645POPC   C1B11467  42.900  36.727   8.564
  645POPC   C2B11468  42.890  36.736   8.264
  645POPC   C3B11469  42.888  36.789   7.964
  645POPC   C4B11470  42.891  36.758   7.664
  646POPC   NC311471  26.063  35.360   9.464
  646POPC   PO411472  26.073  35.351   9.164
  646POPC   GL111473  26.023  35.315   8.864
  646POPC   GL211474  26.103  35.481   8.864
  646POPC   C1A11475  26.006  35.340   8.564
  646POPC   D2A11476  26.077  35.378   8.264
  646POPC   C3A11477  26.088  35.380   7.964
  646POPC   C4A11478  26.070  35.378   7.664
  646POPC   C1B11479  26.100  35.606   8.564
  646POPC   C2B11480  26.136  35.601   8.264
  646POPC   C3B11481  26.156  35.581   7.964
  646POPC   C4B11482  26.129  35.537   7.664
  647POPC   NC311483   4.297  12.897   9.464
  647POPC   PO411484   4.299  12.881   9.164
  647POPC   GL111485   4.293  12.886   8.864
  647POPC   GL211486   4.197  12.843   8.864
  647POPC   C1A11487   4.290  12.864   8.564
  647POPC   D2A11488   4.337  12.898   8.264
  647POPC   C3A11489   4.276  12.825   7.964
  647POPC   C4A11490   4.270  12.830   7.664
  647POPC   C1B11491   4.120  12.818   8.564
  647POPC   C2B11492   4.100  12.743   8.264
  647POPC   C3B11493   4.026  12.811   7.964
  647POPC   C4B11494   4.075  12.735   7.664
  648POPC   NC311495  17.479   8.168   9.464
  648POPC   PO411496  17.469   8.188   9.164
  648POPC   GL111497  17.462   8.208   8.864
  648POPC   GL211498  17.428   8.097   8.864
  648POPC   C1A11499  17.514   8.149   8.564
  648POPC   D2A11500  17.533   8.228   8.264
  648POPC   C3A11501  17.470   8.163   7.964
  648POPC   C4A11502  17.543   8.157   7.664
  648POPC   C1B11503  17.304   8.046   8.564
  648POPC   C2B11504  17.326   8.029   8.264
  648POPC   C3B11505  17.336   8.036   7.964
  648POPC   C4B11506  17.309   8.028   7.664
  649POPC   NC311507  23.720  19.874   9.464
  649POPC   PO411508  23.725  19.790   9.164
  649POPC   GL111509  23.724  19.839   8.864
  649POPC   GL211510  23.696  19.708   8.864
  649POPC   C1A11511  23.750  19.815   8.564
  649POPC   D2A11512  23.743  19.799   8.264
  649POPC   C3A11513  23.715  19.808   7.964
  649POPC   C4A11514  23.764  19.808   7.664
  649POPC   C1B11515  23.644  19.563   8.564
  649POPC   C2B11516  23.720  19.634   8.264
  649POPC   C3B11517  23.661  19.569   7.964
  649POPC   C4B11518  23.673  19.620   7.664
  650POPC   NC311519  42.338   6.657   9.464
  650POPC   PO411520  42.356   6.693   9.164
  650POPC   GL111521  42.353   6.686   8.864
  650POPC   GL211522  42.347   6.557   8.864
  650POPC   C1A11523  42.372   6.622   8.564
  650POPC   D2A11524  42.306   6.678   8.264
  650POPC   C3A11525  42.345   6.652   7.964
  650POPC   C4A11526  42.368   6.679   7.664
  650POPC   C1B11527  42.295   6.352   8.564
  650POPC   C2B11528  42.300   6.446   8.264
  650POPC   C3B11529  42.306   6.395   7.964
  650POPC   C4B11530  42.268   6.409   7.664
  651POPC   NC311531  12.066  15.919   9.464
  651POPC   PO411532  12.038  15.985   9.164
  651POPC   GL111533  12.117  15.948   8.864
  651POPC   GL211534  12.132  15.837   8.864
  651POPC   C1A11535  12.106  15.940   8.564
  651POPC   D2A11536  12.103  15.927   8.264
  651POPC   C3A11537  12.092  15.910   7.964
  651POPC   C4A11538  12.099  15.962   7.664
  651POPC   C1B11539  12.077  15.731   8.564
  651POPC   C2B11540  12.136  15.708   8.264
  651POPC   C3B11541  12.064  15.721   7.964
  651POPC   C4B11542  12.054  15.674   7.664
  652POPC   NC311543  11.316  27.591   9.464
  652POPC   PO411544  11.251  27.626   9.164
  652POPC   GL111545  11.282  27.638   8.864
  652POPC   GL211546  11.378  27.627   8.864
  652POPC   C1A11547  11.288  27.601   8.564
  652POPC   D2A11548  11.320  27.590   8.264
  652POPC   C3A11549  11.332  27.630   7.964
  652POPC   C4A11550  11.329  27.585   7.664
  652POPC   C1B11551  11.511  27.625   8.564
  652POPC   C2B11552  11.557  27.657   8.264
  652POPC   C3B11553  11.552  27.615   7.964
  652POPC   C4B11554  11.587  27.689   7.664
  653POPC   NC311555  43.087  23.720   9.464
  653POPC   PO411556  43.093  23.665   9.164
  653POPC   GL111557  43.128  23.743   8.864
  653POPC   GL211558  43.242  23.716   8.864
  653POPC   C1A11559  43.154  23.687   8.564
  653POPC   D2A11560  43.077  23.753   8.264
  653POPC   C3A11561  43.087  23.709   7.964
  653POPC   C4A11562  43.079  23.696   7.664
  653POPC   C1B11563  43.387  23.808   8.564
  653POPC   C2B11564  43.366  23.737   8.264
  653POPC   C3B11565  43.308  23.748   7.964
  653POPC   C4B11566  43.333  23.724   7.664
  654POPC   NC311567   3.517  37.699   9.464
  654POPC   PO411568   3.533  37.694   9.164
  654POPC   GL111569   3.588  37.701   8.864
  654POPC   GL211570   3.615  37.648   8.864
  654POPC   C1A11571   3.558  37.691   8.564
  654POPC   D2A11572   3.582  37.690   8.264
  654POPC   C3A11573   3.541  37.700   7.964
  654POPC   C4A11574   3.507  37.639   7.664
  654POPC   C1B11575   3.807  37.663   8.564
  654POPC   C2B11576   3.764  37.613   8.264
  654POPC   C3B11577   3.785  37.630   7.964
  654POPC   C4B11578   3.755  37.597   7.664
  655POPC   NC311579  40.777   8.968   9.464
  655POPC   PO411580  40.733   8.963   9.164
  655POPC   GL111581  40.804   9.008   8.864
  655POPC   GL211582  40.845   9.069   8.864
  655POPC   C1A11583  40.818   8.956   8.564
  655POPC   D2A11584  40.831   8.975   8.264
  655POPC   C3A11585  40.761   8.947   7.964
  655POPC   C4A11586  40.744   8.932   7.664
  655POPC   C1B11587  40.933   9.094   8.564
  655POPC   C2B11588  40.978   9.181   8.264
  655POPC   C3B11589  40.964   9.112   7.964
  655POPC   C4B11590  40.988   9.116   7.664
  656POPC   NC311591   8.180  12.081   9.464
  656POPC   PO411592   8.231  12.048   9.164
  656POPC   GL111593   8.196  12.069   8.864
  656POPC   GL211594   8.048  12.112   8.864
  656POPC   C1A11595   8.176  12.100   8.564
  656POPC   D2A11596   8.190  12.058   8.264
  656POPC   C3A11597   8.169  12.126   7.964
  656POPC   C4A11598   8.169  12.095   7.664
  656POPC   C1B11599   8.008  12.120   8.564
  656POPC   C2B11600   7.964  12.186   8.264
  656POPC   C3B11601   7.992  12.115   7.964
  656POPC   C4B11602   7.977  12.156   7.664
  657POPC   NC311603  19.809   1.240   9.464
  657POPC   PO411604  19.829   1.190   9.164
  657POPC   GL111605  19.808   1.249   8.864
  657POPC   GL211606  19.813   1.289   8.864
  657POPC   C1A11607  19.861   1.165   8.564
  657POPC   D2A11608  19.817   1.211   8.264
  657POPC   C3A11609  19.816   1.185   7.964
  657POPC   C4A11610  19.847   1.255   7.664
  657POPC   C1B11611  19.753   1.493   8.564
  657POPC   C2B11612  19.747   1.483   8.264
  657POPC   C3B11613  19.759   1.494   7.964
  657POPC   C4B11614  19.732   1.471   7.664
  658POPC   NC311615  44.695   5.129   9.464
  658POPC   PO411616  44.639   5.132   9.164
  658POPC   GL111617  44.693   5.137   8.864
  658POPC   GL211618  44.729   5.201   8.864
  658POPC   C1A11619  44.704   5.135   8.564
  658POPC   D2A11620  44.656   5.076   8.264
  658POPC   C3A11621  44.629   5.100   7.964
  658POPC   C4A11622  44.615   5.075   7.664
  658POPC   C1B11623  44.835   5.218   8.564
  658POPC   C2B11624  44.806   5.241   8.264
  658POPC   C3B11625  44.830   5.221   7.964
  658POPC   C4B11626  44.868   5.254   7.664
  659POPC   NC311627  10.540   0.444   9.464
  659POPC   PO411628  10.539   0.455   9.164
  659POPC   GL111629  10.541   0.485   8.864
  659POPC   GL211630  10.387   0.519   8.864
  659POPC   C1A11631  10.560   0.444   8.564
  659POPC   D2A11632  10.512   0.447   8.264
  659POPC   C3A11633  10.569   0.410   7.964
  659POPC   C4A11634  10.498   0.448   7.664
  659POPC   C1B11635  10.259   0.527   8.564
  659POPC   C2B11636  10.338   0.517   8.264
  659POPC   C3B11637  10.340   0.581   7.964
  659POPC   C4B11638  10.266   0.539   7.664
  660POPC   NC311639   5.891  15.935   9.464
  660POPC   PO411640   5.911  15.979   9.164
  660POPC   GL111641   5.914  15.965   8.864
  660POPC   GL211642   5.849  15.810   8.864
  660POPC   C1A11643   5.879  15.931   8.564
  660POPC   D2A11644   5.885  15.941   8.264
  660POPC   C3A11645   5.858  15.974   7.964
  660POPC   C4A11646   5.867  15.915   7.664
  660POPC   C1B11647   5.806  15.739   8.564
  660POPC   C2B11648   5.796  15.695   8.264
  660POPC   C3B11649   5.745  15.704   7.964
  660POPC   C4B11650   5.769  15.707   7.664
  661POPC   NC311651   9.020  28.402   9.464
  661POPC   PO411652   8.977  28.381   9.164
  661POPC   GL111653   9.005  28.324   8.864
  661POPC   GL211654   8.831  28.320   8.864
  661POPC   C1A11655   8.940  28.346   8.564
  661POPC   D2A11656   8.960  28.362   8.264
  661POPC   C3A11657   8.934  28.375   7.964
  661POPC   C4A11658   8.944  28.381   7.664
  661POPC   C1B11659   8.789  28.208   8.564
  661POPC   C2B11660   8.731  28.251   8.264
  661POPC   C3B11661   8.762  28.211   7.964
  661POPC   C4B11662   8.765  28.246   7.664
  662POPC   NC311663  26.059   2.758   9.464
  662POPC   PO411664  26.035   2.723   9.164
  662POPC   GL111665  26.022   2.757   8.864
  662POPC   GL211666  25.948   2.831   8.864
  662POPC   C1A11667  25.997   2.761   8.564
  662POPC   D2A11668  26.077   2.748   8.264
  662POPC   C3A11669  26.047   2.759   7.964
  662POPC   C4A11670  26.070   2.748   7.664
  662POPC   C1B11671  25.824   2.961   8.564
  662POPC   C2B11672  25.884   2.885   8.264
  662POPC   C3B11673  25.856   2.951   7.964
  662POPC   C4B11674  25.883   2.955   7.664
  663POPC   NC311675  39.274  33.016   9.464
  663POPC   PO411676  39.184  33.015   9.164
  663POPC   GL111677  39.241  33.068   8.864
  663POPC   GL211678  39.145  33.034   8.864
  663POPC   C1A11679  39.278  33.061   8.564
  663POPC   D2A11680  39.228  33.066   8.264
  663POPC   C3A11681  39.245  32.995   7.964
  663POPC   C4A11682  39.235  33.004   7.664
  663POPC   C1B11683  38.978  33.003   8.564
  663POPC   C2B11684  38.986  32.980   8.264
  663POPC   C3B11685  38.948  32.989   7.964
  663POPC   C4B11686  38.970  32.990   7.664
  664POPC   NC311687  41.519   9.707   9.464
  664POPC   PO411688  41.591   9.707   9.164
  664POPC   GL111689  41.609   9.722   8.864
  664POPC   GL211690  41.561   9.912   8.864
  664POPC   C1A11691  41.591   9.747   8.564
  664POPC   D2A11692  41.598   9.778   8.264
  664POPC   C3A11693  41.581   9.774   7.964
  664POPC   C4A11694  41.575   9.722   7.664
  664POPC   C1B11695  41.570   9.990   8.564
  664POPC   C2B11696  41.520  10.046   8.264
  664POPC   C3B11697  41.514   9.968   7.964
  664POPC   C4B11698  41.519   9.978   7.664
  665POPC   NC311699  37.637  35.364   9.464
  665POPC   PO411700  37.632  35.309   9.164
  665POPC   GL111701  37.632  35.341   8.864
  665POPC   GL211702  37.746  35.287   8.864
  665POPC   C1A11703  37.718  35.312   8.564
  665POPC   D2A11704  37.635  35.357   8.264
  665POPC   C3A11705  37.649  35.351   7.964
  665POPC   C4A11706  37.683  35.391   7.664
  665POPC   C1B11707  37.841  35.185   8.564
  665POPC   C2B11708  37.888  35.204   8.264
  665POPC   C3B11709  37.841  35.217   7.964
  665POPC   C4B11710  37.902  35.148   7.664
  666POPC   NC311711  23.693   5.828   9.464
  666POPC   PO411712  23.713   5.900   9.164
  666POPC   GL111713  23.763   5.913   8.864
  666POPC   GL211714  23.805   5.992   8.864
  666POPC   C1A11715  23.714   5.842   8.564
  666POPC   D2A11716  23.744   5.872   8.264
  666POPC   C3A11717  23.673   5.859   7.964
  666POPC   C4A11718  23.735   5.880   7.664
  666POPC   C1B11719  23.886   6.045   8.564
  666POPC   C2B11720  23.904   5.985   8.264
  666POPC   C3B11721  23.915   6.036   7.964
  666POPC   C4B11722  23.869   6.041   7.664
  667POPC   NC311723  27.608  19.061   9.464
  667POPC   PO411724  27.592  19.085   9.164
  667POPC   GL111725  27.554  19.071   8.864
  667POPC   GL211726  27.630  19.199   8.864
  667POPC   C1A11727  27.610  19.064   8.564
  667POPC   D2A11728  27.612  19.018   8.264
  667POPC   C3A11729  27.574  19.108   7.964
  667POPC   C4A11730  27.604  19.049   7.664
  667POPC   C1B11731  27.716  19.215   8.564
  667POPC   C2B11732  27.763  19.294   8.264
  667POPC   C3B11733  27.720  19.266   7.964
  667POPC   C4B11734  27.741  19.285   7.664
  668POPC   NC311735  40.039   1.240   9.464
  668POPC   PO411736  39.973   1.242   9.164
  668POPC   GL111737  40.035   1.244   8.864
  668POPC   GL211738  40.151   1.217   8.864
  668POPC   C1A11739  40.002   1.264   8.564
  668POPC   D2A11740  40.036   1.229   8.264
  668POPC   C3A11741  39.976   1.216   7.964
  668POPC   C4A11742  39.980   1.176   7.664
  668POPC   C1B11743  40.253   1.258   8.564
  668POPC   C2B11744  40.297   1.286   8.264
  668POPC   C3B11745  40.279   1.302   7.964
  668POPC   C4B11746  40.269   1.233   7.664
  669POPC   NC311747   1.949   1.173   9.464
  669POPC   PO411748   2.011   1.236   9.164
  669POPC   GL111749   2.016   1.189   8.864
  669POPC   GL211750   1.874   1.262   8.864
  669POPC   C1A11751   2.030   1.262   8.564
  669POPC   D2A11752   1.979   1.232   8.264
  669POPC   C3A11753   1.950   1.233   7.964
  669POPC   C4A11754   1.990   1.210   7.664
  669POPC   C1B11755   1.731   1.246   8.564
  669POPC   C2B11756   1.699   1.254   8.264
  669POPC   C3B11757   1.724   1.246   7.964
  669POPC   C4B11758   1.731   1.295   7.664
  670POPC   NC311759  15.942  39.187   9.464
  670POPC   PO411760  15.920  39.217   9.164
  670POPC   GL111761  15.979  39.191   8.864
  670POPC   GL211762  16.058  39.349   8.864
  670POPC   C1A11763  15.970  39.233   8.564
  670POPC   D2A11764  15.921  39.216   8.264
  670POPC   C3A11765  15.985  39.220   7.964
  670POPC   C4A11766  15.980  39.257   7.664
  670POPC   C1B11767  16.073  39.454   8.564
  670POPC   C2B11768  16.148  39.462   8.264
  670POPC   C3B11769  16.114  39.413   7.964
  670POPC   C4B11770  16.127  39.388   7.664
  671POPC   NC311771  33.828  38.493   9.464
  671POPC   PO411772  33.752  38.482   9.164
  671POPC   GL111773  33.786  38.440   8.864
  671POPC   GL211774  33.751  38.416   8.864
  671POPC   C1A11775  33.832  38.426   8.564
  671POPC   D2A11776  33.781  38.470   8.264
  671POPC   C3A11777  33.783  38.416   7.964
  671POPC   C4A11778  33.846  38.429   7.664
  671POPC   C1B11779  33.647  38.246   8.564
  671POPC   C2B11780  33.643  38.269   8.264
  671POPC   C3B11781  33.664  38.329   7.964
  671POPC   C4B11782  33.621  38.320   7.664
  672POPC   NC311783  36.088   9.709   9.464
  672POPC   PO411784  36.139   9.744   9.164
  672POPC   GL111785  36.125   9.716   8.864
  672POPC   GL211786  35.988   9.803   8.864
  672POPC   C1A11787  36.105   9.765   8.564
  672POPC   D2A11788  36.134   9.741   8.264
  672POPC   C3A11789  36.124   9.710   7.964
  672POPC   C4A11790  36.147   9.782   7.664
  672POPC   C1B11791  35.928   9.816   8.564
  672POPC   C2B11792  35.944   9.812   8.264
  672POPC   C3B11793  35.937   9.873   7.964
  672POPC   C4B11794  35.881   9.843   7.664
  673POPC   NC311795  33.813  33.023   9.464
  673POPC   PO411796  33.844  33.051   9.164
  673POPC   GL111797  33.766  33.043   8.864
  673POPC   GL211798  33.698  33.124   8.864
  673POPC   C1A11799  33.759  33.011   8.564
  673POPC   D2A11800  33.834  33.041   8.264
  673POPC   C3A11801  33.841  33.074   7.964
  673POPC   C4A11802  33.791  33.022   7.664
  673POPC   C1B11803  33.710  33.253   8.564
  673POPC   C2B11804  33.671  33.247   8.264
  673POPC   C3B11805  33.703  33.236   7.964
  673POPC   C4B11806  33.635  33.265   7.664
  674POPC   NC311807  16.708   1.965   9.464
  674POPC   PO411808  16.711   1.970   9.164
  674POPC   GL111809  16.707   1.993   8.864
  674POPC   GL211810  16.704   1.866   8.864
  674POPC   C1A11811  16.688   1.969   8.564
  674POPC   D2A11812  16.705   1.962   8.264
  674POPC   C3A11813  16.779   1.994   7.964
  674POPC   C4A11814  16.688   1.978   7.664
  674POPC   C1B11815  16.730   1.693   8.564
  674POPC   C2B11816  16.769   1.736   8.264
  674POPC   C3B11817  16.769   1.774   7.964
  674POPC   C4B11818  16.715   1.725   7.664
  675POPC   NC311819   7.469  23.692   9.464
  675POPC   PO411820   7.441  23.710   9.164
  675POPC   GL111821   7.395  23.720   8.864
  675POPC   GL211822   7.524  23.782   8.864
  675POPC   C1A11823   7.396  23.683   8.564
  675POPC   D2A11824   7.434  23.735   8.264
  675POPC   C3A11825   7.390  23.760   7.964
  675POPC   C4A11826   7.431  23.675   7.664
  675POPC   C1B11827   7.642  23.820   8.564
  675POPC   C2B11828   7.617  23.894   8.264
  675POPC   C3B11829   7.585  23.866   7.964
  675POPC   C4B11830   7.617  23.857   7.664
  676POPC   NC311831   5.910  35.399   9.464
  676POPC   PO411832   5.889  35.397   9.164
  676POPC   GL111833   5.899  35.347   8.864
  676POPC   GL211834   5.793  35.269   8.864
  676POPC   C1A11835   5.914  35.340   8.564
  676POPC   D2A11836   5.861  35.352   8.264
  676POPC   C3A11837   5.827  35.353   7.964
  676POPC   C4A11838   5.841  35.370   7.664
  676POPC   C1B11839   5.678  35.287   8.564
  676POPC   C2B11840   5.619  35.225   8.264
  676POPC   C3B11841   5.603  35.229   7.964
  676POPC   C4B11842   5.643  35.236   7.664
  677POPC   NC311843  43.931  40.040   9.464
  677POPC   PO411844  43.897  39.966   9.164
  677POPC   GL111845  43.900  40.022   8.864
  677POPC   GL211846  44.023  39.950   8.864
  677POPC   C1A11847  43.853  40.029   8.564
  677POPC   D2A11848  43.918  39.993   8.264
  677POPC   C3A11849  43.905  40.032   7.964
  677POPC   C4A11850  43.888  39.976   7.664
  677POPC   C1B11851  44.072  39.917   8.564
  677POPC   C2B11852  44.066  39.910   8.264
  677POPC   C3B11853  44.076  39.869   7.964
  677POPC   C4B11854  44.083  39.933   7.664
  678POPC   NC311855   8.175  39.224   9.464
  678POPC   PO411856   8.211  39.235   9.164
  678POPC   GL111857   8.152  39.273   8.864
  678POPC   GL211858   8.257  39.310   8.864
  678POPC   C1A11859   8.222  39.228   8.564
  678POPC   D2A11860   8.187  39.269   8.264
  678POPC   C3A11861   8.232  39.207   7.964
  678POPC   C4A11862   8.231  39.252   7.664
  678POPC   C1B11863   8.263  39.472   8.564
  678POPC   C2B11864   8.259  39.448   8.264
  678POPC   C3B11865   8.256  39.488   7.964
  678POPC   C4B11866   8.299  39.458   7.664
  679POPC   NC311867  11.326  32.979   9.464
  679POPC   PO411868  11.313  32.974   9.164
  679POPC   GL111869  11.307  33.002   8.864
  679POPC   GL211870  11.336  33.135   8.864
  679POPC   C1A11871  11.284  33.049   8.564
  679POPC   D2A11872  11.258  33.057   8.264
  679POPC   C3A11873  11.298  33.026   7.964
  679POPC   C4A11874  11.305  32.996   7.664
  679POPC   C1B11875  11.436  33.302   8.564
  679POPC   C2B11876  11.368  33.302   8.264
  679POPC   C3B11877  11.414  33.280   7.964
  679POPC   C4B11878  11.385  33.255   7.664
  680POPC   NC311879   2.779  40.821   9.464
  680POPC   PO411880   2.720  40.816   9.164
  680POPC   GL111881   2.782  40.733   8.864
  680POPC   GL211882   2.665  40.882   8.864
  680POPC   C1A11883   2.772  40.740   8.564
  680POPC   D2A11884   2.792  40.736   8.264
  680POPC   C3A11885   2.751  40.818   7.964
  680POPC   C4A11886   2.793  40.791   7.664
  680POPC   C1B11887   2.682  40.982   8.564
  680POPC   C2B11888   2.681  41.040   8.264
  680POPC   C3B11889   2.655  41.013   7.964
  680POPC   C4B11890   2.619  41.027   7.664
  681POPC   NC311891  15.192  21.434   9.464
  681POPC   PO411892  15.172  21.407   9.164
  681POPC   GL111893  15.161  21.434   8.864
  681POPC   GL211894  15.037  21.476   8.864
  681POPC   C1A11895  15.216  21.367   8.564
  681POPC   D2A11896  15.168  21.401   8.264
  681POPC   C3A11897  15.166  21.348   7.964
  681POPC   C4A11898  15.183  21.374   7.664
  681POPC   C1B11899  15.030  21.593   8.564
  681POPC   C2B11900  15.027  21.512   8.264
  681POPC   C3B11901  14.952  21.527   7.964
  681POPC   C4B11902  14.986  21.565   7.664
  682POPC   NC311903  12.115   9.710   9.464
  682POPC   PO411904  12.086   9.780   9.164
  682POPC   GL111905  12.106   9.777   8.864
  682POPC   GL211906  12.036   9.856   8.864
  682POPC   C1A11907  12.059   9.791   8.564
  682POPC   D2A11908  12.051   9.736   8.264
  682POPC   C3A11909  12.069   9.781   7.964
  682POPC   C4A11910  12.098   9.743   7.664
  682POPC   C1B11911  12.036  10.001   8.564
  682POPC   C2B11912  12.068   9.958   8.264
  682POPC   C3B11913  12.073  10.000   7.964
  682POPC   C4B11914  12.063   9.996   7.664
  683POPC   NC311915   9.754  35.338   9.464
  683POPC   PO411916   9.775  35.354   9.164
  683POPC   GL111917   9.726  35.341   8.864
  683POPC   GL211918   9.867  35.294   8.864
  683POPC   C1A11919   9.738  35.337   8.564
  683POPC   D2A11920   9.794  35.311   8.264
  683POPC   C3A11921   9.705  35.393   7.964
  683POPC   C4A11922   9.782  35.347   7.664
  683POPC   C1B11923  10.036  35.359   8.564
  683POPC   C2B11924   9.988  35.351   8.264
  683POPC   C3B11925   9.987  35.312   7.964
  683POPC   C4B11926   9.968  35.340   7.664
  684POPC   NC311927  24.485  32.989   9.464
  684POPC   PO411928  24.469  32.991   9.164
  684POPC   GL111929  24.450  32.993   8.864
  684POPC   GL211930  24.642  33.060   8.864
  684POPC   C1A11931  24.527  33.042   8.564
  684POPC   D2A11932  24.452  33.056   8.264
  684POPC   C3A11933  24.445  33.054   7.964
  684POPC   C4A11934  24.490  33.072   7.664
  684POPC   C1B11935  24.723  32.967   8.564
  684POPC   C2B11936  24.779  33.006   8.264
  684POPC   C3B11937  24.789  33.048   7.964
  684POPC   C4B11938  24.721  33.031   7.664
  685POPC   NC311939  22.204  33.013   9.464
  685POPC   PO411940  22.133  33.037   9.164
  685POPC   GL111941  22.175  33.070   8.864
  685POPC   GL211942  22.262  32.949   8.864
  685POPC   C1A11943  22.117  33.035   8.564
  685POPC   D2A11944  22.171  32.995   8.264
  685POPC   C3A11945  22.169  33.062   7.964
  685POPC   C4A11946  22.127  33.000   7.664
  685POPC   C1B11947  22.355  32.937   8.564
  685POPC   C2B11948  22.325  32.864   8.264
  685POPC   C3B11949  22.370  32.926   7.964
  685POPC   C4B11950  22.345  32.913   7.664
  686POPC   NC311951  15.145  43.866   9.464
  686POPC   PO411952  15.218  43.869   9.164
  686POPC   GL111953  15.148  43.859   8.864
  686POPC   GL211954  15.254  43.849   8.864
  686POPC   C1A11955  15.155  43.926   8.564
  686POPC   D2A11956  15.203  43.870   8.264
  686POPC   C3A11957  15.223  43.854   7.964
  686POPC   C4A11958  15.147  43.897   7.664
  686POPC   C1B11959  15.391  43.915   8.564
  686POPC   C2B11960  15.448  43.892   8.264
  686POPC   C3B11961  15.388  43.913   7.964
  686POPC   C4B11962  15.394  43.855   7.664
  687POPC   NC311963  40.823  13.585   9.464
  687POPC   PO411964  40.800  13.632   9.164
  687POPC   GL111965  40.794  13.607   8.864
  687POPC   GL211966  40.801  13.560   8.864
  687POPC   C1A11967  40.756  13.580   8.564
  687POPC   D2A11968  40.755  13.669   8.264
  687POPC   C3A11969  40.745  13.627   7.964
  687POPC   C4A11970  40.798  13.590   7.664
  687POPC   C1B11971  40.898  13.376   8.564
  687POPC   C2B11972  40.840  13.397   8.264
  687POPC   C3B11973  40.924  13.358   7.964
  687POPC   C4B11974  40.870  13.348   7.664
  688POPC   NC311975   2.032  15.957   9.464
  688POPC   PO411976   1.985  15.985   9.164
  688POPC   GL111977   2.028  15.979   8.864
  688POPC   GL211978   1.870  15.862   8.864
  688POPC   C1A11979   1.954  15.947   8.564
  688POPC   D2A11980   1.979  15.912   8.264
  688POPC   C3A11981   1.986  15.953   7.964
  688POPC   C4A11982   1.963  15.906   7.664
  688POPC   C1B11983   1.797  15.821   8.564
  688POPC   C2B11984   1.776  15.848   8.264
  688POPC   C3B11985   1.736  15.837   7.964
  688POPC   C4B11986   1.737  15.870   7.664
  689POPC   NC311987  40.771  44.697   9.464
  689POPC   PO411988  40.808  44.647   9.164
  689POPC   GL111989  40.788  44.673   8.864
  689POPC   GL211990  40.843  44.550   8.864
  689POPC   C1A11991  40.808  44.620   8.564
  689POPC   D2A11992  40.785  44.664   8.264
  689POPC   C3A11993  40.799  44.620   7.964
  689POPC   C4A11994  40.824  44.670   7.664
  689POPC   C1B11995  40.831  44.395   8.564
  689POPC   C2B11996  40.786  44.436   8.264
  689POPC   C3B11997  40.807  44.375   7.964
  689POPC   C4B11998  40.821  44.422   7.664
  690POPC   NC311999  19.818  19.852   9.464
  690POPC   PO412000  19.884  19.876   9.164
  690POPC   GL112001  19.840  19.836   8.864
  690POPC   GL212002  19.754  19.896   8.864
  690POPC   C1A12003  19.836  19.822   8.564
  690POPC   D2A12004  19.851  19.822   8.264
  690POPC   C3A12005  19.847  19.823   7.964
  690POPC   C4A12006  19.794  19.828   7.664
  690POPC   C1B12007  19.545  19.861   8.564
  690POPC   C2B12008  19.613  19.880   8.264
  690POPC   C3B12009  19.597  19.912   7.964
  690POPC   C4B12010  19.590  19.909   7.664
  691POPC   NC312011  31.484  28.392   9.464
  691POPC   PO412012  31.493  28.324   9.164
  691POPC   GL112013  31.492  28.344   8.864
  691POPC   GL212014  31.561  28.444   8.864
  691POPC   C1A12015  31.492  28.334   8.564
  691POPC   D2A12016  31.513  28.399   8.264
  691POPC   C3A12017  31.479  28.386   7.964
  691POPC   C4A12018  31.496  28.385   7.664
  691POPC   C1B12019  31.609  28.600   8.564
  691POPC   C2B12020  31.611  28.589   8.264
  691POPC   C3B12021  31.634  28.579   7.964
  691POPC   C4B12022  31.637  28.604   7.664
  692POPC   NC312023  13.595  29.898   9.464
  692POPC   PO412024  13.676  29.918   9.164
  692POPC   GL112025  13.620  29.941   8.864
  692POPC   GL212026  13.662  30.092   8.864
  692POPC   C1A12027  13.661  29.887   8.564
  692POPC   D2A12028  13.672  29.890   8.264
  692POPC   C3A12029  13.654  29.959   7.964
  692POPC   C4A12030  13.596  29.970   7.664
  692POPC   C1B12031  13.642  30.216   8.564
  692POPC   C2B12032  13.639  30.135   8.264
  692POPC   C3B12033  13.632  30.128   7.964
  692POPC   C4B12034  13.702  30.131   7.664
  693POPC   NC312035  38.502  17.555   9.464
  693POPC   PO412036  38.484  17.482   9.164
  693POPC   GL112037  38.438  17.517   8.864
  693POPC   GL212038  38.321  17.606   8.864
  693POPC   C1A12039  38.464  17.465   8.564
  693POPC   D2A12040  38.494  17.493   8.264
  693POPC   C3A12041  38.430  17.530   7.964
  693POPC   C4A12042  38.424  17.484   7.664
  693POPC   C1B12043  38.212  17.659   8.564
  693POPC   C2B12044  38.292  17.669   8.264
  693POPC   C3B12045  38.245  17.636   7.964
  693POPC   C4B12046  38.287  17.689   7.664
  694POPC   NC312047  27.566  18.326   9.464
  694POPC   PO412048  27.576  18.256   9.164
  694POPC   GL112049  27.561  18.259   8.864
  694POPC   GL212050  27.513  18.157   8.864
  694POPC   C1A12051  27.640  18.242   8.564
  694POPC   D2A12052  27.617  18.256   8.264
  694POPC   C3A12053  27.553  18.301   7.964
  694POPC   C4A12054  27.569  18.293   7.664
  694POPC   C1B12055  27.503  18.005   8.564
  694POPC   C2B12056  27.486  18.018   8.264
  694POPC   C3B12057  27.502  18.072   7.964
  694POPC   C4B12058  27.468  18.071   7.664
  695POPC   NC312059   0.462  13.592   9.464
  695POPC   PO412060   0.437  13.584   9.164
  695POPC   GL112061   0.437  13.645   8.864
  695POPC   GL212062   0.417  13.788   8.864
  695POPC   C1A12063   0.454  13.605   8.564
  695POPC   D2A12064   0.433  13.586   8.264
  695POPC   C3A12065   0.427  13.659   7.964
  695POPC   C4A12066   0.422  13.584   7.664
  695POPC   C1B12067   0.373  13.830   8.564
  695POPC   C2B12068   0.407  13.827   8.264
  695POPC   C3B12069   0.415  13.917   7.964
  695POPC   C4B12070   0.408  13.885   7.664
  696POPC   NC312071  12.101  24.450   9.464
  696POPC   PO412072  12.072  24.474   9.164
  696POPC   GL112073  12.052  24.453   8.864
  696POPC   GL212074  11.917  24.467   8.864
  696POPC   C1A12075  12.032  24.497   8.564
  696POPC   D2A12076  12.062  24.478   8.264
  696POPC   C3A12077  12.091  24.503   7.964
  696POPC   C4A12078  12.062  24.451   7.664
  696POPC   C1B12079  11.803  24.434   8.564
  696POPC   C2B12080  11.811  24.446   8.264
  696POPC   C3B12081  11.861  24.461   7.964
  696POPC   C4B12082  11.792  24.402   7.664
  697POPC   NC312083  14.381  27.567   9.464
  697POPC   PO412084  14.368  27.566   9.164
  697POPC   GL112085  14.369  27.605   8.864
  697POPC   GL212086  14.346  27.513   8.864
  697POPC   C1A12087  14.374  27.560   8.564
  697POPC   D2A12088  14.410  27.621   8.264
  697POPC   C3A12089  14.401  27.619   7.964
  697POPC   C4A12090  14.423  27.586   7.664
  697POPC   C1B12091  14.300  27.392   8.564
  697POPC   C2B12092  14.331  27.397   8.264
  697POPC   C3B12093  14.268  27.335   7.964
  697POPC   C4B12094  14.285  27.352   7.664
  698POPC   NC312095  28.333  43.156   9.464
  698POPC   PO412096  28.342  43.125   9.164
  698POPC   GL112097  28.375  43.150   8.864
  698POPC   GL212098  28.236  43.065   8.864
  698POPC   C1A12099  28.322  43.065   8.564
  698POPC   D2A12100  28.370  43.103   8.264
  698POPC   C3A12101  28.340  43.099   7.964
  698POPC   C4A12102  28.400  43.071   7.664
  698POPC   C1B12103  28.119  43.105   8.564
  698POPC   C2B12104  28.153  43.113   8.264
  698POPC   C3B12105  28.167  43.149   7.964
  698POPC   C4B12106  28.137  43.146   7.664
  699POPC   NC312107   2.753  10.540   9.464
  699POPC   PO412108   2.758  10.531   9.164
  699POPC   GL112109   2.787  10.537   8.864
  699POPC   GL212110   2.689  10.629   8.864
  699POPC   C1A12111   2.755  10.485   8.564
  699POPC   D2A12112   2.753  10.519   8.264
  699POPC   C3A12113   2.777  10.511   7.964
  699POPC   C4A12114   2.731  10.488   7.664
  699POPC   C1B12115   2.654  10.771   8.564
  699POPC   C2B12116   2.669  10.737   8.264
  699POPC   C3B12117   2.649  10.774   7.964
  699POPC   C4B12118   2.618  10.720   7.664
  700POPC   NC312119  35.334   9.778   9.464
  700POPC   PO412120  35.316   9.796   9.164
  700POPC   GL112121  35.383   9.718   8.864
  700POPC   GL212122  35.401   9.882   8.864
  700POPC   C1A12123  35.364   9.766   8.564
  700POPC   D2A12124  35.311   9.742   8.264
  700POPC   C3A12125  35.342   9.744   7.964
  700POPC   C4A12126  35.379   9.770   7.664
  700POPC   C1B12127  35.431  10.005   8.564
  700POPC   C2B12128  35.494   9.920   8.264
  700POPC   C3B12129  35.431   9.954   7.964
  700POPC   C4B12130  35.486  10.007   7.664
  701POPC   NC312131  35.390  15.216   9.464
  701POPC   PO412132  35.326  15.139   9.164
  701POPC   GL112133  35.329  15.139   8.864
  701POPC   GL212134  35.469  15.316   8.864
  701POPC   C1A12135  35.342  15.201   8.564
  701POPC   D2A12136  35.402  15.190   8.264
  701POPC   C3A12137  35.311  15.158   7.964
  701POPC   C4A12138  35.311  15.163   7.664
  701POPC   C1B12139  35.511  15.423   8.564
  701POPC   C2B12140  35.531  15.348   8.264
  701POPC   C3B12141  35.539  15.348   7.964
  701POPC   C4B12142  35.542  15.396   7.664
  702POPC   NC312143  36.084  15.208   9.464
  702POPC   PO412144  36.126  15.193   9.164
  702POPC   GL112145  36.120  15.180   8.864
  702POPC   GL212146  36.168  15.047   8.864
  702POPC   C1A12147  36.080  15.202   8.564
  702POPC   D2A12148  36.145  15.131   8.264
  702POPC   C3A12149  36.081  15.139   7.964
  702POPC   C4A12150  36.094  15.191   7.664
  702POPC   C1B12151  36.157  14.946   8.564
  702POPC   C2B12152  36.186  14.927   8.264
  702POPC   C3B12153  36.191  14.925   7.964
  702POPC   C4B12154  36.175  14.899   7.664
  703POPC   NC312155   1.258  36.148   9.464
  703POPC   PO412156   1.253  36.104   9.164
  703POPC   GL112157   1.234  36.170   8.864
  703POPC   GL212158   1.301  36.105   8.864
  703POPC   C1A12159   1.250  36.121   8.564
  703POPC   D2A12160   1.200  36.129   8.264
  703POPC   C3A12161   1.186  36.133   7.964
  703POPC   C4A12162   1.242  36.112   7.664
  703POPC   C1B12163   1.476  36.065   8.564
  703POPC   C2B12164   1.482  36.041   8.264
  703POPC   C3B12165   1.499  36.123   7.964
  703POPC   C4B12166   1.432  36.047   7.664
  704POPC   NC312167  13.673  15.930   9.464
  704POPC   PO412168  13.677  15.919   9.164
  704POPC   GL112169  13.673  15.972   8.864
  704POPC   GL212170  13.615  16.093   8.864
  704POPC   C1A12171  13.660  15.966   8.564
  704POPC   D2A12172  13.652  15.990   8.264
  704POPC   C3A12173  13.646  16.004   7.964
  704POPC   C4A12174  13.603  15.988   7.664
  704POPC   C1B12175  13.532  16.195   8.564
  704POPC   C2B12176  13.557  16.173   8.264
  704POPC   C3B12177  13.498  16.136   7.964
  704POPC   C4B12178  13.552  16.199   7.664
  705POPC   NC312179   2.764   5.896   9.464
  705POPC   PO412180   2.723   5.890   9.164
  705POPC   GL112181   2.784   5.828   8.864
  705POPC   GL212182   2.845   5.712   8.864
  705POPC   C1A12183   2.813   5.911   8.564
  705POPC   D2A12184   2.802   5.863   8.264
  705POPC   C3A12185   2.730   5.897   7.964
  705POPC   C4A12186   2.763   5.880   7.664
  705POPC   C1B12187   2.837   5.630   8.564
  705POPC   C2B12188   2.819   5.634   8.264
  705POPC   C3B12189   2.878   5.632   7.964
  705POPC   C4B12190   2.876   5.673   7.664
  706POPC   NC312191  21.415  15.132   9.464
  706POPC   PO412192  21.395  15.222   9.164
  706POPC   GL112193  21.368  15.184   8.864
  706POPC   GL212194  21.479  15.220   8.864
  706POPC   C1A12195  21.435  15.142   8.564
  706POPC   D2A12196  21.382  15.156   8.264
  706POPC   C3A12197  21.418  15.150   7.964
  706POPC   C4A12198  21.410  15.216   7.664
  706POPC   C1B12199  21.634  15.259   8.564
  706POPC   C2B12200  21.658  15.237   8.264
  706POPC   C3B12201  21.670  15.252   7.964
  706POPC   C4B12202  21.597  15.255   7.664
  707POPC   NC312203  21.415  12.087   9.464
  707POPC   PO412204  21.404  12.071   9.164
  707POPC   GL112205  21.434  12.089   8.864
  707POPC   GL212206  21.280  11.991   8.864
  707POPC   C1A12207  21.356  12.091   8.564
  707POPC   D2A12208  21.356  12.101   8.264
  707POPC   C3A12209  21.396  12.100   7.964
  707POPC   C4A12210  21.361  12.077   7.664
  707POPC   C1B12211  21.190  11.875   8.564
  707POPC   C2B12212  21.181  11.890   8.264
  707POPC   C3B12213  21.240  11.862   7.964
  707POPC   C4B12214  21.240  11.874   7.664
  708POPC   NC312215  29.908  20.579   9.464
  708POPC   PO412216  29.898  20.639   9.164
  708POPC   GL112217  29.909  20.597   8.864
  708POPC   GL212218  29.877  20.750   8.864
  708POPC   C1A12219  29.949  20.608   8.564
  708POPC   D2A12220  29.960  20.590   8.264
  708POPC   C3A12221  29.904  20.608   7.964
  708POPC   C4A12222  29.915  20.592   7.664
  708POPC   C1B12223  29.765  20.858   8.564
  708POPC   C2B12224  29.787  20.871   8.264
  708POPC   C3B12225  29.774  20.798   7.964
  708POPC   C4B12226  29.795  20.792   7.664
  709POPC   NC312227  28.371  34.581   9.464
  709POPC   PO412228  28.416  34.613   9.164
  709POPC   GL112229  28.360  34.538   8.864
  709POPC   GL212230  28.522  34.606   8.864
  709POPC   C1A12231  28.391  34.545   8.564
  709POPC   D2A12232  28.366  34.615   8.264
  709POPC   C3A12233  28.410  34.578   7.964
  709POPC   C4A12234  28.390  34.612   7.664
  709POPC   C1B12235  28.637  34.535   8.564
  709POPC   C2B12236  28.628  34.512   8.264
  709POPC   C3B12237  28.627  34.571   7.964
  709POPC   C4B12238  28.609  34.588   7.664
  710POPC   NC312239  17.506   5.055   9.464
  710POPC   PO412240  17.476   5.101   9.164
  710POPC   GL112241  17.520   5.068   8.864
  710POPC   GL212242  17.574   5.057   8.864
  710POPC   C1A12243  17.500   5.062   8.564
  710POPC   D2A12244  17.467   5.084   8.264
  710POPC   C3A12245  17.523   5.100   7.964
  710POPC   C4A12246  17.471   5.075   7.664
  710POPC   C1B12247  17.733   5.002   8.564
  710POPC   C2B12248  17.699   4.963   8.264
  710POPC   C3B12249  17.704   4.990   7.964
  710POPC   C4B12250  17.679   5.016   7.664
  711POPC   NC312251  38.456   1.240   9.464
  711POPC   PO412252  38.490   1.192   9.164
  711POPC   GL112253  38.493   1.190   8.864
  711POPC   GL212254  38.546   1.162   8.864
  711POPC   C1A12255  38.471   1.183   8.564
  711POPC   D2A12256  38.438   1.201   8.264
  711POPC   C3A12257  38.440   1.208   7.964
  711POPC   C4A12258  38.441   1.169   7.664
  711POPC   C1B12259  38.662   1.000   8.564
  711POPC   C2B12260  38.631   1.002   8.264
  711POPC   C3B12261  38.645   0.998   7.964
  711POPC   C4B12262  38.635   1.084   7.664
  712POPC   NC312263   2.781   8.166   9.464
  712POPC   PO412264   2.770   8.208   9.164
  712POPC   GL112265   2.761   8.169   8.864
  712POPC   GL212266   2.914   8.157   8.864
  712POPC   C1A12267   2.777   8.165   8.564
  712POPC   D2A12268   2.770   8.192   8.264
  712POPC   C3A12269   2.733   8.149   7.964
  712POPC   C4A12270   2.726   8.220   7.664
  712POPC   C1B12271   3.025   8.148   8.564
  712POPC   C2B12272   2.988   8.140   8.264
  712POPC   C3B12273   3.002   8.150   7.964
  712POPC   C4B12274   3.029   8.056   7.664
  713POPC   NC312275  25.249  35.318   9.464
  713POPC   PO412276  25.234  35.352   9.164
  713POPC   GL112277  25.305  35.326   8.864
  713POPC   GL212278  25.097  35.341   8.864
  713POPC   C1A12279  25.246  35.304   8.564
  713POPC   D2A12280  25.282  35.332   8.264
  713POPC   C3A12281  25.262  35.302   7.964
  713POPC   C4A12282  25.262  35.348   7.664
  713POPC   C1B12283  25.061  35.341   8.564
  713POPC   C2B12284  24.987  35.288   8.264
  713POPC   C3B12285  24.974  35.337   7.964
  713POPC   C4B12286  25.051  35.355   7.664
  714POPC   NC312287  12.026  30.710   9.464
  714POPC   PO412288  12.088  30.652   9.164
  714POPC   GL112289  12.081  30.734   8.864
  714POPC   GL212290  12.005  30.747   8.864
  714POPC   C1A12291  12.046  30.692   8.564
  714POPC   D2A12292  12.082  30.698   8.264
  714POPC   C3A12293  12.036  30.656   7.964
  714POPC   C4A12294  12.044  30.700   7.664
  714POPC   C1B12295  11.889  30.843   8.564
  714POPC   C2B12296  11.908  30.888   8.264
  714POPC   C3B12297  11.899  30.921   7.964
  714POPC   C4B12298  11.946  30.931   7.664
  715POPC   NC312299  36.903   2.020   9.464
  715POPC   PO412300  36.855   1.966   9.164
  715POPC   GL112301  36.902   1.944   8.864
  715POPC   GL212302  36.815   1.989   8.864
  715POPC   C1A12303  36.924   1.955   8.564
  715POPC   D2A12304  36.942   2.006   8.264
  715POPC   C3A12305  36.947   1.997   7.964
  715POPC   C4A12306  36.865   1.966   7.664
  715POPC   C1B12307  36.697   1.970   8.564
  715POPC   C2B12308  36.640   1.945   8.264
  715POPC   C3B12309  36.626   1.957   7.964
  715POPC   C4B12310  36.616   1.895   7.664
  716POPC   NC312311  40.026   5.047   9.464
  716POPC   PO412312  39.979   5.112   9.164
  716POPC   GL112313  40.053   5.116   8.864
  716POPC   GL212314  39.932   5.177   8.864
  716POPC   C1A12315  39.961   5.102   8.564
  716POPC   D2A12316  40.000   5.046   8.264
  716POPC   C3A12317  40.000   5.105   7.964
  716POPC   C4A12318  40.023   5.126   7.664
  716POPC   C1B12319  39.824   5.221   8.564
  716POPC   C2B12320  39.770   5.176   8.264
  716POPC   C3B12321  39.776   5.243   7.964
  716POPC   C4B12322  39.828   5.205   7.664
  717POPC   NC312323   1.976  42.320   9.464
  717POPC   PO412324   2.036  42.327   9.164
  717POPC   GL112325   1.959  42.322   8.864
  717POPC   GL212326   1.929  42.278   8.864
  717POPC   C1A12327   2.036  42.339   8.564
  717POPC   D2A12328   1.983  42.308   8.264
  717POPC   C3A12329   1.987  42.297   7.964
  717POPC   C4A12330   1.980  42.297   7.664
  717POPC   C1B12331   1.831  42.184   8.564
  717POPC   C2B12332   1.846  42.131   8.264
  717POPC   C3B12333   1.850  42.118   7.964
  717POPC   C4B12334   1.827  42.158   7.664
  718POPC   NC312335  18.254  26.838   9.464
  718POPC   PO412336  18.303  26.784   9.164
  718POPC   GL112337  18.313  26.866   8.864
  718POPC   GL212338  18.201  26.930   8.864
  718POPC   C1A12339  18.295  26.824   8.564
  718POPC   D2A12340  18.301  26.770   8.264
  718POPC   C3A12341  18.279  26.822   7.964
  718POPC   C4A12342  18.261  26.795   7.664
  718POPC   C1B12343  18.106  26.998   8.564
  718POPC   C2B12344  18.087  26.950   8.264
  718POPC   C3B12345  18.138  26.943   7.964
  718POPC   C4B12346  18.132  27.019   7.664
  719POPC   NC312347   6.614  17.486   9.464
  719POPC   PO412348   6.626  17.518   9.164
  719POPC   GL112349   6.694  17.509   8.864
  719POPC   GL212350   6.575  17.544   8.864
  719POPC   C1A12351   6.604  17.497   8.564
  719POPC   D2A12352   6.647  17.537   8.264
  719POPC   C3A12353   6.687  17.540   7.964
  719POPC   C4A12354   6.621  17.525   7.664
  719POPC   C1B12355   6.451  17.638   8.564
  719POPC   C2B12356   6.399  17.656   8.264
  719POPC   C3B12357   6.463  17.614   7.964
  719POPC   C4B12358   6.401  17.687   7.664
  720POPC   NC312359  22.134  25.277   9.464
  720POPC   PO412360  22.155  25.302   9.164
  720POPC   GL112361  22.153  25.265   8.864
  720POPC   GL212362  22.197  25.396   8.864
  720POPC   C1A12363  22.148  25.272   8.564
  720POPC   D2A12364  22.197  25.260   8.264
  720POPC   C3A12365  22.145  25.266   7.964
  720POPC   C4A12366  22.153  25.309   7.664
  720POPC   C1B12367  22.309  25.455   8.564
  720POPC   C2B12368  22.256  25.473   8.264
  720POPC   C3B12369  22.316  25.466   7.964
  720POPC   C4B12370  22.293  25.514   7.664
  721POPC   NC312371  32.260   0.389   9.464
  721POPC   PO412372  32.295   0.399   9.164
  721POPC   GL112373  32.274   0.487   8.864
  721POPC   GL212374  32.306   0.512   8.864
  721POPC   C1A12375  32.296   0.469   8.564
  721POPC   D2A12376  32.236   0.441   8.264
  721POPC   C3A12377  32.265   0.440   7.964
  721POPC   C4A12378  32.233   0.406   7.664
  721POPC   C1B12379  32.467   0.613   8.564
  721POPC   C2B12380  32.457   0.614   8.264
  721POPC   C3B12381  32.431   0.596   7.964
  721POPC   C4B12382  32.480   0.643   7.664
  722POPC   NC312383  29.902   5.126   9.464
  722POPC   PO412384  29.925   5.057   9.164
  722POPC   GL112385  29.958   5.055   8.864
  722POPC   GL212386  29.966   4.955   8.864
  722POPC   C1A12387  29.923   5.125   8.564
  722POPC   D2A12388  29.941   5.088   8.264
  722POPC   C3A12389  29.879   5.135   7.964
  722POPC   C4A12390  29.891   5.091   7.664
  722POPC   C1B12391  30.053   4.880   8.564
  722POPC   C2B12392  30.081   4.890   8.264
  722POPC   C3B12393  30.055   4.952   7.964
  722POPC   C4B12394  30.117   4.958   7.664
  723POPC   NC312395  27.602  42.359   9.464
  723POPC   PO412396  27.584  42.348   9.164
  723POPC   GL112397  27.549  42.363   8.864
  723POPC   GL212398  27.445  42.431   8.864
  723POPC   C1A12399  27.603  42.361   8.564
  723POPC   D2A12400  27.599  42.294   8.264
  723POPC   C3A12401  27.604  42.356   7.964
  723POPC   C4A12402  27.611  42.315   7.664
  723POPC   C1B12403  27.432  42.486   8.564
  723POPC   C2B12404  27.389  42.483   8.264
  723POPC   C3B12405  27.393  42.499   7.964
  723POPC   C4B12406  27.376  42.472   7.664
  724POPC   NC312407  19.876   8.993   9.464
  724POPC   PO412408  19.798   8.980   9.164
  724POPC   GL112409  19.856   9.011   8.864
  724POPC   GL212410  19.683   9.053   8.864
  724POPC   C1A12411  19.840   8.963   8.564
  724POPC   D2A12412  19.791   9.018   8.264
  724POPC   C3A12413  19.882   8.939   7.964
  724POPC   C4A12414  19.813   9.005   7.664
  724POPC   C1B12415  19.624   9.105   8.564
  724POPC   C2B12416  19.646   9.120   8.264
  724POPC   C3B12417  19.561   9.096   7.964
  724POPC   C4B12418  19.655   9.034   7.664
  725POPC   NC312419  25.258   1.186   9.464
  725POPC   PO412420  25.238   1.244   9.164
  725POPC   GL112421  25.276   1.203   8.864
  725POPC   GL212422  25.356   1.156   8.864
  725POPC   C1A12423  25.308   1.191   8.564
  725POPC   D2A12424  25.311   1.217   8.264
  725POPC   C3A12425  25.247   1.223   7.964
  725POPC   C4A12426  25.266   1.262   7.664
  725POPC   C1B12427  25.482   1.103   8.564
  725POPC   C2B12428  25.528   1.157   8.264
  725POPC   C3B12429  25.536   1.095   7.964
  725POPC   C4B12430  25.467   1.141   7.664
  726POPC   NC312431   5.873  12.843   9.464
  726POPC   PO412432   5.910  12.863   9.164
  726POPC   GL112433   5.884  12.808   8.864
  726POPC   GL212434   5.987  12.821   8.864
  726POPC   C1A12435   5.836  12.804   8.564
  726POPC   D2A12436   5.911  12.878   8.264
  726POPC   C3A12437   5.866  12.882   7.964
  726POPC   C4A12438   5.839  12.900   7.664
  726POPC   C1B12439   6.147  12.801   8.564
  726POPC   C2B12440   6.153  12.767   8.264
  726POPC   C3B12441   6.140  12.828   7.964
  726POPC   C4B12442   6.141  12.840   7.664
  727POPC   NC312443   5.880   1.981   9.464
  727POPC   PO412444   5.911   2.034   9.164
  727POPC   GL112445   5.820   2.034   8.864
  727POPC   GL212446   5.940   2.046   8.864
  727POPC   C1A12447   5.891   1.960   8.564
  727POPC   D2A12448   5.846   2.004   8.264
  727POPC   C3A12449   5.903   2.035   7.964
  727POPC   C4A12450   5.845   2.037   7.664
  727POPC   C1B12451   6.012   2.176   8.564
  727POPC   C2B12452   5.999   2.149   8.264
  727POPC   C3B12453   6.030   2.155   7.964
  727POPC   C4B12454   6.086   2.121   7.664
  728POPC   NC312455  37.668  15.991   9.464
  728POPC   PO412456  37.715  15.940   9.164
  728POPC   GL112457  37.704  15.910   8.864
  728POPC   GL212458  37.710  16.023   8.864
  728POPC   C1A12459  37.630  15.924   8.564
  728POPC   D2A12460  37.665  16.000   8.264
  728POPC   C3A12461  37.710  15.927   7.964
  728POPC   C4A12462  37.694  15.928   7.664
  728POPC   C1B12463  37.820  16.155   8.564
  728POPC   C2B12464  37.757  16.197   8.264
  728POPC   C3B12465  37.837  16.190   7.964
  728POPC   C4B12466  37.814  16.219   7.664
  729POPC   NC312467   5.859  14.357   9.464
  729POPC   PO412468   5.825  14.359   9.164
  729POPC   GL112469   5.833  14.406   8.864
  729POPC   GL212470   5.835  14.324   8.864
  729POPC   C1A12471   5.861  14.404   8.564
  729POPC   D2A12472   5.892  14.450   8.264
  729POPC   C3A12473   5.870  14.446   7.964
  729POPC   C4A12474   5.830  14.439   7.664
  729POPC   C1B12475   5.749  14.187   8.564
  729POPC   C2B12476   5.841  14.142   8.264
  729POPC   C3B12477   5.823  14.210   7.964
  729POPC   C4B12478   5.811  14.124   7.664
  730POPC   NC312479  10.546  28.373   9.464
  730POPC   PO412480  10.507  28.415   9.164
  730POPC   GL112481  10.573  28.335   8.864
  730POPC   GL212482  10.608  28.378   8.864
  730POPC   C1A12483  10.555  28.364   8.564
  730POPC   D2A12484  10.568  28.417   8.264
  730POPC   C3A12485  10.531  28.364   7.964
  730POPC   C4A12486  10.502  28.396   7.664
  730POPC   C1B12487  10.733  28.339   8.564
  730POPC   C2B12488  10.719  28.268   8.264
  730POPC   C3B12489  10.762  28.259   7.964
  730POPC   C4B12490  10.804  28.306   7.664
  731POPC   NC312491  29.116   2.039   9.464
  731POPC   PO412492  29.194   1.969   9.164
  731POPC   GL112493  29.097   1.941   8.864
  731POPC   GL212494  29.105   1.920   8.864
  731POPC   C1A12495  29.135   1.995   8.564
  731POPC   D2A12496  29.103   2.011   8.264
  731POPC   C3A12497  29.152   2.001   7.964
  731POPC   C4A12498  29.100   2.035   7.664
  731POPC   C1B12499  28.987   1.841   8.564
  731POPC   C2B12500  29.032   1.762   8.264
  731POPC   C3B12501  28.986   1.771   7.964
  731POPC   C4B12502  28.957   1.812   7.664
  732POPC   NC312503   9.013  44.682   9.464
  732POPC   PO412504   8.945  44.657   9.164
  732POPC   GL112505   8.957  44.656   8.864
  732POPC   GL212506   9.077  44.742   8.864
  732POPC   C1A12507   8.981  44.658   8.564
  732POPC   D2A12508   8.945  44.711   8.264
  732POPC   C3A12509   8.976  44.626   7.964
  732POPC   C4A12510   8.926  44.653   7.664
  732POPC   C1B12511   9.101  44.853   8.564
  732POPC   C2B12512   9.126  44.894   8.264
  732POPC   C3B12513   9.133  44.808   7.964
  732POPC   C4B12514   9.185  44.886   7.664
  733POPC   NC312515   8.960   5.083   9.464
  733POPC   PO412516   8.966   5.142   9.164
  733POPC   GL112517   8.938   5.066   8.864
  733POPC   GL212518   9.088   5.100   8.864
  733POPC   C1A12519   8.990   5.052   8.564
  733POPC   D2A12520   8.983   5.124   8.264
  733POPC   C3A12521   8.943   5.062   7.964
  733POPC   C4A12522   8.941   5.085   7.664
  733POPC   C1B12523   9.213   5.095   8.564
  733POPC   C2B12524   9.208   5.067   8.264
  733POPC   C3B12525   9.205   5.101   7.964
  733POPC   C4B12526   9.245   5.142   7.664
  734POPC   NC312527   9.798  43.862   9.464
  734POPC   PO412528   9.711  43.932   9.164
  734POPC   GL112529   9.784  43.856   8.864
  734POPC   GL212530   9.718  43.780   8.864
  734POPC   C1A12531   9.789  43.899   8.564
  734POPC   D2A12532   9.749  43.844   8.264
  734POPC   C3A12533   9.764  43.905   7.964
  734POPC   C4A12534   9.769  43.889   7.664
  734POPC   C1B12535   9.668  43.687   8.564
  734POPC   C2B12536   9.677  43.633   8.264
  734POPC   C3B12537   9.690  43.666   7.964
  734POPC   C4B12538   9.684  43.636   7.664
  735POPC   NC312539  14.402  26.800   9.464
  735POPC   PO412540  14.435  26.840   9.164
  735POPC   GL112541  14.400  26.861   8.864
  735POPC   GL212542  14.315  26.699   8.864
  735POPC   C1A12543  14.452  26.776   8.564
  735POPC   D2A12544  14.383  26.774   8.264
  735POPC   C3A12545  14.405  26.836   7.964
  735POPC   C4A12546  14.362  26.835   7.664
  735POPC   C1B12547  14.223  26.681   8.564
  735POPC   C2B12548  14.217  26.693   8.264
  735POPC   C3B12549  14.191  26.667   7.964
  735POPC   C4B12550  14.212  26.717   7.664
  736POPC   NC312551  27.578  29.877   9.464
  736POPC   PO412552  27.593  29.950   9.164
  736POPC   GL112553  27.585  29.891   8.864
  736POPC   GL212554  27.539  30.047   8.864
  736POPC   C1A12555  27.626  29.893   8.564
  736POPC   D2A12556  27.628  29.957   8.264
  736POPC   C3A12557  27.643  29.924   7.964
  736POPC   C4A12558  27.602  29.917   7.664
  736POPC   C1B12559  27.506  30.129   8.564
  736POPC   C2B12560  27.438  30.172   8.264
  736POPC   C3B12561  27.439  30.152   7.964
  736POPC   C4B12562  27.434  30.146   7.664
  737POPC   NC312563  41.516  34.601   9.464
  737POPC   PO412564  41.599  34.591   9.164
  737POPC   GL112565  41.604  34.534   8.864
  737POPC   GL212566  41.625  34.635   8.864
  737POPC   C1A12567  41.539  34.618   8.564
  737POPC   D2A12568  41.566  34.568   8.264
  737POPC   C3A12569  41.570  34.542   7.964
  737POPC   C4A12570  41.608  34.584   7.664
  737POPC   C1B12571  41.722  34.681   8.564
  737POPC   C2B12572  41.737  34.712   8.264
  737POPC   C3B12573  41.761  34.755   7.964
  737POPC   C4B12574  41.813  34.662   7.664
  738POPC   NC312575  12.078  26.008   9.464
  738POPC   PO412576  12.043  26.031   9.164
  738POPC   GL112577  12.088  26.091   8.864
  738POPC   GL212578  12.022  26.143   8.864
  738POPC   C1A12579  12.034  26.082   8.564
  738POPC   D2A12580  12.122  26.074   8.264
  738POPC   C3A12581  12.107  26.042   7.964
  738POPC   C4A12582  12.030  26.009   7.664
  738POPC   C1B12583  12.026  26.261   8.564
  738POPC   C2B12584  12.029  26.270   8.264
  738POPC   C3B12585  12.031  26.287   7.964
  738POPC   C4B12586  12.037  26.294   7.664
  739POPC   NC312587  22.172  40.049   9.464
  739POPC   PO412588  22.182  39.965   9.164
  739POPC   GL112589  22.139  40.011   8.864
  739POPC   GL212590  22.105  40.069   8.864
  739POPC   C1A12591  22.210  40.052   8.564
  739POPC   D2A12592  22.207  40.016   8.264
  739POPC   C3A12593  22.179  39.973   7.964
  739POPC   C4A12594  22.115  40.043   7.664
  739POPC   C1B12595  22.058  40.276   8.564
  739POPC   C2B12596  22.039  40.194   8.264
  739POPC   C3B12597  22.027  40.210   7.964
  739POPC   C4B12598  22.077  40.181   7.664
  740POPC   NC312599   3.574  42.320   9.464
  740POPC   PO412600   3.584  42.355   9.164
  740POPC   GL112601   3.512  42.301   8.864
  740POPC   GL212602   3.677  42.298   8.864
  740POPC   C1A12603   3.588  42.324   8.564
  740POPC   D2A12604   3.540  42.291   8.264
  740POPC   C3A12605   3.590  42.286   7.964
  740POPC   C4A12606   3.558  42.348   7.664
  740POPC   C1B12607   3.826  42.376   8.564
  740POPC   C2B12608   3.793  42.377   8.264
  740POPC   C3B12609   3.789  42.385   7.964
  740POPC   C4B12610   3.751  42.374   7.664
  741POPC   NC312611  26.855   1.234   9.464
  741POPC   PO412612  26.804   1.250   9.164
  741POPC   GL112613  26.821   1.231   8.864
  741POPC   GL212614  26.849   1.280   8.864
  741POPC   C1A12615  26.843   1.238   8.564
  741POPC   D2A12616  26.779   1.186   8.264
  741POPC   C3A12617  26.854   1.244   7.964
  741POPC   C4A12618  26.777   1.166   7.664
  741POPC   C1B12619  26.898   1.482   8.564
  741POPC   C2B12620  26.958   1.399   8.264
  741POPC   C3B12621  26.901   1.433   7.964
  741POPC   C4B12622  26.911   1.387   7.664
  742POPC   NC312623  25.220  32.263   9.464
  742POPC   PO412624  25.226  32.232   9.164
  742POPC   GL112625  25.265  32.231   8.864
  742POPC   GL212626  25.167  32.189   8.864
  742POPC   C1A12627  25.254  32.277   8.564
  742POPC   D2A12628  25.288  32.288   8.264
  742POPC   C3A12629  25.254  32.293   7.964
  742POPC   C4A12630  25.258  32.283   7.664
  742POPC   C1B12631  25.176  32.072   8.564
  742POPC   C2B12632  25.159  32.078   8.264
  742POPC   C3B12633  25.160  32.035   7.964
  742POPC   C4B12634  25.152  32.067   7.664
  743POPC   NC312635  20.596   6.653   9.464
  743POPC   PO412636  20.641   6.651   9.164
  743POPC   GL112637  20.614   6.632   8.864
  743POPC   GL212638  20.588   6.568   8.864
  743POPC   C1A12639  20.628   6.689   8.564
  743POPC   D2A12640  20.646   6.636   8.264
  743POPC   C3A12641  20.586   6.597   7.964
  743POPC   C4A12642  20.609   6.608   7.664
  743POPC   C1B12643  20.575   6.385   8.564
  743POPC   C2B12644  20.583   6.424   8.264
  743POPC   C3B12645  20.558   6.435   7.964
  743POPC   C4B12646  20.501   6.446   7.664
  744POPC   NC312647  13.578  10.547   9.464
  744POPC   PO412648  13.612  10.546   9.164
  744POPC   GL112649  13.643  10.545   8.864
  744POPC   GL212650  13.706  10.431   8.864
  744POPC   C1A12651  13.636  10.559   8.564
  744POPC   D2A12652  13.633  10.494   8.264
  744POPC   C3A12653  13.650  10.568   7.964
  744POPC   C4A12654  13.641  10.500   7.664
  744POPC   C1B12655  13.849  10.427   8.564
  744POPC   C2B12656  13.867  10.393   8.264
  744POPC   C3B12657  13.884  10.370   7.964
  744POPC   C4B12658  13.821  10.451   7.664
  745POPC   NC312659   3.541  12.073   9.464
  745POPC   PO412660   3.572  12.088   9.164
  745POPC   GL112661   3.561  12.059   8.864
  745POPC   GL212662   3.589  11.936   8.864
  745POPC   C1A12663   3.495  12.074   8.564
  745POPC   D2A12664   3.550  12.065   8.264
  745POPC   C3A12665   3.577  12.069   7.964
  745POPC   C4A12666   3.519  12.095   7.664
  745POPC   C1B12667   3.692  11.902   8.564
  745POPC   C2B12668   3.696  11.865   8.264
  745POPC   C3B12669   3.695  11.833   7.964
  745POPC   C4B12670   3.647  11.850   7.664
  746POPC   NC312671  20.612  28.323   9.464
  746POPC   PO412672  20.633  28.365   9.164
  746POPC   GL112673  20.562  28.325   8.864
  746POPC   GL212674  20.486  28.368   8.864
  746POPC   C1A12675  20.614  28.409   8.564
  746POPC   D2A12676  20.627  28.388   8.264
  746POPC   C3A12677  20.652  28.392   7.964
  746POPC   C4A12678  20.630  28.413   7.664
  746POPC   C1B12679  20.370  28.301   8.564
  746POPC   C2B12680  20.333  28.265   8.264
  746POPC   C3B12681  20.370  28.326   7.964
  746POPC   C4B12682  20.402  28.319   7.664
  747POPC   NC312683  20.606   5.825   9.464
  747POPC   PO412684  20.626   5.855   9.164
  747POPC   GL112685  20.611   5.881   8.864
  747POPC   GL212686  20.645   5.991   8.864
  747POPC   C1A12687  20.654   5.884   8.564
  747POPC   D2A12688  20.643   5.888   8.264
  747POPC   C3A12689  20.621   5.887   7.964
  747POPC   C4A12690  20.634   5.885   7.664
  747POPC   C1B12691  20.690   6.061   8.564
  747POPC   C2B12692  20.671   6.157   8.264
  747POPC   C3B12693  20.692   6.110   7.964
  747POPC   C4B12694  20.648   6.098   7.664
  748POPC   NC312695  18.255  34.624   9.464
  748POPC   PO412696  18.253  34.532   9.164
  748POPC   GL112697  18.252  34.607   8.864
  748POPC   GL212698  18.243  34.484   8.864
  748POPC   C1A12699  18.256  34.542   8.564
  748POPC   D2A12700  18.253  34.552   8.264
  748POPC   C3A12701  18.248  34.574   7.964
  748POPC   C4A12702  18.324  34.584   7.664
  748POPC   C1B12703  18.103  34.350   8.564
  748POPC   C2B12704  18.149  34.329   8.264
  748POPC   C3B12705  18.137  34.342   7.964
  748POPC   C4B12706  18.147  34.348   7.664
  749POPC   NC312707  27.623  22.947   9.464
  749POPC   PO412708  27.600  22.947   9.164
  749POPC   GL112709  27.627  22.964   8.864
  749POPC   GL212710  27.710  22.940   8.864
  749POPC   C1A12711  27.618  22.921   8.564
  749POPC   D2A12712  27.617  22.922   8.264
  749POPC   C3A12713  27.634  22.914   7.964
  749POPC   C4A12714  27.582  22.957   7.664
  749POPC   C1B12715  27.888  22.923   8.564
  749POPC   C2B12716  27.848  22.952   8.264
  749POPC   C3B12717  27.831  22.942   7.964
  749POPC   C4B12718  27.808  22.922   7.664
  750POPC   NC312719  33.040  41.531   9.464
  750POPC   PO412720  33.066  41.581   9.164
  750POPC   GL112721  33.071  41.514   8.864
  750POPC   GL212722  33.103  41.693   8.864
  750POPC   C1A12723  32.998  41.525   8.564
  750POPC   D2A12724  32.984  41.525   8.264
  750POPC   C3A12725  33.071  41.588   7.964
  750POPC   C4A12726  32.980  41.599   7.664
  750POPC   C1B12727  33.150  41.800   8.564
  750POPC   C2B12728  33.190  41.717   8.264
  750POPC   C3B12729  33.157  41.780   7.964
  750POPC   C4B12730  33.158  41.733   7.664
  751POPC   NC312731  25.253  33.045   9.464
  751POPC   PO412732  25.234  33.034   9.164
  751POPC   GL112733  25.279  33.022   8.864
  751POPC   GL212734  25.287  32.902   8.864
  751POPC   C1A12735  25.242  33.009   8.564
  751POPC   D2A12736  25.218  32.976   8.264
  751POPC   C3A12737  25.294  32.999   7.964
  751POPC   C4A12738  25.248  32.978   7.664
  751POPC   C1B12739  25.437  32.797   8.564
  751POPC   C2B12740  25.368  32.780   8.264
  751POPC   C3B12741  25.434  32.838   7.964
  751POPC   C4B12742  25.434  32.831   7.664
  752POPC   NC312743  26.064  19.847   9.464
  752POPC   PO412744  26.009  19.799   9.164
  752POPC   GL112745  26.074  19.801   8.864
  752POPC   GL212746  26.121  19.801   8.864
  752POPC   C1A12747  25.992  19.789   8.564
  752POPC   D2A12748  26.091  19.872   8.264
  752POPC   C3A12749  26.070  19.846   7.964
  752POPC   C4A12750  26.041  19.793   7.664
  752POPC   C1B12751  26.328  19.821   8.564
  752POPC   C2B12752  26.265  19.768   8.264
  752POPC   C3B12753  26.277  19.821   7.964
  752POPC   C4B12754  26.315  19.811   7.664
  753POPC   NC312755   8.181  43.100   9.464
  753POPC   PO412756   8.221  43.094   9.164
  753POPC   GL112757   8.225  43.090   8.864
  753POPC   GL212758   8.079  43.022   8.864
  753POPC   C1A12759   8.244  43.074   8.564
  753POPC   D2A12760   8.228  43.096   8.264
  753POPC   C3A12761   8.151  43.080   7.964
  753POPC   C4A12762   8.179  43.070   7.664
  753POPC   C1B12763   8.024  42.910   8.564
  753POPC   C2B12764   8.045  42.904   8.264
  753POPC   C3B12765   8.049  42.912   7.964
  753POPC   C4B12766   7.987  42.917   7.664
  754POPC   NC312767   8.986   2.022   9.464
  754POPC   PO412768   8.931   2.012   9.164
  754POPC   GL112769   8.966   1.966   8.864
  754POPC   GL212770   8.933   2.060   8.864
  754POPC   C1A12771   8.971   1.956   8.564
  754POPC   D2A12772   8.998   1.986   8.264
  754POPC   C3A12773   8.973   1.950   7.964
  754POPC   C4A12774   8.942   2.007   7.664
  754POPC   C1B12775   8.802   2.201   8.564
  754POPC   C2B12776   8.852   2.208   8.264
  754POPC   C3B12777   8.867   2.187   7.964
  754POPC   C4B12778   8.891   2.234   7.664
  755POPC   NC312779  42.361  11.304   9.464
  755POPC   PO412780  42.302  11.274   9.164
  755POPC   GL112781  42.347  11.268   8.864
  755POPC   GL212782  42.419  11.206   8.864
  755POPC   C1A12783  42.295  11.322   8.564
  755POPC   D2A12784  42.346  11.334   8.264
  755POPC   C3A12785  42.340  11.331   7.964
  755POPC   C4A12786  42.305  11.275   7.664
  755POPC   C1B12787  42.581  11.190   8.564
  755POPC   C2B12788  42.511  11.185   8.264
  755POPC   C3B12789  42.514  11.154   7.964
  755POPC   C4B12790  42.509  11.211   7.664
  756POPC   NC312791  22.942  29.971   9.464
  756POPC   PO412792  22.917  29.922   9.164
  756POPC   GL112793  22.898  29.959   8.864
  756POPC   GL212794  23.018  29.859   8.864
  756POPC   C1A12795  22.940  29.933   8.564
  756POPC   D2A12796  22.934  29.895   8.264
  756POPC   C3A12797  22.925  29.930   7.964
  756POPC   C4A12798  22.922  29.954   7.664
  756POPC   C1B12799  23.122  29.807   8.564
  756POPC   C2B12800  23.174  29.826   8.264
  756POPC   C3B12801  23.178  29.768   7.964
  756POPC   C4B12802  23.140  29.830   7.664
  757POPC   NC312803  26.832  22.928   9.464
  757POPC   PO412804  26.772  22.985   9.164
  757POPC   GL112805  26.795  22.961   8.864
  757POPC   GL212806  26.870  22.786   8.864
  757POPC   C1A12807  26.849  22.896   8.564
  757POPC   D2A12808  26.843  22.966   8.264
  757POPC   C3A12809  26.865  22.900   7.964
  757POPC   C4A12810  26.818  22.985   7.664
  757POPC   C1B12811  26.878  22.731   8.564
  757POPC   C2B12812  26.849  22.727   8.264
  757POPC   C3B12813  26.846  22.698   7.964
  757POPC   C4B12814  26.876  22.737   7.664
  758POPC   NC312815  23.753  13.592   9.464
  758POPC   PO412816  23.743  13.579   9.164
  758POPC   GL112817  23.761  13.612   8.864
  758POPC   GL212818  23.609  13.527   8.864
  758POPC   C1A12819  23.698  13.582   8.564
  758POPC   D2A12820  23.757  13.614   8.264
  758POPC   C3A12821  23.755  13.638   7.964
  758POPC   C4A12822  23.728  13.655   7.664
  758POPC   C1B12823  23.579  13.410   8.564
  758POPC   C2B12824  23.560  13.494   8.264
  758POPC   C3B12825  23.541  13.483   7.964
  758POPC   C4B12826  23.571  13.472   7.664
  759POPC   NC312827  39.274  29.895   9.464
  759POPC   PO412828  39.213  29.906   9.164
  759POPC   GL112829  39.208  29.915   8.864
  759POPC   GL212830  39.211  29.814   8.864
  759POPC   C1A12831  39.245  29.969   8.564
  759POPC   D2A12832  39.251  29.883   8.264
  759POPC   C3A12833  39.261  29.880   7.964
  759POPC   C4A12834  39.230  29.916   7.664
  759POPC   C1B12835  39.306  29.656   8.564
  759POPC   C2B12836  39.327  29.626   8.264
  759POPC   C3B12837  39.252  29.631   7.964
  759POPC   C4B12838  39.234  29.641   7.664
  760POPC   NC312839  24.458  19.046   9.464
  760POPC   PO412840  24.461  19.049   9.164
  760POPC   GL112841  24.529  19.088   8.864
  760POPC   GL212842  24.382  19.211   8.864
  760POPC   C1A12843  24.486  19.051   8.564
  760POPC   D2A12844  24.539  19.105   8.264
  760POPC   C3A12845  24.529  19.056   7.964
  760POPC   C4A12846  24.442  19.064   7.664
  760POPC   C1B12847  24.314  19.221   8.564
  760POPC   C2B12848  24.352  19.302   8.264
  760POPC   C3B12849  24.377  19.218   7.964
  760POPC   C4B12850  24.353  19.241   7.664
  761POPC   NC312851  22.144  21.367   9.464
  761POPC   PO412852  22.124  21.359   9.164
  761POPC   GL112853  22.114  21.375   8.864
  761POPC   GL212854  22.034  21.406   8.864
  761POPC   C1A12855  22.133  21.406   8.564
  761POPC   D2A12856  22.170  21.358   8.264
  761POPC   C3A12857  22.138  21.401   7.964
  761POPC   C4A12858  22.141  21.419   7.664
  761POPC   C1B12859  21.956  21.452   8.564
  761POPC   C2B12860  21.895  21.427   8.264
  761POPC   C3B12861  21.918  21.406   7.964
  761POPC   C4B12862  21.934  21.416   7.664
  762POPC   NC312863   9.782  43.137   9.464
  762POPC   PO412864   9.738  43.088   9.164
  762POPC   GL112865   9.765  43.109   8.864
  762POPC   GL212866   9.752  43.220   8.864
  762POPC   C1A12867   9.749  43.153   8.564
  762POPC   D2A12868   9.741  43.120   8.264
  762POPC   C3A12869   9.722  43.089   7.964
  762POPC   C4A12870   9.771  43.125   7.664
  762POPC   C1B12871   9.825  43.356   8.564
  762POPC   C2B12872   9.787  43.332   8.264
  762POPC   C3B12873   9.800  43.351   7.964
  762POPC   C4B12874   9.817  43.324   7.664
  763POPC   NC312875   5.074   8.952   9.464
  763POPC   PO412876   5.053   8.939   9.164
  763POPC   GL112877   5.139   8.956   8.864
  763POPC   GL212878   5.096   8.882   8.864
  763POPC   C1A12879   5.066   9.019   8.564
  763POPC   D2A12880   5.127   8.955   8.264
  763POPC   C3A12881   5.140   8.957   7.964
  763POPC   C4A12882   5.123   8.956   7.664
  763POPC   C1B12883   4.978   8.741   8.564
  763POPC   C2B12884   5.018   8.711   8.264
  763POPC   C3B12885   5.014   8.776   7.964
  763POPC   C4B12886   5.029   8.719   7.664
  764POPC   NC312887  27.619  28.399   9.464
  764POPC   PO412888  27.601  28.353   9.164
  764POPC   GL112889  27.575  28.327   8.864
  764POPC   GL212890  27.667  28.398   8.864
  764POPC   C1A12891  27.596  28.355   8.564
  764POPC   D2A12892  27.544  28.322   8.264
  764POPC   C3A12893  27.607  28.347   7.964
  764POPC   C4A12894  27.578  28.345   7.664
  764POPC   C1B12895  27.823  28.500   8.564
  764POPC   C2B12896  27.845  28.514   8.264
  764POPC   C3B12897  27.811  28.473   7.964
  764POPC   C4B12898  27.846  28.486   7.664
  765POPC   NC312899  31.480  24.481   9.464
  765POPC   PO412900  31.520  24.531   9.164
  765POPC   GL112901  31.429  24.538   8.864
  765POPC   GL212902  31.466  24.628   8.864
  765POPC   C1A12903  31.476  24.537   8.564
  765POPC   D2A12904  31.447  24.489   8.264
  765POPC   C3A12905  31.521  24.522   7.964
  765POPC   C4A12906  31.488  24.483   7.664
  765POPC   C1B12907  31.435  24.743   8.564
  765POPC   C2B12908  31.490  24.702   8.264
  765POPC   C3B12909  31.438  24.728   7.964
  765POPC   C4B12910  31.393  24.770   7.664
  766POPC   NC312911  20.615  22.969   9.464
  766POPC   PO412912  20.603  22.925   9.164
  766POPC   GL112913  20.620  22.944   8.864
  766POPC   GL212914  20.691  22.960   8.864
  766POPC   C1A12915  20.632  22.891   8.564
  766POPC   D2A12916  20.605  22.904   8.264
  766POPC   C3A12917  20.575  22.976   7.964
  766POPC   C4A12918  20.649  22.892   7.664
  766POPC   C1B12919  20.838  22.978   8.564
  766POPC   C2B12920  20.874  22.975   8.264
  766POPC   C3B12921  20.846  22.983   7.964
  766POPC   C4B12922  20.850  22.959   7.664
  767POPC   NC312923  13.677  28.387   9.464
  767POPC   PO412924  13.628  28.320   9.164
  767POPC   GL112925  13.617  28.331   8.864
  767POPC   GL212926  13.553  28.501   8.864
  767POPC   C1A12927  13.644  28.322   8.564
  767POPC   D2A12928  13.652  28.354   8.264
  767POPC   C3A12929  13.677  28.386   7.964
  767POPC   C4A12930  13.647  28.322   7.664
  767POPC   C1B12931  13.622  28.592   8.564
  767POPC   C2B12932  13.594  28.589   8.264
  767POPC   C3B12933  13.568  28.577   7.964
  767POPC   C4B12934  13.549  28.612   7.664
  768POPC   NC312935   5.828  26.017   9.464
  768POPC   PO412936   5.870  26.035   9.164
  768POPC   GL112937   5.915  26.082   8.864
  768POPC   GL212938   5.714  26.069   8.864
  768POPC   C1A12939   5.881  26.055   8.564
  768POPC   D2A12940   5.840  26.002   8.264
  768POPC   C3A12941   5.824  26.083   7.964
  768POPC   C4A12942   5.841  25.997   7.664
  768POPC   C1B12943   5.638  26.190   8.564
  768POPC   C2B12944   5.635  26.196   8.264
  768POPC   C3B12945   5.698  26.132   7.964
  768POPC   C4B12946   5.643  26.199   7.664
  769POPC   NC312947  21.418  18.327   9.464
  769POPC   PO412948  21.435  18.311   9.164
  769POPC   GL112949  21.387  18.278   8.864
  769POPC   GL212950  21.335  18.408   8.864
  769POPC   C1A12951  21.376  18.291   8.564
  769POPC   D2A12952  21.431  18.291   8.264
  769POPC   C3A12953  21.387  18.310   7.964
  769POPC   C4A12954  21.396  18.317   7.664
  769POPC   C1B12955  21.217  18.478   8.564
  769POPC   C2B12956  21.228  18.505   8.264
  769POPC   C3B12957  21.306  18.496   7.964
  769POPC   C4B12958  21.261  18.457   7.664
  770POPC   NC312959  18.269   8.936   9.464
  770POPC   PO412960  18.279   8.947   9.164
  770POPC   GL112961  18.254   8.941   8.864
  770POPC   GL212962  18.398   8.998   8.864
  770POPC   C1A12963  18.259   9.010   8.564
  770POPC   D2A12964  18.234   8.982   8.264
  770POPC   C3A12965  18.318   8.980   7.964
  770POPC   C4A12966  18.263   9.005   7.664
  770POPC   C1B12967  18.558   8.965   8.564
  770POPC   C2B12968  18.564   9.008   8.264
  770POPC   C3B12969  18.573   8.971   7.964
  770POPC   C4B12970  18.562   9.016   7.664
  771POPC   NC312971   1.206  39.252   9.464
  771POPC   PO412972   1.233  39.244   9.164
  771POPC   GL112973   1.179  39.204   8.864
  771POPC   GL212974   1.313  39.260   8.864
  771POPC   C1A12975   1.257  39.225   8.564
  771POPC   D2A12976   1.213  39.252   8.264
  771POPC   C3A12977   1.187  39.253   7.964
  771POPC   C4A12978   1.192  39.273   7.664
  771POPC   C1B12979   1.481  39.189   8.564
  771POPC   C2B12980   1.446  39.252   8.264
  771POPC   C3B12981   1.451  39.182   7.964
  771POPC   C4B12982   1.466  39.212   7.664
  772POPC   NC312983  34.547  40.750   9.464
  772POPC   PO412984  34.568  40.814   9.164
  772POPC   GL112985  34.619  40.738   8.864
  772POPC   GL212986  34.583  40.676   8.864
  772POPC   C1A12987  34.561  40.751   8.564
  772POPC   D2A12988  34.581  40.753   8.264
  772POPC   C3A12989  34.534  40.739   7.964
  772POPC   C4A12990  34.546  40.826   7.664
  772POPC   C1B12991  34.587  40.579   8.564
  772POPC   C2B12992  34.583  40.555   8.264
  772POPC   C3B12993  34.522  40.522   7.964
  772POPC   C4B12994  34.558  40.576   7.664
  773POPC   NC312995  34.559  28.351   9.464
  773POPC   PO412996  34.579  28.414   9.164
  773POPC   GL112997  34.570  28.336   8.864
  773POPC   GL212998  34.719  28.381   8.864
  773POPC   C1A12999  34.559  28.413   8.564
  773POPC   D2A13000  34.552  28.408   8.264
  773POPC   C3A13001  34.566  28.329   7.964
  773POPC   C4A13002  34.540  28.334   7.664
  773POPC   C1B13003  34.808  28.316   8.564
  773POPC   C2B13004  34.831  28.351   8.264
  773POPC   C3B13005  34.789  28.364   7.964
  773POPC   C4B13006  34.819  28.338   7.664
  774POPC   NC313007  29.119  42.373   9.464
  774POPC   PO413008  29.099  42.378   9.164
  774POPC   GL113009  29.189  42.334   8.864
  774POPC   GL213010  29.279  42.234   8.864
  774POPC   C1A13011  29.106  42.368   8.564
  774POPC   D2A13012  29.143  42.331   8.264
  774POPC   C3A13013  29.096  42.308   7.964
  774POPC   C4A13014  29.124  42.306   7.664
  774POPC   C1B13015  29.372  42.195   8.564
  774POPC   C2B13016  29.359  42.177   8.264
  774POPC   C3B13017  29.352  42.174   7.964
  774POPC   C4B13018  29.350  42.228   7.664
  775POPC   NC313019  40.789  31.461   9.464
  775POPC   PO413020  40.745  31.515   9.164
  775POPC   GL113021  40.748  31.474   8.864
  775POPC   GL213022  40.851  31.335   8.864
  775POPC   C1A13023  40.794  31.496   8.564
  775POPC   D2A13024  40.803  31.463   8.264
  775POPC   C3A13025  40.757  31.463   7.964
  775POPC   C4A13026  40.766  31.448   7.664
  775POPC   C1B13027  40.864  31.247   8.564
  775POPC   C2B13028  40.798  31.208   8.264
  775POPC   C3B13029  40.784  31.186   7.964
  775POPC   C4B13030  40.870  31.183   7.664
  776POPC   NC313031   9.742  36.174   9.464
  776POPC   PO413032   9.700  36.078   9.164
  776POPC   GL113033   9.756  36.126   8.864
  776POPC   GL213034   9.781  35.980   8.864
  776POPC   C1A13035   9.760  36.114   8.564
  776POPC   D2A13036   9.793  36.086   8.264
  776POPC   C3A13037   9.737  36.141   7.964
  776POPC   C4A13038   9.797  36.162   7.664
  776POPC   C1B13039   9.749  35.854   8.564
  776POPC   C2B13040   9.818  35.908   8.264
  776POPC   C3B13041   9.736  35.871   7.964
  776POPC   C4B13042   9.773  35.858   7.664
  777POPC   NC313043  15.129  16.690   9.464
  777POPC   PO413044  15.170  16.691   9.164
  777POPC   GL113045  15.152  16.712   8.864
  777POPC   GL213046  15.060  16.694   8.864
  777POPC   C1A13047  15.138  16.685   8.564
  777POPC   D2A13048  15.192  16.735   8.264
  777POPC   C3A13049  15.218  16.684   7.964
  777POPC   C4A13050  15.207  16.773   7.664
  777POPC   C1B13051  14.979  16.566   8.564
  777POPC   C2B13052  14.956  16.592   8.264
  777POPC   C3B13053  14.977  16.577   7.964
  777POPC   C4B13054  14.941  16.640   7.664
  778POPC   NC313055  33.061  44.646   9.464
  778POPC   PO413056  33.010  44.617   9.164
  778POPC   GL113057  33.031  44.698   8.864
  778POPC   GL213058  32.884  44.692   8.864
  778POPC   C1A13059  33.038  44.698   8.564
  778POPC   D2A13060  33.002  44.706   8.264
  778POPC   C3A13061  33.026  44.621   7.964
  778POPC   C4A13062  33.010  44.683   7.664
  778POPC   C1B13063  32.797  44.657   8.564
  778POPC   C2B13064  32.813  44.682   8.264
  778POPC   C3B13065  32.817  44.680   7.964
  778POPC   C4B13066  32.772  44.673   7.664
  779POPC   NC313067   0.485  42.309   9.464
  779POPC   PO413068   0.446  42.355   9.164
  779POPC   GL113069   0.398  42.318   8.864
  779POPC   GL213070   0.539  42.319   8.864
  779POPC   C1A13071   0.441  42.375   8.564
  779POPC   D2A13072   0.415  42.375   8.264
  779POPC   C3A13073   0.436  42.292   7.964
  779POPC   C4A13074   0.468  42.285   7.664
  779POPC   C1B13075   0.629  42.244   8.564
  779POPC   C2B13076   0.716  42.240   8.264
  779POPC   C3B13077   0.722  42.283   7.964
  779POPC   C4B13078   0.675  42.276   7.664
  780POPC   NC313079  36.156  15.937   9.464
  780POPC   PO413080  36.105  15.950   9.164
  780POPC   GL113081  36.122  15.995   8.864
  780POPC   GL213082  36.287  15.959   8.864
  780POPC   C1A13083  36.121  15.994   8.564
  780POPC   D2A13084  36.168  16.003   8.264
  780POPC   C3A13085  36.110  16.003   7.964
  780POPC   C4A13086  36.120  15.918   7.664
  780POPC   C1B13087  36.359  15.890   8.564
  780POPC   C2B13088  36.375  15.943   8.264
  780POPC   C3B13089  36.342  15.875   7.964
  780POPC   C4B13090  36.328  15.926   7.664
  781POPC   NC313091  23.734  26.852   9.464
  781POPC   PO413092  23.711  26.865   9.164
  781POPC   GL113093  23.710  26.779   8.864
  781POPC   GL213094  23.751  26.661   8.864
  781POPC   C1A13095  23.745  26.778   8.564
  781POPC   D2A13096  23.688  26.850   8.264
  781POPC   C3A13097  23.695  26.787   7.964
  781POPC   C4A13098  23.686  26.791   7.664
  781POPC   C1B13099  23.713  26.554   8.564
  781POPC   C2B13100  23.729  26.585   8.264
  781POPC   C3B13101  23.704  26.589   7.964
  781POPC   C4B13102  23.776  26.536   7.664
  782POPC   NC313103  33.808  20.599   9.464
  782POPC   PO413104  33.833  20.587   9.164
  782POPC   GL113105  33.834  20.645   8.864
  782POPC   GL213106  33.710  20.537   8.864
  782POPC   C1A13107  33.766  20.589   8.564
  782POPC   D2A13108  33.755  20.618   8.264
  782POPC   C3A13109  33.840  20.633   7.964
  782POPC   C4A13110  33.788  20.637   7.664
  782POPC   C1B13111  33.576  20.510   8.564
  782POPC   C2B13112  33.622  20.507   8.264
  782POPC   C3B13113  33.551  20.454   7.964
  782POPC   C4B13114  33.635  20.447   7.664
  783POPC   NC313115  44.675  44.669   9.464
  783POPC   PO413116  44.711  44.673   9.164
  783POPC   GL113117  44.699  44.686   8.864
  783POPC   GL213118  44.641  44.784   8.864
  783POPC   C1A13119  44.668  44.672   8.564
  783POPC   D2A13120  44.698  44.698   8.264
  783POPC   C3A13121  44.658  44.656   7.964
  783POPC   C4A13122  44.654  44.707   7.664
  783POPC   C1B13123  44.680  44.935   8.564
  783POPC   C2B13124  44.640  44.862   8.264
  783POPC   C3B13125  44.649  44.866   7.964
  783POPC   C4B13126  44.638  44.897   7.664
  784POPC   NC313127  33.023  43.916   9.464
  784POPC   PO413128  33.001  43.935   9.164
  784POPC   GL113129  33.031  43.926   8.864
  784POPC   GL213130  32.860  43.888   8.864
  784POPC   C1A13131  32.996  43.911   8.564
  784POPC   D2A13132  33.054  43.906   8.264
  784POPC   C3A13133  33.051  43.840   7.964
  784POPC   C4A13134  32.982  43.912   7.664
  784POPC   C1B13135  32.808  43.852   8.564
  784POPC   C2B13136  32.798  43.796   8.264
  784POPC   C3B13137  32.763  43.805   7.964
  784POPC   C4B13138  32.738  43.798   7.664
  785POPC   NC313139  29.107  21.409   9.464
  785POPC   PO413140  29.170  21.397   9.164
  785POPC   GL113141  29.095  21.376   8.864
  785POPC   GL213142  29.111  21.441   8.864
  785POPC   C1A13143  29.105  21.419   8.564
  785POPC   D2A13144  29.104  21.347   8.264
  785POPC   C3A13145  29.114  21.413   7.964
  785POPC   C4A13146  29.154  21.433   7.664
  785POPC   C1B13147  29.033  21.583   8.564
  785POPC   C2B13148  29.025  21.622   8.264
  785POPC   C3B13149  29.026  21.624   7.964
  785POPC   C4B13150  28.966  21.612   7.664
  786POPC   NC313151  40.814  41.514   9.464
  786POPC   PO413152  40.783  41.518   9.164
  786POPC   GL113153  40.801  41.543   8.864
  786POPC   GL213154  40.883  41.529   8.864
  786POPC   C1A13155  40.788  41.600   8.564
  786POPC   D2A13156  40.790  41.578   8.264
  786POPC   C3A13157  40.830  41.596   7.964
  786POPC   C4A13158  40.821  41.585   7.664
  786POPC   C1B13159  40.967  41.447   8.564
  786POPC   C2B13160  40.949  41.450   8.264
  786POPC   C3B13161  41.017  41.377   7.964
  786POPC   C4B13162  40.994  41.424   7.664
  787POPC   NC313163   1.235  37.683   9.464
  787POPC   PO413164   1.197  37.674   9.164
  787POPC   GL113165   1.259  37.638   8.864
  787POPC   GL213166   1.163  37.786   8.864
  787POPC   C1A13167   1.261  37.652   8.564
  787POPC   D2A13168   1.226  37.672   8.264
  787POPC   C3A13169   1.219  37.662   7.964
  787POPC   C4A13170   1.227  37.700   7.664
  787POPC   C1B13171   1.003  37.881   8.564
  787POPC   C2B13172   1.009  37.830   8.264
  787POPC   C3B13173   1.046  37.908   7.964
  787POPC   C4B13174   1.023  37.820   7.664
  788POPC   NC313175   8.946  38.493   9.464
  788POPC   PO413176   8.939  38.498   9.164
  788POPC   GL113177   8.992  38.422   8.864
  788POPC   GL213178   9.139  38.459   8.864
  788POPC   C1A13179   9.008  38.476   8.564
  788POPC   D2A13180   8.985  38.445   8.264
  788POPC   C3A13181   8.979  38.453   7.964
  788POPC   C4A13182   8.937  38.422   7.664
  788POPC   C1B13183   9.201  38.353   8.564
  788POPC   C2B13184   9.184  38.337   8.264
  788POPC   C3B13185   9.216  38.381   7.964
  788POPC   C4B13186   9.163  38.371   7.664
  789POPC   NC313187  24.524  41.603   9.464
  789POPC   PO413188  24.527  41.592   9.164
  789POPC   GL113189  24.516  41.572   8.864
  789POPC   GL213190  24.594  41.506   8.864
  789POPC   C1A13191  24.507  41.607   8.564
  789POPC   D2A13192  24.536  41.556   8.264
  789POPC   C3A13193  24.464  41.601   7.964
  789POPC   C4A13194  24.492  41.573   7.664
  789POPC   C1B13195  24.666  41.404   8.564
  789POPC   C2B13196  24.724  41.444   8.264
  789POPC   C3B13197  24.698  41.406   7.964
  789POPC   C4B13198  24.673  41.424   7.664
  790POPC   NC313199   1.170  22.890   9.464
  790POPC   PO413200   1.190  22.953   9.164
  790POPC   GL113201   1.239  22.981   8.864
  790POPC   GL213202   1.309  22.930   8.864
  790POPC   C1A13203   1.239  22.889   8.564
  790POPC   D2A13204   1.243  22.933   8.264
  790POPC   C3A13205   1.220  22.954   7.964
  790POPC   C4A13206   1.263  22.903   7.664
  790POPC   C1B13207   1.437  22.913   8.564
  790POPC   C2B13208   1.451  22.899   8.264
  790POPC   C3B13209   1.432  22.884   7.964
  790POPC   C4B13210   1.462  22.849   7.664
  791POPC   NC313211   0.430  22.911   9.464
  791POPC   PO413212   0.439  22.939   9.164
  791POPC   GL113213   0.456  22.977   8.864
  791POPC   GL213214   0.519  22.991   8.864
  791POPC   C1A13215   0.456  22.900   8.564
  791POPC   D2A13216   0.475  22.901   8.264
  791POPC   C3A13217   0.442  22.947   7.964
  791POPC   C4A13218   0.457  22.892   7.664
  791POPC   C1B13219   0.634  23.123   8.564
  791POPC   C2B13220   0.577  23.141   8.264
  791POPC   C3B13221   0.583  23.104   7.964
  791POPC   C4B13222   0.615  23.089   7.664
  792POPC   NC313223  36.144  19.015   9.464
  792POPC   PO413224  36.155  19.099   9.164
  792POPC   GL113225  36.171  19.055   8.864
  792POPC   GL213226  36.130  19.137   8.864
  792POPC   C1A13227  36.134  19.090   8.564
  792POPC   D2A13228  36.120  19.065   8.264
  792POPC   C3A13229  36.080  19.054   7.964
  792POPC   C4A13230  36.083  19.035   7.664
  792POPC   C1B13231  36.003  19.245   8.564
  792POPC   C2B13232  36.005  19.264   8.264
  792POPC   C3B13233  36.058  19.293   7.964
  792POPC   C4B13234  36.084  19.328   7.664
  793POPC   NC313235  20.650  34.571   9.464
  793POPC   PO413236  20.613  34.527   9.164
  793POPC   GL113237  20.564  34.580   8.864
  793POPC   GL213238  20.591  34.714   8.864
  793POPC   C1A13239  20.645  34.560   8.564
  793POPC   D2A13240  20.584  34.616   8.264
  793POPC   C3A13241  20.645  34.550   7.964
  793POPC   C4A13242  20.602  34.602   7.664
  793POPC   C1B13243  20.568  34.784   8.564
  793POPC   C2B13244  20.556  34.825   8.264
  793POPC   C3B13245  20.566  34.850   7.964
  793POPC   C4B13246  20.604  34.779   7.664
  794POPC   NC313247  11.283  41.555   9.464
  794POPC   PO413248  11.340  41.574   9.164
  794POPC   GL113249  11.324  41.559   8.864
  794POPC   GL213250  11.215  41.716   8.864
  794POPC   C1A13251  11.316  41.519   8.564
  794POPC   D2A13252  11.345  41.569   8.264
  794POPC   C3A13253  11.269  41.608   7.964
  794POPC   C4A13254  11.264  41.517   7.664
  794POPC   C1B13255  11.165  41.758   8.564
  794POPC   C2B13256  11.194  41.755   8.264
  794POPC   C3B13257  11.148  41.775   7.964
  794POPC   C4B13258  11.222  41.757   7.664
  795POPC   NC313259  37.653  43.839   9.464
  795POPC   PO413260  37.645  43.837   9.164
  795POPC   GL113261  37.711  43.906   8.864
  795POPC   GL213262  37.759  43.844   8.864
  795POPC   C1A13263  37.643  43.927   8.564
  795POPC   D2A13264  37.727  43.884   8.264
  795POPC   C3A13265  37.722  43.866   7.964
  795POPC   C4A13266  37.672  43.920   7.664
  795POPC   C1B13267  37.940  43.867   8.564
  795POPC   C2B13268  37.944  43.872   8.264
  795POPC   C3B13269  37.913  43.824   7.964
  795POPC   C4B13270  37.891  43.813   7.664
  796POPC   NC313271  17.527  20.652   9.464
  796POPC   PO413272  17.475  20.639   9.164
  796POPC   GL113273  17.518  20.612   8.864
  796POPC   GL213274  17.393  20.554   8.864
  796POPC   C1A13275  17.533  20.655   8.564
  796POPC   D2A13276  17.471  20.571   8.264
  796POPC   C3A13277  17.539  20.647   7.964
  796POPC   C4A13278  17.536  20.609   7.664
  796POPC   C1B13279  17.293  20.624   8.564
  796POPC   C2B13280  17.279  20.602   8.264
  796POPC   C3B13281  17.255  20.558   7.964
  796POPC   C4B13282  17.230  20.527   7.664
  797POPC   NC313283   5.866  41.585   9.464
  797POPC   PO413284   5.867  41.515   9.164
  797POPC   GL113285   5.911  41.525   8.864
  797POPC   GL213286   5.737  41.667   8.864
  797POPC   C1A13287   5.825  41.529   8.564
  797POPC   D2A13288   5.843  41.584   8.264
  797POPC   C3A13289   5.863  41.533   7.964
  797POPC   C4A13290   5.890  41.570   7.664
  797POPC   C1B13291   5.648  41.757   8.564
  797POPC   C2B13292   5.669  41.760   8.264
  797POPC   C3B13293   5.701  41.708   7.964
  797POPC   C4B13294   5.743  41.708   7.664
  798POPC   NC313295  22.166   3.563   9.464
  798POPC   PO413296  22.153   3.528   9.164
  798POPC   GL113297  22.152   3.564   8.864
  798POPC   GL213298  22.022   3.599   8.864
  798POPC   C1A13299  22.206   3.559   8.564
  798POPC   D2A13300  22.196   3.583   8.264
  798POPC   C3A13301  22.127   3.504   7.964
  798POPC   C4A13302  22.120   3.517   7.664
  798POPC   C1B13303  22.004   3.703   8.564
  798POPC   C2B13304  21.933   3.668   8.264
  798POPC   C3B13305  21.938   3.710   7.964
  798POPC   C4B13306  21.989   3.699   7.664
  799POPC   NC313307  16.725   4.305   9.464
  799POPC   PO413308  16.730   4.278   9.164
  799POPC   GL113309  16.737   4.278   8.864
  799POPC   GL213310  16.755   4.416   8.864
  799POPC   C1A13311  16.686   4.347   8.564
  799POPC   D2A13312  16.728   4.303   8.264
  799POPC   C3A13313  16.734   4.280   7.964
  799POPC   C4A13314  16.757   4.275   7.664
  799POPC   C1B13315  16.824   4.557   8.564
  799POPC   C2B13316  16.810   4.493   8.264
  799POPC   C3B13317  16.798   4.517   7.964
  799POPC   C4B13318  16.794   4.554   7.664
  800POPC   NC313319   1.263  35.383   9.464
  800POPC   PO413320   1.166  35.329   9.164
  800POPC   GL113321   1.187  35.315   8.864
  800POPC   GL213322   1.293  35.302   8.864
  800POPC   C1A13323   1.245  35.316   8.564
  800POPC   D2A13324   1.168  35.386   8.264
  800POPC   C3A13325   1.260  35.374   7.964
  800POPC   C4A13326   1.241  35.379   7.664
  800POPC   C1B13327   1.439  35.195   8.564
  800POPC   C2B13328   1.421  35.219   8.264
  800POPC   C3B13329   1.389  35.252   7.964
  800POPC   C4B13330   1.391  35.207   7.664
  801POPC   NC313331  22.933  33.042   9.464
  801POPC   PO413332  22.889  33.024   9.164
  801POPC   GL113333  22.949  33.044   8.864
  801POPC   GL213334  23.039  33.097   8.864
  801POPC   C1A13335  22.949  33.000   8.564
  801POPC   D2A13336  22.984  33.071   8.264
  801POPC   C3A13337  22.914  33.045   7.964
  801POPC   C4A13338  22.924  33.070   7.664
  801POPC   C1B13339  23.080  33.201   8.564
  801POPC   C2B13340  23.075  33.292   8.264
  801POPC   C3B13341  23.091  33.210   7.964
  801POPC   C4B13342  23.033  33.292   7.664
  802POPC   NC313343  44.637   8.202   9.464
  802POPC   PO413344  44.711   8.172   9.164
  802POPC   GL113345  44.674   8.244   8.864
  802POPC   GL213346  44.760   8.076   8.864
  802POPC   C1A13347  44.616   8.190   8.564
  802POPC   D2A13348  44.633   8.192   8.264
  802POPC   C3A13349  44.682   8.194   7.964
  802POPC   C4A13350  44.628   8.195   7.664
  802POPC   C1B13351  44.791   7.956   8.564
  802POPC   C2B13352  44.797   7.984   8.264
  802POPC   C3B13353  44.777   7.929   7.964
  802POPC   C4B13354  44.721   7.987   7.664
  803POPC   NC313355  40.764  21.420   9.464
  803POPC   PO413356  40.773  21.371   9.164
  803POPC   GL113357  40.800  21.403   8.864
  803POPC   GL213358  40.739  21.317   8.864
  803POPC   C1A13359  40.750  21.413   8.564
  803POPC   D2A13360  40.781  21.410   8.264
  803POPC   C3A13361  40.824  21.392   7.964
  803POPC   C4A13362  40.828  21.406   7.664
  803POPC   C1B13363  40.706  21.143   8.564
  803POPC   C2B13364  40.666  21.197   8.264
  803POPC   C3B13365  40.655  21.185   7.964
  803POPC   C4B13366  40.639  21.158   7.664
  804POPC   NC313367  43.155  19.031   9.464
  804POPC   PO413368  43.144  19.078   9.164
  804POPC   GL113369  43.140  19.037   8.864
  804POPC   GL213370  43.056  19.165   8.864
  804POPC   C1A13371  43.106  19.036   8.564
  804POPC   D2A13372  43.081  19.024   8.264
  804POPC   C3A13373  43.111  19.035   7.964
  804POPC   C4A13374  43.108  19.046   7.664
  804POPC   C1B13375  43.001  19.307   8.564
  804POPC   C2B13376  43.086  19.284   8.264
  804POPC   C3B13377  42.994  19.294   7.964
  804POPC   C4B13378  42.997  19.269   7.664
  805POPC   NC313379   7.398   6.649   9.464
  805POPC   PO413380   7.465   6.647   9.164
  805POPC   GL113381   7.422   6.689   8.864
  805POPC   GL213382   7.314   6.558   8.864
  805POPC   C1A13383   7.376   6.639   8.564
  805POPC   D2A13384   7.415   6.601   8.264
  805POPC   C3A13385   7.407   6.651   7.964
  805POPC   C4A13386   7.379   6.599   7.664
  805POPC   C1B13387   7.261   6.480   8.564
  805POPC   C2B13388   7.227   6.460   8.264
  805POPC   C3B13389   7.246   6.526   7.964
  805POPC   C4B13390   7.217   6.447   7.664
  806POPC   NC313391  12.031  26.782   9.464
  806POPC   PO413392  12.115  26.831   9.164
  806POPC   GL113393  12.041  26.801   8.864
  806POPC   GL213394  12.229  26.764   8.864
  806POPC   C1A13395  12.103  26.834   8.564
  806POPC   D2A13396  12.110  26.785   8.264
  806POPC   C3A13397  12.047  26.864   7.964
  806POPC   C4A13398  12.042  26.814   7.664
  806POPC   C1B13399  12.303  26.694   8.564
  806POPC   C2B13400  12.350  26.750   8.264
  806POPC   C3B13401  12.344  26.692   7.964
  806POPC   C4B13402  12.317  26.707   7.664
  807POPC   NC313403  18.244   7.440   9.464
  807POPC   PO413404  18.319   7.409   9.164
  807POPC   GL113405  18.252   7.434   8.864
  807POPC   GL213406  18.436   7.494   8.864
  807POPC   C1A13407  18.315   7.407   8.564
  807POPC   D2A13408  18.295   7.388   8.264
  807POPC   C3A13409  18.324   7.463   7.964
  807POPC   C4A13410  18.329   7.399   7.664
  807POPC   C1B13411  18.551   7.524   8.564
  807POPC   C2B13412  18.533   7.498   8.264
  807POPC   C3B13413  18.501   7.439   7.964
  807POPC   C4B13414  18.538   7.434   7.664
  808POPC   NC313415   9.712  12.855   9.464
  808POPC   PO413416   9.752  12.836   9.164
  808POPC   GL113417   9.744  12.841   8.864
  808POPC   GL213418   9.644  12.891   8.864
  808POPC   C1A13419   9.765  12.839   8.564
  808POPC   D2A13420   9.766  12.802   8.264
  808POPC   C3A13421   9.699  12.816   7.964
  808POPC   C4A13422   9.759  12.873   7.664
  808POPC   C1B13423   9.499  12.878   8.564
  808POPC   C2B13424   9.504  12.929   8.264
  808POPC   C3B13425   9.472  12.933   7.964
  808POPC   C4B13426   9.478  12.927   7.664
  809POPC   NC313427   8.179   8.197   9.464
  809POPC   PO413428   8.157   8.148   9.164
  809POPC   GL113429   8.180   8.239   8.864
  809POPC   GL213430   8.138   8.120   8.864
  809POPC   C1A13431   8.157   8.198   8.564
  809POPC   D2A13432   8.217   8.229   8.264
  809POPC   C3A13433   8.192   8.192   7.964
  809POPC   C4A13434   8.159   8.200   7.664
  809POPC   C1B13435   8.175   7.993   8.564
  809POPC   C2B13436   8.143   7.988   8.264
  809POPC   C3B13437   8.120   7.988   7.964
  809POPC   C4B13438   8.169   7.916   7.664
  810POPC   NC313439  24.478  27.627   9.464
  810POPC   PO413440  24.472  27.551   9.164
  810POPC   GL113441  24.452  27.598   8.864
  810POPC   GL213442  24.609  27.541   8.864
  810POPC   C1A13443  24.500  27.614   8.564
  810POPC   D2A13444  24.503  27.545   8.264
  810POPC   C3A13445  24.458  27.601   7.964
  810POPC   C4A13446  24.490  27.630   7.664
  810POPC   C1B13447  24.748  27.526   8.564
  810POPC   C2B13448  24.768  27.561   8.264
  810POPC   C3B13449  24.744  27.548   7.964
  810POPC   C4B13450  24.727  27.592   7.664
  811POPC   NC313451  20.590  44.687   9.464
  811POPC   PO413452  20.571  44.641   9.164
  811POPC   GL113453  20.603  44.687   8.864
  811POPC   GL213454  20.443  44.666   8.864
  811POPC   C1A13455  20.561  44.660   8.564
  811POPC   D2A13456  20.581  44.670   8.264
  811POPC   C3A13457  20.640  44.661   7.964
  811POPC   C4A13458  20.646  44.626   7.664
  811POPC   C1B13459  20.379  44.599   8.564
  811POPC   C2B13460  20.374  44.668   8.264
  811POPC   C3B13461  20.332  44.669   7.964
  811POPC   C4B13462  20.346  44.598   7.664
  812POPC   NC313463  35.395   2.016   9.464
  812POPC   PO413464  35.377   1.952   9.164
  812POPC   GL113465  35.345   1.952   8.864
  812POPC   GL213466  35.307   1.903   8.864
  812POPC   C1A13467  35.341   2.004   8.564
  812POPC   D2A13468  35.369   2.039   8.264
  812POPC   C3A13469  35.389   2.016   7.964
  812POPC   C4A13470  35.349   2.033   7.664
  812POPC   C1B13471  35.203   1.871   8.564
  812POPC   C2B13472  35.211   1.867   8.264
  812POPC   C3B13473  35.139   1.851   7.964
  812POPC   C4B13474  35.188   1.859   7.664
  813POPC   NC313475  26.039  12.073   9.464
  813POPC   PO413476  26.079  12.073   9.164
  813POPC   GL113477  26.018  12.036   8.864
  813POPC   GL213478  26.008  12.152   8.864
  813POPC   C1A13479  26.089  12.030   8.564
  813POPC   D2A13480  26.001  12.070   8.264
  813POPC   C3A13481  26.064  12.041   7.964
  813POPC   C4A13482  26.075  12.051   7.664
  813POPC   C1B13483  26.038  12.293   8.564
  813POPC   C2B13484  25.991  12.329   8.264
  813POPC   C3B13485  26.010  12.297   7.964
  813POPC   C4B13486  26.012  12.368   7.664
  814POPC   NC313487  28.341   8.203   9.464
  814POPC   PO413488  28.336   8.191   9.164
  814POPC   GL113489  28.380   8.196   8.864
  814POPC   GL213490  28.253   8.071   8.864
  814POPC   C1A13491  28.335   8.175   8.564
  814POPC   D2A13492  28.382   8.207   8.264
  814POPC   C3A13493  28.352   8.235   7.964
  814POPC   C4A13494  28.368   8.194   7.664
  814POPC   C1B13495  28.213   7.989   8.564
  814POPC   C2B13496  28.180   8.032   8.264
  814POPC   C3B13497  28.178   7.994   7.964
  814POPC   C4B13498  28.238   7.970   7.664
  815POPC   NC313499  17.491  21.355   9.464
  815POPC   PO413500  17.473  21.344   9.164
  815POPC   GL113501  17.504  21.415   8.864
  815POPC   GL213502  17.604  21.320   8.864
  815POPC   C1A13503  17.471  21.356   8.564
  815POPC   D2A13504  17.515  21.416   8.264
  815POPC   C3A13505  17.484  21.432   7.964
  815POPC   C4A13506  17.539  21.340   7.664
  815POPC   C1B13507  17.676  21.172   8.564
  815POPC   C2B13508  17.686  21.209   8.264
  815POPC   C3B13509  17.624  21.138   7.964
  815POPC   C4B13510  17.594  21.198   7.664
  816POPC   NC313511  19.082  13.584   9.464
  816POPC   PO413512  19.071  13.647   9.164
  816POPC   GL113513  19.049  13.663   8.864
  816POPC   GL213514  19.032  13.772   8.864
  816POPC   C1A13515  19.080  13.654   8.564
  816POPC   D2A13516  19.069  13.580   8.264
  816POPC   C3A13517  19.066  13.586   7.964
  816POPC   C4A13518  19.097  13.643   7.664
  816POPC   C1B13519  18.945  13.886   8.564
  816POPC   C2B13520  18.941  13.850   8.264
  816POPC   C3B13521  18.933  13.835   7.964
  816POPC   C4B13522  18.932  13.822   7.664
  817POPC   NC313523   5.913  20.621   9.464
  817POPC   PO413524   5.848  20.609   9.164
  817POPC   GL113525   5.849  20.577   8.864
  817POPC   GL213526   5.794  20.533   8.864
  817POPC   C1A13527   5.864  20.606   8.564
  817POPC   D2A13528   5.859  20.635   8.264
  817POPC   C3A13529   5.913  20.646   7.964
  817POPC   C4A13530   5.834  20.577   7.664
  817POPC   C1B13531   5.647  20.439   8.564
  817POPC   C2B13532   5.697  20.450   8.264
  817POPC   C3B13533   5.658  20.489   7.964
  817POPC   C4B13534   5.663  20.469   7.664
  818POPC   NC313535  18.234  28.414   9.464
  818POPC   PO413536  18.321  28.381   9.164
  818POPC   GL113537  18.260  28.365   8.864
  818POPC   GL213538  18.354  28.452   8.864
  818POPC   C1A13539  18.268  28.353   8.564
  818POPC   D2A13540  18.321  28.368   8.264
  818POPC   C3A13541  18.266  28.357   7.964
  818POPC   C4A13542  18.233  28.352   7.664
  818POPC   C1B13543  18.474  28.552   8.564
  818POPC   C2B13544  18.403  28.601   8.264
  818POPC   C3B13545  18.415  28.537   7.964
  818POPC   C4B13546  18.432  28.535   7.664
  819POPC   NC313547  32.231  43.061   9.464
  819POPC   PO413548  32.270  43.108   9.164
  819POPC   GL113549  32.286  43.120   8.864
  819POPC   GL213550  32.115  43.175   8.864
  819POPC   C1A13551  32.226  43.103   8.564
  819POPC   D2A13552  32.259  43.067   8.264
  819POPC   C3A13553  32.269  43.061   7.964
  819POPC   C4A13554  32.286  43.107   7.664
  819POPC   C1B13555  32.024  43.181   8.564
  819POPC   C2B13556  31.956  43.150   8.264
  819POPC   C3B13557  31.977  43.217   7.964
  819POPC   C4B13558  32.012  43.200   7.664
  820POPC   NC313559  15.917   4.344   9.464
  820POPC   PO413560  15.929   4.341   9.164
  820POPC   GL113561  15.957   4.359   8.864
  820POPC   GL213562  16.074   4.210   8.864
  820POPC   C1A13563  15.970   4.323   8.564
  820POPC   D2A13564  15.944   4.353   8.264
  820POPC   C3A13565  15.994   4.328   7.964
  820POPC   C4A13566  15.947   4.273   7.664
  820POPC   C1B13567  16.124   4.157   8.564
  820POPC   C2B13568  16.178   4.150   8.264
  820POPC   C3B13569  16.208   4.186   7.964
  820POPC   C4B13570  16.138   4.174   7.664
  821POPC   NC313571  31.475  37.632   9.464
  821POPC   PO413572  31.481  37.648   9.164
  821POPC   GL113573  31.507  37.682   8.864
  821POPC   GL213574  31.467  37.514   8.864
  821POPC   C1A13575  31.471  37.653   8.564
  821POPC   D2A13576  31.473  37.715   8.264
  821POPC   C3A13577  31.520  37.723   7.964
  821POPC   C4A13578  31.474  37.721   7.664
  821POPC   C1B13579  31.442  37.398   8.564
  821POPC   C2B13580  31.481  37.400   8.264
  821POPC   C3B13581  31.496  37.415   7.964
  821POPC   C4B13582  31.481  37.392   7.664
  822POPC   NC313583  34.541  39.983   9.464
  822POPC   PO413584  34.589  40.002   9.164
  822POPC   GL113585  34.543  39.960   8.864
  822POPC   GL213586  34.406  40.030   8.864
  822POPC   C1A13587  34.591  40.020   8.564
  822POPC   D2A13588  34.613  39.984   8.264
  822POPC   C3A13589  34.619  39.997   7.964
  822POPC   C4A13590  34.526  39.975   7.664
  822POPC   C1B13591  34.317  40.028   8.564
  822POPC   C2B13592  34.351  40.031   8.264
  822POPC   C3B13593  34.325  40.029   7.964
  822POPC   C4B13594  34.339  40.067   7.664
  823POPC   NC313595  27.558  35.314   9.464
  823POPC   PO413596  27.559  35.312   9.164
  823POPC   GL113597  27.634  35.310   8.864
  823POPC   GL213598  27.623  35.429   8.864
  823POPC   C1A13599  27.633  35.321   8.564
  823POPC   D2A13600  27.569  35.317   8.264
  823POPC   C3A13601  27.619  35.379   7.964
  823POPC   C4A13602  27.630  35.382   7.664
  823POPC   C1B13603  27.625  35.555   8.564
  823POPC   C2B13604  27.639  35.619   8.264
  823POPC   C3B13605  27.649  35.576   7.964
  823POPC   C4B13606  27.600  35.594   7.664
  824POPC   NC313607  10.494  29.137   9.464
  824POPC   PO413608  10.518  29.104   9.164
  824POPC   GL113609  10.539  29.103   8.864
  824POPC   GL213610  10.644  29.147   8.864
  824POPC   C1A13611  10.508  29.129   8.564
  824POPC   D2A13612  10.501  29.118   8.264
  824POPC   C3A13613  10.539  29.179   7.964
  824POPC   C4A13614  10.511  29.149   7.664
  824POPC   C1B13615  10.784  29.231   8.564
  824POPC   C2B13616  10.732  29.241   8.264
  824POPC   C3B13617  10.713  29.216   7.964
  824POPC   C4B13618  10.754  29.189   7.664
  825POPC   NC313619  29.947  15.979   9.464
  825POPC   PO413620  29.894  15.914   9.164
  825POPC   GL113621  29.893  15.979   8.864
  825POPC   GL213622  29.982  16.052   8.864
  825POPC   C1A13623  29.931  15.968   8.564
  825POPC   D2A13624  29.932  15.911   8.264
  825POPC   C3A13625  29.902  15.925   7.964
  825POPC   C4A13626  29.912  15.971   7.664
  825POPC   C1B13627  30.138  16.149   8.564
  825POPC   C2B13628  30.108  16.091   8.264
  825POPC   C3B13629  30.132  16.081   7.964
  825POPC   C4B13630  30.093  16.177   7.664
  826POPC   NC313631  25.301  27.572   9.464
  826POPC   PO413632  25.253  27.568   9.164
  826POPC   GL113633  25.251  27.572   8.864
  826POPC   GL213634  25.210  27.719   8.864
  826POPC   C1A13635  25.244  27.553   8.564
  826POPC   D2A13636  25.315  27.583   8.264
  826POPC   C3A13637  25.281  27.578   7.964
  826POPC   C4A13638  25.233  27.609   7.664
  826POPC   C1B13639  25.202  27.815   8.564
  826POPC   C2B13640  25.264  27.838   8.264
  826POPC   C3B13641  25.191  27.857   7.964
  826POPC   C4B13642  25.187  27.888   7.664
  827POPC   NC313643  22.967   2.807   9.464
  827POPC   PO413644  22.905   2.747   9.164
  827POPC   GL113645  22.901   2.813   8.864
  827POPC   GL213646  22.899   2.881   8.864
  827POPC   C1A13647  22.971   2.734   8.564
  827POPC   D2A13648  22.923   2.728   8.264
  827POPC   C3A13649  22.967   2.779   7.964
  827POPC   C4A13650  22.933   2.720   7.664
  827POPC   C1B13651  22.841   3.008   8.564
  827POPC   C2B13652  22.903   2.995   8.264
  827POPC   C3B13653  22.903   3.018   7.964
  827POPC   C4B13654  22.828   3.008   7.664
  828POPC   NC313655  30.703  24.488   9.464
  828POPC   PO413656  30.652  24.490   9.164
  828POPC   GL113657  30.714  24.490   8.864
  828POPC   GL213658  30.576  24.589   8.864
  828POPC   C1A13659  30.701  24.466   8.564
  828POPC   D2A13660  30.671  24.512   8.264
  828POPC   C3A13661  30.690  24.461   7.964
  828POPC   C4A13662  30.712  24.521   7.664
  828POPC   C1B13663  30.520  24.647   8.564
  828POPC   C2B13664  30.515  24.727   8.264
  828POPC   C3B13665  30.505  24.669   7.964
  828POPC   C4B13666  30.521  24.641   7.664
  829POPC   NC313667   8.158   1.235   9.464
  829POPC   PO413668   8.170   1.218   9.164
  829POPC   GL113669   8.195   1.227   8.864
  829POPC   GL213670   8.106   1.173   8.864
  829POPC   C1A13671   8.181   1.237   8.564
  829POPC   D2A13672   8.217   1.263   8.264
  829POPC   C3A13673   8.218   1.172   7.964
  829POPC   C4A13674   8.225   1.200   7.664
  829POPC   C1B13675   7.932   1.209   8.564
  829POPC   C2B13676   7.904   1.164   8.264
  829POPC   C3B13677   7.933   1.189   7.964
  829POPC   C4B13678   7.908   1.120   7.664
  830POPC   NC313679  16.684   9.718   9.464
  830POPC   PO413680  16.741   9.768   9.164
  830POPC   GL113681  16.778   9.722   8.864
  830POPC   GL213682  16.711   9.659   8.864
  830POPC   C1A13683  16.733   9.773   8.564
  830POPC   D2A13684  16.744   9.753   8.264
  830POPC   C3A13685  16.757   9.726   7.964
  830POPC   C4A13686  16.699   9.710   7.664
  830POPC   C1B13687  16.626   9.562   8.564
  830POPC   C2B13688  16.605   9.511   8.264
  830POPC   C3B13689  16.565   9.479   7.964
  830POPC   C4B13690  16.660   9.526   7.664
  831POPC   NC313691   8.193  14.413   9.464
  831POPC   PO413692   8.211  14.417   9.164
  831POPC   GL113693   8.212  14.388   8.864
  831POPC   GL213694   8.151  14.280   8.864
  831POPC   C1A13695   8.171  14.431   8.564
  831POPC   D2A13696   8.181  14.372   8.264
  831POPC   C3A13697   8.222  14.389   7.964
  831POPC   C4A13698   8.223  14.422   7.664
  831POPC   C1B13699   8.186  14.111   8.564
  831POPC   C2B13700   8.193  14.147   8.264
  831POPC   C3B13701   8.116  14.189   7.964
  831POPC   C4B13702   8.204  14.157   7.664
  832POPC   NC313703  36.124  43.865   9.464
  832POPC   PO413704  36.143  43.909   9.164
  832POPC   GL113705  36.148  43.935   8.864
  832POPC   GL213706  36.016  43.944   8.864
  832POPC   C1A13707  36.122  43.882   8.564
  832POPC   D2A13708  36.164  43.884   8.264
  832POPC   C3A13709  36.104  43.890   7.964
  832POPC   C4A13710  36.086  43.866   7.664
  832POPC   C1B13711  35.936  44.025   8.564
  832POPC   C2B13712  35.946  44.052   8.264
  832POPC   C3B13713  35.891  44.087   7.964
  832POPC   C4B13714  35.930  44.089   7.664
  833POPC   NC313715   9.714   4.285   9.464
  833POPC   PO413716   9.723   4.308   9.164
  833POPC   GL113717   9.732   4.344   8.864
  833POPC   GL213718   9.823   4.409   8.864
  833POPC   C1A13719   9.748   4.311   8.564
  833POPC   D2A13720   9.716   4.338   8.264
  833POPC   C3A13721   9.746   4.303   7.964
  833POPC   C4A13722   9.743   4.287   7.664
  833POPC   C1B13723   9.859   4.523   8.564
  833POPC   C2B13724   9.932   4.539   8.264
  833POPC   C3B13725   9.927   4.521   7.964
  833POPC   C4B13726   9.865   4.485   7.664
  834POPC   NC313727  44.619  10.485   9.464
  834POPC   PO413728  44.657  10.492   9.164
  834POPC   GL113729  44.689  10.494   8.864
  834POPC   GL213730  44.780  10.544   8.864
  834POPC   C1A13731  44.693  10.527   8.564
  834POPC   D2A13732  44.660  10.559   8.264
  834POPC   C3A13733  44.640  10.479   7.964
  834POPC   C4A13734  44.688  10.506   7.664
  834POPC   C1B13735  44.894  10.529   8.564
  834POPC   C2B13736  44.899  10.521   8.264
  834POPC   C3B13737  44.951  10.473   7.964
  834POPC   C4B13738  44.863  10.481   7.664
  835POPC   NC313739  26.792  10.515   9.464
  835POPC   PO413740  26.792  10.502   9.164
  835POPC   GL113741  26.841  10.547   8.864
  835POPC   GL213742  26.674  10.528   8.864
  835POPC   C1A13743  26.785  10.506   8.564
  835POPC   D2A13744  26.861  10.565   8.264
  835POPC   C3A13745  26.824  10.490   7.964
  835POPC   C4A13746  26.821  10.500   7.664
  835POPC   C1B13747  26.620  10.600   8.564
  835POPC   C2B13748  26.554  10.600   8.264
  835POPC   C3B13749  26.563  10.649   7.964
  835POPC   C4B13750  26.609  10.652   7.664
  836POPC   NC313751   6.675  39.988   9.464
  836POPC   PO413752   6.663  40.012   9.164
  836POPC   GL113753   6.662  40.038   8.864
  836POPC   GL213754   6.658  40.120   8.864
  836POPC   C1A13755   6.669  40.025   8.564
  836POPC   D2A13756   6.665  39.978   8.264
  836POPC   C3A13757   6.676  39.986   7.964
  836POPC   C4A13758   6.667  40.010   7.664
  836POPC   C1B13759   6.588  40.248   8.564
  836POPC   C2B13760   6.619  40.216   8.264
  836POPC   C3B13761   6.611  40.243   7.964
  836POPC   C4B13762   6.617  40.272   7.664
  837POPC   NC313763  23.760   5.066   9.464
  837POPC   PO413764  23.748   5.104   9.164
  837POPC   GL113765  23.699   5.055   8.864
  837POPC   GL213766  23.823   5.131   8.864
  837POPC   C1A13767  23.727   5.071   8.564
  837POPC   D2A13768  23.739   5.138   8.264
  837POPC   C3A13769  23.698   5.129   7.964
  837POPC   C4A13770  23.725   5.139   7.664
  837POPC   C1B13771  23.937   5.151   8.564
  837POPC   C2B13772  23.962   5.207   8.264
  837POPC   C3B13773  23.912   5.139   7.964
  837POPC   C4B13774  23.902   5.151   7.664
  838POPC   NC313775  36.947  40.774   9.464
  838POPC   PO413776  36.940  40.750   9.164
  838POPC   GL113777  36.886  40.762   8.864
  838POPC   GL213778  36.824  40.750   8.864
  838POPC   C1A13779  36.854  40.788   8.564
  838POPC   D2A13780  36.897  40.826   8.264
  838POPC   C3A13781  36.904  40.788   7.964
  838POPC   C4A13782  36.937  40.805   7.664
  838POPC   C1B13783  36.691  40.777   8.564
  838POPC   C2B13784  36.618  40.714   8.264
  838POPC   C3B13785  36.694  40.741   7.964
  838POPC   C4B13786  36.663  40.727   7.664
  839POPC   NC313787  41.606  35.396   9.464
  839POPC   PO413788  41.583  35.327   9.164
  839POPC   GL113789  41.540  35.376   8.864
  839POPC   GL213790  41.392  35.320   8.864
  839POPC   C1A13791  41.597  35.398   8.564
  839POPC   D2A13792  41.593  35.353   8.264
  839POPC   C3A13793  41.564  35.340   7.964
  839POPC   C4A13794  41.593  35.306   7.664
  839POPC   C1B13795  41.320  35.295   8.564
  839POPC   C2B13796  41.354  35.242   8.264
  839POPC   C3B13797  41.318  35.308   7.964
  839POPC   C4B13798  41.342  35.297   7.664
  840POPC   NC313799   5.062  31.441   9.464
  840POPC   PO413800   5.131  31.467   9.164
  840POPC   GL113801   5.059  31.493   8.864
  840POPC   GL213802   4.969  31.521   8.864
  840POPC   C1A13803   5.095  31.473   8.564
  840POPC   D2A13804   5.052  31.508   8.264
  840POPC   C3A13805   5.065  31.504   7.964
  840POPC   C4A13806   5.048  31.470   7.664
  840POPC   C1B13807   4.951  31.671   8.564
  840POPC   C2B13808   4.912  31.656   8.264
  840POPC   C3B13809   4.947  31.693   7.964
  840POPC   C4B13810   4.893  31.647   7.664
  841POPC   NC313811  29.192  29.164   9.464
  841POPC   PO413812  29.195  29.101   9.164
  841POPC   GL113813  29.177  29.121   8.864
  841POPC   GL213814  29.058  29.201   8.864
  841POPC   C1A13815  29.172  29.184   8.564
  841POPC   D2A13816  29.154  29.142   8.264
  841POPC   C3A13817  29.173  29.138   7.964
  841POPC   C4A13818  29.134  29.140   7.664
  841POPC   C1B13819  28.924  29.169   8.564
  841POPC   C2B13820  28.941  29.197   8.264
  841POPC   C3B13821  28.849  29.153   7.964
  841POPC   C4B13822  28.884  29.224   7.664
  842POPC   NC313823  11.271  12.856   9.464
  842POPC   PO413824  11.343  12.864   9.164
  842POPC   GL113825  11.335  12.899   8.864
  842POPC   GL213826  11.253  12.752   8.864
  842POPC   C1A13827  11.266  12.805   8.564
  842POPC   D2A13828  11.345  12.868   8.264
  842POPC   C3A13829  11.292  12.856   7.964
  842POPC   C4A13830  11.292  12.867   7.664
  842POPC   C1B13831  11.208  12.672   8.564
  842POPC   C2B13832  11.193  12.610   8.264
  842POPC   C3B13833  11.158  12.606   7.964
  842POPC   C4B13834  11.207  12.624   7.664
  843POPC   NC313835  39.193  41.563   9.464
  843POPC   PO413836  39.188  41.564   9.164
  843POPC   GL113837  39.233  41.583   8.864
  843POPC   GL213838  39.317  41.473   8.864
  843POPC   C1A13839  39.183  41.516   8.564
  843POPC   D2A13840  39.275  41.557   8.264
  843POPC   C3A13841  39.192  41.603   7.964
  843POPC   C4A13842  39.192  41.548   7.664
  843POPC   C1B13843  39.424  41.476   8.564
  843POPC   C2B13844  39.406  41.401   8.264
  843POPC   C3B13845  39.499  41.452   7.964
  843POPC   C4B13846  39.440  41.492   7.664
  844POPC   NC313847  42.344   8.193   9.464
  844POPC   PO413848  42.355   8.244   9.164
  844POPC   GL113849  42.359   8.180   8.864
  844POPC   GL213850  42.450   8.096   8.864
  844POPC   C1A13851  42.325   8.201   8.564
  844POPC   D2A13852  42.319   8.213   8.264
  844POPC   C3A13853  42.320   8.205   7.964
  844POPC   C4A13854  42.380   8.198   7.664
  844POPC   C1B13855  42.571   8.134   8.564
  844POPC   C2B13856  42.530   8.079   8.264
  844POPC   C3B13857  42.530   8.139   7.964
  844POPC   C4B13858  42.583   8.124   7.664
  845POPC   NC313859   6.664   9.000   9.464
  845POPC   PO413860   6.670   8.926   9.164
  845POPC   GL113861   6.663   8.936   8.864
  845POPC   GL213862   6.658   9.079   8.864
  845POPC   C1A13863   6.690   8.955   8.564
  845POPC   D2A13864   6.664   8.924   8.264
  845POPC   C3A13865   6.608   8.981   7.964
  845POPC   C4A13866   6.682   8.998   7.664
  845POPC   C1B13867   6.613   9.197   8.564
  845POPC   C2B13868   6.696   9.195   8.264
  845POPC   C3B13869   6.662   9.174   7.964
  845POPC   C4B13870   6.638   9.205   7.664
  846POPC   NC313871  22.928  20.566   9.464
  846POPC   PO413872  22.946  20.650   9.164
  846POPC   GL113873  22.981  20.618   8.864
  846POPC   GL213874  22.795  20.647   8.864
  846POPC   C1A13875  22.890  20.647   8.564
  846POPC   D2A13876  22.917  20.653   8.264
  846POPC   C3A13877  22.937  20.588   7.964
  846POPC   C4A13878  22.957  20.584   7.664
  846POPC   C1B13879  22.671  20.647   8.564
  846POPC   C2B13880  22.720  20.654   8.264
  846POPC   C3B13881  22.655  20.565   7.964
  846POPC   C4B13882  22.650  20.583   7.664
  847POPC   NC313883  43.069  17.488   9.464
  847POPC   PO413884  43.062  17.516   9.164
  847POPC   GL113885  43.083  17.542   8.864
  847POPC   GL213886  43.100  17.351   8.864
  847POPC   C1A13887  43.077  17.533   8.564
  847POPC   D2A13888  43.102  17.484   8.264
  847POPC   C3A13889  43.153  17.493   7.964
  847POPC   C4A13890  43.124  17.520   7.664
  847POPC   C1B13891  43.124  17.221   8.564
  847POPC   C2B13892  43.133  17.226   8.264
  847POPC   C3B13893  43.124  17.263   7.964
  847POPC   C4B13894  43.196  17.241   7.664
  848POPC   NC313895   8.958  29.164   9.464
  848POPC   PO413896   9.015  29.149   9.164
  848POPC   GL113897   8.980  29.178   8.864
  848POPC   GL213898   8.900  28.990   8.864
  848POPC   C1A13899   8.957  29.174   8.564
  848POPC   D2A13900   8.929  29.174   8.264
  848POPC   C3A13901   8.995  29.131   7.964
  848POPC   C4A13902   8.976  29.125   7.664
  848POPC   C1B13903   8.858  28.958   8.564
  848POPC   C2B13904   8.881  28.910   8.264
  848POPC   C3B13905   8.845  28.953   7.964
  848POPC   C4B13906   8.862  28.868   7.664
  849POPC   NC313907  32.249   2.804   9.464
  849POPC   PO413908  32.254   2.804   9.164
  849POPC   GL113909  32.293   2.743   8.864
  849POPC   GL213910  32.092   2.717   8.864
  849POPC   C1A13911  32.260   2.794   8.564
  849POPC   D2A13912  32.213   2.742   8.264
  849POPC   C3A13913  32.251   2.725   7.964
  849POPC   C4A13914  32.289   2.723   7.664
  849POPC   C1B13915  32.016   2.723   8.564
  849POPC   C2B13916  32.052   2.697   8.264
  849POPC   C3B13917  32.031   2.713   7.964
  849POPC   C4B13918  31.965   2.717   7.664
  850POPC   NC313919   0.418   4.353   9.464
  850POPC   PO413920   0.432   4.282   9.164
  850POPC   GL113921   0.405   4.294   8.864
  850POPC   GL213922   0.602   4.261   8.864
  850POPC   C1A13923   0.434   4.302   8.564
  850POPC   D2A13924   0.486   4.288   8.264
  850POPC   C3A13925   0.399   4.340   7.964
  850POPC   C4A13926   0.418   4.320   7.664
  850POPC   C1B13927   0.721   4.264   8.564
  850POPC   C2B13928   0.658   4.255   8.264
  850POPC   C3B13929   0.669   4.234   7.964
  850POPC   C4B13930   0.641   4.225   7.664
  851POPC   NC313931  24.520  39.999   9.464
  851POPC   PO413932  24.464  40.030   9.164
  851POPC   GL113933  24.516  40.029   8.864
  851POPC   GL213934  24.488  40.156   8.864
  851POPC   C1A13935  24.533  40.010   8.564
  851POPC   D2A13936  24.469  40.006   8.264
  851POPC   C3A13937  24.451  40.014   7.964
  851POPC   C4A13938  24.459  40.018   7.664
  851POPC   C1B13939  24.473  40.241   8.564
  851POPC   C2B13940  24.477  40.228   8.264
  851POPC   C3B13941  24.491  40.255   7.964
  851POPC   C4B13942  24.467  40.242   7.664
  852POPC   NC313943   0.473  30.703   9.464
  852POPC   PO413944   0.436  30.731   9.164
  852POPC   GL113945   0.437  30.727   8.864
  852POPC   GL213946   0.383  30.563   8.864
  852POPC   C1A13947   0.445  30.665   8.564
  852POPC   D2A13948   0.454  30.743   8.264
  852POPC   C3A13949   0.483  30.742   7.964
  852POPC   C4A13950   0.448  30.702   7.664
  852POPC   C1B13951   0.304  30.489   8.564
  852POPC   C2B13952   0.325  30.475   8.264
  852POPC   C3B13953   0.351  30.473   7.964
  852POPC   C4B13954   0.333  30.481   7.664
  853POPC   NC313955  42.364  19.875   9.464
  853POPC   PO413956  42.324  19.805   9.164
  853POPC   GL113957  42.373  19.841   8.864
  853POPC   GL213958  42.426  19.762   8.864
  853POPC   C1A13959  42.370  19.824   8.564
  853POPC   D2A13960  42.300  19.884   8.264
  853POPC   C3A13961  42.294  19.877   7.964
  853POPC   C4A13962  42.308  19.790   7.664
  853POPC   C1B13963  42.513  19.652   8.564
  853POPC   C2B13964  42.550  19.728   8.264
  853POPC   C3B13965  42.535  19.669   7.964
  853POPC   C4B13966  42.495  19.666   7.664
  854POPC   NC313967  11.259   1.236   9.464
  854POPC   PO413968  11.299   1.248   9.164
  854POPC   GL113969  11.348   1.254   8.864
  854POPC   GL213970  11.266   1.324   8.864
  854POPC   C1A13971  11.279   1.233   8.564
  854POPC   D2A13972  11.254   1.205   8.264
  854POPC   C3A13973  11.270   1.226   7.964
  854POPC   C4A13974  11.335   1.240   7.664
  854POPC   C1B13975  11.186   1.446   8.564
  854POPC   C2B13976  11.205   1.466   8.264
  854POPC   C3B13977  11.207   1.426   7.964
  854POPC   C4B13978  11.193   1.490   7.664
  855POPC   NC313979  12.867  39.278   9.464
  855POPC   PO413980  12.881  39.271   9.164
  855POPC   GL113981  12.821  39.233   8.864
  855POPC   GL213982  12.950  39.101   8.864
  855POPC   C1A13983  12.896  39.255   8.564
  855POPC   D2A13984  12.857  39.225   8.264
  855POPC   C3A13985  12.838  39.244   7.964
  855POPC   C4A13986  12.866  39.243   7.664
  855POPC   C1B13987  12.973  39.077   8.564
  855POPC   C2B13988  13.007  39.024   8.264
  855POPC   C3B13989  12.969  39.064   7.964
  855POPC   C4B13990  13.018  39.085   7.664
  856POPC   NC313991  15.910  20.599   9.464
  856POPC   PO413992  15.906  20.569   9.164
  856POPC   GL113993  15.978  20.599   8.864
  856POPC   GL213994  16.020  20.531   8.864
  856POPC   C1A13995  15.988  20.597   8.564
  856POPC   D2A13996  15.914  20.589   8.264
  856POPC   C3A13997  15.917  20.645   7.964
  856POPC   C4A13998  15.946  20.583   7.664
  856POPC   C1B13999  15.981  20.393   8.564
  856POPC   C2B14000  15.957  20.400   8.264
  856POPC   C3B14001  16.009  20.337   7.964
  856POPC   C4B14002  15.996  20.389   7.664
  857POPC   NC314003  36.893  40.023   9.464
  857POPC   PO414004  36.887  40.035   9.164
  857POPC   GL114005  36.918  40.029   8.864
  857POPC   GL214006  36.817  39.907   8.864
  857POPC   C1A14007  36.880  40.043   8.564
  857POPC   D2A14008  36.912  40.009   8.264
  857POPC   C3A14009  36.910  40.036   7.964
  857POPC   C4A14010  36.920  39.985   7.664
  857POPC   C1B14011  36.745  39.885   8.564
  857POPC   C2B14012  36.713  39.843   8.264
  857POPC   C3B14013  36.753  39.841   7.964
  857POPC   C4B14014  36.762  39.797   7.664
  858POPC   NC314015   4.342  35.344   9.464
  858POPC   PO414016   4.314  35.328   9.164
  858POPC   GL114017   4.353  35.348   8.864
  858POPC   GL214018   4.472  35.355   8.864
  858POPC   C1A14019   4.334  35.389   8.564
  858POPC   D2A14020   4.318  35.340   8.264
  858POPC   C3A14021   4.309  35.321   7.964
  858POPC   C4A14022   4.278  35.311   7.664
  858POPC   C1B14023   4.529  35.413   8.564
  858POPC   C2B14024   4.558  35.380   8.264
  858POPC   C3B14025   4.522  35.354   7.964
  858POPC   C4B14026   4.520  35.437   7.664
  859POPC   NC314027   3.545   8.965   9.464
  859POPC   PO414028   3.500   8.967   9.164
  859POPC   GL114029   3.587   8.949   8.864
  859POPC   GL214030   3.660   8.932   8.864
  859POPC   C1A14031   3.522   8.951   8.564
  859POPC   D2A14032   3.513   9.004   8.264
  859POPC   C3A14033   3.566   8.980   7.964
  859POPC   C4A14034   3.562   8.992   7.664
  859POPC   C1B14035   3.762   8.949   8.564
  859POPC   C2B14036   3.841   9.006   8.264
  859POPC   C3B14037   3.817   8.930   7.964
  859POPC   C4B14038   3.769   8.994   7.664
  860POPC   NC314039   0.446  39.984   9.464
  860POPC   PO414040   0.426  40.003   9.164
  860POPC   GL114041   0.461  39.962   8.864
  860POPC   GL214042   0.414  40.110   8.864
  860POPC   C1A14043   0.480  39.991   8.564
  860POPC   D2A14044   0.449  40.014   8.264
  860POPC   C3A14045   0.437  40.040   7.964
  860POPC   C4A14046   0.465  40.044   7.664
  860POPC   C1B14047   0.385  40.195   8.564
  860POPC   C2B14048   0.303  40.222   8.264
  860POPC   C3B14049   0.292  40.226   7.964
  860POPC   C4B14050   0.291  40.278   7.664
  861POPC   NC314051  29.954  36.131   9.464
  861POPC   PO414052  29.954  36.126   9.164
  861POPC   GL114053  29.970  36.103   8.864
  861POPC   GL214054  29.826  36.045   8.864
  861POPC   C1A14055  29.942  36.120   8.564
  861POPC   D2A14056  29.893  36.140   8.264
  861POPC   C3A14057  29.895  36.104   7.964
  861POPC   C4A14058  29.872  36.163   7.664
  861POPC   C1B14059  29.732  35.946   8.564
  861POPC   C2B14060  29.726  35.982   8.264
  861POPC   C3B14061  29.705  35.958   7.964
  861POPC   C4B14062  29.758  36.010   7.664
  862POPC   NC314063  36.078  10.548   9.464
  862POPC   PO414064  36.119  10.547   9.164
  862POPC   GL114065  36.168  10.496   8.864
  862POPC   GL214066  36.186  10.629   8.864
  862POPC   C1A14067  36.105  10.551   8.564
  862POPC   D2A14068  36.105  10.550   8.264
  862POPC   C3A14069  36.109  10.480   7.964
  862POPC   C4A14070  36.088  10.514   7.664
  862POPC   C1B14071  36.336  10.716   8.564
  862POPC   C2B14072  36.368  10.701   8.264
  862POPC   C3B14073  36.317  10.627   7.964
  862POPC   C4B14074  36.372  10.701   7.664
  863POPC   NC314075  29.931  19.826   9.464
  863POPC   PO414076  29.875  19.836   9.164
  863POPC   GL114077  29.878  19.839   8.864
  863POPC   GL214078  29.816  19.804   8.864
  863POPC   C1A14079  29.894  19.823   8.564
  863POPC   D2A14080  29.954  19.811   8.264
  863POPC   C3A14081  29.880  19.805   7.964
  863POPC   C4A14082  29.872  19.810   7.664
  863POPC   C1B14083  29.660  19.879   8.564
  863POPC   C2B14084  29.633  19.867   8.264
  863POPC   C3B14085  29.675  19.855   7.964
  863POPC   C4B14086  29.689  19.848   7.664
  864POPC   NC314087  27.584   9.737   9.464
  864POPC   PO414088  27.581   9.767   9.164
  864POPC   GL114089  27.612   9.790   8.864
  864POPC   GL214090  27.698   9.765   8.864
  864POPC   C1A14091  27.557   9.781   8.564
  864POPC   D2A14092  27.558   9.780   8.264
  864POPC   C3A14093  27.576   9.712   7.964
  864POPC   C4A14094  27.611   9.716   7.664
  864POPC   C1B14095  27.778   9.859   8.564
  864POPC   C2B14096  27.768   9.877   8.264
  864POPC   C3B14097  27.788   9.859   7.964
  864POPC   C4B14098  27.790   9.916   7.664
  865POPC   NC314099  29.956  25.227   9.464
  865POPC   PO414100  29.881  25.239   9.164
  865POPC   GL114101  29.897  25.245   8.864
  865POPC   GL214102  29.918  25.360   8.864
  865POPC   C1A14103  29.927  25.301   8.564
  865POPC   D2A14104  29.931  25.239   8.264
  865POPC   C3A14105  29.971  25.243   7.964
  865POPC   C4A14106  29.919  25.255   7.664
  865POPC   C1B14107  29.865  25.482   8.564
  865POPC   C2B14108  29.856  25.447   8.264
  865POPC   C3B14109  29.862  25.472   7.964
  865POPC   C4B14110  29.853  25.454   7.664
  866POPC   NC314111   9.748  15.199   9.464
  866POPC   PO414112   9.782  15.203   9.164
  866POPC   GL114113   9.717  15.141   8.864
  866POPC   GL214114   9.653  15.294   8.864
  866POPC   C1A14115   9.710  15.175   8.564
  866POPC   D2A14116   9.766  15.208   8.264
  866POPC   C3A14117   9.783  15.183   7.964
  866POPC   C4A14118   9.783  15.148   7.664
  866POPC   C1B14119   9.673  15.351   8.564
  866POPC   C2B14120   9.608  15.406   8.264
  866POPC   C3B14121   9.666  15.362   7.964
  866POPC   C4B14122   9.666  15.355   7.664
  867POPC   NC314123  35.313   2.801   9.464
  867POPC   PO414124  35.366   2.724   9.164
  867POPC   GL114125  35.386   2.767   8.864
  867POPC   GL214126  35.190   2.773   8.864
  867POPC   C1A14127  35.369   2.813   8.564
  867POPC   D2A14128  35.338   2.798   8.264
  867POPC   C3A14129  35.345   2.717   7.964
  867POPC   C4A14130  35.340   2.767   7.664
  867POPC   C1B14131  35.166   2.871   8.564
  867POPC   C2B14132  35.095   2.845   8.264
  867POPC   C3B14133  35.099   2.865   7.964
  867POPC   C4B14134  35.105   2.878   7.664
  868POPC   NC314135  43.152  25.269   9.464
  868POPC   PO414136  43.156  25.313   9.164
  868POPC   GL114137  43.112  25.235   8.864
  868POPC   GL214138  43.209  25.332   8.864
  868POPC   C1A14139  43.068  25.299   8.564
  868POPC   D2A14140  43.147  25.231   8.264
  868POPC   C3A14141  43.073  25.309   7.964
  868POPC   C4A14142  43.130  25.295   7.664
  868POPC   C1B14143  43.293  25.402   8.564
  868POPC   C2B14144  43.255  25.466   8.264
  868POPC   C3B14145  43.290  25.420   7.964
  868POPC   C4B14146  43.261  25.445   7.664
  869POPC   NC314147  11.299  16.688   9.464
  869POPC   PO414148  11.268  16.757   9.164
  869POPC   GL114149  11.260  16.727   8.864
  869POPC   GL214150  11.428  16.872   8.864
  869POPC   C1A14151  11.283  16.763   8.564
  869POPC   D2A14152  11.316  16.723   8.264
  869POPC   C3A14153  11.339  16.717   7.964
  869POPC   C4A14154  11.349  16.758   7.664
  869POPC   C1B14155  11.458  16.874   8.564
  869POPC   C2B14156  11.429  16.952   8.264
  869POPC   C3B14157  11.461  16.881   7.964
  869POPC   C4B14158  11.513  16.943   7.664
  870POPC   NC314159  16.766  19.029   9.464
  870POPC   PO414160  16.684  19.098   9.164
  870POPC   GL114161  16.749  19.048   8.864
  870POPC   GL214162  16.616  19.144   8.864
  870POPC   C1A14163  16.711  19.104   8.564
  870POPC   D2A14164  16.740  19.086   8.264
  870POPC   C3A14165  16.715  19.089   7.964
  870POPC   C4A14166  16.688  19.025   7.664
  870POPC   C1B14167  16.512  19.194   8.564
  870POPC   C2B14168  16.488  19.152   8.264
  870POPC   C3B14169  16.531  19.202   7.964
  870POPC   C4B14170  16.530  19.175   7.664
  871POPC   NC314171  35.314   5.838   9.464
  871POPC   PO414172  35.395   5.889   9.164
  871POPC   GL114173  35.338   5.822   8.864
  871POPC   GL214174  35.215   5.990   8.864
  871POPC   C1A14175  35.342   5.875   8.564
  871POPC   D2A14176  35.307   5.834   8.264
  871POPC   C3A14177  35.354   5.911   7.964
  871POPC   C4A14178  35.320   5.835   7.664
  871POPC   C1B14179  35.142   6.002   8.564
  871POPC   C2B14180  35.119   6.060   8.264
  871POPC   C3B14181  35.155   6.062   7.964
  871POPC   C4B14182  35.185   6.083   7.664
  872POPC   NC314183   8.203  34.622   9.464
  872POPC   PO414184   8.172  34.599   9.164
  872POPC   GL114185   8.212  34.602   8.864
  872POPC   GL214186   8.331  34.468   8.864
  872POPC   C1A14187   8.156  34.557   8.564
  872POPC   D2A14188   8.246  34.583   8.264
  872POPC   C3A14189   8.159  34.567   7.964
  872POPC   C4A14190   8.157  34.551   7.664
  872POPC   C1B14191   8.408  34.447   8.564
  872POPC   C2B14192   8.421  34.378   8.264
  872POPC   C3B14193   8.358  34.441   7.964
  872POPC   C4B14194   8.353  34.377   7.664
  873POPC   NC314195  29.126  27.630   9.464
  873POPC   PO414196  29.191  27.567   9.164
  873POPC   GL114197  29.157  27.579   8.864
  873POPC   GL214198  29.142  27.752   8.864
  873POPC   C1A14199  29.169  27.589   8.564
  873POPC   D2A14200  29.128  27.587   8.264
  873POPC   C3A14201  29.117  27.544   7.964
  873POPC   C4A14202  29.096  27.574   7.664
  873POPC   C1B14203  29.096  27.838   8.564
  873POPC   C2B14204  29.056  27.808   8.264
  873POPC   C3B14205  29.048  27.862   7.964
  873POPC   C4B14206  29.047  27.816   7.664
  874POPC   NC314207   0.483  27.623   9.464
  874POPC   PO414208   0.440  27.598   9.164
  874POPC   GL114209   0.479  27.627   8.864
  874POPC   GL214210   0.515  27.650   8.864
  874POPC   C1A14211   0.418  27.613   8.564
  874POPC   D2A14212   0.446  27.582   8.264
  874POPC   C3A14213   0.403  27.585   7.964
  874POPC   C4A14214   0.480  27.643   7.664
  874POPC   C1B14215   0.722  27.612   8.564
  874POPC   C2B14216   0.641  27.577   8.264
  874POPC   C3B14217   0.655  27.621   7.964
  874POPC   C4B14218   0.694  27.571   7.664
  875POPC   NC314219   1.168  26.818   9.464
  875POPC   PO414220   1.220  26.821   9.164
  875POPC   GL114221   1.258  26.784   8.864
  875POPC   GL214222   1.333  26.850   8.864
  875POPC   C1A14223   1.231  26.863   8.564
  875POPC   D2A14224   1.224  26.817   8.264
  875POPC   C3A14225   1.193  26.797   7.964
  875POPC   C4A14226   1.225  26.805   7.664
  875POPC   C1B14227   1.439  26.996   8.564
  875POPC   C2B14228   1.371  27.012   8.264
  875POPC   C3B14229   1.408  27.013   7.964
  875POPC   C4B14230   1.456  26.931   7.664
  876POPC   NC314231  33.015  40.792   9.464
  876POPC   PO414232  33.072  40.777   9.164
  876POPC   GL114233  33.057  40.813   8.864
  876POPC   GL214234  32.889  40.826   8.864
  876POPC   C1A14235  33.066  40.734   8.564
  876POPC   D2A14236  33.060  40.757   8.264
  876POPC   C3A14237  33.014  40.814   7.964
  876POPC   C4A14238  33.016  40.814   7.664
  876POPC   C1B14239  32.822  40.978   8.564
  876POPC   C2B14240  32.801  40.996   8.264
  876POPC   C3B14241  32.811  40.930   7.964
  876POPC   C4B14242  32.810  40.933   7.664
  877POPC   NC314243  35.351  40.809   9.464
  877POPC   PO414244  35.379  40.758   9.164
  877POPC   GL114245  35.337  40.782   8.864
  877POPC   GL214246  35.197  40.733   8.864
  877POPC   C1A14247  35.319  40.794   8.564
  877POPC   D2A14248  35.359  40.775   8.264
  877POPC   C3A14249  35.351  40.801   7.964
  877POPC   C4A14250  35.312  40.828   7.664
  877POPC   C1B14251  35.130  40.630   8.564
  877POPC   C2B14252  35.117  40.670   8.264
  877POPC   C3B14253  35.174  40.710   7.964
  877POPC   C4B14254  35.117  40.696   7.664
  878POPC   NC314255  29.930   5.903   9.464
  878POPC   PO414256  29.950   5.832   9.164
  878POPC   GL114257  29.912   5.863   8.864
  878POPC   GL214258  29.978   5.990   8.864
  878POPC   C1A14259  29.929   5.850   8.564
  878POPC   D2A14260  29.878   5.903   8.264
  878POPC   C3A14261  29.937   5.866   7.964
  878POPC   C4A14262  29.881   5.859   7.664
  878POPC   C1B14263  30.056   6.108   8.564
  878POPC   C2B14264  30.000   6.136   8.264
  878POPC   C3B14265  30.022   6.083   7.964
  878POPC   C4B14266  29.978   6.089   7.664
  879POPC   NC314267  12.124  43.138   9.464
  879POPC   PO414268  12.069  43.122   9.164
  879POPC   GL114269  12.085  43.138   8.864
  879POPC   GL214270  12.088  43.186   8.864
  879POPC   C1A14271  12.072  43.085   8.564
  879POPC   D2A14272  12.095  43.118   8.264
  879POPC   C3A14273  12.048  43.100   7.964
  879POPC   C4A14274  12.104  43.159   7.664
  879POPC   C1B14275  12.198  43.308   8.564
  879POPC   C2B14276  12.177  43.368   8.264
  879POPC   C3B14277  12.209  43.336   7.964
  879POPC   C4B14278  12.198  43.310   7.664
  880POPC   NC314279  12.026  33.801   9.464
  880POPC   PO414280  12.057  33.847   9.164
  880POPC   GL114281  12.116  33.808   8.864
  880POPC   GL214282  12.184  33.841   8.864
  880POPC   C1A14283  12.034  33.849   8.564
  880POPC   D2A14284  12.056  33.808   8.264
  880POPC   C3A14285  12.067  33.813   7.964
  880POPC   C4A14286  12.123  33.809   7.664
  880POPC   C1B14287  12.337  33.877   8.564
  880POPC   C2B14288  12.341  33.870   8.264
  880POPC   C3B14289  12.349  33.872   7.964
  880POPC   C4B14290  12.290  33.819   7.664
  881POPC   NC314291  36.078  14.365   9.464
  881POPC   PO414292  36.157  14.395   9.164
  881POPC   GL114293  36.092  14.423   8.864
  881POPC   GL214294  36.076  14.565   8.864
  881POPC   C1A14295  36.162  14.453   8.564
  881POPC   D2A14296  36.144  14.367   8.264
  881POPC   C3A14297  36.133  14.450   7.964
  881POPC   C4A14298  36.105  14.392   7.664
  881POPC   C1B14299  36.084  14.674   8.564
  881POPC   C2B14300  36.146  14.662   8.264
  881POPC   C3B14301  36.150  14.634   7.964
  881POPC   C4B14302  36.123  14.700   7.664
  882POPC   NC314303  39.992  40.740   9.464
  882POPC   PO414304  39.969  40.826   9.164
  882POPC   GL114305  39.968  40.760   8.864
  882POPC   GL214306  39.955  40.727   8.864
  882POPC   C1A14307  39.982  40.777   8.564
  882POPC   D2A14308  40.031  40.772   8.264
  882POPC   C3A14309  40.007  40.813   7.964
  882POPC   C4A14310  39.960  40.822   7.664
  882POPC   C1B14311  39.843  40.573   8.564
  882POPC   C2B14312  39.892  40.608   8.264
  882POPC   C3B14313  39.889  40.623   7.964
  882POPC   C4B14314  39.807  40.566   7.664
  883POPC   NC314315  22.163   1.215   9.464
  883POPC   PO414316  22.174   1.173   9.164
  883POPC   GL114317  22.184   1.195   8.864
  883POPC   GL214318  22.277   1.223   8.864
  883POPC   C1A14319  22.118   1.233   8.564
  883POPC   D2A14320  22.143   1.216   8.264
  883POPC   C3A14321  22.185   1.199   7.964
  883POPC   C4A14322  22.143   1.168   7.664
  883POPC   C1B14323  22.395   1.209   8.564
  883POPC   C2B14324  22.388   1.265   8.264
  883POPC   C3B14325  22.385   1.266   7.964
  883POPC   C4B14326  22.433   1.233   7.664
  884POPC   NC314327   3.591  33.009   9.464
  884POPC   PO414328   3.524  33.016   9.164
  884POPC   GL114329   3.562  32.995   8.864
  884POPC   GL214330   3.456  32.961   8.864
  884POPC   C1A14331   3.525  33.031   8.564
  884POPC   D2A14332   3.549  33.042   8.264
  884POPC   C3A14333   3.583  33.063   7.964
  884POPC   C4A14334   3.556  33.003   7.664
  884POPC   C1B14335   3.357  32.886   8.564
  884POPC   C2B14336   3.333  32.862   8.264
  884POPC   C3B14337   3.365  32.875   7.964
  884POPC   C4B14338   3.327  32.923   7.664
  885POPC   NC314339  21.430   6.607   9.464
  885POPC   PO414340  21.373   6.623   9.164
  885POPC   GL114341  21.428   6.621   8.864
  885POPC   GL214342  21.368   6.541   8.864
  885POPC   C1A14343  21.431   6.617   8.564
  885POPC   D2A14344  21.406   6.613   8.264
  885POPC   C3A14345  21.405   6.627   7.964
  885POPC   C4A14346  21.360   6.620   7.664
  885POPC   C1B14347  21.479   6.359   8.564
  885POPC   C2B14348  21.405   6.400   8.264
  885POPC   C3B14349  21.465   6.380   7.964
  885POPC   C4B14350  21.485   6.398   7.664
  886POPC   NC314351   8.967  35.370   9.464
  886POPC   PO414352   9.021  35.370   9.164
  886POPC   GL114353   8.932  35.304   8.864
  886POPC   GL214354   8.909  35.446   8.864
  886POPC   C1A14355   8.948  35.346   8.564
  886POPC   D2A14356   8.951  35.383   8.264
  886POPC   C3A14357   8.962  35.316   7.964
  886POPC   C4A14358   8.934  35.392   7.664
  886POPC   C1B14359   8.878  35.571   8.564
  886POPC   C2B14360   8.859  35.543   8.264
  886POPC   C3B14361   8.888  35.602   7.964
  886POPC   C4B14362   8.800  35.564   7.664
  887POPC   NC314363   0.433  18.317   9.464
  887POPC   PO414364   0.443  18.263   9.164
  887POPC   GL114365   0.454  18.275   8.864
  887POPC   GL214366   0.378  18.192   8.864
  887POPC   C1A14367   0.408  18.315   8.564
  887POPC   D2A14368   0.458  18.244   8.264
  887POPC   C3A14369   0.449  18.248   7.964
  887POPC   C4A14370   0.388  18.313   7.664
  887POPC   C1B14371   0.434  18.078   8.564
  887POPC   C2B14372   0.356  18.083   8.264
  887POPC   C3B14373   0.351  18.076   7.964
  887POPC   C4B14374   0.419  18.037   7.664
  888POPC   NC314375   7.469  26.846   9.464
  888POPC   PO414376   7.398  26.770   9.164
  888POPC   GL114377   7.422  26.771   8.864
  888POPC   GL214378   7.402  26.724   8.864
  888POPC   C1A14379   7.450  26.777   8.564
  888POPC   D2A14380   7.399  26.796   8.264
  888POPC   C3A14381   7.435  26.796   7.964
  888POPC   C4A14382   7.441  26.809   7.664
  888POPC   C1B14383   7.282  26.645   8.564
  888POPC   C2B14384   7.332  26.585   8.264
  888POPC   C3B14385   7.285  26.617   7.964
  888POPC   C4B14386   7.349  26.563   7.664
  889POPC   NC314387  16.726  33.815   9.464
  889POPC   PO414388  16.753  33.841   9.164
  889POPC   GL114389  16.779  33.824   8.864
  889POPC   GL214390  16.853  33.802   8.864
  889POPC   C1A14391  16.709  33.819   8.564
  889POPC   D2A14392  16.780  33.766   8.264
  889POPC   C3A14393  16.779  33.778   7.964
  889POPC   C4A14394  16.755  33.769   7.664
  889POPC   C1B14395  16.987  33.855   8.564
  889POPC   C2B14396  16.982  33.854   8.264
  889POPC   C3B14397  16.961  33.770   7.964
  889POPC   C4B14398  16.939  33.804   7.664
  890POPC   NC314399  43.918  33.775   9.464
  890POPC   PO414400  43.935  33.803   9.164
  890POPC   GL114401  43.846  33.814   8.864
  890POPC   GL214402  43.969  33.841   8.864
  890POPC   C1A14403  43.860  33.769   8.564
  890POPC   D2A14404  43.870  33.805   8.264
  890POPC   C3A14405  43.922  33.844   7.964
  890POPC   C4A14406  43.850  33.787   7.664
  890POPC   C1B14407  44.102  33.966   8.564
  890POPC   C2B14408  44.130  33.901   8.264
  890POPC   C3B14409  44.095  33.907   7.964
  890POPC   C4B14410  44.106  33.892   7.664
  891POPC   NC314411  12.849  24.529   9.464
  891POPC   PO414412  12.841  24.509   9.164
  891POPC   GL114413  12.815  24.476   8.864
  891POPC   GL214414  13.015  24.515   8.864
  891POPC   C1A14415  12.892  24.535   8.564
  891POPC   D2A14416  12.892  24.536   8.264
  891POPC   C3A14417  12.873  24.458   7.964
  891POPC   C4A14418  12.807  24.440   7.664
  891POPC   C1B14419  13.064  24.492   8.564
  891POPC   C2B14420  13.071  24.451   8.264
  891POPC   C3B14421  13.128  24.468   7.964
  891POPC   C4B14422  13.058  24.487   7.664
  892POPC   NC314423   1.236  17.525   9.464
  892POPC   PO414424   1.205  17.457   9.164
  892POPC   GL114425   1.198  17.488   8.864
  892POPC   GL214426   1.176  17.436   8.864
  892POPC   C1A14427   1.244  17.483   8.564
  892POPC   D2A14428   1.215  17.481   8.264
  892POPC   C3A14429   1.188  17.459   7.964
  892POPC   C4A14430   1.212  17.477   7.664
  892POPC   C1B14431   1.064  17.249   8.564
  892POPC   C2B14432   1.156  17.326   8.264
  892POPC   C3B14433   1.086  17.309   7.964
  892POPC   C4B14434   1.123  17.232   7.664
  893POPC   NC314435  22.918  31.476   9.464
  893POPC   PO414436  22.926  31.471   9.164
  893POPC   GL114437  22.905  31.422   8.864
  893POPC   GL214438  23.090  31.417   8.864
  893POPC   C1A14439  22.967  31.445   8.564
  893POPC   D2A14440  22.922  31.497   8.264
  893POPC   C3A14441  22.953  31.516   7.964
  893POPC   C4A14442  22.919  31.423   7.664
  893POPC   C1B14443  23.098  31.322   8.564
  893POPC   C2B14444  23.186  31.328   8.264
  893POPC   C3B14445  23.124  31.343   7.964
  893POPC   C4B14446  23.125  31.348   7.664
  894POPC   NC314447  35.338  12.899   9.464
  894POPC   PO414448  35.400  12.872   9.164
  894POPC   GL114449  35.333  12.858   8.864
  894POPC   GL214450  35.237  12.799   8.864
  894POPC   C1A14451  35.312  12.845   8.564
  894POPC   D2A14452  35.336  12.874   8.264
  894POPC   C3A14453  35.316  12.886   7.964
  894POPC   C4A14454  35.363  12.858   7.664
  894POPC   C1B14455  35.097  12.802   8.564
  894POPC   C2B14456  35.060  12.834   8.264
  894POPC   C3B14457  35.124  12.759   7.964
  894POPC   C4B14458  35.128  12.778   7.664
  895POPC   NC314459  39.986   3.519   9.464
  895POPC   PO414460  40.023   3.509   9.164
  895POPC   GL114461  40.025   3.513   8.864
  895POPC   GL214462  39.971   3.622   8.864
  895POPC   C1A14463  39.968   3.518   8.564
  895POPC   D2A14464  40.023   3.543   8.264
  895POPC   C3A14465  40.050   3.538   7.964
  895POPC   C4A14466  40.006   3.582   7.664
  895POPC   C1B14467  39.873   3.787   8.564
  895POPC   C2B14468  39.896   3.756   8.264
  895POPC   C3B14469  39.932   3.774   7.964
  895POPC   C4B14470  39.868   3.781   7.664
  896POPC   NC314471   2.745  32.233   9.464
  896POPC   PO414472   2.743  32.244   9.164
  896POPC   GL114473   2.751  32.239   8.864
  896POPC   GL214474   2.918  32.234   8.864
  896POPC   C1A14475   2.804  32.282   8.564
  896POPC   D2A14476   2.742  32.214   8.264
  896POPC   C3A14477   2.780  32.251   7.964
  896POPC   C4A14478   2.748  32.278   7.664
  896POPC   C1B14479   3.055  32.196   8.564
  896POPC   C2B14480   3.040  32.225   8.264
  896POPC   C3B14481   2.987  32.214   7.964
  896POPC   C4B14482   3.055  32.240   7.664
  897POPC   NC314483   2.001  26.866   9.464
  897POPC   PO414484   2.031  26.781   9.164
  897POPC   GL114485   2.003  26.818   8.864
  897POPC   GL214486   2.056  26.738   8.864
  897POPC   C1A14487   2.002  26.815   8.564
  897POPC   D2A14488   1.941  26.782   8.264
  897POPC   C3A14489   2.000  26.779   7.964
  897POPC   C4A14490   1.968  26.793   7.664
  897POPC   C1B14491   2.193  26.731   8.564
  897POPC   C2B14492   2.237  26.689   8.264
  897POPC   C3B14493   2.184  26.728   7.964
  897POPC   C4B14494   2.244  26.681   7.664
  898POPC   NC314495  42.341  41.596   9.464
  898POPC   PO414496  42.287  41.541   9.164
  898POPC   GL114497  42.352  41.519   8.864
  898POPC   GL214498  42.231  41.535   8.864
  898POPC   C1A14499  42.355  41.561   8.564
  898POPC   D2A14500  42.291  41.600   8.264
  898POPC   C3A14501  42.382  41.587   7.964
  898POPC   C4A14502  42.369  41.556   7.664
  898POPC   C1B14503  42.107  41.604   8.564
  898POPC   C2B14504  42.124  41.576   8.264
  898POPC   C3B14505  42.082  41.628   7.964
  898POPC   C4B14506  42.094  41.592   7.664
  899POPC   NC314507   8.929  25.311   9.464
  899POPC   PO414508   8.991  25.308   9.164
  899POPC   GL114509   8.947  25.282   8.864
  899POPC   GL214510   8.983  25.113   8.864
  899POPC   C1A14511   8.962  25.281   8.564
  899POPC   D2A14512   8.969  25.287   8.264
  899POPC   C3A14513   9.022  25.227   7.964
  899POPC   C4A14514   8.931  25.250   7.664
  899POPC   C1B14515   8.917  25.025   8.564
  899POPC   C2B14516   8.884  24.990   8.264
  899POPC   C3B14517   8.954  25.055   7.964
  899POPC   C4B14518   8.950  24.977   7.664
  900POPC   NC314519  10.567   8.219   9.464
  900POPC   PO414520  10.550   8.224   9.164
  900POPC   GL114521  10.501   8.181   8.864
  900POPC   GL214522  10.647   8.206   8.864
  900POPC   C1A14523  10.545   8.231   8.564
  900POPC   D2A14524  10.571   8.230   8.264
  900POPC   C3A14525  10.484   8.244   7.964
  900POPC   C4A14526  10.572   8.165   7.664
  900POPC   C1B14527  10.774   8.235   8.564
  900POPC   C2B14528  10.807   8.258   8.264
  900POPC   C3B14529  10.807   8.316   7.964
  900POPC   C4B14530  10.759   8.289   7.664
  901POPC   NC314531  29.155  31.423   9.464
  901POPC   PO414532  29.133  31.500   9.164
  901POPC   GL114533  29.158  31.460   8.864
  901POPC   GL214534  29.152  31.583   8.864
  901POPC   C1A14535  29.116  31.504   8.564
  901POPC   D2A14536  29.113  31.467   8.264
  901POPC   C3A14537  29.154  31.458   7.964
  901POPC   C4A14538  29.192  31.521   7.664
  901POPC   C1B14539  29.271  31.735   8.564
  901POPC   C2B14540  29.172  31.682   8.264
  901POPC   C3B14541  29.220  31.683   7.964
  901POPC   C4B14542  29.256  31.665   7.664
  902POPC   NC314543  19.066   3.568   9.464
  902POPC   PO414544  19.038   3.519   9.164
  902POPC   GL114545  19.014   3.570   8.864
  902POPC   GL214546  18.944   3.636   8.864
  902POPC   C1A14547  19.065   3.588   8.564
  902POPC   D2A14548  19.023   3.581   8.264
  902POPC   C3A14549  19.025   3.572   7.964
  902POPC   C4A14550  19.080   3.495   7.664
  902POPC   C1B14551  18.903   3.680   8.564
  902POPC   C2B14552  18.827   3.713   8.264
  902POPC   C3B14553  18.893   3.745   7.964
  902POPC   C4B14554  18.860   3.716   7.664
  903POPC   NC314555   1.981  44.649   9.464
  903POPC   PO414556   1.945  44.710   9.164
  903POPC   GL114557   1.963  44.693   8.864
  903POPC   GL214558   2.112  44.559   8.864
  903POPC   C1A14559   2.025  44.632   8.564
  903POPC   D2A14560   1.963  44.618   8.264
  903POPC   C3A14561   1.961  44.691   7.964
  903POPC   C4A14562   2.009  44.690   7.664
  903POPC   C1B14563   2.120  44.512   8.564
  903POPC   C2B14564   2.150  44.470   8.264
  903POPC   C3B14565   2.155  44.462   7.964
  903POPC   C4B14566   2.179  44.443   7.664
  904POPC   NC314567  39.272  22.117   9.464
  904POPC   PO414568  39.196  22.139   9.164
  904POPC   GL114569  39.216  22.199   8.864
  904POPC   GL214570  39.127  22.308   8.864
  904POPC   C1A14571  39.243  22.207   8.564
  904POPC   D2A14572  39.202  22.202   8.264
  904POPC   C3A14573  39.217  22.170   7.964
  904POPC   C4A14574  39.184  22.182   7.664
  904POPC   C1B14575  39.063  22.415   8.564
  904POPC   C2B14576  39.156  22.395   8.264
  904POPC   C3B14577  39.094  22.380   7.964
  904POPC   C4B14578  39.073  22.338   7.664
  905POPC   NC314579   8.183   2.718   9.464
  905POPC   PO414580   8.244   2.747   9.164
  905POPC   GL114581   8.197   2.795   8.864
  905POPC   GL214582   8.351   2.683   8.864
  905POPC   C1A14583   8.160   2.786   8.564
  905POPC   D2A14584   8.218   2.790   8.264
  905POPC   C3A14585   8.193   2.757   7.964
  905POPC   C4A14586   8.225   2.786   7.664
  905POPC   C1B14587   8.463   2.696   8.564
  905POPC   C2B14588   8.404   2.689   8.264
  905POPC   C3B14589   8.398   2.656   7.964
  905POPC   C4B14590   8.428   2.687   7.664
  906POPC   NC314591   3.534  10.502   9.464
  906POPC   PO414592   3.556  10.507   9.164
  906POPC   GL114593   3.578  10.546   8.864
  906POPC   GL214594   3.466  10.587   8.864
  906POPC   C1A14595   3.523  10.510   8.564
  906POPC   D2A14596   3.494  10.513   8.264
  906POPC   C3A14597   3.589  10.548   7.964
  906POPC   C4A14598   3.542  10.516   7.664
  906POPC   C1B14599   3.475  10.776   8.564
  906POPC   C2B14600   3.436  10.729   8.264
  906POPC   C3B14601   3.424  10.731   7.964
  906POPC   C4B14602   3.420  10.784   7.664
  907POPC   NC314603   3.572   3.553   9.464
  907POPC   PO414604   3.519   3.577   9.164
  907POPC   GL114605   3.580   3.501   8.864
  907POPC   GL214606   3.489   3.684   8.864
  907POPC   C1A14607   3.584   3.549   8.564
  907POPC   D2A14608   3.575   3.564   8.264
  907POPC   C3A14609   3.562   3.498   7.964
  907POPC   C4A14610   3.509   3.581   7.664
  907POPC   C1B14611   3.384   3.709   8.564
  907POPC   C2B14612   3.405   3.732   8.264
  907POPC   C3B14613   3.356   3.756   7.964
  907POPC   C4B14614   3.411   3.736   7.664
  908POPC   NC314615   2.742  30.658   9.464
  908POPC   PO414616   2.796  30.703   9.164
  908POPC   GL114617   2.756  30.675   8.864
  908POPC   GL214618   2.905  30.583   8.864
  908POPC   C1A14619   2.729  30.696   8.564
  908POPC   D2A14620   2.738  30.678   8.264
  908POPC   C3A14621   2.814  30.686   7.964
  908POPC   C4A14622   2.727  30.667   7.664
  908POPC   C1B14623   3.005  30.580   8.564
  908POPC   C2B14624   3.017  30.604   8.264
  908POPC   C3B14625   2.961  30.544   7.964
  908POPC   C4B14626   2.999  30.590   7.664
  909POPC   NC314627   8.202  44.694   9.464
  909POPC   PO414628   8.207  44.693   9.164
  909POPC   GL114629   8.237  44.650   8.864
  909POPC   GL214630   8.211  44.571   8.864
  909POPC   C1A14631   8.227  44.630   8.564
  909POPC   D2A14632   8.160  44.677   8.264
  909POPC   C3A14633   8.241  44.654   7.964
  909POPC   C4A14634   8.204  44.676   7.664
  909POPC   C1B14635   8.153  44.410   8.564
  909POPC   C2B14636   8.126  44.410   8.264
  909POPC   C3B14637   8.172  44.410   7.964
  909POPC   C4B14638   8.127  44.452   7.664
  910POPC   NC314639   7.467  25.262   9.464
  910POPC   PO414640   7.417  25.278   9.164
  910POPC   GL114641   7.416  25.231   8.864
  910POPC   GL214642   7.461  25.163   8.864
  910POPC   C1A14643   7.431  25.232   8.564
  910POPC   D2A14644   7.460  25.292   8.264
  910POPC   C3A14645   7.415  25.266   7.964
  910POPC   C4A14646   7.390  25.304   7.664
  910POPC   C1B14647   7.511  25.096   8.564
  910POPC   C2B14648   7.517  25.093   8.264
  910POPC   C3B14649   7.509  25.071   7.964
  910POPC   C4B14650   7.507  25.099   7.664
  911POPC   NC314651  12.057  39.230   9.464
  911POPC   PO414652  12.067  39.264   9.164
  911POPC   GL114653  12.125  39.186   8.864
  911POPC   GL214654  12.016  39.106   8.864
  911POPC   C1A14655  12.083  39.203   8.564
  911POPC   D2A14656  12.036  39.235   8.264
  911POPC   C3A14657  12.055  39.189   7.964
  911POPC   C4A14658  12.066  39.221   7.664
  911POPC   C1B14659  12.032  38.937   8.564
  911POPC   C2B14660  11.996  38.998   8.264
  911POPC   C3B14661  12.023  38.985   7.964
  911POPC   C4B14662  12.074  38.944   7.664
  912POPC   NC314663   5.076  23.699   9.464
  912POPC   PO414664   5.073  23.698   9.164
  912POPC   GL114665   5.126  23.715   8.864
  912POPC   GL214666   5.017  23.766   8.864
  912POPC   C1A14667   5.060  23.678   8.564
  912POPC   D2A14668   5.085  23.748   8.264
  912POPC   C3A14669   5.068  23.698   7.964
  912POPC   C4A14670   5.120  23.708   7.664
  912POPC   C1B14671   4.925  23.921   8.564
  912POPC   C2B14672   4.949  23.938   8.264
  912POPC   C3B14673   4.910  23.902   7.964
  912POPC   C4B14674   4.949  23.915   7.664
  913POPC   NC314675  33.038  43.098   9.464
  913POPC   PO414676  33.073  43.067   9.164
  913POPC   GL114677  33.020  43.109   8.864
  913POPC   GL214678  33.040  43.221   8.864
  913POPC   C1A14679  33.016  43.150   8.564
  913POPC   D2A14680  32.996  43.143   8.264
  913POPC   C3A14681  33.072  43.108   7.964
  913POPC   C4A14682  33.040  43.105   7.664
  913POPC   C1B14683  33.069  43.355   8.564
  913POPC   C2B14684  33.071  43.326   8.264
  913POPC   C3B14685  33.038  43.347   7.964
  913POPC   C4B14686  32.999  43.393   7.664
  914POPC   NC314687  12.073   8.150   9.464
  914POPC   PO414688  12.094   8.239   9.164
  914POPC   GL114689  12.091   8.149   8.864
  914POPC   GL214690  12.110   8.052   8.864
  914POPC   C1A14691  12.083   8.195   8.564
  914POPC   D2A14692  12.079   8.200   8.264
  914POPC   C3A14693  12.058   8.244   7.964
  914POPC   C4A14694  12.114   8.207   7.664
  914POPC   C1B14695  12.069   7.959   8.564
  914POPC   C2B14696  12.102   7.902   8.264
  914POPC   C3B14697  12.129   7.969   7.964
  914POPC   C4B14698  12.049   7.945   7.664
  915POPC   NC314699   5.083  11.314   9.464
  915POPC   PO414700   5.105  11.259   9.164
  915POPC   GL114701   5.111  11.281   8.864
  915POPC   GL214702   4.996  11.213   8.864
  915POPC   C1A14703   5.109  11.257   8.564
  915POPC   D2A14704   5.107  11.291   8.264
  915POPC   C3A14705   5.108  11.279   7.964
  915POPC   C4A14706   5.109  11.268   7.664
  915POPC   C1B14707   4.920  11.184   8.564
  915POPC   C2B14708   4.871  11.137   8.264
  915POPC   C3B14709   4.827  11.150   7.964
  915POPC   C4B14710   4.856  11.204   7.664
  916POPC   NC314711  40.786  22.148   9.464
  916POPC   PO414712  40.833  22.143   9.164
  916POPC   GL114713  40.768  22.200   8.864
  916POPC   GL214714  40.924  22.151   8.864
  916POPC   C1A14715  40.791  22.183   8.564
  916POPC   D2A14716  40.824  22.124   8.264
  916POPC   C3A14717  40.803  22.154   7.964
  916POPC   C4A14718  40.762  22.191   7.664
  916POPC   C1B14719  41.054  22.241   8.564
  916POPC   C2B14720  41.054  22.259   8.264
  916POPC   C3B14721  41.046  22.214   7.964
  916POPC   C4B14722  41.030  22.269   7.664
  917POPC   NC314723  42.359  39.220   9.464
  917POPC   PO414724  42.309  39.247   9.164
  917POPC   GL114725  42.336  39.187   8.864
  917POPC   GL214726  42.361  39.080   8.864
  917POPC   C1A14727  42.375  39.207   8.564
  917POPC   D2A14728  42.365  39.222   8.264
  917POPC   C3A14729  42.302  39.195   7.964
  917POPC   C4A14730  42.325  39.190   7.664
  917POPC   C1B14731  42.498  39.019   8.564
  917POPC   C2B14732  42.442  38.987   8.264
  917POPC   C3B14733  42.454  39.043   7.964
  917POPC   C4B14734  42.474  38.996   7.664
  918POPC   NC314735  22.115  22.134   9.464
  918POPC   PO414736  22.159  22.130   9.164
  918POPC   GL114737  22.184  22.200   8.864
  918POPC   GL214738  22.272  22.020   8.864
  918POPC   C1A14739  22.124  22.153   8.564
  918POPC   D2A14740  22.113  22.155   8.264
  918POPC   C3A14741  22.147  22.208   7.964
  918POPC   C4A14742  22.168  22.127   7.664
  918POPC   C1B14743  22.290  21.915   8.564
  918POPC   C2B14744  22.250  21.965   8.264
  918POPC   C3B14745  22.256  21.991   7.964
  918POPC   C4B14746  22.310  21.912   7.664
  919POPC   NC314747  39.981   9.763   9.464
  919POPC   PO414748  39.975   9.733   9.164
  919POPC   GL114749  40.015   9.772   8.864
  919POPC   GL214750  39.921   9.666   8.864
  919POPC   C1A14751  40.023   9.764   8.564
  919POPC   D2A14752  39.961   9.742   8.264
  919POPC   C3A14753  39.973   9.760   7.964
  919POPC   C4A14754  39.962   9.771   7.664
  919POPC   C1B14755  39.755   9.634   8.564
  919POPC   C2B14756  39.745   9.691   8.264
  919POPC   C3B14757  39.804   9.667   7.964
  919POPC   C4B14758  39.809   9.637   7.664
  920POPC   NC314759   9.022   7.448   9.464
  920POPC   PO414760   9.005   7.455   9.164
  920POPC   GL114761   8.966   7.393   8.864
  920POPC   GL214762   9.016   7.547   8.864
  920POPC   C1A14763   8.988   7.462   8.564
  920POPC   D2A14764   8.976   7.400   8.264
  920POPC   C3A14765   8.978   7.443   7.964
  920POPC   C4A14766   8.982   7.448   7.664
  920POPC   C1B14767   9.026   7.642   8.564
  920POPC   C2B14768   9.108   7.666   8.264
  920POPC   C3B14769   9.080   7.673   7.964
  920POPC   C4B14770   9.046   7.603   7.664
  921POPC   NC314771  41.560  19.064   9.464
  921POPC   PO414772  41.545  19.108   9.164
  921POPC   GL114773  41.555  19.014   8.864
  921POPC   GL214774  41.479  18.971   8.864
  921POPC   C1A14775  41.509  19.017   8.564
  921POPC   D2A14776  41.511  19.091   8.264
  921POPC   C3A14777  41.580  19.018   7.964
  921POPC   C4A14778  41.560  19.083   7.664
  921POPC   C1B14779  41.379  18.855   8.564
  921POPC   C2B14780  41.387  18.918   8.264
  921POPC   C3B14781  41.362  18.930   7.964
  921POPC   C4B14782  41.343  18.919   7.664
  922POPC   NC314783   5.107  30.662   9.464
  922POPC   PO414784   5.050  30.662   9.164
  922POPC   GL114785   5.115  30.728   8.864
  922POPC   GL214786   5.053  30.628   8.864
  922POPC   C1A14787   5.075  30.745   8.564
  922POPC   D2A14788   5.106  30.696   8.264
  922POPC   C3A14789   5.103  30.710   7.964
  922POPC   C4A14790   5.105  30.673   7.664
  922POPC   C1B14791   5.015  30.435   8.564
  922POPC   C2B14792   4.962  30.506   8.264
  922POPC   C3B14793   5.000  30.506   7.964
  922POPC   C4B14794   5.048  30.462   7.664
  923POPC   NC314795  26.794  34.538   9.464
  923POPC   PO414796  26.791  34.564   9.164
  923POPC   GL114797  26.795  34.593   8.864
  923POPC   GL214798  26.775  34.734   8.864
  923POPC   C1A14799  26.775  34.558   8.564
  923POPC   D2A14800  26.788  34.607   8.264
  923POPC   C3A14801  26.788  34.599   7.964
  923POPC   C4A14802  26.866  34.596   7.664
  923POPC   C1B14803  26.743  34.771   8.564
  923POPC   C2B14804  26.705  34.776   8.264
  923POPC   C3B14805  26.770  34.838   7.964
  923POPC   C4B14806  26.680  34.796   7.664
  924POPC   NC314807   5.122  41.569   9.464
  924POPC   PO414808   5.094  41.596   9.164
  924POPC   GL114809   5.049  41.592   8.864
  924POPC   GL214810   5.225  41.485   8.864
  924POPC   C1A14811   5.053  41.590   8.564
  924POPC   D2A14812   5.113  41.560   8.264
  924POPC   C3A14813   5.129  41.590   7.964
  924POPC   C4A14814   5.062  41.595   7.664
  924POPC   C1B14815   5.284  41.399   8.564
  924POPC   C2B14816   5.322  41.448   8.264
  924POPC   C3B14817   5.296  41.455   7.964
  924POPC   C4B14818   5.355  41.417   7.664
  925POPC   NC314819   1.193  31.479   9.464
  925POPC   PO414820   1.225  31.425   9.164
  925POPC   GL114821   1.215  31.472   8.864
  925POPC   GL214822   1.081  31.439   8.864
  925POPC   C1A14823   1.261  31.450   8.564
  925POPC   D2A14824   1.262  31.452   8.264
  925POPC   C3A14825   1.218  31.463   7.964
  925POPC   C4A14826   1.177  31.442   7.664
  925POPC   C1B14827   1.024  31.304   8.564
  925POPC   C2B14828   0.996  31.320   8.264
  925POPC   C3B14829   0.992  31.386   7.964
  925POPC   C4B14830   0.954  31.326   7.664
  926POPC   NC314831   9.709   2.733   9.464
  926POPC   PO414832   9.784   2.804   9.164
  926POPC   GL114833   9.715   2.773   8.864
  926POPC   GL214834   9.734   2.683   8.864
  926POPC   C1A14835   9.761   2.798   8.564
  926POPC   D2A14836   9.724   2.783   8.264
  926POPC   C3A14837   9.722   2.779   7.964
  926POPC   C4A14838   9.721   2.779   7.664
  926POPC   C1B14839   9.655   2.535   8.564
  926POPC   C2B14840   9.635   2.580   8.264
  926POPC   C3B14841   9.658   2.551   7.964
  926POPC   C4B14842   9.596   2.542   7.664
  927POPC   NC314843   5.097  40.809   9.464
  927POPC   PO414844   5.107  40.794   9.164
  927POPC   GL114845   5.143  40.800   8.864
  927POPC   GL214846   5.161  40.776   8.864
  927POPC   C1A14847   5.086  40.814   8.564
  927POPC   D2A14848   5.055  40.804   8.264
  927POPC   C3A14849   5.124  40.762   7.964
  927POPC   C4A14850   5.048  40.806   7.664
  927POPC   C1B14851   5.286  40.726   8.564
  927POPC   C2B14852   5.318  40.684   8.264
  927POPC   C3B14853   5.350  40.740   7.964
  927POPC   C4B14854   5.375  40.749   7.664
  928POPC   NC314855   3.495  38.452   9.464
  928POPC   PO414856   3.546  38.421   9.164
  928POPC   GL114857   3.545  38.459   8.864
  928POPC   GL214858   3.404  38.394   8.864
  928POPC   C1A14859   3.517  38.410   8.564
  928POPC   D2A14860   3.591  38.462   8.264
  928POPC   C3A14861   3.533  38.431   7.964
  928POPC   C4A14862   3.508  38.502   7.664
  928POPC   C1B14863   3.271  38.383   8.564
  928POPC   C2B14864   3.324  38.363   8.264
  928POPC   C3B14865   3.273  38.375   7.964
  928POPC   C4B14866   3.334  38.395   7.664
  929POPC   NC314867  10.498  12.820   9.464
  929POPC   PO414868  10.488  12.843   9.164
  929POPC   GL114869  10.533  12.848   8.864
  929POPC   GL214870  10.559  13.002   8.864
  929POPC   C1A14871  10.513  12.884   8.564
  929POPC   D2A14872  10.556  12.901   8.264
  929POPC   C3A14873  10.485  12.835   7.964
  929POPC   C4A14874  10.534  12.884   7.664
  929POPC   C1B14875  10.565  13.128   8.564
  929POPC   C2B14876  10.581  13.079   8.264
  929POPC   C3B14877  10.615  13.120   7.964
  929POPC   C4B14878  10.613  13.095   7.664
  930POPC   NC314879  40.805  17.477   9.464
  930POPC   PO414880  40.737  17.535   9.164
  930POPC   GL114881  40.799  17.483   8.864
  930POPC   GL214882  40.824  17.612   8.864
  930POPC   C1A14883  40.754  17.472   8.564
  930POPC   D2A14884  40.772  17.487   8.264
  930POPC   C3A14885  40.791  17.475   7.964
  930POPC   C4A14886  40.803  17.548   7.664
  930POPC   C1B14887  40.894  17.721   8.564
  930POPC   C2B14888  40.928  17.688   8.264
  930POPC   C3B14889  40.948  17.706   7.964
  930POPC   C4B14890  40.878  17.706   7.664
  931POPC   NC314891  34.534  32.247   9.464
  931POPC   PO414892  34.573  32.254   9.164
  931POPC   GL114893  34.531  32.272   8.864
  931POPC   GL214894  34.705  32.188   8.864
  931POPC   C1A14895  34.565  32.215   8.564
  931POPC   D2A14896  34.613  32.208   8.264
  931POPC   C3A14897  34.566  32.200   7.964
  931POPC   C4A14898  34.612  32.260   7.664
  931POPC   C1B14899  34.831  32.100   8.564
  931POPC   C2B14900  34.841  32.091   8.264
  931POPC   C3B14901  34.832  32.112   7.964
  931POPC   C4B14902  34.794  32.129   7.664
  932POPC   NC314903  40.786  23.700   9.464
  932POPC   PO414904  40.759  23.666   9.164
  932POPC   GL114905  40.784  23.717   8.864
  932POPC   GL214906  40.943  23.661   8.864
  932POPC   C1A14907  40.811  23.739   8.564
  932POPC   D2A14908  40.821  23.715   8.264
  932POPC   C3A14909  40.780  23.734   7.964
  932POPC   C4A14910  40.801  23.703   7.664
  932POPC   C1B14911  41.015  23.682   8.564
  932POPC   C2B14912  41.044  23.640   8.264
  932POPC   C3B14913  41.022  23.618   7.964
  932POPC   C4B14914  40.974  23.601   7.664
  933POPC   NC314915  24.487  36.141   9.464
  933POPC   PO414916  24.529  36.106   9.164
  933POPC   GL114917  24.502  36.123   8.864
  933POPC   GL214918  24.437  36.246   8.864
  933POPC   C1A14919  24.478  36.126   8.564
  933POPC   D2A14920  24.470  36.110   8.264
  933POPC   C3A14921  24.495  36.086   7.964
  933POPC   C4A14922  24.510  36.170   7.664
  933POPC   C1B14923  24.372  36.362   8.564
  933POPC   C2B14924  24.355  36.380   8.264
  933POPC   C3B14925  24.370  36.342   7.964
  933POPC   C4B14926  24.422  36.313   7.664
  934POPC   NC314927  26.860  29.109   9.464
  934POPC   PO414928  26.858  29.143   9.164
  934POPC   GL114929  26.818  29.146   8.864
  934POPC   GL214930  26.936  29.130   8.864
  934POPC   C1A14931  26.815  29.143   8.564
  934POPC   D2A14932  26.801  29.193   8.264
  934POPC   C3A14933  26.813  29.191   7.964
  934POPC   C4A14934  26.809  29.116   7.664
  934POPC   C1B14935  27.026  29.151   8.564
  934POPC   C2B14936  27.032  29.076   8.264
  934POPC   C3B14937  27.033  29.112   7.964
  934POPC   C4B14938  27.095  29.062   7.664
  935POPC   NC314939  10.504  31.428   9.464
  935POPC   PO414940  10.534  31.478   9.164
  935POPC   GL114941  10.510  31.451   8.864
  935POPC   GL214942  10.649  31.380   8.864
  935POPC   C1A14943  10.484  31.448   8.564
  935POPC   D2A14944  10.544  31.478   8.264
  935POPC   C3A14945  10.502  31.519   7.964
  935POPC   C4A14946  10.513  31.443   7.664
  935POPC   C1B14947  10.693  31.283   8.564
  935POPC   C2B14948  10.709  31.344   8.264
  935POPC   C3B14949  10.716  31.271   7.964
  935POPC   C4B14950  10.748  31.319   7.664
  936POPC   NC314951   8.938  15.212   9.464
  936POPC   PO414952   8.925  15.218   9.164
  936POPC   GL114953   8.974  15.132   8.864
  936POPC   GL214954   9.078  15.225   8.864
  936POPC   C1A14955   8.940  15.165   8.564
  936POPC   D2A14956   8.937  15.149   8.264
  936POPC   C3A14957   8.966  15.201   7.964
  936POPC   C4A14958   9.012  15.173   7.664
  936POPC   C1B14959   9.232  15.247   8.564
  936POPC   C2B14960   9.244  15.273   8.264
  936POPC   C3B14961   9.150  15.263   7.964
  936POPC   C4B14962   9.249  15.267   7.664
  937POPC   NC314963  33.808  41.522   9.464
  937POPC   PO414964  33.819  41.597   9.164
  937POPC   GL114965  33.783  41.583   8.864
  937POPC   GL214966  33.954  41.503   8.864
  937POPC   C1A14967  33.797  41.542   8.564
  937POPC   D2A14968  33.833  41.554   8.264
  937POPC   C3A14969  33.838  41.606   7.964
  937POPC   C4A14970  33.800  41.590   7.664
  937POPC   C1B14971  34.081  41.556   8.564
  937POPC   C2B14972  34.048  41.528   8.264
  937POPC   C3B14973  34.095  41.538   7.964
  937POPC   C4B14974  34.026  41.555   7.664
  938POPC   NC314975   5.051   0.410   9.464
  938POPC   PO414976   5.097   0.412   9.164
  938POPC   GL114977   5.127   0.457   8.864
  938POPC   GL214978   5.085   0.270   8.864
  938POPC   C1A14979   5.065   0.474   8.564
  938POPC   D2A14980   5.141   0.405   8.264
  938POPC   C3A14981   5.055   0.392   7.964
  938POPC   C4A14982   5.109   0.442   7.664
  938POPC   C1B14983   5.137   0.149   8.564
  938POPC   C2B14984   5.097   0.215   8.264
  938POPC   C3B14985   5.154   0.188   7.964
  938POPC   C4B14986   5.135   0.159   7.664
  939POPC   NC314987  24.476  22.939   9.464
  939POPC   PO414988  24.517  22.932   9.164
  939POPC   GL114989  24.524  22.958   8.864
  939POPC   GL214990  24.513  22.786   8.864
  939POPC   C1A14991  24.450  22.918   8.564
  939POPC   D2A14992  24.455  22.935   8.264
  939POPC   C3A14993  24.506  22.979   7.964
  939POPC   C4A14994  24.463  22.890   7.664
  939POPC   C1B14995  24.549  22.661   8.564
  939POPC   C2B14996  24.483  22.671   8.264
  939POPC   C3B14997  24.483  22.673   7.964
  939POPC   C4B14998  24.537  22.729   7.664
  940POPC   NC314999  35.361  34.553   9.464
  940POPC   PO415000  35.351  34.615   9.164
  940POPC   GL115001  35.379  34.527   8.864
  940POPC   GL215002  35.259  34.595   8.864
  940POPC   C1A15003  35.398  34.617   8.564
  940POPC   D2A15004  35.322  34.541   8.264
  940POPC   C3A15005  35.318  34.578   7.964
  940POPC   C4A15006  35.346  34.536   7.664
  940POPC   C1B15007  35.102  34.559   8.564
  940POPC   C2B15008  35.077  34.538   8.264
  940POPC   C3B15009  35.106  34.574   7.964
  940POPC   C4B15010  35.085  34.543   7.664
  941POPC   NC315011  33.068  42.383   9.464
  941POPC   PO415012  33.036  42.299   9.164
  941POPC   GL115013  33.062  42.298   8.864
  941POPC   GL215014  33.169  42.253   8.864
  941POPC   C1A15015  33.071  42.320   8.564
  941POPC   D2A15016  33.069  42.338   8.264
  941POPC   C3A15017  33.074  42.373   7.964
  941POPC   C4A15018  33.055  42.335   7.664
  941POPC   C1B15019  33.276  42.216   8.564
  941POPC   C2B15020  33.212  42.198   8.264
  941POPC   C3B15021  33.279  42.241   7.964
  941POPC   C4B15022  33.210  42.251   7.664
  942POPC   NC315023  21.361  42.325   9.464
  942POPC   PO415024  21.412  42.350   9.164
  942POPC   GL115025  21.412  42.374   8.864
  942POPC   GL215026  21.305  42.240   8.864
  942POPC   C1A15027  21.345  42.376   8.564
  942POPC   D2A15028  21.395  42.298   8.264
  942POPC   C3A15029  21.396  42.318   7.964
  942POPC   C4A15030  21.401  42.372   7.664
  942POPC   C1B15031  21.228  42.182   8.564
  942POPC   C2B15032  21.253  42.203   8.264
  942POPC   C3B15033  21.204  42.153   7.964
  942POPC   C4B15034  21.187  42.126   7.664
  943POPC   NC315035  43.897   5.861   9.464
  943POPC   PO415036  43.885   5.916   9.164
  943POPC   GL115037  43.841   5.876   8.864
  943POPC   GL215038  43.967   5.909   8.864
  943POPC   C1A15039  43.841   5.850   8.564
  943POPC   D2A15040  43.894   5.870   8.264
  943POPC   C3A15041  43.841   5.905   7.964
  943POPC   C4A15042  43.897   5.885   7.664
  943POPC   C1B15043  44.105   6.005   8.564
  943POPC   C2B15044  44.059   5.969   8.264
  943POPC   C3B15045  44.144   5.974   7.964
  943POPC   C4B15046  44.103   5.964   7.664
  944POPC   NC315047  12.850  42.382   9.464
  944POPC   PO415048  12.843  42.348   9.164
  944POPC   GL115049  12.862  42.383   8.864
  944POPC   GL215050  12.935  42.407   8.864
  944POPC   C1A15051  12.896  42.313   8.564
  944POPC   D2A15052  12.848  42.299   8.264
  944POPC   C3A15053  12.880  42.291   7.964
  944POPC   C4A15054  12.896  42.285   7.664
  944POPC   C1B15055  13.105  42.435   8.564
  944POPC   C2B15056  13.028  42.523   8.264
  944POPC   C3B15057  13.086  42.478   7.964
  944POPC   C4B15058  13.024  42.435   7.664
  945POPC   NC315059  44.620  15.938   9.464
  945POPC   PO415060  44.668  15.979   9.164
  945POPC   GL115061  44.690  15.978   8.864
  945POPC   GL215062  44.628  15.862   8.864
  945POPC   C1A15063  44.620  15.942   8.564
  945POPC   D2A15064  44.677  15.918   8.264
  945POPC   C3A15065  44.652  15.994   7.964
  945POPC   C4A15066  44.642  15.938   7.664
  945POPC   C1B15067  44.531  15.746   8.564
  945POPC   C2B15068  44.539  15.682   8.264
  945POPC   C3B15069  44.507  15.732   7.964
  945POPC   C4B15070  44.563  15.729   7.664
  946POPC   NC315071  15.148  22.134   9.464
  946POPC   PO415072  15.177  22.175   9.164
  946POPC   GL115073  15.199  22.161   8.864
  946POPC   GL215074  15.111  22.262   8.864
  946POPC   C1A15075  15.142  22.185   8.564
  946POPC   D2A15076  15.151  22.194   8.264
  946POPC   C3A15077  15.228  22.193   7.964
  946POPC   C4A15078  15.133  22.208   7.664
  946POPC   C1B15079  15.095  22.384   8.564
  946POPC   C2B15080  15.105  22.414   8.264
  946POPC   C3B15081  15.114  22.377   7.964
  946POPC   C4B15082  15.087  22.394   7.664
  947POPC   NC315083   0.451  34.583   9.464
  947POPC   PO415084   0.463  34.565   9.164
  947POPC   GL115085   0.410  34.546   8.864
  947POPC   GL215086   0.318  34.619   8.864
  947POPC   C1A15087   0.411  34.572   8.564
  947POPC   D2A15088   0.461  34.611   8.264
  947POPC   C3A15089   0.469  34.621   7.964
  947POPC   C4A15090   0.475  34.542   7.664
  947POPC   C1B15091   0.196  34.711   8.564
  947POPC   C2B15092   0.179  34.684   8.264
  947POPC   C3B15093   0.257  34.718   7.964
  947POPC   C4B15094   0.229  34.704   7.664
  948POPC   NC315095  12.852  44.708   9.464
  948POPC   PO415096  12.836  44.649   9.164
  948POPC   GL115097  12.822  44.615   8.864
  948POPC   GL215098  12.805  44.579   8.864
  948POPC   C1A15099  12.826  44.686   8.564
  948POPC   D2A15100  12.892  44.634   8.264
  948POPC   C3A15101  12.810  44.617   7.964
  948POPC   C4A15102  12.869  44.637   7.664
  948POPC   C1B15103  12.775  44.378   8.564
  948POPC   C2B15104  12.804  44.436   8.264
  948POPC   C3B15105  12.792  44.452   7.964
  948POPC   C4B15106  12.854  44.427   7.664
  949POPC   NC315107   1.973  36.937   9.464
  949POPC   PO415108   1.975  36.941   9.164
  949POPC   GL115109   1.974  36.892   8.864
  949POPC   GL215110   1.895  36.923   8.864
  949POPC   C1A15111   1.998  36.863   8.564
  949POPC   D2A15112   1.989  36.902   8.264
  949POPC   C3A15113   2.008  36.868   7.964
  949POPC   C4A15114   2.008  36.952   7.664
  949POPC   C1B15115   1.761  36.950   8.564
  949POPC   C2B15116   1.757  36.898   8.264
  949POPC   C3B15117   1.712  36.888   7.964
  949POPC   C4B15118   1.715  36.889   7.664
  950POPC   NC315119  43.861  39.226   9.464
  950POPC   PO415120  43.893  39.243   9.164
  950POPC   GL115121  43.877  39.261   8.864
  950POPC   GL215122  43.997  39.347   8.864
  950POPC   C1A15123  43.927  39.278   8.564
  950POPC   D2A15124  43.907  39.256   8.264
  950POPC   C3A15125  43.885  39.250   7.964
  950POPC   C4A15126  43.897  39.181   7.664
  950POPC   C1B15127  43.975  39.460   8.564
  950POPC   C2B15128  44.039  39.468   8.264
  950POPC   C3B15129  44.037  39.473   7.964
  950POPC   C4B15130  43.968  39.473   7.664
  951POPC   NC315131  40.816  32.281   9.464
  951POPC   PO415132  40.737  32.267   9.164
  951POPC   GL115133  40.745  32.281   8.864
  951POPC   GL215134  40.925  32.296   8.864
  951POPC   C1A15135  40.760  32.277   8.564
  951POPC   D2A15136  40.811  32.283   8.264
  951POPC   C3A15137  40.770  32.297   7.964
  951POPC   C4A15138  40.798  32.221   7.664
  951POPC   C1B15139  40.931  32.365   8.564
  951POPC   C2B15140  41.017  32.457   8.264
  951POPC   C3B15141  40.935  32.384   7.964
  951POPC   C4B15142  40.957  32.425   7.664
  952POPC   NC315143   4.318  24.508   9.464
  952POPC   PO415144   4.287  24.445   9.164
  952POPC   GL115145   4.364  24.440   8.864
  952POPC   GL215146   4.268  24.376   8.864
  952POPC   C1A15147   4.284  24.488   8.564
  952POPC   D2A15148   4.309  24.528   8.264
  952POPC   C3A15149   4.308  24.450   7.964
  952POPC   C4A15150   4.353  24.451   7.664
  952POPC   C1B15151   4.321  24.268   8.564
  952POPC   C2B15152   4.272  24.193   8.264
  952POPC   C3B15153   4.321  24.257   7.964
  952POPC   C4B15154   4.325  24.213   7.664
  953POPC   NC315155  13.624  14.417   9.464
  953POPC   PO415156  13.606  14.431   9.164
  953POPC   GL115157  13.631  14.451   8.864
  953POPC   GL215158  13.529  14.327   8.864
  953POPC   C1A15159  13.666  14.422   8.564
  953POPC   D2A15160  13.589  14.401   8.264
  953POPC   C3A15161  13.602  14.382   7.964
  953POPC   C4A15162  13.661  14.424   7.664
  953POPC   C1B15163  13.474  14.242   8.564
  953POPC   C2B15164  13.510  14.198   8.264
  953POPC   C3B15165  13.427  14.218   7.964
  953POPC   C4B15166  13.498  14.168   7.664
  954POPC   NC315167  40.030  38.446   9.464
  954POPC   PO415168  40.033  38.468   9.164
  954POPC   GL115169  39.981  38.414   8.864
  954POPC   GL215170  40.000  38.293   8.864
  954POPC   C1A15171  40.020  38.445   8.564
  954POPC   D2A15172  40.028  38.499   8.264
  954POPC   C3A15173  39.999  38.446   7.964
  954POPC   C4A15174  39.983  38.414   7.664
  954POPC   C1B15175  39.978  38.209   8.564
  954POPC   C2B15176  39.991  38.210   8.264
  954POPC   C3B15177  40.035  38.221   7.964
  954POPC   C4B15178  40.050  38.246   7.664
  955POPC   NC315179  26.788  39.241   9.464
  955POPC   PO415180  26.799  39.260   9.164
  955POPC   GL115181  26.798  39.212   8.864
  955POPC   GL215182  26.864  39.169   8.864
  955POPC   C1A15183  26.846  39.244   8.564
  955POPC   D2A15184  26.788  39.233   8.264
  955POPC   C3A15185  26.798  39.206   7.964
  955POPC   C4A15186  26.804  39.210   7.664
  955POPC   C1B15187  26.966  38.981   8.564
  955POPC   C2B15188  26.964  39.009   8.264
  955POPC   C3B15189  26.911  38.986   7.964
  955POPC   C4B15190  26.967  39.018   7.664
  956POPC   NC315191   2.749  31.489   9.464
  956POPC   PO415192   2.801  31.511   9.164
  956POPC   GL115193   2.744  31.510   8.864
  956POPC   GL215194   2.851  31.385   8.864
  956POPC   C1A15195   2.756  31.478   8.564
  956POPC   D2A15196   2.802  31.494   8.264
  956POPC   C3A15197   2.769  31.434   7.964
  956POPC   C4A15198   2.798  31.449   7.664
  956POPC   C1B15199   3.008  31.400   8.564
  956POPC   C2B15200   3.021  31.431   8.264
  956POPC   C3B15201   2.955  31.384   7.964
  956POPC   C4B15202   3.040  31.384   7.664
  957POPC   NC315203  20.657   3.533   9.464
  957POPC   PO415204  20.629   3.527   9.164
  957POPC   GL115205  20.605   3.541   8.864
  957POPC   GL215206  20.757   3.429   8.864
  957POPC   C1A15207  20.591   3.547   8.564
  957POPC   D2A15208  20.608   3.572   8.264
  957POPC   C3A15209  20.623   3.518   7.964
  957POPC   C4A15210  20.584   3.499   7.664
  957POPC   C1B15211  20.802   3.366   8.564
  957POPC   C2B15212  20.792   3.406   8.264
  957POPC   C3B15213  20.777   3.416   7.964
  957POPC   C4B15214  20.850   3.374   7.664
  958POPC   NC315215   8.234  10.514   9.464
  958POPC   PO415216   8.209  10.523   9.164
  958POPC   GL115217   8.194  10.484   8.864
  958POPC   GL215218   8.228  10.376   8.864
  958POPC   C1A15219   8.234  10.551   8.564
  958POPC   D2A15220   8.213  10.564   8.264
  958POPC   C3A15221   8.174  10.549   7.964
  958POPC   C4A15222   8.237  10.480   7.664
  958POPC   C1B15223   8.177  10.232   8.564
  958POPC   C2B15224   8.220  10.321   8.264
  958POPC   C3B15225   8.206  10.316   7.964
  958POPC   C4B15226   8.226  10.289   7.664
  959POPC   NC315227  24.487  26.079   9.464
  959POPC   PO415228  24.515  26.030   9.164
  959POPC   GL115229  24.527  26.049   8.864
  959POPC   GL215230  24.521  26.184   8.864
  959POPC   C1A15231  24.518  26.017   8.564
  959POPC   D2A15232  24.461  26.037   8.264
  959POPC   C3A15233  24.499  26.019   7.964
  959POPC   C4A15234  24.496  26.020   7.664
  959POPC   C1B15235  24.516  26.306   8.564
  959POPC   C2B15236  24.553  26.339   8.264
  959POPC   C3B15237  24.558  26.309   7.964
  959POPC   C4B15238  24.474  26.270   7.664
  960POPC   NC315239  21.416   5.857   9.464
  960POPC   PO415240  21.346   5.875   9.164
  960POPC   GL115241  21.380   5.858   8.864
  960POPC   GL215242  21.515   5.869   8.864
  960POPC   C1A15243  21.343   5.873   8.564
  960POPC   D2A15244  21.435   5.862   8.264
  960POPC   C3A15245  21.377   5.837   7.964
  960POPC   C4A15246  21.400   5.897   7.664
  960POPC   C1B15247  21.667   5.942   8.564
  960POPC   C2B15248  21.651   5.957   8.264
  960POPC   C3B15249  21.636   5.987   7.964
  960POPC   C4B15250  21.616   5.925   7.664
  961POPC   NC315251  42.343  27.634   9.464
  961POPC   PO415252  42.365  27.546   9.164
  961POPC   GL115253  42.287  27.631   8.864
  961POPC   GL215254  42.287  27.681   8.864
  961POPC   C1A15255  42.298  27.625   8.564
  961POPC   D2A15256  42.349  27.557   8.264
  961POPC   C3A15257  42.319  27.619   7.964
  961POPC   C4A15258  42.330  27.633   7.664
  961POPC   C1B15259  42.270  27.789   8.564
  961POPC   C2B15260  42.236  27.818   8.264
  961POPC   C3B15261  42.232  27.838   7.964
  961POPC   C4B15262  42.194  27.809   7.664
  962POPC   NC315263   6.630  28.392   9.464
  962POPC   PO415264   6.661  28.363   9.164
  962POPC   GL115265   6.601  28.356   8.864
  962POPC   GL215266   6.543  28.387   8.864
  962POPC   C1A15267   6.670  28.393   8.564
  962POPC   D2A15268   6.659  28.414   8.264
  962POPC   C3A15269   6.642  28.354   7.964
  962POPC   C4A15270   6.640  28.397   7.664
  962POPC   C1B15271   6.367  28.385   8.564
  962POPC   C2B15272   6.397  28.313   8.264
  962POPC   C3B15273   6.389  28.323   7.964
  962POPC   C4B15274   6.411  28.325   7.664
  963POPC   NC315275  36.151   8.942   9.464
  963POPC   PO415276  36.160   8.965   9.164
  963POPC   GL115277  36.174   8.977   8.864
  963POPC   GL215278  36.194   9.067   8.864
  963POPC   C1A15279  36.141   8.941   8.564
  963POPC   D2A15280  36.140   8.931   8.264
  963POPC   C3A15281  36.176   8.974   7.964
  963POPC   C4A15282  36.139   9.002   7.664
  963POPC   C1B15283  36.295   9.078   8.564
  963POPC   C2B15284  36.373   9.103   8.264
  963POPC   C3B15285  36.294   9.128   7.964
  963POPC   C4B15286  36.358   9.158   7.664
  964POPC   NC315287  32.289  15.914   9.464
  964POPC   PO415288  32.230  15.957   9.164
  964POPC   GL115289  32.273  15.907   8.864
  964POPC   GL215290  32.274  16.036   8.864
  964POPC   C1A15291  32.271  16.000   8.564
  964POPC   D2A15292  32.202  16.002   8.264
  964POPC   C3A15293  32.275  15.956   7.964
  964POPC   C4A15294  32.269  15.957   7.664
  964POPC   C1B15295  32.257  16.161   8.564
  964POPC   C2B15296  32.200  16.238   8.264
  964POPC   C3B15297  32.193  16.238   7.964
  964POPC   C4B15298  32.207  16.206   7.664
  965POPC   NC315299  11.253  36.098   9.464
  965POPC   PO415300  11.290  36.175   9.164
  965POPC   GL115301  11.265  36.151   8.864
  965POPC   GL215302  11.268  36.293   8.864
  965POPC   C1A15303  11.311  36.092   8.564
  965POPC   D2A15304  11.308  36.083   8.264
  965POPC   C3A15305  11.326  36.148   7.964
  965POPC   C4A15306  11.281  36.102   7.664
  965POPC   C1B15307  11.231  36.343   8.564
  965POPC   C2B15308  11.268  36.402   8.264
  965POPC   C3B15309  11.208  36.402   7.964
  965POPC   C4B15310  11.276  36.326   7.664
  966POPC   NC315311  16.759   0.462   9.464
  966POPC   PO415312  16.768   0.421   9.164
  966POPC   GL115313  16.684   0.465   8.864
  966POPC   GL215314  16.722   0.607   8.864
  966POPC   C1A15315  16.751   0.441   8.564
  966POPC   D2A15316  16.777   0.471   8.264
  966POPC   C3A15317  16.752   0.433   7.964
  966POPC   C4A15318  16.704   0.479   7.664
  966POPC   C1B15319  16.822   0.646   8.564
  966POPC   C2B15320  16.768   0.643   8.264
  966POPC   C3B15321  16.788   0.663   7.964
  966POPC   C4B15322  16.814   0.655   7.664
  967POPC   NC315323  17.542  39.227   9.464
  967POPC   PO415324  17.493  39.242   9.164
  967POPC   GL115325  17.500  39.234   8.864
  967POPC   GL215326  17.436  39.313   8.864
  967POPC   C1A15327  17.515  39.195   8.564
  967POPC   D2A15328  17.457  39.203   8.264
  967POPC   C3A15329  17.499  39.240   7.964
  967POPC   C4A15330  17.474  39.232   7.664
  967POPC   C1B15331  17.444  39.505   8.564
  967POPC   C2B15332  17.372  39.428   8.264
  967POPC   C3B15333  17.411  39.461   7.964
  967POPC   C4B15334  17.453  39.462   7.664
  968POPC   NC315335   5.826  29.126   9.464
  968POPC   PO415336   5.883  29.192   9.164
  968POPC   GL115337   5.856  29.105   8.864
  968POPC   GL215338   5.729  29.174   8.864
  968POPC   C1A15339   5.880  29.142   8.564
  968POPC   D2A15340   5.914  29.119   8.264
  968POPC   C3A15341   5.918  29.189   7.964
  968POPC   C4A15342   5.916  29.095   7.664
  968POPC   C1B15343   5.657  29.064   8.564
  968POPC   C2B15344   5.662  29.086   8.264
  968POPC   C3B15345   5.668  29.086   7.964
  968POPC   C4B15346   5.646  29.133   7.664
  969POPC   NC315347   0.475  32.212   9.464
  969POPC   PO415348   0.400  32.283   9.164
  969POPC   GL115349   0.446  32.239   8.864
  969POPC   GL215350   0.315  32.351   8.864
  969POPC   C1A15351   0.434  32.272   8.564
  969POPC   D2A15352   0.415  32.266   8.264
  969POPC   C3A15353   0.479  32.215   7.964
  969POPC   C4A15354   0.405  32.265   7.664
  969POPC   C1B15355   0.181  32.418   8.564
  969POPC   C2B15356   0.191  32.399   8.264
  969POPC   C3B15357   0.193  32.403   7.964
  969POPC   C4B15358   0.170  32.328   7.664
  970POPC   NC315359  28.412  28.390   9.464
  970POPC   PO415360  28.353  28.322   9.164
  970POPC   GL115361  28.362  28.371   8.864
  970POPC   GL215362  28.244  28.397   8.864
  970POPC   C1A15363  28.361  28.407   8.564
  970POPC   D2A15364  28.351  28.357   8.264
  970POPC   C3A15365  28.371  28.373   7.964
  970POPC   C4A15366  28.356  28.336   7.664
  970POPC   C1B15367  28.126  28.428   8.564
  970POPC   C2B15368  28.120  28.406   8.264
  970POPC   C3B15369  28.118  28.348   7.964
  970POPC   C4B15370  28.132  28.353   7.664
  971POPC   NC315371  40.029  37.643   9.464
  971POPC   PO415372  40.030  37.635   9.164
  971POPC   GL115373  40.009  37.724   8.864
  971POPC   GL215374  40.115  37.589   8.864
  971POPC   C1A15375  40.049  37.697   8.564
  971POPC   D2A15376  40.026  37.670   8.264
  971POPC   C3A15377  39.980  37.726   7.964
  971POPC   C4A15378  39.975  37.634   7.664
  971POPC   C1B15379  40.191  37.507   8.564
  971POPC   C2B15380  40.203  37.473   8.264
  971POPC   C3B15381  40.220  37.471   7.964
  971POPC   C4B15382  40.208  37.500   7.664
  972POPC   NC315383  15.990   8.976   9.464
  972POPC   PO415384  15.927   8.964   9.164
  972POPC   GL115385  15.972   8.969   8.864
  972POPC   GL215386  15.829   9.027   8.864
  972POPC   C1A15387  16.005   8.935   8.564
  972POPC   D2A15388  15.914   9.016   8.264
  972POPC   C3A15389  15.981   8.973   7.964
  972POPC   C4A15390  15.930   8.950   7.664
  972POPC   C1B15391  15.782   9.179   8.564
  972POPC   C2B15392  15.813   9.153   8.264
  972POPC   C3B15393  15.767   9.151   7.964
  972POPC   C4B15394  15.778   9.156   7.664
  973POPC   NC315395  33.834   5.083   9.464
  973POPC   PO415396  33.769   5.078   9.164
  973POPC   GL115397  33.782   5.118   8.864
  973POPC   GL215398  33.765   5.236   8.864
  973POPC   C1A15399  33.833   5.104   8.564
  973POPC   D2A15400  33.757   5.064   8.264
  973POPC   C3A15401  33.785   5.086   7.964
  973POPC   C4A15402  33.817   5.120   7.664
  973POPC   C1B15403  33.698   5.348   8.564
  973POPC   C2B15404  33.714   5.325   8.264
  973POPC   C3B15405  33.691   5.367   7.964
  973POPC   C4B15406  33.747   5.295   7.664
  974POPC   NC315407   1.961  30.669   9.464
  974POPC   PO415408   2.017  30.668   9.164
  974POPC   GL115409   1.968  30.718   8.864
  974POPC   GL215410   1.934  30.768   8.864
  974POPC   C1A15411   2.032  30.723   8.564
  974POPC   D2A15412   2.030  30.721   8.264
  974POPC   C3A15413   2.032  30.657   7.964
  974POPC   C4A15414   1.949  30.745   7.664
  974POPC   C1B15415   1.912  30.958   8.564
  974POPC   C2B15416   1.883  30.926   8.264
  974POPC   C3B15417   1.885  30.940   7.964
  974POPC   C4B15418   1.872  30.868   7.664
  975POPC   NC315419  34.584   1.195   9.464
  975POPC   PO415420  34.530   1.174   9.164
  975POPC   GL115421  34.556   1.259   8.864
  975POPC   GL215422  34.728   1.147   8.864
  975POPC   C1A15423  34.581   1.164   8.564
  975POPC   D2A15424  34.592   1.189   8.264
  975POPC   C3A15425  34.624   1.250   7.964
  975POPC   C4A15426  34.602   1.239   7.664
  975POPC   C1B15427  34.857   1.207   8.564
  975POPC   C2B15428  34.819   1.198   8.264
  975POPC   C3B15429  34.790   1.152   7.964
  975POPC   C4B15430  34.815   1.167   7.664
  976POPC   NC315431  32.984  25.296   9.464
  976POPC   PO415432  33.051  25.246   9.164
  976POPC   GL115433  32.988  25.224   8.864
  976POPC   GL215434  32.860  25.320   8.864
  976POPC   C1A15435  33.071  25.293   8.564
  976POPC   D2A15436  33.051  25.236   8.264
  976POPC   C3A15437  32.982  25.288   7.964
  976POPC   C4A15438  33.064  25.314   7.664
  976POPC   C1B15439  32.771  25.255   8.564
  976POPC   C2B15440  32.736  25.245   8.264
  976POPC   C3B15441  32.791  25.287   7.964
  976POPC   C4B15442  32.823  25.289   7.664
  977POPC   NC315443  34.533  18.321   9.464
  977POPC   PO415444  34.552  18.324   9.164
  977POPC   GL115445  34.609  18.243   8.864
  977POPC   GL215446  34.633  18.383   8.864
  977POPC   C1A15447  34.622  18.233   8.564
  977POPC   D2A15448  34.550  18.280   8.264
  977POPC   C3A15449  34.531  18.294   7.964
  977POPC   C4A15450  34.529  18.300   7.664
  977POPC   C1B15451  34.620  18.486   8.564
  977POPC   C2B15452  34.707  18.506   8.264
  977POPC   C3B15453  34.642  18.527   7.964
  977POPC   C4B15454  34.629  18.488   7.664
  978POPC   NC315455  34.592  37.638   9.464
  978POPC   PO415456  34.553  37.716   9.164
  978POPC   GL115457  34.580  37.639   8.864
  978POPC   GL215458  34.501  37.587   8.864
  978POPC   C1A15459  34.591  37.707   8.564
  978POPC   D2A15460  34.534  37.652   8.264
  978POPC   C3A15461  34.588  37.712   7.964
  978POPC   C4A15462  34.613  37.698   7.664
  978POPC   C1B15463  34.416  37.543   8.564
  978POPC   C2B15464  34.415  37.502   8.264
  978POPC   C3B15465  34.403  37.515   7.964
  978POPC   C4B15466  34.378  37.485   7.664
  979POPC   NC315467   5.918  10.527   9.464
  979POPC   PO415468   5.918  10.511   9.164
  979POPC   GL115469   5.910  10.522   8.864
  979POPC   GL215470   5.842  10.682   8.864
  979POPC   C1A15471   5.820  10.528   8.564
  979POPC   D2A15472   5.898  10.518   8.264
  979POPC   C3A15473   5.907  10.568   7.964
  979POPC   C4A15474   5.836  10.497   7.664
  979POPC   C1B15475   5.814  10.794   8.564
  979POPC   C2B15476   5.879  10.725   8.264
  979POPC   C3B15477   5.811  10.759   7.964
  979POPC   C4B15478   5.896  10.803   7.664
  980POPC   NC315479  21.399  40.811   9.464
  980POPC   PO415480  21.347  40.761   9.164
  980POPC   GL115481  21.415  40.795   8.864
  980POPC   GL215482  21.525  40.648   8.864
  980POPC   C1A15483  21.396  40.768   8.564
  980POPC   D2A15484  21.389  40.770   8.264
  980POPC   C3A15485  21.415  40.734   7.964
  980POPC   C4A15486  21.418  40.788   7.664
  980POPC   C1B15487  21.572  40.565   8.564
  980POPC   C2B15488  21.604  40.611   8.264
  980POPC   C3B15489  21.538  40.655   7.964
  980POPC   C4B15490  21.567  40.625   7.664
  981POPC   NC315491   8.989  15.961   9.464
  981POPC   PO415492   8.997  15.990   9.164
  981POPC   GL115493   8.959  15.938   8.864
  981POPC   GL215494   8.986  16.076   8.864
  981POPC   C1A15495   8.927  15.980   8.564
  981POPC   D2A15496   9.021  15.969   8.264
  981POPC   C3A15497   9.013  15.982   7.964
  981POPC   C4A15498   9.020  15.926   7.664
  981POPC   C1B15499   9.090  16.193   8.564
  981POPC   C2B15500   9.031  16.158   8.264
  981POPC   C3B15501   9.006  16.239   7.964
  981POPC   C4B15502   9.094  16.207   7.664
  982POPC   NC315503  27.597  36.135   9.464
  982POPC   PO415504  27.610  36.168   9.164
  982POPC   GL115505  27.572  36.090   8.864
  982POPC   GL215506  27.452  36.042   8.864
  982POPC   C1A15507  27.569  36.171   8.564
  982POPC   D2A15508  27.605  36.155   8.264
  982POPC   C3A15509  27.596  36.085   7.964
  982POPC   C4A15510  27.637  36.102   7.664
  982POPC   C1B15511  27.378  36.058   8.564
  982POPC   C2B15512  27.352  36.101   8.264
  982POPC   C3B15513  27.338  36.039   7.964
  982POPC   C4B15514  27.325  36.057   7.664
  983POPC   NC315515  22.933  38.480   9.464
  983POPC   PO415516  22.939  38.504   9.164
  983POPC   GL115517  22.910  38.504   8.864
  983POPC   GL215518  22.925  38.562   8.864
  983POPC   C1A15519  22.945  38.430   8.564
  983POPC   D2A15520  22.987  38.419   8.264
  983POPC   C3A15521  22.919  38.453   7.964
  983POPC   C4A15522  22.973  38.451   7.664
  983POPC   C1B15523  22.886  38.687   8.564
  983POPC   C2B15524  22.883  38.721   8.264
  983POPC   C3B15525  22.898  38.685   7.964
  983POPC   C4B15526  22.931  38.750   7.664
  984POPC   NC315527  38.433  31.424   9.464
  984POPC   PO415528  38.416  31.499   9.164
  984POPC   GL115529  38.462  31.483   8.864
  984POPC   GL215530  38.391  31.583   8.864
  984POPC   C1A15531  38.443  31.509   8.564
  984POPC   D2A15532  38.430  31.507   8.264
  984POPC   C3A15533  38.486  31.441   7.964
  984POPC   C4A15534  38.406  31.496   7.664
  984POPC   C1B15535  38.260  31.629   8.564
  984POPC   C2B15536  38.320  31.643   8.264
  984POPC   C3B15537  38.295  31.653   7.964
  984POPC   C4B15538  38.259  31.666   7.664
  985POPC   NC315539  33.018  39.247   9.464
  985POPC   PO415540  33.021  39.238   9.164
  985POPC   GL115541  33.069  39.239   8.864
  985POPC   GL215542  33.065  39.074   8.864
  985POPC   C1A15543  32.992  39.184   8.564
  985POPC   D2A15544  32.994  39.263   8.264
  985POPC   C3A15545  33.046  39.269   7.964
  985POPC   C4A15546  33.035  39.211   7.664
  985POPC   C1B15547  33.073  39.019   8.564
  985POPC   C2B15548  33.074  39.005   8.264
  985POPC   C3B15549  33.090  39.023   7.964
  985POPC   C4B15550  33.049  38.997   7.664
  986POPC   NC315551  43.858  26.815   9.464
  986POPC   PO415552  43.911  26.803   9.164
  986POPC   GL115553  43.845  26.863   8.864
  986POPC   GL215554  43.985  26.916   8.864
  986POPC   C1A15555  43.913  26.824   8.564
  986POPC   D2A15556  43.916  26.825   8.264
  986POPC   C3A15557  43.929  26.862   7.964
  986POPC   C4A15558  43.892  26.770   7.664
  986POPC   C1B15559  44.093  26.929   8.564
  986POPC   C2B15560  44.066  26.953   8.264
  986POPC   C3B15561  44.083  26.940   7.964
  986POPC   C4B15562  44.087  26.956   7.664
  987POPC   NC315563  43.080   6.611   9.464
  987POPC   PO415564  43.138   6.612   9.164
  987POPC   GL115565  43.142   6.695   8.864
  987POPC   GL215566  43.111   6.806   8.864
  987POPC   C1A15567  43.127   6.641   8.564
  987POPC   D2A15568  43.129   6.616   8.264
  987POPC   C3A15569  43.117   6.655   7.964
  987POPC   C4A15570  43.070   6.633   7.664
  987POPC   C1B15571  43.124   6.928   8.564
  987POPC   C2B15572  43.097   6.896   8.264
  987POPC   C3B15573  43.108   6.931   7.964
  987POPC   C4B15574  43.106   6.942   7.664
  988POPC   NC315575   0.409  31.440   9.464
  988POPC   PO415576   0.390  31.467   9.164
  988POPC   GL115577   0.454  31.495   8.864
  988POPC   GL215578   0.348  31.570   8.864
  988POPC   C1A15579   0.474  31.493   8.564
  988POPC   D2A15580   0.453  31.447   8.264
  988POPC   C3A15581   0.477  31.453   7.964
  988POPC   C4A15582   0.437  31.469   7.664
  988POPC   C1B15583   0.244  31.634   8.564
  988POPC   C2B15584   0.319  31.658   8.264
  988POPC   C3B15585   0.278  31.618   7.964
  988POPC   C4B15586   0.255  31.703   7.664
  989POPC   NC315587  16.695  25.293   9.464
  989POPC   PO415588  16.743  25.231   9.164
  989POPC   GL115589  16.695  25.268   8.864
  989POPC   GL215590  16.583  25.279   8.864
  989POPC   C1A15591  16.765  25.308   8.564
  989POPC   D2A15592  16.742  25.264   8.264
  989POPC   C3A15593  16.732  25.260   7.964
  989POPC   C4A15594  16.757  25.304   7.664
  989POPC   C1B15595  16.481  25.341   8.564
  989POPC   C2B15596  16.499  25.359   8.264
  989POPC   C3B15597  16.473  25.389   7.964
  989POPC   C4B15598  16.473  25.354   7.664
  990POPC   NC315599  13.638  38.431   9.464
  990POPC   PO415600  13.629  38.428   9.164
  990POPC   GL115601  13.624  38.505   8.864
  990POPC   GL215602  13.538  38.359   8.864
  990POPC   C1A15603  13.594  38.469   8.564
  990POPC   D2A15604  13.627  38.429   8.264
  990POPC   C3A15605  13.673  38.478   7.964
  990POPC   C4A15606  13.647  38.418   7.664
  990POPC   C1B15607  13.539  38.268   8.564
  990POPC   C2B15608  13.491  38.278   8.264
  990POPC   C3B15609  13.519  38.235   7.964
  990POPC   C4B15610  13.458  38.227   7.664
  991POPC   NC315611  32.287  12.834   9.464
  991POPC   PO415612  32.227  12.869   9.164
  991POPC   GL115613  32.269  12.842   8.864
  991POPC   GL215614  32.347  12.847   8.864
  991POPC   C1A15615  32.250  12.825   8.564
  991POPC   D2A15616  32.289  12.863   8.264
  991POPC   C3A15617  32.293  12.835   7.964
  991POPC   C4A15618  32.214  12.871   7.664
  991POPC   C1B15619  32.501  12.943   8.564
  991POPC   C2B15620  32.524  12.898   8.264
  991POPC   C3B15621  32.486  12.919   7.964
  991POPC   C4B15622  32.458  12.932   7.664
  992POPC   NC315623  15.162  23.717   9.464
  992POPC   PO415624  15.179  23.694   9.164
  992POPC   GL115625  15.140  23.672   8.864
  992POPC   GL215626  15.196  23.830   8.864
  992POPC   C1A15627  15.226  23.739   8.564
  992POPC   D2A15628  15.181  23.713   8.264
  992POPC   C3A15629  15.224  23.731   7.964
  992POPC   C4A15630  15.192  23.714   7.664
  992POPC   C1B15631  15.266  23.891   8.564
  992POPC   C2B15632  15.305  23.984   8.264
  992POPC   C3B15633  15.329  23.944   7.964
  992POPC   C4B15634  15.261  23.895   7.664
  993POPC   NC315635  31.424  18.312   9.464
  993POPC   PO415636  31.436  18.308   9.164
  993POPC   GL115637  31.450  18.286   8.864
  993POPC   GL215638  31.571  18.167   8.864
  993POPC   C1A15639  31.502  18.304   8.564
  993POPC   D2A15640  31.453  18.277   8.264
  993POPC   C3A15641  31.494  18.255   7.964
  993POPC   C4A15642  31.441  18.329   7.664
  993POPC   C1B15643  31.608  18.073   8.564
  993POPC   C2B15644  31.646  18.163   8.264
  993POPC   C3B15645  31.654  18.135   7.964
  993POPC   C4B15646  31.628  18.068   7.664
  994POPC   NC315647  14.424  19.850   9.464
  994POPC   PO415648  14.367  19.820   9.164
  994POPC   GL115649  14.370  19.802   8.864
  994POPC   GL215650  14.281  19.884   8.864
  994POPC   C1A15651  14.445  19.862   8.564
  994POPC   D2A15652  14.396  19.791   8.264
  994POPC   C3A15653  14.421  19.828   7.964
  994POPC   C4A15654  14.410  19.810   7.664
  994POPC   C1B15655  14.203  20.046   8.564
  994POPC   C2B15656  14.253  20.040   8.264
  994POPC   C3B15657  14.218  20.045   7.964
  994POPC   C4B15658  14.269  20.031   7.664
  995POPC   NC315659  34.563   3.515   9.464
  995POPC   PO415660  34.535   3.539   9.164
  995POPC   GL115661  34.566   3.557   8.864
  995POPC   GL215662  34.417   3.576   8.864
  995POPC   C1A15663  34.596   3.552   8.564
  995POPC   D2A15664  34.620   3.508   8.264
  995POPC   C3A15665  34.559   3.561   7.964
  995POPC   C4A15666  34.579   3.538   7.664
  995POPC   C1B15667  34.313   3.641   8.564
  995POPC   C2B15668  34.306   3.572   8.264
  995POPC   C3B15669  34.289   3.550   7.964
  995POPC   C4B15670  34.358   3.618   7.664
  996POPC   NC315671  27.588  41.513   9.464
  996POPC   PO415672  27.616  41.601   9.164
  996POPC   GL115673  27.626  41.606   8.864
  996POPC   GL215674  27.512  41.445   8.864
  996POPC   C1A15675  27.549  41.538   8.564
  996POPC   D2A15676  27.558  41.525   8.264
  996POPC   C3A15677  27.614  41.590   7.964
  996POPC   C4A15678  27.610  41.532   7.664
  996POPC   C1B15679  27.439  41.329   8.564
  996POPC   C2B15680  27.481  41.361   8.264
  996POPC   C3B15681  27.512  41.295   7.964
  996POPC   C4B15682  27.516  41.296   7.664
  997POPC   NC315683   9.731  33.791   9.464
  997POPC   PO415684   9.787  33.760   9.164
  997POPC   GL115685   9.711  33.787   8.864
  997POPC   GL215686   9.602  33.831   8.864
  997POPC   C1A15687   9.732  33.792   8.564
  997POPC   D2A15688   9.787  33.782   8.264
  997POPC   C3A15689   9.744  33.801   7.964
  997POPC   C4A15690   9.749  33.792   7.664
  997POPC   C1B15691   9.514  33.926   8.564
  997POPC   C2B15692   9.544  33.940   8.264
  997POPC   C3B15693   9.514  33.917   7.964
  997POPC   C4B15694   9.516  33.938   7.664
  998POPC   NC315695  39.186  15.219   9.464
  998POPC   PO415696  39.263  15.216   9.164
  998POPC   GL115697  39.212  15.134   8.864
  998POPC   GL215698  39.119  15.107   8.864
  998POPC   C1A15699  39.189  15.168   8.564
  998POPC   D2A15700  39.212  15.202   8.264
  998POPC   C3A15701  39.254  15.208   7.964
  998POPC   C4A15702  39.206  15.195   7.664
  998POPC   C1B15703  39.003  15.043   8.564
  998POPC   C2B15704  39.002  14.998   8.264
  998POPC   C3B15705  39.023  15.029   7.964
  998POPC   C4B15706  39.066  15.003   7.664
  999POPC   NC315707  38.453  43.871   9.464
  999POPC   PO415708  38.505  43.903   9.164
  999POPC   GL115709  38.491  43.853   8.864
  999POPC   GL215710  38.421  43.784   8.864
  999POPC   C1A15711  38.461  43.864   8.564
  999POPC   D2A15712  38.478  43.910   8.264
  999POPC   C3A15713  38.439  43.928   7.964
  999POPC   C4A15714  38.467  43.901   7.664
  999POPC   C1B15715  38.454  43.664   8.564
  999POPC   C2B15716  38.422  43.606   8.264
  999POPC   C3B15717  38.431  43.680   7.964
  999POPC   C4B15718  38.430  43.590   7.664
 1000POPC   NC315719   2.778  37.707   9.464
 1000POPC   PO415720   2.749  37.685   9.164
 1000POPC   GL115721   2.766  37.650   8.864
 1000POPC   GL215722   2.770  37.604   8.864
 1000POPC   C1A15723   2.748  37.707   8.564
 1000POPC   D2A15724   2.752  37.640   8.264
 1000POPC   C3A15725   2.726  37.677   7.964
 1000POPC   C4A15726   2.775  37.694   7.664
 1000POPC   C1B15727   2.728  37.463   8.564
 1000POPC   C2B15728   2.688  37.464   8.264
 1000POPC   C3B15729   2.709  37.445   7.964
 1000POPC   C4B15730   2.646  37.438   7.664
 1001POPC   NC315731  17.554   0.465   9.464
 1001POPC   PO415732  17.540   0.396   9.164
 1001POPC   GL115733  17.520   0.447   8.864
 1001POPC   GL215734  17.557   0.337   8.864
 1001POPC   C1A15735  17.496   0.447   8.564
 1001POPC   D2A15736  17.528   0.481   8.264
 1001POPC   C3A15737  17.490   0.480   7.964
 1001POPC   C4A15738  17.485   0.426   7.664
 1001POPC   C1B15739  17.475   0.236   8.564
 1001POPC   C2B15740  17.517   0.140   8.264
 1001POPC   C3B15741  17.540   0.203   7.964
 1001POPC   C4B15742  17.494   0.184   7.664
 1002POPC   NC315743  28.379  31.423   9.464
 1002POPC   PO415744  28.406  31.477   9.164
 1002POPC   GL115745  28.418  31.449   8.864
 1002POPC   GL215746  28.405  31.303   8.864
 1002POPC   C1A15747  28.404  31.426   8.564
 1002POPC   D2A15748  28.378  31.452   8.264
 1002POPC   C3A15749  28.324  31.499   7.964
 1002POPC   C4A15750  28.350  31.485   7.664
 1002POPC   C1B15751  28.377  31.270   8.564
 1002POPC   C2B15752  28.344  31.253   8.264
 1002POPC   C3B15753  28.421  31.176   7.964
 1002POPC   C4B15754  28.380  31.193   7.664
 1003POPC   NC315755  15.998  29.926   9.464
 1003POPC   PO415756  15.913  29.894   9.164
 1003POPC   GL115757  15.919  29.952   8.864
 1003POPC   GL215758  15.797  29.868   8.864
 1003POPC   C1A15759  15.976  29.960   8.564
 1003POPC   D2A15760  15.991  29.930   8.264
 1003POPC   C3A15761  16.000  29.960   7.964
 1003POPC   C4A15762  15.934  29.963   7.664
 1003POPC   C1B15763  15.722  29.820   8.564
 1003POPC   C2B15764  15.746  29.851   8.264
 1003POPC   C3B15765  15.704  29.854   7.964
 1003POPC   C4B15766  15.745  29.870   7.664
 1004POPC   NC315767  36.118  11.275   9.464
 1004POPC   PO415768  36.113  11.336   9.164
 1004POPC   GL115769  36.138  11.301   8.864
 1004POPC   GL215770  36.116  11.160   8.864
 1004POPC   C1A15771  36.155  11.300   8.564
 1004POPC   D2A15772  36.145  11.314   8.264
 1004POPC   C3A15773  36.141  11.323   7.964
 1004POPC   C4A15774  36.158  11.259   7.664
 1004POPC   C1B15775  36.168  11.019   8.564
 1004POPC   C2B15776  36.228  11.033   8.264
 1004POPC   C3B15777  36.179  11.012   7.964
 1004POPC   C4B15778  36.182  11.088   7.664
 1005POPC   NC315779   5.059  39.999   9.464
 1005POPC   PO415780   5.115  39.980   9.164
 1005POPC   GL115781   5.068  39.987   8.864
 1005POPC   GL215782   5.201  39.995   8.864
 1005POPC   C1A15783   5.082  40.031   8.564
 1005POPC   D2A15784   5.114  39.958   8.264
 1005POPC   C3A15785   5.048  39.998   7.964
 1005POPC   C4A15786   5.123  40.047   7.664
 1005POPC   C1B15787   5.355  39.994   8.564
 1005POPC   C2B15788   5.384  40.035   8.264
 1005POPC   C3B15789   5.350  40.074   7.964
 1005POPC   C4B15790   5.331  40.076   7.664
 1006POPC   NC315791  33.032  26.090   9.464
 1006POPC   PO415792  32.996  26.049   9.164
 1006POPC   GL115793  33.056  25.995   8.864
 1006POPC   GL215794  33.035  26.175   8.864
 1006POPC   C1A15795  33.041  26.011   8.564
 1006POPC   D2A15796  32.991  25.999   8.264
 1006POPC   C3A15797  33.015  26.043   7.964
 1006POPC   C4A15798  33.018  26.033   7.664
 1006POPC   C1B15799  33.021  26.330   8.564
 1006POPC   C2B15800  33.052  26.280   8.264
 1006POPC   C3B15801  33.062  26.240   7.964
 1006POPC   C4B15802  33.038  26.297   7.664
 1007POPC   NC315803  42.307  40.004   9.464
 1007POPC   PO415804  42.368  39.992   9.164
 1007POPC   GL115805  42.329  40.008   8.864
 1007POPC   GL215806  42.297  40.098   8.864
 1007POPC   C1A15807  42.339  39.969   8.564
 1007POPC   D2A15808  42.364  39.998   8.264
 1007POPC   C3A15809  42.323  40.042   7.964
 1007POPC   C4A15810  42.380  40.037   7.664
 1007POPC   C1B15811  42.213  40.262   8.564
 1007POPC   C2B15812  42.251  40.177   8.264
 1007POPC   C3B15813  42.233  40.264   7.964
 1007POPC   C4B15814  42.217  40.192   7.664
 1008POPC   NC315815  19.849  44.679   9.464
 1008POPC   PO415816  19.841  44.635   9.164
 1008POPC   GL115817  19.829  44.661   8.864
 1008POPC   GL215818  20.006  44.600   8.864
 1008POPC   C1A15819  19.869  44.697   8.564
 1008POPC   D2A15820  19.871  44.629   8.264
 1008POPC   C3A15821  19.811  44.685   7.964
 1008POPC   C4A15822  19.816  44.662   7.664
 1008POPC   C1B15823  20.071  44.584   8.564
 1008POPC   C2B15824  20.096  44.590   8.264
 1008POPC   C3B15825  20.118  44.578   7.964
 1008POPC   C4B15826  20.096  44.659   7.664
 1009POPC   NC315827  34.604  43.922   9.464
 1009POPC   PO415828  34.607  43.855   9.164
 1009POPC   GL115829  34.615  43.843   8.864
 1009POPC   GL215830  34.738  43.860   8.864
 1009POPC   C1A15831  34.590  43.843   8.564
 1009POPC   D2A15832  34.534  43.862   8.264
 1009POPC   C3A15833  34.619  43.852   7.964
 1009POPC   C4A15834  34.617  43.935   7.664
 1009POPC   C1B15835  34.801  43.767   8.564
 1009POPC   C2B15836  34.824  43.780   8.264
 1009POPC   C3B15837  34.769  43.801   7.964
 1009POPC   C4B15838  34.788  43.782   7.664
 1010POPC   NC315839  28.377   6.658   9.464
 1010POPC   PO415840  28.406   6.649   9.164
 1010POPC   GL115841  28.326   6.630   8.864
 1010POPC   GL215842  28.505   6.646   8.864
 1010POPC   C1A15843  28.353   6.651   8.564
 1010POPC   D2A15844  28.347   6.605   8.264
 1010POPC   C3A15845  28.348   6.664   7.964
 1010POPC   C4A15846  28.383   6.680   7.664
 1010POPC   C1B15847  28.598   6.626   8.564
 1010POPC   C2B15848  28.616   6.683   8.264
 1010POPC   C3B15849  28.575   6.654   7.964
 1010POPC   C4B15850  28.661   6.696   7.664
 1011POPC   NC315851  35.322  10.538   9.464
 1011POPC   PO415852  35.358  10.555   9.164
 1011POPC   GL115853  35.391  10.496   8.864
 1011POPC   GL215854  35.432  10.619   8.864
 1011POPC   C1A15855  35.330  10.517   8.564
 1011POPC   D2A15856  35.382  10.557   8.264
 1011POPC   C3A15857  35.344  10.528   7.964
 1011POPC   C4A15858  35.304  10.494   7.664
 1011POPC   C1B15859  35.514  10.682   8.564
 1011POPC   C2B15860  35.479  10.684   8.264
 1011POPC   C3B15861  35.498  10.676   7.964
 1011POPC   C4B15862  35.525  10.731   7.664
 1012POPC   NC315863  11.311  26.770   9.464
 1012POPC   PO415864  11.308  26.849   9.164
 1012POPC   GL115865  11.290  26.853   8.864
 1012POPC   GL215866  11.192  26.794   8.864
 1012POPC   C1A15867  11.324  26.836   8.564
 1012POPC   D2A15868  11.265  26.825   8.264
 1012POPC   C3A15869  11.308  26.787   7.964
 1012POPC   C4A15870  11.306  26.862   7.664
 1012POPC   C1B15871  11.086  26.748   8.564
 1012POPC   C2B15872  11.087  26.767   8.264
 1012POPC   C3B15873  11.090  26.753   7.964
 1012POPC   C4B15874  11.023  26.709   7.664
 1013POPC   NC315875  40.053  34.603   9.464
 1013POPC   PO415876  40.011  34.543   9.164
 1013POPC   GL115877  40.037  34.547   8.864
 1013POPC   GL215878  40.102  34.651   8.864
 1013POPC   C1A15879  40.011  34.530   8.564
 1013POPC   D2A15880  40.007  34.580   8.264
 1013POPC   C3A15881  40.021  34.530   7.964
 1013POPC   C4A15882  39.986  34.623   7.664
 1013POPC   C1B15883  40.207  34.602   8.564
 1013POPC   C2B15884  40.215  34.594   8.264
 1013POPC   C3B15885  40.242  34.594   7.964
 1013POPC   C4B15886  40.275  34.681   7.664
 1014POPC   NC315887  25.291  39.246   9.464
 1014POPC   PO415888  25.292  39.228   9.164
 1014POPC   GL115889  25.226  39.273   8.864
 1014POPC   GL215890  25.288  39.383   8.864
 1014POPC   C1A15891  25.277  39.210   8.564
 1014POPC   D2A15892  25.285  39.268   8.264
 1014POPC   C3A15893  25.267  39.228   7.964
 1014POPC   C4A15894  25.285  39.241   7.664
 1014POPC   C1B15895  25.367  39.474   8.564
 1014POPC   C2B15896  25.379  39.424   8.264
 1014POPC   C3B15897  25.423  39.454   7.964
 1014POPC   C4B15898  25.346  39.444   7.664
 1015POPC   NC315899  42.373  13.608   9.464
 1015POPC   PO415900  42.339  13.669   9.164
 1015POPC   GL115901  42.324  13.587   8.864
 1015POPC   GL215902  42.425  13.561   8.864
 1015POPC   C1A15903  42.354  13.616   8.564
 1015POPC   D2A15904  42.306  13.627   8.264
 1015POPC   C3A15905  42.323  13.614   7.964
 1015POPC   C4A15906  42.351  13.658   7.664
 1015POPC   C1B15907  42.471  13.364   8.564
 1015POPC   C2B15908  42.464  13.449   8.264
 1015POPC   C3B15909  42.442  13.424   7.964
 1015POPC   C4B15910  42.469  13.445   7.664
 1016POPC   NC315911  22.186  29.189   9.464
 1016POPC   PO415912  22.195  29.135   9.164
 1016POPC   GL115913  22.154  29.156   8.864
 1016POPC   GL215914  22.089  29.289   8.864
 1016POPC   C1A15915  22.167  29.129   8.564
 1016POPC   D2A15916  22.185  29.103   8.264
 1016POPC   C3A15917  22.178  29.179   7.964
 1016POPC   C4A15918  22.174  29.176   7.664
 1016POPC   C1B15919  22.048  29.334   8.564
 1016POPC   C2B15920  22.067  29.322   8.264
 1016POPC   C3B15921  21.998  29.384   7.964
 1016POPC   C4B15922  22.045  29.409   7.664
 1017POPC   NC315923  42.337   2.749   9.464
 1017POPC   PO415924  42.337   2.742   9.164
 1017POPC   GL115925  42.356   2.749   8.864
 1017POPC   GL215926  42.413   2.830   8.864
 1017POPC   C1A15927  42.301   2.784   8.564
 1017POPC   D2A15928  42.327   2.783   8.264
 1017POPC   C3A15929  42.346   2.780   7.964
 1017POPC   C4A15930  42.362   2.782   7.664
 1017POPC   C1B15931  42.556   2.779   8.564
 1017POPC   C2B15932  42.610   2.805   8.264
 1017POPC   C3B15933  42.535   2.810   7.964
 1017POPC   C4B15934  42.545   2.858   7.664
 1018POPC   NC315935  34.528  25.246   9.464
 1018POPC   PO415936  34.555  25.291   9.164
 1018POPC   GL115937  34.543  25.299   8.864
 1018POPC   GL215938  34.595  25.176   8.864
 1018POPC   C1A15939  34.544  25.244   8.564
 1018POPC   D2A15940  34.591  25.241   8.264
 1018POPC   C3A15941  34.622  25.262   7.964
 1018POPC   C4A15942  34.578  25.233   7.664
 1018POPC   C1B15943  34.615  24.981   8.564
 1018POPC   C2B15944  34.638  25.023   8.264
 1018POPC   C3B15945  34.587  25.031   7.964
 1018POPC   C4B15946  34.629  24.978   7.664
 1019POPC   NC315947  28.408   2.744   9.464
 1019POPC   PO415948  28.340   2.797   9.164
 1019POPC   GL115949  28.343   2.731   8.864
 1019POPC   GL215950  28.411   2.845   8.864
 1019POPC   C1A15951  28.409   2.757   8.564
 1019POPC   D2A15952  28.405   2.737   8.264
 1019POPC   C3A15953  28.387   2.737   7.964
 1019POPC   C4A15954  28.405   2.784   7.664
 1019POPC   C1B15955  28.524   2.953   8.564
 1019POPC   C2B15956  28.533   2.902   8.264
 1019POPC   C3B15957  28.601   2.933   7.964
 1019POPC   C4B15958  28.537   2.943   7.664
 1020POPC   NC315959  17.554  18.314   9.464
 1020POPC   PO415960  17.526  18.317   9.164
 1020POPC   GL115961  17.548  18.305   8.864
 1020POPC   GL215962  17.499  18.183   8.864
 1020POPC   C1A15963  17.544  18.331   8.564
 1020POPC   D2A15964  17.552  18.276   8.264
 1020POPC   C3A15965  17.471  18.324   7.964
 1020POPC   C4A15966  17.500  18.250   7.664
 1020POPC   C1B15967  17.457  18.059   8.564
 1020POPC   C2B15968  17.368  18.007   8.264
 1020POPC   C3B15969  17.393  18.020   7.964
 1020POPC   C4B15970  17.422  18.042   7.664
 1021POPC   NC315971  26.080   0.421   9.464
 1021POPC   PO415972  26.061   0.412   9.164
 1021POPC   GL115973  26.041   0.423   8.864
 1021POPC   GL215974  25.936   0.508   8.864
 1021POPC   C1A15975  26.000   0.457   8.564
 1021POPC   D2A15976  26.074   0.409   8.264
 1021POPC   C3A15977  26.000   0.482   7.964
 1021POPC   C4A15978  26.039   0.453   7.664
 1021POPC   C1B15979  25.782   0.507   8.564
 1021POPC   C2B15980  25.763   0.517   8.264
 1021POPC   C3B15981  25.778   0.479   7.964
 1021POPC   C4B15982  25.832   0.523   7.664
 1022POPC   NC315983  19.879   8.204   9.464
 1022POPC   PO415984  19.881   8.193   9.164
 1022POPC   GL115985  19.851   8.175   8.864
 1022POPC   GL215986  19.915   8.234   8.864
 1022POPC   C1A15987  19.833   8.180   8.564
 1022POPC   D2A15988  19.878   8.218   8.264
 1022POPC   C3A15989  19.863   8.234   7.964
 1022POPC   C4A15990  19.876   8.192   7.664
 1022POPC   C1B15991  20.069   8.386   8.564
 1022POPC   C2B15992  20.023   8.395   8.264
 1022POPC   C3B15993  20.005   8.336   7.964
 1022POPC   C4B15994  20.015   8.347   7.664
 1023POPC   NC315995   0.407  29.896   9.464
 1023POPC   PO415996   0.446  29.908   9.164
 1023POPC   GL115997   0.426  29.948   8.864
 1023POPC   GL215998   0.511  29.822   8.864
 1023POPC   C1A15999   0.404  29.915   8.564
 1023POPC   D2A16000   0.447  29.926   8.264
 1023POPC   C3A16001   0.439  29.959   7.964
 1023POPC   C4A16002   0.453  29.935   7.664
 1023POPC   C1B16003   0.614  29.812   8.564
 1023POPC   C2B16004   0.590  29.801   8.264
 1023POPC   C3B16005   0.612  29.717   7.964
 1023POPC   C4B16006   0.661  29.768   7.664
 1024POPC   NC316007  28.418  26.070   9.464
 1024POPC   PO416008  28.338  26.072   9.164
 1024POPC   GL116009  28.337  26.081   8.864
 1024POPC   GL216010  28.498  26.039   8.864
 1024POPC   C1A16011  28.410  26.089   8.564
 1024POPC   D2A16012  28.395  25.992   8.264
 1024POPC   C3A16013  28.386  26.030   7.964
 1024POPC   C4A16014  28.406  26.074   7.664
 1024POPC   C1B16015  28.625  26.013   8.564
 1024POPC   C2B16016  28.645  25.914   8.264
 1024POPC   C3B16017  28.563  25.966   7.964
 1024POPC   C4B16018  28.575  25.962   7.664
 1025POPC   NC316019   1.999  17.472   9.464
 1025POPC   PO416020   2.032  17.488   9.164
 1025POPC   GL116021   2.021  17.463   8.864
 1025POPC   GL216022   2.094  17.553   8.864
 1025POPC   C1A16023   2.025  17.502   8.564
 1025POPC   D2A16024   1.951  17.518   8.264
 1025POPC   C3A16025   1.956  17.530   7.964
 1025POPC   C4A16026   1.980  17.489   7.664
 1025POPC   C1B16027   2.240  17.551   8.564
 1025POPC   C2B16028   2.266  17.592   8.264
 1025POPC   C3B16029   2.211  17.580   7.964
 1025POPC   C4B16030   2.197  17.542   7.664
 1026POPC   NC316031  14.428  16.719   9.464
 1026POPC   PO416032  14.441  16.699   9.164
 1026POPC   GL116033  14.450  16.778   8.864
 1026POPC   GL216034  14.450  16.605   8.864
 1026POPC   C1A16035  14.353  16.730   8.564
 1026POPC   D2A16036  14.442  16.710   8.264
 1026POPC   C3A16037  14.402  16.771   7.964
 1026POPC   C4A16038  14.423  16.741   7.664
 1026POPC   C1B16039  14.495  16.512   8.564
 1026POPC   C2B16040  14.463  16.469   8.264
 1026POPC   C3B16041  14.458  16.459   7.964
 1026POPC   C4B16042  14.508  16.446   7.664
 1027POPC   NC316043  22.952   0.448   9.464
 1027POPC   PO416044  22.917   0.445   9.164
 1027POPC   GL116045  22.982   0.424   8.864
 1027POPC   GL216046  22.967   0.559   8.864
 1027POPC   C1A16047  22.906   0.404   8.564
 1027POPC   D2A16048  22.943   0.399   8.264
 1027POPC   C3A16049  22.916   0.477   7.964
 1027POPC   C4A16050  22.910   0.442   7.664
 1027POPC   C1B16051  23.133   0.646   8.564
 1027POPC   C2B16052  23.113   0.589   8.264
 1027POPC   C3B16053  23.055   0.671   7.964
 1027POPC   C4B16054  23.081   0.619   7.664
 1028POPC   NC316055  19.076  22.159   9.464
 1028POPC   PO416056  19.041  22.119   9.164
 1028POPC   GL116057  19.037  22.166   8.864
 1028POPC   GL216058  19.147  22.087   8.864
 1028POPC   C1A16059  19.046  22.141   8.564
 1028POPC   D2A16060  19.025  22.185   8.264
 1028POPC   C3A16061  19.039  22.127   7.964
 1028POPC   C4A16062  19.107  22.167   7.664
 1028POPC   C1B16063  19.203  21.960   8.564
 1028POPC   C2B16064  19.247  21.954   8.264
 1028POPC   C3B16065  19.198  21.974   7.964
 1028POPC   C4B16066  19.228  22.017   7.664
 1029POPC   NC316067  43.156   9.741   9.464
 1029POPC   PO416068  43.065   9.707   9.164
 1029POPC   GL116069  43.072   9.720   8.864
 1029POPC   GL216070  43.062   9.868   8.864
 1029POPC   C1A16071  43.151   9.790   8.564
 1029POPC   D2A16072  43.106   9.760   8.264
 1029POPC   C3A16073  43.131   9.724   7.964
 1029POPC   C4A16074  43.098   9.746   7.664
 1029POPC   C1B16075  43.089   9.995   8.564
 1029POPC   C2B16076  43.100   9.955   8.264
 1029POPC   C3B16077  43.112  10.010   7.964
 1029POPC   C4B16078  43.101  10.041   7.664
 1030POPC   NC316079  38.441  14.437   9.464
 1030POPC   PO416080  38.440  14.390   9.164
 1030POPC   GL116081  38.482  14.435   8.864
 1030POPC   GL216082  38.440  14.525   8.864
 1030POPC   C1A16083  38.486  14.411   8.564
 1030POPC   D2A16084  38.486  14.442   8.264
 1030POPC   C3A16085  38.490  14.379   7.964
 1030POPC   C4A16086  38.435  14.381   7.664
 1030POPC   C1B16087  38.359  14.630   8.564
 1030POPC   C2B16088  38.367  14.603   8.264
 1030POPC   C3B16089  38.377  14.628   7.964
 1030POPC   C4B16090  38.357  14.620   7.664
 1031POPC   NC316091  18.283  21.356   9.464
 1031POPC   PO416092  18.290  21.428   9.164
 1031POPC   GL116093  18.292  21.429   8.864
 1031POPC   GL216094  18.111  21.351   8.864
 1031POPC   C1A16095  18.308  21.340   8.564
 1031POPC   D2A16096  18.301  21.403   8.264
 1031POPC   C3A16097  18.299  21.391   7.964
 1031POPC   C4A16098  18.315  21.369   7.664
 1031POPC   C1B16099  18.024  21.384   8.564
 1031POPC   C2B16100  18.029  21.338   8.264
 1031POPC   C3B16101  18.040  21.400   7.964
 1031POPC   C4B16102  18.003  21.365   7.664
 1032POPC   NC316103  28.364  23.709   9.464
 1032POPC   PO416104  28.369  23.756   9.164
 1032POPC   GL116105  28.410  23.748   8.864
 1032POPC   GL216106  28.342  23.847   8.864
 1032POPC   C1A16107  28.370  23.739   8.564
 1032POPC   D2A16108  28.328  23.724   8.264
 1032POPC   C3A16109  28.345  23.681   7.964
 1032POPC   C4A16110  28.344  23.668   7.664
 1032POPC   C1B16111  28.268  23.945   8.564
 1032POPC   C2B16112  28.289  23.977   8.264
 1032POPC   C3B16113  28.311  23.907   7.964
 1032POPC   C4B16114  28.277  23.917   7.664
 1033POPC   NC316115  43.108  33.764   9.464
 1033POPC   PO416116  43.103  33.776   9.164
 1033POPC   GL116117  43.073  33.832   8.864
 1033POPC   GL216118  43.116  33.720   8.864
 1033POPC   C1A16119  43.140  33.806   8.564
 1033POPC   D2A16120  43.116  33.821   8.264
 1033POPC   C3A16121  43.062  33.791   7.964
 1033POPC   C4A16122  43.158  33.759   7.664
 1033POPC   C1B16123  43.183  33.562   8.564
 1033POPC   C2B16124  43.165  33.515   8.264
 1033POPC   C3B16125  43.172  33.514   7.964
 1033POPC   C4B16126  43.191  33.583   7.664
 1034POPC   NC316127  39.196  36.174   9.464
 1034POPC   PO416128  39.241  36.115   9.164
 1034POPC   GL116129  39.195  36.103   8.864
 1034POPC   GL216130  39.131  36.111   8.864
 1034POPC   C1A16131  39.210  36.172   8.564
 1034POPC   D2A16132  39.208  36.137   8.264
 1034POPC   C3A16133  39.233  36.124   7.964
 1034POPC   C4A16134  39.259  36.100   7.664
 1034POPC   C1B16135  39.024  36.185   8.564
 1034POPC   C2B16136  38.972  36.181   8.264
 1034POPC   C3B16137  38.976  36.199   7.964
 1034POPC   C4B16138  39.021  36.178   7.664
 1035POPC   NC316139  23.694  39.248   9.464
 1035POPC   PO416140  23.686  39.278   9.164
 1035POPC   GL116141  23.758  39.267   8.864
 1035POPC   GL216142  23.663  39.297   8.864
 1035POPC   C1A16143  23.730  39.275   8.564
 1035POPC   D2A16144  23.699  39.193   8.264
 1035POPC   C3A16145  23.764  39.213   7.964
 1035POPC   C4A16146  23.725  39.187   7.664
 1035POPC   C1B16147  23.562  39.447   8.564
 1035POPC   C2B16148  23.574  39.408   8.264
 1035POPC   C3B16149  23.582  39.417   7.964
 1035POPC   C4B16150  23.635  39.418   7.664
 1036POPC   NC316151   1.256  43.918   9.464
 1036POPC   PO416152   1.240  43.935   9.164
 1036POPC   GL116153   1.178  43.891   8.864
 1036POPC   GL216154   1.288  44.026   8.864
 1036POPC   C1A16155   1.190  43.851   8.564
 1036POPC   D2A16156   1.240  43.926   8.264
 1036POPC   C3A16157   1.237  43.918   7.964
 1036POPC   C4A16158   1.228  43.851   7.664
 1036POPC   C1B16159   1.315  44.148   8.564
 1036POPC   C2B16160   1.295  44.096   8.264
 1036POPC   C3B16161   1.312  44.179   7.964
 1036POPC   C4B16162   1.233  44.135   7.664
 1037POPC   NC316163  33.010  16.731   9.464
 1037POPC   PO416164  33.032  16.749   9.164
 1037POPC   GL116165  33.022  16.721   8.864
 1037POPC   GL216166  33.096  16.571   8.864
 1037POPC   C1A16167  33.039  16.701   8.564
 1037POPC   D2A16168  32.997  16.767   8.264
 1037POPC   C3A16169  33.012  16.727   7.964
 1037POPC   C4A16170  33.065  16.766   7.664
 1037POPC   C1B16171  33.121  16.514   8.564
 1037POPC   C2B16172  33.074  16.505   8.264
 1037POPC   C3B16173  33.051  16.437   7.964
 1037POPC   C4B16174  33.114  16.458   7.664
 1038POPC   NC316175  26.030  26.844   9.464
 1038POPC   PO416176  26.069  26.809   9.164
 1038POPC   GL116177  26.017  26.840   8.864
 1038POPC   GL216178  26.211  26.871   8.864
 1038POPC   C1A16179  26.044  26.829   8.564
 1038POPC   D2A16180  26.084  26.861   8.264
 1038POPC   C3A16181  26.047  26.828   7.964
 1038POPC   C4A16182  26.076  26.827   7.664
 1038POPC   C1B16183  26.271  26.859   8.564
 1038POPC   C2B16184  26.236  26.937   8.264
 1038POPC   C3B16185  26.328  26.841   7.964
 1038POPC   C4B16186  26.238  26.887   7.664
 1039POPC   NC316187  42.351  29.142   9.464
 1039POPC   PO416188  42.368  29.120   9.164
 1039POPC   GL116189  42.361  29.194   8.864
 1039POPC   GL216190  42.175  29.106   8.864
 1039POPC   C1A16191  42.349  29.130   8.564
 1039POPC   D2A16192  42.368  29.180   8.264
 1039POPC   C3A16193  42.345  29.134   7.964
 1039POPC   C4A16194  42.295  29.159   7.664
 1039POPC   C1B16195  42.098  29.082   8.564
 1039POPC   C2B16196  42.057  29.066   8.264
 1039POPC   C3B16197  42.086  29.109   7.964
 1039POPC   C4B16198  42.124  29.023   7.664
 1040POPC   NC316199   7.391  36.161   9.464
 1040POPC   PO416200   7.426  36.132   9.164
 1040POPC   GL116201   7.421  36.125   8.864
 1040POPC   GL216202   7.392  35.979   8.864
 1040POPC   C1A16203   7.444  36.095   8.564
 1040POPC   D2A16204   7.442  36.111   8.264
 1040POPC   C3A16205   7.424  36.104   7.964
 1040POPC   C4A16206   7.436  36.128   7.664
 1040POPC   C1B16207   7.479  35.923   8.564
 1040POPC   C2B16208   7.493  35.846   8.264
 1040POPC   C3B16209   7.442  35.921   7.964
 1040POPC   C4B16210   7.457  35.861   7.664
 1041POPC   NC316211  21.359  25.240   9.464
 1041POPC   PO416212  21.426  25.286   9.164
 1041POPC   GL116213  21.374  25.284   8.864
 1041POPC   GL216214  21.542  25.332   8.864
 1041POPC   C1A16215  21.419  25.307   8.564
 1041POPC   D2A16216  21.356  25.234   8.264
 1041POPC   C3A16217  21.410  25.257   7.964
 1041POPC   C4A16218  21.343  25.305   7.664
 1041POPC   C1B16219  21.587  25.304   8.564
 1041POPC   C2B16220  21.636  25.307   8.264
 1041POPC   C3B16221  21.648  25.352   7.964
 1041POPC   C4B16222  21.627  25.261   7.664
 1042POPC   NC316223  24.518  35.375   9.464
 1042POPC   PO416224  24.479  35.375   9.164
 1042POPC   GL116225  24.518  35.331   8.864
 1042POPC   GL216226  24.634  35.350   8.864
 1042POPC   C1A16227  24.513  35.307   8.564
 1042POPC   D2A16228  24.472  35.354   8.264
 1042POPC   C3A16229  24.479  35.343   7.964
 1042POPC   C4A16230  24.446  35.327   7.664
 1042POPC   C1B16231  24.675  35.477   8.564
 1042POPC   C2B16232  24.711  35.480   8.264
 1042POPC   C3B16233  24.678  35.423   7.964
 1042POPC   C4B16234  24.684  35.447   7.664
 1043POPC   NC316235  26.058  28.398   9.464
 1043POPC   PO416236  26.029  28.353   9.164
 1043POPC   GL116237  26.027  28.329   8.864
 1043POPC   GL216238  25.944  28.443   8.864
 1043POPC   C1A16239  26.066  28.400   8.564
 1043POPC   D2A16240  26.012  28.329   8.264
 1043POPC   C3A16241  26.046  28.399   7.964
 1043POPC   C4A16242  26.069  28.402   7.664
 1043POPC   C1B16243  25.920  28.523   8.564
 1043POPC   C2B16244  25.912  28.596   8.264
 1043POPC   C3B16245  25.916  28.570   7.964
 1043POPC   C4B16246  25.834  28.584   7.664
 1044POPC   NC316247  24.503  37.685   9.464
 1044POPC   PO416248  24.507  37.636   9.164
 1044POPC   GL116249  24.476  37.635   8.864
 1044POPC   GL216250  24.470  37.519   8.864
 1044POPC   C1A16251  24.446  37.696   8.564
 1044POPC   D2A16252  24.464  37.670   8.264
 1044POPC   C3A16253  24.493  37.703   7.964
 1044POPC   C4A16254  24.451  37.678   7.664
 1044POPC   C1B16255  24.552  37.463   8.564
 1044POPC   C2B16256  24.532  37.439   8.264
 1044POPC   C3B16257  24.505  37.434   7.964
 1044POPC   C4B16258  24.492  37.463   7.664
 1045POPC   NC316259  43.841  43.107   9.464
 1045POPC   PO416260  43.914  43.148   9.164
 1045POPC   GL116261  43.841  43.081   8.864
 1045POPC   GL216262  43.850  43.034   8.864
 1045POPC   C1A16263  43.923  43.123   8.564
 1045POPC   D2A16264  43.924  43.136   8.264
 1045POPC   C3A16265  43.903  43.096   7.964
 1045POPC   C4A16266  43.846  43.146   7.664
 1045POPC   C1B16267  43.876  42.870   8.564
 1045POPC   C2B16268  43.900  42.907   8.264
 1045POPC   C3B16269  43.919  42.846   7.964
 1045POPC   C4B16270  43.930  42.849   7.664
 1046POPC   NC316271   8.993  34.579   9.464
 1046POPC   PO416272   8.931  34.619   9.164
 1046POPC   GL116273   8.923  34.568   8.864
 1046POPC   GL216274   8.942  34.706   8.864
 1046POPC   C1A16275   8.969  34.583   8.564
 1046POPC   D2A16276   8.995  34.579   8.264
 1046POPC   C3A16277   8.965  34.547   7.964
 1046POPC   C4A16278   8.942  34.535   7.664
 1046POPC   C1B16279   8.894  34.846   8.564
 1046POPC   C2B16280   8.879  34.843   8.264
 1046POPC   C3B16281   8.900  34.817   7.964
 1046POPC   C4B16282   8.899  34.789   7.664
 1047POPC   NC316283  21.385  29.101   9.464
 1047POPC   PO416284  21.390  29.184   9.164
 1047POPC   GL116285  21.409  29.150   8.864
 1047POPC   GL216286  21.297  29.039   8.864
 1047POPC   C1A16287  21.359  29.156   8.564
 1047POPC   D2A16288  21.345  29.119   8.264
 1047POPC   C3A16289  21.423  29.136   7.964
 1047POPC   C4A16290  21.388  29.171   7.664
 1047POPC   C1B16291  21.230  28.884   8.564
 1047POPC   C2B16292  21.256  28.921   8.264
 1047POPC   C3B16293  21.251  28.927   7.964
 1047POPC   C4B16294  21.239  28.918   7.664
 1048POPC   NC316295  38.413  40.750   9.464
 1048POPC   PO416296  38.475  40.746   9.164
 1048POPC   GL116297  38.469  40.793   8.864
 1048POPC   GL216298  38.475  40.949   8.864
 1048POPC   C1A16299  38.497  40.791   8.564
 1048POPC   D2A16300  38.469  40.770   8.264
 1048POPC   C3A16301  38.444  40.777   7.964
 1048POPC   C4A16302  38.434  40.822   7.664
 1048POPC   C1B16303  38.394  40.987   8.564
 1048POPC   C2B16304  38.403  40.996   8.264
 1048POPC   C3B16305  38.478  41.032   7.964
 1048POPC   C4B16306  38.480  41.057   7.664
 1049POPC   NC316307  26.839  20.620   9.464
 1049POPC   PO416308  26.832  20.618   9.164
 1049POPC   GL116309  26.846  20.572   8.864
 1049POPC   GL216310  26.890  20.677   8.864
 1049POPC   C1A16311  26.850  20.588   8.564
 1049POPC   D2A16312  26.862  20.605   8.264
 1049POPC   C3A16313  26.825  20.614   7.964
 1049POPC   C4A16314  26.837  20.622   7.664
 1049POPC   C1B16315  26.998  20.682   8.564
 1049POPC   C2B16316  27.025  20.679   8.264
 1049POPC   C3B16317  27.067  20.768   7.964
 1049POPC   C4B16318  27.013  20.728   7.664
 1050POPC   NC316319   5.827  22.985   9.464
 1050POPC   PO416320   5.911  22.979   9.164
 1050POPC   GL116321   5.838  22.950   8.864
 1050POPC   GL216322   5.913  22.847   8.864
 1050POPC   C1A16323   5.872  22.888   8.564
 1050POPC   D2A16324   5.850  22.956   8.264
 1050POPC   C3A16325   5.895  22.959   7.964
 1050POPC   C4A16326   5.889  22.924   7.664
 1050POPC   C1B16327   6.013  22.687   8.564
 1050POPC   C2B16328   6.020  22.686   8.264
 1050POPC   C3B16329   5.997  22.721   7.964
 1050POPC   C4B16330   6.030  22.712   7.664
 1051POPC   NC316331   8.240  26.078   9.464
 1051POPC   PO416332   8.147  26.009   9.164
 1051POPC   GL116333   8.190  26.029   8.864
 1051POPC   GL216334   8.285  26.056   8.864
 1051POPC   C1A16335   8.153  26.083   8.564
 1051POPC   D2A16336   8.238  26.030   8.264
 1051POPC   C3A16337   8.204  26.033   7.964
 1051POPC   C4A16338   8.219  26.046   7.664
 1051POPC   C1B16339   8.413  26.010   8.564
 1051POPC   C2B16340   8.439  25.987   8.264
 1051POPC   C3B16341   8.445  26.026   7.964
 1051POPC   C4B16342   8.446  25.999   7.664
 1052POPC   NC316343  38.416  25.244   9.464
 1052POPC   PO416344  38.445  25.314   9.164
 1052POPC   GL116345  38.426  25.252   8.864
 1052POPC   GL216346  38.447  25.426   8.864
 1052POPC   C1A16347  38.502  25.303   8.564
 1052POPC   D2A16348  38.442  25.229   8.264
 1052POPC   C3A16349  38.406  25.314   7.964
 1052POPC   C4A16350  38.505  25.313   7.664
 1052POPC   C1B16351  38.450  25.557   8.564
 1052POPC   C2B16352  38.509  25.506   8.264
 1052POPC   C3B16353  38.460  25.472   7.964
 1052POPC   C4B16354  38.440  25.497   7.664
 1053POPC   NC316355  18.300  32.980   9.464
 1053POPC   PO416356  18.291  32.985   9.164
 1053POPC   GL116357  18.284  33.000   8.864
 1053POPC   GL216358  18.297  32.883   8.864
 1053POPC   C1A16359  18.325  32.989   8.564
 1053POPC   D2A16360  18.265  33.051   8.264
 1053POPC   C3A16361  18.259  32.982   7.964
 1053POPC   C4A16362  18.303  33.038   7.664
 1053POPC   C1B16363  18.296  32.772   8.564
 1053POPC   C2B16364  18.315  32.814   8.264
 1053POPC   C3B16365  18.319  32.743   7.964
 1053POPC   C4B16366  18.299  32.774   7.664
 1054POPC   NC316367  40.767   8.162   9.464
 1054POPC   PO416368  40.781   8.218   9.164
 1054POPC   GL116369  40.804   8.173   8.864
 1054POPC   GL216370  40.820   8.101   8.864
 1054POPC   C1A16371  40.806   8.189   8.564
 1054POPC   D2A16372  40.753   8.174   8.264
 1054POPC   C3A16373  40.754   8.180   7.964
 1054POPC   C4A16374  40.765   8.204   7.664
 1054POPC   C1B16375  40.835   7.925   8.564
 1054POPC   C2B16376  40.876   7.962   8.264
 1054POPC   C3B16377  40.851   7.987   7.964
 1054POPC   C4B16378  40.789   7.968   7.664
 1055POPC   NC316379  13.664   6.633   9.464
 1055POPC   PO416380  13.650   6.651   9.164
 1055POPC   GL116381  13.671   6.626   8.864
 1055POPC   GL216382  13.737   6.547   8.864
 1055POPC   C1A16383  13.626   6.675   8.564
 1055POPC   D2A16384  13.627   6.684   8.264
 1055POPC   C3A16385  13.640   6.640   7.964
 1055POPC   C4A16386  13.622   6.652   7.664
 1055POPC   C1B16387  13.831   6.461   8.564
 1055POPC   C2B16388  13.819   6.538   8.264
 1055POPC   C3B16389  13.804   6.483   7.964
 1055POPC   C4B16390  13.855   6.453   7.664
 1056POPC   NC316391   2.768  43.144   9.464
 1056POPC   PO416392   2.717  43.070   9.164
 1056POPC   GL116393   2.764  43.095   8.864
 1056POPC   GL216394   2.845  43.180   8.864
 1056POPC   C1A16395   2.720  43.087   8.564
 1056POPC   D2A16396   2.784  43.077   8.264
 1056POPC   C3A16397   2.768  43.079   7.964
 1056POPC   C4A16398   2.740  43.127   7.664
 1056POPC   C1B16399   2.930  43.321   8.564
 1056POPC   C2B16400   2.869  43.299   8.264
 1056POPC   C3B16401   2.911  43.276   7.964
 1056POPC   C4B16402   2.864  43.280   7.664
 1057POPC   NC316403   6.673  10.563   9.464
 1057POPC   PO416404   6.622  10.566   9.164
 1057POPC   GL116405   6.660  10.556   8.864
 1057POPC   GL216406   6.499  10.593   8.864
 1057POPC   C1A16407   6.675  10.504   8.564
 1057POPC   D2A16408   6.599  10.551   8.264
 1057POPC   C3A16409   6.693  10.526   7.964
 1057POPC   C4A16410   6.665  10.482   7.664
 1057POPC   C1B16411   6.468  10.661   8.564
 1057POPC   C2B16412   6.422  10.659   8.264
 1057POPC   C3B16413   6.456  10.611   7.964
 1057POPC   C4B16414   6.385  10.637   7.664
 1058POPC   NC316415  14.405  10.541   9.464
 1058POPC   PO416416  14.408  10.573   9.164
 1058POPC   GL116417  14.418  10.565   8.864
 1058POPC   GL216418  14.451  10.656   8.864
 1058POPC   C1A16419  14.375  10.573   8.564
 1058POPC   D2A16420  14.409  10.536   8.264
 1058POPC   C3A16421  14.392  10.482   7.964
 1058POPC   C4A16422  14.386  10.561   7.664
 1058POPC   C1B16423  14.564  10.698   8.564
 1058POPC   C2B16424  14.574  10.735   8.264
 1058POPC   C3B16425  14.544  10.661   7.964
 1058POPC   C4B16426  14.565  10.663   7.664
 1059POPC   NC316427  17.516  19.787   9.464
 1059POPC   PO416428  17.467  19.825   9.164
 1059POPC   GL116429  17.549  19.876   8.864
 1059POPC   GL216430  17.626  19.812   8.864
 1059POPC   C1A16431  17.510  19.835   8.564
 1059POPC   D2A16432  17.522  19.813   8.264
 1059POPC   C3A16433  17.526  19.884   7.964
 1059POPC   C4A16434  17.554  19.857   7.664
 1059POPC   C1B16435  17.804  19.852   8.564
 1059POPC   C2B16436  17.752  19.773   8.264
 1059POPC   C3B16437  17.752  19.785   7.964
 1059POPC   C4B16438  17.766  19.838   7.664
 1060POPC   NC316439   9.787  40.824   9.464
 1060POPC   PO416440   9.705  40.815   9.164
 1060POPC   GL116441   9.704  40.805   8.864
 1060POPC   GL216442   9.745  40.940   8.864
 1060POPC   C1A16443   9.771  40.734   8.564
 1060POPC   D2A16444   9.754  40.764   8.264
 1060POPC   C3A16445   9.717  40.815   7.964
 1060POPC   C4A16446   9.722  40.783   7.664
 1060POPC   C1B16447   9.732  41.009   8.564
 1060POPC   C2B16448   9.705  41.041   8.264
 1060POPC   C3B16449   9.741  41.045   7.964
 1060POPC   C4B16450   9.746  41.051   7.664
 1061POPC   NC316451  29.100   9.003   9.464
 1061POPC   PO416452  29.179   8.982   9.164
 1061POPC   GL116453  29.191   8.954   8.864
 1061POPC   GL216454  29.015   8.997   8.864
 1061POPC   C1A16455  29.185   8.990   8.564
 1061POPC   D2A16456  29.186   8.994   8.264
 1061POPC   C3A16457  29.191   8.964   7.964
 1061POPC   C4A16458  29.179   9.012   7.664
 1061POPC   C1B16459  28.928   8.922   8.564
 1061POPC   C2B16460  28.873   8.963   8.264
 1061POPC   C3B16461  28.881   8.915   7.964
 1061POPC   C4B16462  28.936   8.947   7.664
 1062POPC   NC316463  41.525  40.032   9.464
 1062POPC   PO416464  41.574  39.981   9.164
 1062POPC   GL116465  41.600  40.007   8.864
 1062POPC   GL216466  41.507  39.889   8.864
 1062POPC   C1A16467  41.527  39.967   8.564
 1062POPC   D2A16468  41.534  39.997   8.264
 1062POPC   C3A16469  41.566  39.963   7.964
 1062POPC   C4A16470  41.539  39.983   7.664
 1062POPC   C1B16471  41.443  39.791   8.564
 1062POPC   C2B16472  41.472  39.755   8.264
 1062POPC   C3B16473  41.433  39.799   7.964
 1062POPC   C4B16474  41.386  39.762   7.664
 1063POPC   NC316475  43.905  13.652   9.464
 1063POPC   PO416476  43.934  13.584   9.164
 1063POPC   GL116477  43.903  13.674   8.864
 1063POPC   GL216478  43.779  13.563   8.864
 1063POPC   C1A16479  43.895  13.622   8.564
 1063POPC   D2A16480  43.854  13.624   8.264
 1063POPC   C3A16481  43.837  13.586   7.964
 1063POPC   C4A16482  43.854  13.614   7.664
 1063POPC   C1B16483  43.649  13.548   8.564
 1063POPC   C2B16484  43.711  13.505   8.264
 1063POPC   C3B16485  43.697  13.533   7.964
 1063POPC   C4B16486  43.647  13.559   7.664
 1064POPC   NC316487  22.919  22.958   9.464
 1064POPC   PO416488  22.978  22.967   9.164
 1064POPC   GL116489  22.987  22.952   8.864
 1064POPC   GL216490  22.805  22.861   8.864
 1064POPC   C1A16491  22.977  22.980   8.564
 1064POPC   D2A16492  22.935  22.953   8.264
 1064POPC   C3A16493  22.894  22.950   7.964
 1064POPC   C4A16494  22.985  22.894   7.664
 1064POPC   C1B16495  22.683  22.817   8.564
 1064POPC   C2B16496  22.722  22.858   8.264
 1064POPC   C3B16497  22.723  22.818   7.964
 1064POPC   C4B16498  22.718  22.859   7.664
 1065POPC   NC316499  42.332  23.746   9.464
 1065POPC   PO416500  42.343  23.683   9.164
 1065POPC   GL116501  42.378  23.728   8.864
 1065POPC   GL216502  42.222  23.631   8.864
 1065POPC   C1A16503  42.350  23.735   8.564
 1065POPC   D2A16504  42.371  23.717   8.264
 1065POPC   C3A16505  42.305  23.709   7.964
 1065POPC   C4A16506  42.351  23.759   7.664
 1065POPC   C1B16507  42.195  23.498   8.564
 1065POPC   C2B16508  42.104  23.514   8.264
 1065POPC   C3B16509  42.179  23.562   7.964
 1065POPC   C4B16510  42.099  23.506   7.664
 1066POPC   NC316511  43.092   7.427   9.464
 1066POPC   PO416512  43.089   7.395   9.164
 1066POPC   GL116513  43.153   7.436   8.864
 1066POPC   GL216514  43.220   7.434   8.864
 1066POPC   C1A16515  43.076   7.377   8.564
 1066POPC   D2A16516  43.103   7.400   8.264
 1066POPC   C3A16517  43.130   7.448   7.964
 1066POPC   C4A16518  43.115   7.459   7.664
 1066POPC   C1B16519  43.332   7.560   8.564
 1066POPC   C2B16520  43.312   7.482   8.264
 1066POPC   C3B16521  43.340   7.539   7.964
 1066POPC   C4B16522  43.377   7.474   7.664
 1067POPC   NC316523  42.308  36.929   9.464
 1067POPC   PO416524  42.360  36.940   9.164
 1067POPC   GL116525  42.307  36.886   8.864
 1067POPC   GL216526  42.430  36.919   8.864
 1067POPC   C1A16527  42.348  36.894   8.564
 1067POPC   D2A16528  42.376  36.951   8.264
 1067POPC   C3A16529  42.296  36.919   7.964
 1067POPC   C4A16530  42.325  36.931   7.664
 1067POPC   C1B16531  42.567  36.966   8.564
 1067POPC   C2B16532  42.537  36.994   8.264
 1067POPC   C3B16533  42.528  37.015   7.964
 1067POPC   C4B16534  42.607  36.992   7.664
 1068POPC   NC316535  29.124  39.983   9.464
 1068POPC   PO416536  29.178  39.985   9.164
 1068POPC   GL116537  29.111  40.029   8.864
 1068POPC   GL216538  29.011  40.036   8.864
 1068POPC   C1A16539  29.173  39.975   8.564
 1068POPC   D2A16540  29.129  40.023   8.264
 1068POPC   C3A16541  29.185  39.974   7.964
 1068POPC   C4A16542  29.097  40.008   7.664
 1068POPC   C1B16543  28.880  40.050   8.564
 1068POPC   C2B16544  28.868  40.131   8.264
 1068POPC   C3B16545  28.876  40.081   7.964
 1068POPC   C4B16546  28.940  40.084   7.664
 1069POPC   NC316547   5.864  36.863   9.464
 1069POPC   PO416548   5.918  36.908   9.164
 1069POPC   GL116549   5.863  36.853   8.864
 1069POPC   GL216550   5.772  36.815   8.864
 1069POPC   C1A16551   5.822  36.938   8.564
 1069POPC   D2A16552   5.879  36.942   8.264
 1069POPC   C3A16553   5.898  36.888   7.964
 1069POPC   C4A16554   5.863  36.924   7.664
 1069POPC   C1B16555   5.786  36.669   8.564
 1069POPC   C2B16556   5.791  36.678   8.264
 1069POPC   C3B16557   5.756  36.696   7.964
 1069POPC   C4B16558   5.700  36.727   7.664
 1070POPC   NC316559  29.895  37.684   9.464
 1070POPC   PO416560  29.899  37.652   9.164
 1070POPC   GL116561  29.944  37.692   8.864
 1070POPC   GL216562  29.964  37.562   8.864
 1070POPC   C1A16563  29.959  37.695   8.564
 1070POPC   D2A16564  29.882  37.685   8.264
 1070POPC   C3A16565  29.953  37.670   7.964
 1070POPC   C4A16566  29.964  37.690   7.664
 1070POPC   C1B16567  30.043  37.442   8.564
 1070POPC   C2B16568  30.074  37.471   8.264
 1070POPC   C3B16569  30.020  37.460   7.964
 1070POPC   C4B16570  30.065  37.435   7.664
 1071POPC   NC316571  29.125   8.164   9.464
 1071POPC   PO416572  29.176   8.176   9.164
 1071POPC   GL116573  29.100   8.161   8.864
 1071POPC   GL216574  29.251   8.100   8.864
 1071POPC   C1A16575  29.106   8.202   8.564
 1071POPC   D2A16576  29.194   8.160   8.264
 1071POPC   C3A16577  29.150   8.150   7.964
 1071POPC   C4A16578  29.137   8.182   7.664
 1071POPC   C1B16579  29.249   7.995   8.564
 1071POPC   C2B16580  29.269   7.973   8.264
 1071POPC   C3B16581  29.261   8.020   7.964
 1071POPC   C4B16582  29.250   7.960   7.664
 1072POPC   NC316583   6.654  35.304   9.464
 1072POPC   PO416584   6.656  35.344   9.164
 1072POPC   GL116585   6.679  35.326   8.864
 1072POPC   GL216586   6.752  35.461   8.864
 1072POPC   C1A16587   6.595  35.382   8.564
 1072POPC   D2A16588   6.604  35.361   8.264
 1072POPC   C3A16589   6.680  35.376   7.964
 1072POPC   C4A16590   6.595  35.399   7.664
 1072POPC   C1B16591   6.814  35.573   8.564
 1072POPC   C2B16592   6.837  35.568   8.264
 1072POPC   C3B16593   6.809  35.586   7.964
 1072POPC   C4B16594   6.836  35.593   7.664
 1073POPC   NC316595  43.091  33.045   9.464
 1073POPC   PO416596  43.140  33.020   9.164
 1073POPC   GL116597  43.137  33.058   8.864
 1073POPC   GL216598  43.016  32.983   8.864
 1073POPC   C1A16599  43.083  33.052   8.564
 1073POPC   D2A16600  43.081  33.061   8.264
 1073POPC   C3A16601  43.095  32.991   7.964
 1073POPC   C4A16602  43.082  33.035   7.664
 1073POPC   C1B16603  42.897  32.848   8.564
 1073POPC   C2B16604  42.948  32.852   8.264
 1073POPC   C3B16605  42.962  32.877   7.964
 1073POPC   C4B16606  42.934  32.898   7.664
 1074POPC   NC316607  15.184   4.280   9.464
 1074POPC   PO416608  15.129   4.297   9.164
 1074POPC   GL116609  15.217   4.344   8.864
 1074POPC   GL216610  15.020   4.314   8.864
 1074POPC   C1A16611  15.165   4.310   8.564
 1074POPC   D2A16612  15.157   4.311   8.264
 1074POPC   C3A16613  15.216   4.298   7.964
 1074POPC   C4A16614  15.130   4.332   7.664
 1074POPC   C1B16615  14.973   4.270   8.564
 1074POPC   C2B16616  14.923   4.255   8.264
 1074POPC   C3B16617  14.952   4.225   7.964
 1074POPC   C4B16618  14.915   4.245   7.664
 1075POPC   NC316619  14.417  21.371   9.464
 1075POPC   PO416620  14.453  21.356   9.164
 1075POPC   GL116621  14.443  21.342   8.864
 1075POPC   GL216622  14.355  21.214   8.864
 1075POPC   C1A16623  14.415  21.358   8.564
 1075POPC   D2A16624  14.360  21.355   8.264
 1075POPC   C3A16625  14.380  21.409   7.964
 1075POPC   C4A16626  14.418  21.413   7.664
 1075POPC   C1B16627  14.353  21.141   8.564
 1075POPC   C2B16628  14.338  21.132   8.264
 1075POPC   C3B16629  14.392  21.135   7.964
 1075POPC   C4B16630  14.398  21.188   7.664
 1076POPC   NC316631  16.732  42.308   9.464
 1076POPC   PO416632  16.777  42.332   9.164
 1076POPC   GL116633  16.731  42.302   8.864
 1076POPC   GL216634  16.712  42.432   8.864
 1076POPC   C1A16635  16.705  42.311   8.564
 1076POPC   D2A16636  16.750  42.371   8.264
 1076POPC   C3A16637  16.741  42.294   7.964
 1076POPC   C4A16638  16.714  42.338   7.664
 1076POPC   C1B16639  16.693  42.603   8.564
 1076POPC   C2B16640  16.672  42.534   8.264
 1076POPC   C3B16641  16.639  42.567   7.964
 1076POPC   C4B16642  16.678  42.531   7.664
 1077POPC   NC316643  12.068  25.242   9.464
 1077POPC   PO416644  12.120  25.219   9.164
 1077POPC   GL116645  12.049  25.293   8.864
 1077POPC   GL216646  12.048  25.170   8.864
 1077POPC   C1A16647  12.050  25.252   8.564
 1077POPC   D2A16648  12.100  25.278   8.264
 1077POPC   C3A16649  12.059  25.268   7.964
 1077POPC   C4A16650  12.076  25.248   7.664
 1077POPC   C1B16651  12.040  25.026   8.564
 1077POPC   C2B16652  12.137  25.019   8.264
 1077POPC   C3B16653  12.046  25.041   7.964
 1077POPC   C4B16654  12.119  24.993   7.664
 1078POPC   NC316655   6.611  33.805   9.464
 1078POPC   PO416656   6.669  33.812   9.164
 1078POPC   GL116657   6.610  33.836   8.864
 1078POPC   GL216658   6.727  33.770   8.864
 1078POPC   C1A16659   6.654  33.845   8.564
 1078POPC   D2A16660   6.668  33.810   8.264
 1078POPC   C3A16661   6.615  33.794   7.964
 1078POPC   C4A16662   6.677  33.782   7.664
 1078POPC   C1B16663   6.863  33.700   8.564
 1078POPC   C2B16664   6.913  33.718   8.264
 1078POPC   C3B16665   6.887  33.728   7.964
 1078POPC   C4B16666   6.912  33.682   7.664
 1079POPC   NC316667  10.516  33.821   9.464
 1079POPC   PO416668  10.551  33.813   9.164
 1079POPC   GL116669  10.488  33.767   8.864
 1079POPC   GL216670  10.382  33.843   8.864
 1079POPC   C1A16671  10.573  33.802   8.564
 1079POPC   D2A16672  10.477  33.755   8.264
 1079POPC   C3A16673  10.480  33.844   7.964
 1079POPC   C4A16674  10.476  33.828   7.664
 1079POPC   C1B16675  10.292  33.778   8.564
 1079POPC   C2B16676  10.305  33.778   8.264
 1079POPC   C3B16677  10.296  33.809   7.964
 1079POPC   C4B16678  10.319  33.788   7.664
 1080POPC   NC316679  15.924  22.914   9.464
 1080POPC   PO416680  15.956  22.975   9.164
 1080POPC   GL116681  15.977  22.934   8.864
 1080POPC   GL216682  15.976  23.054   8.864
 1080POPC   C1A16683  15.970  22.915   8.564
 1080POPC   D2A16684  15.950  22.941   8.264
 1080POPC   C3A16685  15.972  22.895   7.964
 1080POPC   C4A16686  15.996  22.972   7.664
 1080POPC   C1B16687  16.000  23.199   8.564
 1080POPC   C2B16688  16.050  23.175   8.264
 1080POPC   C3B16689  15.997  23.148   7.964
 1080POPC   C4B16690  16.039  23.179   7.664
 1081POPC   NC316691  12.079  15.222   9.464
 1081POPC   PO416692  12.042  15.206   9.164
 1081POPC   GL116693  12.087  15.183   8.864
 1081POPC   GL216694  12.048  15.274   8.864
 1081POPC   C1A16695  12.106  15.218   8.564
 1081POPC   D2A16696  12.088  15.145   8.264
 1081POPC   C3A16697  12.067  15.159   7.964
 1081POPC   C4A16698  12.051  15.214   7.664
 1081POPC   C1B16699  12.052  15.409   8.564
 1081POPC   C2B16700  11.995  15.391   8.264
 1081POPC   C3B16701  12.010  15.376   7.964
 1081POPC   C4B16702  11.997  15.370   7.664
 1082POPC   NC316703  12.882  41.527   9.464
 1082POPC   PO416704  12.891  41.543   9.164
 1082POPC   GL116705  12.842  41.582   8.864
 1082POPC   GL216706  12.889  41.443   8.864
 1082POPC   C1A16707  12.845  41.539   8.564
 1082POPC   D2A16708  12.831  41.535   8.264
 1082POPC   C3A16709  12.822  41.569   7.964
 1082POPC   C4A16710  12.818  41.515   7.664
 1082POPC   C1B16711  12.977  41.312   8.564
 1082POPC   C2B16712  12.973  41.360   8.264
 1082POPC   C3B16713  12.983  41.345   7.964
 1082POPC   C4B16714  12.994  41.386   7.664
 1083POPC   NC316715  17.532  22.208   9.464
 1083POPC   PO416716  17.481  22.147   9.164
 1083POPC   GL116717  17.554  22.158   8.864
 1083POPC   GL216718  17.568  22.303   8.864
 1083POPC   C1A16719  17.535  22.133   8.564
 1083POPC   D2A16720  17.552  22.206   8.264
 1083POPC   C3A16721  17.509  22.132   7.964
 1083POPC   C4A16722  17.459  22.172   7.664
 1083POPC   C1B16723  17.637  22.307   8.564
 1083POPC   C2B16724  17.646  22.372   8.264
 1083POPC   C3B16725  17.702  22.375   7.964
 1083POPC   C4B16726  17.666  22.403   7.664
 1084POPC   NC316727  29.159  38.459   9.464
 1084POPC   PO416728  29.187  38.459   9.164
 1084POPC   GL116729  29.160  38.449   8.864
 1084POPC   GL216730  29.125  38.542   8.864
 1084POPC   C1A16731  29.164  38.429   8.564
 1084POPC   D2A16732  29.112  38.494   8.264
 1084POPC   C3A16733  29.106  38.430   7.964
 1084POPC   C4A16734  29.105  38.485   7.664
 1084POPC   C1B16735  29.072  38.697   8.564
 1084POPC   C2B16736  29.055  38.733   8.264
 1084POPC   C3B16737  29.113  38.681   7.964
 1084POPC   C4B16738  29.036  38.731   7.664
 1085POPC   NC316739   5.137  39.246   9.464
 1085POPC   PO416740   5.059  39.261   9.164
 1085POPC   GL116741   5.044  39.276   8.864
 1085POPC   GL216742   5.251  39.283   8.864
 1085POPC   C1A16743   5.091  39.193   8.564
 1085POPC   D2A16744   5.067  39.231   8.264
 1085POPC   C3A16745   5.064  39.272   7.964
 1085POPC   C4A16746   5.104  39.279   7.664
 1085POPC   C1B16747   5.388  39.218   8.564
 1085POPC   C2B16748   5.293  39.243   8.264
 1085POPC   C3B16749   5.326  39.218   7.964
 1085POPC   C4B16750   5.300  39.264   7.664
 1086POPC   NC316751   5.863   9.710   9.464
 1086POPC   PO416752   5.846   9.790   9.164
 1086POPC   GL116753   5.896   9.710   8.864
 1086POPC   GL216754   5.786   9.685   8.864
 1086POPC   C1A16755   5.877   9.735   8.564
 1086POPC   D2A16756   5.836   9.728   8.264
 1086POPC   C3A16757   5.906   9.780   7.964
 1086POPC   C4A16758   5.856   9.767   7.664
 1086POPC   C1B16759   5.671   9.645   8.564
 1086POPC   C2B16760   5.628   9.603   8.264
 1086POPC   C3B16761   5.674   9.617   7.964
 1086POPC   C4B16762   5.610   9.600   7.664
 1087POPC   NC316763  37.727   1.977   9.464
 1087POPC   PO416764  37.706   1.967   9.164
 1087POPC   GL116765  37.659   1.996   8.864
 1087POPC   GL216766  37.690   1.902   8.864
 1087POPC   C1A16767  37.688   1.942   8.564
 1087POPC   D2A16768  37.640   2.004   8.264
 1087POPC   C3A16769  37.654   1.954   7.964
 1087POPC   C4A16770  37.652   1.999   7.664
 1087POPC   C1B16771  37.661   1.748   8.564
 1087POPC   C2B16772  37.655   1.695   8.264
 1087POPC   C3B16773  37.733   1.711   7.964
 1087POPC   C4B16774  37.681   1.763   7.664
 1088POPC   NC316775  43.110  41.509   9.464
 1088POPC   PO416776  43.094  41.546   9.164
 1088POPC   GL116777  43.122  41.536   8.864
 1088POPC   GL216778  43.027  41.583   8.864
 1088POPC   C1A16779  43.149  41.565   8.564
 1088POPC   D2A16780  43.142  41.541   8.264
 1088POPC   C3A16781  43.132  41.556   7.964
 1088POPC   C4A16782  43.106  41.514   7.664
 1088POPC   C1B16783  42.859  41.741   8.564
 1088POPC   C2B16784  42.937  41.712   8.264
 1088POPC   C3B16785  42.918  41.703   7.964
 1088POPC   C4B16786  42.892  41.661   7.664
 1089POPC   NC316787  40.801  40.830   9.464
 1089POPC   PO416788  40.824  40.785   9.164
 1089POPC   GL116789  40.799  40.809   8.864
 1089POPC   GL216790  40.908  40.684   8.864
 1089POPC   C1A16791  40.738  40.749   8.564
 1089POPC   D2A16792  40.735  40.787   8.264
 1089POPC   C3A16793  40.810  40.733   7.964
 1089POPC   C4A16794  40.775  40.773   7.664
 1089POPC   C1B16795  40.918  40.552   8.564
 1089POPC   C2B16796  40.966  40.543   8.264
 1089POPC   C3B16797  40.979  40.579   7.964
 1089POPC   C4B16798  40.967  40.584   7.664
 1090POPC   NC316799  12.101  28.419   9.464
 1090POPC   PO416800  12.098  28.337   9.164
 1090POPC   GL116801  12.092  28.390   8.864
 1090POPC   GL216802  12.035  28.278   8.864
 1090POPC   C1A16803  12.050  28.399   8.564
 1090POPC   D2A16804  12.103  28.324   8.264
 1090POPC   C3A16805  12.112  28.371   7.964
 1090POPC   C4A16806  12.056  28.410   7.664
 1090POPC   C1B16807  11.915  28.141   8.564
 1090POPC   C2B16808  11.955  28.198   8.264
 1090POPC   C3B16809  11.972  28.180   7.964
 1090POPC   C4B16810  11.939  28.202   7.664
 1091POPC   NC316811  35.312   6.682   9.464
 1091POPC   PO416812  35.337   6.599   9.164
 1091POPC   GL116813  35.355   6.655   8.864
 1091POPC   GL216814  35.341   6.733   8.864
 1091POPC   C1A16815  35.401   6.660   8.564
 1091POPC   D2A16816  35.312   6.668   8.264
 1091POPC   C3A16817  35.381   6.647   7.964
 1091POPC   C4A16818  35.362   6.678   7.664
 1091POPC   C1B16819  35.284   6.849   8.564
 1091POPC   C2B16820  35.338   6.918   8.264
 1091POPC   C3B16821  35.324   6.913   7.964
 1091POPC   C4B16822  35.349   6.883   7.664
 1092POPC   NC316823  36.156  25.312   9.464
 1092POPC   PO416824  36.137  25.291   9.164
 1092POPC   GL116825  36.174  25.307   8.864
 1092POPC   GL216826  36.046  25.203   8.864
 1092POPC   C1A16827  36.109  25.268   8.564
 1092POPC   D2A16828  36.150  25.267   8.264
 1092POPC   C3A16829  36.092  25.247   7.964
 1092POPC   C4A16830  36.171  25.252   7.664
 1092POPC   C1B16831  36.008  25.039   8.564
 1092POPC   C2B16832  35.993  25.055   8.264
 1092POPC   C3B16833  35.954  25.108   7.964
 1092POPC   C4B16834  35.981  25.025   7.664
 1093POPC   NC316835  19.877  42.309   9.464
 1093POPC   PO416836  19.799  42.359   9.164
 1093POPC   GL116837  19.852  42.378   8.864
 1093POPC   GL216838  19.914  42.209   8.864
 1093POPC   C1A16839  19.789  42.361   8.564
 1093POPC   D2A16840  19.792  42.317   8.264
 1093POPC   C3A16841  19.839  42.359   7.964
 1093POPC   C4A16842  19.801  42.378   7.664
 1093POPC   C1B16843  19.952  42.093   8.564
 1093POPC   C2B16844  19.905  42.121   8.264
 1093POPC   C3B16845  19.916  42.098   7.964
 1093POPC   C4B16846  19.996  42.117   7.664
 1094POPC   NC316847   5.115  26.787   9.464
 1094POPC   PO416848   5.087  26.836   9.164
 1094POPC   GL116849   5.079  26.835   8.864
 1094POPC   GL216850   5.191  26.741   8.864
 1094POPC   C1A16851   5.084  26.844   8.564
 1094POPC   D2A16852   5.097  26.769   8.264
 1094POPC   C3A16853   5.108  26.853   7.964
 1094POPC   C4A16854   5.054  26.802   7.664
 1094POPC   C1B16855   5.339  26.774   8.564
 1094POPC   C2B16856   5.324  26.762   8.264
 1094POPC   C3B16857   5.330  26.788   7.964
 1094POPC   C4B16858   5.375  26.788   7.664
 1095POPC   NC316859  22.917  22.129   9.464
 1095POPC   PO416860  22.890  22.199   9.164
 1095POPC   GL116861  22.966  22.196   8.864
 1095POPC   GL216862  23.045  22.256   8.864
 1095POPC   C1A16863  22.900  22.120   8.564
 1095POPC   D2A16864  22.978  22.174   8.264
 1095POPC   C3A16865  22.977  22.143   7.964
 1095POPC   C4A16866  22.927  22.181   7.664
 1095POPC   C1B16867  23.151  22.354   8.564
 1095POPC   C2B16868  23.081  22.316   8.264
 1095POPC   C3B16869  23.129  22.322   7.964
 1095POPC   C4B16870  23.107  22.366   7.664
 1096POPC   NC316871  44.663  13.586   9.464
 1096POPC   PO416872  44.625  13.663   9.164
 1096POPC   GL116873  44.703  13.673   8.864
 1096POPC   GL216874  44.539  13.587   8.864
 1096POPC   C1A16875  44.665  13.630   8.564
 1096POPC   D2A16876  44.627  13.610   8.264
 1096POPC   C3A16877  44.644  13.659   7.964
 1096POPC   C4A16878  44.626  13.660   7.664
 1096POPC   C1B16879  44.442  13.608   8.564
 1096POPC   C2B16880  44.374  13.611   8.264
 1096POPC   C3B16881  44.423  13.569   7.964
 1096POPC   C4B16882  44.419  13.532   7.664
 1097POPC   NC316883   8.200  19.067   9.464
 1097POPC   PO416884   8.210  19.082   9.164
 1097POPC   GL116885   8.153  19.039   8.864
 1097POPC   GL216886   8.288  18.973   8.864
 1097POPC   C1A16887   8.196  19.011   8.564
 1097POPC   D2A16888   8.211  19.099   8.264
 1097POPC   C3A16889   8.207  19.017   7.964
 1097POPC   C4A16890   8.236  19.032   7.664
 1097POPC   C1B16891   8.304  18.881   8.564
 1097POPC   C2B16892   8.322  18.833   8.264
 1097POPC   C3B16893   8.364  18.897   7.964
 1097POPC   C4B16894   8.337  18.810   7.664
 1098POPC   NC316895  19.883  22.962   9.464
 1098POPC   PO416896  19.842  22.963   9.164
 1098POPC   GL116897  19.868  22.928   8.864
 1098POPC   GL216898  19.692  22.921   8.864
 1098POPC   C1A16899  19.879  22.937   8.564
 1098POPC   D2A16900  19.817  22.917   8.264
 1098POPC   C3A16901  19.826  22.903   7.964
 1098POPC   C4A16902  19.849  22.941   7.664
 1098POPC   C1B16903  19.620  22.901   8.564
 1098POPC   C2B16904  19.634  22.891   8.264
 1098POPC   C3B16905  19.642  22.853   7.964
 1098POPC   C4B16906  19.630  22.884   7.664
 1099POPC   NC316907  21.343  37.658   9.464
 1099POPC   PO416908  21.419  37.697   9.164
 1099POPC   GL116909  21.353  37.725   8.864
 1099POPC   GL216910  21.311  37.602   8.864
 1099POPC   C1A16911  21.376  37.728   8.564
 1099POPC   D2A16912  21.354  37.701   8.264
 1099POPC   C3A16913  21.369  37.696   7.964
 1099POPC   C4A16914  21.394  37.644   7.664
 1099POPC   C1B16915  21.191  37.571   8.564
 1099POPC   C2B16916  21.118  37.562   8.264
 1099POPC   C3B16917  21.198  37.524   7.964
 1099POPC   C4B16918  21.165  37.585   7.664
 1100POPC   NC316919  43.918   1.960   9.464
 1100POPC   PO416920  43.873   1.953   9.164
 1100POPC   GL116921  43.859   1.994   8.864
 1100POPC   GL216922  43.849   1.908   8.864
 1100POPC   C1A16923  43.840   2.014   8.564
 1100POPC   D2A16924  43.891   1.987   8.264
 1100POPC   C3A16925  43.932   2.032   7.964
 1100POPC   C4A16926  43.837   2.003   7.664
 1100POPC   C1B16927  43.791   1.739   8.564
 1100POPC   C2B16928  43.781   1.817   8.264
 1100POPC   C3B16929  43.760   1.736   7.964
 1100POPC   C4B16930  43.759   1.794   7.664
 1101POPC   NC316931  13.662   8.931   9.464
 1101POPC   PO416932  13.588   9.016   9.164
 1101POPC   GL116933  13.642   9.019   8.864
 1101POPC   GL216934  13.456   8.959   8.864
 1101POPC   C1A16935  13.672   8.947   8.564
 1101POPC   D2A16936  13.601   8.927   8.264
 1101POPC   C3A16937  13.615   8.994   7.964
 1101POPC   C4A16938  13.621   8.987   7.664
 1101POPC   C1B16939  13.398   8.923   8.564
 1101POPC   C2B16940  13.402   8.929   8.264
 1101POPC   C3B16941  13.388   8.926   7.964
 1101POPC   C4B16942  13.418   8.996   7.664
 1102POPC   NC316943  41.585   1.200   9.464
 1102POPC   PO416944  41.581   1.254   9.164
 1102POPC   GL116945  41.549   1.195   8.864
 1102POPC   GL216946  41.696   1.240   8.864
 1102POPC   C1A16947  41.534   1.247   8.564
 1102POPC   D2A16948  41.605   1.251   8.264
 1102POPC   C3A16949  41.547   1.195   7.964
 1102POPC   C4A16950  41.577   1.228   7.664
 1102POPC   C1B16951  41.835   1.125   8.564
 1102POPC   C2B16952  41.765   1.169   8.264
 1102POPC   C3B16953  41.795   1.202   7.964
 1102POPC   C4B16954  41.798   1.122   7.664
 1103POPC   NC316955   4.275  12.082   9.464
 1103POPC   PO416956   4.276  12.074   9.164
 1103POPC   GL116957   4.332  12.125   8.864
 1103POPC   GL216958   4.242  11.975   8.864
 1103POPC   C1A16959   4.357  12.057   8.564
 1103POPC   D2A16960   4.348  12.051   8.264
 1103POPC   C3A16961   4.327  12.029   7.964
 1103POPC   C4A16962   4.364  12.100   7.664
 1103POPC   C1B16963   4.192  11.885   8.564
 1103POPC   C2B16964   4.234  11.829   8.264
 1103POPC   C3B16965   4.178  11.856   7.964
 1103POPC   C4B16966   4.198  11.879   7.664
 1104POPC   NC316967  17.478  23.664   9.464
 1104POPC   PO416968  17.497  23.706   9.164
 1104POPC   GL116969  17.520  23.763   8.864
 1104POPC   GL216970  17.420  23.630   8.864
 1104POPC   C1A16971  17.495  23.693   8.564
 1104POPC   D2A16972  17.534  23.686   8.264
 1104POPC   C3A16973  17.465  23.676   7.964
 1104POPC   C4A16974  17.546  23.739   7.664
 1104POPC   C1B16975  17.391  23.464   8.564
 1104POPC   C2B16976  17.397  23.556   8.264
 1104POPC   C3B16977  17.325  23.498   7.964
 1104POPC   C4B16978  17.372  23.465   7.664
 1105POPC   NC316979  11.288   9.000   9.464
 1105POPC   PO416980  11.256   8.926   9.164
 1105POPC   GL116981  11.268   9.018   8.864
 1105POPC   GL216982  11.275   8.888   8.864
 1105POPC   C1A16983  11.287   9.000   8.564
 1105POPC   D2A16984  11.335   8.941   8.264
 1105POPC   C3A16985  11.278   8.952   7.964
 1105POPC   C4A16986  11.292   8.928   7.664
 1105POPC   C1B16987  11.227   8.721   8.564
 1105POPC   C2B16988  11.268   8.677   8.264
 1105POPC   C3B16989  11.283   8.719   7.964
 1105POPC   C4B16990  11.287   8.754   7.664
 1106POPC   NC316991  43.934  37.683   9.464
 1106POPC   PO416992  43.860  37.693   9.164
 1106POPC   GL116993  43.933  37.675   8.864
 1106POPC   GL216994  43.947  37.829   8.864
 1106POPC   C1A16995  43.841  37.630   8.564
 1106POPC   D2A16996  43.848  37.657   8.264
 1106POPC   C3A16997  43.844  37.650   7.964
 1106POPC   C4A16998  43.922  37.637   7.664
 1106POPC   C1B16999  43.965  37.956   8.564
 1106POPC   C2B17000  43.887  37.912   8.264
 1106POPC   C3B17001  43.888  37.890   7.964
 1106POPC   C4B17002  43.956  37.878   7.664
 1107POPC   NC317003  40.055  26.782   9.464
 1107POPC   PO417004  40.037  26.862   9.164
 1107POPC   GL117005  39.966  26.821   8.864
 1107POPC   GL217006  39.930  26.764   8.864
 1107POPC   C1A17007  39.964  26.821   8.564
 1107POPC   D2A17008  39.969  26.848   8.264
 1107POPC   C3A17009  39.963  26.809   7.964
 1107POPC   C4A17010  40.016  26.865   7.664
 1107POPC   C1B17011  39.823  26.599   8.564
 1107POPC   C2B17012  39.842  26.636   8.264
 1107POPC   C3B17013  39.842  26.650   7.964
 1107POPC   C4B17014  39.859  26.591   7.664
 1108POPC   NC317015  28.335  39.196   9.464
 1108POPC   PO417016  28.363  39.274   9.164
 1108POPC   GL117017  28.413  39.255   8.864
 1108POPC   GL217018  28.247  39.347   8.864
 1108POPC   C1A17019  28.407  39.262   8.564
 1108POPC   D2A17020  28.381  39.229   8.264
 1108POPC   C3A17021  28.335  39.260   7.964
 1108POPC   C4A17022  28.344  39.273   7.664
 1108POPC   C1B17023  28.181  39.474   8.564
 1108POPC   C2B17024  28.249  39.413   8.264
 1108POPC   C3B17025  28.184  39.424   7.964
 1108POPC   C4B17026  28.173  39.423   7.664
 1109POPC   NC317027  22.168  36.078   9.464
 1109POPC   PO417028  22.132  36.118   9.164
 1109POPC   GL117029  22.193  36.087   8.864
 1109POPC   GL217030  21.998  36.117   8.864
 1109POPC   C1A17031  22.134  36.095   8.564
 1109POPC   D2A17032  22.150  36.122   8.264
 1109POPC   C3A17033  22.137  36.105   7.964
 1109POPC   C4A17034  22.200  36.151   7.664
 1109POPC   C1B17035  21.911  36.089   8.564
 1109POPC   C2B17036  21.945  36.090   8.264
 1109POPC   C3B17037  21.906  36.137   7.964
 1109POPC   C4B17038  21.919  36.159   7.664
 1110POPC   NC317039  20.594  18.292   9.464
 1110POPC   PO417040  20.649  18.261   9.164
 1110POPC   GL117041  20.626  18.284   8.864
 1110POPC   GL217042  20.533  18.384   8.864
 1110POPC   C1A17043  20.583  18.305   8.564
 1110POPC   D2A17044  20.648  18.270   8.264
 1110POPC   C3A17045  20.634  18.312   7.964
 1110POPC   C4A17046  20.660  18.282   7.664
 1110POPC   C1B17047  20.431  18.454   8.564
 1110POPC   C2B17048  20.387  18.479   8.264
 1110POPC   C3B17049  20.374  18.390   7.964
 1110POPC   C4B17050  20.444  18.432   7.664
 1111POPC   NC317051  40.799  36.905   9.464
 1111POPC   PO417052  40.748  36.910   9.164
 1111POPC   GL117053  40.803  36.872   8.864
 1111POPC   GL217054  40.856  36.950   8.864
 1111POPC   C1A17055  40.806  36.922   8.564
 1111POPC   D2A17056  40.737  36.951   8.264
 1111POPC   C3A17057  40.770  36.893   7.964
 1111POPC   C4A17058  40.814  36.947   7.664
 1111POPC   C1B17059  40.942  36.995   8.564
 1111POPC   C2B17060  41.033  37.001   8.264
 1111POPC   C3B17061  41.029  37.078   7.964
 1111POPC   C4B17062  40.977  37.045   7.664
 1112POPC   NC317063  40.785  18.270   9.464
 1112POPC   PO417064  40.810  18.239   9.164
 1112POPC   GL117065  40.776  18.290   8.864
 1112POPC   GL217066  40.727  18.448   8.864
 1112POPC   C1A17067  40.781  18.315   8.564
 1112POPC   D2A17068  40.790  18.287   8.264
 1112POPC   C3A17069  40.773  18.262   7.964
 1112POPC   C4A17070  40.765  18.324   7.664
 1112POPC   C1B17071  40.708  18.505   8.564
 1112POPC   C2B17072  40.787  18.491   8.264
 1112POPC   C3B17073  40.792  18.560   7.964
 1112POPC   C4B17074  40.707  18.520   7.664
 1113POPC   NC317075   6.632  26.017   9.464
 1113POPC   PO417076   6.618  26.010   9.164
 1113POPC   GL117077   6.601  26.046   8.864
 1113POPC   GL217078   6.591  26.123   8.864
 1113POPC   C1A17079   6.660  26.012   8.564
 1113POPC   D2A17080   6.621  26.080   8.264
 1113POPC   C3A17081   6.626  26.075   7.964
 1113POPC   C4A17082   6.661  26.083   7.664
 1113POPC   C1B17083   6.580  26.324   8.564
 1113POPC   C2B17084   6.548  26.305   8.264
 1113POPC   C3B17085   6.562  26.288   7.964
 1113POPC   C4B17086   6.558  26.309   7.664
 1114POPC   NC317087  39.206  36.948   9.464
 1114POPC   PO417088  39.210  36.907   9.164
 1114POPC   GL117089  39.257  36.864   8.864
 1114POPC   GL217090  39.236  36.799   8.864
 1114POPC   C1A17091  39.184  36.860   8.564
 1114POPC   D2A17092  39.267  36.903   8.264
 1114POPC   C3A17093  39.248  36.899   7.964
 1114POPC   C4A17094  39.237  36.908   7.664
 1114POPC   C1B17095  39.229  36.660   8.564
 1114POPC   C2B17096  39.292  36.620   8.264
 1114POPC   C3B17097  39.306  36.665   7.964
 1114POPC   C4B17098  39.296  36.666   7.664
 1115POPC   NC317099   9.732   9.793   9.464
 1115POPC   PO417100   9.717   9.706   9.164
 1115POPC   GL117101   9.740   9.775   8.864
 1115POPC   GL217102   9.577   9.756   8.864
 1115POPC   C1A17103   9.775   9.726   8.564
 1115POPC   D2A17104   9.737   9.702   8.264
 1115POPC   C3A17105   9.770   9.767   7.964
 1115POPC   C4A17106   9.715   9.752   7.664
 1115POPC   C1B17107   9.512   9.776   8.564
 1115POPC   C2B17108   9.506   9.824   8.264
 1115POPC   C3B17109   9.484   9.824   7.964
 1115POPC   C4B17110   9.517   9.778   7.664
 1116POPC   NC317111  36.144  32.998   9.464
 1116POPC   PO417112  36.093  33.010   9.164
 1116POPC   GL117113  36.104  33.045   8.864
 1116POPC   GL217114  36.104  33.192   8.864
 1116POPC   C1A17115  36.146  32.974   8.564
 1116POPC   D2A17116  36.156  32.995   8.264
 1116POPC   C3A17117  36.121  32.982   7.964
 1116POPC   C4A17118  36.164  33.009   7.664
 1116POPC   C1B17119  36.125  33.224   8.564
 1116POPC   C2B17120  36.138  33.239   8.264
 1116POPC   C3B17121  36.194  33.273   7.964
 1116POPC   C4B17122  36.191  33.293   7.664
 1117POPC   NC317123  15.921   1.992   9.464
 1117POPC   PO417124  15.938   1.975   9.164
 1117POPC   GL117125  15.919   1.966   8.864
 1117POPC   GL217126  15.994   2.132   8.864
 1117POPC   C1A17127  15.928   2.030   8.564
 1117POPC   D2A17128  15.925   2.027   8.264
 1117POPC   C3A17129  15.945   1.998   7.964
 1117POPC   C4A17130  15.911   1.950   7.664
 1117POPC   C1B17131  15.983   2.274   8.564
 1117POPC   C2B17132  15.974   2.248   8.264
 1117POPC   C3B17133  15.965   2.220   7.964
 1117POPC   C4B17134  15.969   2.229   7.664
 1118POPC   NC317135  21.404  19.864   9.464
 1118POPC   PO417136  21.348  19.830   9.164
 1118POPC   GL117137  21.391  19.819   8.864
 1118POPC   GL217138  21.387  19.974   8.864
 1118POPC   C1A17139  21.374  19.858   8.564
 1118POPC   D2A17140  21.346  19.823   8.264
 1118POPC   C3A17141  21.390  19.797   7.964
 1118POPC   C4A17142  21.426  19.848   7.664
 1118POPC   C1B17143  21.276  20.028   8.564
 1118POPC   C2B17144  21.292  20.094   8.264
 1118POPC   C3B17145  21.339  20.074   7.964
 1118POPC   C4B17146  21.342  20.106   7.664
 1119POPC   NC317147  34.619   0.462   9.464
 1119POPC   PO417148  34.535   0.467   9.164
 1119POPC   GL117149  34.538   0.419   8.864
 1119POPC   GL217150  34.627   0.497   8.864
 1119POPC   C1A17151  34.607   0.441   8.564
 1119POPC   D2A17152  34.589   0.473   8.264
 1119POPC   C3A17153  34.543   0.463   7.964
 1119POPC   C4A17154  34.560   0.450   7.664
 1119POPC   C1B17155  34.742   0.633   8.564
 1119POPC   C2B17156  34.760   0.607   8.264
 1119POPC   C3B17157  34.761   0.584   7.964
 1119POPC   C4B17158  34.715   0.583   7.664
 1120POPC   NC317159  39.262  40.015   9.464
 1120POPC   PO417160  39.224  39.961   9.164
 1120POPC   GL117161  39.270  39.968   8.864
 1120POPC   GL217162  39.254  40.131   8.864
 1120POPC   C1A17163  39.259  40.019   8.564
 1120POPC   D2A17164  39.281  39.971   8.264
 1120POPC   C3A17165  39.240  39.961   7.964
 1120POPC   C4A17166  39.263  40.021   7.664
 1120POPC   C1B17167  39.276  40.297   8.564
 1120POPC   C2B17168  39.258  40.201   8.264
 1120POPC   C3B17169  39.288  40.251   7.964
 1120POPC   C4B17170  39.275  40.222   7.664
 1121POPC   NC317171  28.373   7.470   9.464
 1121POPC   PO417172  28.409   7.420   9.164
 1121POPC   GL117173  28.384   7.414   8.864
 1121POPC   GL217174  28.424   7.568   8.864
 1121POPC   C1A17175  28.371   7.450   8.564
 1121POPC   D2A17176  28.365   7.461   8.264
 1121POPC   C3A17177  28.347   7.462   7.964
 1121POPC   C4A17178  28.378   7.421   7.664
 1121POPC   C1B17179  28.438   7.682   8.564
 1121POPC   C2B17180  28.457   7.663   8.264
 1121POPC   C3B17181  28.464   7.633   7.964
 1121POPC   C4B17182  28.431   7.703   7.664
 1122POPC   NC317183  11.334  15.974   9.464
 1122POPC   PO417184  11.281  15.987   9.164
 1122POPC   GL117185  11.252  15.936   8.864
 1122POPC   GL217186  11.453  15.993   8.864
 1122POPC   C1A17187  11.286  15.934   8.564
 1122POPC   D2A17188  11.258  16.004   8.264
 1122POPC   C3A17189  11.307  15.912   7.964
 1122POPC   C4A17190  11.299  15.944   7.664
 1122POPC   C1B17191  11.565  16.003   8.564
 1122POPC   C2B17192  11.540  15.986   8.264
 1122POPC   C3B17193  11.510  15.992   7.964
 1122POPC   C4B17194  11.520  16.062   7.664
 1123POPC   NC317195   8.209  38.456   9.464
 1123POPC   PO417196   8.151  38.486   9.164
 1123POPC   GL117197   8.185  38.443   8.864
 1123POPC   GL217198   8.285  38.402   8.864
 1123POPC   C1A17199   8.175  38.505   8.564
 1123POPC   D2A17200   8.241  38.417   8.264
 1123POPC   C3A17201   8.179  38.503   7.964
 1123POPC   C4A17202   8.151  38.457   7.664
 1123POPC   C1B17203   8.458  38.458   8.564
 1123POPC   C2B17204   8.429  38.464   8.264
 1123POPC   C3B17205   8.403  38.399   7.964
 1123POPC   C4B17206   8.454  38.407   7.664
 1124POPC   NC317207  43.098  36.155   9.464
 1124POPC   PO417208  43.095  36.120   9.164
 1124POPC   GL117209  43.128  36.173   8.864
 1124POPC   GL217210  43.182  36.108   8.864
 1124POPC   C1A17211  43.075  36.093   8.564
 1124POPC   D2A17212  43.077  36.119   8.264
 1124POPC   C3A17213  43.063  36.173   7.964
 1124POPC   C4A17214  43.138  36.166   7.664
 1124POPC   C1B17215  43.394  36.058   8.564
 1124POPC   C2B17216  43.346  36.081   8.264
 1124POPC   C3B17217  43.339  36.006   7.964
 1124POPC   C4B17218  43.364  36.041   7.664
 1125POPC   NC317219  43.916  19.820   9.464
 1125POPC   PO417220  43.921  19.798   9.164
 1125POPC   GL117221  43.875  19.834   8.864
 1125POPC   GL217222  43.810  19.877   8.864
 1125POPC   C1A17223  43.887  19.879   8.564
 1125POPC   D2A17224  43.935  19.789   8.264
 1125POPC   C3A17225  43.897  19.854   7.964
 1125POPC   C4A17226  43.932  19.791   7.664
 1125POPC   C1B17227  43.684  19.930   8.564
 1125POPC   C2B17228  43.654  19.984   8.264
 1125POPC   C3B17229  43.650  19.953   7.964
 1125POPC   C4B17230  43.701  19.984   7.664
 1126POPC   NC317231  14.433   2.752   9.464
 1126POPC   PO417232  14.381   2.788   9.164
 1126POPC   GL117233  14.367   2.757   8.864
 1126POPC   GL217234  14.548   2.760   8.864
 1126POPC   C1A17235  14.362   2.717   8.564
 1126POPC   D2A17236  14.381   2.716   8.264
 1126POPC   C3A17237  14.447   2.722   7.964
 1126POPC   C4A17238  14.370   2.730   7.664
 1126POPC   C1B17239  14.637   2.828   8.564
 1126POPC   C2B17240  14.651   2.851   8.264
 1126POPC   C3B17241  14.662   2.807   7.964
 1126POPC   C4B17242  14.613   2.851   7.664
 1127POPC   NC317243  42.363  38.470   9.464
 1127POPC   PO417244  42.352  38.462   9.164
 1127POPC   GL117245  42.328  38.496   8.864
 1127POPC   GL217246  42.429  38.509   8.864
 1127POPC   C1A17247  42.320  38.438   8.564
 1127POPC   D2A17248  42.288  38.493   8.264
 1127POPC   C3A17249  42.302  38.440   7.964
 1127POPC   C4A17250  42.359  38.422   7.664
 1127POPC   C1B17251  42.457  38.610   8.564
 1127POPC   C2B17252  42.504  38.618   8.264
 1127POPC   C3B17253  42.512  38.658   7.964
 1127POPC   C4B17254  42.442  38.702   7.664
 1128POPC   NC317255   2.017   4.338   9.464
 1128POPC   PO417256   1.959   4.270   9.164
 1128POPC   GL117257   2.025   4.341   8.864
 1128POPC   GL217258   1.909   4.225   8.864
 1128POPC   C1A17259   2.006   4.306   8.564
 1128POPC   D2A17260   1.962   4.359   8.264
 1128POPC   C3A17261   2.018   4.317   7.964
 1128POPC   C4A17262   1.982   4.360   7.664
 1128POPC   C1B17263   1.853   4.152   8.564
 1128POPC   C2B17264   1.876   4.103   8.264
 1128POPC   C3B17265   1.836   4.075   7.964
 1128POPC   C4B17266   1.850   4.114   7.664
 1129POPC   NC317267  13.656  20.595   9.464
 1129POPC   PO417268  13.611  20.572   9.164
 1129POPC   GL117269  13.635  20.573   8.864
 1129POPC   GL217270  13.464  20.602   8.864
 1129POPC   C1A17271  13.636  20.566   8.564
 1129POPC   D2A17272  13.581  20.579   8.264
 1129POPC   C3A17273  13.646  20.564   7.964
 1129POPC   C4A17274  13.588  20.576   7.664
 1129POPC   C1B17275  13.369  20.643   8.564
 1129POPC   C2B17276  13.382  20.607   8.264
 1129POPC   C3B17277  13.375  20.588   7.964
 1129POPC   C4B17278  13.405  20.648   7.664
 1130POPC   NC317279  26.767  24.508   9.464
 1130POPC   PO417280  26.794  24.460   9.164
 1130POPC   GL117281  26.814  24.474   8.864
 1130POPC   GL217282  26.761  24.413   8.864
 1130POPC   C1A17283  26.836  24.512   8.564
 1130POPC   D2A17284  26.795  24.451   8.264
 1130POPC   C3A17285  26.790  24.455   7.964
 1130POPC   C4A17286  26.776  24.457   7.664
 1130POPC   C1B17287  26.766  24.288   8.564
 1130POPC   C2B17288  26.732  24.238   8.264
 1130POPC   C3B17289  26.755  24.222   7.964
 1130POPC   C4B17290  26.708  24.294   7.664
 1131POPC   NC317291  27.604   7.435   9.464
 1131POPC   PO417292  27.549   7.453   9.164
 1131POPC   GL117293  27.623   7.433   8.864
 1131POPC   GL217294  27.727   7.461   8.864
 1131POPC   C1A17295  27.635   7.439   8.564
 1131POPC   D2A17296  27.586   7.419   8.264
 1131POPC   C3A17297  27.562   7.453   7.964
 1131POPC   C4A17298  27.592   7.429   7.664
 1131POPC   C1B17299  27.865   7.418   8.564
 1131POPC   C2B17300  27.859   7.447   8.264
 1131POPC   C3B17301  27.847   7.404   7.964
 1131POPC   C4B17302  27.809   7.466   7.664
 1132POPC   NC317303  35.338  11.329   9.464
 1132POPC   PO417304  35.327  11.302   9.164
 1132POPC   GL117305  35.348  11.280   8.864
 1132POPC   GL217306  35.486  11.403   8.864
 1132POPC   C1A17307  35.367  11.269   8.564
 1132POPC   D2A17308  35.328  11.342   8.264
 1132POPC   C3A17309  35.396  11.332   7.964
 1132POPC   C4A17310  35.357  11.266   7.664
 1132POPC   C1B17311  35.589  11.485   8.564
 1132POPC   C2B17312  35.542  11.473   8.264
 1132POPC   C3B17313  35.537  11.405   7.964
 1132POPC   C4B17314  35.564  11.487   7.664
 1133POPC   NC317315  15.140  39.235   9.464
 1133POPC   PO417316  15.191  39.239   9.164
 1133POPC   GL117317  15.168  39.223   8.864
 1133POPC   GL217318  15.224  39.116   8.864
 1133POPC   C1A17319  15.174  39.191   8.564
 1133POPC   D2A17320  15.210  39.221   8.264
 1133POPC   C3A17321  15.199  39.185   7.964
 1133POPC   C4A17322  15.178  39.203   7.664
 1133POPC   C1B17323  15.337  39.075   8.564
 1133POPC   C2B17324  15.369  39.022   8.264
 1133POPC   C3B17325  15.366  38.997   7.964
 1133POPC   C4B17326  15.303  39.077   7.664
 1134POPC   NC317327  42.335  20.625   9.464
 1134POPC   PO417328  42.320  20.606   9.164
 1134POPC   GL117329  42.345  20.589   8.864
 1134POPC   GL217330  42.330  20.458   8.864
 1134POPC   C1A17331  42.334  20.660   8.564
 1134POPC   D2A17332  42.312  20.634   8.264
 1134POPC   C3A17333  42.380  20.584   7.964
 1134POPC   C4A17334  42.330  20.564   7.664
 1134POPC   C1B17335  42.234  20.388   8.564
 1134POPC   C2B17336  42.241  20.328   8.264
 1134POPC   C3B17337  42.312  20.410   7.964
 1134POPC   C4B17338  42.236  20.387   7.664
 1135POPC   NC317339  28.396  25.219   9.464
 1135POPC   PO417340  28.384  25.240   9.164
 1135POPC   GL117341  28.402  25.236   8.864
 1135POPC   GL217342  28.359  25.118   8.864
 1135POPC   C1A17343  28.368  25.255   8.564
 1135POPC   D2A17344  28.371  25.296   8.264
 1135POPC   C3A17345  28.389  25.291   7.964
 1135POPC   C4A17346  28.332  25.241   7.664
 1135POPC   C1B17347  28.431  24.975   8.564
 1135POPC   C2B17348  28.451  24.984   8.264
 1135POPC   C3B17349  28.439  25.063   7.964
 1135POPC   C4B17350  28.453  25.055   7.664
 1136POPC   NC317351  40.026  35.390   9.464
 1136POPC   PO417352  39.984  35.307   9.164
 1136POPC   GL117353  40.036  35.306   8.864
 1136POPC   GL217354  40.072  35.433   8.864
 1136POPC   C1A17355  40.003  35.302   8.564
 1136POPC   D2A17356  39.961  35.308   8.264
 1136POPC   C3A17357  40.007  35.370   7.964
 1136POPC   C4A17358  40.025  35.348   7.664
 1136POPC   C1B17359  40.227  35.529   8.564
 1136POPC   C2B17360  40.140  35.551   8.264
 1136POPC   C3B17361  40.210  35.566   7.964
 1136POPC   C4B17362  40.166  35.556   7.664
 1137POPC   NC317363  23.717  43.856   9.464
 1137POPC   PO417364  23.686  43.843   9.164
 1137POPC   GL117365  23.700  43.909   8.864
 1137POPC   GL217366  23.690  43.721   8.864
 1137POPC   C1A17367  23.713  43.878   8.564
 1137POPC   D2A17368  23.672  43.903   8.264
 1137POPC   C3A17369  23.696  43.904   7.964
 1137POPC   C4A17370  23.679  43.885   7.664
 1137POPC   C1B17371  23.677  43.661   8.564
 1137POPC   C2B17372  23.698  43.604   8.264
 1137POPC   C3B17373  23.665  43.642   7.964
 1137POPC   C4B17374  23.705  43.643   7.664
 1138POPC   NC317375   6.654  36.925   9.464
 1138POPC   PO417376   6.619  36.897   9.164
 1138POPC   GL117377   6.694  36.859   8.864
 1138POPC   GL217378   6.740  36.998   8.864
 1138POPC   C1A17379   6.660  36.933   8.564
 1138POPC   D2A17380   6.602  36.921   8.264
 1138POPC   C3A17381   6.684  36.896   7.964
 1138POPC   C4A17382   6.656  36.885   7.664
 1138POPC   C1B17383   6.878  37.028   8.564
 1138POPC   C2B17384   6.840  37.099   8.264
 1138POPC   C3B17385   6.819  37.098   7.964
 1138POPC   C4B17386   6.876  37.039   7.664
 1139POPC   NC317387   5.043   7.379   9.464
 1139POPC   PO417388   5.048   7.381   9.164
 1139POPC   GL117389   5.047   7.460   8.864
 1139POPC   GL217390   5.185   7.502   8.864
 1139POPC   C1A17391   5.123   7.450   8.564
 1139POPC   D2A17392   5.099   7.396   8.264
 1139POPC   C3A17393   5.054   7.456   7.964
 1139POPC   C4A17394   5.105   7.389   7.664
 1139POPC   C1B17395   5.193   7.599   8.564
 1139POPC   C2B17396   5.187   7.604   8.264
 1139POPC   C3B17397   5.191   7.661   7.964
 1139POPC   C4B17398   5.275   7.606   7.664
 1140POPC   NC317399  12.884   2.763   9.464
 1140POPC   PO417400  12.803   2.808   9.164
 1140POPC   GL117401  12.831   2.741   8.864
 1140POPC   GL217402  12.698   2.749   8.864
 1140POPC   C1A17403  12.888   2.732   8.564
 1140POPC   D2A17404  12.881   2.809   8.264
 1140POPC   C3A17405  12.867   2.780   7.964
 1140POPC   C4A17406  12.803   2.798   7.664
 1140POPC   C1B17407  12.649   2.746   8.564
 1140POPC   C2B17408  12.597   2.744   8.264
 1140POPC   C3B17409  12.586   2.733   7.964
 1140POPC   C4B17410  12.636   2.739   7.664
 1141POPC   NC317411  27.554  10.502   9.464
 1141POPC   PO417412  27.637  10.490   9.164
 1141POPC   GL117413  27.609  10.524   8.864
 1141POPC   GL217414  27.441  10.517   8.864
 1141POPC   C1A17415  27.628  10.503   8.564
 1141POPC   D2A17416  27.627  10.500   8.264
 1141POPC   C3A17417  27.552  10.510   7.964
 1141POPC   C4A17418  27.549  10.513   7.664
 1141POPC   C1B17419  27.388  10.460   8.564
 1141POPC   C2B17420  27.346  10.514   8.264
 1141POPC   C3B17421  27.339  10.451   7.964
 1141POPC   C4B17422  27.341  10.456   7.664
 1142POPC   NC317423  21.379  30.679   9.464
 1142POPC   PO417424  21.353  30.658   9.164
 1142POPC   GL117425  21.389  30.652   8.864
 1142POPC   GL217426  21.417  30.851   8.864
 1142POPC   C1A17427  21.395  30.678   8.564
 1142POPC   D2A17428  21.408  30.715   8.264
 1142POPC   C3A17429  21.427  30.679   7.964
 1142POPC   C4A17430  21.339  30.728   7.664
 1142POPC   C1B17431  21.418  30.940   8.564
 1142POPC   C2B17432  21.368  30.898   8.264
 1142POPC   C3B17433  21.357  30.950   7.964
 1142POPC   C4B17434  21.372  30.926   7.664
 1143POPC   NC317435   2.014  11.337   9.464
 1143POPC   PO417436   1.958  11.268   9.164
 1143POPC   GL117437   1.950  11.342   8.864
 1143POPC   GL217438   2.139  11.287   8.864
 1143POPC   C1A17439   1.961  11.282   8.564
 1143POPC   D2A17440   1.953  11.349   8.264
 1143POPC   C3A17441   1.968  11.329   7.964
 1143POPC   C4A17442   2.035  11.310   7.664
 1143POPC   C1B17443   2.225  11.329   8.564
 1143POPC   C2B17444   2.287  11.329   8.264
 1143POPC   C3B17445   2.278  11.306   7.964
 1143POPC   C4B17446   2.214  11.300   7.664
 1144POPC   NC317447  19.048  41.564   9.464
 1144POPC   PO417448  19.054  41.540   9.164
 1144POPC   GL117449  19.054  41.530   8.864
 1144POPC   GL217450  19.082  41.456   8.864
 1144POPC   C1A17451  19.037  41.582   8.564
 1144POPC   D2A17452  19.092  41.584   8.264
 1144POPC   C3A17453  19.047  41.588   7.964
 1144POPC   C4A17454  19.087  41.527   7.664
 1144POPC   C1B17455  19.067  41.267   8.564
 1144POPC   C2B17456  19.039  41.296   8.264
 1144POPC   C3B17457  19.075  41.268   7.964
 1144POPC   C4B17458  19.051  41.329   7.664
 1145POPC   NC317459  32.235  12.088   9.464
 1145POPC   PO417460  32.207  12.109   9.164
 1145POPC   GL117461  32.218  12.050   8.864
 1145POPC   GL217462  32.315  12.088   8.864
 1145POPC   C1A17463  32.215  12.118   8.564
 1145POPC   D2A17464  32.226  12.050   8.264
 1145POPC   C3A17465  32.239  12.041   7.964
 1145POPC   C4A17466  32.203  12.030   7.664
 1145POPC   C1B17467  32.495  12.200   8.564
 1145POPC   C2B17468  32.480  12.216   8.264
 1145POPC   C3B17469  32.439  12.228   7.964
 1145POPC   C4B17470  32.440  12.182   7.664
 1146POPC   NC317471  22.899  43.143   9.464
 1146POPC   PO417472  22.967  43.072   9.164
 1146POPC   GL117473  22.973  43.127   8.864
 1146POPC   GL217474  22.817  43.184   8.864
 1146POPC   C1A17475  22.908  43.113   8.564
 1146POPC   D2A17476  22.913  43.153   8.264
 1146POPC   C3A17477  22.982  43.068   7.964
 1146POPC   C4A17478  22.970  43.081   7.664
 1146POPC   C1B17479  22.753  43.244   8.564
 1146POPC   C2B17480  22.785  43.258   8.264
 1146POPC   C3B17481  22.729  43.285   7.964
 1146POPC   C4B17482  22.739  43.288   7.664
 1147POPC   NC317483   0.396  15.214   9.464
 1147POPC   PO417484   0.471  15.188   9.164
 1147POPC   GL117485   0.403  15.197   8.864
 1147POPC   GL217486   0.541  15.218   8.864
 1147POPC   C1A17487   0.428  15.196   8.564
 1147POPC   D2A17488   0.434  15.130   8.264
 1147POPC   C3A17489   0.402  15.218   7.964
 1147POPC   C4A17490   0.483  15.137   7.664
 1147POPC   C1B17491   0.672  15.190   8.564
 1147POPC   C2B17492   0.663  15.167   8.264
 1147POPC   C3B17493   0.694  15.198   7.964
 1147POPC   C4B17494   0.686  15.188   7.664
 1148POPC   NC317495  23.723  18.259   9.464
 1148POPC   PO417496  23.759  18.331   9.164
 1148POPC   GL117497  23.707  18.257   8.864
 1148POPC   GL217498  23.676  18.339   8.864
 1148POPC   C1A17499  23.750  18.237   8.564
 1148POPC   D2A17500  23.708  18.274   8.264
 1148POPC   C3A17501  23.670  18.280   7.964
 1148POPC   C4A17502  23.716  18.293   7.664
 1148POPC   C1B17503  23.600  18.465   8.564
 1148POPC   C2B17504  23.593  18.447   8.264
 1148POPC   C3B17505  23.546  18.496   7.964
 1148POPC   C4B17506  23.545  18.501   7.664
 1149POPC   NC317507   1.257  29.927   9.464
 1149POPC   PO417508   1.222  29.928   9.164
 1149POPC   GL117509   1.206  29.935   8.864
 1149POPC   GL217510   1.061  29.891   8.864
 1149POPC   C1A17511   1.196  29.956   8.564
 1149POPC   D2A17512   1.240  29.967   8.264
 1149POPC   C3A17513   1.167  29.900   7.964
 1149POPC   C4A17514   1.210  29.922   7.664
 1149POPC   C1B17515   0.970  29.853   8.564
 1149POPC   C2B17516   1.016  29.814   8.264
 1149POPC   C3B17517   0.981  29.899   7.964
 1149POPC   C4B17518   0.960  29.862   7.664
 1150POPC   NC317519  15.934  29.112   9.464
 1150POPC   PO417520  15.955  29.183   9.164
 1150POPC   GL117521  15.963  29.177   8.864
 1150POPC   GL217522  16.007  29.317   8.864
 1150POPC   C1A17523  15.959  29.173   8.564
 1150POPC   D2A17524  15.956  29.122   8.264
 1150POPC   C3A17525  15.920  29.184   7.964
 1150POPC   C4A17526  15.976  29.103   7.664
 1150POPC   C1B17527  15.992  29.368   8.564
 1150POPC   C2B17528  15.955  29.427   8.264
 1150POPC   C3B17529  15.985  29.441   7.964
 1150POPC   C4B17530  15.951  29.353   7.664
 1151POPC   NC317531  21.423  26.808   9.464
 1151POPC   PO417532  21.423  26.817   9.164
 1151POPC   GL117533  21.342  26.828   8.864
 1151POPC   GL217534  21.545  26.868   8.864
 1151POPC   C1A17535  21.383  26.784   8.564
 1151POPC   D2A17536  21.369  26.780   8.264
 1151POPC   C3A17537  21.362  26.777   7.964
 1151POPC   C4A17538  21.433  26.801   7.664
 1151POPC   C1B17539  21.642  26.931   8.564
 1151POPC   C2B17540  21.564  26.972   8.264
 1151POPC   C3B17541  21.650  26.916   7.964
 1151POPC   C4B17542  21.570  26.974   7.664
 1152POPC   NC317543  41.536  33.838   9.464
 1152POPC   PO417544  41.581  33.809   9.164
 1152POPC   GL117545  41.578  33.834   8.864
 1152POPC   GL217546  41.611  33.669   8.864
 1152POPC   C1A17547  41.584  33.778   8.564
 1152POPC   D2A17548  41.580  33.772   8.264
 1152POPC   C3A17549  41.521  33.830   7.964
 1152POPC   C4A17550  41.531  33.790   7.664
 1152POPC   C1B17551  41.598  33.534   8.564
 1152POPC   C2B17552  41.627  33.514   8.264
 1152POPC   C3B17553  41.598  33.607   7.964
 1152POPC   C4B17554  41.646  33.577   7.664
 1153POPC   NC317555  32.271  44.653   9.464
 1153POPC   PO417556  32.231  44.648   9.164
 1153POPC   GL117557  32.215  44.684   8.864
 1153POPC   GL217558  32.368  44.609   8.864
 1153POPC   C1A17559  32.248  44.693   8.564
 1153POPC   D2A17560  32.218  44.693   8.264
 1153POPC   C3A17561  32.281  44.651   7.964
 1153POPC   C4A17562  32.243  44.669   7.664
 1153POPC   C1B17563  32.471  44.544   8.564
 1153POPC   C2B17564  32.455  44.485   8.264
 1153POPC   C3B17565  32.406  44.534   7.964
 1153POPC   C4B17566  32.464  44.519   7.664
 1154POPC   NC317567   4.312  34.543   9.464
 1154POPC   PO417568   4.286  34.599   9.164
 1154POPC   GL117569   4.316  34.557   8.864
 1154POPC   GL217570   4.362  34.663   8.864
 1154POPC   C1A17571   4.295  34.604   8.564
 1154POPC   D2A17572   4.284  34.618   8.264
 1154POPC   C3A17573   4.305  34.596   7.964
 1154POPC   C4A17574   4.351  34.551   7.664
 1154POPC   C1B17575   4.428  34.734   8.564
 1154POPC   C2B17576   4.416  34.747   8.264
 1154POPC   C3B17577   4.439  34.782   7.964
 1154POPC   C4B17578   4.442  34.763   7.664
 1155POPC   NC317579   4.317  44.673   9.464
 1155POPC   PO417580   4.358  44.627   9.164
 1155POPC   GL117581   4.296  44.635   8.864
 1155POPC   GL217582   4.311  44.776   8.864
 1155POPC   C1A17583   4.327  44.669   8.564
 1155POPC   D2A17584   4.327  44.688   8.264
 1155POPC   C3A17585   4.286  44.620   7.964
 1155POPC   C4A17586   4.316  44.653   7.664
 1155POPC   C1B17587   4.338  44.893   8.564
 1155POPC   C2B17588   4.353  44.956   8.264
 1155POPC   C3B17589   4.386  44.897   7.964
 1155POPC   C4B17590   4.355  44.884   7.664
 1156POPC   NC317591  13.627  44.693   9.464
 1156POPC   PO417592  13.642  44.630   9.164
 1156POPC   GL117593  13.580  44.651   8.864
 1156POPC   GL217594  13.631  44.741   8.864
 1156POPC   C1A17595  13.647  44.617   8.564
 1156POPC   D2A17596  13.599  44.686   8.264
 1156POPC   C3A17597  13.640  44.658   7.964
 1156POPC   C4A17598  13.650  44.678   7.664
 1156POPC   C1B17599  13.759  44.882   8.564
 1156POPC   C2B17600  13.773  44.880   8.264
 1156POPC   C3B17601  13.692  44.862   7.964
 1156POPC   C4B17602  13.779  44.863   7.664
 1157POPC   NC317603   5.895  24.529   9.464
 1157POPC   PO417604   5.903  24.464   9.164
 1157POPC   GL117605   5.825  24.457   8.864
 1157POPC   GL217606   5.804  24.644   8.864
 1157POPC   C1A17607   5.863  24.448   8.564
 1157POPC   D2A17608   5.908  24.517   8.264
 1157POPC   C3A17609   5.830  24.465   7.964
 1157POPC   C4A17610   5.912  24.447   7.664
 1157POPC   C1B17611   5.769  24.696   8.564
 1157POPC   C2B17612   5.771  24.736   8.264
 1157POPC   C3B17613   5.805  24.738   7.964
 1157POPC   C4B17614   5.746  24.717   7.664
 1158POPC   NC317615  18.323   5.108   9.464
 1158POPC   PO417616  18.330   5.062   9.164
 1158POPC   GL117617  18.327   5.089   8.864
 1158POPC   GL217618  18.143   5.040   8.864
 1158POPC   C1A17619  18.316   5.131   8.564
 1158POPC   D2A17620  18.260   5.115   8.264
 1158POPC   C3A17621  18.289   5.086   7.964
 1158POPC   C4A17622  18.310   5.136   7.664
 1158POPC   C1B17623  18.085   5.047   8.564
 1158POPC   C2B17624  18.026   5.064   8.264
 1158POPC   C3B17625  18.041   4.997   7.964
 1158POPC   C4B17626  18.006   5.079   7.664
 1159POPC   NC317627  26.812   2.811   9.464
 1159POPC   PO417628  26.820   2.738   9.164
 1159POPC   GL117629  26.792   2.749   8.864
 1159POPC   GL217630  26.785   2.695   8.864
 1159POPC   C1A17631  26.832   2.757   8.564
 1159POPC   D2A17632  26.786   2.739   8.264
 1159POPC   C3A17633  26.786   2.773   7.964
 1159POPC   C4A17634  26.848   2.799   7.664
 1159POPC   C1B17635  26.761   2.553   8.564
 1159POPC   C2B17636  26.756   2.539   8.264
 1159POPC   C3B17637  26.734   2.505   7.964
 1159POPC   C4B17638  26.707   2.514   7.664
 1160POPC   NC317639   5.109   4.341   9.464
 1160POPC   PO417640   5.139   4.299   9.164
 1160POPC   GL117641   5.098   4.321   8.864
 1160POPC   GL217642   5.119   4.167   8.864
 1160POPC   C1A17643   5.046   4.346   8.564
 1160POPC   D2A17644   5.142   4.321   8.264
 1160POPC   C3A17645   5.106   4.331   7.964
 1160POPC   C4A17646   5.142   4.316   7.664
 1160POPC   C1B17647   5.185   4.045   8.564
 1160POPC   C2B17648   5.225   4.132   8.264
 1160POPC   C3B17649   5.186   4.071   7.964
 1160POPC   C4B17650   5.165   4.069   7.664
 1161POPC   NC317651  32.244  15.176   9.464
 1161POPC   PO417652  32.275  15.149   9.164
 1161POPC   GL117653  32.266  15.202   8.864
 1161POPC   GL217654  32.295  15.079   8.864
 1161POPC   C1A17655  32.293  15.225   8.564
 1161POPC   D2A17656  32.200  15.136   8.264
 1161POPC   C3A17657  32.200  15.162   7.964
 1161POPC   C4A17658  32.276  15.155   7.664
 1161POPC   C1B17659  32.409  14.978   8.564
 1161POPC   C2B17660  32.446  15.062   8.264
 1161POPC   C3B17661  32.388  14.991   7.964
 1161POPC   C4B17662  32.454  15.004   7.664
 1162POPC   NC317663  22.897  29.160   9.464
 1162POPC   PO417664  22.931  29.173   9.164
 1162POPC   GL117665  22.945  29.097   8.864
 1162POPC   GL217666  22.815  29.251   8.864
 1162POPC   C1A17667  22.954  29.126   8.564
 1162POPC   D2A17668  22.936  29.122   8.264
 1162POPC   C3A17669  22.950  29.156   7.964
 1162POPC   C4A17670  22.901  29.096   7.664
 1162POPC   C1B17671  22.751  29.259   8.564
 1162POPC   C2B17672  22.740  29.254   8.264
 1162POPC   C3B17673  22.670  29.260   7.964
 1162POPC   C4B17674  22.676  29.274   7.664
 1163POPC   NC317675  19.795   6.682   9.464
 1163POPC   PO417676  19.795   6.694   9.164
 1163POPC   GL117677  19.819   6.596   8.864
 1163POPC   GL217678  19.938   6.745   8.864
 1163POPC   C1A17679  19.839   6.598   8.564
 1163POPC   D2A17680  19.840   6.677   8.264
 1163POPC   C3A17681  19.829   6.654   7.964
 1163POPC   C4A17682  19.847   6.672   7.664
 1163POPC   C1B17683  20.041   6.831   8.564
 1163POPC   C2B17684  19.970   6.861   8.264
 1163POPC   C3B17685  20.010   6.822   7.964
 1163POPC   C4B17686  20.043   6.844   7.664
 1164POPC   NC317687   9.727  42.341   9.464
 1164POPC   PO417688   9.732  42.311   9.164
 1164POPC   GL117689   9.797  42.290   8.864
 1164POPC   GL217690   9.890  42.282   8.864
 1164POPC   C1A17691   9.743  42.363   8.564
 1164POPC   D2A17692   9.795  42.312   8.264
 1164POPC   C3A17693   9.765  42.360   7.964
 1164POPC   C4A17694   9.755  42.326   7.664
 1164POPC   C1B17695   9.921  42.160   8.564
 1164POPC   C2B17696   9.922  42.205   8.264
 1164POPC   C3B17697   9.930  42.172   7.964
 1164POPC   C4B17698   9.932  42.228   7.664
 1165POPC   NC317699  43.932  36.926   9.464
 1165POPC   PO417700  43.865  36.858   9.164
 1165POPC   GL117701  43.930  36.918   8.864
 1165POPC   GL217702  43.844  36.837   8.864
 1165POPC   C1A17703  43.903  36.928   8.564
 1165POPC   D2A17704  43.881  36.867   8.264
 1165POPC   C3A17705  43.850  36.904   7.964
 1165POPC   C4A17706  43.921  36.932   7.664
 1165POPC   C1B17707  43.745  36.684   8.564
 1165POPC   C2B17708  43.715  36.726   8.264
 1165POPC   C3B17709  43.781  36.667   7.964
 1165POPC   C4B17710  43.761  36.738   7.664
 1166POPC   NC317711  13.666   8.173   9.464
 1166POPC   PO417712  13.608   8.151   9.164
 1166POPC   GL117713  13.622   8.235   8.864
 1166POPC   GL217714  13.733   8.290   8.864
 1166POPC   C1A17715  13.663   8.227   8.564
 1166POPC   D2A17716  13.658   8.171   8.264
 1166POPC   C3A17717  13.588   8.199   7.964
 1166POPC   C4A17718  13.590   8.160   7.664
 1166POPC   C1B17719  13.880   8.312   8.564
 1166POPC   C2B17720  13.808   8.337   8.264
 1166POPC   C3B17721  13.831   8.291   7.964
 1166POPC   C4B17722  13.824   8.300   7.664
 1167POPC   NC317723  34.598  11.276   9.464
 1167POPC   PO417724  34.603  11.334   9.164
 1167POPC   GL117725  34.531  11.256   8.864
 1167POPC   GL217726  34.453  11.297   8.864
 1167POPC   C1A17727  34.601  11.273   8.564
 1167POPC   D2A17728  34.610  11.277   8.264
 1167POPC   C3A17729  34.596  11.326   7.964
 1167POPC   C4A17730  34.594  11.309   7.664
 1167POPC   C1B17731  34.333  11.312   8.564
 1167POPC   C2B17732  34.354  11.305   8.264
 1167POPC   C3B17733  34.370  11.284   7.964
 1167POPC   C4B17734  34.352  11.359   7.664
 1168POPC   NC317735  35.361  43.083   9.464
 1168POPC   PO417736  35.321  43.144   9.164
 1168POPC   GL117737  35.327  43.121   8.864
 1168POPC   GL217738  35.497  43.063   8.864
 1168POPC   C1A17739  35.339  43.143   8.564
 1168POPC   D2A17740  35.325  43.069   8.264
 1168POPC   C3A17741  35.317  43.066   7.964
 1168POPC   C4A17742  35.326  43.118   7.664
 1168POPC   C1B17743  35.627  43.010   8.564
 1168POPC   C2B17744  35.606  42.998   8.264
 1168POPC   C3B17745  35.539  42.999   7.964
 1168POPC   C4B17746  35.564  42.989   7.664
 1169POPC   NC317747   8.930  29.939   9.464
 1169POPC   PO417748   8.966  29.943   9.164
 1169POPC   GL117749   8.993  29.946   8.864
 1169POPC   GL217750   8.915  29.994   8.864
 1169POPC   C1A17751   8.988  29.930   8.564
 1169POPC   D2A17752   9.001  29.906   8.264
 1169POPC   C3A17753   8.992  29.916   7.964
 1169POPC   C4A17754   8.925  29.959   7.664
 1169POPC   C1B17755   8.879  30.203   8.564
 1169POPC   C2B17756   8.930  30.171   8.264
 1169POPC   C3B17757   8.833  30.120   7.964
 1169POPC   C4B17758   8.897  30.112   7.664
 1170POPC   NC317759  26.772  23.719   9.464
 1170POPC   PO417760  26.846  23.694   9.164
 1170POPC   GL117761  26.830  23.749   8.864
 1170POPC   GL217762  26.919  23.706   8.864
 1170POPC   C1A17763  26.793  23.706   8.564
 1170POPC   D2A17764  26.857  23.749   8.264
 1170POPC   C3A17765  26.843  23.739   7.964
 1170POPC   C4A17766  26.810  23.730   7.664
 1170POPC   C1B17767  27.051  23.805   8.564
 1170POPC   C2B17768  27.111  23.770   8.264
 1170POPC   C3B17769  27.025  23.745   7.964
 1170POPC   C4B17770  27.083  23.771   7.664
 1171POPC   NC317771  26.015  31.496   9.464
 1171POPC   PO417772  26.004  31.514   9.164
 1171POPC   GL117773  26.053  31.500   8.864
 1171POPC   GL217774  26.005  31.605   8.864
 1171POPC   C1A17775  26.070  31.483   8.564
 1171POPC   D2A17776  26.088  31.454   8.264
 1171POPC   C3A17777  26.037  31.518   7.964
 1171POPC   C4A17778  26.074  31.507   7.664
 1171POPC   C1B17779  26.005  31.687   8.564
 1171POPC   C2B17780  26.023  31.707   8.264
 1171POPC   C3B17781  26.039  31.707   7.964
 1171POPC   C4B17782  26.024  31.684   7.664
 1172POPC   NC317783  40.741  16.751   9.464
 1172POPC   PO417784  40.807  16.731   9.164
 1172POPC   GL117785  40.808  16.711   8.864
 1172POPC   GL217786  40.844  16.676   8.864
 1172POPC   C1A17787  40.755  16.689   8.564
 1172POPC   D2A17788  40.779  16.708   8.264
 1172POPC   C3A17789  40.799  16.705   7.964
 1172POPC   C4A17790  40.788  16.728   7.664
 1172POPC   C1B17791  40.972  16.627   8.564
 1172POPC   C2B17792  41.046  16.610   8.264
 1172POPC   C3B17793  40.976  16.623   7.964
 1172POPC   C4B17794  41.012  16.643   7.664
 1173POPC   NC317795  43.853  16.706   9.464
 1173POPC   PO417796  43.910  16.730   9.164
 1173POPC   GL117797  43.936  16.744   8.864
 1173POPC   GL217798  44.026  16.766   8.864
 1173POPC   C1A17799  43.881  16.773   8.564
 1173POPC   D2A17800  43.854  16.756   8.264
 1173POPC   C3A17801  43.867  16.742   7.964
 1173POPC   C4A17802  43.863  16.744   7.664
 1173POPC   C1B17803  44.116  16.792   8.564
 1173POPC   C2B17804  44.147  16.843   8.264
 1173POPC   C3B17805  44.078  16.876   7.964
 1173POPC   C4B17806  44.109  16.844   7.664
 1174POPC   NC317807  26.828  27.573   9.464
 1174POPC   PO417808  26.844  27.556   9.164
 1174POPC   GL117809  26.787  27.601   8.864
 1174POPC   GL217810  26.657  27.659   8.864
 1174POPC   C1A17811  26.777  27.637   8.564
 1174POPC   D2A17812  26.784  27.623   8.264
 1174POPC   C3A17813  26.863  27.629   7.964
 1174POPC   C4A17814  26.779  27.641   7.664
 1174POPC   C1B17815  26.548  27.649   8.564
 1174POPC   C2B17816  26.598  27.694   8.264
 1174POPC   C3B17817  26.593  27.689   7.964
 1174POPC   C4B17818  26.597  27.622   7.664
 1175POPC   NC317819  22.145  29.909   9.464
 1175POPC   PO417820  22.206  29.934   9.164
 1175POPC   GL117821  22.129  29.952   8.864
 1175POPC   GL217822  22.026  29.962   8.864
 1175POPC   C1A17823  22.133  29.932   8.564
 1175POPC   D2A17824  22.118  29.894   8.264
 1175POPC   C3A17825  22.115  29.938   7.964
 1175POPC   C4A17826  22.134  29.943   7.664
 1175POPC   C1B17827  21.912  30.039   8.564
 1175POPC   C2B17828  21.880  29.998   8.264
 1175POPC   C3B17829  21.950  29.944   7.964
 1175POPC   C4B17830  21.883  29.996   7.664
 1176POPC   NC317831  10.533  42.324   9.464
 1176POPC   PO417832  10.513  42.335   9.164
 1176POPC   GL117833  10.533  42.328   8.864
 1176POPC   GL217834  10.576  42.458   8.864
 1176POPC   C1A17835  10.562  42.309   8.564
 1176POPC   D2A17836  10.536  42.372   8.264
 1176POPC   C3A17837  10.559  42.324   7.964
 1176POPC   C4A17838  10.573  42.341   7.664
 1176POPC   C1B17839  10.650  42.582   8.564
 1176POPC   C2B17840  10.594  42.521   8.264
 1176POPC   C3B17841  10.636  42.601   7.964
 1176POPC   C4B17842  10.692  42.512   7.664
 1177POPC   NC317843   5.848   7.420   9.464
 1177POPC   PO417844   5.903   7.374   9.164
 1177POPC   GL117845   5.870   7.413   8.864
 1177POPC   GL217846   5.762   7.350   8.864
 1177POPC   C1A17847   5.822   7.391   8.564
 1177POPC   D2A17848   5.910   7.441   8.264
 1177POPC   C3A17849   5.820   7.437   7.964
 1177POPC   C4A17850   5.849   7.405   7.664
 1177POPC   C1B17851   5.650   7.289   8.564
 1177POPC   C2B17852   5.683   7.269   8.264
 1177POPC   C3B17853   5.607   7.321   7.964
 1177POPC   C4B17854   5.660   7.308   7.664
 1178POPC   NC317855  13.664  17.488   9.464
 1178POPC   PO417856  13.584  17.475   9.164
 1178POPC   GL117857  13.661  17.510   8.864
 1178POPC   GL217858  13.672  17.370   8.864
 1178POPC   C1A17859  13.602  17.464   8.564
 1178POPC   D2A17860  13.647  17.531   8.264
 1178POPC   C3A17861  13.659  17.555   7.964
 1178POPC   C4A17862  13.580  17.489   7.664
 1178POPC   C1B17863  13.663  17.257   8.564
 1178POPC   C2B17864  13.652  17.252   8.264
 1178POPC   C3B17865  13.648  17.255   7.964
 1178POPC   C4B17866  13.581  17.270   7.664
 1179POPC   NC317867  26.794  43.094   9.464
 1179POPC   PO417868  26.813  43.112   9.164
 1179POPC   GL117869  26.808  43.087   8.864
 1179POPC   GL217870  26.982  43.085   8.864
 1179POPC   C1A17871  26.785  43.091   8.564
 1179POPC   D2A17872  26.792  43.148   8.264
 1179POPC   C3A17873  26.853  43.095   7.964
 1179POPC   C4A17874  26.790  43.092   7.664
 1179POPC   C1B17875  27.047  43.017   8.564
 1179POPC   C2B17876  27.083  43.002   8.264
 1179POPC   C3B17877  27.081  43.048   7.964
 1179POPC   C4B17878  27.040  43.065   7.664
 1180POPC   NC317879  39.218  39.259   9.464
 1180POPC   PO417880  39.245  39.221   9.164
 1180POPC   GL117881  39.198  39.263   8.864
 1180POPC   GL217882  39.182  39.113   8.864
 1180POPC   C1A17883  39.222  39.186   8.564
 1180POPC   D2A17884  39.258  39.193   8.264
 1180POPC   C3A17885  39.188  39.266   7.964
 1180POPC   C4A17886  39.250  39.188   7.664
 1180POPC   C1B17887  39.035  39.109   8.564
 1180POPC   C2B17888  39.072  39.066   8.264
 1180POPC   C3B17889  39.060  39.105   7.964
 1180POPC   C4B17890  39.055  39.081   7.664
 1181POPC   NC317891   1.958  39.996   9.464
 1181POPC   PO417892   1.973  40.051   9.164
 1181POPC   GL117893   2.008  40.016   8.864
 1181POPC   GL217894   1.856  40.039   8.864
 1181POPC   C1A17895   2.023  40.030   8.564
 1181POPC   D2A17896   2.032  40.037   8.264
 1181POPC   C3A17897   2.038  40.026   7.964
 1181POPC   C4A17898   1.957  40.020   7.664
 1181POPC   C1B17899   1.802  40.166   8.564
 1181POPC   C2B17900   1.791  40.191   8.264
 1181POPC   C3B17901   1.753  40.201   7.964
 1181POPC   C4B17902   1.758  40.128   7.664
 1182POPC   NC317903  21.377  36.132   9.464
 1182POPC   PO417904  21.409  36.100   9.164
 1182POPC   GL117905  21.426  36.096   8.864
 1182POPC   GL217906  21.547  36.108   8.864
 1182POPC   C1A17907  21.408  36.086   8.564
 1182POPC   D2A17908  21.414  36.177   8.264
 1182POPC   C3A17909  21.368  36.164   7.964
 1182POPC   C4A17910  21.343  36.119   7.664
 1182POPC   C1B17911  21.628  36.142   8.564
 1182POPC   C2B17912  21.602  36.101   8.264
 1182POPC   C3B17913  21.640  36.089   7.964
 1182POPC   C4B17914  21.683  36.169   7.664
 1183POPC   NC317915  12.089  21.383   9.464
 1183POPC   PO417916  12.068  21.399   9.164
 1183POPC   GL117917  12.099  21.351   8.864
 1183POPC   GL217918  12.100  21.516   8.864
 1183POPC   C1A17919  12.067  21.349   8.564
 1183POPC   D2A17920  12.056  21.379   8.264
 1183POPC   C3A17921  12.035  21.364   7.964
 1183POPC   C4A17922  12.060  21.386   7.664
 1183POPC   C1B17923  12.097  21.618   8.564
 1183POPC   C2B17924  12.191  21.593   8.264
 1183POPC   C3B17925  12.160  21.625   7.964
 1183POPC   C4B17926  12.101  21.645   7.664
 1184POPC   NC317927  42.311   1.971   9.464
 1184POPC   PO417928  42.366   1.967   9.164
 1184POPC   GL117929  42.359   1.952   8.864
 1184POPC   GL217930  42.396   1.878   8.864
 1184POPC   C1A17931  42.340   1.981   8.564
 1184POPC   D2A17932  42.316   2.025   8.264
 1184POPC   C3A17933  42.286   2.008   7.964
 1184POPC   C4A17934  42.354   2.037   7.664
 1184POPC   C1B17935  42.397   1.743   8.564
 1184POPC   C2B17936  42.344   1.752   8.264
 1184POPC   C3B17937  42.330   1.747   7.964
 1184POPC   C4B17938  42.361   1.761   7.664
 1185POPC   NC317939  37.636  39.221   9.464
 1185POPC   PO417940  37.638  39.226   9.164
 1185POPC   GL117941  37.637  39.185   8.864
 1185POPC   GL217942  37.604  39.268   8.864
 1185POPC   C1A17943  37.661  39.270   8.564
 1185POPC   D2A17944  37.714  39.182   8.264
 1185POPC   C3A17945  37.644  39.268   7.964
 1185POPC   C4A17946  37.678  39.265   7.664
 1185POPC   C1B17947  37.414  39.252   8.564
 1185POPC   C2B17948  37.435  39.263   8.264
 1185POPC   C3B17949  37.470  39.246   7.964
 1185POPC   C4B17950  37.430  39.274   7.664
 1186POPC   NC317951   8.960  43.890   9.464
 1186POPC   PO417952   8.975  43.849   9.164
 1186POPC   GL117953   9.019  43.893   8.864
 1186POPC   GL217954   8.952  44.001   8.864
 1186POPC   C1A17955   8.998  43.865   8.564
 1186POPC   D2A17956   9.001  43.867   8.264
 1186POPC   C3A17957   9.006  43.874   7.964
 1186POPC   C4A17958   8.978  43.899   7.664
 1186POPC   C1B17959   8.984  44.162   8.564
 1186POPC   C2B17960   8.961  44.101   8.264
 1186POPC   C3B17961   8.941  44.147   7.964
 1186POPC   C4B17962   8.997  44.090   7.664
 1187POPC   NC317963  19.830  15.199   9.464
 1187POPC   PO417964  19.859  15.185   9.164
 1187POPC   GL117965  19.872  15.226   8.864
 1187POPC   GL217966  19.781  15.052   8.864
 1187POPC   C1A17967  19.845  15.136   8.564
 1187POPC   D2A17968  19.860  15.212   8.264
 1187POPC   C3A17969  19.793  15.227   7.964
 1187POPC   C4A17970  19.799  15.225   7.664
 1187POPC   C1B17971  19.733  14.972   8.564
 1187POPC   C2B17972  19.801  14.960   8.264
 1187POPC   C3B17973  19.784  14.930   7.964
 1187POPC   C4B17974  19.819  14.956   7.664
 1188POPC   NC317975  36.170  40.815   9.464
 1188POPC   PO417976  36.105  40.765   9.164
 1188POPC   GL117977  36.174  40.815   8.864
 1188POPC   GL217978  35.999  40.874   8.864
 1188POPC   C1A17979  36.121  40.832   8.564
 1188POPC   D2A17980  36.149  40.799   8.264
 1188POPC   C3A17981  36.131  40.767   7.964
 1188POPC   C4A17982  36.099  40.766   7.664
 1188POPC   C1B17983  35.919  40.958   8.564
 1188POPC   C2B17984  35.923  40.922   8.264
 1188POPC   C3B17985  35.949  40.959   7.964
 1188POPC   C4B17986  35.946  40.934   7.664
 1189POPC   NC317987  38.485  33.773   9.464
 1189POPC   PO417988  38.432  33.766   9.164
 1189POPC   GL117989  38.417  33.772   8.864
 1189POPC   GL217990  38.578  33.836   8.864
 1189POPC   C1A17991  38.503  33.772   8.564
 1189POPC   D2A17992  38.416  33.786   8.264
 1189POPC   C3A17993  38.427  33.755   7.964
 1189POPC   C4A17994  38.478  33.756   7.664
 1189POPC   C1B17995  38.706  33.899   8.564
 1189POPC   C2B17996  38.652  33.852   8.264
 1189POPC   C3B17997  38.712  33.887   7.964
 1189POPC   C4B17998  38.692  33.920   7.664
 1190POPC   NC317999  21.403  22.899   9.464
 1190POPC   PO418000  21.419  22.960   9.164
 1190POPC   GL118001  21.379  22.923   8.864
 1190POPC   GL218002  21.511  22.932   8.864
 1190POPC   C1A18003  21.422  22.956   8.564
 1190POPC   D2A18004  21.361  22.956   8.264
 1190POPC   C3A18005  21.423  22.982   7.964
 1190POPC   C4A18006  21.400  22.929   7.664
 1190POPC   C1B18007  21.635  22.839   8.564
 1190POPC   C2B18008  21.579  22.815   8.264
 1190POPC   C3B18009  21.660  22.826   7.964
 1190POPC   C4B18010  21.638  22.865   7.664
 1191POPC   NC318011   5.904  38.442   9.464
 1191POPC   PO418012   5.825  38.480   9.164
 1191POPC   GL118013   5.910  38.434   8.864
 1191POPC   GL218014   5.831  38.574   8.864
 1191POPC   C1A18015   5.846  38.503   8.564
 1191POPC   D2A18016   5.821  38.412   8.264
 1191POPC   C3A18017   5.826  38.428   7.964
 1191POPC   C4A18018   5.914  38.503   7.664
 1191POPC   C1B18019   5.724  38.634   8.564
 1191POPC   C2B18020   5.720  38.628   8.264
 1191POPC   C3B18021   5.715  38.714   7.964
 1191POPC   C4B18022   5.712  38.715   7.664
 1192POPC   NC318023  29.149  26.768   9.464
 1192POPC   PO418024  29.150  26.820   9.164
 1192POPC   GL118025  29.132  26.815   8.864
 1192POPC   GL218026  29.019  26.927   8.864
 1192POPC   C1A18027  29.147  26.818   8.564
 1192POPC   D2A18028  29.169  26.812   8.264
 1192POPC   C3A18029  29.179  26.784   7.964
 1192POPC   C4A18030  29.164  26.844   7.664
 1192POPC   C1B18031  28.904  26.977   8.564
 1192POPC   C2B18032  28.949  26.982   8.264
 1192POPC   C3B18033  28.941  27.014   7.964
 1192POPC   C4B18034  28.998  26.956   7.664
 1193POPC   NC318035   1.231  41.590   9.464
 1193POPC   PO418036   1.177  41.511   9.164
 1193POPC   GL118037   1.212  41.576   8.864
 1193POPC   GL218038   1.288  41.500   8.864
 1193POPC   C1A18039   1.229  41.606   8.564
 1193POPC   D2A18040   1.207  41.575   8.264
 1193POPC   C3A18041   1.213  41.567   7.964
 1193POPC   C4A18042   1.236  41.595   7.664
 1193POPC   C1B18043   1.330  41.407   8.564
 1193POPC   C2B18044   1.349  41.417   8.264
 1193POPC   C3B18045   1.364  41.352   7.964
 1193POPC   C4B18046   1.418  41.328   7.664
 1194POPC   NC318047  16.731   7.426   9.464
 1194POPC   PO418048  16.773   7.431   9.164
 1194POPC   GL118049  16.771   7.381   8.864
 1194POPC   GL218050  16.627   7.371   8.864
 1194POPC   C1A18051  16.709   7.448   8.564
 1194POPC   D2A18052  16.721   7.387   8.264
 1194POPC   C3A18053  16.755   7.457   7.964
 1194POPC   C4A18054  16.750   7.449   7.664
 1194POPC   C1B18055  16.499   7.315   8.564
 1194POPC   C2B18056  16.471   7.407   8.264
 1194POPC   C3B18057  16.491   7.411   7.964
 1194POPC   C4B18058  16.463   7.397   7.664
 1195POPC   NC318059  17.526  32.229   9.464
 1195POPC   PO418060  17.531  32.241   9.164
 1195POPC   GL118061  17.472  32.209   8.864
 1195POPC   GL218062  17.549  32.415   8.864
 1195POPC   C1A18063  17.500  32.269   8.564
 1195POPC   D2A18064  17.458  32.215   8.264
 1195POPC   C3A18065  17.485  32.273   7.964
 1195POPC   C4A18066  17.537  32.298   7.664
 1195POPC   C1B18067  17.577  32.518   8.564
 1195POPC   C2B18068  17.502  32.458   8.264
 1195POPC   C3B18069  17.520  32.532   7.964
 1195POPC   C4B18070  17.572  32.477   7.664
 1196POPC   NC318071  27.618  24.521   9.464
 1196POPC   PO418072  27.557  24.518   9.164
 1196POPC   GL118073  27.566  24.523   8.864
 1196POPC   GL218074  27.617  24.642   8.864
 1196POPC   C1A18075  27.600  24.531   8.564
 1196POPC   D2A18076  27.642  24.449   8.264
 1196POPC   C3A18077  27.561  24.454   7.964
 1196POPC   C4A18078  27.640  24.455   7.664
 1196POPC   C1B18079  27.640  24.771   8.564
 1196POPC   C2B18080  27.688  24.745   8.264
 1196POPC   C3B18081  27.725  24.737   7.964
 1196POPC   C4B18082  27.698  24.687   7.664
 1197POPC   NC318083  33.062  29.947   9.464
 1197POPC   PO418084  33.031  29.904   9.164
 1197POPC   GL118085  33.009  29.915   8.864
 1197POPC   GL218086  32.970  29.788   8.864
 1197POPC   C1A18087  33.070  29.895   8.564
 1197POPC   D2A18088  33.015  29.915   8.264
 1197POPC   C3A18089  33.064  29.927   7.964
 1197POPC   C4A18090  33.011  29.888   7.664
 1197POPC   C1B18091  32.899  29.727   8.564
 1197POPC   C2B18092  32.897  29.680   8.264
 1197POPC   C3B18093  32.850  29.665   7.964
 1197POPC   C4B18094  32.922  29.671   7.664
 1198POPC   NC318095  29.178  43.093   9.464
 1198POPC   PO418096  29.099  43.098   9.164
 1198POPC   GL118097  29.187  43.097   8.864
 1198POPC   GL218098  29.212  43.241   8.864
 1198POPC   C1A18099  29.143  43.138   8.564
 1198POPC   D2A18100  29.139  43.117   8.264
 1198POPC   C3A18101  29.159  43.069   7.964
 1198POPC   C4A18102  29.117  43.068   7.664
 1198POPC   C1B18103  29.233  43.358   8.564
 1198POPC   C2B18104  29.238  43.297   8.264
 1198POPC   C3B18105  29.234  43.337   7.964
 1198POPC   C4B18106  29.281  43.376   7.664
 1199POPC   NC318107   6.677   5.825   9.464
 1199POPC   PO418108   6.665   5.820   9.164
 1199POPC   GL118109   6.660   5.878   8.864
 1199POPC   GL218110   6.477   5.936   8.864
 1199POPC   C1A18111   6.618   5.893   8.564
 1199POPC   D2A18112   6.668   5.906   8.264
 1199POPC   C3A18113   6.610   5.915   7.964
 1199POPC   C4A18114   6.668   5.873   7.664
 1199POPC   C1B18115   6.398   5.936   8.564
 1199POPC   C2B18116   6.432   5.950   8.264
 1199POPC   C3B18117   6.370   5.937   7.964
 1199POPC   C4B18118   6.387   5.993   7.664
 1200POPC   NC318119  34.531  38.502   9.464
 1200POPC   PO418120  34.565  38.497   9.164
 1200POPC   GL118121  34.550  38.486   8.864
 1200POPC   GL218122  34.425  38.397   8.864
 1200POPC   C1A18123  34.598  38.466   8.564
 1200POPC   D2A18124  34.560  38.456   8.264
 1200POPC   C3A18125  34.527  38.487   7.964
 1200POPC   C4A18126  34.571  38.461   7.664
 1200POPC   C1B18127  34.344  38.425   8.564
 1200POPC   C2B18128  34.368  38.419   8.264
 1200POPC   C3B18129  34.320  38.344   7.964
 1200POPC   C4B18130  34.308  38.336   7.664
 1201POPC   NC318131   9.786   9.010   9.464
 1201POPC   PO418132   9.743   8.972   9.164
 1201POPC   GL118133   9.718   8.993   8.864
 1201POPC   GL218134   9.851   8.901   8.864
 1201POPC   C1A18135   9.767   8.935   8.564
 1201POPC   D2A18136   9.796   8.948   8.264
 1201POPC   C3A18137   9.795   8.931   7.964
 1201POPC   C4A18138   9.766   9.020   7.664
 1201POPC   C1B18139   9.961   8.950   8.564
 1201POPC   C2B18140   9.947   8.904   8.264
 1201POPC   C3B18141   9.955   8.957   7.964
 1201POPC   C4B18142  10.022   8.919   7.664
 1202POPC   NC318143  18.259  38.483   9.464
 1202POPC   PO418144  18.247  38.437   9.164
 1202POPC   GL118145  18.253  38.499   8.864
 1202POPC   GL218146  18.185  38.337   8.864
 1202POPC   C1A18147  18.285  38.475   8.564
 1202POPC   D2A18148  18.316  38.459   8.264
 1202POPC   C3A18149  18.254  38.428   7.964
 1202POPC   C4A18150  18.315  38.416   7.664
 1202POPC   C1B18151  18.084  38.284   8.564
 1202POPC   C2B18152  18.080  38.252   8.264
 1202POPC   C3B18153  18.122  38.266   7.964
 1202POPC   C4B18154  18.123  38.279   7.664
 1203POPC   NC318155  12.093  29.964   9.464
 1203POPC   PO418156  12.058  29.958   9.164
 1203POPC   GL118157  12.122  29.962   8.864
 1203POPC   GL218158  12.207  29.925   8.864
 1203POPC   C1A18159  12.119  29.871   8.564
 1203POPC   D2A18160  12.043  29.934   8.264
 1203POPC   C3A18161  12.029  29.952   7.964
 1203POPC   C4A18162  12.071  29.901   7.664
 1203POPC   C1B18163  12.277  29.930   8.564
 1203POPC   C2B18164  12.287  29.853   8.264
 1203POPC   C3B18165  12.335  29.839   7.964
 1203POPC   C4B18166  12.309  29.846   7.664
 1204POPC   NC318167   8.930   6.659   9.464
 1204POPC   PO418168   9.016   6.663   9.164
 1204POPC   GL118169   8.933   6.694   8.864
 1204POPC   GL218170   8.851   6.610   8.864
 1204POPC   C1A18171   8.952   6.657   8.564
 1204POPC   D2A18172   8.963   6.688   8.264
 1204POPC   C3A18173   8.944   6.639   7.964
 1204POPC   C4A18174   8.975   6.596   7.664
 1204POPC   C1B18175   8.740   6.578   8.564
 1204POPC   C2B18176   8.745   6.642   8.264
 1204POPC   C3B18177   8.742   6.624   7.964
 1204POPC   C4B18178   8.730   6.624   7.664
 1205POPC   NC318179  43.892  35.367   9.464
 1205POPC   PO418180  43.900  35.318   9.164
 1205POPC   GL118181  43.899  35.340   8.864
 1205POPC   GL218182  43.967  35.203   8.864
 1205POPC   C1A18183  43.896  35.334   8.564
 1205POPC   D2A18184  43.837  35.398   8.264
 1205POPC   C3A18185  43.904  35.338   7.964
 1205POPC   C4A18186  43.850  35.392   7.664
 1205POPC   C1B18187  43.963  35.094   8.564
 1205POPC   C2B18188  43.971  35.147   8.264
 1205POPC   C3B18189  44.022  35.109   7.964
 1205POPC   C4B18190  43.976  35.145   7.664
 1206POPC   NC318191  22.924  12.859   9.464
 1206POPC   PO418192  22.916  12.804   9.164
 1206POPC   GL118193  22.975  12.835   8.864
 1206POPC   GL218194  23.060  12.763   8.864
 1206POPC   C1A18195  22.973  12.859   8.564
 1206POPC   D2A18196  22.979  12.891   8.264
 1206POPC   C3A18197  22.956  12.871   7.964
 1206POPC   C4A18198  22.940  12.845   7.664
 1206POPC   C1B18199  23.198  12.802   8.564
 1206POPC   C2B18200  23.150  12.770   8.264
 1206POPC   C3B18201  23.186  12.771   7.964
 1206POPC   C4B18202  23.151  12.795   7.664
 1207POPC   NC318203  24.515  14.408   9.464
 1207POPC   PO418204  24.478  14.396   9.164
 1207POPC   GL118205  24.474  14.387   8.864
 1207POPC   GL218206  24.542  14.263   8.864
 1207POPC   C1A18207  24.474  14.391   8.564
 1207POPC   D2A18208  24.458  14.358   8.264
 1207POPC   C3A18209  24.468  14.408   7.964
 1207POPC   C4A18210  24.441  14.412   7.664
 1207POPC   C1B18211  24.632  14.183   8.564
 1207POPC   C2B18212  24.676  14.232   8.264
 1207POPC   C3B18213  24.664  14.194   7.964
 1207POPC   C4B18214  24.601  14.211   7.664
 1208POPC   NC318215  23.735  27.604   9.464
 1208POPC   PO418216  23.679  27.619   9.164
 1208POPC   GL118217  23.693  27.569   8.864
 1208POPC   GL218218  23.584  27.546   8.864
 1208POPC   C1A18219  23.689  27.582   8.564
 1208POPC   D2A18220  23.705  27.550   8.264
 1208POPC   C3A18221  23.696  27.638   7.964
 1208POPC   C4A18222  23.686  27.626   7.664
 1208POPC   C1B18223  23.514  27.501   8.564
 1208POPC   C2B18224  23.519  27.517   8.264
 1208POPC   C3B18225  23.501  27.445   7.964
 1208POPC   C4B18226  23.446  27.512   7.664
 1209POPC   NC318227  18.262  23.712   9.464
 1209POPC   PO418228  18.248  23.691   9.164
 1209POPC   GL118229  18.319  23.676   8.864
 1209POPC   GL218230  18.365  23.705   8.864
 1209POPC   C1A18231  18.246  23.749   8.564
 1209POPC   D2A18232  18.291  23.690   8.264
 1209POPC   C3A18233  18.311  23.761   7.964
 1209POPC   C4A18234  18.269  23.756   7.664
 1209POPC   C1B18235  18.524  23.728   8.564
 1209POPC   C2B18236  18.573  23.816   8.264
 1209POPC   C3B18237  18.564  23.815   7.964
 1209POPC   C4B18238  18.565  23.817   7.664
 1210POPC   NC318239   2.801  21.350   9.464
 1210POPC   PO418240   2.719  21.372   9.164
 1210POPC   GL118241   2.746  21.383   8.864
 1210POPC   GL218242   2.704  21.294   8.864
 1210POPC   C1A18243   2.728  21.375   8.564
 1210POPC   D2A18244   2.778  21.358   8.264
 1210POPC   C3A18245   2.805  21.354   7.964
 1210POPC   C4A18246   2.779  21.385   7.664
 1210POPC   C1B18247   2.681  21.145   8.564
 1210POPC   C2B18248   2.657  21.167   8.264
 1210POPC   C3B18249   2.671  21.108   7.964
 1210POPC   C4B18250   2.720  21.103   7.664
 1211POPC   NC318251  43.883  21.382   9.464
 1211POPC   PO418252  43.867  21.402   9.164
 1211POPC   GL118253  43.841  21.366   8.864
 1211POPC   GL218254  43.865  21.555   8.864
 1211POPC   C1A18255  43.929  21.388   8.564
 1211POPC   D2A18256  43.839  21.372   8.264
 1211POPC   C3A18257  43.842  21.415   7.964
 1211POPC   C4A18258  43.854  21.362   7.664
 1211POPC   C1B18259  43.881  21.617   8.564
 1211POPC   C2B18260  43.856  21.587   8.264
 1211POPC   C3B18261  43.863  21.607   7.964
 1211POPC   C4B18262  43.800  21.635   7.664
 1212POPC   NC318263  26.768  19.080   9.464
 1212POPC   PO418264  26.841  19.095   9.164
 1212POPC   GL118265  26.791  19.013   8.864
 1212POPC   GL218266  26.719  19.059   8.864
 1212POPC   C1A18267  26.804  19.101   8.564
 1212POPC   D2A18268  26.864  19.084   8.264
 1212POPC   C3A18269  26.859  19.057   7.964
 1212POPC   C4A18270  26.819  19.029   7.664
 1212POPC   C1B18271  26.555  19.076   8.564
 1212POPC   C2B18272  26.519  19.075   8.264
 1212POPC   C3B18273  26.589  19.114   7.964
 1212POPC   C4B18274  26.590  19.048   7.664
 1213POPC   NC318275  19.016  37.641   9.464
 1213POPC   PO418276  19.034  37.652   9.164
 1213POPC   GL118277  19.091  37.635   8.864
 1213POPC   GL218278  19.045  37.841   8.864
 1213POPC   C1A18279  19.095  37.640   8.564
 1213POPC   D2A18280  19.067  37.639   8.264
 1213POPC   C3A18281  19.030  37.726   7.964
 1213POPC   C4A18282  19.108  37.646   7.664
 1213POPC   C1B18283  19.038  37.943   8.564
 1213POPC   C2B18284  19.001  37.963   8.264
 1213POPC   C3B18285  19.023  37.922   7.964
 1213POPC   C4B18286  18.993  37.878   7.664
 1214POPC   NC318287  12.805  34.570   9.464
 1214POPC   PO418288  12.858  34.615   9.164
 1214POPC   GL118289  12.854  34.530   8.864
 1214POPC   GL218290  12.926  34.584   8.864
 1214POPC   C1A18291  12.875  34.537   8.564
 1214POPC   D2A18292  12.829  34.601   8.264
 1214POPC   C3A18293  12.863  34.585   7.964
 1214POPC   C4A18294  12.803  34.583   7.664
 1214POPC   C1B18295  13.065  34.554   8.564
 1214POPC   C2B18296  13.091  34.528   8.264
 1214POPC   C3B18297  13.061  34.476   7.964
 1214POPC   C4B18298  13.109  34.573   7.664
 1215POPC   NC318299  15.163  42.294   9.464
 1215POPC   PO418300  15.204  42.298   9.164
 1215POPC   GL118301  15.174  42.377   8.864
 1215POPC   GL218302  15.074  42.287   8.864
 1215POPC   C1A18303  15.134  42.384   8.564
 1215POPC   D2A18304  15.189  42.378   8.264
 1215POPC   C3A18305  15.133  42.294   7.964
 1215POPC   C4A18306  15.149  42.313   7.664
 1215POPC   C1B18307  14.908  42.300   8.564
 1215POPC   C2B18308  14.925  42.342   8.264
 1215POPC   C3B18309  14.976  42.338   7.964
 1215POPC   C4B18310  14.916  42.291   7.664
 1216POPC   NC318311  13.650  21.385   9.464
 1216POPC   PO418312  13.579  21.379   9.164
 1216POPC   GL118313  13.590  21.356   8.864
 1216POPC   GL218314  13.476  21.460   8.864
 1216POPC   C1A18315  13.624  21.401   8.564
 1216POPC   D2A18316  13.632  21.341   8.264
 1216POPC   C3A18317  13.671  21.380   7.964
 1216POPC   C4A18318  13.662  21.414   7.664
 1216POPC   C1B18319  13.434  21.483   8.564
 1216POPC   C2B18320  13.385  21.459   8.264
 1216POPC   C3B18321  13.379  21.528   7.964
 1216POPC   C4B18322  13.408  21.537   7.664
 1217POPC   NC318323  39.976  29.186   9.464
 1217POPC   PO418324  39.980  29.135   9.164
 1217POPC   GL118325  40.010  29.105   8.864
 1217POPC   GL218326  40.013  29.245   8.864
 1217POPC   C1A18327  40.018  29.101   8.564
 1217POPC   D2A18328  39.983  29.120   8.264
 1217POPC   C3A18329  39.977  29.158   7.964
 1217POPC   C4A18330  40.025  29.100   7.664
 1217POPC   C1B18331  39.971  29.374   8.564
 1217POPC   C2B18332  39.912  29.360   8.264
 1217POPC   C3B18333  39.919  29.354   7.964
 1217POPC   C4B18334  39.931  29.365   7.664
 1218POPC   NC318335  40.016   4.302   9.464
 1218POPC   PO418336  39.959   4.340   9.164
 1218POPC   GL118337  40.055   4.323   8.864
 1218POPC   GL218338  40.087   4.243   8.864
 1218POPC   C1A18339  39.968   4.279   8.564
 1218POPC   D2A18340  39.963   4.288   8.264
 1218POPC   C3A18341  39.978   4.357   7.964
 1218POPC   C4A18342  40.006   4.334   7.664
 1218POPC   C1B18343  40.186   4.166   8.564
 1218POPC   C2B18344  40.230   4.167   8.264
 1218POPC   C3B18345  40.188   4.244   7.964
 1218POPC   C4B18346  40.199   4.246   7.664
 1219POPC   NC318347   4.269  16.725   9.464
 1219POPC   PO418348   4.321  16.706   9.164
 1219POPC   GL118349   4.333  16.749   8.864
 1219POPC   GL218350   4.208  16.826   8.864
 1219POPC   C1A18351   4.280  16.697   8.564
 1219POPC   D2A18352   4.362  16.722   8.264
 1219POPC   C3A18353   4.319  16.685   7.964
 1219POPC   C4A18354   4.298  16.761   7.664
 1219POPC   C1B18355   4.078  16.834   8.564
 1219POPC   C2B18356   4.090  16.836   8.264
 1219POPC   C3B18357   4.101  16.865   7.964
 1219POPC   C4B18358   4.096  16.872   7.664
 1220POPC   NC318359  12.863  37.675   9.464
 1220POPC   PO418360  12.838  37.676   9.164
 1220POPC   GL118361  12.894  37.724   8.864
 1220POPC   GL218362  12.765  37.620   8.864
 1220POPC   C1A18363  12.889  37.700   8.564
 1220POPC   D2A18364  12.877  37.681   8.264
 1220POPC   C3A18365  12.860  37.687   7.964
 1220POPC   C4A18366  12.871  37.635   7.664
 1220POPC   C1B18367  12.592  37.668   8.564
 1220POPC   C2B18368  12.579  37.646   8.264
 1220POPC   C3B18369  12.569  37.612   7.964
 1220POPC   C4B18370  12.643  37.697   7.664
 1221POPC   NC318371  26.075  11.323   9.464
 1221POPC   PO418372  26.078  11.291   9.164
 1221POPC   GL118373  26.067  11.289   8.864
 1221POPC   GL218374  26.043  11.429   8.864
 1221POPC   C1A18375  26.071  11.318   8.564
 1221POPC   D2A18376  26.029  11.277   8.264
 1221POPC   C3A18377  26.023  11.286   7.964
 1221POPC   C4A18378  26.068  11.309   7.664
 1221POPC   C1B18379  25.988  11.539   8.564
 1221POPC   C2B18380  26.062  11.557   8.264
 1221POPC   C3B18381  26.047  11.558   7.964
 1221POPC   C4B18382  25.989  11.555   7.664
 1222POPC   NC318383  36.906   0.481   9.464
 1222POPC   PO418384  36.949   0.415   9.164
 1222POPC   GL118385  36.875   0.455   8.864
 1222POPC   GL218386  36.830   0.447   8.864
 1222POPC   C1A18387  36.897   0.481   8.564
 1222POPC   D2A18388  36.881   0.404   8.264
 1222POPC   C3A18389  36.948   0.450   7.964
 1222POPC   C4A18390  36.939   0.395   7.664
 1222POPC   C1B18391  36.659   0.454   8.564
 1222POPC   C2B18392  36.643   0.480   8.264
 1222POPC   C3B18393  36.662   0.490   7.964
 1222POPC   C4B18394  36.672   0.465   7.664
 1223POPC   NC318395  26.811  17.529   9.464
 1223POPC   PO418396  26.815  17.536   9.164
 1223POPC   GL118397  26.819  17.469   8.864
 1223POPC   GL218398  26.908  17.572   8.864
 1223POPC   C1A18399  26.811  17.492   8.564
 1223POPC   D2A18400  26.840  17.553   8.264
 1223POPC   C3A18401  26.783  17.470   7.964
 1223POPC   C4A18402  26.830  17.461   7.664
 1223POPC   C1B18403  26.901  17.740   8.564
 1223POPC   C2B18404  26.929  17.723   8.264
 1223POPC   C3B18405  26.905  17.770   7.964
 1223POPC   C4B18406  26.950  17.709   7.664
 1224POPC   NC318407  43.837  43.880   9.464
 1224POPC   PO418408  43.936  43.909   9.164
 1224POPC   GL118409  43.933  43.920   8.864
 1224POPC   GL218410  43.786  43.770   8.864
 1224POPC   C1A18411  43.861  43.895   8.564
 1224POPC   D2A18412  43.900  43.927   8.264
 1224POPC   C3A18413  43.887  43.842   7.964
 1224POPC   C4A18414  43.917  43.852   7.664
 1224POPC   C1B18415  43.700  43.680   8.564
 1224POPC   C2B18416  43.702  43.717   8.264
 1224POPC   C3B18417  43.775  43.696   7.964
 1224POPC   C4B18418  43.701  43.641   7.664
 1225POPC   NC318419  25.296  18.250   9.464
 1225POPC   PO418420  25.222  18.234   9.164
 1225POPC   GL118421  25.263  18.262   8.864
 1225POPC   GL218422  25.147  18.377   8.864
 1225POPC   C1A18423  25.248  18.269   8.564
 1225POPC   D2A18424  25.254  18.309   8.264
 1225POPC   C3A18425  25.277  18.324   7.964
 1225POPC   C4A18426  25.264  18.280   7.664
 1225POPC   C1B18427  25.081  18.489   8.564
 1225POPC   C2B18428  25.158  18.484   8.264
 1225POPC   C3B18429  25.139  18.508   7.964
 1225POPC   C4B18430  25.107  18.490   7.664
 1226POPC   NC318431   5.904  36.090   9.464
 1226POPC   PO418432   5.915  36.105   9.164
 1226POPC   GL118433   5.821  36.164   8.864
 1226POPC   GL218434   5.813  36.266   8.864
 1226POPC   C1A18435   5.872  36.113   8.564
 1226POPC   D2A18436   5.879  36.174   8.264
 1226POPC   C3A18437   5.878  36.096   7.964
 1226POPC   C4A18438   5.882  36.142   7.664
 1226POPC   C1B18439   5.751  36.375   8.564
 1226POPC   C2B18440   5.801  36.309   8.264
 1226POPC   C3B18441   5.733  36.308   7.964
 1226POPC   C4B18442   5.711  36.338   7.664
 1227POPC   NC318443  43.856   7.469   9.464
 1227POPC   PO418444  43.907   7.400   9.164
 1227POPC   GL118445  43.878   7.375   8.864
 1227POPC   GL218446  43.853   7.343   8.864
 1227POPC   C1A18447  43.925   7.398   8.564
 1227POPC   D2A18448  43.868   7.460   8.264
 1227POPC   C3A18449  43.895   7.463   7.964
 1227POPC   C4A18450  43.879   7.391   7.664
 1227POPC   C1B18451  43.750   7.237   8.564
 1227POPC   C2B18452  43.743   7.226   8.264
 1227POPC   C3B18453  43.739   7.258   7.964
 1227POPC   C4B18454  43.744   7.240   7.664
 1228POPC   NC318455  40.039   5.895   9.464
 1228POPC   PO418456  39.977   5.820   9.164
 1228POPC   GL118457  39.986   5.845   8.864
 1228POPC   GL218458  39.933   5.957   8.864
 1228POPC   C1A18459  39.986   5.859   8.564
 1228POPC   D2A18460  40.024   5.905   8.264
 1228POPC   C3A18461  40.008   5.827   7.964
 1228POPC   C4A18462  40.038   5.906   7.664
 1228POPC   C1B18463  39.843   6.079   8.564
 1228POPC   C2B18464  39.860   6.100   8.264
 1228POPC   C3B18465  39.870   6.131   7.964
 1228POPC   C4B18466  39.885   6.114   7.664
 1229POPC   NC318467   9.758  26.798   9.464
 1229POPC   PO418468   9.741  26.828   9.164
 1229POPC   GL118469   9.755  26.805   8.864
 1229POPC   GL218470   9.648  26.737   8.864
 1229POPC   C1A18471   9.764  26.836   8.564
 1229POPC   D2A18472   9.794  26.794   8.264
 1229POPC   C3A18473   9.746  26.769   7.964
 1229POPC   C4A18474   9.754  26.853   7.664
 1229POPC   C1B18475   9.535  26.697   8.564
 1229POPC   C2B18476   9.568  26.706   8.264
 1229POPC   C3B18477   9.551  26.740   7.964
 1229POPC   C4B18478   9.545  26.718   7.664
 1230POPC   NC318479  36.084  40.050   9.464
 1230POPC   PO418480  36.107  39.978   9.164
 1230POPC   GL118481  36.163  40.046   8.864
 1230POPC   GL218482  36.184  39.889   8.864
 1230POPC   C1A18483  36.133  40.052   8.564
 1230POPC   D2A18484  36.130  40.025   8.264
 1230POPC   C3A18485  36.102  39.957   7.964
 1230POPC   C4A18486  36.092  40.054   7.664
 1230POPC   C1B18487  36.316  39.816   8.564
 1230POPC   C2B18488  36.354  39.876   8.264
 1230POPC   C3B18489  36.360  39.851   7.964
 1230POPC   C4B18490  36.338  39.867   7.664
 1231POPC   NC318491  16.699  10.492   9.464
 1231POPC   PO418492  16.732  10.527   9.164
 1231POPC   GL118493  16.718  10.507   8.864
 1231POPC   GL218494  16.711  10.355   8.864
 1231POPC   C1A18495  16.766  10.513   8.564
 1231POPC   D2A18496  16.778  10.552   8.264
 1231POPC   C3A18497  16.777  10.536   7.964
 1231POPC   C4A18498  16.764  10.563   7.664
 1231POPC   C1B18499  16.820  10.253   8.564
 1231POPC   C2B18500  16.741  10.243   8.264
 1231POPC   C3B18501  16.812  10.237   7.964
 1231POPC   C4B18502  16.781  10.327   7.664
 1232POPC   NC318503   7.453  13.633   9.464
 1232POPC   PO418504   7.434  13.671   9.164
 1232POPC   GL118505   7.422  13.658   8.864
 1232POPC   GL218506   7.369  13.460   8.864
 1232POPC   C1A18507   7.447  13.592   8.564
 1232POPC   D2A18508   7.467  13.603   8.264
 1232POPC   C3A18509   7.434  13.619   7.964
 1232POPC   C4A18510   7.419  13.664   7.664
 1232POPC   C1B18511   7.367  13.412   8.564
 1232POPC   C2B18512   7.392  13.354   8.264
 1232POPC   C3B18513   7.401  13.369   7.964
 1232POPC   C4B18514   7.355  13.395   7.664
 1233POPC   NC318515  26.040  15.202   9.464
 1233POPC   PO418516  25.992  15.166   9.164
 1233POPC   GL118517  26.007  15.166   8.864
 1233POPC   GL218518  25.964  15.329   8.864
 1233POPC   C1A18519  26.059  15.150   8.564
 1233POPC   D2A18520  26.034  15.216   8.264
 1233POPC   C3A18521  26.023  15.185   7.964
 1233POPC   C4A18522  26.063  15.213   7.664
 1233POPC   C1B18523  25.954  15.368   8.564
 1233POPC   C2B18524  25.883  15.405   8.264
 1233POPC   C3B18525  25.890  15.398   7.964
 1233POPC   C4B18526  25.891  15.404   7.664
 1234POPC   NC318527  22.185  23.732   9.464
 1234POPC   PO418528  22.200  23.695   9.164
 1234POPC   GL118529  22.168  23.725   8.864
 1234POPC   GL218530  22.136  23.571   8.864
 1234POPC   C1A18531  22.122  23.706   8.564
 1234POPC   D2A18532  22.175  23.676   8.264
 1234POPC   C3A18533  22.184  23.732   7.964
 1234POPC   C4A18534  22.126  23.682   7.664
 1234POPC   C1B18535  22.139  23.444   8.564
 1234POPC   C2B18536  22.154  23.452   8.264
 1234POPC   C3B18537  22.094  23.431   7.964
 1234POPC   C4B18538  22.149  23.512   7.664
 1235POPC   NC318539   2.732  19.076   9.464
 1235POPC   PO418540   2.770  19.050   9.164
 1235POPC   GL118541   2.770  19.101   8.864
 1235POPC   GL218542   2.666  19.057   8.864
 1235POPC   C1A18543   2.748  19.010   8.564
 1235POPC   D2A18544   2.802  19.060   8.264
 1235POPC   C3A18545   2.803  19.067   7.964
 1235POPC   C4A18546   2.720  19.105   7.664
 1235POPC   C1B18547   2.490  19.031   8.564
 1235POPC   C2B18548   2.518  18.963   8.264
 1235POPC   C3B18549   2.511  19.049   7.964
 1235POPC   C4B18550   2.495  19.035   7.664
 1236POPC   NC318551  37.676  36.112   9.464
 1236POPC   PO418552  37.708  36.148   9.164
 1236POPC   GL118553  37.709  36.170   8.864
 1236POPC   GL218554  37.823  36.117   8.864
 1236POPC   C1A18555  37.705  36.166   8.564
 1236POPC   D2A18556  37.676  36.136   8.264
 1236POPC   C3A18557  37.720  36.170   7.964
 1236POPC   C4A18558  37.652  36.147   7.664
 1236POPC   C1B18559  37.942  36.114   8.564
 1236POPC   C2B18560  37.970  36.138   8.264
 1236POPC   C3B18561  37.904  36.151   7.964
 1236POPC   C4B18562  37.974  36.068   7.664
 1237POPC   NC318563   9.759  25.302   9.464
 1237POPC   PO418564   9.782  25.291   9.164
 1237POPC   GL118565   9.787  25.234   8.864
 1237POPC   GL218566   9.713  25.343   8.864
 1237POPC   C1A18567   9.716  25.243   8.564
 1237POPC   D2A18568   9.751  25.233   8.264
 1237POPC   C3A18569   9.709  25.306   7.964
 1237POPC   C4A18570   9.730  25.264   7.664
 1237POPC   C1B18571   9.610  25.530   8.564
 1237POPC   C2B18572   9.676  25.459   8.264
 1237POPC   C3B18573   9.638  25.497   7.964
 1237POPC   C4B18574   9.676  25.487   7.664
 1238POPC   NC318575  44.661   0.454   9.464
 1238POPC   PO418576  44.637   0.392   9.164
 1238POPC   GL118577  44.708   0.391   8.864
 1238POPC   GL218578  44.718   0.562   8.864
 1238POPC   C1A18579  44.640   0.443   8.564
 1238POPC   D2A18580  44.637   0.473   8.264
 1238POPC   C3A18581  44.632   0.419   7.964
 1238POPC   C4A18582  44.624   0.415   7.664
 1238POPC   C1B18583  44.655   0.729   8.564
 1238POPC   C2B18584  44.732   0.659   8.264
 1238POPC   C3B18585  44.682   0.659   7.964
 1238POPC   C4B18586  44.652   0.657   7.664
 1239POPC   NC318587  29.968  24.449   9.464
 1239POPC   PO418588  29.908  24.484   9.164
 1239POPC   GL118589  29.904  24.510   8.864
 1239POPC   GL218590  29.960  24.560   8.864
 1239POPC   C1A18591  29.961  24.444   8.564
 1239POPC   D2A18592  29.948  24.444   8.264
 1239POPC   C3A18593  29.942  24.490   7.964
 1239POPC   C4A18594  29.924  24.477   7.664
 1239POPC   C1B18595  30.117  24.624   8.564
 1239POPC   C2B18596  30.128  24.639   8.264
 1239POPC   C3B18597  30.074  24.621   7.964
 1239POPC   C4B18598  30.075  24.645   7.664
 1240POPC   NC318599  41.536  32.266   9.464
 1240POPC   PO418600  41.548  32.215   9.164
 1240POPC   GL118601  41.534  32.273   8.864
 1240POPC   GL218602  41.634  32.151   8.864
 1240POPC   C1A18603  41.581  32.222   8.564
 1240POPC   D2A18604  41.591  32.276   8.264
 1240POPC   C3A18605  41.523  32.231   7.964
 1240POPC   C4A18606  41.541  32.267   7.664
 1240POPC   C1B18607  41.702  32.042   8.564
 1240POPC   C2B18608  41.770  32.065   8.264
 1240POPC   C3B18609  41.715  32.119   7.964
 1240POPC   C4B18610  41.780  32.048   7.664
 1241POPC   NC318611  13.631  18.279   9.464
 1241POPC   PO418612  13.583  18.324   9.164
 1241POPC   GL118613  13.662  18.238   8.864
 1241POPC   GL218614  13.551  18.209   8.864
 1241POPC   C1A18615  13.620  18.323   8.564
 1241POPC   D2A18616  13.653  18.324   8.264
 1241POPC   C3A18617  13.659  18.324   7.964
 1241POPC   C4A18618  13.636  18.291   7.664
 1241POPC   C1B18619  13.526  18.078   8.564
 1241POPC   C2B18620  13.455  18.037   8.264
 1241POPC   C3B18621  13.510  18.051   7.964
 1241POPC   C4B18622  13.525  18.072   7.664
 1242POPC   NC318623  41.589  29.938   9.464
 1242POPC   PO418624  41.577  29.872   9.164
 1242POPC   GL118625  41.607  29.916   8.864
 1242POPC   GL218626  41.444  29.971   8.864
 1242POPC   C1A18627  41.512  29.905   8.564
 1242POPC   D2A18628  41.590  29.936   8.264
 1242POPC   C3A18629  41.555  29.890   7.964
 1242POPC   C4A18630  41.569  29.876   7.664
 1242POPC   C1B18631  41.348  29.900   8.564
 1242POPC   C2B18632  41.264  29.956   8.264
 1242POPC   C3B18633  41.303  29.946   7.964
 1242POPC   C4B18634  41.274  29.977   7.664
 1243POPC   NC318635  28.375  17.550   9.464
 1243POPC   PO418636  28.402  17.543   9.164
 1243POPC   GL118637  28.381  17.483   8.864
 1243POPC   GL218638  28.425  17.618   8.864
 1243POPC   C1A18639  28.340  17.461   8.564
 1243POPC   D2A18640  28.356  17.470   8.264
 1243POPC   C3A18641  28.370  17.522   7.964
 1243POPC   C4A18642  28.375  17.485   7.664
 1243POPC   C1B18643  28.430  17.774   8.564
 1243POPC   C2B18644  28.416  17.708   8.264
 1243POPC   C3B18645  28.436  17.712   7.964
 1243POPC   C4B18646  28.401  17.741   7.664
 1244POPC   NC318647  22.150   2.781   9.464
 1244POPC   PO418648  22.163   2.793   9.164
 1244POPC   GL118649  22.146   2.747   8.864
 1244POPC   GL218650  22.232   2.838   8.864
 1244POPC   C1A18651  22.194   2.764   8.564
 1244POPC   D2A18652  22.196   2.772   8.264
 1244POPC   C3A18653  22.122   2.752   7.964
 1244POPC   C4A18654  22.184   2.801   7.664
 1244POPC   C1B18655  22.431   2.901   8.564
 1244POPC   C2B18656  22.421   2.890   8.264
 1244POPC   C3B18657  22.403   2.854   7.964
 1244POPC   C4B18658  22.348   2.855   7.664
 1245POPC   NC318659   6.635  43.867   9.464
 1245POPC   PO418660   6.655  43.914   9.164
 1245POPC   GL118661   6.619  43.862   8.864
 1245POPC   GL218662   6.552  43.955   8.864
 1245POPC   C1A18663   6.693  43.904   8.564
 1245POPC   D2A18664   6.619  43.882   8.264
 1245POPC   C3A18665   6.673  43.911   7.964
 1245POPC   C4A18666   6.677  43.880   7.664
 1245POPC   C1B18667   6.439  44.035   8.564
 1245POPC   C2B18668   6.468  44.055   8.264
 1245POPC   C3B18669   6.492  44.061   7.964
 1245POPC   C4B18670   6.444  44.090   7.664
 1246POPC   NC318671  19.041   8.927   9.464
 1246POPC   PO418672  19.033   8.939   9.164
 1246POPC   GL118673  19.074   8.934   8.864
 1246POPC   GL218674  19.030   9.043   8.864
 1246POPC   C1A18675  19.050   9.012   8.564
 1246POPC   D2A18676  19.062   8.958   8.264
 1246POPC   C3A18677  19.027   8.929   7.964
 1246POPC   C4A18678  19.107   8.925   7.664
 1246POPC   C1B18679  18.969   9.156   8.564
 1246POPC   C2B18680  18.888   9.184   8.264
 1246POPC   C3B18681  18.915   9.190   7.964
 1246POPC   C4B18682  18.893   9.183   7.664
 1247POPC   NC318683  13.636  41.514   9.464
 1247POPC   PO418684  13.603  41.567   9.164
 1247POPC   GL118685  13.650  41.529   8.864
 1247POPC   GL218686  13.514  41.504   8.864
 1247POPC   C1A18687  13.655  41.538   8.564
 1247POPC   D2A18688  13.637  41.526   8.264
 1247POPC   C3A18689  13.667  41.514   7.964
 1247POPC   C4A18690  13.616  41.569   7.664
 1247POPC   C1B18691  13.459  41.405   8.564
 1247POPC   C2B18692  13.469  41.331   8.264
 1247POPC   C3B18693  13.488  41.369   7.964
 1247POPC   C4B18694  13.425  41.425   7.664
 1248POPC   NC318695  23.703  34.615   9.464
 1248POPC   PO418696  23.669  34.531   9.164
 1248POPC   GL118697  23.677  34.590   8.864
 1248POPC   GL218698  23.687  34.439   8.864
 1248POPC   C1A18699  23.724  34.604   8.564
 1248POPC   D2A18700  23.747  34.593   8.264
 1248POPC   C3A18701  23.717  34.558   7.964
 1248POPC   C4A18702  23.706  34.623   7.664
 1248POPC   C1B18703  23.710  34.370   8.564
 1248POPC   C2B18704  23.709  34.308   8.264
 1248POPC   C3B18705  23.640  34.302   7.964
 1248POPC   C4B18706  23.636  34.314   7.664
 1249POPC   NC318707  40.801  36.110   9.464
 1249POPC   PO418708  40.831  36.143   9.164
 1249POPC   GL118709  40.825  36.117   8.864
 1249POPC   GL218710  40.908  36.040   8.864
 1249POPC   C1A18711  40.784  36.095   8.564
 1249POPC   D2A18712  40.736  36.155   8.264
 1249POPC   C3A18713  40.808  36.087   7.964
 1249POPC   C4A18714  40.824  36.138   7.664
 1249POPC   C1B18715  40.948  35.959   8.564
 1249POPC   C2B18716  40.934  35.970   8.264
 1249POPC   C3B18717  40.947  35.945   7.964
 1249POPC   C4B18718  40.977  36.005   7.664
 1250POPC   NC318719   5.064  10.500   9.464
 1250POPC   PO418720   5.080  10.533   9.164
 1250POPC   GL118721   5.057  10.513   8.864
 1250POPC   GL218722   4.973  10.586   8.864
 1250POPC   C1A18723   5.100  10.561   8.564
 1250POPC   D2A18724   5.047  10.484   8.264
 1250POPC   C3A18725   5.067  10.499   7.964
 1250POPC   C4A18726   5.128  10.523   7.664
 1250POPC   C1B18727   4.827  10.531   8.564
 1250POPC   C2B18728   4.811  10.575   8.264
 1250POPC   C3B18729   4.890  10.517   7.964
 1250POPC   C4B18730   4.879  10.507   7.664
 1251POPC   NC318731  23.718  22.114   9.464
 1251POPC   PO418732  23.690  22.183   9.164
 1251POPC   GL118733  23.722  22.131   8.864
 1251POPC   GL218734  23.693  22.050   8.864
 1251POPC   C1A18735  23.747  22.184   8.564
 1251POPC   D2A18736  23.697  22.196   8.264
 1251POPC   C3A18737  23.761  22.185   7.964
 1251POPC   C4A18738  23.734  22.159   7.664
 1251POPC   C1B18739  23.597  21.984   8.564
 1251POPC   C2B18740  23.550  21.907   8.264
 1251POPC   C3B18741  23.601  21.936   7.964
 1251POPC   C4B18742  23.566  21.949   7.664
 1252POPC   NC318743  16.761  30.649   9.464
 1252POPC   PO418744  16.769  30.696   9.164
 1252POPC   GL118745  16.762  30.661   8.864
 1252POPC   GL218746  16.625  30.804   8.864
 1252POPC   C1A18747  16.713  30.684   8.564
 1252POPC   D2A18748  16.703  30.687   8.264
 1252POPC   C3A18749  16.702  30.683   7.964
 1252POPC   C4A18750  16.726  30.668   7.664
 1252POPC   C1B18751  16.614  30.943   8.564
 1252POPC   C2B18752  16.624  30.939   8.264
 1252POPC   C3B18753  16.560  30.904   7.964
 1252POPC   C4B18754  16.633  30.919   7.664
 1253POPC   NC318755  23.746   0.471   9.464
 1253POPC   PO418756  23.734   0.396   9.164
 1253POPC   GL118757  23.674   0.409   8.864
 1253POPC   GL218758  23.545   0.459   8.864
 1253POPC   C1A18759  23.760   0.469   8.564
 1253POPC   D2A18760  23.676   0.470   8.264
 1253POPC   C3A18761  23.704   0.486   7.964
 1253POPC   C4A18762  23.676   0.410   7.664
 1253POPC   C1B18763  23.448   0.514   8.564
 1253POPC   C2B18764  23.424   0.509   8.264
 1253POPC   C3B18765  23.510   0.437   7.964
 1253POPC   C4B18766  23.453   0.473   7.664
 1254POPC   NC318767  31.449  14.404   9.464
 1254POPC   PO418768  31.496  14.415   9.164
 1254POPC   GL118769  31.468  14.363   8.864
 1254POPC   GL218770  31.537  14.445   8.864
 1254POPC   C1A18771  31.450  14.368   8.564
 1254POPC   D2A18772  31.430  14.394   8.264
 1254POPC   C3A18773  31.422  14.372   7.964
 1254POPC   C4A18774  31.441  14.420   7.664
 1254POPC   C1B18775  31.708  14.594   8.564
 1254POPC   C2B18776  31.695  14.555   8.264
 1254POPC   C3B18777  31.718  14.535   7.964
 1254POPC   C4B18778  31.706  14.514   7.664
 1255POPC   NC318779  26.796  13.619   9.464
 1255POPC   PO418780  26.848  13.598   9.164
 1255POPC   GL118781  26.846  13.629   8.864
 1255POPC   GL218782  26.832  13.702   8.864
 1255POPC   C1A18783  26.843  13.656   8.564
 1255POPC   D2A18784  26.838  13.610   8.264
 1255POPC   C3A18785  26.841  13.606   7.964
 1255POPC   C4A18786  26.839  13.654   7.664
 1255POPC   C1B18787  26.894  13.845   8.564
 1255POPC   C2B18788  26.835  13.920   8.264
 1255POPC   C3B18789  26.907  13.918   7.964
 1255POPC   C4B18790  26.856  13.830   7.664
 1256POPC   NC318791   3.544  25.259   9.464
 1256POPC   PO418792   3.551  25.305   9.164
 1256POPC   GL118793   3.520  25.255   8.864
 1256POPC   GL218794   3.469  25.356   8.864
 1256POPC   C1A18795   3.505  25.264   8.564
 1256POPC   D2A18796   3.555  25.284   8.264
 1256POPC   C3A18797   3.558  25.250   7.964
 1256POPC   C4A18798   3.503  25.241   7.664
 1256POPC   C1B18799   3.276  25.359   8.564
 1256POPC   C2B18800   3.303  25.430   8.264
 1256POPC   C3B18801   3.336  25.336   7.964
 1256POPC   C4B18802   3.349  25.342   7.664
 1257POPC   NC318803  22.131  38.452   9.464
 1257POPC   PO418804  22.154  38.430   9.164
 1257POPC   GL118805  22.187  38.448   8.864
 1257POPC   GL218806  22.285  38.464   8.864
 1257POPC   C1A18807  22.146  38.500   8.564
 1257POPC   D2A18808  22.166  38.441   8.264
 1257POPC   C3A18809  22.121  38.447   7.964
 1257POPC   C4A18810  22.208  38.444   7.664
 1257POPC   C1B18811  22.367  38.399   8.564
 1257POPC   C2B18812  22.443  38.441   8.264
 1257POPC   C3B18813  22.399  38.433   7.964
 1257POPC   C4B18814  22.421  38.425   7.664
 1258POPC   NC318815  42.299  22.964   9.464
 1258POPC   PO418816  42.376  22.917   9.164
 1258POPC   GL118817  42.370  22.908   8.864
 1258POPC   GL218818  42.436  22.983   8.864
 1258POPC   C1A18819  42.303  22.920   8.564
 1258POPC   D2A18820  42.342  22.926   8.264
 1258POPC   C3A18821  42.352  22.967   7.964
 1258POPC   C4A18822  42.355  22.940   7.664
 1258POPC   C1B18823  42.535  23.086   8.564
 1258POPC   C2B18824  42.530  23.165   8.264
 1258POPC   C3B18825  42.547  23.143   7.964
 1258POPC   C4B18826  42.481  23.118   7.664
 1259POPC   NC318827  15.162   5.915   9.464
 1259POPC   PO418828  15.180   5.904   9.164
 1259POPC   GL118829  15.130   5.827   8.864
 1259POPC   GL218830  15.044   5.746   8.864
 1259POPC   C1A18831  15.156   5.875   8.564
 1259POPC   D2A18832  15.129   5.873   8.264
 1259POPC   C3A18833  15.227   5.828   7.964
 1259POPC   C4A18834  15.192   5.834   7.664
 1259POPC   C1B18835  15.052   5.719   8.564
 1259POPC   C2B18836  14.986   5.724   8.264
 1259POPC   C3B18837  15.010   5.713   7.964
 1259POPC   C4B18838  15.034   5.667   7.664
 1260POPC   NC318839   4.291  18.238   9.464
 1260POPC   PO418840   4.319  18.285   9.164
 1260POPC   GL118841   4.334  18.252   8.864
 1260POPC   GL218842   4.286  18.149   8.864
 1260POPC   C1A18843   4.355  18.261   8.564
 1260POPC   D2A18844   4.337  18.306   8.264
 1260POPC   C3A18845   4.355  18.245   7.964
 1260POPC   C4A18846   4.341  18.260   7.664
 1260POPC   C1B18847   4.163  18.063   8.564
 1260POPC   C2B18848   4.197  18.050   8.264
 1260POPC   C3B18849   4.249  18.049   7.964
 1260POPC   C4B18850   4.162  18.028   7.664
 1261POPC   NC318851  14.384   4.347   9.464
 1261POPC   PO418852  14.405   4.361   9.164
 1261POPC   GL118853  14.419   4.294   8.864
 1261POPC   GL218854  14.475   4.216   8.864
 1261POPC   C1A18855  14.374   4.364   8.564
 1261POPC   D2A18856  14.406   4.325   8.264
 1261POPC   C3A18857  14.356   4.340   7.964
 1261POPC   C4A18858  14.376   4.329   7.664
 1261POPC   C1B18859  14.568   4.102   8.564
 1261POPC   C2B18860  14.553   4.122   8.264
 1261POPC   C3B18861  14.502   4.081   7.964
 1261POPC   C4B18862  14.568   4.075   7.664
 1262POPC   NC318863  14.409  33.756   9.464
 1262POPC   PO418864  14.388  33.833   9.164
 1262POPC   GL118865  14.415  33.786   8.864
 1262POPC   GL218866  14.266  33.740   8.864
 1262POPC   C1A18867  14.363  33.838   8.564
 1262POPC   D2A18868  14.385  33.792   8.264
 1262POPC   C3A18869  14.354  33.817   7.964
 1262POPC   C4A18870  14.376  33.813   7.664
 1262POPC   C1B18871  14.113  33.773   8.564
 1262POPC   C2B18872  14.121  33.755   8.264
 1262POPC   C3B18873  14.118  33.786   7.964
 1262POPC   C4B18874  14.181  33.744   7.664
 1263POPC   NC318875  38.461  26.773   9.464
 1263POPC   PO418876  38.443  26.818   9.164
 1263POPC   GL118877  38.456  26.844   8.864
 1263POPC   GL218878  38.328  26.857   8.864
 1263POPC   C1A18879  38.505  26.799   8.564
 1263POPC   D2A18880  38.488  26.863   8.264
 1263POPC   C3A18881  38.486  26.817   7.964
 1263POPC   C4A18882  38.434  26.776   7.664
 1263POPC   C1B18883  38.267  26.980   8.564
 1263POPC   C2B18884  38.265  26.973   8.264
 1263POPC   C3B18885  38.203  26.953   7.964
 1263POPC   C4B18886  38.222  26.972   7.664
 1264POPC   NC318887  21.374   4.279   9.464
 1264POPC   PO418888  21.350   4.359   9.164
 1264POPC   GL118889  21.417   4.333   8.864
 1264POPC   GL218890  21.463   4.208   8.864
 1264POPC   C1A18891  21.340   4.357   8.564
 1264POPC   D2A18892  21.381   4.288   8.264
 1264POPC   C3A18893  21.429   4.362   7.964
 1264POPC   C4A18894  21.361   4.273   7.664
 1264POPC   C1B18895  21.578   4.088   8.564
 1264POPC   C2B18896  21.520   4.120   8.264
 1264POPC   C3B18897  21.537   4.088   7.964
 1264POPC   C4B18898  21.547   4.089   7.664
 1265POPC   NC318899  40.740  26.789   9.464
 1265POPC   PO418900  40.795  26.773   9.164
 1265POPC   GL118901  40.767  26.810   8.864
 1265POPC   GL218902  40.665  26.721   8.864
 1265POPC   C1A18903  40.800  26.774   8.564
 1265POPC   D2A18904  40.747  26.813   8.264
 1265POPC   C3A18905  40.771  26.811   7.964
 1265POPC   C4A18906  40.820  26.776   7.664
 1265POPC   C1B18907  40.628  26.673   8.564
 1265POPC   C2B18908  40.602  26.632   8.264
 1265POPC   C3B18909  40.641  26.647   7.964
 1265POPC   C4B18910  40.647  26.673   7.664
 1266POPC   NC318911  12.032  18.261   9.464
 1266POPC   PO418912  12.058  18.284   9.164
 1266POPC   GL118913  12.118  18.330   8.864
 1266POPC   GL218914  12.040  18.149   8.864
 1266POPC   C1A18915  12.097  18.300   8.564
 1266POPC   D2A18916  12.066  18.264   8.264
 1266POPC   C3A18917  12.123  18.325   7.964
 1266POPC   C4A18918  12.055  18.317   7.664
 1266POPC   C1B18919  11.915  18.032   8.564
 1266POPC   C2B18920  11.974  18.072   8.264
 1266POPC   C3B18921  11.880  18.125   7.964
 1266POPC   C4B18922  11.930  18.041   7.664
 1267POPC   NC318923  18.310  13.598   9.464
 1267POPC   PO418924  18.268  13.650   9.164
 1267POPC   GL118925  18.332  13.615   8.864
 1267POPC   GL218926  18.235  13.581   8.864
 1267POPC   C1A18927  18.253  13.600   8.564
 1267POPC   D2A18928  18.235  13.649   8.264
 1267POPC   C3A18929  18.234  13.675   7.964
 1267POPC   C4A18930  18.262  13.658   7.664
 1267POPC   C1B18931  18.096  13.450   8.564
 1267POPC   C2B18932  18.149  13.456   8.264
 1267POPC   C3B18933  18.134  13.474   7.964
 1267POPC   C4B18934  18.088  13.461   7.664
 1268POPC   NC318935  32.295  25.253   9.464
 1268POPC   PO418936  32.201  25.216   9.164
 1268POPC   GL118937  32.279  25.243   8.864
 1268POPC   GL218938  32.248  25.103   8.864
 1268POPC   C1A18939  32.285  25.244   8.564
 1268POPC   D2A18940  32.217  25.258   8.264
 1268POPC   C3A18941  32.203  25.310   7.964
 1268POPC   C4A18942  32.294  25.287   7.664
 1268POPC   C1B18943  32.238  25.060   8.564
 1268POPC   C2B18944  32.271  25.016   8.264
 1268POPC   C3B18945  32.222  25.002   7.964
 1268POPC   C4B18946  32.229  25.030   7.664
 1269POPC   NC318947  26.063  37.728   9.464
 1269POPC   PO418948  26.017  37.684   9.164
 1269POPC   GL118949  26.076  37.673   8.864
 1269POPC   GL218950  26.165  37.750   8.864
 1269POPC   C1A18951  26.045  37.708   8.564
 1269POPC   D2A18952  25.998  37.684   8.264
 1269POPC   C3A18953  26.068  37.715   7.964
 1269POPC   C4A18954  26.039  37.686   7.664
 1269POPC   C1B18955  26.261  37.769   8.564
 1269POPC   C2B18956  26.315  37.808   8.264
 1269POPC   C3B18957  26.291  37.818   7.964
 1269POPC   C4B18958  26.256  37.757   7.664
 1270POPC   NC318959  39.184  18.247   9.464
 1270POPC   PO418960  39.216  18.297   9.164
 1270POPC   GL118961  39.193  18.234   8.864
 1270POPC   GL218962  39.385  18.247   8.864
 1270POPC   C1A18963  39.249  18.321   8.564
 1270POPC   D2A18964  39.274  18.291   8.264
 1270POPC   C3A18965  39.190  18.274   7.964
 1270POPC   C4A18966  39.270  18.305   7.664
 1270POPC   C1B18967  39.455  18.251   8.564
 1270POPC   C2B18968  39.435  18.309   8.264
 1270POPC   C3B18969  39.472  18.284   7.964
 1270POPC   C4B18970  39.466  18.298   7.664
 1271POPC   NC318971  24.501  29.873   9.464
 1271POPC   PO418972  24.475  29.901   9.164
 1271POPC   GL118973  24.465  29.940   8.864
 1271POPC   GL218974  24.631  30.003   8.864
 1271POPC   C1A18975  24.482  29.910   8.564
 1271POPC   D2A18976  24.451  29.926   8.264
 1271POPC   C3A18977  24.454  29.937   7.964
 1271POPC   C4A18978  24.452  29.902   7.664
 1271POPC   C1B18979  24.770  30.021   8.564
 1271POPC   C2B18980  24.720  30.037   8.264
 1271POPC   C3B18981  24.762  30.043   7.964
 1271POPC   C4B18982  24.723  29.958   7.664
 1272POPC   NC318983  13.671  32.984   9.464
 1272POPC   PO418984  13.615  33.008   9.164
 1272POPC   GL118985  13.611  32.987   8.864
 1272POPC   GL218986  13.735  33.017   8.864
 1272POPC   C1A18987  13.580  33.013   8.564
 1272POPC   D2A18988  13.635  33.024   8.264
 1272POPC   C3A18989  13.627  32.999   7.964
 1272POPC   C4A18990  13.616  33.028   7.664
 1272POPC   C1B18991  13.893  32.919   8.564
 1272POPC   C2B18992  13.853  32.929   8.264
 1272POPC   C3B18993  13.895  32.906   7.964
 1272POPC   C4B18994  13.831  32.927   7.664
 1273POPC   NC318995  40.817   3.537   9.464
 1273POPC   PO418996  40.759   3.577   9.164
 1273POPC   GL118997  40.805   3.566   8.864
 1273POPC   GL218998  40.744   3.404   8.864
 1273POPC   C1A18999  40.758   3.555   8.564
 1273POPC   D2A19000  40.816   3.508   8.264
 1273POPC   C3A19001  40.749   3.588   7.964
 1273POPC   C4A19002  40.775   3.524   7.664
 1273POPC   C1B19003  40.683   3.339   8.564
 1273POPC   C2B19004  40.688   3.312   8.264
 1273POPC   C3B19005  40.757   3.316   7.964
 1273POPC   C4B19006  40.681   3.295   7.664
 1274POPC   NC319007  38.454  24.458   9.464
 1274POPC   PO419008  38.472  24.499   9.164
 1274POPC   GL119009  38.455  24.505   8.864
 1274POPC   GL219010  38.505  24.353   8.864
 1274POPC   C1A19011  38.494  24.481   8.564
 1274POPC   D2A19012  38.465  24.494   8.264
 1274POPC   C3A19013  38.501  24.533   7.964
 1274POPC   C4A19014  38.430  24.537   7.664
 1274POPC   C1B19015  38.526  24.244   8.564
 1274POPC   C2B19016  38.525  24.247   8.264
 1274POPC   C3B19017  38.506  24.217   7.964
 1274POPC   C4B19018  38.527  24.216   7.664
 1275POPC   NC319019  41.587  40.751   9.464
 1275POPC   PO419020  41.514  40.775   9.164
 1275POPC   GL119021  41.605  40.815   8.864
 1275POPC   GL219022  41.630  40.882   8.864
 1275POPC   C1A19023  41.594  40.775   8.564
 1275POPC   D2A19024  41.558  40.735   8.264
 1275POPC   C3A19025  41.600  40.775   7.964
 1275POPC   C4A19026  41.509  40.763   7.664
 1275POPC   C1B19027  41.730  40.947   8.564
 1275POPC   C2B19028  41.715  40.893   8.264
 1275POPC   C3B19029  41.747  40.897   7.964
 1275POPC   C4B19030  41.780  40.965   7.664
 1276POPC   NC319031  42.365  12.078   9.464
 1276POPC   PO419032  42.333  12.063   9.164
 1276POPC   GL119033  42.295  12.068   8.864
 1276POPC   GL219034  42.447  11.981   8.864
 1276POPC   C1A19035  42.347  12.052   8.564
 1276POPC   D2A19036  42.332  12.102   8.264
 1276POPC   C3A19037  42.319  12.070   7.964
 1276POPC   C4A19038  42.384  12.104   7.664
 1276POPC   C1B19039  42.466  11.900   8.564
 1276POPC   C2B19040  42.484  11.880   8.264
 1276POPC   C3B19041  42.463  11.877   7.964
 1276POPC   C4B19042  42.431  11.849   7.664
 1277POPC   NC319043  39.995  42.359   9.464
 1277POPC   PO419044  39.958  42.351   9.164
 1277POPC   GL119045  39.992  42.341   8.864
 1277POPC   GL219046  39.850  42.281   8.864
 1277POPC   C1A19047  40.044  42.334   8.564
 1277POPC   D2A19048  40.006  42.363   8.264
 1277POPC   C3A19049  39.995  42.372   7.964
 1277POPC   C4A19050  40.040  42.353   7.664
 1277POPC   C1B19051  39.738  42.306   8.564
 1277POPC   C2B19052  39.763  42.305   8.264
 1277POPC   C3B19053  39.754  42.247   7.964
 1277POPC   C4B19054  39.741  42.249   7.664
 1278POPC   NC319055   5.098  34.549   9.464
 1278POPC   PO419056   5.112  34.624   9.164
 1278POPC   GL119057   5.135  34.605   8.864
 1278POPC   GL219058   4.986  34.658   8.864
 1278POPC   C1A19059   5.117  34.599   8.564
 1278POPC   D2A19060   5.080  34.615   8.264
 1278POPC   C3A19061   5.091  34.591   7.964
 1278POPC   C4A19062   5.119  34.539   7.664
 1278POPC   C1B19063   4.900  34.794   8.564
 1278POPC   C2B19064   4.932  34.760   8.264
 1278POPC   C3B19065   4.926  34.749   7.964
 1278POPC   C4B19066   4.935  34.778   7.664
 1279POPC   NC319067   0.458   6.680   9.464
 1279POPC   PO419068   0.453   6.669   9.164
 1279POPC   GL119069   0.403   6.654   8.864
 1279POPC   GL219070   0.540   6.638   8.864
 1279POPC   C1A19071   0.435   6.657   8.564
 1279POPC   D2A19072   0.392   6.695   8.264
 1279POPC   C3A19073   0.465   6.595   7.964
 1279POPC   C4A19074   0.400   6.651   7.664
 1279POPC   C1B19075   0.722   6.637   8.564
 1279POPC   C2B19076   0.645   6.615   8.264
 1279POPC   C3B19077   0.685   6.642   7.964
 1279POPC   C4B19078   0.683   6.557   7.664
 1280POPC   NC319079  16.732  22.932   9.464
 1280POPC   PO419080  16.702  22.936   9.164
 1280POPC   GL119081  16.771  22.918   8.864
 1280POPC   GL219082  16.810  22.920   8.864
 1280POPC   C1A19083  16.756  22.947   8.564
 1280POPC   D2A19084  16.766  22.892   8.264
 1280POPC   C3A19085  16.710  22.892   7.964
 1280POPC   C4A19086  16.743  22.894   7.664
 1280POPC   C1B19087  16.953  23.019   8.564
 1280POPC   C2B19088  16.985  23.022   8.264
 1280POPC   C3B19089  16.953  22.973   7.964
 1280POPC   C4B19090  16.993  23.010   7.664
 1281POPC   NC319091  22.178  11.320   9.464
 1281POPC   PO419092  22.178  11.320   9.164
 1281POPC   GL119093  22.202  11.349   8.864
 1281POPC   GL219094  22.179  11.403   8.864
 1281POPC   C1A19095  22.207  11.318   8.564
 1281POPC   D2A19096  22.114  11.304   8.264
 1281POPC   C3A19097  22.139  11.262   7.964
 1281POPC   C4A19098  22.186  11.298   7.664
 1281POPC   C1B19099  22.085  11.504   8.564
 1281POPC   C2B19100  22.100  11.550   8.264
 1281POPC   C3B19101  22.140  11.556   7.964
 1281POPC   C4B19102  22.144  11.521   7.664
 1282POPC   NC319103  15.979  36.102   9.464
 1282POPC   PO419104  15.940  36.079   9.164
 1282POPC   GL119105  15.980  36.169   8.864
 1282POPC   GL219106  15.896  35.980   8.864
 1282POPC   C1A19107  15.988  36.088   8.564
 1282POPC   D2A19108  15.948  36.128   8.264
 1282POPC   C3A19109  15.981  36.081   7.964
 1282POPC   C4A19110  15.953  36.114   7.664
 1282POPC   C1B19111  15.881  35.890   8.564
 1282POPC   C2B19112  15.839  35.869   8.264
 1282POPC   C3B19113  15.869  35.852   7.964
 1282POPC   C4B19114  15.844  35.894   7.664
 1283POPC   NC319115   0.458   2.799   9.464
 1283POPC   PO419116   0.428   2.761   9.164
 1283POPC   GL119117   0.480   2.769   8.864
 1283POPC   GL219118   0.547   2.626   8.864
 1283POPC   C1A19119   0.439   2.738   8.564
 1283POPC   D2A19120   0.411   2.720   8.264
 1283POPC   C3A19121   0.477   2.787   7.964
 1283POPC   C4A19122   0.485   2.785   7.664
 1283POPC   C1B19123   0.590   2.575   8.564
 1283POPC   C2B19124   0.607   2.601   8.264
 1283POPC   C3B19125   0.577   2.605   7.964
 1283POPC   C4B19126   0.575   2.604   7.664
 1284POPC   NC319127  43.872  38.477   9.464
 1284POPC   PO419128  43.932  38.491   9.164
 1284POPC   GL119129  43.846  38.480   8.864
 1284POPC   GL219130  43.890  38.593   8.864
 1284POPC   C1A19131  43.840  38.472   8.564
 1284POPC   D2A19132  43.875  38.418   8.264
 1284POPC   C3A19133  43.845  38.437   7.964
 1284POPC   C4A19134  43.866  38.429   7.664
 1284POPC   C1B19135  43.935  38.741   8.564
 1284POPC   C2B19136  43.951  38.691   8.264
 1284POPC   C3B19137  43.954  38.669   7.964
 1284POPC   C4B19138  43.963  38.748   7.664
 1285POPC   NC319139  30.721  32.995   9.464
 1285POPC   PO419140  30.740  33.025   9.164
 1285POPC   GL119141  30.703  33.036   8.864
 1285POPC   GL219142  30.799  33.004   8.864
 1285POPC   C1A19143  30.721  32.986   8.564
 1285POPC   D2A19144  30.682  32.991   8.264
 1285POPC   C3A19145  30.726  33.018   7.964
 1285POPC   C4A19146  30.690  32.987   7.664
 1285POPC   C1B19147  30.943  32.951   8.564
 1285POPC   C2B19148  30.979  33.030   8.264
 1285POPC   C3B19149  30.905  33.014   7.964
 1285POPC   C4B19150  30.962  33.038   7.664
 1286POPC   NC319151   4.280  29.122   9.464
 1286POPC   PO419152   4.268  29.138   9.164
 1286POPC   GL119153   4.293  29.186   8.864
 1286POPC   GL219154   4.254  29.290   8.864
 1286POPC   C1A19155   4.328  29.169   8.564
 1286POPC   D2A19156   4.299  29.161   8.264
 1286POPC   C3A19157   4.332  29.147   7.964
 1286POPC   C4A19158   4.331  29.104   7.664
 1286POPC   C1B19159   4.155  29.360   8.564
 1286POPC   C2B19160   4.132  29.325   8.264
 1286POPC   C3B19161   4.190  29.393   7.964
 1286POPC   C4B19162   4.142  29.344   7.664
 1287POPC   NC319163  19.832  12.863   9.464
 1287POPC   PO419164  19.838  12.876   9.164
 1287POPC   GL119165  19.787  12.846   8.864
 1287POPC   GL219166  19.692  12.900   8.864
 1287POPC   C1A19167  19.797  12.818   8.564
 1287POPC   D2A19168  19.796  12.826   8.264
 1287POPC   C3A19169  19.860  12.831   7.964
 1287POPC   C4A19170  19.801  12.831   7.664
 1287POPC   C1B19171  19.591  12.886   8.564
 1287POPC   C2B19172  19.550  12.905   8.264
 1287POPC   C3B19173  19.635  12.954   7.964
 1287POPC   C4B19174  19.592  12.949   7.664
 1288POPC   NC319175  19.869  43.855   9.464
 1288POPC   PO419176  19.812  43.908   9.164
 1288POPC   GL119177  19.874  43.858   8.864
 1288POPC   GL219178  19.917  43.806   8.864
 1288POPC   C1A19179  19.804  43.912   8.564
 1288POPC   D2A19180  19.823  43.935   8.264
 1288POPC   C3A19181  19.839  43.912   7.964
 1288POPC   C4A19182  19.791  43.881   7.664
 1288POPC   C1B19183  20.024  43.797   8.564
 1288POPC   C2B19184  20.093  43.757   8.264
 1288POPC   C3B19185  20.078  43.765   7.964
 1288POPC   C4B19186  20.048  43.786   7.664
 1289POPC   NC319187  31.447  22.211   9.464
 1289POPC   PO419188  31.439  22.199   9.164
 1289POPC   GL119189  31.509  22.206   8.864
 1289POPC   GL219190  31.507  22.317   8.864
 1289POPC   C1A19191  31.442  22.150   8.564
 1289POPC   D2A19192  31.442  22.152   8.264
 1289POPC   C3A19193  31.460  22.195   7.964
 1289POPC   C4A19194  31.439  22.144   7.664
 1289POPC   C1B19195  31.592  22.413   8.564
 1289POPC   C2B19196  31.603  22.400   8.264
 1289POPC   C3B19197  31.596  22.406   7.964
 1289POPC   C4B19198  31.534  22.354   7.664
 1290POPC   NC319199  10.531  27.570   9.464
 1290POPC   PO419200  10.566  27.585   9.164
 1290POPC   GL119201  10.487  27.591   8.864
 1290POPC   GL219202  10.461  27.697   8.864
 1290POPC   C1A19203  10.511  27.571   8.564
 1290POPC   D2A19204  10.529  27.639   8.264
 1290POPC   C3A19205  10.481  27.549   7.964
 1290POPC   C4A19206  10.555  27.584   7.664
 1290POPC   C1B19207  10.361  27.733   8.564
 1290POPC   C2B19208  10.380  27.756   8.264
 1290POPC   C3B19209  10.282  27.732   7.964
 1290POPC   C4B19210  10.347  27.724   7.664
 1291POPC   NC319211  27.587  31.452   9.464
 1291POPC   PO419212  27.550  31.470   9.164
 1291POPC   GL119213  27.586  31.452   8.864
 1291POPC   GL219214  27.532  31.572   8.864
 1291POPC   C1A19215  27.598  31.423   8.564
 1291POPC   D2A19216  27.638  31.498   8.264
 1291POPC   C3A19217  27.614  31.507   7.964
 1291POPC   C4A19218  27.604  31.510   7.664
 1291POPC   C1B19219  27.436  31.718   8.564
 1291POPC   C2B19220  27.439  31.645   8.264
 1291POPC   C3B19221  27.434  31.699   7.964
 1291POPC   C4B19222  27.459  31.691   7.664
 1292POPC   NC319223  20.647  40.039   9.464
 1292POPC   PO419224  20.609  40.040   9.164
 1292POPC   GL119225  20.616  40.009   8.864
 1292POPC   GL219226  20.493  39.964   8.864
 1292POPC   C1A19227  20.575  39.996   8.564
 1292POPC   D2A19228  20.633  39.980   8.264
 1292POPC   C3A19229  20.561  39.989   7.964
 1292POPC   C4A19230  20.576  39.968   7.664
 1292POPC   C1B19231  20.435  39.839   8.564
 1292POPC   C2B19232  20.427  39.827   8.264
 1292POPC   C3B19233  20.482  39.794   7.964
 1292POPC   C4B19234  20.409  39.865   7.664
 1293POPC   NC319235  10.500  32.205   9.464
 1293POPC   PO419236  10.536  32.268   9.164
 1293POPC   GL119237  10.487  32.291   8.864
 1293POPC   GL219238  10.549  32.404   8.864
 1293POPC   C1A19239  10.571  32.297   8.564
 1293POPC   D2A19240  10.503  32.238   8.264
 1293POPC   C3A19241  10.523  32.269   7.964
 1293POPC   C4A19242  10.556  32.263   7.664
 1293POPC   C1B19243  10.534  32.456   8.564
 1293POPC   C2B19244  10.522  32.463   8.264
 1293POPC   C3B19245  10.609  32.458   7.964
 1293POPC   C4B19246  10.589  32.447   7.664
 1294POPC   NC319247  44.675  27.626   9.464
 1294POPC   PO419248  44.670  27.599   9.164
 1294POPC   GL119249  44.649  27.633   8.864
 1294POPC   GL219250  44.516  27.642   8.864
 1294POPC   C1A19251  44.629  27.578   8.564
 1294POPC   D2A19252  44.616  27.560   8.264
 1294POPC   C3A19253  44.619  27.554   7.964
 1294POPC   C4A19254  44.672  27.551   7.664
 1294POPC   C1B19255  44.401  27.599   8.564
 1294POPC   C2B19256  44.448  27.641   8.264
 1294POPC   C3B19257  44.420  27.622   7.964
 1294POPC   C4B19258  44.456  27.557   7.664
 1295POPC   NC319259  31.496  33.002   9.464
 1295POPC   PO419260  31.445  33.072   9.164
 1295POPC   GL119261  31.496  33.055   8.864
 1295POPC   GL219262  31.571  33.133   8.864
 1295POPC   C1A19263  31.487  33.008   8.564
 1295POPC   D2A19264  31.500  33.024   8.264
 1295POPC   C3A19265  31.455  33.017   7.964
 1295POPC   C4A19266  31.478  33.007   7.664
 1295POPC   C1B19267  31.665  33.170   8.564
 1295POPC   C2B19268  31.663  33.191   8.264
 1295POPC   C3B19269  31.695  33.218   7.964
 1295POPC   C4B19270  31.622  33.218   7.664
 1296POPC   NC319271  11.339  14.373   9.464
 1296POPC   PO419272  11.279  14.436   9.164
 1296POPC   GL119273  11.253  14.382   8.864
 1296POPC   GL219274  11.382  14.347   8.864
 1296POPC   C1A19275  11.320  14.394   8.564
 1296POPC   D2A19276  11.333  14.369   8.264
 1296POPC   C3A19277  11.259  14.390   7.964
 1296POPC   C4A19278  11.291  14.425   7.664
 1296POPC   C1B19279  11.530  14.214   8.564
 1296POPC   C2B19280  11.469  14.254   8.264
 1296POPC   C3B19281  11.443  14.277   7.964
 1296POPC   C4B19282  11.502  14.266   7.664
 1297POPC   NC319283  10.527  39.998   9.464
 1297POPC   PO419284  10.551  39.964   9.164
 1297POPC   GL119285  10.507  39.979   8.864
 1297POPC   GL219286  10.631  39.979   8.864
 1297POPC   C1A19287  10.513  40.015   8.564
 1297POPC   D2A19288  10.525  40.024   8.264
 1297POPC   C3A19289  10.527  39.960   7.964
 1297POPC   C4A19290  10.524  40.002   7.664
 1297POPC   C1B19291  10.776  39.883   8.564
 1297POPC   C2B19292  10.724  39.880   8.264
 1297POPC   C3B19293  10.742  39.878   7.964
 1297POPC   C4B19294  10.783  39.841   7.664
 1298POPC   NC319295  39.268  19.095   9.464
 1298POPC   PO419296  39.235  19.041   9.164
 1298POPC   GL119297  39.270  19.047   8.864
 1298POPC   GL219298  39.273  18.898   8.864
 1298POPC   C1A19299  39.244  19.078   8.564
 1298POPC   D2A19300  39.189  19.066   8.264
 1298POPC   C3A19301  39.267  19.039   7.964
 1298POPC   C4A19302  39.241  19.014   7.664
 1298POPC   C1B19303  39.319  18.849   8.564
 1298POPC   C2B19304  39.290  18.792   8.264
 1298POPC   C3B19305  39.239  18.854   7.964
 1298POPC   C4B19306  39.246  18.813   7.664
 1299POPC   NC319307  15.946  26.058   9.464
 1299POPC   PO419308  16.001  26.066   9.164
 1299POPC   GL119309  15.947  25.998   8.864
 1299POPC   GL219310  16.062  25.899   8.864
 1299POPC   C1A19311  15.957  26.004   8.564
 1299POPC   D2A19312  16.005  26.001   8.264
 1299POPC   C3A19313  15.909  26.005   7.964
 1299POPC   C4A19314  15.998  25.996   7.664
 1299POPC   C1B19315  16.042  25.794   8.564
 1299POPC   C2B19316  16.070  25.838   8.264
 1299POPC   C3B19317  16.114  25.846   7.964
 1299POPC   C4B19318  16.105  25.839   7.664
 1300POPC   NC319319  12.885  33.829   9.464
 1300POPC   PO419320  12.888  33.775   9.164
 1300POPC   GL119321  12.860  33.829   8.864
 1300POPC   GL219322  13.006  33.768   8.864
 1300POPC   C1A19323  12.858  33.824   8.564
 1300POPC   D2A19324  12.855  33.825   8.264
 1300POPC   C3A19325  12.887  33.788   7.964
 1300POPC   C4A19326  12.854  33.807   7.664
 1300POPC   C1B19327  13.099  33.713   8.564
 1300POPC   C2B19328  13.090  33.629   8.264
 1300POPC   C3B19329  13.085  33.633   7.964
 1300POPC   C4B19330  13.046  33.683   7.664
 1301POPC   NC319331   1.257  26.080   9.464
 1301POPC   PO419332   1.179  26.089   9.164
 1301POPC   GL119333   1.241  26.012   8.864
 1301POPC   GL219334   1.314  25.948   8.864
 1301POPC   C1A19335   1.226  25.997   8.564
 1301POPC   D2A19336   1.255  26.015   8.264
 1301POPC   C3A19337   1.185  26.079   7.964
 1301POPC   C4A19338   1.247  26.052   7.664
 1301POPC   C1B19339   1.462  25.854   8.564
 1301POPC   C2B19340   1.454  25.866   8.264
 1301POPC   C3B19341   1.396  25.939   7.964
 1301POPC   C4B19342   1.450  25.939   7.664
 1302POPC   NC319343  13.676   2.012   9.464
 1302POPC   PO419344  13.608   2.006   9.164
 1302POPC   GL119345  13.620   2.013   8.864
 1302POPC   GL219346  13.553   1.853   8.864
 1302POPC   C1A19347  13.657   2.014   8.564
 1302POPC   D2A19348  13.578   1.985   8.264
 1302POPC   C3A19349  13.619   2.015   7.964
 1302POPC   C4A19350  13.633   1.940   7.664
 1302POPC   C1B19351  13.564   1.790   8.564
 1302POPC   C2B19352  13.477   1.813   8.264
 1302POPC   C3B19353  13.495   1.749   7.964
 1302POPC   C4B19354  13.547   1.777   7.664
 1303POPC   NC319355  23.685  39.986   9.464
 1303POPC   PO419356  23.721  39.957   9.164
 1303POPC   GL119357  23.741  40.029   8.864
 1303POPC   GL219358  23.628  39.949   8.864
 1303POPC   C1A19359  23.744  40.037   8.564
 1303POPC   D2A19360  23.731  40.029   8.264
 1303POPC   C3A19361  23.745  40.054   7.964
 1303POPC   C4A19362  23.733  39.997   7.664
 1303POPC   C1B19363  23.528  39.814   8.564
 1303POPC   C2B19364  23.560  39.770   8.264
 1303POPC   C3B19365  23.540  39.768   7.964
 1303POPC   C4B19366  23.594  39.833   7.664
 1304POPC   NC319367   4.309   1.976   9.464
 1304POPC   PO419368   4.268   2.001   9.164
 1304POPC   GL119369   4.354   1.971   8.864
 1304POPC   GL219370   4.321   2.144   8.864
 1304POPC   C1A19371   4.323   1.941   8.564
 1304POPC   D2A19372   4.281   2.009   8.264
 1304POPC   C3A19373   4.346   1.943   7.964
 1304POPC   C4A19374   4.329   2.012   7.664
 1304POPC   C1B19375   4.240   2.262   8.564
 1304POPC   C2B19376   4.296   2.215   8.264
 1304POPC   C3B19377   4.266   2.199   7.964
 1304POPC   C4B19378   4.274   2.241   7.664
 1305POPC   NC319379  11.277  24.473   9.464
 1305POPC   PO419380  11.305  24.483   9.164
 1305POPC   GL119381  11.349  24.474   8.864
 1305POPC   GL219382  11.357  24.365   8.864
 1305POPC   C1A19383  11.346  24.520   8.564
 1305POPC   D2A19384  11.343  24.441   8.264
 1305POPC   C3A19385  11.309  24.478   7.964
 1305POPC   C4A19386  11.302  24.473   7.664
 1305POPC   C1B19387  11.441  24.317   8.564
 1305POPC   C2B19388  11.415  24.292   8.264
 1305POPC   C3B19389  11.472  24.333   7.964
 1305POPC   C4B19390  11.497  24.275   7.664
 1306POPC   NC319391   0.461  26.060   9.464
 1306POPC   PO419392   0.430  25.996   9.164
 1306POPC   GL119393   0.442  26.030   8.864
 1306POPC   GL219394   0.508  26.106   8.864
 1306POPC   C1A19395   0.419  26.030   8.564
 1306POPC   D2A19396   0.388  26.007   8.264
 1306POPC   C3A19397   0.477  26.045   7.964
 1306POPC   C4A19398   0.483  25.992   7.664
 1306POPC   C1B19399   0.570  26.293   8.564
 1306POPC   C2B19400   0.573  26.297   8.264
 1306POPC   C3B19401   0.588  26.258   7.964
 1306POPC   C4B19402   0.556  26.246   7.664
 1307POPC   NC319403  30.728  38.448   9.464
 1307POPC   PO419404  30.676  38.470   9.164
 1307POPC   GL119405  30.746  38.480   8.864
 1307POPC   GL219406  30.839  38.481   8.864
 1307POPC   C1A19407  30.677  38.422   8.564
 1307POPC   D2A19408  30.743  38.473   8.264
 1307POPC   C3A19409  30.739  38.487   7.964
 1307POPC   C4A19410  30.659  38.451   7.664
 1307POPC   C1B19411  30.906  38.565   8.564
 1307POPC   C2B19412  30.913  38.638   8.264
 1307POPC   C3B19413  30.863  38.543   7.964
 1307POPC   C4B19414  30.932  38.598   7.664
 1308POPC   NC319415  29.150   6.646   9.464
 1308POPC   PO419416  29.097   6.614   9.164
 1308POPC   GL119417  29.182   6.608   8.864
 1308POPC   GL219418  29.101   6.582   8.864
 1308POPC   C1A19419  29.191   6.676   8.564
 1308POPC   D2A19420  29.185   6.636   8.264
 1308POPC   C3A19421  29.120   6.687   7.964
 1308POPC   C4A19422  29.108   6.631   7.664
 1308POPC   C1B19423  29.026   6.438   8.564
 1308POPC   C2B19424  29.026   6.443   8.264
 1308POPC   C3B19425  29.017   6.402   7.964
 1308POPC   C4B19426  29.013   6.422   7.664
 1309POPC   NC319427   5.876  40.783   9.464
 1309POPC   PO419428   5.894  40.785   9.164
 1309POPC   GL119429   5.895  40.747   8.864
 1309POPC   GL219430   5.935  40.905   8.864
 1309POPC   C1A19431   5.904  40.768   8.564
 1309POPC   D2A19432   5.843  40.752   8.264
 1309POPC   C3A19433   5.871  40.751   7.964
 1309POPC   C4A19434   5.826  40.821   7.664
 1309POPC   C1B19435   6.013  40.988   8.564
 1309POPC   C2B19436   6.086  40.986   8.264
 1309POPC   C3B19437   6.013  40.978   7.964
 1309POPC   C4B19438   6.097  40.927   7.664
 1310POPC   NC319439  29.955  21.342   9.464
 1310POPC   PO419440  29.943  21.408   9.164
 1310POPC   GL119441  29.969  21.339   8.864
 1310POPC   GL219442  29.826  21.415   8.864
 1310POPC   C1A19443  29.968  21.363   8.564
 1310POPC   D2A19444  29.882  21.409   8.264
 1310POPC   C3A19445  29.907  21.344   7.964
 1310POPC   C4A19446  29.950  21.338   7.664
 1310POPC   C1B19447  29.660  21.503   8.564
 1310POPC   C2B19448  29.665  21.529   8.264
 1310POPC   C3B19449  29.726  21.496   7.964
 1310POPC   C4B19450  29.693  21.556   7.664
 1311POPC   NC319451  40.779  25.269   9.464
 1311POPC   PO419452  40.817  25.285   9.164
 1311POPC   GL119453  40.795  25.230   8.864
 1311POPC   GL219454  40.756  25.394   8.864
 1311POPC   C1A19455  40.790  25.296   8.564
 1311POPC   D2A19456  40.787  25.306   8.264
 1311POPC   C3A19457  40.735  25.263   7.964
 1311POPC   C4A19458  40.808  25.307   7.664
 1311POPC   C1B19459  40.666  25.434   8.564
 1311POPC   C2B19460  40.648  25.434   8.264
 1311POPC   C3B19461  40.699  25.531   7.964
 1311POPC   C4B19462  40.618  25.485   7.664
 1312POPC   NC319463  16.742   5.076   9.464
 1312POPC   PO419464  16.721   5.132   9.164
 1312POPC   GL119465  16.688   5.117   8.864
 1312POPC   GL219466  16.841   5.098   8.864
 1312POPC   C1A19467  16.695   5.131   8.564
 1312POPC   D2A19468  16.717   5.092   8.264
 1312POPC   C3A19469  16.754   5.097   7.964
 1312POPC   C4A19470  16.703   5.065   7.664
 1312POPC   C1B19471  16.945   5.102   8.564
 1312POPC   C2B19472  16.936   5.126   8.264
 1312POPC   C3B19473  16.981   5.112   7.964
 1312POPC   C4B19474  16.954   5.105   7.664
 1313POPC   NC319475  36.867  14.373   9.464
 1313POPC   PO419476  36.917  14.401   9.164
 1313POPC   GL119477  36.928  14.448   8.864
 1313POPC   GL219478  36.789  14.455   8.864
 1313POPC   C1A19479  36.878  14.404   8.564
 1313POPC   D2A19480  36.940  14.378   8.264
 1313POPC   C3A19481  36.910  14.451   7.964
 1313POPC   C4A19482  36.879  14.393   7.664
 1313POPC   C1B19483  36.679  14.420   8.564
 1313POPC   C2B19484  36.660  14.456   8.264
 1313POPC   C3B19485  36.693  14.443   7.964
 1313POPC   C4B19486  36.609  14.390   7.664
 1314POPC   NC319487  20.641  43.073   9.464
 1314POPC   PO419488  20.639  43.156   9.164
 1314POPC   GL119489  20.658  43.129   8.864
 1314POPC   GL219490  20.489  43.021   8.864
 1314POPC   C1A19491  20.636  43.081   8.564
 1314POPC   D2A19492  20.654  43.071   8.264
 1314POPC   C3A19493  20.627  43.099   7.964
 1314POPC   C4A19494  20.583  43.160   7.664
 1314POPC   C1B19495  20.494  42.890   8.564
 1314POPC   C2B19496  20.429  42.963   8.264
 1314POPC   C3B19497  20.421  42.901   7.964
 1314POPC   C4B19498  20.405  42.942   7.664
 1315POPC   NC319499  26.064  14.398   9.464
 1315POPC   PO419500  26.073  14.360   9.164
 1315POPC   GL119501  26.012  14.356   8.864
 1315POPC   GL219502  25.936  14.403   8.864
 1315POPC   C1A19503  26.008  14.407   8.564
 1315POPC   D2A19504  26.000  14.436   8.264
 1315POPC   C3A19505  26.006  14.439   7.964
 1315POPC   C4A19506  26.046  14.445   7.664
 1315POPC   C1B19507  25.755  14.458   8.564
 1315POPC   C2B19508  25.824  14.371   8.264
 1315POPC   C3B19509  25.745  14.385   7.964
 1315POPC   C4B19510  25.802  14.430   7.664
 1316POPC   NC319511  36.869  24.540   9.464
 1316POPC   PO419512  36.942  24.445   9.164
 1316POPC   GL119513  36.855  24.511   8.864
 1316POPC   GL219514  36.771  24.605   8.864
 1316POPC   C1A19515  36.936  24.536   8.564
 1316POPC   D2A19516  36.877  24.522   8.264
 1316POPC   C3A19517  36.927  24.468   7.964
 1316POPC   C4A19518  36.879  24.527   7.664
 1316POPC   C1B19519  36.676  24.647   8.564
 1316POPC   C2B19520  36.670  24.674   8.264
 1316POPC   C3B19521  36.723  24.652   7.964
 1316POPC   C4B19522  36.708  24.607   7.664
 1317POPC   NC319523  19.808  21.416   9.464
 1317POPC   PO419524  19.828  21.387   9.164
 1317POPC   GL119525  19.799  21.403   8.864
 1317POPC   GL219526  19.834  21.491   8.864
 1317POPC   C1A19527  19.802  21.380   8.564
 1317POPC   D2A19528  19.790  21.376   8.264
 1317POPC   C3A19529  19.834  21.351   7.964
 1317POPC   C4A19530  19.850  21.392   7.664
 1317POPC   C1B19531  19.704  21.581   8.564
 1317POPC   C2B19532  19.781  21.579   8.264
 1317POPC   C3B19533  19.742  21.650   7.964
 1317POPC   C4B19534  19.781  21.668   7.664
 1318POPC   NC319535  16.745  35.316   9.464
 1318POPC   PO419536  16.686  35.394   9.164
 1318POPC   GL119537  16.720  35.381   8.864
 1318POPC   GL219538  16.840  35.314   8.864
 1318POPC   C1A19539  16.764  35.356   8.564
 1318POPC   D2A19540  16.689  35.354   8.264
 1318POPC   C3A19541  16.742  35.315   7.964
 1318POPC   C4A19542  16.756  35.329   7.664
 1318POPC   C1B19543  16.995  35.401   8.564
 1318POPC   C2B19544  17.002  35.393   8.264
 1318POPC   C3B19545  16.943  35.352   7.964
 1318POPC   C4B19546  16.947  35.375   7.664
 1319POPC   NC319547  12.865  16.714   9.464
 1319POPC   PO419548  12.864  16.774   9.164
 1319POPC   GL119549  12.834  16.698   8.864
 1319POPC   GL219550  12.991  16.706   8.864
 1319POPC   C1A19551  12.820  16.729   8.564
 1319POPC   D2A19552  12.890  16.700   8.264
 1319POPC   C3A19553  12.813  16.775   7.964
 1319POPC   C4A19554  12.809  16.710   7.664
 1319POPC   C1B19555  13.052  16.600   8.564
 1319POPC   C2B19556  13.021  16.634   8.264
 1319POPC   C3B19557  13.108  16.548   7.964
 1319POPC   C4B19558  13.031  16.551   7.664
 1320POPC   NC319559  14.378  37.638   9.464
 1320POPC   PO419560  14.389  37.656   9.164
 1320POPC   GL119561  14.441  37.717   8.864
 1320POPC   GL219562  14.293  37.578   8.864
 1320POPC   C1A19563  14.387  37.711   8.564
 1320POPC   D2A19564  14.433  37.720   8.264
 1320POPC   C3A19565  14.388  37.716   7.964
 1320POPC   C4A19566  14.367  37.681   7.664
 1320POPC   C1B19567  14.250  37.468   8.564
 1320POPC   C2B19568  14.283  37.447   8.264
 1320POPC   C3B19569  14.267  37.488   7.964
 1320POPC   C4B19570  14.195  37.458   7.664
 1321POPC   NC319571  42.350  10.516   9.464
 1321POPC   PO419572  42.363  10.502   9.164
 1321POPC   GL119573  42.321  10.510   8.864
 1321POPC   GL219574  42.415  10.495   8.864
 1321POPC   C1A19575  42.369  10.496   8.564
 1321POPC   D2A19576  42.328  10.537   8.264
 1321POPC   C3A19577  42.323  10.547   7.964
 1321POPC   C4A19578  42.349  10.514   7.664
 1321POPC   C1B19579  42.600  10.513   8.564
 1321POPC   C2B19580  42.549  10.470   8.264
 1321POPC   C3B19581  42.576  10.545   7.964
 1321POPC   C4B19582  42.633  10.500   7.664
 1322POPC   NC319583   7.415  43.915   9.464
 1322POPC   PO419584   7.456  43.857   9.164
 1322POPC   GL119585   7.420  43.859   8.864
 1322POPC   GL219586   7.407  43.991   8.864
 1322POPC   C1A19587   7.433  43.932   8.564
 1322POPC   D2A19588   7.376  43.852   8.264
 1322POPC   C3A19589   7.390  43.866   7.964
 1322POPC   C4A19590   7.403  43.924   7.664
 1322POPC   C1B19591   7.350  44.128   8.564
 1322POPC   C2B19592   7.370  44.101   8.264
 1322POPC   C3B19593   7.321  44.080   7.964
 1322POPC   C4B19594   7.365  44.095   7.664
 1323POPC   NC319595   1.215  36.946   9.464
 1323POPC   PO419596   1.231  36.898   9.164
 1323POPC   GL119597   1.234  36.854   8.864
 1323POPC   GL219598   1.340  36.855   8.864
 1323POPC   C1A19599   1.247  36.912   8.564
 1323POPC   D2A19600   1.172  36.893   8.264
 1323POPC   C3A19601   1.257  36.898   7.964
 1323POPC   C4A19602   1.176  36.870   7.664
 1323POPC   C1B19603   1.480  36.837   8.564
 1323POPC   C2B19604   1.452  36.773   8.264
 1323POPC   C3B19605   1.394  36.829   7.964
 1323POPC   C4B19606   1.471  36.832   7.664
 1324POPC   NC319607  16.760   1.168   9.464
 1324POPC   PO419608  16.729   1.194   9.164
 1324POPC   GL119609  16.757   1.198   8.864
 1324POPC   GL219610  16.682   1.112   8.864
 1324POPC   C1A19611  16.706   1.221   8.564
 1324POPC   D2A19612  16.694   1.253   8.264
 1324POPC   C3A19613  16.780   1.229   7.964
 1324POPC   C4A19614  16.765   1.236   7.664
 1324POPC   C1B19615  16.569   1.014   8.564
 1324POPC   C2B19616  16.564   1.030   8.264
 1324POPC   C3B19617  16.551   1.046   7.964
 1324POPC   C4B19618  16.598   1.009   7.664
 1325POPC   NC319619  33.035  11.250   9.464
 1325POPC   PO419620  33.003  11.290   9.164
 1325POPC   GL119621  33.024  11.304   8.864
 1325POPC   GL219622  33.117  11.196   8.864
 1325POPC   C1A19623  32.975  11.303   8.564
 1325POPC   D2A19624  33.031  11.299   8.264
 1325POPC   C3A19625  33.033  11.287   7.964
 1325POPC   C4A19626  32.988  11.335   7.664
 1325POPC   C1B19627  33.214  11.106   8.564
 1325POPC   C2B19628  33.158  11.120   8.264
 1325POPC   C3B19629  33.159  11.146   7.964
 1325POPC   C4B19630  33.192  11.119   7.664
 1326POPC   NC319631  12.810   9.745   9.464
 1326POPC   PO419632  12.853   9.737   9.164
 1326POPC   GL119633  12.860   9.699   8.864
 1326POPC   GL219634  12.679   9.731   8.864
 1326POPC   C1A19635  12.810   9.714   8.564
 1326POPC   D2A19636  12.823   9.716   8.264
 1326POPC   C3A19637  12.804   9.792   7.964
 1326POPC   C4A19638  12.843   9.773   7.664
 1326POPC   C1B19639  12.578   9.795   8.564
 1326POPC   C2B19640  12.628   9.752   8.264
 1326POPC   C3B19641  12.570   9.734   7.964
 1326POPC   C4B19642  12.640   9.748   7.664
 1327POPC   NC319643  27.599  25.227   9.464
 1327POPC   PO419644  27.638  25.261   9.164
 1327POPC   GL119645  27.548  25.272   8.864
 1327POPC   GL219646  27.586  25.388   8.864
 1327POPC   C1A19647  27.608  25.298   8.564
 1327POPC   D2A19648  27.629  25.315   8.264
 1327POPC   C3A19649  27.594  25.255   7.964
 1327POPC   C4A19650  27.596  25.305   7.664
 1327POPC   C1B19651  27.507  25.512   8.564
 1327POPC   C2B19652  27.465  25.447   8.264
 1327POPC   C3B19653  27.466  25.510   7.964
 1327POPC   C4B19654  27.548  25.478   7.664
 1328POPC   NC319655  22.202  16.701   9.464
 1328POPC   PO419656  22.191  16.778   9.164
 1328POPC   GL119657  22.140  16.716   8.864
 1328POPC   GL219658  22.236  16.663   8.864
 1328POPC   C1A19659  22.141  16.723   8.564
 1328POPC   D2A19660  22.202  16.710   8.264
 1328POPC   C3A19661  22.210  16.724   7.964
 1328POPC   C4A19662  22.146  16.691   7.664
 1328POPC   C1B19663  22.291  16.555   8.564
 1328POPC   C2B19664  22.234  16.540   8.264
 1328POPC   C3B19665  22.304  16.483   7.964
 1328POPC   C4B19666  22.270  16.514   7.664
 1329POPC   NC319667   8.151   7.461   9.464
 1329POPC   PO419668   8.194   7.395   9.164
 1329POPC   GL119669   8.227   7.371   8.864
 1329POPC   GL219670   8.332   7.396   8.864
 1329POPC   C1A19671   8.200   7.466   8.564
 1329POPC   D2A19672   8.169   7.468   8.264
 1329POPC   C3A19673   8.177   7.456   7.964
 1329POPC   C4A19674   8.230   7.445   7.664
 1329POPC   C1B19675   8.459   7.348   8.564
 1329POPC   C2B19676   8.376   7.337   8.264
 1329POPC   C3B19677   8.399   7.267   7.964
 1329POPC   C4B19678   8.385   7.348   7.664
 1330POPC   NC319679  20.642  17.501   9.464
 1330POPC   PO419680  20.604  17.492   9.164
 1330POPC   GL119681  20.592  17.511   8.864
 1330POPC   GL219682  20.645  17.376   8.864
 1330POPC   C1A19683  20.646  17.485   8.564
 1330POPC   D2A19684  20.562  17.549   8.264
 1330POPC   C3A19685  20.563  17.467   7.964
 1330POPC   C4A19686  20.569  17.517   7.664
 1330POPC   C1B19687  20.665  17.293   8.564
 1330POPC   C2B19688  20.694  17.256   8.264
 1330POPC   C3B19689  20.706  17.293   7.964
 1330POPC   C4B19690  20.663  17.309   7.664
 1331POPC   NC319691  32.292  42.364   9.464
 1331POPC   PO419692  32.231  42.298   9.164
 1331POPC   GL119693  32.208  42.322   8.864
 1331POPC   GL219694  32.347  42.232   8.864
 1331POPC   C1A19695  32.272  42.348   8.564
 1331POPC   D2A19696  32.261  42.355   8.264
 1331POPC   C3A19697  32.281  42.306   7.964
 1331POPC   C4A19698  32.287  42.364   7.664
 1331POPC   C1B19699  32.390  42.152   8.564
 1331POPC   C2B19700  32.368  42.088   8.264
 1331POPC   C3B19701  32.405  42.109   7.964
 1331POPC   C4B19702  32.415  42.144   7.664
 1332POPC   NC319703   2.721  23.679   9.464
 1332POPC   PO419704   2.784  23.709   9.164
 1332POPC   GL119705   2.725  23.759   8.864
 1332POPC   GL219706   2.639  23.735   8.864
 1332POPC   C1A19707   2.727  23.714   8.564
 1332POPC   D2A19708   2.800  23.746   8.264
 1332POPC   C3A19709   2.722  23.730   7.964
 1332POPC   C4A19710   2.776  23.666   7.664
 1332POPC   C1B19711   2.495  23.706   8.564
 1332POPC   C2B19712   2.551  23.680   8.264
 1332POPC   C3B19713   2.503  23.751   7.964
 1332POPC   C4B19714   2.467  23.698   7.664
 1333POPC   NC319715  29.969  30.658   9.464
 1333POPC   PO419716  29.971  30.661   9.164
 1333POPC   GL119717  29.911  30.715   8.864
 1333POPC   GL219718  30.018  30.692   8.864
 1333POPC   C1A19719  29.940  30.722   8.564
 1333POPC   D2A19720  29.918  30.707   8.264
 1333POPC   C3A19721  29.967  30.695   7.964
 1333POPC   C4A19722  29.893  30.689   7.664
 1333POPC   C1B19723  30.155  30.789   8.564
 1333POPC   C2B19724  30.136  30.806   8.264
 1333POPC   C3B19725  30.124  30.766   7.964
 1333POPC   C4B19726  30.164  30.822   7.664
 1334POPC   NC319727  43.926  32.982   9.464
 1334POPC   PO419728  43.884  33.014   9.164
 1334POPC   GL119729  43.901  33.008   8.864
 1334POPC   GL219730  43.967  32.947   8.864
 1334POPC   C1A19731  43.891  33.015   8.564
 1334POPC   D2A19732  43.927  33.071   8.264
 1334POPC   C3A19733  43.841  32.976   7.964
 1334POPC   C4A19734  43.866  32.986   7.664
 1334POPC   C1B19735  44.073  32.931   8.564
 1334POPC   C2B19736  44.117  32.921   8.264
 1334POPC   C3B19737  44.133  32.860   7.964
 1334POPC   C4B19738  44.116  32.931   7.664
 1335POPC   NC319739  31.517  38.414   9.464
 1335POPC   PO419740  31.483  38.444   9.164
 1335POPC   GL119741  31.474  38.501   8.864
 1335POPC   GL219742  31.551  38.452   8.864
 1335POPC   C1A19743  31.443  38.417   8.564
 1335POPC   D2A19744  31.435  38.423   8.264
 1335POPC   C3A19745  31.437  38.480   7.964
 1335POPC   C4A19746  31.469  38.469   7.664
 1335POPC   C1B19747  31.759  38.400   8.564
 1335POPC   C2B19748  31.709  38.395   8.264
 1335POPC   C3B19749  31.686  38.383   7.964
 1335POPC   C4B19750  31.745  38.416   7.664
 1336POPC   NC319751  17.474  25.223   9.464
 1336POPC   PO419752  17.487  25.284   9.164
 1336POPC   GL119753  17.482  25.238   8.864
 1336POPC   GL219754  17.595  25.404   8.864
 1336POPC   C1A19755  17.458  25.312   8.564
 1336POPC   D2A19756  17.462  25.291   8.264
 1336POPC   C3A19757  17.489  25.263   7.964
 1336POPC   C4A19758  17.506  25.273   7.664
 1336POPC   C1B19759  17.624  25.500   8.564
 1336POPC   C2B19760  17.578  25.540   8.264
 1336POPC   C3B19761  17.608  25.504   7.964
 1336POPC   C4B19762  17.637  25.462   7.664
 1337POPC   NC319763   5.092  15.926   9.464
 1337POPC   PO419764   5.083  15.994   9.164
 1337POPC   GL119765   5.069  15.908   8.864
 1337POPC   GL219766   5.180  16.030   8.864
 1337POPC   C1A19767   5.137  15.927   8.564
 1337POPC   D2A19768   5.071  15.995   8.264
 1337POPC   C3A19769   5.119  15.963   7.964
 1337POPC   C4A19770   5.119  15.906   7.664
 1337POPC   C1B19771   5.351  16.014   8.564
 1337POPC   C2B19772   5.318  16.056   8.264
 1337POPC   C3B19773   5.283  16.034   7.964
 1337POPC   C4B19774   5.318  16.012   7.664
 1338POPC   NC319775  41.605  26.083   9.464
 1338POPC   PO419776  41.584  26.077   9.164
 1338POPC   GL119777  41.528  25.996   8.864
 1338POPC   GL219778  41.561  25.898   8.864
 1338POPC   C1A19779  41.512  26.068   8.564
 1338POPC   D2A19780  41.522  26.004   8.264
 1338POPC   C3A19781  41.552  26.090   7.964
 1338POPC   C4A19782  41.551  25.998   7.664
 1338POPC   C1B19783  41.654  25.831   8.564
 1338POPC   C2B19784  41.591  25.832   8.264
 1338POPC   C3B19785  41.602  25.756   7.964
 1338POPC   C4B19786  41.590  25.798   7.664
 1339POPC   NC319787   8.938  14.415   9.464
 1339POPC   PO419788   9.017  14.449   9.164
 1339POPC   GL119789   9.017  14.447   8.864
 1339POPC   GL219790   9.073  14.261   8.864
 1339POPC   C1A19791   8.981  14.438   8.564
 1339POPC   D2A19792   9.019  14.435   8.264
 1339POPC   C3A19793   9.002  14.397   7.964
 1339POPC   C4A19794   8.954  14.392   7.664
 1339POPC   C1B19795   9.102  14.208   8.564
 1339POPC   C2B19796   9.095  14.173   8.264
 1339POPC   C3B19797   9.098  14.174   7.964
 1339POPC   C4B19798   9.066  14.148   7.664
 1340POPC   NC319799   7.389   5.865   9.464
 1340POPC   PO419800   7.438   5.899   9.164
 1340POPC   GL119801   7.455   5.865   8.864
 1340POPC   GL219802   7.582   5.953   8.864
 1340POPC   C1A19803   7.385   5.890   8.564
 1340POPC   D2A19804   7.406   5.851   8.264
 1340POPC   C3A19805   7.390   5.843   7.964
 1340POPC   C4A19806   7.388   5.839   7.664
 1340POPC   C1B19807   7.690   5.897   8.564
 1340POPC   C2B19808   7.659   5.915   8.264
 1340POPC   C3B19809   7.688   5.938   7.964
 1340POPC   C4B19810   7.657   5.983   7.664
 1341POPC   NC319811  11.261  19.080   9.464
 1341POPC   PO419812  11.290  19.048   9.164
 1341POPC   GL119813  11.287  19.101   8.864
 1341POPC   GL219814  11.401  19.197   8.864
 1341POPC   C1A19815  11.318  19.021   8.564
 1341POPC   D2A19816  11.336  19.010   8.264
 1341POPC   C3A19817  11.348  19.028   7.964
 1341POPC   C4A19818  11.339  19.052   7.664
 1341POPC   C1B19819  11.503  19.276   8.564
 1341POPC   C2B19820  11.497  19.274   8.264
 1341POPC   C3B19821  11.459  19.252   7.964
 1341POPC   C4B19822  11.418  19.218   7.664
 1342POPC   NC319823  37.681   0.469   9.464
 1342POPC   PO419824  37.664   0.457   9.164
 1342POPC   GL119825  37.639   0.429   8.864
 1342POPC   GL219826  37.557   0.294   8.864
 1342POPC   C1A19827  37.660   0.398   8.564
 1342POPC   D2A19828  37.664   0.412   8.264
 1342POPC   C3A19829  37.668   0.471   7.964
 1342POPC   C4A19830  37.704   0.432   7.664
 1342POPC   C1B19831  37.557   0.254   8.564
 1342POPC   C2B19832  37.568   0.251   8.264
 1342POPC   C3B19833  37.521   0.192   7.964
 1342POPC   C4B19834  37.524   0.213   7.664
 1343POPC   NC319835  41.540  15.957   9.464
 1343POPC   PO419836  41.519  15.968   9.164
 1343POPC   GL119837  41.549  15.937   8.864
 1343POPC   GL219838  41.489  15.860   8.864
 1343POPC   C1A19839  41.520  15.993   8.564
 1343POPC   D2A19840  41.512  15.938   8.264
 1343POPC   C3A19841  41.522  15.940   7.964
 1343POPC   C4A19842  41.591  15.944   7.664
 1343POPC   C1B19843  41.451  15.746   8.564
 1343POPC   C2B19844  41.417  15.750   8.264
 1343POPC   C3B19845  41.403  15.770   7.964
 1343POPC   C4B19846  41.427  15.772   7.664
 1344POPC   NC319847  39.271  26.785   9.464
 1344POPC   PO419848  39.279  26.812   9.164
 1344POPC   GL119849  39.281  26.770   8.864
 1344POPC   GL219850  39.255  26.979   8.864
 1344POPC   C1A19851  39.223  26.829   8.564
 1344POPC   D2A19852  39.235  26.807   8.264
 1344POPC   C3A19853  39.204  26.841   7.964
 1344POPC   C4A19854  39.185  26.776   7.664
 1344POPC   C1B19855  39.328  27.074   8.564
 1344POPC   C2B19856  39.264  27.062   8.264
 1344POPC   C3B19857  39.250  27.083   7.964
 1344POPC   C4B19858  39.325  27.093   7.664
 1345POPC   NC319859  43.156  43.842   9.464
 1345POPC   PO419860  43.138  43.857   9.164
 1345POPC   GL119861  43.082  43.852   8.864
 1345POPC   GL219862  43.187  43.864   8.864
 1345POPC   C1A19863  43.100  43.846   8.564
 1345POPC   D2A19864  43.079  43.844   8.264
 1345POPC   C3A19865  43.078  43.857   7.964
 1345POPC   C4A19866  43.129  43.888   7.664
 1345POPC   C1B19867  43.329  43.756   8.564
 1345POPC   C2B19868  43.371  43.822   8.264
 1345POPC   C3B19869  43.383  43.787   7.964
 1345POPC   C4B19870  43.345  43.765   7.664
 1346POPC   NC319871  33.758   2.810   9.464
 1346POPC   PO419872  33.799   2.811   9.164
 1346POPC   GL119873  33.828   2.732   8.864
 1346POPC   GL219874  33.973   2.726   8.864
 1346POPC   C1A19875  33.814   2.798   8.564
 1346POPC   D2A19876  33.836   2.743   8.264
 1346POPC   C3A19877  33.770   2.780   7.964
 1346POPC   C4A19878  33.751   2.752   7.664
 1346POPC   C1B19879  34.091   2.712   8.564
 1346POPC   C2B19880  33.999   2.752   8.264
 1346POPC   C3B19881  34.086   2.769   7.964
 1346POPC   C4B19882  34.011   2.711   7.664
 1347POPC   NC319883  23.711  43.107   9.464
 1347POPC   PO419884  23.678  43.134   9.164
 1347POPC   GL119885  23.664  43.141   8.864
 1347POPC   GL219886  23.682  42.995   8.864
 1347POPC   C1A19887  23.707  43.159   8.564
 1347POPC   D2A19888  23.695  43.124   8.264
 1347POPC   C3A19889  23.747  43.144   7.964
 1347POPC   C4A19890  23.675  43.157   7.664
 1347POPC   C1B19891  23.685  42.878   8.564
 1347POPC   C2B19892  23.636  42.822   8.264
 1347POPC   C3B19893  23.647  42.862   7.964
 1347POPC   C4B19894  23.649  42.900   7.664
 1348POPC   NC319895   9.781  18.318   9.464
 1348POPC   PO419896   9.792  18.239   9.164
 1348POPC   GL119897   9.758  18.292   8.864
 1348POPC   GL219898   9.668  18.368   8.864
 1348POPC   C1A19899   9.719  18.327   8.564
 1348POPC   D2A19900   9.770  18.262   8.264
 1348POPC   C3A19901   9.760  18.332   7.964
 1348POPC   C4A19902   9.731  18.248   7.664
 1348POPC   C1B19903   9.545  18.333   8.564
 1348POPC   C2B19904   9.549  18.327   8.264
 1348POPC   C3B19905   9.538  18.322   7.964
 1348POPC   C4B19906   9.461  18.321   7.664
 1349POPC   NC319907  16.720  40.800   9.464
 1349POPC   PO419908  16.707  40.793   9.164
 1349POPC   GL119909  16.727  40.749   8.864
 1349POPC   GL219910  16.666  40.675   8.864
 1349POPC   C1A19911  16.735  40.804   8.564
 1349POPC   D2A19912  16.736  40.783   8.264
 1349POPC   C3A19913  16.748  40.752   7.964
 1349POPC   C4A19914  16.694  40.736   7.664
 1349POPC   C1B19915  16.537  40.564   8.564
 1349POPC   C2B19916  16.532  40.586   8.264
 1349POPC   C3B19917  16.578  40.563   7.964
 1349POPC   C4B19918  16.552  40.636   7.664
 1350POPC   NC319919   4.346   1.212   9.464
 1350POPC   PO419920   4.336   1.179   9.164
 1350POPC   GL119921   4.351   1.260   8.864
 1350POPC   GL219922   4.158   1.286   8.864
 1350POPC   C1A19923   4.317   1.184   8.564
 1350POPC   D2A19924   4.312   1.248   8.264
 1350POPC   C3A19925   4.302   1.176   7.964
 1350POPC   C4A19926   4.355   1.251   7.664
 1350POPC   C1B19927   4.044   1.340   8.564
 1350POPC   C2B19928   4.116   1.357   8.264
 1350POPC   C3B19929   4.109   1.294   7.964
 1350POPC   C4B19930   4.102   1.346   7.664
 1351POPC   NC319931  24.479  34.605   9.464
 1351POPC   PO419932  24.459  34.550   9.164
 1351POPC   GL119933  24.452  34.573   8.864
 1351POPC   GL219934  24.504  34.725   8.864
 1351POPC   C1A19935  24.497  34.541   8.564
 1351POPC   D2A19936  24.498  34.530   8.264
 1351POPC   C3A19937  24.480  34.559   7.964
 1351POPC   C4A19938  24.476  34.594   7.664
 1351POPC   C1B19939  24.625  34.809   8.564
 1351POPC   C2B19940  24.592  34.759   8.264
 1351POPC   C3B19941  24.590  34.808   7.964
 1351POPC   C4B19942  24.635  34.756   7.664
 1352POPC   NC319943   5.843   3.509   9.464
 1352POPC   PO419944   5.871   3.495   9.164
 1352POPC   GL119945   5.897   3.500   8.864
 1352POPC   GL219946   5.878   3.621   8.864
 1352POPC   C1A19947   5.843   3.578   8.564
 1352POPC   D2A19948   5.836   3.495   8.264
 1352POPC   C3A19949   5.917   3.582   7.964
 1352POPC   C4A19950   5.823   3.557   7.664
 1352POPC   C1B19951   5.767   3.817   8.564
 1352POPC   C2B19952   5.800   3.786   8.264
 1352POPC   C3B19953   5.801   3.788   7.964
 1352POPC   C4B19954   5.811   3.761   7.664
 1353POPC   NC319955  29.936   8.172   9.464
 1353POPC   PO419956  29.936   8.156   9.164
 1353POPC   GL119957  29.946   8.219   8.864
 1353POPC   GL219958  29.853   8.174   8.864
 1353POPC   C1A19959  29.957   8.177   8.564
 1353POPC   D2A19960  29.951   8.147   8.264
 1353POPC   C3A19961  29.898   8.231   7.964
 1353POPC   C4A19962  29.954   8.165   7.664
 1353POPC   C1B19963  29.740   8.067   8.564
 1353POPC   C2B19964  29.715   8.104   8.264
 1353POPC   C3B19965  29.724   8.068   7.964
 1353POPC   C4B19966  29.713   8.064   7.664
 1354POPC   NC319967  17.510   6.644   9.464
 1354POPC   PO419968  17.504   6.681   9.164
 1354POPC   GL119969  17.556   6.661   8.864
 1354POPC   GL219970  17.528   6.714   8.864
 1354POPC   C1A19971  17.468   6.614   8.564
 1354POPC   D2A19972  17.468   6.645   8.264
 1354POPC   C3A19973  17.506   6.625   7.964
 1354POPC   C4A19974  17.488   6.654   7.664
 1354POPC   C1B19975  17.561   6.866   8.564
 1354POPC   C2B19976  17.644   6.867   8.264
 1354POPC   C3B19977  17.595   6.900   7.964
 1354POPC   C4B19978  17.620   6.920   7.664
 1355POPC   NC319979  34.582  13.614   9.464
 1355POPC   PO419980  34.559  13.639   9.164
 1355POPC   GL119981  34.619  13.654   8.864
 1355POPC   GL219982  34.746  13.632   8.864
 1355POPC   C1A19983  34.580  13.669   8.564
 1355POPC   D2A19984  34.565  13.637   8.264
 1355POPC   C3A19985  34.620  13.594   7.964
 1355POPC   C4A19986  34.614  13.647   7.664
 1355POPC   C1B19987  34.857  13.630   8.564
 1355POPC   C2B19988  34.808  13.649   8.264
 1355POPC   C3B19989  34.826  13.689   7.964
 1355POPC   C4B19990  34.797  13.703   7.664
 1356POPC   NC319991  32.988  20.604   9.464
 1356POPC   PO419992  33.006  20.591   9.164
 1356POPC   GL119993  33.061  20.580   8.864
 1356POPC   GL219994  33.002  20.442   8.864
 1356POPC   C1A19995  33.000  20.644   8.564
 1356POPC   D2A19996  32.995  20.645   8.264
 1356POPC   C3A19997  33.072  20.643   7.964
 1356POPC   C4A19998  33.058  20.576   7.664
 1356POPC   C1B19999  33.070  20.408   8.564
 1356POPC   C2B20000  33.025  20.374   8.264
 1356POPC   C3B20001  33.019  20.374   7.964
 1356POPC   C4B20002  33.023  20.321   7.664
 1357POPC   NC320003   6.660  19.039   9.464
 1357POPC   PO420004   6.644  19.107   9.164
 1357POPC   GL120005   6.613  19.029   8.864
 1357POPC   GL220006   6.688  19.225   8.864
 1357POPC   C1A20007   6.638  19.072   8.564
 1357POPC   D2A20008   6.626  19.053   8.264
 1357POPC   C3A20009   6.599  19.042   7.964
 1357POPC   C4A20010   6.633  19.068   7.664
 1357POPC   C1B20011   6.697  19.280   8.564
 1357POPC   C2B20012   6.719  19.346   8.264
 1357POPC   C3B20013   6.679  19.283   7.964
 1357POPC   C4B20014   6.716  19.326   7.664
 1358POPC   NC320015  33.809  42.334   9.464
 1358POPC   PO420016  33.846  42.285   9.164
 1358POPC   GL120017  33.794  42.332   8.864
 1358POPC   GL220018  33.756  42.439   8.864
 1358POPC   C1A20019  33.814  42.297   8.564
 1358POPC   D2A20020  33.793  42.375   8.264
 1358POPC   C3A20021  33.828  42.303   7.964
 1358POPC   C4A20022  33.800  42.304   7.664
 1358POPC   C1B20023  33.701  42.528   8.564
 1358POPC   C2B20024  33.697  42.551   8.264
 1358POPC   C3B20025  33.702  42.562   7.964
 1358POPC   C4B20026  33.679  42.581   7.664
 1359POPC   NC320027  10.531  41.607   9.464
 1359POPC   PO420028  10.535  41.512   9.164
 1359POPC   GL120029  10.528  41.565   8.864
 1359POPC   GL220030  10.655  41.535   8.864
 1359POPC   C1A20031  10.535  41.532   8.564
 1359POPC   D2A20032  10.553  41.526   8.264
 1359POPC   C3A20033  10.552  41.558   7.964
 1359POPC   C4A20034  10.506  41.523   7.664
 1359POPC   C1B20035  10.774  41.611   8.564
 1359POPC   C2B20036  10.766  41.569   8.264
 1359POPC   C3B20037  10.764  41.586   7.964
 1359POPC   C4B20038  10.752  41.569   7.664
 1360POPC   NC320039  44.663   6.654   9.464
 1360POPC   PO420040  44.643   6.607   9.164
 1360POPC   GL120041  44.656   6.685   8.864
 1360POPC   GL220042  44.819   6.608   8.864
 1360POPC   C1A20043  44.627   6.604   8.564
 1360POPC   D2A20044  44.708   6.619   8.264
 1360POPC   C3A20045  44.648   6.675   7.964
 1360POPC   C4A20046  44.690   6.667   7.664
 1360POPC   C1B20047  44.935   6.604   8.564
 1360POPC   C2B20048  44.871   6.688   8.264
 1360POPC   C3B20049  44.879   6.622   7.964
 1360POPC   C4B20050  44.945   6.644   7.664
 1361POPC   NC320051  41.554   0.399   9.464
 1361POPC   PO420052  41.579   0.474   9.164
 1361POPC   GL120053  41.601   0.404   8.864
 1361POPC   GL220054  41.454   0.549   8.864
 1361POPC   C1A20055  41.596   0.455   8.564
 1361POPC   D2A20056  41.607   0.398   8.264
 1361POPC   C3A20057  41.547   0.433   7.964
 1361POPC   C4A20058  41.548   0.436   7.664
 1361POPC   C1B20059  41.360   0.634   8.564
 1361POPC   C2B20060  41.349   0.647   8.264
 1361POPC   C3B20061  41.325   0.558   7.964
 1361POPC   C4B20062  41.357   0.592   7.664
 1362POPC   NC320063  27.641  14.373   9.464
 1362POPC   PO420064  27.619  14.450   9.164
 1362POPC   GL120065  27.588  14.375   8.864
 1362POPC   GL220066  27.630  14.511   8.864
 1362POPC   C1A20067  27.602  14.449   8.564
 1362POPC   D2A20068  27.591  14.428   8.264
 1362POPC   C3A20069  27.613  14.404   7.964
 1362POPC   C4A20070  27.631  14.369   7.664
 1362POPC   C1B20071  27.602  14.697   8.564
 1362POPC   C2B20072  27.548  14.685   8.264
 1362POPC   C3B20073  27.601  14.604   7.964
 1362POPC   C4B20074  27.536  14.630   7.664
 1363POPC   NC320075  25.280  33.815   9.464
 1363POPC   PO420076  25.229  33.833   9.164
 1363POPC   GL120077  25.263  33.818   8.864
 1363POPC   GL220078  25.136  33.750   8.864
 1363POPC   C1A20079  25.267  33.768   8.564
 1363POPC   D2A20080  25.238  33.815   8.264
 1363POPC   C3A20081  25.291  33.833   7.964
 1363POPC   C4A20082  25.256  33.752   7.664
 1363POPC   C1B20083  25.026  33.796   8.564
 1363POPC   C2B20084  25.039  33.774   8.264
 1363POPC   C3B20085  25.054  33.804   7.964
 1363POPC   C4B20086  25.016  33.776   7.664
 1364POPC   NC320087   5.055  12.865   9.464
 1364POPC   PO420088   5.143  12.897   9.164
 1364POPC   GL120089   5.044  12.869   8.864
 1364POPC   GL220090   4.996  12.875   8.864
 1364POPC   C1A20091   5.119  12.872   8.564
 1364POPC   D2A20092   5.103  12.805   8.264
 1364POPC   C3A20093   5.100  12.866   7.964
 1364POPC   C4A20094   5.108  12.857   7.664
 1364POPC   C1B20095   4.794  12.813   8.564
 1364POPC   C2B20096   4.797  12.791   8.264
 1364POPC   C3B20097   4.863  12.822   7.964
 1364POPC   C4B20098   4.855  12.816   7.664
 1365POPC   NC320099  42.365  26.089   9.464
 1365POPC   PO420100  42.377  26.061   9.164
 1365POPC   GL120101  42.296  26.005   8.864
 1365POPC   GL220102  42.336  25.873   8.864
 1365POPC   C1A20103  42.354  26.069   8.564
 1365POPC   D2A20104  42.296  26.036   8.264
 1365POPC   C3A20105  42.288  26.010   7.964
 1365POPC   C4A20106  42.336  26.053   7.664
 1365POPC   C1B20107  42.398  25.798   8.564
 1365POPC   C2B20108  42.401  25.774   8.264
 1365POPC   C3B20109  42.359  25.818   7.964
 1365POPC   C4B20110  42.358  25.808   7.664
 1366POPC   NC320111   4.324  29.900   9.464
 1366POPC   PO420112   4.293  29.885   9.164
 1366POPC   GL120113   4.336  29.892   8.864
 1366POPC   GL220114   4.377  29.977   8.864
 1366POPC   C1A20115   4.293  29.941   8.564
 1366POPC   D2A20116   4.329  29.939   8.264
 1366POPC   C3A20117   4.312  29.915   7.964
 1366POPC   C4A20118   4.284  29.887   7.664
 1366POPC   C1B20119   4.456  30.139   8.564
 1366POPC   C2B20120   4.487  30.060   8.264
 1366POPC   C3B20121   4.500  30.153   7.964
 1366POPC   C4B20122   4.450  30.092   7.664
 1367POPC   NC320123   7.439  24.498   9.464
 1367POPC   PO420124   7.374  24.447   9.164
 1367POPC   GL120125   7.405  24.483   8.864
 1367POPC   GL220126   7.513  24.420   8.864
 1367POPC   C1A20127   7.444  24.466   8.564
 1367POPC   D2A20128   7.389  24.513   8.264
 1367POPC   C3A20129   7.373  24.446   7.964
 1367POPC   C4A20130   7.422  24.528   7.664
 1367POPC   C1B20131   7.542  24.261   8.564
 1367POPC   C2B20132   7.574  24.317   8.264
 1367POPC   C3B20133   7.586  24.249   7.964
 1367POPC   C4B20134   7.563  24.290   7.664
 1368POPC   NC320135   5.111  15.191   9.464
 1368POPC   PO420136   5.116  15.203   9.164
 1368POPC   GL120137   5.093  15.162   8.864
 1368POPC   GL220138   5.242  15.237   8.864
 1368POPC   C1A20139   5.137  15.213   8.564
 1368POPC   D2A20140   5.093  15.130   8.264
 1368POPC   C3A20141   5.128  15.209   7.964
 1368POPC   C4A20142   5.112  15.208   7.664
 1368POPC   C1B20143   5.295  15.250   8.564
 1368POPC   C2B20144   5.331  15.203   8.264
 1368POPC   C3B20145   5.347  15.206   7.964
 1368POPC   C4B20146   5.369  15.212   7.664
 1369POPC   NC320147  25.996   7.456   9.464
 1369POPC   PO420148  26.060   7.409   9.164
 1369POPC   GL120149  26.004   7.434   8.864
 1369POPC   GL220150  26.068   7.344   8.864
 1369POPC   C1A20151  26.046   7.467   8.564
 1369POPC   D2A20152  26.022   7.454   8.264
 1369POPC   C3A20153  26.008   7.410   7.964
 1369POPC   C4A20154  26.009   7.419   7.664
 1369POPC   C1B20155  26.142   7.190   8.564
 1369POPC   C2B20156  26.182   7.187   8.264
 1369POPC   C3B20157  26.152   7.246   7.964
 1369POPC   C4B20158  26.199   7.246   7.664
 1370POPC   NC320159  15.949  28.409   9.464
 1370POPC   PO420160  15.997  28.324   9.164
 1370POPC   GL120161  15.958  28.343   8.864
 1370POPC   GL220162  16.107  28.291   8.864
 1370POPC   C1A20163  16.002  28.373   8.564
 1370POPC   D2A20164  15.965  28.385   8.264
 1370POPC   C3A20165  15.945  28.355   7.964
 1370POPC   C4A20166  15.961  28.406   7.664
 1370POPC   C1B20167  16.189  28.283   8.564
 1370POPC   C2B20168  16.225  28.297   8.264
 1370POPC   C3B20169  16.166  28.238   7.964
 1370POPC   C4B20170  16.212  28.274   7.664
 1371POPC   NC320171   5.127  26.077   9.464
 1371POPC   PO420172   5.047  26.034   9.164
 1371POPC   GL120173   5.103  26.073   8.864
 1371POPC   GL220174   5.089  25.944   8.864
 1371POPC   C1A20175   5.096  26.091   8.564
 1371POPC   D2A20176   5.131  26.065   8.264
 1371POPC   C3A20177   5.044  25.996   7.964
 1371POPC   C4A20178   5.116  26.067   7.664
 1371POPC   C1B20179   5.069  25.745   8.564
 1371POPC   C2B20180   5.100  25.765   8.264
 1371POPC   C3B20181   5.048  25.815   7.964
 1371POPC   C4B20182   5.060  25.823   7.664
 1372POPC   NC320183   2.717  41.581   9.464
 1372POPC   PO420184   2.795  41.546   9.164
 1372POPC   GL120185   2.765  41.558   8.864
 1372POPC   GL220186   2.672  41.620   8.864
 1372POPC   C1A20187   2.747  41.539   8.564
 1372POPC   D2A20188   2.803  41.527   8.264
 1372POPC   C3A20189   2.812  41.586   7.964
 1372POPC   C4A20190   2.773  41.552   7.664
 1372POPC   C1B20191   2.536  41.608   8.564
 1372POPC   C2B20192   2.564  41.666   8.264
 1372POPC   C3B20193   2.516  41.677   7.964
 1372POPC   C4B20194   2.572  41.593   7.664
 1373POPC   NC320195  26.041   1.170   9.464
 1373POPC   PO420196  26.079   1.254   9.164
 1373POPC   GL120197  25.996   1.193   8.864
 1373POPC   GL220198  26.132   1.340   8.864
 1373POPC   C1A20199  26.047   1.227   8.564
 1373POPC   D2A20200  26.005   1.183   8.264
 1373POPC   C3A20201  26.081   1.251   7.964
 1373POPC   C4A20202  26.016   1.252   7.664
 1373POPC   C1B20203  26.171   1.447   8.564
 1373POPC   C2B20204  26.172   1.454   8.264
 1373POPC   C3B20205  26.138   1.455   7.964
 1373POPC   C4B20206  26.161   1.450   7.664
 1374POPC   NC320207  19.846  36.090   9.464
 1374POPC   PO420208  19.791  36.085   9.164
 1374POPC   GL120209  19.832  36.087   8.864
 1374POPC   GL220210  19.867  36.001   8.864
 1374POPC   C1A20211  19.880  36.108   8.564
 1374POPC   D2A20212  19.859  36.151   8.264
 1374POPC   C3A20213  19.866  36.133   7.964
 1374POPC   C4A20214  19.803  36.171   7.664
 1374POPC   C1B20215  19.790  35.908   8.564
 1374POPC   C2B20216  19.867  35.917   8.264
 1374POPC   C3B20217  19.852  35.924   7.964
 1374POPC   C4B20218  19.858  35.843   7.664
 1375POPC   NC320219   0.398  26.838   9.464
 1375POPC   PO420220   0.459  26.848   9.164
 1375POPC   GL120221   0.466  26.777   8.864
 1375POPC   GL220222   0.427  26.927   8.864
 1375POPC   C1A20223   0.407  26.830   8.564
 1375POPC   D2A20224   0.436  26.807   8.264
 1375POPC   C3A20225   0.441  26.844   7.964
 1375POPC   C4A20226   0.409  26.825   7.664
 1375POPC   C1B20227   0.455  27.039   8.564
 1375POPC   C2B20228   0.404  27.099   8.264
 1375POPC   C3B20229   0.360  27.067   7.964
 1375POPC   C4B20230   0.439  27.085   7.664
 1376POPC   NC320231  39.207  37.633   9.464
 1376POPC   PO420232  39.234  37.696   9.164
 1376POPC   GL120233  39.256  37.635   8.864
 1376POPC   GL220234  39.350  37.609   8.864
 1376POPC   C1A20235  39.205  37.649   8.564
 1376POPC   D2A20236  39.237  37.685   8.264
 1376POPC   C3A20237  39.228  37.689   7.964
 1376POPC   C4A20238  39.234  37.697   7.664
 1376POPC   C1B20239  39.472  37.585   8.564
 1376POPC   C2B20240  39.461  37.583   8.264
 1376POPC   C3B20241  39.484  37.574   7.964
 1376POPC   C4B20242  39.436  37.587   7.664
 1377POPC   NC320243   6.642   7.399   9.464
 1377POPC   PO420244   6.604   7.390   9.164
 1377POPC   GL120245   6.684   7.429   8.864
 1377POPC   GL220246   6.495   7.364   8.864
 1377POPC   C1A20247   6.679   7.375   8.564
 1377POPC   D2A20248   6.682   7.427   8.264
 1377POPC   C3A20249   6.604   7.407   7.964
 1377POPC   C4A20250   6.610   7.417   7.664
 1377POPC   C1B20251   6.442   7.360   8.564
 1377POPC   C2B20252   6.402   7.294   8.264
 1377POPC   C3B20253   6.455   7.281   7.964
 1377POPC   C4B20254   6.455   7.303   7.664
 1378POPC   NC320255  26.863  12.839   9.464
 1378POPC   PO420256  26.768  12.804   9.164
 1378POPC   GL120257  26.770  12.880   8.864
 1378POPC   GL220258  26.834  12.963   8.864
 1378POPC   C1A20259  26.781  12.844   8.564
 1378POPC   D2A20260  26.798  12.822   8.264
 1378POPC   C3A20261  26.834  12.844   7.964
 1378POPC   C4A20262  26.769  12.848   7.664
 1378POPC   C1B20263  26.873  13.095   8.564
 1378POPC   C2B20264  26.937  13.061   8.264
 1378POPC   C3B20265  26.906  13.082   7.964
 1378POPC   C4B20266  26.904  13.098   7.664
 1379POPC   NC320267  15.971   3.587   9.464
 1379POPC   PO420268  15.992   3.541   9.164
 1379POPC   GL120269  15.949   3.500   8.864
 1379POPC   GL220270  16.018   3.611   8.864
 1379POPC   C1A20271  15.992   3.540   8.564
 1379POPC   D2A20272  15.983   3.576   8.264
 1379POPC   C3A20273  15.966   3.500   7.964
 1379POPC   C4A20274  15.966   3.551   7.664
 1379POPC   C1B20275  16.135   3.701   8.564
 1379POPC   C2B20276  16.169   3.688   8.264
 1379POPC   C3B20277  16.221   3.677   7.964
 1379POPC   C4B20278  16.225   3.684   7.664
 1380POPC   NC320279  12.032  12.877   9.464
 1380POPC   PO420280  12.068  12.877   9.164
 1380POPC   GL120281  12.120  12.855   8.864
 1380POPC   GL220282  12.139  12.771   8.864
 1380POPC   C1A20283  12.093  12.901   8.564
 1380POPC   D2A20284  12.083  12.894   8.264
 1380POPC   C3A20285  12.027  12.837   7.964
 1380POPC   C4A20286  12.107  12.818   7.664
 1380POPC   C1B20287  12.292  12.776   8.564
 1380POPC   C2B20288  12.288  12.742   8.264
 1380POPC   C3B20289  12.337  12.771   7.964
 1380POPC   C4B20290  12.333  12.699   7.664
 1381POPC   NC320291  10.526  22.891   9.464
 1381POPC   PO420292  10.484  22.984   9.164
 1381POPC   GL120293  10.496  22.985   8.864
 1381POPC   GL220294  10.573  22.870   8.864
 1381POPC   C1A20295  10.490  22.964   8.564
 1381POPC   D2A20296  10.511  22.961   8.264
 1381POPC   C3A20297  10.524  22.975   7.964
 1381POPC   C4A20298  10.543  22.918   7.664
 1381POPC   C1B20299  10.699  22.725   8.564
 1381POPC   C2B20300  10.718  22.729   8.264
 1381POPC   C3B20301  10.668  22.746   7.964
 1381POPC   C4B20302  10.673  22.711   7.664
 1382POPC   NC320303  22.207  37.667   9.464
 1382POPC   PO420304  22.134  37.703   9.164
 1382POPC   GL120305  22.197  37.695   8.864
 1382POPC   GL220306  22.107  37.560   8.864
 1382POPC   C1A20307  22.120  37.665   8.564
 1382POPC   D2A20308  22.176  37.694   8.264
 1382POPC   C3A20309  22.146  37.728   7.964
 1382POPC   C4A20310  22.162  37.659   7.664
 1382POPC   C1B20311  22.084  37.441   8.564
 1382POPC   C2B20312  22.078  37.505   8.264
 1382POPC   C3B20313  22.069  37.440   7.964
 1382POPC   C4B20314  22.082  37.425   7.664
 1383POPC   NC320315   9.761  11.279   9.464
 1383POPC   PO420316   9.720  11.320   9.164
 1383POPC   GL120317   9.758  11.318   8.864
 1383POPC   GL220318   9.616  11.346   8.864
 1383POPC   C1A20319   9.743  11.300   8.564
 1383POPC   D2A20320   9.791  11.333   8.264
 1383POPC   C3A20321   9.793  11.341   7.964
 1383POPC   C4A20322   9.699  11.323   7.664
 1383POPC   C1B20323   9.554  11.448   8.564
 1383POPC   C2B20324   9.501  11.413   8.264
 1383POPC   C3B20325   9.586  11.468   7.964
 1383POPC   C4B20326   9.531  11.437   7.664
 1384POPC   NC320327  21.376   2.798   9.464
 1384POPC   PO420328  21.397   2.767   9.164
 1384POPC   GL120329  21.372   2.748   8.864
 1384POPC   GL220330  21.269   2.803   8.864
 1384POPC   C1A20331  21.383   2.804   8.564
 1384POPC   D2A20332  21.434   2.740   8.264
 1384POPC   C3A20333  21.432   2.780   7.964
 1384POPC   C4A20334  21.419   2.732   7.664
 1384POPC   C1B20335  21.105   2.862   8.564
 1384POPC   C2B20336  21.157   2.836   8.264
 1384POPC   C3B20337  21.117   2.826   7.964
 1384POPC   C4B20338  21.139   2.909   7.664
 1385POPC   NC320339  40.741  19.098   9.464
 1385POPC   PO420340  40.746  19.075   9.164
 1385POPC   GL120341  40.810  19.101   8.864
 1385POPC   GL220342  40.761  18.988   8.864
 1385POPC   C1A20343  40.741  19.013   8.564
 1385POPC   D2A20344  40.792  19.047   8.264
 1385POPC   C3A20345  40.806  19.082   7.964
 1385POPC   C4A20346  40.802  19.088   7.664
 1385POPC   C1B20347  40.729  18.805   8.564
 1385POPC   C2B20348  40.691  18.854   8.264
 1385POPC   C3B20349  40.739  18.812   7.964
 1385POPC   C4B20350  40.662  18.815   7.664
 1386POPC   NC320351  22.985   5.839   9.464
 1386POPC   PO420352  22.986   5.869   9.164
 1386POPC   GL120353  22.966   5.822   8.864
 1386POPC   GL220354  22.902   5.705   8.864
 1386POPC   C1A20355  22.910   5.866   8.564
 1386POPC   D2A20356  22.982   5.919   8.264
 1386POPC   C3A20357  22.905   5.889   7.964
 1386POPC   C4A20358  22.958   5.858   7.664
 1386POPC   C1B20359  22.849   5.623   8.564
 1386POPC   C2B20360  22.793   5.619   8.264
 1386POPC   C3B20361  22.824   5.670   7.964
 1386POPC   C4B20362  22.788   5.636   7.664
 1387POPC   NC320363  38.419  11.330   9.464
 1387POPC   PO420364  38.423  11.276   9.164
 1387POPC   GL120365  38.495  11.302   8.864
 1387POPC   GL220366  38.293  11.299   8.864
 1387POPC   C1A20367  38.470  11.281   8.564
 1387POPC   D2A20368  38.415  11.280   8.264
 1387POPC   C3A20369  38.486  11.273   7.964
 1387POPC   C4A20370  38.430  11.341   7.664
 1387POPC   C1B20371  38.210  11.335   8.564
 1387POPC   C2B20372  38.179  11.367   8.264
 1387POPC   C3B20373  38.192  11.351   7.964
 1387POPC   C4B20374  38.226  11.350   7.664
 1388POPC   NC320375  18.248  15.132   9.464
 1388POPC   PO420376  18.268  15.138   9.164
 1388POPC   GL120377  18.290  15.173   8.864
 1388POPC   GL220378  18.357  15.168   8.864
 1388POPC   C1A20379  18.254  15.182   8.564
 1388POPC   D2A20380  18.329  15.191   8.264
 1388POPC   C3A20381  18.251  15.203   7.964
 1388POPC   C4A20382  18.288  15.197   7.664
 1388POPC   C1B20383  18.548  15.285   8.564
 1388POPC   C2B20384  18.549  15.230   8.264
 1388POPC   C3B20385  18.546  15.229   7.964
 1388POPC   C4B20386  18.531  15.254   7.664
 1389POPC   NC320387  43.906  19.035   9.464
 1389POPC   PO420388  43.916  19.015   9.164
 1389POPC   GL120389  43.873  19.049   8.864
 1389POPC   GL220390  43.864  18.923   8.864
 1389POPC   C1A20391  43.853  19.073   8.564
 1389POPC   D2A20392  43.851  19.052   8.264
 1389POPC   C3A20393  43.916  19.053   7.964
 1389POPC   C4A20394  43.884  19.104   7.664
 1389POPC   C1B20395  43.854  18.847   8.564
 1389POPC   C2B20396  43.853  18.795   8.264
 1389POPC   C3B20397  43.799  18.802   7.964
 1389POPC   C4B20398  43.841  18.853   7.664
 1390POPC   NC320399  44.640  20.581   9.464
 1390POPC   PO420400  44.647  20.654   9.164
 1390POPC   GL120401  44.700  20.627   8.864
 1390POPC   GL220402  44.543  20.511   8.864
 1390POPC   C1A20403  44.632  20.562   8.564
 1390POPC   D2A20404  44.632  20.578   8.264
 1390POPC   C3A20405  44.691  20.627   7.964
 1390POPC   C4A20406  44.630  20.625   7.664
 1390POPC   C1B20407  44.532  20.438   8.564
 1390POPC   C2B20408  44.494  20.448   8.264
 1390POPC   C3B20409  44.488  20.412   7.964
 1390POPC   C4B20410  44.486  20.358   7.664
 1391POPC   NC320411   9.750  34.583   9.464
 1391POPC   PO420412   9.753  34.529   9.164
 1391POPC   GL120413   9.705  34.553   8.864
 1391POPC   GL220414   9.773  34.651   8.864
 1391POPC   C1A20415   9.789  34.582   8.564
 1391POPC   D2A20416   9.777  34.544   8.264
 1391POPC   C3A20417   9.709  34.583   7.964
 1391POPC   C4A20418   9.744  34.595   7.664
 1391POPC   C1B20419   9.858  34.767   8.564
 1391POPC   C2B20420   9.884  34.807   8.264
 1391POPC   C3B20421   9.928  34.828   7.964
 1391POPC   C4B20422   9.920  34.749   7.664
 1392POPC   NC320423   8.217  26.813   9.464
 1392POPC   PO420424   8.243  26.811   9.164
 1392POPC   GL120425   8.226  26.798   8.864
 1392POPC   GL220426   8.099  26.800   8.864
 1392POPC   C1A20427   8.219  26.769   8.564
 1392POPC   D2A20428   8.157  26.858   8.264
 1392POPC   C3A20429   8.223  26.818   7.964
 1392POPC   C4A20430   8.242  26.856   7.664
 1392POPC   C1B20431   7.953  26.794   8.564
 1392POPC   C2B20432   7.978  26.838   8.264
 1392POPC   C3B20433   7.936  26.766   7.964
 1392POPC   C4B20434   7.934  26.788   7.664
 1393POPC   NC320435   2.014  10.558   9.464
 1393POPC   PO420436   1.980  10.476   9.164
 1393POPC   GL120437   2.017  10.540   8.864
 1393POPC   GL220438   2.113  10.458   8.864
 1393POPC   C1A20439   1.970  10.553   8.564
 1393POPC   D2A20440   1.956  10.558   8.264
 1393POPC   C3A20441   1.951  10.482   7.964
 1393POPC   C4A20442   1.996  10.486   7.664
 1393POPC   C1B20443   2.155  10.344   8.564
 1393POPC   C2B20444   2.139  10.365   8.264
 1393POPC   C3B20445   2.140  10.307   7.964
 1393POPC   C4B20446   2.123  10.346   7.664
 1394POPC   NC320447   7.424  10.487   9.464
 1394POPC   PO420448   7.384  10.563   9.164
 1394POPC   GL120449   7.376  10.518   8.864
 1394POPC   GL220450   7.389  10.639   8.864
 1394POPC   C1A20451   7.470  10.516   8.564
 1394POPC   D2A20452   7.443  10.512   8.264
 1394POPC   C3A20453   7.388  10.523   7.964
 1394POPC   C4A20454   7.389  10.516   7.664
 1394POPC   C1B20455   7.401  10.775   8.564
 1394POPC   C2B20456   7.314  10.793   8.264
 1394POPC   C3B20457   7.404  10.755   7.964
 1394POPC   C4B20458   7.343  10.722   7.664
 1395POPC   NC320459  32.980  17.459   9.464
 1395POPC   PO420460  33.012  17.548   9.164
 1395POPC   GL120461  33.072  17.503   8.864
 1395POPC   GL220462  32.948  17.436   8.864
 1395POPC   C1A20463  33.006  17.535   8.564
 1395POPC   D2A20464  33.035  17.496   8.264
 1395POPC   C3A20465  32.996  17.485   7.964
 1395POPC   C4A20466  33.007  17.528   7.664
 1395POPC   C1B20467  32.830  17.280   8.564
 1395POPC   C2B20468  32.803  17.347   8.264
 1395POPC   C3B20469  32.857  17.299   7.964
 1395POPC   C4B20470  32.886  17.348   7.664
 1396POPC   NC320471  12.094  37.695   9.464
 1396POPC   PO420472  12.122  37.682   9.164
 1396POPC   GL120473  12.093  37.687   8.864
 1396POPC   GL220474  12.205  37.712   8.864
 1396POPC   C1A20475  12.057  37.692   8.564
 1396POPC   D2A20476  12.102  37.721   8.264
 1396POPC   C3A20477  12.069  37.700   7.964
 1396POPC   C4A20478  12.119  37.702   7.664
 1396POPC   C1B20479  12.302  37.828   8.564
 1396POPC   C2B20480  12.280  37.818   8.264
 1396POPC   C3B20481  12.319  37.864   7.964
 1396POPC   C4B20482  12.275  37.809   7.664
 1397POPC   NC320483  30.691  29.932   9.464
 1397POPC   PO420484  30.684  29.948   9.164
 1397POPC   GL120485  30.719  29.907   8.864
 1397POPC   GL220486  30.759  30.065   8.864
 1397POPC   C1A20487  30.741  29.925   8.564
 1397POPC   D2A20488  30.727  29.953   8.264
 1397POPC   C3A20489  30.717  29.969   7.964
 1397POPC   C4A20490  30.713  29.920   7.664
 1397POPC   C1B20491  30.835  30.146   8.564
 1397POPC   C2B20492  30.765  30.167   8.264
 1397POPC   C3B20493  30.815  30.122   7.964
 1397POPC   C4B20494  30.779  30.121   7.664
 1398POPC   NC320495  23.705  20.606   9.464
 1398POPC   PO420496  23.669  20.589   9.164
 1398POPC   GL120497  23.715  20.649   8.864
 1398POPC   GL220498  23.627  20.568   8.864
 1398POPC   C1A20499  23.705  20.602   8.564
 1398POPC   D2A20500  23.764  20.626   8.264
 1398POPC   C3A20501  23.706  20.613   7.964
 1398POPC   C4A20502  23.760  20.588   7.664
 1398POPC   C1B20503  23.487  20.505   8.564
 1398POPC   C2B20504  23.549  20.444   8.264
 1398POPC   C3B20505  23.546  20.444   7.964
 1398POPC   C4B20506  23.476  20.462   7.664
 1399POPC   NC320507  24.529  38.456   9.464
 1399POPC   PO420508  24.500  38.500   9.164
 1399POPC   GL120509  24.447  38.461   8.864
 1399POPC   GL220510  24.396  38.306   8.864
 1399POPC   C1A20511  24.477  38.466   8.564
 1399POPC   D2A20512  24.479  38.441   8.264
 1399POPC   C3A20513  24.507  38.474   7.964
 1399POPC   C4A20514  24.460  38.417   7.664
 1399POPC   C1B20515  24.384  38.237   8.564
 1399POPC   C2B20516  24.432  38.251   8.264
 1399POPC   C3B20517  24.350  38.234   7.964
 1399POPC   C4B20518  24.380  38.224   7.664
 1400POPC   NC320519  19.043  38.481   9.464
 1400POPC   PO420520  19.056  38.495   9.164
 1400POPC   GL120521  19.052  38.446   8.864
 1400POPC   GL220522  19.084  38.539   8.864
 1400POPC   C1A20523  19.009  38.424   8.564
 1400POPC   D2A20524  19.028  38.501   8.264
 1400POPC   C3A20525  19.092  38.434   7.964
 1400POPC   C4A20526  19.070  38.463   7.664
 1400POPC   C1B20527  19.100  38.741   8.564
 1400POPC   C2B20528  19.131  38.697   8.264
 1400POPC   C3B20529  19.093  38.696   7.964
 1400POPC   C4B20530  19.122  38.688   7.664
 1401POPC   NC320531   3.550  19.844   9.464
 1401POPC   PO420532   3.559  19.838   9.164
 1401POPC   GL120533   3.524  19.840   8.864
 1401POPC   GL220534   3.703  19.850   8.864
 1401POPC   C1A20535   3.589  19.821   8.564
 1401POPC   D2A20536   3.538  19.863   8.264
 1401POPC   C3A20537   3.577  19.803   7.964
 1401POPC   C4A20538   3.578  19.820   7.664
 1401POPC   C1B20539   3.779  19.773   8.564
 1401POPC   C2B20540   3.738  19.752   8.264
 1401POPC   C3B20541   3.759  19.828   7.964
 1401POPC   C4B20542   3.750  19.796   7.664
 1402POPC   NC320543   9.728  12.087   9.464
 1402POPC   PO420544   9.760  12.045   9.164
 1402POPC   GL120545   9.714  12.063   8.864
 1402POPC   GL220546   9.759  12.218   8.864
 1402POPC   C1A20547   9.717  12.063   8.564
 1402POPC   D2A20548   9.712  12.039   8.264
 1402POPC   C3A20549   9.761  12.038   7.964
 1402POPC   C4A20550   9.762  12.045   7.664
 1402POPC   C1B20551   9.810  12.340   8.564
 1402POPC   C2B20552   9.749  12.310   8.264
 1402POPC   C3B20553   9.744  12.363   7.964
 1402POPC   C4B20554   9.802  12.327   7.664
 1403POPC   NC320555  35.342  31.496   9.464
 1403POPC   PO420556  35.330  31.441   9.164
 1403POPC   GL120557  35.319  31.465   8.864
 1403POPC   GL220558  35.500  31.424   8.864
 1403POPC   C1A20559  35.386  31.423   8.564
 1403POPC   D2A20560  35.351  31.501   8.264
 1403POPC   C3A20561  35.346  31.429   7.964
 1403POPC   C4A20562  35.380  31.513   7.664
 1403POPC   C1B20563  35.574  31.460   8.564
 1403POPC   C2B20564  35.582  31.473   8.264
 1403POPC   C3B20565  35.637  31.430   7.964
 1403POPC   C4B20566  35.572  31.484   7.664
 1404POPC   NC320567  28.369   8.937   9.464
 1404POPC   PO420568  28.333   8.958   9.164
 1404POPC   GL120569  28.350   8.924   8.864
 1404POPC   GL220570  28.227   9.012   8.864
 1404POPC   C1A20571  28.389   8.966   8.564
 1404POPC   D2A20572  28.377   8.924   8.264
 1404POPC   C3A20573  28.388   9.003   7.964
 1404POPC   C4A20574  28.342   9.021   7.664
 1404POPC   C1B20575  28.183   9.050   8.564
 1404POPC   C2B20576  28.187   9.104   8.264
 1404POPC   C3B20577  28.184   9.105   7.964
 1404POPC   C4B20578  28.115   9.037   7.664
 1405POPC   NC320579  29.938  14.383   9.464
 1405POPC   PO420580  29.970  14.413   9.164
 1405POPC   GL120581  29.965  14.361   8.864
 1405POPC   GL220582  30.070  14.351   8.864
 1405POPC   C1A20583  29.919  14.400   8.564
 1405POPC   D2A20584  29.923  14.446   8.264
 1405POPC   C3A20585  29.914  14.384   7.964
 1405POPC   C4A20586  29.949  14.428   7.664
 1405POPC   C1B20587  30.140  14.341   8.564
 1405POPC   C2B20588  30.162  14.276   8.264
 1405POPC   C3B20589  30.110  14.282   7.964
 1405POPC   C4B20590  30.118  14.350   7.664
 1406POPC   NC320591  32.272  21.372   9.464
 1406POPC   PO420592  32.237  21.360   9.164
 1406POPC   GL120593  32.218  21.346   8.864
 1406POPC   GL220594  32.373  21.357   8.864
 1406POPC   C1A20595  32.251  21.386   8.564
 1406POPC   D2A20596  32.281  21.373   8.264
 1406POPC   C3A20597  32.228  21.357   7.964
 1406POPC   C4A20598  32.244  21.340   7.664
 1406POPC   C1B20599  32.463  21.281   8.564
 1406POPC   C2B20600  32.461  21.276   8.264
 1406POPC   C3B20601  32.501  21.275   7.964
 1406POPC   C4B20602  32.444  21.194   7.664
 1407POPC   NC320603  40.027  22.934   9.464
 1407POPC   PO420604  40.005  22.978   9.164
 1407POPC   GL120605  39.978  22.926   8.864
 1407POPC   GL220606  40.103  22.846   8.864
 1407POPC   C1A20607  40.006  22.969   8.564
 1407POPC   D2A20608  39.966  22.921   8.264
 1407POPC   C3A20609  39.966  22.987   7.964
 1407POPC   C4A20610  40.000  22.951   7.664
 1407POPC   C1B20611  40.090  22.744   8.564
 1407POPC   C2B20612  40.169  22.746   8.264
 1407POPC   C3B20613  40.101  22.721   7.964
 1407POPC   C4B20614  40.122  22.734   7.664
 1408POPC   NC320615  19.029  21.423   9.464
 1408POPC   PO420616  19.089  21.390   9.164
 1408POPC   GL120617  19.098  21.339   8.864
 1408POPC   GL220618  18.925  21.388   8.864
 1408POPC   C1A20619  19.060  21.354   8.564
 1408POPC   D2A20620  19.107  21.372   8.264
 1408POPC   C3A20621  19.104  21.357   7.964
 1408POPC   C4A20622  19.078  21.426   7.664
 1408POPC   C1B20623  18.783  21.444   8.564
 1408POPC   C2B20624  18.869  21.491   8.264
 1408POPC   C3B20625  18.812  21.482   7.964
 1408POPC   C4B20626  18.823  21.439   7.664
 1409POPC   NC320627   9.776   1.949   9.464
 1409POPC   PO420628   9.770   1.989   9.164
 1409POPC   GL120629   9.772   2.010   8.864
 1409POPC   GL220630   9.608   1.978   8.864
 1409POPC   C1A20631   9.713   2.004   8.564
 1409POPC   D2A20632   9.792   1.990   8.264
 1409POPC   C3A20633   9.750   1.990   7.964
 1409POPC   C4A20634   9.715   2.009   7.664
 1409POPC   C1B20635   9.519   2.012   8.564
 1409POPC   C2B20636   9.484   2.031   8.264
 1409POPC   C3B20637   9.536   2.052   7.964
 1409POPC   C4B20638   9.474   2.071   7.664
 1410POPC   NC320639  17.515  19.033   9.464
 1410POPC   PO420640  17.470  19.098   9.164
 1410POPC   GL120641  17.511  19.085   8.864
 1410POPC   GL220642  17.533  18.933   8.864
 1410POPC   C1A20643  17.522  19.064   8.564
 1410POPC   D2A20644  17.481  19.012   8.264
 1410POPC   C3A20645  17.482  19.073   7.964
 1410POPC   C4A20646  17.506  19.032   7.664
 1410POPC   C1B20647  17.528  18.829   8.564
 1410POPC   C2B20648  17.550  18.804   8.264
 1410POPC   C3B20649  17.541  18.818   7.964
 1410POPC   C4B20650  17.553  18.850   7.664
 1411POPC   NC320651  36.946  12.097   9.464
 1411POPC   PO420652  36.933  12.111   9.164
 1411POPC   GL120653  36.857  12.082   8.864
 1411POPC   GL220654  36.899  12.219   8.864
 1411POPC   C1A20655  36.952  12.069   8.564
 1411POPC   D2A20656  36.859  12.079   8.264
 1411POPC   C3A20657  36.943  12.118   7.964
 1411POPC   C4A20658  36.863  12.032   7.664
 1411POPC   C1B20659  36.971  12.334   8.564
 1411POPC   C2B20660  36.992  12.348   8.264
 1411POPC   C3B20661  36.918  12.280   7.964
 1411POPC   C4B20662  36.988  12.340   7.664
 1412POPC   NC320663  21.342  33.005   9.464
 1412POPC   PO420664  21.356  33.007   9.164
 1412POPC   GL120665  21.379  33.030   8.864
 1412POPC   GL220666  21.470  33.121   8.864
 1412POPC   C1A20667  21.405  32.975   8.564
 1412POPC   D2A20668  21.428  32.977   8.264
 1412POPC   C3A20669  21.427  33.000   7.964
 1412POPC   C4A20670  21.367  33.005   7.664
 1412POPC   C1B20671  21.512  33.279   8.564
 1412POPC   C2B20672  21.505  33.206   8.264
 1412POPC   C3B20673  21.537  33.269   7.964
 1412POPC   C4B20674  21.508  33.255   7.664
 1413POPC   NC320675  40.008  32.976   9.464
 1413POPC   PO420676  39.967  32.990   9.164
 1413POPC   GL120677  40.019  32.979   8.864
 1413POPC   GL220678  40.061  33.132   8.864
 1413POPC   C1A20679  40.044  33.057   8.564
 1413POPC   D2A20680  39.975  32.979   8.264
 1413POPC   C3A20681  40.047  32.981   7.964
 1413POPC   C4A20682  39.998  32.981   7.664
 1413POPC   C1B20683  40.151  33.257   8.564
 1413POPC   C2B20684  40.215  33.180   8.264
 1413POPC   C3B20685  40.152  33.208   7.964
 1413POPC   C4B20686  40.214  33.164   7.664
 1414POPC   NC320687  26.774  32.211   9.464
 1414POPC   PO420688  26.820  32.220   9.164
 1414POPC   GL120689  26.783  32.273   8.864
 1414POPC   GL220690  26.915  32.241   8.864
 1414POPC   C1A20691  26.847  32.298   8.564
 1414POPC   D2A20692  26.826  32.229   8.264
 1414POPC   C3A20693  26.769  32.291   7.964
 1414POPC   C4A20694  26.842  32.216   7.664
 1414POPC   C1B20695  27.035  32.176   8.564
 1414POPC   C2B20696  27.074  32.092   8.264
 1414POPC   C3B20697  27.035  32.098   7.964
 1414POPC   C4B20698  27.048  32.124   7.664
 1415POPC   NC320699  29.156  12.896   9.464
 1415POPC   PO420700  29.185  12.898   9.164
 1415POPC   GL120701  29.176  12.828   8.864
 1415POPC   GL220702  29.127  12.690   8.864
 1415POPC   C1A20703  29.165  12.868   8.564
 1415POPC   D2A20704  29.142  12.901   8.264
 1415POPC   C3A20705  29.168  12.860   7.964
 1415POPC   C4A20706  29.106  12.840   7.664
 1415POPC   C1B20707  29.044  12.638   8.564
 1415POPC   C2B20708  28.994  12.602   8.264
 1415POPC   C3B20709  29.046  12.637   7.964
 1415POPC   C4B20710  29.023  12.620   7.664
 1416POPC   NC320711   1.228  15.151   9.464
 1416POPC   PO420712   1.233  15.151   9.164
 1416POPC   GL120713   1.165  15.217   8.864
 1416POPC   GL220714   1.210  15.042   8.864
 1416POPC   C1A20715   1.206  15.221   8.564
 1416POPC   D2A20716   1.263  15.152   8.264
 1416POPC   C3A20717   1.189  15.150   7.964
 1416POPC   C4A20718   1.238  15.175   7.664
 1416POPC   C1B20719   1.183  14.929   8.564
 1416POPC   C2B20720   1.157  14.916   8.264
 1416POPC   C3B20721   1.131  14.953   7.964
 1416POPC   C4B20722   1.147  14.913   7.664
 1417POPC   NC320723  12.841  40.779   9.464
 1417POPC   PO420724  12.810  40.797   9.164
 1417POPC   GL120725  12.813  40.809   8.864
 1417POPC   GL220726  12.799  40.943   8.864
 1417POPC   C1A20727  12.898  40.798   8.564
 1417POPC   D2A20728  12.878  40.748   8.264
 1417POPC   C3A20729  12.841  40.756   7.964
 1417POPC   C4A20730  12.852  40.762   7.664
 1417POPC   C1B20731  12.699  40.962   8.564
 1417POPC   C2B20732  12.797  41.011   8.264
 1417POPC   C3B20733  12.746  41.008   7.964
 1417POPC   C4B20734  12.753  41.018   7.664
 1418POPC   NC320735  36.164  33.803   9.464
 1418POPC   PO420736  36.120  33.805   9.164
 1418POPC   GL120737  36.110  33.807   8.864
 1418POPC   GL220738  36.126  33.933   8.864
 1418POPC   C1A20739  36.102  33.835   8.564
 1418POPC   D2A20740  36.156  33.782   8.264
 1418POPC   C3A20741  36.108  33.827   7.964
 1418POPC   C4A20742  36.101  33.760   7.664
 1418POPC   C1B20743  36.090  34.072   8.564
 1418POPC   C2B20744  36.084  34.053   8.264
 1418POPC   C3B20745  36.052  33.998   7.964
 1418POPC   C4B20746  36.028  34.042   7.664
 1419POPC   NC320747  14.421  35.338   9.464
 1419POPC   PO420748  14.422  35.310   9.164
 1419POPC   GL120749  14.425  35.392   8.864
 1419POPC   GL220750  14.375  35.227   8.864
 1419POPC   C1A20751  14.449  35.325   8.564
 1419POPC   D2A20752  14.354  35.316   8.264
 1419POPC   C3A20753  14.420  35.341   7.964
 1419POPC   C4A20754  14.357  35.346   7.664
 1419POPC   C1B20755  14.453  35.100   8.564
 1419POPC   C2B20756  14.412  35.064   8.264
 1419POPC   C3B20757  14.408  35.057   7.964
 1419POPC   C4B20758  14.380  35.064   7.664
 1420POPC   NC320759   1.240  19.811   9.464
 1420POPC   PO420760   1.245  19.794   9.164
 1420POPC   GL120761   1.224  19.815   8.864
 1420POPC   GL220762   1.243  19.917   8.864
 1420POPC   C1A20763   1.253  19.852   8.564
 1420POPC   D2A20764   1.214  19.816   8.264
 1420POPC   C3A20765   1.241  19.785   7.964
 1420POPC   C4A20766   1.197  19.841   7.664
 1420POPC   C1B20767   1.359  20.045   8.564
 1420POPC   C2B20768   1.342  20.062   8.264
 1420POPC   C3B20769   1.297  20.088   7.964
 1420POPC   C4B20770   1.344  20.072   7.664
 1421POPC   NC320771  15.224  37.661   9.464
 1421POPC   PO420772  15.191  37.669   9.164
 1421POPC   GL120773  15.215  37.661   8.864
 1421POPC   GL220774  15.262  37.599   8.864
 1421POPC   C1A20775  15.164  37.723   8.564
 1421POPC   D2A20776  15.188  37.654   8.264
 1421POPC   C3A20777  15.166  37.709   7.964
 1421POPC   C4A20778  15.173  37.660   7.664
 1421POPC   C1B20779  15.314  37.460   8.564
 1421POPC   C2B20780  15.309  37.508   8.264
 1421POPC   C3B20781  15.290  37.526   7.964
 1421POPC   C4B20782  15.335  37.443   7.664
 1422POPC   NC320783  22.936  36.161   9.464
 1422POPC   PO420784  22.933  36.174   9.164
 1422POPC   GL120785  22.946  36.131   8.864
 1422POPC   GL220786  23.046  36.176   8.864
 1422POPC   C1A20787  22.950  36.100   8.564
 1422POPC   D2A20788  22.955  36.122   8.264
 1422POPC   C3A20789  22.959  36.134   7.964
 1422POPC   C4A20790  22.943  36.171   7.664
 1422POPC   C1B20791  23.128  36.319   8.564
 1422POPC   C2B20792  23.109  36.332   8.264
 1422POPC   C3B20793  23.087  36.295   7.964
 1422POPC   C4B20794  23.097  36.334   7.664
 1423POPC   NC320795  28.387  30.704   9.464
 1423POPC   PO420796  28.320  30.706   9.164
 1423POPC   GL120797  28.375  30.716   8.864
 1423POPC   GL220798  28.355  30.773   8.864
 1423POPC   C1A20799  28.413  30.746   8.564
 1423POPC   D2A20800  28.372  30.699   8.264
 1423POPC   C3A20801  28.415  30.746   7.964
 1423POPC   C4A20802  28.350  30.710   7.664
 1423POPC   C1B20803  28.289  30.981   8.564
 1423POPC   C2B20804  28.286  30.938   8.264
 1423POPC   C3B20805  28.382  30.988   7.964
 1423POPC   C4B20806  28.295  30.943   7.664
 1424POPC   NC320807   8.925   8.958   9.464
 1424POPC   PO420808   8.979   8.947   9.164
 1424POPC   GL120809   8.994   8.945   8.864
 1424POPC   GL220810   8.847   8.880   8.864
 1424POPC   C1A20811   8.971   9.018   8.564
 1424POPC   D2A20812   8.988   8.948   8.264
 1424POPC   C3A20813   8.979   8.982   7.964
 1424POPC   C4A20814   8.984   9.003   7.664
 1424POPC   C1B20815   8.753   8.805   8.564
 1424POPC   C2B20816   8.721   8.875   8.264
 1424POPC   C3B20817   8.784   8.793   7.964
 1424POPC   C4B20818   8.767   8.862   7.664
 1425POPC   NC320819   5.082  17.548   9.464
 1425POPC   PO420820   5.128  17.496   9.164
 1425POPC   GL120821   5.139  17.548   8.864
 1425POPC   GL220822   4.947  17.470   8.864
 1425POPC   C1A20823   5.059  17.504   8.564
 1425POPC   D2A20824   5.143  17.514   8.264
 1425POPC   C3A20825   5.102  17.556   7.964
 1425POPC   C4A20826   5.046  17.531   7.664
 1425POPC   C1B20827   4.872  17.438   8.564
 1425POPC   C2B20828   4.873  17.392   8.264
 1425POPC   C3B20829   4.867  17.387   7.964
 1425POPC   C4B20830   4.880  17.442   7.664
 1426POPC   NC320831  24.510  12.871   9.464
 1426POPC   PO420832  24.449  12.880   9.164
 1426POPC   GL120833  24.448  12.806   8.864
 1426POPC   GL220834  24.605  12.895   8.864
 1426POPC   C1A20835  24.485  12.898   8.564
 1426POPC   D2A20836  24.458  12.814   8.264
 1426POPC   C3A20837  24.511  12.901   7.964
 1426POPC   C4A20838  24.462  12.889   7.664
 1426POPC   C1B20839  24.752  12.838   8.564
 1426POPC   C2B20840  24.764  12.845   8.264
 1426POPC   C3B20841  24.773  12.839   7.964
 1426POPC   C4B20842  24.713  12.862   7.664
 1427POPC   NC320843   0.439  36.866   9.464
 1427POPC   PO420844   0.437  36.869   9.164
 1427POPC   GL120845   0.437  36.872   8.864
 1427POPC   GL220846   0.602  36.862   8.864
 1427POPC   C1A20847   0.486  36.887   8.564
 1427POPC   D2A20848   0.472  36.944   8.264
 1427POPC   C3A20849   0.432  36.874   7.964
 1427POPC   C4A20850   0.446  36.883   7.664
 1427POPC   C1B20851   0.643  36.959   8.564
 1427POPC   C2B20852   0.639  36.895   8.264
 1427POPC   C3B20853   0.658  36.921   7.964
 1427POPC   C4B20854   0.710  36.897   7.664
 1428POPC   NC320855  38.497  16.761   9.464
 1428POPC   PO420856  38.411  16.758   9.164
 1428POPC   GL120857  38.416  16.762   8.864
 1428POPC   GL220858  38.309  16.765   8.864
 1428POPC   C1A20859  38.422  16.730   8.564
 1428POPC   D2A20860  38.491  16.753   8.264
 1428POPC   C3A20861  38.454  16.681   7.964
 1428POPC   C4A20862  38.468  16.781   7.664
 1428POPC   C1B20863  38.258  16.826   8.564
 1428POPC   C2B20864  38.224  16.805   8.264
 1428POPC   C3B20865  38.195  16.859   7.964
 1428POPC   C4B20866  38.246  16.822   7.664
 1429POPC   NC320867  26.088  19.100   9.464
 1429POPC   PO420868  26.036  19.012   9.164
 1429POPC   GL120869  26.029  19.090   8.864
 1429POPC   GL220870  25.993  19.181   8.864
 1429POPC   C1A20871  25.999  19.092   8.564
 1429POPC   D2A20872  26.088  19.024   8.264
 1429POPC   C3A20873  26.086  19.106   7.964
 1429POPC   C4A20874  26.045  19.014   7.664
 1429POPC   C1B20875  26.032  19.324   8.564
 1429POPC   C2B20876  26.014  19.355   8.264
 1429POPC   C3B20877  26.068  19.290   7.964
 1429POPC   C4B20878  25.975  19.285   7.664
 1430POPC   NC320879   8.226  43.916   9.464
 1430POPC   PO420880   8.199  43.900   9.164
 1430POPC   GL120881   8.188  43.905   8.864
 1430POPC   GL220882   8.178  44.007   8.864
 1430POPC   C1A20883   8.166  43.935   8.564
 1430POPC   D2A20884   8.180  43.858   8.264
 1430POPC   C3A20885   8.243  43.840   7.964
 1430POPC   C4A20886   8.215  43.896   7.664
 1430POPC   C1B20887   8.170  44.176   8.564
 1430POPC   C2B20888   8.173  44.114   8.264
 1430POPC   C3B20889   8.174  44.155   7.964
 1430POPC   C4B20890   8.187  44.181   7.664
 1431POPC   NC320891   0.474  28.322   9.464
 1431POPC   PO420892   0.443  28.355   9.164
 1431POPC   GL120893   0.457  28.342   8.864
 1431POPC   GL220894   0.317  28.440   8.864
 1431POPC   C1A20895   0.481  28.328   8.564
 1431POPC   D2A20896   0.392  28.359   8.264
 1431POPC   C3A20897   0.439  28.322   7.964
 1431POPC   C4A20898   0.443  28.380   7.664
 1431POPC   C1B20899   0.219  28.431   8.564
 1431POPC   C2B20900   0.205  28.393   8.264
 1431POPC   C3B20901   0.220  28.426   7.964
 1431POPC   C4B20902   0.174  28.393   7.664
 1432POPC   NC320903  22.936  40.037   9.464
 1432POPC   PO420904  22.970  40.000   9.164
 1432POPC   GL120905  22.985  40.001   8.864
 1432POPC   GL220906  22.861  40.007   8.864
 1432POPC   C1A20907  22.941  40.050   8.564
 1432POPC   D2A20908  22.940  40.025   8.264
 1432POPC   C3A20909  22.895  40.014   7.964
 1432POPC   C4A20910  22.929  39.991   7.664
 1432POPC   C1B20911  22.705  40.088   8.564
 1432POPC   C2B20912  22.752  40.062   8.264
 1432POPC   C3B20913  22.683  40.099   7.964
 1432POPC   C4B20914  22.669  40.060   7.664
 1433POPC   NC320915   9.779  38.414   9.464
 1433POPC   PO420916   9.718  38.436   9.164
 1433POPC   GL120917   9.721  38.416   8.864
 1433POPC   GL220918   9.812  38.339   8.864
 1433POPC   C1A20919   9.757  38.431   8.564
 1433POPC   D2A20920   9.701  38.479   8.264
 1433POPC   C3A20921   9.777  38.499   7.964
 1433POPC   C4A20922   9.763  38.480   7.664
 1433POPC   C1B20923   9.964  38.279   8.564
 1433POPC   C2B20924   9.975  38.246   8.264
 1433POPC   C3B20925   9.899  38.245   7.964
 1433POPC   C4B20926   9.890  38.250   7.664
 1434POPC   NC320927  37.649  13.647   9.464
 1434POPC   PO420928  37.675  13.645   9.164
 1434POPC   GL120929  37.713  13.622   8.864
 1434POPC   GL220930  37.779  13.525   8.864
 1434POPC   C1A20931  37.725  13.672   8.564
 1434POPC   D2A20932  37.717  13.663   8.264
 1434POPC   C3A20933  37.669  13.640   7.964
 1434POPC   C4A20934  37.690  13.633   7.664
 1434POPC   C1B20935  37.815  13.440   8.564
 1434POPC   C2B20936  37.778  13.371   8.264
 1434POPC   C3B20937  37.752  13.371   7.964
 1434POPC   C4B20938  37.762  13.442   7.664
 1435POPC   NC320939  22.940  12.047   9.464
 1435POPC   PO420940  22.946  12.110   9.164
 1435POPC   GL120941  22.931  12.097   8.864
 1435POPC   GL220942  23.020  12.095   8.864
 1435POPC   C1A20943  22.935  12.072   8.564
 1435POPC   D2A20944  22.915  12.115   8.264
 1435POPC   C3A20945  22.937  12.076   7.964
 1435POPC   C4A20946  22.903  12.123   7.664
 1435POPC   C1B20947  23.126  12.148   8.564
 1435POPC   C2B20948  23.123  12.191   8.264
 1435POPC   C3B20949  23.208  12.157   7.964
 1435POPC   C4B20950  23.163  12.209   7.664
 1436POPC   NC320951  18.270  25.244   9.464
 1436POPC   PO420952  18.266  25.286   9.164
 1436POPC   GL120953  18.262  25.241   8.864
 1436POPC   GL220954  18.280  25.118   8.864
 1436POPC   C1A20955  18.238  25.250   8.564
 1436POPC   D2A20956  18.270  25.251   8.264
 1436POPC   C3A20957  18.278  25.220   7.964
 1436POPC   C4A20958  18.274  25.309   7.664
 1436POPC   C1B20959  18.308  25.021   8.564
 1436POPC   C2B20960  18.296  24.976   8.264
 1436POPC   C3B20961  18.258  24.999   7.964
 1436POPC   C4B20962  18.298  25.057   7.664
 1437POPC   NC320963  22.914  39.264   9.464
 1437POPC   PO420964  22.944  39.189   9.164
 1437POPC   GL120965  22.910  39.195   8.864
 1437POPC   GL220966  23.047  39.195   8.864
 1437POPC   C1A20967  22.942  39.258   8.564
 1437POPC   D2A20968  22.894  39.182   8.264
 1437POPC   C3A20969  22.982  39.186   7.964
 1437POPC   C4A20970  22.919  39.238   7.664
 1437POPC   C1B20971  23.149  39.158   8.564
 1437POPC   C2B20972  23.145  39.093   8.264
 1437POPC   C3B20973  23.202  39.154   7.964
 1437POPC   C4B20974  23.199  39.112   7.664
 1438POPC   NC320975  36.915  23.666   9.464
 1438POPC   PO420976  36.892  23.694   9.164
 1438POPC   GL120977  36.864  23.737   8.864
 1438POPC   GL220978  36.878  23.602   8.864
 1438POPC   C1A20979  36.907  23.695   8.564
 1438POPC   D2A20980  36.896  23.693   8.264
 1438POPC   C3A20981  36.945  23.705   7.964
 1438POPC   C4A20982  36.854  23.724   7.664
 1438POPC   C1B20983  36.855  23.497   8.564
 1438POPC   C2B20984  36.846  23.510   8.264
 1438POPC   C3B20985  36.893  23.426   7.964
 1438POPC   C4B20986  36.861  23.466   7.664
 1439POPC   NC320987  15.205   9.746   9.464
 1439POPC   PO420988  15.190   9.714   9.164
 1439POPC   GL120989  15.154   9.777   8.864
 1439POPC   GL220990  15.194   9.582   8.864
 1439POPC   C1A20991  15.213   9.746   8.564
 1439POPC   D2A20992  15.141   9.707   8.264
 1439POPC   C3A20993  15.136   9.775   7.964
 1439POPC   C4A20994  15.162   9.743   7.664
 1439POPC   C1B20995  15.144   9.544   8.564
 1439POPC   C2B20996  15.162   9.515   8.264
 1439POPC   C3B20997  15.196   9.493   7.964
 1439POPC   C4B20998  15.177   9.498   7.664
 1440POPC   NC320999  15.923  43.885   9.464
 1440POPC   PO421000  15.941  43.901   9.164
 1440POPC   GL121001  16.002  43.929   8.864
 1440POPC   GL221002  16.019  44.010   8.864
 1440POPC   C1A21003  15.918  43.912   8.564
 1440POPC   D2A21004  15.965  43.925   8.264
 1440POPC   C3A21005  15.925  43.934   7.964
 1440POPC   C4A21006  15.933  43.914   7.664
 1440POPC   C1B21007  16.068  44.070   8.564
 1440POPC   C2B21008  16.094  44.124   8.264
 1440POPC   C3B21009  16.009  44.076   7.964
 1440POPC   C4B21010  16.091  44.108   7.664
 1441POPC   NC321011   8.955  17.483   9.464
 1441POPC   PO421012   9.000  17.467   9.164
 1441POPC   GL121013   9.005  17.549   8.864
 1441POPC   GL221014   9.080  17.451   8.864
 1441POPC   C1A21015   8.969  17.498   8.564
 1441POPC   D2A21016   8.984  17.459   8.264
 1441POPC   C3A21017   8.970  17.549   7.964
 1441POPC   C4A21018   8.971  17.504   7.664
 1441POPC   C1B21019   9.163  17.356   8.564
 1441POPC   C2B21020   9.221  17.419   8.264
 1441POPC   C3B21021   9.179  17.341   7.964
 1441POPC   C4B21022   9.187  17.418   7.664
 1442POPC   NC321023  32.231  43.847   9.464
 1442POPC   PO421024  32.220  43.882   9.164
 1442POPC   GL121025  32.209  43.880   8.864
 1442POPC   GL221026  32.244  43.815   8.864
 1442POPC   C1A21027  32.293  43.863   8.564
 1442POPC   D2A21028  32.288  43.918   8.264
 1442POPC   C3A21029  32.222  43.929   7.964
 1442POPC   C4A21030  32.252  43.886   7.664
 1442POPC   C1B21031  32.216  43.663   8.564
 1442POPC   C2B21032  32.139  43.631   8.264
 1442POPC   C3B21033  32.144  43.612   7.964
 1442POPC   C4B21034  32.198  43.635   7.664
 1443POPC   NC321035   5.104   1.985   9.464
 1443POPC   PO421036   5.123   2.010   9.164
 1443POPC   GL121037   5.090   1.962   8.864
 1443POPC   GL221038   5.050   2.105   8.864
 1443POPC   C1A21039   5.110   2.002   8.564
 1443POPC   D2A21040   5.142   1.962   8.264
 1443POPC   C3A21041   5.054   1.996   7.964
 1443POPC   C4A21042   5.058   2.019   7.664
 1443POPC   C1B21043   4.991   2.250   8.564
 1443POPC   C2B21044   4.940   2.257   8.264
 1443POPC   C3B21045   4.975   2.256   7.964
 1443POPC   C4B21046   4.961   2.228   7.664
 1444POPC   NC321047  26.087  26.019   9.464
 1444POPC   PO421048  26.083  26.014   9.164
 1444POPC   GL121049  26.021  26.067   8.864
 1444POPC   GL221050  26.186  25.946   8.864
 1444POPC   C1A21051  26.076  26.013   8.564
 1444POPC   D2A21052  25.998  26.076   8.264
 1444POPC   C3A21053  26.011  26.026   7.964
 1444POPC   C4A21054  26.044  26.045   7.664
 1444POPC   C1B21055  26.282  25.882   8.564
 1444POPC   C2B21056  26.237  25.902   8.264
 1444POPC   C3B21057  26.302  25.874   7.964
 1444POPC   C4B21058  26.228  25.905   7.664
 1445POPC   NC321059  22.956   3.548   9.464
 1445POPC   PO421060  22.931   3.532   9.164
 1445POPC   GL121061  22.936   3.549   8.864
 1445POPC   GL221062  22.820   3.547   8.864
 1445POPC   C1A21063  22.904   3.569   8.564
 1445POPC   D2A21064  22.981   3.538   8.264
 1445POPC   C3A21065  22.958   3.555   7.964
 1445POPC   C4A21066  22.919   3.568   7.664
 1445POPC   C1B21067  22.647   3.516   8.564
 1445POPC   C2B21068  22.664   3.486   8.264
 1445POPC   C3B21069  22.646   3.495   7.964
 1445POPC   C4B21070  22.734   3.513   7.664
 1446POPC   NC321071  21.414  40.003   9.464
 1446POPC   PO421072  21.363  40.013   9.164
 1446POPC   GL121073  21.345  40.003   8.864
 1446POPC   GL221074  21.273  39.926   8.864
 1446POPC   C1A21075  21.346  40.003   8.564
 1446POPC   D2A21076  21.371  40.020   8.264
 1446POPC   C3A21077  21.381  40.056   7.964
 1446POPC   C4A21078  21.374  40.051   7.664
 1446POPC   C1B21079  21.254  39.848   8.564
 1446POPC   C2B21080  21.254  39.817   8.264
 1446POPC   C3B21081  21.196  39.789   7.964
 1446POPC   C4B21082  21.274  39.803   7.664
 1447POPC   NC321083  15.935   0.472   9.464
 1447POPC   PO421084  15.910   0.455   9.164
 1447POPC   GL121085  15.998   0.451   8.864
 1447POPC   GL221086  15.854   0.331   8.864
 1447POPC   C1A21087  15.915   0.471   8.564
 1447POPC   D2A21088  15.999   0.476   8.264
 1447POPC   C3A21089  15.931   0.391   7.964
 1447POPC   C4A21090  15.982   0.487   7.664
 1447POPC   C1B21091  15.719   0.236   8.564
 1447POPC   C2B21092  15.744   0.250   8.264
 1447POPC   C3B21093  15.770   0.271   7.964
 1447POPC   C4B21094  15.759   0.257   7.664
 1448POPC   NC321095  15.216   8.958   9.464
 1448POPC   PO421096  15.229   9.018   9.164
 1448POPC   GL121097  15.135   8.997   8.864
 1448POPC   GL221098  15.198   9.069   8.864
 1448POPC   C1A21099  15.226   8.926   8.564
 1448POPC   D2A21100  15.169   8.969   8.264
 1448POPC   C3A21101  15.215   8.969   7.964
 1448POPC   C4A21102  15.166   8.951   7.664
 1448POPC   C1B21103  15.265   9.238   8.564
 1448POPC   C2B21104  15.235   9.234   8.264
 1448POPC   C3B21105  15.259   9.235   7.964
 1448POPC   C4B21106  15.191   9.254   7.664
 1449POPC   NC321107  23.707  25.273   9.464
 1449POPC   PO421108  23.746  25.240   9.164
 1449POPC   GL121109  23.713  25.285   8.864
 1449POPC   GL221110  23.665  25.429   8.864
 1449POPC   C1A21111  23.760  25.308   8.564
 1449POPC   D2A21112  23.691  25.284   8.264
 1449POPC   C3A21113  23.711  25.307   7.964
 1449POPC   C4A21114  23.699  25.239   7.664
 1449POPC   C1B21115  23.696  25.506   8.564
 1449POPC   C2B21116  23.652  25.471   8.264
 1449POPC   C3B21117  23.662  25.552   7.964
 1449POPC   C4B21118  23.688  25.514   7.664
 1450POPC   NC321119   0.477   3.551   9.464
 1450POPC   PO421120   0.441   3.533   9.164
 1450POPC   GL121121   0.450   3.588   8.864
 1450POPC   GL221122   0.518   3.587   8.864
 1450POPC   C1A21123   0.483   3.587   8.564
 1450POPC   D2A21124   0.464   3.577   8.264
 1450POPC   C3A21125   0.434   3.578   7.964
 1450POPC   C4A21126   0.468   3.578   7.664
 1450POPC   C1B21127   0.632   3.645   8.564
 1450POPC   C2B21128   0.706   3.626   8.264
 1450POPC   C3B21129   0.618   3.705   7.964
 1450POPC   C4B21130   0.632   3.632   7.664
 1451POPC   NC321131  17.469  15.982   9.464
 1451POPC   PO421132  17.554  15.938   9.164
 1451POPC   GL121133  17.470  15.916   8.864
 1451POPC   GL221134  17.435  16.031   8.864
 1451POPC   C1A21135  17.554  15.989   8.564
 1451POPC   D2A21136  17.521  15.957   8.264
 1451POPC   C3A21137  17.553  15.987   7.964
 1451POPC   C4A21138  17.474  15.945   7.664
 1451POPC   C1B21139  17.315  16.099   8.564
 1451POPC   C2B21140  17.330  16.154   8.264
 1451POPC   C3B21141  17.360  16.131   7.964
 1451POPC   C4B21142  17.354  16.142   7.664
 1452POPC   NC321143   2.753  22.976   9.464
 1452POPC   PO421144   2.771  22.946   9.164
 1452POPC   GL121145   2.716  22.987   8.864
 1452POPC   GL221146   2.649  22.848   8.864
 1452POPC   C1A21147   2.758  22.913   8.564
 1452POPC   D2A21148   2.770  22.956   8.264
 1452POPC   C3A21149   2.783  22.930   7.964
 1452POPC   C4A21150   2.789  22.977   7.664
 1452POPC   C1B21151   2.511  22.800   8.564
 1452POPC   C2B21152   2.493  22.892   8.264
 1452POPC   C3B21153   2.499  22.844   7.964
 1452POPC   C4B21154   2.514  22.875   7.664
 1453POPC   NC321155   7.378  19.050   9.464
 1453POPC   PO421156   7.429  19.012   9.164
 1453POPC   GL121157   7.461  19.092   8.864
 1453POPC   GL221158   7.482  19.196   8.864
 1453POPC   C1A21159   7.398  19.038   8.564
 1453POPC   D2A21160   7.385  19.039   8.264
 1453POPC   C3A21161   7.408  19.100   7.964
 1453POPC   C4A21162   7.415  19.075   7.664
 1453POPC   C1B21163   7.552  19.241   8.564
 1453POPC   C2B21164   7.583  19.274   8.264
 1453POPC   C3B21165   7.567  19.228   7.964
 1453POPC   C4B21166   7.545  19.195   7.664
 1454POPC   NC321167  23.688  22.892   9.464
 1454POPC   PO421168  23.750  22.950   9.164
 1454POPC   GL121169  23.694  22.946   8.864
 1454POPC   GL221170  23.808  22.905   8.864
 1454POPC   C1A21171  23.747  22.900   8.564
 1454POPC   D2A21172  23.729  22.937   8.264
 1454POPC   C3A21173  23.712  22.932   7.964
 1454POPC   C4A21174  23.745  22.920   7.664
 1454POPC   C1B21175  23.973  22.831   8.564
 1454POPC   C2B21176  23.967  22.790   8.264
 1454POPC   C3B21177  23.921  22.855   7.964
 1454POPC   C4B21178  23.949  22.841   7.664
 1455POPC   NC321179  19.810  16.750   9.464
 1455POPC   PO421180  19.790  16.710   9.164
 1455POPC   GL121181  19.817  16.742   8.864
 1455POPC   GL221182  19.905  16.808   8.864
 1455POPC   C1A21183  19.878  16.769   8.564
 1455POPC   D2A21184  19.825  16.740   8.264
 1455POPC   C3A21185  19.811  16.712   7.964
 1455POPC   C4A21186  19.832  16.774   7.664
 1455POPC   C1B21187  19.967  16.953   8.564
 1455POPC   C2B21188  19.957  16.922   8.264
 1455POPC   C3B21189  19.933  16.900   7.964
 1455POPC   C4B21190  20.009  16.927   7.664
 1456POPC   NC321191  40.814  24.473   9.464
 1456POPC   PO421192  40.826  24.517   9.164
 1456POPC   GL121193  40.774  24.511   8.864
 1456POPC   GL221194  40.847  24.394   8.864
 1456POPC   C1A21195  40.740  24.533   8.564
 1456POPC   D2A21196  40.806  24.445   8.264
 1456POPC   C3A21197  40.832  24.504   7.964
 1456POPC   C4A21198  40.812  24.532   7.664
 1456POPC   C1B21199  40.941  24.315   8.564
 1456POPC   C2B21200  40.999  24.311   8.264
 1456POPC   C3B21201  40.934  24.315   7.964
 1456POPC   C4B21202  40.991  24.313   7.664
 1457POPC   NC321203  25.996  41.532   9.464
 1457POPC   PO421204  25.997  41.589   9.164
 1457POPC   GL121205  25.994  41.599   8.864
 1457POPC   GL221206  26.007  41.669   8.864
 1457POPC   C1A21207  26.020  41.554   8.564
 1457POPC   D2A21208  26.034  41.528   8.264
 1457POPC   C3A21209  26.085  41.527   7.964
 1457POPC   C4A21210  26.076  41.536   7.664
 1457POPC   C1B21211  26.084  41.843   8.564
 1457POPC   C2B21212  26.070  41.759   8.264
 1457POPC   C3B21213  26.066  41.828   7.964
 1457POPC   C4B21214  26.059  41.802   7.664
 1458POPC   NC321215  39.246  35.379   9.464
 1458POPC   PO421216  39.200  35.396   9.164
 1458POPC   GL121217  39.230  35.328   8.864
 1458POPC   GL221218  39.163  35.248   8.864
 1458POPC   C1A21219  39.187  35.344   8.564
 1458POPC   D2A21220  39.242  35.356   8.264
 1458POPC   C3A21221  39.254  35.370   7.964
 1458POPC   C4A21222  39.192  35.358   7.664
 1458POPC   C1B21223  39.199  35.146   8.564
 1458POPC   C2B21224  39.138  35.148   8.264
 1458POPC   C3B21225  39.116  35.158   7.964
 1458POPC   C4B21226  39.189  35.100   7.664
 1459POPC   NC321227  11.325  30.703   9.464
 1459POPC   PO421228  11.275  30.648   9.164
 1459POPC   GL121229  11.317  30.702   8.864
 1459POPC   GL221230  11.395  30.542   8.864
 1459POPC   C1A21231  11.252  30.674   8.564
 1459POPC   D2A21232  11.303  30.713   8.264
 1459POPC   C3A21233  11.345  30.668   7.964
 1459POPC   C4A21234  11.345  30.702   7.664
 1459POPC   C1B21235  11.353  30.503   8.564
 1459POPC   C2B21236  11.415  30.481   8.264
 1459POPC   C3B21237  11.363  30.509   7.964
 1459POPC   C4B21238  11.427  30.460   7.664
 1460POPC   NC321239  12.900  13.596   9.464
 1460POPC   PO421240  12.880  13.662   9.164
 1460POPC   GL121241  12.844  13.638   8.864
 1460POPC   GL221242  12.861  13.544   8.864
 1460POPC   C1A21243  12.832  13.608   8.564
 1460POPC   D2A21244  12.855  13.627   8.264
 1460POPC   C3A21245  12.814  13.668   7.964
 1460POPC   C4A21246  12.825  13.670   7.664
 1460POPC   C1B21247  12.843  13.359   8.564
 1460POPC   C2B21248  12.884  13.420   8.264
 1460POPC   C3B21249  12.903  13.413   7.964
 1460POPC   C4B21250  12.857  13.353   7.664
 1461POPC   NC321251  43.928  22.954   9.464
 1461POPC   PO421252  43.929  22.922   9.164
 1461POPC   GL121253  43.867  22.962   8.864
 1461POPC   GL221254  43.972  22.965   8.864
 1461POPC   C1A21255  43.932  22.894   8.564
 1461POPC   D2A21256  43.887  22.957   8.264
 1461POPC   C3A21257  43.880  22.900   7.964
 1461POPC   C4A21258  43.850  22.893   7.664
 1461POPC   C1B21259  44.149  23.044   8.564
 1461POPC   C2B21260  44.164  23.073   8.264
 1461POPC   C3B21261  44.126  23.047   7.964
 1461POPC   C4B21262  44.152  23.076   7.664
 1462POPC   NC321263  28.410  10.555   9.464
 1462POPC   PO421264  28.331  10.517   9.164
 1462POPC   GL121265  28.344  10.564   8.864
 1462POPC   GL221266  28.260  10.485   8.864
 1462POPC   C1A21267  28.371  10.573   8.564
 1462POPC   D2A21268  28.412  10.532   8.264
 1462POPC   C3A21269  28.337  10.551   7.964
 1462POPC   C4A21270  28.384  10.483   7.664
 1462POPC   C1B21271  28.117  10.349   8.564
 1462POPC   C2B21272  28.194  10.381   8.264
 1462POPC   C3B21273  28.154  10.373   7.964
 1462POPC   C4B21274  28.134  10.388   7.664
 1463POPC   NC321275  18.328  35.315   9.464
 1463POPC   PO421276  18.241  35.317   9.164
 1463POPC   GL121277  18.297  35.357   8.864
 1463POPC   GL221278  18.127  35.342   8.864
 1463POPC   C1A21279  18.257  35.330   8.564
 1463POPC   D2A21280  18.300  35.309   8.264
 1463POPC   C3A21281  18.307  35.314   7.964
 1463POPC   C4A21282  18.329  35.344   7.664
 1463POPC   C1B21283  18.043  35.240   8.564
 1463POPC   C2B21284  18.072  35.189   8.264
 1463POPC   C3B21285  18.051  35.241   7.964
 1463POPC   C4B21286  18.088  35.242   7.664
 1464POPC   NC321287  30.746  17.469   9.464
 1464POPC   PO421288  30.689  17.469   9.164
 1464POPC   GL121289  30.695  17.519   8.864
 1464POPC   GL221290  30.619  17.521   8.864
 1464POPC   C1A21291  30.686  17.511   8.564
 1464POPC   D2A21292  30.741  17.529   8.264
 1464POPC   C3A21293  30.663  17.490   7.964
 1464POPC   C4A21294  30.702  17.482   7.664
 1464POPC   C1B21295  30.419  17.571   8.564
 1464POPC   C2B21296  30.428  17.639   8.264
 1464POPC   C3B21297  30.418  17.609   7.964
 1464POPC   C4B21298  30.415  17.633   7.664
 1465POPC   NC321299   0.474  21.363   9.464
 1465POPC   PO421300   0.459  21.402   9.164
 1465POPC   GL121301   0.441  21.342   8.864
 1465POPC   GL221302   0.353  21.436   8.864
 1465POPC   C1A21303   0.423  21.383   8.564
 1465POPC   D2A21304   0.485  21.355   8.264
 1465POPC   C3A21305   0.435  21.399   7.964
 1465POPC   C4A21306   0.437  21.374   7.664
 1465POPC   C1B21307   0.218  21.460   8.564
 1465POPC   C2B21308   0.238  21.439   8.264
 1465POPC   C3B21309   0.197  21.435   7.964
 1465POPC   C4B21310   0.177  21.491   7.664
 1466POPC   NC321311   2.036   9.749   9.464
 1466POPC   PO421312   1.998   9.725   9.164
 1466POPC   GL121313   2.036   9.724   8.864
 1466POPC   GL221314   2.043   9.822   8.864
 1466POPC   C1A21315   1.996   9.763   8.564
 1466POPC   D2A21316   2.023   9.749   8.264
 1466POPC   C3A21317   1.949   9.797   7.964
 1466POPC   C4A21318   1.998   9.753   7.664
 1466POPC   C1B21319   1.989  10.018   8.564
 1466POPC   C2B21320   2.030  10.042   8.264
 1466POPC   C3B21321   2.040  10.014   7.964
 1466POPC   C4B21322   1.999   9.946   7.664
 1467POPC   NC321323  22.164  12.812   9.464
 1467POPC   PO421324  22.144  12.820   9.164
 1467POPC   GL121325  22.187  12.842   8.864
 1467POPC   GL221326  22.193  12.982   8.864
 1467POPC   C1A21327  22.177  12.836   8.564
 1467POPC   D2A21328  22.189  12.883   8.264
 1467POPC   C3A21329  22.113  12.893   7.964
 1467POPC   C4A21330  22.200  12.809   7.664
 1467POPC   C1B21331  22.348  13.013   8.564
 1467POPC   C2B21332  22.302  13.089   8.264
 1467POPC   C3B21333  22.337  13.017   7.964
 1467POPC   C4B21334  22.360  13.011   7.664
 1468POPC   NC321335  24.461  44.684   9.464
 1468POPC   PO421336  24.515  44.696   9.164
 1468POPC   GL121337  24.515  44.706   8.864
 1468POPC   GL221338  24.506  44.811   8.864
 1468POPC   C1A21339  24.486  44.627   8.564
 1468POPC   D2A21340  24.495  44.636   8.264
 1468POPC   C3A21341  24.506  44.633   7.964
 1468POPC   C4A21342  24.516  44.705   7.664
 1468POPC   C1B21343  24.464  44.954   8.564
 1468POPC   C2B21344  24.420  44.900   8.264
 1468POPC   C3B21345  24.469  44.950   7.964
 1468POPC   C4B21346  24.426  44.935   7.664
 1469POPC   NC321347  27.635   5.121   9.464
 1469POPC   PO421348  27.635   5.059   9.164
 1469POPC   GL121349  27.559   5.126   8.864
 1469POPC   GL221350  27.674   5.094   8.864
 1469POPC   C1A21351  27.634   5.133   8.564
 1469POPC   D2A21352  27.564   5.062   8.264
 1469POPC   C3A21353  27.627   5.075   7.964
 1469POPC   C4A21354  27.612   5.124   7.664
 1469POPC   C1B21355  27.869   4.985   8.564
 1469POPC   C2B21356  27.826   4.987   8.264
 1469POPC   C3B21357  27.882   5.067   7.964
 1469POPC   C4B21358  27.790   5.035   7.664
 1470POPC   NC321359   4.291  26.043   9.464
 1470POPC   PO421360   4.336  26.007   9.164
 1470POPC   GL121361   4.286  26.025   8.864
 1470POPC   GL221362   4.224  26.117   8.864
 1470POPC   C1A21363   4.284  25.991   8.564
 1470POPC   D2A21364   4.335  26.050   8.264
 1470POPC   C3A21365   4.352  26.048   7.964
 1470POPC   C4A21366   4.331  26.058   7.664
 1470POPC   C1B21367   4.210  26.269   8.564
 1470POPC   C2B21368   4.258  26.320   8.264
 1470POPC   C3B21369   4.189  26.297   7.964
 1470POPC   C4B21370   4.263  26.278   7.664
 1471POPC   NC321371  24.470  17.507   9.464
 1471POPC   PO421372  24.467  17.475   9.164
 1471POPC   GL121373  24.531  17.553   8.864
 1471POPC   GL221374  24.378  17.553   8.864
 1471POPC   C1A21375  24.514  17.509   8.564
 1471POPC   D2A21376  24.527  17.485   8.264
 1471POPC   C3A21377  24.452  17.542   7.964
 1471POPC   C4A21378  24.539  17.531   7.664
 1471POPC   C1B21379  24.252  17.627   8.564
 1471POPC   C2B21380  24.230  17.668   8.264
 1471POPC   C3B21381  24.300  17.619   7.964
 1471POPC   C4B21382  24.276  17.594   7.664
 1472POPC   NC321383  40.002  19.099   9.464
 1472POPC   PO421384  40.032  19.018   9.164
 1472POPC   GL121385  40.012  19.018   8.864
 1472POPC   GL221386  40.094  19.030   8.864
 1472POPC   C1A21387  39.977  19.043   8.564
 1472POPC   D2A21388  39.989  19.013   8.264
 1472POPC   C3A21389  39.976  19.072   7.964
 1472POPC   C4A21390  39.966  19.081   7.664
 1472POPC   C1B21391  40.292  18.934   8.564
 1472POPC   C2B21392  40.261  18.945   8.264
 1472POPC   C3B21393  40.259  18.963   7.964
 1472POPC   C4B21394  40.287  19.018   7.664
 1473POPC   NC321395   2.737   3.560   9.464
 1473POPC   PO421396   2.734   3.590   9.164
 1473POPC   GL121397   2.782   3.565   8.864
 1473POPC   GL221398   2.686   3.537   8.864
 1473POPC   C1A21399   2.775   3.520   8.564
 1473POPC   D2A21400   2.801   3.509   8.264
 1473POPC   C3A21401   2.724   3.559   7.964
 1473POPC   C4A21402   2.780   3.540   7.664
 1473POPC   C1B21403   2.538   3.512   8.564
 1473POPC   C2B21404   2.508   3.483   8.264
 1473POPC   C3B21405   2.485   3.436   7.964
 1473POPC   C4B21406   2.560   3.441   7.664
 1474POPC   NC321407  33.067   0.469   9.464
 1474POPC   PO421408  33.012   0.390   9.164
 1474POPC   GL121409  33.029   0.450   8.864
 1474POPC   GL221410  33.172   0.425   8.864
 1474POPC   C1A21411  33.019   0.398   8.564
 1474POPC   D2A21412  33.015   0.421   8.264
 1474POPC   C3A21413  33.027   0.395   7.964
 1474POPC   C4A21414  32.982   0.436   7.664
 1474POPC   C1B21415  33.263   0.447   8.564
 1474POPC   C2B21416  33.234   0.372   8.264
 1474POPC   C3B21417  33.297   0.384   7.964
 1474POPC   C4B21418  33.309   0.451   7.664
 1475POPC   NC321419  36.125  12.046   9.464
 1475POPC   PO421420  36.092  12.089   9.164
 1475POPC   GL121421  36.130  12.111   8.864
 1475POPC   GL221422  36.044  12.068   8.864
 1475POPC   C1A21423  36.164  12.106   8.564
 1475POPC   D2A21424  36.117  12.103   8.264
 1475POPC   C3A21425  36.134  12.077   7.964
 1475POPC   C4A21426  36.153  12.120   7.664
 1475POPC   C1B21427  35.836  12.012   8.564
 1475POPC   C2B21428  35.912  12.021   8.264
 1475POPC   C3B21429  35.847  12.049   7.964
 1475POPC   C4B21430  35.911  11.995   7.664
 1476POPC   NC321431  21.358  31.506   9.464
 1476POPC   PO421432  21.354  31.517   9.164
 1476POPC   GL121433  21.408  31.464   8.864
 1476POPC   GL221434  21.429  31.376   8.864
 1476POPC   C1A21435  21.413  31.520   8.564
 1476POPC   D2A21436  21.347  31.489   8.264
 1476POPC   C3A21437  21.424  31.505   7.964
 1476POPC   C4A21438  21.378  31.515   7.664
 1476POPC   C1B21439  21.486  31.303   8.564
 1476POPC   C2B21440  21.544  31.243   8.264
 1476POPC   C3B21441  21.540  31.296   7.964
 1476POPC   C4B21442  21.488  31.249   7.664
 1477POPC   NC321443   2.799  19.838   9.464
 1477POPC   PO421444   2.760  19.846   9.164
 1477POPC   GL121445   2.750  19.878   8.864
 1477POPC   GL221446   2.768  19.992   8.864
 1477POPC   C1A21447   2.809  19.829   8.564
 1477POPC   D2A21448   2.787  19.876   8.264
 1477POPC   C3A21449   2.747  19.825   7.964
 1477POPC   C4A21450   2.783  19.795   7.664
 1477POPC   C1B21451   2.812  20.053   8.564
 1477POPC   C2B21452   2.826  20.091   8.264
 1477POPC   C3B21453   2.877  20.059   7.964
 1477POPC   C4B21454   2.888  20.046   7.664
 1478POPC   NC321455  30.708   0.433   9.464
 1478POPC   PO421456  30.710   0.428   9.164
 1478POPC   GL121457  30.694   0.428   8.864
 1478POPC   GL221458  30.645   0.555   8.864
 1478POPC   C1A21459  30.737   0.394   8.564
 1478POPC   D2A21460  30.657   0.417   8.264
 1478POPC   C3A21461  30.732   0.485   7.964
 1478POPC   C4A21462  30.730   0.415   7.664
 1478POPC   C1B21463  30.631   0.716   8.564
 1478POPC   C2B21464  30.631   0.714   8.264
 1478POPC   C3B21465  30.602   0.708   7.964
 1478POPC   C4B21466  30.612   0.701   7.664
 1479POPC   NC321467   4.360  43.846   9.464
 1479POPC   PO421468   4.346  43.881   9.164
 1479POPC   GL121469   4.296  43.892   8.864
 1479POPC   GL221470   4.220  43.960   8.864
 1479POPC   C1A21471   4.356  43.861   8.564
 1479POPC   D2A21472   4.305  43.883   8.264
 1479POPC   C3A21473   4.333  43.878   7.964
 1479POPC   C4A21474   4.362  43.865   7.664
 1479POPC   C1B21475   4.140  44.070   8.564
 1479POPC   C2B21476   4.077  44.079   8.264
 1479POPC   C3B21477   4.097  44.042   7.964
 1479POPC   C4B21478   4.135  44.044   7.664
 1480POPC   NC321479   0.461  35.310   9.464
 1480POPC   PO421480   0.415  35.327   9.164
 1480POPC   GL121481   0.451  35.378   8.864
 1480POPC   GL221482   0.516  35.407   8.864
 1480POPC   C1A21483   0.476  35.361   8.564
 1480POPC   D2A21484   0.475  35.346   8.264
 1480POPC   C3A21485   0.397  35.335   7.964
 1480POPC   C4A21486   0.458  35.397   7.664
 1480POPC   C1B21487   0.561  35.533   8.564
 1480POPC   C2B21488   0.568  35.591   8.264
 1480POPC   C3B21489   0.627  35.551   7.964
 1480POPC   C4B21490   0.623  35.573   7.664
 1481POPC   NC321491  13.670  36.916   9.464
 1481POPC   PO421492  13.581  36.914   9.164
 1481POPC   GL121493  13.606  36.876   8.864
 1481POPC   GL221494  13.728  36.873   8.864
 1481POPC   C1A21495  13.588  36.925   8.564
 1481POPC   D2A21496  13.647  36.946   8.264
 1481POPC   C3A21497  13.598  36.860   7.964
 1481POPC   C4A21498  13.611  36.905   7.664
 1481POPC   C1B21499  13.816  36.777   8.564
 1481POPC   C2B21500  13.870  36.794   8.264
 1481POPC   C3B21501  13.870  36.848   7.964
 1481POPC   C4B21502  13.820  36.780   7.664
 1482POPC   NC321503  27.575  29.161   9.464
 1482POPC   PO421504  27.601  29.164   9.164
 1482POPC   GL121505  27.599  29.189   8.864
 1482POPC   GL221506  27.518  29.156   8.864
 1482POPC   C1A21507  27.557  29.154   8.564
 1482POPC   D2A21508  27.613  29.168   8.264
 1482POPC   C3A21509  27.625  29.141   7.964
 1482POPC   C4A21510  27.565  29.108   7.664
 1482POPC   C1B21511  27.383  29.217   8.564
 1482POPC   C2B21512  27.327  29.217   8.264
 1482POPC   C3B21513  27.342  29.225   7.964
 1482POPC   C4B21514  27.389  29.266   7.664
 1483POPC   NC321515   4.340   2.731   9.464
 1483POPC   PO421516   4.301   2.783   9.164
 1483POPC   GL121517   4.322   2.723   8.864
 1483POPC   GL221518   4.222   2.891   8.864
 1483POPC   C1A21519   4.274   2.788   8.564
 1483POPC   D2A21520   4.314   2.772   8.264
 1483POPC   C3A21521   4.315   2.815   7.964
 1483POPC   C4A21522   4.296   2.767   7.664
 1483POPC   C1B21523   4.145   3.014   8.564
 1483POPC   C2B21524   4.219   2.953   8.264
 1483POPC   C3B21525   4.228   2.941   7.964
 1483POPC   C4B21526   4.217   2.983   7.664
 1484POPC   NC321527   2.807  36.130   9.464
 1484POPC   PO421528   2.771  36.137   9.164
 1484POPC   GL121529   2.769  36.148   8.864
 1484POPC   GL221530   2.867  36.224   8.864
 1484POPC   C1A21531   2.739  36.138   8.564
 1484POPC   D2A21532   2.719  36.108   8.264
 1484POPC   C3A21533   2.785  36.087   7.964
 1484POPC   C4A21534   2.815  36.134   7.664
 1484POPC   C1B21535   2.949  36.313   8.564
 1484POPC   C2B21536   2.962  36.314   8.264
 1484POPC   C3B21537   2.982  36.221   7.964
 1484POPC   C4B21538   2.959  36.262   7.664
 1485POPC   NC321539  40.777  15.937   9.464
 1485POPC   PO421540  40.803  15.914   9.164
 1485POPC   GL121541  40.796  15.917   8.864
 1485POPC   GL221542  40.750  16.111   8.864
 1485POPC   C1A21543  40.745  15.914   8.564
 1485POPC   D2A21544  40.782  15.947   8.264
 1485POPC   C3A21545  40.789  15.979   7.964
 1485POPC   C4A21546  40.806  15.966   7.664
 1485POPC   C1B21547  40.640  16.213   8.564
 1485POPC   C2B21548  40.680  16.204   8.264
 1485POPC   C3B21549  40.660  16.131   7.964
 1485POPC   C4B21550  40.625  16.170   7.664
 1486POPC   NC321551   2.022  33.772   9.464
 1486POPC   PO421552   2.002  33.750   9.164
 1486POPC   GL121553   1.945  33.800   8.864
 1486POPC   GL221554   1.983  33.645   8.864
 1486POPC   C1A21555   2.011  33.784   8.564
 1486POPC   D2A21556   1.961  33.830   8.264
 1486POPC   C3A21557   1.954  33.814   7.964
 1486POPC   C4A21558   2.026  33.840   7.664
 1486POPC   C1B21559   2.016  33.598   8.564
 1486POPC   C2B21560   2.058  33.529   8.264
 1486POPC   C3B21561   2.045  33.541   7.964
 1486POPC   C4B21562   2.071  33.512   7.664
 1487POPC   NC321563  35.313   9.006   9.464
 1487POPC   PO421564  35.329   8.967   9.164
 1487POPC   GL121565  35.340   9.008   8.864
 1487POPC   GL221566  35.252   8.999   8.864
 1487POPC   C1A21567  35.358   8.950   8.564
 1487POPC   D2A21568  35.363   8.972   8.264
 1487POPC   C3A21569  35.338   8.980   7.964
 1487POPC   C4A21570  35.357   9.010   7.664
 1487POPC   C1B21571  35.135   9.022   8.564
 1487POPC   C2B21572  35.063   8.991   8.264
 1487POPC   C3B21573  35.105   8.968   7.964
 1487POPC   C4B21574  35.133   8.983   7.664
 1488POPC   NC321575  15.144  20.630   9.464
 1488POPC   PO421576  15.155  20.574   9.164
 1488POPC   GL121577  15.135  20.600   8.864
 1488POPC   GL221578  15.172  20.492   8.864
 1488POPC   C1A21579  15.131  20.582   8.564
 1488POPC   D2A21580  15.172  20.636   8.264
 1488POPC   C3A21581  15.176  20.654   7.964
 1488POPC   C4A21582  15.173  20.597   7.664
 1488POPC   C1B21583  15.222  20.362   8.564
 1488POPC   C2B21584  15.216  20.334   8.264
 1488POPC   C3B21585  15.246  20.373   7.964
 1488POPC   C4B21586  15.227  20.371   7.664
 1489POPC   NC321587  43.143  19.831   9.464
 1489POPC   PO421588  43.115  19.825   9.164
 1489POPC   GL121589  43.114  19.829   8.864
 1489POPC   GL221590  43.008  19.972   8.864
 1489POPC   C1A21591  43.159  19.855   8.564
 1489POPC   D2A21592  43.090  19.822   8.264
 1489POPC   C3A21593  43.125  19.818   7.964
 1489POPC   C4A21594  43.084  19.878   7.664
 1489POPC   C1B21595  42.949  20.095   8.564
 1489POPC   C2B21596  42.936  20.082   8.264
 1489POPC   C3B21597  42.977  20.065   7.964
 1489POPC   C4B21598  43.002  20.062   7.664
 1490POPC   NC321599  12.809  26.063   9.464
 1490POPC   PO421600  12.855  26.054   9.164
 1490POPC   GL121601  12.869  26.065   8.864
 1490POPC   GL221602  12.985  26.019   8.864
 1490POPC   C1A21603  12.827  26.066   8.564
 1490POPC   D2A21604  12.821  25.993   8.264
 1490POPC   C3A21605  12.898  26.014   7.964
 1490POPC   C4A21606  12.859  26.048   7.664
 1490POPC   C1B21607  13.127  26.073   8.564
 1490POPC   C2B21608  13.141  26.068   8.264
 1490POPC   C3B21609  13.097  26.114   7.964
 1490POPC   C4B21610  13.130  26.125   7.664
 1491POPC   NC321611  15.950   7.441   9.464
 1491POPC   PO421612  15.971   7.427   9.164
 1491POPC   GL121613  15.942   7.470   8.864
 1491POPC   GL221614  15.868   7.583   8.864
 1491POPC   C1A21615  15.998   7.429   8.564
 1491POPC   D2A21616  16.005   7.417   8.264
 1491POPC   C3A21617  15.997   7.455   7.964
 1491POPC   C4A21618  15.952   7.391   7.664
 1491POPC   C1B21619  15.810   7.686   8.564
 1491POPC   C2B21620  15.820   7.600   8.264
 1491POPC   C3B21621  15.806   7.661   7.964
 1491POPC   C4B21622  15.809   7.666   7.664
 1492POPC   NC321623  14.440   0.399   9.464
 1492POPC   PO421624  14.438   0.440   9.164
 1492POPC   GL121625  14.405   0.395   8.864
 1492POPC   GL221626  14.285   0.580   8.864
 1492POPC   C1A21627  14.419   0.395   8.564
 1492POPC   D2A21628  14.379   0.421   8.264
 1492POPC   C3A21629  14.435   0.401   7.964
 1492POPC   C4A21630  14.381   0.487   7.664
 1492POPC   C1B21631  14.221   0.635   8.564
 1492POPC   C2B21632  14.216   0.627   8.264
 1492POPC   C3B21633  14.239   0.605   7.964
 1492POPC   C4B21634  14.254   0.647   7.664
 1493POPC   NC321635   8.937  36.092   9.464
 1493POPC   PO421636   8.971  36.129   9.164
 1493POPC   GL121637   8.925  36.119   8.864
 1493POPC   GL221638   8.895  36.117   8.864
 1493POPC   C1A21639   8.957  36.083   8.564
 1493POPC   D2A21640   8.924  36.149   8.264
 1493POPC   C3A21641   8.938  36.145   7.964
 1493POPC   C4A21642   8.927  36.143   7.664
 1493POPC   C1B21643   8.743  36.136   8.564
 1493POPC   C2B21644   8.764  36.114   8.264
 1493POPC   C3B21645   8.733  36.062   7.964
 1493POPC   C4B21646   8.760  36.093   7.664
 1494POPC   NC321647  25.277  15.196   9.464
 1494POPC   PO421648  25.283  15.220   9.164
 1494POPC   GL121649  25.282  15.208   8.864
 1494POPC   GL221650  25.324  15.094   8.864
 1494POPC   C1A21651  25.304  15.158   8.564
 1494POPC   D2A21652  25.218  15.218   8.264
 1494POPC   C3A21653  25.283  15.191   7.964
 1494POPC   C4A21654  25.310  15.199   7.664
 1494POPC   C1B21655  25.447  15.035   8.564
 1494POPC   C2B21656  25.407  15.029   8.264
 1494POPC   C3B21657  25.417  15.001   7.964
 1494POPC   C4B21658  25.397  15.017   7.664
 1495POPC   NC321659   5.905  19.839   9.464
 1495POPC   PO421660   5.842  19.853   9.164
 1495POPC   GL121661   5.857  19.858   8.864
 1495POPC   GL221662   5.899  19.694   8.864
 1495POPC   C1A21663   5.866  19.795   8.564
 1495POPC   D2A21664   5.819  19.847   8.264
 1495POPC   C3A21665   5.898  19.789   7.964
 1495POPC   C4A21666   5.918  19.813   7.664
 1495POPC   C1B21667   5.973  19.568   8.564
 1495POPC   C2B21668   5.952  19.565   8.264
 1495POPC   C3B21669   5.980  19.611   7.964
 1495POPC   C4B21670   5.953  19.569   7.664
 1496POPC   NC321671  15.213  40.762   9.464
 1496POPC   PO421672  15.138  40.765   9.164
 1496POPC   GL121673  15.139  40.813   8.864
 1496POPC   GL221674  15.122  40.658   8.864
 1496POPC   C1A21675  15.145  40.751   8.564
 1496POPC   D2A21676  15.168  40.766   8.264
 1496POPC   C3A21677  15.200  40.791   7.964
 1496POPC   C4A21678  15.226  40.801   7.664
 1496POPC   C1B21679  15.022  40.583   8.564
 1496POPC   C2B21680  15.092  40.576   8.264
 1496POPC   C3B21681  15.097  40.588   7.964
 1496POPC   C4B21682  15.044  40.595   7.664
 1497POPC   NC321683  27.633  13.667   9.464
 1497POPC   PO421684  27.571  13.628   9.164
 1497POPC   GL121685  27.639  13.583   8.864
 1497POPC   GL221686  27.481  13.628   8.864
 1497POPC   C1A21687  27.627  13.655   8.564
 1497POPC   D2A21688  27.590  13.637   8.264
 1497POPC   C3A21689  27.568  13.657   7.964
 1497POPC   C4A21690  27.549  13.666   7.664
 1497POPC   C1B21691  27.358  13.498   8.564
 1497POPC   C2B21692  27.398  13.490   8.264
 1497POPC   C3B21693  27.317  13.532   7.964
 1497POPC   C4B21694  27.318  13.545   7.664
 1498POPC   NC321695  15.160  30.659   9.464
 1498POPC   PO421696  15.137  30.726   9.164
 1498POPC   GL121697  15.135  30.736   8.864
 1498POPC   GL221698  15.177  30.606   8.864
 1498POPC   C1A21699  15.146  30.673   8.564
 1498POPC   D2A21700  15.131  30.714   8.264
 1498POPC   C3A21701  15.168  30.730   7.964
 1498POPC   C4A21702  15.197  30.744   7.664
 1498POPC   C1B21703  15.183  30.461   8.564
 1498POPC   C2B21704  15.147  30.414   8.264
 1498POPC   C3B21705  15.194  30.439   7.964
 1498POPC   C4B21706  15.162  30.474   7.664
 1499POPC   NC321707  28.344  35.385   9.464
 1499POPC   PO421708  28.400  35.347   9.164
 1499POPC   GL121709  28.324  35.393   8.864
 1499POPC   GL221710  28.251  35.267   8.864
 1499POPC   C1A21711  28.327  35.383   8.564
 1499POPC   D2A21712  28.390  35.311   8.264
 1499POPC   C3A21713  28.369  35.402   7.964
 1499POPC   C4A21714  28.321  35.390   7.664
 1499POPC   C1B21715  28.229  35.209   8.564
 1499POPC   C2B21716  28.223  35.215   8.264
 1499POPC   C3B21717  28.177  35.173   7.964
 1499POPC   C4B21718  28.165  35.233   7.664
 1500POPC   NC321719  43.128  37.637   9.464
 1500POPC   PO421720  43.109  37.729   9.164
 1500POPC   GL121721  43.109  37.667   8.864
 1500POPC   GL221722  43.107  37.781   8.864
 1500POPC   C1A21723  43.061  37.631   8.564
 1500POPC   D2A21724  43.122  37.655   8.264
 1500POPC   C3A21725  43.150  37.656   7.964
 1500POPC   C4A21726  43.140  37.666   7.664
 1500POPC   C1B21727  43.066  37.925   8.564
 1500POPC   C2B21728  43.063  37.956   8.264
 1500POPC   C3B21729  43.056  37.919   7.964
 1500POPC   C4B21730  43.003  37.923   7.664
 1501POPC   NC321731  25.230  29.941   9.464
 1501POPC   PO421732  25.310  29.880   9.164
 1501POPC   GL121733  25.256  29.911   8.864
 1501POPC   GL221734  25.199  29.985   8.864
 1501POPC   C1A21735  25.251  29.961   8.564
 1501POPC   D2A21736  25.249  29.880   8.264
 1501POPC   C3A21737  25.233  29.896   7.964
 1501POPC   C4A21738  25.282  29.899   7.664
 1501POPC   C1B21739  25.047  30.042   8.564
 1501POPC   C2B21740  25.084  30.067   8.264
 1501POPC   C3B21741  25.071  30.047   7.964
 1501POPC   C4B21742  25.013  30.093   7.664
 1502POPC   NC321743  15.977  38.424   9.464
 1502POPC   PO421744  15.999  38.434   9.164
 1502POPC   GL121745  15.914  38.472   8.864
 1502POPC   GL221746  16.050  38.453   8.864
 1502POPC   C1A21747  15.969  38.437   8.564
 1502POPC   D2A21748  15.919  38.420   8.264
 1502POPC   C3A21749  15.959  38.448   7.964
 1502POPC   C4A21750  15.945  38.455   7.664
 1502POPC   C1B21751  16.162  38.586   8.564
 1502POPC   C2B21752  16.189  38.553   8.264
 1502POPC   C3B21753  16.233  38.575   7.964
 1502POPC   C4B21754  16.181  38.549   7.664
 1503POPC   NC321755  40.763  32.988   9.464
 1503POPC   PO421756  40.735  32.977   9.164
 1503POPC   GL121757  40.803  33.038   8.864
 1503POPC   GL221758  40.897  33.138   8.864
 1503POPC   C1A21759  40.819  33.061   8.564
 1503POPC   D2A21760  40.817  33.027   8.264
 1503POPC   C3A21761  40.744  33.023   7.964
 1503POPC   C4A21762  40.770  33.072   7.664
 1503POPC   C1B21763  41.027  33.181   8.564
 1503POPC   C2B21764  41.002  33.209   8.264
 1503POPC   C3B21765  40.986  33.139   7.964
 1503POPC   C4B21766  40.987  33.196   7.664
 1504POPC   NC321767  15.170  27.627   9.464
 1504POPC   PO421768  15.205  27.623   9.164
 1504POPC   GL121769  15.156  27.573   8.864
 1504POPC   GL221770  15.297  27.676   8.864
 1504POPC   C1A21771  15.187  27.608   8.564
 1504POPC   D2A21772  15.199  27.606   8.264
 1504POPC   C3A21773  15.176  27.543   7.964
 1504POPC   C4A21774  15.130  27.581   7.664
 1504POPC   C1B21775  15.391  27.646   8.564
 1504POPC   C2B21776  15.448  27.709   8.264
 1504POPC   C3B21777  15.444  27.653   7.964
 1504POPC   C4B21778  15.405  27.688   7.664
 1505POPC   NC321779  12.069  36.936   9.464
 1505POPC   PO421780  12.078  36.891   9.164
 1505POPC   GL121781  12.057  36.878   8.864
 1505POPC   GL221782  11.927  36.992   8.864
 1505POPC   C1A21783  12.032  36.948   8.564
 1505POPC   D2A21784  12.111  36.871   8.264
 1505POPC   C3A21785  12.113  36.867   7.964
 1505POPC   C4A21786  12.062  36.906   7.664
 1505POPC   C1B21787  11.879  37.046   8.564
 1505POPC   C2B21788  11.820  37.006   8.264
 1505POPC   C3B21789  11.897  37.043   7.964
 1505POPC   C4B21790  11.808  36.999   7.664
 1506POPC   NC321791  37.672  19.070   9.464
 1506POPC   PO421792  37.713  19.058   9.164
 1506POPC   GL121793  37.664  19.076   8.864
 1506POPC   GL221794  37.615  19.034   8.864
 1506POPC   C1A21795  37.665  19.087   8.564
 1506POPC   D2A21796  37.671  19.073   8.264
 1506POPC   C3A21797  37.713  19.040   7.964
 1506POPC   C4A21798  37.675  19.055   7.664
 1506POPC   C1B21799  37.485  18.939   8.564
 1506POPC   C2B21800  37.462  18.928   8.264
 1506POPC   C3B21801  37.436  18.905   7.964
 1506POPC   C4B21802  37.481  18.875   7.664
 1507POPC   NC321803  44.643  35.364   9.464
 1507POPC   PO421804  44.701  35.343   9.164
 1507POPC   GL121805  44.663  35.387   8.864
 1507POPC   GL221806  44.592  35.215   8.864
 1507POPC   C1A21807  44.656  35.376   8.564
 1507POPC   D2A21808  44.667  35.314   8.264
 1507POPC   C3A21809  44.651  35.375   7.964
 1507POPC   C4A21810  44.701  35.309   7.664
 1507POPC   C1B21811  44.590  35.112   8.564
 1507POPC   C2B21812  44.572  35.081   8.264
 1507POPC   C3B21813  44.642  35.082   7.964
 1507POPC   C4B21814  44.596  35.083   7.664
 1508POPC   NC321815   1.992  12.882   9.464
 1508POPC   PO421816   1.985  12.861   9.164
 1508POPC   GL121817   1.952  12.891   8.864
 1508POPC   GL221818   1.886  12.743   8.864
 1508POPC   C1A21819   2.023  12.840   8.564
 1508POPC   D2A21820   1.985  12.849   8.264
 1508POPC   C3A21821   2.006  12.865   7.964
 1508POPC   C4A21822   2.028  12.901   7.664
 1508POPC   C1B21823   1.828  12.661   8.564
 1508POPC   C2B21824   1.875  12.649   8.264
 1508POPC   C3B21825   1.844  12.620   7.964
 1508POPC   C4B21826   1.841  12.699   7.664
 1509POPC   NC321827  29.941  43.879   9.464
 1509POPC   PO421828  29.875  43.902   9.164
 1509POPC   GL121829  29.876  43.859   8.864
 1509POPC   GL221830  29.995  43.742   8.864
 1509POPC   C1A21831  29.911  43.876   8.564
 1509POPC   D2A21832  29.878  43.896   8.264
 1509POPC   C3A21833  29.951  43.903   7.964
 1509POPC   C4A21834  29.890  43.930   7.664
 1509POPC   C1B21835  30.081  43.699   8.564
 1509POPC   C2B21836  30.010  43.684   8.264
 1509POPC   C3B21837  30.002  43.636   7.964
 1509POPC   C4B21838  30.014  43.623   7.664
 1510POPC   NC321839  26.013   3.528   9.464
 1510POPC   PO421840  25.994   3.535   9.164
 1510POPC   GL121841  26.031   3.496   8.864
 1510POPC   GL221842  26.127   3.521   8.864
 1510POPC   C1A21843  26.029   3.512   8.564
 1510POPC   D2A21844  26.004   3.496   8.264
 1510POPC   C3A21845  26.084   3.494   7.964
 1510POPC   C4A21846  26.024   3.550   7.664
 1510POPC   C1B21847  26.318   3.482   8.564
 1510POPC   C2B21848  26.280   3.482   8.264
 1510POPC   C3B21849  26.261   3.396   7.964
 1510POPC   C4B21850  26.266   3.402   7.664
 1511POPC   NC321851  43.926  36.171   9.464
 1511POPC   PO421852  43.895  36.153   9.164
 1511POPC   GL121853  43.880  36.099   8.864
 1511POPC   GL221854  43.794  36.166   8.864
 1511POPC   C1A21855  43.907  36.107   8.564
 1511POPC   D2A21856  43.867  36.088   8.264
 1511POPC   C3A21857  43.842  36.159   7.964
 1511POPC   C4A21858  43.935  36.107   7.664
 1511POPC   C1B21859  43.604  36.107   8.564
 1511POPC   C2B21860  43.639  36.151   8.264
 1511POPC   C3B21861  43.638  36.124   7.964
 1511POPC   C4B21862  43.672  36.138   7.664
 1512POPC   NC321863  43.145  15.925   9.464
 1512POPC   PO421864  43.062  15.988   9.164
 1512POPC   GL121865  43.118  15.937   8.864
 1512POPC   GL221866  42.957  15.929   8.864
 1512POPC   C1A21867  43.141  15.969   8.564
 1512POPC   D2A21868  43.120  15.913   8.264
 1512POPC   C3A21869  43.146  15.934   7.964
 1512POPC   C4A21870  43.070  15.960   7.664
 1512POPC   C1B21871  42.835  15.926   8.564
 1512POPC   C2B21872  42.863  15.891   8.264
 1512POPC   C3B21873  42.887  15.965   7.964
 1512POPC   C4B21874  42.830  15.945   7.664
 1513POPC   NC321875  18.261  19.872   9.464
 1513POPC   PO421876  18.242  19.863   9.164
 1513POPC   GL121877  18.305  19.883   8.864
 1513POPC   GL221878  18.319  19.759   8.864
 1513POPC   C1A21879  18.324  19.815   8.564
 1513POPC   D2A21880  18.326  19.868   8.264
 1513POPC   C3A21881  18.319  19.822   7.964
 1513POPC   C4A21882  18.279  19.796   7.664
 1513POPC   C1B21883  18.315  19.563   8.564
 1513POPC   C2B21884  18.328  19.619   8.264
 1513POPC   C3B21885  18.253  19.537   7.964
 1513POPC   C4B21886  18.306  19.607   7.664
 1514POPC   NC321887  22.941  19.882   9.464
 1514POPC   PO421888  22.919  19.841   9.164
 1514POPC   GL121889  22.895  19.849   8.864
 1514POPC   GL221890  22.780  19.852   8.864
 1514POPC   C1A21891  22.961  19.864   8.564
 1514POPC   D2A21892  22.906  19.791   8.264
 1514POPC   C3A21893  22.955  19.824   7.964
 1514POPC   C4A21894  22.958  19.862   7.664
 1514POPC   C1B21895  22.661  19.978   8.564
 1514POPC   C2B21896  22.734  19.939   8.264
 1514POPC   C3B21897  22.684  19.922   7.964
 1514POPC   C4B21898  22.675  19.888   7.664
 1515POPC   NC321899  30.679  26.778   9.464
 1515POPC   PO421900  30.656  26.841   9.164
 1515POPC   GL121901  30.673  26.777   8.864
 1515POPC   GL221902  30.775  26.741   8.864
 1515POPC   C1A21903  30.721  26.804   8.564
 1515POPC   D2A21904  30.721  26.782   8.264
 1515POPC   C3A21905  30.689  26.820   7.964
 1515POPC   C4A21906  30.721  26.836   7.664
 1515POPC   C1B21907  30.731  26.616   8.564
 1515POPC   C2B21908  30.753  26.537   8.264
 1515POPC   C3B21909  30.755  26.572   7.964
 1515POPC   C4B21910  30.752  26.565   7.664
 1516POPC   NC321911  37.665  38.447   9.464
 1516POPC   PO421912  37.685  38.441   9.164
 1516POPC   GL121913  37.651  38.429   8.864
 1516POPC   GL221914  37.551  38.413   8.864
 1516POPC   C1A21915  37.710  38.410   8.564
 1516POPC   D2A21916  37.690  38.488   8.264
 1516POPC   C3A21917  37.684  38.475   7.964
 1516POPC   C4A21918  37.637  38.472   7.664
 1516POPC   C1B21919  37.458  38.477   8.564
 1516POPC   C2B21920  37.394  38.462   8.264
 1516POPC   C3B21921  37.452  38.416   7.964
 1516POPC   C4B21922  37.419  38.402   7.664
 1517POPC   NC321923  38.454  29.140   9.464
 1517POPC   PO421924  38.407  29.186   9.164
 1517POPC   GL121925  38.418  29.136   8.864
 1517POPC   GL221926  38.424  28.995   8.864
 1517POPC   C1A21927  38.435  29.126   8.564
 1517POPC   D2A21928  38.424  29.113   8.264
 1517POPC   C3A21929  38.459  29.115   7.964
 1517POPC   C4A21930  38.469  29.183   7.664
 1517POPC   C1B21931  38.387  28.916   8.564
 1517POPC   C2B21932  38.356  28.880   8.264
 1517POPC   C3B21933  38.337  28.920   7.964
 1517POPC   C4B21934  38.371  28.868   7.664
 1518POPC   NC321935  40.789  22.906   9.464
 1518POPC   PO421936  40.782  22.937   9.164
 1518POPC   GL121937  40.798  22.932   8.864
 1518POPC   GL221938  40.881  22.970   8.864
 1518POPC   C1A21939  40.754  22.946   8.564
 1518POPC   D2A21940  40.805  22.947   8.264
 1518POPC   C3A21941  40.749  22.936   7.964
 1518POPC   C4A21942  40.812  22.984   7.664
 1518POPC   C1B21943  41.046  22.966   8.564
 1518POPC   C2B21944  41.075  22.936   8.264
 1518POPC   C3B21945  41.062  22.928   7.964
 1518POPC   C4B21946  41.081  22.884   7.664
 1519POPC   NC321947  15.972  43.077   9.464
 1519POPC   PO421948  15.931  43.111   9.164
 1519POPC   GL121949  15.975  43.146   8.864
 1519POPC   GL221950  15.966  43.255   8.864
 1519POPC   C1A21951  15.989  43.124   8.564
 1519POPC   D2A21952  15.967  43.137   8.264
 1519POPC   C3A21953  15.973  43.097   7.964
 1519POPC   C4A21954  15.965  43.090   7.664
 1519POPC   C1B21955  15.961  43.380   8.564
 1519POPC   C2B21956  15.963  43.317   8.264
 1519POPC   C3B21957  15.937  43.313   7.964
 1519POPC   C4B21958  15.920  43.327   7.664
 1520POPC   NC321959  39.965  11.336   9.464
 1520POPC   PO421960  39.976  11.344   9.164
 1520POPC   GL121961  40.003  11.307   8.864
 1520POPC   GL221962  39.890  11.306   8.864
 1520POPC   C1A21963  39.975  11.332   8.564
 1520POPC   D2A21964  40.036  11.319   8.264
 1520POPC   C3A21965  40.026  11.277   7.964
 1520POPC   C4A21966  39.970  11.278   7.664
 1520POPC   C1B21967  39.728  11.254   8.564
 1520POPC   C2B21968  39.750  11.264   8.264
 1520POPC   C3B21969  39.721  11.315   7.964
 1520POPC   C4B21970  39.719  11.270   7.664
 1521POPC   NC321971   8.968  11.259   9.464
 1521POPC   PO421972   8.992  11.257   9.164
 1521POPC   GL121973   8.997  11.347   8.864
 1521POPC   GL221974   9.106  11.387   8.864
 1521POPC   C1A21975   8.974  11.320   8.564
 1521POPC   D2A21976   9.015  11.272   8.264
 1521POPC   C3A21977   8.991  11.282   7.964
 1521POPC   C4A21978   8.980  11.261   7.664
 1521POPC   C1B21979   9.234  11.385   8.564
 1521POPC   C2B21980   9.161  11.446   8.264
 1521POPC   C3B21981   9.165  11.425   7.964
 1521POPC   C4B21982   9.210  11.375   7.664
 1522POPC   NC321983  39.216  30.739   9.464
 1522POPC   PO421984  39.271  30.715   9.164
 1522POPC   GL121985  39.230  30.725   8.864
 1522POPC   GL221986  39.312  30.659   8.864
 1522POPC   C1A21987  39.269  30.738   8.564
 1522POPC   D2A21988  39.189  30.694   8.264
 1522POPC   C3A21989  39.258  30.704   7.964
 1522POPC   C4A21990  39.191  30.717   7.664
 1522POPC   C1B21991  39.422  30.545   8.564
 1522POPC   C2B21992  39.461  30.603   8.264
 1522POPC   C3B21993  39.474  30.597   7.964
 1522POPC   C4B21994  39.404  30.606   7.664
 1523POPC   NC321995  39.965   0.452   9.464
 1523POPC   PO421996  40.051   0.396   9.164
 1523POPC   GL121997  40.007   0.439   8.864
 1523POPC   GL221998  40.024   0.337   8.864
 1523POPC   C1A21999  40.042   0.427   8.564
 1523POPC   D2A22000  40.037   0.415   8.264
 1523POPC   C3A22001  40.014   0.445   7.964
 1523POPC   C4A22002  39.958   0.458   7.664
 1523POPC   C1B22003  40.070   0.185   8.564
 1523POPC   C2B22004  40.104   0.251   8.264
 1523POPC   C3B22005  40.133   0.209   7.964
 1523POPC   C4B22006  40.098   0.182   7.664
 1524POPC   NC322007  43.117  40.735   9.464
 1524POPC   PO422008  43.150  40.774   9.164
 1524POPC   GL122009  43.104  40.735   8.864
 1524POPC   GL222010  43.234  40.843   8.864
 1524POPC   C1A22011  43.147  40.786   8.564
 1524POPC   D2A22012  43.141  40.820   8.264
 1524POPC   C3A22013  43.088  40.781   7.964
 1524POPC   C4A22014  43.112  40.763   7.664
 1524POPC   C1B22015  43.331  40.817   8.564
 1524POPC   C2B22016  43.323  40.801   8.264
 1524POPC   C3B22017  43.338  40.799   7.964
 1524POPC   C4B22018  43.385  40.831   7.664
 1525POPC   NC322019  20.633  16.739   9.464
 1525POPC   PO422020  20.627  16.747   9.164
 1525POPC   GL122021  20.595  16.761   8.864
 1525POPC   GL222022  20.760  16.727   8.864
 1525POPC   C1A22023  20.634  16.692   8.564
 1525POPC   D2A22024  20.573  16.764   8.264
 1525POPC   C3A22025  20.628  16.703   7.964
 1525POPC   C4A22026  20.657  16.696   7.664
 1525POPC   C1B22027  20.886  16.745   8.564
 1525POPC   C2B22028  20.882  16.746   8.264
 1525POPC   C3B22029  20.877  16.792   7.964
 1525POPC   C4B22030  20.832  16.732   7.664
 1526POPC   NC322031  16.694  20.636   9.464
 1526POPC   PO422032  16.682  20.607   9.164
 1526POPC   GL122033  16.751  20.633   8.864
 1526POPC   GL222034  16.742  20.469   8.864
 1526POPC   C1A22035  16.740  20.567   8.564
 1526POPC   D2A22036  16.750  20.627   8.264
 1526POPC   C3A22037  16.690  20.639   7.964
 1526POPC   C4A22038  16.715  20.572   7.664
 1526POPC   C1B22039  16.628  20.419   8.564
 1526POPC   C2B22040  16.632  20.377   8.264
 1526POPC   C3B22041  16.662  20.350   7.964
 1526POPC   C4B22042  16.649  20.373   7.664
 1527POPC   NC322043  19.108  18.234   9.464
 1527POPC   PO422044  19.081  18.326   9.164
 1527POPC   GL122045  19.104  18.280   8.864
 1527POPC   GL222046  18.918  18.325   8.864
 1527POPC   C1A22047  19.083  18.271   8.564
 1527POPC   D2A22048  19.077  18.310   8.264
 1527POPC   C3A22049  19.086  18.306   7.964
 1527POPC   C4A22050  19.037  18.307   7.664
 1527POPC   C1B22051  18.800  18.392   8.564
 1527POPC   C2B22052  18.812  18.407   8.264
 1527POPC   C3B22053  18.778  18.343   7.964
 1527POPC   C4B22054  18.806  18.415   7.664
 1528POPC   NC322055  22.899  40.765   9.464
 1528POPC   PO422056  22.953  40.810   9.164
 1528POPC   GL122057  22.905  40.783   8.864
 1528POPC   GL222058  22.958  40.615   8.864
 1528POPC   C1A22059  22.926  40.800   8.564
 1528POPC   D2A22060  22.965  40.754   8.264
 1528POPC   C3A22061  22.895  40.821   7.964
 1528POPC   C4A22062  22.900  40.736   7.664
 1528POPC   C1B22063  22.991  40.591   8.564
 1528POPC   C2B22064  23.005  40.528   8.264
 1528POPC   C3B22065  23.006  40.551   7.964
 1528POPC   C4B22066  23.040  40.545   7.664
 1529POPC   NC322067  43.154   5.833   9.464
 1529POPC   PO422068  43.111   5.860   9.164
 1529POPC   GL122069  43.094   5.848   8.864
 1529POPC   GL222070  43.223   6.001   8.864
 1529POPC   C1A22071  43.126   5.831   8.564
 1529POPC   D2A22072  43.137   5.845   8.264
 1529POPC   C3A22073  43.133   5.909   7.964
 1529POPC   C4A22074  43.083   5.884   7.664
 1529POPC   C1B22075  43.321   6.023   8.564
 1529POPC   C2B22076  43.275   6.104   8.264
 1529POPC   C3B22077  43.284   6.104   7.964
 1529POPC   C4B22078  43.260   6.097   7.664
 1530POPC   NC322079  38.499  29.961   9.464
 1530POPC   PO422080  38.416  29.877   9.164
 1530POPC   GL122081  38.477  29.900   8.864
 1530POPC   GL222082  38.449  29.835   8.864
 1530POPC   C1A22083  38.434  29.908   8.564
 1530POPC   D2A22084  38.504  29.970   8.264
 1530POPC   C3A22085  38.497  29.902   7.964
 1530POPC   C4A22086  38.432  29.932   7.664
 1530POPC   C1B22087  38.494  29.631   8.564
 1530POPC   C2B22088  38.426  29.709   8.264
 1530POPC   C3B22089  38.488  29.713   7.964
 1530POPC   C4B22090  38.481  29.650   7.664
 1531POPC   NC322091  23.674  40.815   9.464
 1531POPC   PO422092  23.668  40.816   9.164
 1531POPC   GL122093  23.716  40.773   8.864
 1531POPC   GL222094  23.752  40.858   8.864
 1531POPC   C1A22095  23.684  40.821   8.564
 1531POPC   D2A22096  23.734  40.765   8.264
 1531POPC   C3A22097  23.717  40.759   7.964
 1531POPC   C4A22098  23.747  40.775   7.664
 1531POPC   C1B22099  23.784  41.030   8.564
 1531POPC   C2B22100  23.695  41.044   8.264
 1531POPC   C3B22101  23.694  41.058   7.964
 1531POPC   C4B22102  23.715  41.015   7.664
 1532POPC   NC322103  43.085  31.474   9.464
 1532POPC   PO422104  43.088  31.522   9.164
 1532POPC   GL122105  43.076  31.438   8.864
 1532POPC   GL222106  43.198  31.597   8.864
 1532POPC   C1A22107  43.127  31.461   8.564
 1532POPC   D2A22108  43.123  31.477   8.264
 1532POPC   C3A22109  43.123  31.480   7.964
 1532POPC   C4A22110  43.145  31.462   7.664
 1532POPC   C1B22111  43.270  31.712   8.564
 1532POPC   C2B22112  43.267  31.721   8.264
 1532POPC   C3B22113  43.202  31.709   7.964
 1532POPC   C4B22114  43.216  31.664   7.664
 1533POPC   NC322115  14.382   8.170   9.464
 1533POPC   PO422116  14.368   8.221   9.164
 1533POPC   GL122117  14.386   8.149   8.864
 1533POPC   GL222118  14.277   8.144   8.864
 1533POPC   C1A22119  14.378   8.194   8.564
 1533POPC   D2A22120  14.371   8.229   8.264
 1533POPC   C3A22121  14.401   8.155   7.964
 1533POPC   C4A22122  14.415   8.156   7.664
 1533POPC   C1B22123  14.138   8.146   8.564
 1533POPC   C2B22124  14.200   8.162   8.264
 1533POPC   C3B22125  14.175   8.137   7.964
 1533POPC   C4B22126  14.168   8.163   7.664
 1534POPC   NC322127  42.307   5.861   9.464
 1534POPC   PO422128  42.308   5.871   9.164
 1534POPC   GL122129  42.351   5.900   8.864
 1534POPC   GL222130  42.396   5.959   8.864
 1534POPC   C1A22131  42.332   5.839   8.564
 1534POPC   D2A22132  42.298   5.897   8.264
 1534POPC   C3A22133  42.317   5.900   7.964
 1534POPC   C4A22134  42.302   5.918   7.664
 1534POPC   C1B22135  42.604   6.010   8.564
 1534POPC   C2B22136  42.513   6.004   8.264
 1534POPC   C3B22137  42.510   5.980   7.964
 1534POPC   C4B22138  42.547   5.982   7.664
 1535POPC   NC322139  32.223  26.076   9.464
 1535POPC   PO422140  32.211  26.041   9.164
 1535POPC   GL122141  32.263  26.076   8.864
 1535POPC   GL222142  32.128  26.048   8.864
 1535POPC   C1A22143  32.238  26.030   8.564
 1535POPC   D2A22144  32.221  26.090   8.264
 1535POPC   C3A22145  32.274  26.080   7.964
 1535POPC   C4A22146  32.294  26.073   7.664
 1535POPC   C1B22147  31.989  25.942   8.564
 1535POPC   C2B22148  32.033  25.921   8.264
 1535POPC   C3B22149  31.965  25.977   7.964
 1535POPC   C4B22150  31.991  25.954   7.664
 1536POPC   NC322151  15.988  42.324   9.464
 1536POPC   PO422152  15.925  42.313   9.164
 1536POPC   GL122153  15.936  42.365   8.864
 1536POPC   GL222154  16.015  42.198   8.864
 1536POPC   C1A22155  15.915  42.376   8.564
 1536POPC   D2A22156  15.905  42.331   8.264
 1536POPC   C3A22157  15.930  42.349   7.964
 1536POPC   C4A22158  15.997  42.309   7.664
 1536POPC   C1B22159  16.156  42.193   8.564
 1536POPC   C2B22160  16.107  42.175   8.264
 1536POPC   C3B22161  16.169  42.162   7.964
 1536POPC   C4B22162  16.174  42.174   7.664
 1537POPC   NC322163  29.892   4.268   9.464
 1537POPC   PO422164  29.899   4.339   9.164
 1537POPC   GL122165  29.956   4.314   8.864
 1537POPC   GL222166  29.754   4.308   8.864
 1537POPC   C1A22167  29.915   4.318   8.564
 1537POPC   D2A22168  29.889   4.360   8.264
 1537POPC   C3A22169  29.887   4.304   7.964
 1537POPC   C4A22170  29.941   4.334   7.664
 1537POPC   C1B22171  29.680   4.402   8.564
 1537POPC   C2B22172  29.648   4.396   8.264
 1537POPC   C3B22173  29.628   4.382   7.964
 1537POPC   C4B22174  29.685   4.408   7.664
 1538POPC   NC322175  44.650   8.977   9.464
 1538POPC   PO422176  44.640   8.995   9.164
 1538POPC   GL122177  44.689   8.931   8.864
 1538POPC   GL222178  44.633   9.048   8.864
 1538POPC   C1A22179  44.621   8.999   8.564
 1538POPC   D2A22180  44.660   8.936   8.264
 1538POPC   C3A22181  44.650   8.972   7.964
 1538POPC   C4A22182  44.698   8.976   7.664
 1538POPC   C1B22183  44.628   9.249   8.564
 1538POPC   C2B22184  44.614   9.180   8.264
 1538POPC   C3B22185  44.590   9.185   7.964
 1538POPC   C4B22186  44.548   9.202   7.664
 1539POPC   NC322187  26.069  36.922   9.464
 1539POPC   PO422188  26.050  36.928   9.164
 1539POPC   GL122189  26.011  36.946   8.864
 1539POPC   GL222190  26.165  37.005   8.864
 1539POPC   C1A22191  26.086  36.950   8.564
 1539POPC   D2A22192  26.003  36.856   8.264
 1539POPC   C3A22193  26.057  36.902   7.964
 1539POPC   C4A22194  26.049  36.933   7.664
 1539POPC   C1B22195  26.314  37.013   8.564
 1539POPC   C2B22196  26.275  37.016   8.264
 1539POPC   C3B22197  26.284  37.017   7.964
 1539POPC   C4B22198  26.254  37.026   7.664
 1540POPC   NC322199   4.295  15.945   9.464
 1540POPC   PO422200   4.310  15.926   9.164
 1540POPC   GL122201   4.306  15.975   8.864
 1540POPC   GL222202   4.158  15.962   8.864
 1540POPC   C1A22203   4.303  15.912   8.564
 1540POPC   D2A22204   4.317  15.929   8.264
 1540POPC   C3A22205   4.300  15.948   7.964
 1540POPC   C4A22206   4.297  15.999   7.664
 1540POPC   C1B22207   4.099  15.894   8.564
 1540POPC   C2B22208   4.101  15.968   8.264
 1540POPC   C3B22209   4.079  15.973   7.964
 1540POPC   C4B22210   4.019  15.973   7.664
 1541POPC   NC322211  43.086  15.142   9.464
 1541POPC   PO422212  43.112  15.157   9.164
 1541POPC   GL122213  43.131  15.214   8.864
 1541POPC   GL222214  43.200  15.194   8.864
 1541POPC   C1A22215  43.148  15.131   8.564
 1541POPC   D2A22216  43.087  15.197   8.264
 1541POPC   C3A22217  43.090  15.138   7.964
 1541POPC   C4A22218  43.128  15.218   7.664
 1541POPC   C1B22219  43.385  15.269   8.564
 1541POPC   C2B22220  43.322  15.291   8.264
 1541POPC   C3B22221  43.374  15.235   7.964
 1541POPC   C4B22222  43.358  15.242   7.664
 1542POPC   NC322223  15.216  31.491   9.464
 1542POPC   PO422224  15.165  31.434   9.164
 1542POPC   GL122225  15.167  31.460   8.864
 1542POPC   GL222226  15.144  31.392   8.864
 1542POPC   C1A22227  15.202  31.475   8.564
 1542POPC   D2A22228  15.186  31.461   8.264
 1542POPC   C3A22229  15.202  31.437   7.964
 1542POPC   C4A22230  15.149  31.450   7.664
 1542POPC   C1B22231  15.031  31.323   8.564
 1542POPC   C2B22232  15.016  31.253   8.264
 1542POPC   C3B22233  15.048  31.226   7.964
 1542POPC   C4B22234  15.040  31.241   7.664
 1543POPC   NC322235  12.874  23.667   9.464
 1543POPC   PO422236  12.838  23.737   9.164
 1543POPC   GL122237  12.875  23.676   8.864
 1543POPC   GL222238  12.800  23.880   8.864
 1543POPC   C1A22239  12.854  23.676   8.564
 1543POPC   D2A22240  12.861  23.716   8.264
 1543POPC   C3A22241  12.823  23.709   7.964
 1543POPC   C4A22242  12.818  23.668   7.664
 1543POPC   C1B22243  12.787  23.980   8.564
 1543POPC   C2B22244  12.797  23.940   8.264
 1543POPC   C3B22245  12.741  23.924   7.964
 1543POPC   C4B22246  12.820  23.924   7.664
 1544POPC   NC322247  44.650  12.808   9.464
 1544POPC   PO422248  44.709  12.847   9.164
 1544POPC   GL122249  44.669  12.843   8.864
 1544POPC   GL222250  44.777  12.845   8.864
 1544POPC   C1A22251  44.637  12.860   8.564
 1544POPC   D2A22252  44.629  12.888   8.264
 1544POPC   C3A22253  44.692  12.896   7.964
 1544POPC   C4A22254  44.686  12.832   7.664
 1544POPC   C1B22255  44.904  12.985   8.564
 1544POPC   C2B22256  44.914  12.957   8.264
 1544POPC   C3B22257  44.925  12.904   7.964
 1544POPC   C4B22258  44.859  12.895   7.664
 1545POPC   NC322259  18.284  14.380   9.464
 1545POPC   PO422260  18.258  14.431   9.164
 1545POPC   GL122261  18.322  14.442   8.864
 1545POPC   GL222262  18.428  14.465   8.864
 1545POPC   C1A22263  18.268  14.426   8.564
 1545POPC   D2A22264  18.311  14.451   8.264
 1545POPC   C3A22265  18.303  14.414   7.964
 1545POPC   C4A22266  18.327  14.443   7.664
 1545POPC   C1B22267  18.491  14.526   8.564
 1545POPC   C2B22268  18.524  14.548   8.264
 1545POPC   C3B22269  18.502  14.520   7.964
 1545POPC   C4B22270  18.458  14.476   7.664
 1546POPC   NC322271  19.098  10.548   9.464
 1546POPC   PO422272  19.073  10.501   9.164
 1546POPC   GL122273  19.068  10.498   8.864
 1546POPC   GL222274  19.146  10.591   8.864
 1546POPC   C1A22275  19.091  10.541   8.564
 1546POPC   D2A22276  19.095  10.553   8.264
 1546POPC   C3A22277  19.030  10.550   7.964
 1546POPC   C4A22278  19.041  10.518   7.664
 1546POPC   C1B22279  19.334  10.646   8.564
 1546POPC   C2B22280  19.290  10.588   8.264
 1546POPC   C3B22281  19.279  10.582   7.964
 1546POPC   C4B22282  19.243  10.628   7.664
 1547POPC   NC322283   8.245   5.835   9.464
 1547POPC   PO422284   8.218   5.836   9.164
 1547POPC   GL122285   8.182   5.907   8.864
 1547POPC   GL222286   8.059   5.892   8.864
 1547POPC   C1A22287   8.168   5.897   8.564
 1547POPC   D2A22288   8.213   5.896   8.264
 1547POPC   C3A22289   8.195   5.881   7.964
 1547POPC   C4A22290   8.239   5.832   7.664
 1547POPC   C1B22291   8.000   5.966   8.564
 1547POPC   C2B22292   7.965   5.951   8.264
 1547POPC   C3B22293   8.001   5.964   7.964
 1547POPC   C4B22294   7.934   6.039   7.664
 1548POPC   NC322295  35.318  29.874   9.464
 1548POPC   PO422296  35.305  29.970   9.164
 1548POPC   GL122297  35.319  29.890   8.864
 1548POPC   GL222298  35.423  29.965   8.864
 1548POPC   C1A22299  35.314  29.913   8.564
 1548POPC   D2A22300  35.328  29.920   8.264
 1548POPC   C3A22301  35.384  29.901   7.964
 1548POPC   C4A22302  35.353  29.932   7.664
 1548POPC   C1B22303  35.562  30.033   8.564
 1548POPC   C2B22304  35.614  30.066   8.264
 1548POPC   C3B22305  35.586  30.034   7.964
 1548POPC   C4B22306  35.609  30.028   7.664
 1549POPC   NC322307  41.518   6.686   9.464
 1549POPC   PO422308  41.540   6.621   9.164
 1549POPC   GL122309  41.536   6.660   8.864
 1549POPC   GL222310  41.639   6.683   8.864
 1549POPC   C1A22311  41.599   6.645   8.564
 1549POPC   D2A22312  41.594   6.662   8.264
 1549POPC   C3A22313  41.550   6.666   7.964
 1549POPC   C4A22314  41.532   6.660   7.664
 1549POPC   C1B22315  41.820   6.788   8.564
 1549POPC   C2B22316  41.815   6.760   8.264
 1549POPC   C3B22317  41.831   6.757   7.964
 1549POPC   C4B22318  41.808   6.787   7.664
 1550POPC   NC322319  29.889  36.859   9.464
 1550POPC   PO422320  29.918  36.876   9.164
 1550POPC   GL122321  29.942  36.859   8.864
 1550POPC   GL222322  29.873  36.801   8.864
 1550POPC   C1A22323  29.893  36.933   8.564
 1550POPC   D2A22324  29.914  36.897   8.264
 1550POPC   C3A22325  29.925  36.920   7.964
 1550POPC   C4A22326  29.919  36.883   7.664
 1550POPC   C1B22327  29.861  36.689   8.564
 1550POPC   C2B22328  29.878  36.711   8.264
 1550POPC   C3B22329  29.893  36.633   7.964
 1550POPC   C4B22330  29.864  36.656   7.664
 1551POPC   NC322331   2.026  27.560   9.464
 1551POPC   PO422332   1.982  27.573   9.164
 1551POPC   GL122333   1.996  27.557   8.864
 1551POPC   GL222334   2.062  27.724   8.864
 1551POPC   C1A22335   2.036  27.557   8.564
 1551POPC   D2A22336   1.946  27.601   8.264
 1551POPC   C3A22337   1.962  27.562   7.964
 1551POPC   C4A22338   1.989  27.608   7.664
 1551POPC   C1B22339   2.115  27.825   8.564
 1551POPC   C2B22340   2.123  27.786   8.264
 1551POPC   C3B22341   2.106  27.801   7.964
 1551POPC   C4B22342   2.152  27.792   7.664
 1552POPC   NC322343  25.314   4.273   9.464
 1552POPC   PO422344  25.227   4.322   9.164
 1552POPC   GL122345  25.263   4.343   8.864
 1552POPC   GL222346  25.114   4.339   8.864
 1552POPC   C1A22347  25.290   4.330   8.564
 1552POPC   D2A22348  25.274   4.360   8.264
 1552POPC   C3A22349  25.258   4.332   7.964
 1552POPC   C4A22350  25.308   4.275   7.664
 1552POPC   C1B22351  25.039   4.299   8.564
 1552POPC   C2B22352  24.971   4.288   8.264
 1552POPC   C3B22353  25.025   4.261   7.964
 1552POPC   C4B22354  25.010   4.288   7.664
 1553POPC   NC322355  22.895  30.680   9.464
 1553POPC   PO422356  22.934  30.722   9.164
 1553POPC   GL122357  22.932  30.664   8.864
 1553POPC   GL222358  22.900  30.578   8.864
 1553POPC   C1A22359  22.889  30.720   8.564
 1553POPC   D2A22360  22.971  30.690   8.264
 1553POPC   C3A22361  22.911  30.693   7.964
 1553POPC   C4A22362  22.897  30.714   7.664
 1553POPC   C1B22363  22.730  30.544   8.564
 1553POPC   C2B22364  22.737  30.502   8.264
 1553POPC   C3B22365  22.786  30.548   7.964
 1553POPC   C4B22366  22.819  30.491   7.664
 1554POPC   NC322367  12.053  36.100   9.464
 1554POPC   PO422368  12.053  36.080   9.164
 1554POPC   GL122369  12.030  36.091   8.864
 1554POPC   GL222370  12.135  36.285   8.864
 1554POPC   C1A22371  12.042  36.123   8.564
 1554POPC   D2A22372  12.052  36.108   8.264
 1554POPC   C3A22373  12.101  36.112   7.964
 1554POPC   C4A22374  12.058  36.114   7.664
 1554POPC   C1B22375  12.080  36.406   8.564
 1554POPC   C2B22376  12.136  36.395   8.264
 1554POPC   C3B22377  12.138  36.349   7.964
 1554POPC   C4B22378  12.117  36.344   7.664
 1555POPC   NC322379  35.362   1.215   9.464
 1555POPC   PO422380  35.392   1.169   9.164
 1555POPC   GL122381  35.320   1.229   8.864
 1555POPC   GL222382  35.415   1.130   8.864
 1555POPC   C1A22383  35.306   1.164   8.564
 1555POPC   D2A22384  35.319   1.249   8.264
 1555POPC   C3A22385  35.320   1.246   7.964
 1555POPC   C4A22386  35.358   1.196   7.664
 1555POPC   C1B22387  35.540   1.077   8.564
 1555POPC   C2B22388  35.533   1.081   8.264
 1555POPC   C3B22389  35.566   1.128   7.964
 1555POPC   C4B22390  35.568   1.060   7.664
 1556POPC   NC322391  22.157  24.527   9.464
 1556POPC   PO422392  22.160  24.472   9.164
 1556POPC   GL122393  22.161  24.456   8.864
 1556POPC   GL222394  22.174  24.645   8.864
 1556POPC   C1A22395  22.201  24.501   8.564
 1556POPC   D2A22396  22.121  24.461   8.264
 1556POPC   C3A22397  22.206  24.468   7.964
 1556POPC   C4A22398  22.135  24.512   7.664
 1556POPC   C1B22399  22.149  24.698   8.564
 1556POPC   C2B22400  22.167  24.753   8.264
 1556POPC   C3B22401  22.147  24.717   7.964
 1556POPC   C4B22402  22.165  24.721   7.664
 1557POPC   NC322403  25.292   3.499   9.464
 1557POPC   PO422404  25.218   3.572   9.164
 1557POPC   GL122405  25.295   3.534   8.864
 1557POPC   GL222406  25.237   3.707   8.864
 1557POPC   C1A22407  25.254   3.584   8.564
 1557POPC   D2A22408  25.288   3.515   8.264
 1557POPC   C3A22409  25.226   3.538   7.964
 1557POPC   C4A22410  25.298   3.589   7.664
 1557POPC   C1B22411  25.216   3.776   8.564
 1557POPC   C2B22412  25.286   3.835   8.264
 1557POPC   C3B22413  25.247   3.821   7.964
 1557POPC   C4B22414  25.310   3.751   7.664
 1558POPC   NC322415  19.105  20.584   9.464
 1558POPC   PO422416  19.039  20.580   9.164
 1558POPC   GL122417  19.020  20.629   8.864
 1558POPC   GL222418  19.207  20.664   8.864
 1558POPC   C1A22419  19.032  20.646   8.564
 1558POPC   D2A22420  19.077  20.658   8.264
 1558POPC   C3A22421  19.106  20.627   7.964
 1558POPC   C4A22422  19.038  20.567   7.664
 1558POPC   C1B22423  19.340  20.656   8.564
 1558POPC   C2B22424  19.317  20.685   8.264
 1558POPC   C3B22425  19.276  20.636   7.964
 1558POPC   C4B22426  19.322  20.628   7.664
 1559POPC   NC322427  23.666  19.061   9.464
 1559POPC   PO422428  23.752  19.065   9.164
 1559POPC   GL122429  23.708  19.060   8.864
 1559POPC   GL222430  23.791  19.073   8.864
 1559POPC   C1A22431  23.679  19.093   8.564
 1559POPC   D2A22432  23.698  19.085   8.264
 1559POPC   C3A22433  23.717  19.107   7.964
 1559POPC   C4A22434  23.728  19.043   7.664
 1559POPC   C1B22435  23.983  19.014   8.564
 1559POPC   C2B22436  23.934  19.025   8.264
 1559POPC   C3B22437  23.950  18.992   7.964
 1559POPC   C4B22438  24.002  18.948   7.664
 1560POPC   NC322439  29.153   5.054   9.464
 1560POPC   PO422440  29.193   5.065   9.164
 1560POPC   GL122441  29.187   5.125   8.864
 1560POPC   GL222442  29.263   5.103   8.864
 1560POPC   C1A22443  29.167   5.075   8.564
 1560POPC   D2A22444  29.106   5.126   8.264
 1560POPC   C3A22445  29.141   5.078   7.964
 1560POPC   C4A22446  29.173   5.101   7.664
 1560POPC   C1B22447  29.338   4.977   8.564
 1560POPC   C2B22448  29.364   5.026   8.264
 1560POPC   C3B22449  29.385   4.982   7.964
 1560POPC   C4B22450  29.338   4.996   7.664
 1561POPC   NC322451  22.909  36.945   9.464
 1561POPC   PO422452  22.940  36.952   9.164
 1561POPC   GL122453  22.928  36.920   8.864
 1561POPC   GL222454  22.853  36.951   8.864
 1561POPC   C1A22455  22.924  36.888   8.564
 1561POPC   D2A22456  22.911  36.936   8.264
 1561POPC   C3A22457  22.977  36.889   7.964
 1561POPC   C4A22458  22.891  36.935   7.664
 1561POPC   C1B22459  22.666  36.997   8.564
 1561POPC   C2B22460  22.718  36.969   8.264
 1561POPC   C3B22461  22.718  36.996   7.964
 1561POPC   C4B22462  22.703  36.949   7.664
 1562POPC   NC322463  10.501  37.715   9.464
 1562POPC   PO422464  10.511  37.720   9.164
 1562POPC   GL122465  10.498  37.695   8.864
 1562POPC   GL222466  10.414  37.796   8.864
 1562POPC   C1A22467  10.566  37.693   8.564
 1562POPC   D2A22468  10.546  37.705   8.264
 1562POPC   C3A22469  10.572  37.674   7.964
 1562POPC   C4A22470  10.567  37.668   7.664
 1562POPC   C1B22471  10.366  37.817   8.564
 1562POPC   C2B22472  10.325  37.811   8.264
 1562POPC   C3B22473  10.338  37.871   7.964
 1562POPC   C4B22474  10.360  37.837   7.664
 1563POPC   NC322475  34.595  26.016   9.464
 1563POPC   PO422476  34.550  25.997   9.164
 1563POPC   GL122477  34.564  26.082   8.864
 1563POPC   GL222478  34.565  26.122   8.864
 1563POPC   C1A22479  34.579  26.077   8.564
 1563POPC   D2A22480  34.550  26.037   8.264
 1563POPC   C3A22481  34.608  26.085   7.964
 1563POPC   C4A22482  34.566  26.013   7.664
 1563POPC   C1B22483  34.541  26.304   8.564
 1563POPC   C2B22484  34.587  26.314   8.264
 1563POPC   C3B22485  34.589  26.332   7.964
 1563POPC   C4B22486  34.529  26.272   7.664
 1564POPC   NC322487   9.741   7.422   9.464
 1564POPC   PO422488   9.699   7.401   9.164
 1564POPC   GL122489   9.739   7.399   8.864
 1564POPC   GL222490   9.806   7.496   8.864
 1564POPC   C1A22491   9.708   7.375   8.564
 1564POPC   D2A22492   9.723   7.460   8.264
 1564POPC   C3A22493   9.744   7.442   7.964
 1564POPC   C4A22494   9.788   7.463   7.664
 1564POPC   C1B22495   9.750   7.685   8.564
 1564POPC   C2B22496   9.823   7.680   8.264
 1564POPC   C3B22497   9.809   7.711   7.964
 1564POPC   C4B22498   9.793   7.693   7.664
 1565POPC   NC322499  18.331  11.255   9.464
 1565POPC   PO422500  18.287  11.315   9.164
 1565POPC   GL122501  18.249  11.291   8.864
 1565POPC   GL222502  18.423  11.319   8.864
 1565POPC   C1A22503  18.282  11.286   8.564
 1565POPC   D2A22504  18.235  11.287   8.264
 1565POPC   C3A22505  18.293  11.300   7.964
 1565POPC   C4A22506  18.251  11.306   7.664
 1565POPC   C1B22507  18.545  11.429   8.564
 1565POPC   C2B22508  18.498  11.397   8.264
 1565POPC   C3B22509  18.494  11.406   7.964
 1565POPC   C4B22510  18.519  11.371   7.664
 1566POPC   NC322511  13.588  29.186   9.464
 1566POPC   PO422512  13.617  29.133   9.164
 1566POPC   GL122513  13.664  29.099   8.864
 1566POPC   GL222514  13.795  29.214   8.864
 1566POPC   C1A22515  13.646  29.152   8.564
 1566POPC   D2A22516  13.663  29.154   8.264
 1566POPC   C3A22517  13.582  29.097   7.964
 1566POPC   C4A22518  13.631  29.141   7.664
 1566POPC   C1B22519  13.845  29.253   8.564
 1566POPC   C2B22520  13.844  29.171   8.264
 1566POPC   C3B22521  13.917  29.234   7.964
 1566POPC   C4B22522  13.894  29.231   7.664
 1567POPC   NC322523  12.092  38.485   9.464
 1567POPC   PO422524  12.079  38.448   9.164
 1567POPC   GL122525  12.041  38.448   8.864
 1567POPC   GL222526  12.172  38.347   8.864
 1567POPC   C1A22527  12.106  38.492   8.564
 1567POPC   D2A22528  12.112  38.415   8.264
 1567POPC   C3A22529  12.124  38.472   7.964
 1567POPC   C4A22530  12.064  38.411   7.664
 1567POPC   C1B22531  12.261  38.262   8.564
 1567POPC   C2B22532  12.288  38.329   8.264
 1567POPC   C3B22533  12.294  38.346   7.964
 1567POPC   C4B22534  12.235  38.257   7.664
 1568POPC   NC322535   6.660  38.430   9.464
 1568POPC   PO422536   6.615  38.454   9.164
 1568POPC   GL122537   6.678  38.451   8.864
 1568POPC   GL222538   6.791  38.501   8.864
 1568POPC   C1A22539   6.679  38.415   8.564
 1568POPC   D2A22540   6.613  38.421   8.264
 1568POPC   C3A22541   6.681  38.446   7.964
 1568POPC   C4A22542   6.645  38.422   7.664
 1568POPC   C1B22543   6.870  38.525   8.564
 1568POPC   C2B22544   6.888  38.452   8.264
 1568POPC   C3B22545   6.845  38.445   7.964
 1568POPC   C4B22546   6.889  38.466   7.664
 1569POPC   NC322547  13.589  30.664   9.464
 1569POPC   PO422548  13.639  30.689   9.164
 1569POPC   GL122549  13.628  30.678   8.864
 1569POPC   GL222550  13.730  30.770   8.864
 1569POPC   C1A22551  13.620  30.685   8.564
 1569POPC   D2A22552  13.658  30.710   8.264
 1569POPC   C3A22553  13.617  30.719   7.964
 1569POPC   C4A22554  13.645  30.687   7.664
 1569POPC   C1B22555  13.762  30.879   8.564
 1569POPC   C2B22556  13.779  30.855   8.264
 1569POPC   C3B22557  13.795  30.830   7.964
 1569POPC   C4B22558  13.759  30.845   7.664
 1570POPC   NC322559  37.649  32.258   9.464
 1570POPC   PO422560  37.721  32.257   9.164
 1570POPC   GL122561  37.671  32.238   8.864
 1570POPC   GL222562  37.558  32.154   8.864
 1570POPC   C1A22563  37.684  32.250   8.564
 1570POPC   D2A22564  37.685  32.240   8.264
 1570POPC   C3A22565  37.719  32.270   7.964
 1570POPC   C4A22566  37.675  32.295   7.664
 1570POPC   C1B22567  37.485  32.166   8.564
 1570POPC   C2B22568  37.494  32.148   8.264
 1570POPC   C3B22569  37.508  32.110   7.964
 1570POPC   C4B22570  37.492  32.146   7.664
 1571POPC   NC322571  39.266  23.716   9.464
 1571POPC   PO422572  39.210  23.672   9.164
 1571POPC   GL122573  39.186  23.740   8.864
 1571POPC   GL222574  39.334  23.594   8.864
 1571POPC   C1A22575  39.204  23.691   8.564
 1571POPC   D2A22576  39.259  23.677   8.264
 1571POPC   C3A22577  39.208  23.731   7.964
 1571POPC   C4A22578  39.197  23.738   7.664
 1571POPC   C1B22579  39.384  23.596   8.564
 1571POPC   C2B22580  39.470  23.532   8.264
 1571POPC   C3B22581  39.398  23.568   7.964
 1571POPC   C4B22582  39.421  23.579   7.664
 1572POPC   NC322583  18.269  37.699   9.464
 1572POPC   PO422584  18.252  37.648   9.164
 1572POPC   GL122585  18.243  37.684   8.864
 1572POPC   GL222586  18.442  37.739   8.864
 1572POPC   C1A22587  18.313  37.668   8.564
 1572POPC   D2A22588  18.242  37.641   8.264
 1572POPC   C3A22589  18.270  37.687   7.964
 1572POPC   C4A22590  18.294  37.724   7.664
 1572POPC   C1B22591  18.556  37.699   8.564
 1572POPC   C2B22592  18.486  37.723   8.264
 1572POPC   C3B22593  18.510  37.730   7.964
 1572POPC   C4B22594  18.520  37.710   7.664
 1573POPC   NC322595  12.845  22.928   9.464
 1573POPC   PO422596  12.888  22.936   9.164
 1573POPC   GL122597  12.852  22.904   8.864
 1573POPC   GL222598  12.759  22.801   8.864
 1573POPC   C1A22599  12.834  22.920   8.564
 1573POPC   D2A22600  12.885  22.982   8.264
 1573POPC   C3A22601  12.878  22.923   7.964
 1573POPC   C4A22602  12.837  22.896   7.664
 1573POPC   C1B22603  12.673  22.705   8.564
 1573POPC   C2B22604  12.690  22.742   8.264
 1573POPC   C3B22605  12.711  22.728   7.964
 1573POPC   C4B22606  12.736  22.693   7.664
 1574POPC   NC322607  44.704  15.138   9.464
 1574POPC   PO422608  44.626  15.198   9.164
 1574POPC   GL122609  44.665  15.157   8.864
 1574POPC   GL222610  44.798  15.190   8.864
 1574POPC   C1A22611  44.653  15.194   8.564
 1574POPC   D2A22612  44.617  15.216   8.264
 1574POPC   C3A22613  44.681  15.164   7.964
 1574POPC   C4A22614  44.646  15.178   7.664
 1574POPC   C1B22615  44.919  15.128   8.564
 1574POPC   C2B22616  44.875  15.173   8.264
 1574POPC   C3B22617  44.903  15.126   7.964
 1574POPC   C4B22618  44.934  15.171   7.664
 1575POPC   NC322619  42.347   1.177   9.464
 1575POPC   PO422620  42.304   1.258   9.164
 1575POPC   GL122621  42.310   1.171   8.864
 1575POPC   GL222622  42.346   1.349   8.864
 1575POPC   C1A22623  42.353   1.176   8.564
 1575POPC   D2A22624  42.352   1.189   8.264
 1575POPC   C3A22625  42.303   1.235   7.964
 1575POPC   C4A22626  42.317   1.228   7.664
 1575POPC   C1B22627  42.413   1.478   8.564
 1575POPC   C2B22628  42.467   1.395   8.264
 1575POPC   C3B22629  42.461   1.416   7.964
 1575POPC   C4B22630  42.425   1.408   7.664
 1576POPC   NC322631  15.913   8.186   9.464
 1576POPC   PO422632  15.980   8.187   9.164
 1576POPC   GL122633  15.948   8.209   8.864
 1576POPC   GL222634  15.816   8.216   8.864
 1576POPC   C1A22635  16.004   8.209   8.564
 1576POPC   D2A22636  15.918   8.195   8.264
 1576POPC   C3A22637  15.965   8.156   7.964
 1576POPC   C4A22638  15.975   8.198   7.664
 1576POPC   C1B22639  15.669   8.183   8.564
 1576POPC   C2B22640  15.752   8.205   8.264
 1576POPC   C3B22641  15.680   8.182   7.964
 1576POPC   C4B22642  15.747   8.192   7.664
 1577POPC   NC322643  30.728  13.633   9.464
 1577POPC   PO422644  30.707  13.583   9.164
 1577POPC   GL122645  30.721  13.616   8.864
 1577POPC   GL222646  30.569  13.525   8.864
 1577POPC   C1A22647  30.699  13.601   8.564
 1577POPC   D2A22648  30.664  13.667   8.264
 1577POPC   C3A22649  30.674  13.623   7.964
 1577POPC   C4A22650  30.694  13.645   7.664
 1577POPC   C1B22651  30.482  13.467   8.564
 1577POPC   C2B22652  30.542  13.420   8.264
 1577POPC   C3B22653  30.503  13.484   7.964
 1577POPC   C4B22654  30.519  13.463   7.664
 1578POPC   NC322655  39.983   7.372   9.464
 1578POPC   PO422656  40.024   7.374   9.164
 1578POPC   GL122657  40.029   7.416   8.864
 1578POPC   GL222658  39.990   7.561   8.864
 1578POPC   C1A22659  40.034   7.448   8.564
 1578POPC   D2A22660  40.048   7.415   8.264
 1578POPC   C3A22661  40.029   7.383   7.964
 1578POPC   C4A22662  39.986   7.411   7.664
 1578POPC   C1B22663  40.046   7.660   8.564
 1578POPC   C2B22664  40.110   7.668   8.264
 1578POPC   C3B22665  40.069   7.672   7.964
 1578POPC   C4B22666  40.118   7.620   7.664
 1579POPC   NC322667  18.279   1.201   9.464
 1579POPC   PO422668  18.269   1.220   9.164
 1579POPC   GL122669  18.251   1.168   8.864
 1579POPC   GL222670  18.242   1.120   8.864
 1579POPC   C1A22671  18.283   1.252   8.564
 1579POPC   D2A22672  18.319   1.203   8.264
 1579POPC   C3A22673  18.300   1.263   7.964
 1579POPC   C4A22674  18.249   1.196   7.664
 1579POPC   C1B22675  18.194   0.983   8.564
 1579POPC   C2B22676  18.202   0.973   8.264
 1579POPC   C3B22677  18.237   0.956   7.964
 1579POPC   C4B22678  18.230   0.959   7.664
 1580POPC   NC322679  18.296  43.128   9.464
 1580POPC   PO422680  18.322  43.099   9.164
 1580POPC   GL122681  18.324  43.147   8.864
 1580POPC   GL222682  18.206  43.207   8.864
 1580POPC   C1A22683  18.296  43.067   8.564
 1580POPC   D2A22684  18.264  43.143   8.264
 1580POPC   C3A22685  18.303  43.074   7.964
 1580POPC   C4A22686  18.271  43.066   7.664
 1580POPC   C1B22687  18.047  43.257   8.564
 1580POPC   C2B22688  18.087  43.230   8.264
 1580POPC   C3B22689  18.083  43.284   7.964
 1580POPC   C4B22690  18.057  43.284   7.664
 1581POPC   NC322691  11.333  15.192   9.464
 1581POPC   PO422692  11.305  15.192   9.164
 1581POPC   GL122693  11.260  15.130   8.864
 1581POPC   GL222694  11.178  15.090   8.864
 1581POPC   C1A22695  11.276  15.174   8.564
 1581POPC   D2A22696  11.327  15.151   8.264
 1581POPC   C3A22697  11.330  15.136   7.964
 1581POPC   C4A22698  11.346  15.136   7.664
 1581POPC   C1B22699  11.065  15.086   8.564
 1581POPC   C2B22700  11.096  15.066   8.264
 1581POPC   C3B22701  11.085  15.074   7.964
 1581POPC   C4B22702  11.120  15.024   7.664
 1582POPC   NC322703   4.307  41.601   9.464
 1582POPC   PO422704   4.318  41.518   9.164
 1582POPC   GL122705   4.363  41.607   8.864
 1582POPC   GL222706   4.419  41.537   8.864
 1582POPC   C1A22707   4.270  41.562   8.564
 1582POPC   D2A22708   4.348  41.550   8.264
 1582POPC   C3A22709   4.270  41.563   7.964
 1582POPC   C4A22710   4.307  41.564   7.664
 1582POPC   C1B22711   4.523  41.486   8.564
 1582POPC   C2B22712   4.560  41.503   8.264
 1582POPC   C3B22713   4.590  41.454   7.964
 1582POPC   C4B22714   4.557  41.500   7.664
 1583POPC   NC322715  20.564  15.909   9.464
 1583POPC   PO422716  20.647  16.001   9.164
 1583POPC   GL122717  20.597  15.965   8.864
 1583POPC   GL222718  20.460  15.902   8.864
 1583POPC   C1A22719  20.574  15.948   8.564
 1583POPC   D2A22720  20.629  15.960   8.264
 1583POPC   C3A22721  20.606  16.001   7.964
 1583POPC   C4A22722  20.649  15.964   7.664
 1583POPC   C1B22723  20.371  15.830   8.564
 1583POPC   C2B22724  20.406  15.843   8.264
 1583POPC   C3B22725  20.440  15.776   7.964
 1583POPC   C4B22726  20.370  15.850   7.664
 1584POPC   NC322727  39.224  44.675   9.464
 1584POPC   PO422728  39.216  44.702   9.164
 1584POPC   GL122729  39.267  44.658   8.864
 1584POPC   GL222730  39.249  44.790   8.864
 1584POPC   C1A22731  39.199  44.699   8.564
 1584POPC   D2A22732  39.250  44.671   8.264
 1584POPC   C3A22733  39.204  44.666   7.964
 1584POPC   C4A22734  39.271  44.707   7.664
 1584POPC   C1B22735  39.211  44.895   8.564
 1584POPC   C2B22736  39.178  44.911   8.264
 1584POPC   C3B22737  39.254  44.927   7.964
 1584POPC   C4B22738  39.250  44.906   7.664
 1585POPC   NC322739  32.220   3.549   9.464
 1585POPC   PO422740  32.256   3.589   9.164
 1585POPC   GL122741  32.236   3.522   8.864
 1585POPC   GL222742  32.210   3.688   8.864
 1585POPC   C1A22743  32.282   3.589   8.564
 1585POPC   D2A22744  32.209   3.571   8.264
 1585POPC   C3A22745  32.291   3.560   7.964
 1585POPC   C4A22746  32.272   3.581   7.664
 1585POPC   C1B22747  32.108   3.736   8.564
 1585POPC   C2B22748  32.147   3.759   8.264
 1585POPC   C3B22749  32.118   3.756   7.964
 1585POPC   C4B22750  32.132   3.735   7.664
 1586POPC   NC322751   3.516  11.309   9.464
 1586POPC   PO422752   3.529  11.283   9.164
 1586POPC   GL122753   3.567  11.280   8.864
 1586POPC   GL222754   3.596  11.207   8.864
 1586POPC   C1A22755   3.575  11.288   8.564
 1586POPC   D2A22756   3.568  11.276   8.264
 1586POPC   C3A22757   3.514  11.277   7.964
 1586POPC   C4A22758   3.573  11.254   7.664
 1586POPC   C1B22759   3.701  11.194   8.564
 1586POPC   C2B22760   3.698  11.166   8.264
 1586POPC   C3B22761   3.752  11.120   7.964
 1586POPC   C4B22762   3.709  11.172   7.664
 1587POPC   NC322763  22.907  32.203   9.464
 1587POPC   PO422764  22.933  32.268   9.164
 1587POPC   GL122765  22.894  32.248   8.864
 1587POPC   GL222766  22.957  32.333   8.864
 1587POPC   C1A22767  22.910  32.285   8.564
 1587POPC   D2A22768  22.988  32.295   8.264
 1587POPC   C3A22769  22.897  32.207   7.964
 1587POPC   C4A22770  22.928  32.204   7.664
 1587POPC   C1B22771  23.067  32.491   8.564
 1587POPC   C2B22772  23.106  32.427   8.264
 1587POPC   C3B22773  23.058  32.454   7.964
 1587POPC   C4B22774  23.075  32.453   7.664
 1588POPC   NC322775  35.320  44.671   9.464
 1588POPC   PO422776  35.317  44.677   9.164
 1588POPC   GL122777  35.392  44.704   8.864
 1588POPC   GL222778  35.338  44.788   8.864
 1588POPC   C1A22779  35.320  44.707   8.564
 1588POPC   D2A22780  35.305  44.689   8.264
 1588POPC   C3A22781  35.348  44.663   7.964
 1588POPC   C4A22782  35.370  44.701   7.664
 1588POPC   C1B22783  35.390  44.955   8.564
 1588POPC   C2B22784  35.340  44.868   8.264
 1588POPC   C3B22785  35.387  44.880   7.964
 1588POPC   C4B22786  35.352  44.944   7.664
 1589POPC   NC322787  22.179  26.802   9.464
 1589POPC   PO422788  22.140  26.792   9.164
 1589POPC   GL122789  22.157  26.833   8.864
 1589POPC   GL222790  22.166  26.683   8.864
 1589POPC   C1A22791  22.208  26.817   8.564
 1589POPC   D2A22792  22.199  26.822   8.264
 1589POPC   C3A22793  22.204  26.860   7.964
 1589POPC   C4A22794  22.180  26.865   7.664
 1589POPC   C1B22795  22.207  26.598   8.564
 1589POPC   C2B22796  22.224  26.598   8.264
 1589POPC   C3B22797  22.283  26.608   7.964
 1589POPC   C4B22798  22.269  26.605   7.664
 1590POPC   NC322799  29.910  15.211   9.464
 1590POPC   PO422800  29.880  15.206   9.164
 1590POPC   GL122801  29.926  15.181   8.864
 1590POPC   GL222802  30.017  15.159   8.864
 1590POPC   C1A22803  29.956  15.145   8.564
 1590POPC   D2A22804  29.876  15.196   8.264
 1590POPC   C3A22805  29.880  15.163   7.964
 1590POPC   C4A22806  29.943  15.208   7.664
 1590POPC   C1B22807  30.146  15.093   8.564
 1590POPC   C2B22808  30.200  15.060   8.264
 1590POPC   C3B22809  30.200  15.103   7.964
 1590POPC   C4B22810  30.121  15.100   7.664
 1591POPC   NC322811   6.639   4.290   9.464
 1591POPC   PO422812   6.676   4.285   9.164
 1591POPC   GL122813   6.644   4.275   8.864
 1591POPC   GL222814   6.499   4.262   8.864
 1591POPC   C1A22815   6.630   4.273   8.564
 1591POPC   D2A22816   6.601   4.359   8.264
 1591POPC   C3A22817   6.604   4.318   7.964
 1591POPC   C4A22818   6.640   4.292   7.664
 1591POPC   C1B22819   6.450   4.239   8.564
 1591POPC   C2B22820   6.389   4.207   8.264
 1591POPC   C3B22821   6.443   4.201   7.964
 1591POPC   C4B22822   6.416   4.221   7.664
 1592POPC   NC322823  20.582  11.282   9.464
 1592POPC   PO422824  20.569  11.271   9.164
 1592POPC   GL122825  20.656  11.333   8.864
 1592POPC   GL222826  20.645  11.164   8.864
 1592POPC   C1A22827  20.616  11.342   8.564
 1592POPC   D2A22828  20.591  11.350   8.264
 1592POPC   C3A22829  20.600  11.303   7.964
 1592POPC   C4A22830  20.639  11.305   7.664
 1592POPC   C1B22831  20.777  11.095   8.564
 1592POPC   C2B22832  20.728  11.090   8.264
 1592POPC   C3B22833  20.738  11.088   7.964
 1592POPC   C4B22834  20.799  11.081   7.664
 1593POPC   NC322835   4.278  43.122   9.464
 1593POPC   PO422836   4.288  43.074   9.164
 1593POPC   GL122837   4.355  43.107   8.864
 1593POPC   GL222838   4.193  43.215   8.864
 1593POPC   C1A22839   4.300  43.071   8.564
 1593POPC   D2A22840   4.297  43.104   8.264
 1593POPC   C3A22841   4.288  43.075   7.964
 1593POPC   C4A22842   4.287  43.157   7.664
 1593POPC   C1B22843   4.096  43.251   8.564
 1593POPC   C2B22844   4.133  43.319   8.264
 1593POPC   C3B22845   4.118  43.322   7.964
 1593POPC   C4B22846   4.106  43.329   7.664
 1594POPC   NC322847  26.851   6.666   9.464
 1594POPC   PO422848  26.853   6.623   9.164
 1594POPC   GL122849  26.850   6.615   8.864
 1594POPC   GL222850  26.707   6.711   8.864
 1594POPC   C1A22851  26.819   6.629   8.564
 1594POPC   D2A22852  26.780   6.596   8.264
 1594POPC   C3A22853  26.826   6.648   7.964
 1594POPC   C4A22854  26.768   6.634   7.664
 1594POPC   C1B22855  26.674   6.886   8.564
 1594POPC   C2B22856  26.674   6.831   8.264
 1594POPC   C3B22857  26.639   6.869   7.964
 1594POPC   C4B22858  26.662   6.835   7.664
 1595POPC   NC322859  19.799   2.749   9.464
 1595POPC   PO422860  19.840   2.780   9.164
 1595POPC   GL122861  19.867   2.738   8.864
 1595POPC   GL222862  20.002   2.785   8.864
 1595POPC   C1A22863  19.870   2.783   8.564
 1595POPC   D2A22864  19.812   2.735   8.264
 1595POPC   C3A22865  19.798   2.812   7.964
 1595POPC   C4A22866  19.790   2.797   7.664
 1595POPC   C1B22867  20.115   2.775   8.564
 1595POPC   C2B22868  20.127   2.711   8.264
 1595POPC   C3B22869  20.066   2.769   7.964
 1595POPC   C4B22870  20.119   2.791   7.664
 1596POPC   NC322871  11.288  17.494   9.464
 1596POPC   PO422872  11.287  17.483   9.164
 1596POPC   GL122873  11.270  17.542   8.864
 1596POPC   GL222874  11.253  17.358   8.864
 1596POPC   C1A22875  11.251  17.487   8.564
 1596POPC   D2A22876  11.332  17.522   8.264
 1596POPC   C3A22877  11.347  17.525   7.964
 1596POPC   C4A22878  11.284  17.499   7.664
 1596POPC   C1B22879  11.225  17.219   8.564
 1596POPC   C2B22880  11.220  17.248   8.264
 1596POPC   C3B22881  11.301  17.285   7.964
 1596POPC   C4B22882  11.299  17.308   7.664
 1597POPC   NC322883  36.940  31.481   9.464
 1597POPC   PO422884  36.939  31.457   9.164
 1597POPC   GL122885  36.866  31.431   8.864
 1597POPC   GL222886  36.808  31.618   8.864
 1597POPC   C1A22887  36.928  31.455   8.564
 1597POPC   D2A22888  36.861  31.505   8.264
 1597POPC   C3A22889  36.940  31.497   7.964
 1597POPC   C4A22890  36.891  31.460   7.664
 1597POPC   C1B22891  36.768  31.738   8.564
 1597POPC   C2B22892  36.780  31.705   8.264
 1597POPC   C3B22893  36.793  31.659   7.964
 1597POPC   C4B22894  36.781  31.674   7.664
 1598POPC   NC322895  12.851  30.681   9.464
 1598POPC   PO422896  12.847  30.654   9.164
 1598POPC   GL122897  12.881  30.728   8.864
 1598POPC   GL222898  12.747  30.770   8.864
 1598POPC   C1A22899  12.807  30.672   8.564
 1598POPC   D2A22900  12.823  30.731   8.264
 1598POPC   C3A22901  12.828  30.701   7.964
 1598POPC   C4A22902  12.819  30.658   7.664
 1598POPC   C1B22903  12.722  30.848   8.564
 1598POPC   C2B22904  12.645  30.855   8.264
 1598POPC   C3B22905  12.735  30.868   7.964
 1598POPC   C4B22906  12.660  30.874   7.664
 1599POPC   NC322907  27.596  34.603   9.464
 1599POPC   PO422908  27.587  34.560   9.164
 1599POPC   GL122909  27.622  34.556   8.864
 1599POPC   GL222910  27.570  34.438   8.864
 1599POPC   C1A22911  27.605  34.607   8.564
 1599POPC   D2A22912  27.545  34.563   8.264
 1599POPC   C3A22913  27.617  34.624   7.964
 1599POPC   C4A22914  27.634  34.611   7.664
 1599POPC   C1B22915  27.617  34.378   8.564
 1599POPC   C2B22916  27.621  34.343   8.264
 1599POPC   C3B22917  27.590  34.333   7.964
 1599POPC   C4B22918  27.682  34.349   7.664
 1600POPC   NC322919  23.716  28.387   9.464
 1600POPC   PO422920  23.678  28.381   9.164
 1600POPC   GL122921  23.745  28.372   8.864
 1600POPC   GL222922  23.650  28.480   8.864
 1600POPC   C1A22923  23.686  28.358   8.564
 1600POPC   D2A22924  23.675  28.416   8.264
 1600POPC   C3A22925  23.702  28.389   7.964
 1600POPC   C4A22926  23.748  28.359   7.664
 1600POPC   C1B22927  23.552  28.630   8.564
 1600POPC   C2B22928  23.587  28.559   8.264
 1600POPC   C3B22929  23.637  28.592   7.964
 1600POPC   C4B22930  23.584  28.583   7.664
 1601POPC   NC322931  36.124  42.358   9.464
 1601POPC   PO422932  36.177  42.301   9.164
 1601POPC   GL122933  36.161  42.319   8.864
 1601POPC   GL222934  36.113  42.186   8.864
 1601POPC   C1A22935  36.078  42.346   8.564
 1601POPC   D2A22936  36.113  42.302   8.264
 1601POPC   C3A22937  36.115  42.317   7.964
 1601POPC   C4A22938  36.131  42.335   7.664
 1601POPC   C1B22939  36.017  42.095   8.564
 1601POPC   C2B22940  35.997  42.093   8.264
 1601POPC   C3B22941  36.017  42.133   7.964
 1601POPC   C4B22942  36.039  42.090   7.664
 1602POPC   NC322943   8.152  36.886   9.464
 1602POPC   PO422944   8.197  36.866   9.164
 1602POPC   GL122945   8.168  36.915   8.864
 1602POPC   GL222946   8.097  36.993   8.864
 1602POPC   C1A22947   8.162  36.902   8.564
 1602POPC   D2A22948   8.204  36.917   8.264
 1602POPC   C3A22949   8.220  36.897   7.964
 1602POPC   C4A22950   8.185  36.879   7.664
 1602POPC   C1B22951   8.039  37.037   8.564
 1602POPC   C2B22952   7.986  37.101   8.264
 1602POPC   C3B22953   8.003  37.074   7.964
 1602POPC   C4B22954   7.983  37.018   7.664
 1603POPC   NC322955  35.308  19.072   9.464
 1603POPC   PO422956  35.343  19.100   9.164
 1603POPC   GL122957  35.368  19.087   8.864
 1603POPC   GL222958  35.317  19.174   8.864
 1603POPC   C1A22959  35.317  19.034   8.564
 1603POPC   D2A22960  35.399  19.083   8.264
 1603POPC   C3A22961  35.329  19.095   7.964
 1603POPC   C4A22962  35.328  19.051   7.664
 1603POPC   C1B22963  35.317  19.280   8.564
 1603POPC   C2B22964  35.342  19.353   8.264
 1603POPC   C3B22965  35.347  19.286   7.964
 1603POPC   C4B22966  35.393  19.294   7.664
 1604POPC   NC322967  19.073   2.789   9.464
 1604POPC   PO422968  19.024   2.734   9.164
 1604POPC   GL122969  19.101   2.776   8.864
 1604POPC   GL222970  19.176   2.718   8.864
 1604POPC   C1A22971  19.038   2.761   8.564
 1604POPC   D2A22972  19.019   2.766   8.264
 1604POPC   C3A22973  19.045   2.798   7.964
 1604POPC   C4A22974  19.013   2.770   7.664
 1604POPC   C1B22975  19.351   2.768   8.564
 1604POPC   C2B22976  19.352   2.773   8.264
 1604POPC   C3B22977  19.320   2.729   7.964
 1604POPC   C4B22978  19.292   2.793   7.664
 1605POPC   NC322979  25.299   2.027   9.464
 1605POPC   PO422980  25.242   1.956   9.164
 1605POPC   GL122981  25.274   1.994   8.864
 1605POPC   GL222982  25.318   2.106   8.864
 1605POPC   C1A22983  25.278   1.952   8.564
 1605POPC   D2A22984  25.303   1.987   8.264
 1605POPC   C3A22985  25.290   2.010   7.964
 1605POPC   C4A22986  25.306   2.010   7.664
 1605POPC   C1B22987  25.420   2.161   8.564
 1605POPC   C2B22988  25.401   2.186   8.264
 1605POPC   C3B22989  25.428   2.182   7.964
 1605POPC   C4B22990  25.383   2.235   7.664
 1606POPC   NC322991  25.243  14.438   9.464
 1606POPC   PO422992  25.271  14.415   9.164
 1606POPC   GL122993  25.299  14.449   8.864
 1606POPC   GL222994  25.297  14.536   8.864
 1606POPC   C1A22995  25.273  14.372   8.564
 1606POPC   D2A22996  25.297  14.404   8.264
 1606POPC   C3A22997  25.298  14.449   7.964
 1606POPC   C4A22998  25.310  14.431   7.664
 1606POPC   C1B22999  25.272  14.671   8.564
 1606POPC   C2B23000  25.221  14.646   8.264
 1606POPC   C3B23001  25.201  14.621   7.964
 1606POPC   C4B23002  25.212  14.681   7.664
 1607POPC   NC323003  10.533  43.909   9.464
 1607POPC   PO423004  10.485  43.854   9.164
 1607POPC   GL123005  10.481  43.857   8.864
 1607POPC   GL223006  10.623  43.774   8.864
 1607POPC   C1A23007  10.489  43.860   8.564
 1607POPC   D2A23008  10.478  43.863   8.264
 1607POPC   C3A23009  10.533  43.859   7.964
 1607POPC   C4A23010  10.528  43.892   7.664
 1607POPC   C1B23011  10.676  43.743   8.564
 1607POPC   C2B23012  10.730  43.701   8.264
 1607POPC   C3B23013  10.679  43.743   7.964
 1607POPC   C4B23014  10.669  43.685   7.664
 1608POPC   NC323015  22.190  10.571   9.464
 1608POPC   PO423016  22.206  10.534   9.164
 1608POPC   GL123017  22.158  10.558   8.864
 1608POPC   GL223018  22.028  10.575   8.864
 1608POPC   C1A23019  22.158  10.570   8.564
 1608POPC   D2A23020  22.118  10.566   8.264
 1608POPC   C3A23021  22.153  10.551   7.964
 1608POPC   C4A23022  22.158  10.553   7.664
 1608POPC   C1B23023  21.991  10.607   8.564
 1608POPC   C2B23024  21.925  10.602   8.264
 1608POPC   C3B23025  21.942  10.646   7.964
 1608POPC   C4B23026  21.944  10.685   7.664
 1609POPC   NC323027  29.141  29.920   9.464
 1609POPC   PO423028  29.099  29.913   9.164
 1609POPC   GL123029  29.173  29.898   8.864
 1609POPC   GL223030  29.256  29.925   8.864
 1609POPC   C1A23031  29.149  29.928   8.564
 1609POPC   D2A23032  29.134  29.935   8.264
 1609POPC   C3A23033  29.189  29.895   7.964
 1609POPC   C4A23034  29.166  29.964   7.664
 1609POPC   C1B23035  29.365  29.796   8.564
 1609POPC   C2B23036  29.345  29.877   8.264
 1609POPC   C3B23037  29.375  29.886   7.964
 1609POPC   C4B23038  29.349  29.822   7.664
 1610POPC   NC323039  38.494   1.995   9.464
 1610POPC   PO423040  38.454   1.954   9.164
 1610POPC   GL123041  38.415   1.992   8.864
 1610POPC   GL223042  38.500   1.895   8.864
 1610POPC   C1A23043  38.478   2.018   8.564
 1610POPC   D2A23044  38.501   2.008   8.264
 1610POPC   C3A23045  38.459   1.964   7.964
 1610POPC   C4A23046  38.407   1.963   7.664
 1610POPC   C1B23047  38.534   1.762   8.564
 1610POPC   C2B23048  38.480   1.745   8.264
 1610POPC   C3B23049  38.514   1.717   7.964
 1610POPC   C4B23050  38.545   1.726   7.664
 1611POPC   NC323051  34.585   8.148   9.464
 1611POPC   PO423052  34.601   8.214   9.164
 1611POPC   GL123053  34.538   8.164   8.864
 1611POPC   GL223054  34.717   8.320   8.864
 1611POPC   C1A23055  34.549   8.243   8.564
 1611POPC   D2A23056  34.541   8.148   8.264
 1611POPC   C3A23057  34.545   8.218   7.964
 1611POPC   C4A23058  34.604   8.216   7.664
 1611POPC   C1B23059  34.779   8.348   8.564
 1611POPC   C2B23060  34.738   8.336   8.264
 1611POPC   C3B23061  34.737   8.389   7.964
 1611POPC   C4B23062  34.743   8.368   7.664
 1612POPC   NC323063  30.744  34.624   9.464
 1612POPC   PO423064  30.652  34.537   9.164
 1612POPC   GL123065  30.715  34.561   8.864
 1612POPC   GL223066  30.608  34.640   8.864
 1612POPC   C1A23067  30.688  34.571   8.564
 1612POPC   D2A23068  30.657  34.610   8.264
 1612POPC   C3A23069  30.689  34.532   7.964
 1612POPC   C4A23070  30.745  34.534   7.664
 1612POPC   C1B23071  30.464  34.613   8.564
 1612POPC   C2B23072  30.497  34.698   8.264
 1612POPC   C3B23073  30.416  34.610   7.964
 1612POPC   C4B23074  30.502  34.652   7.664
 1613POPC   NC323075  28.403  12.890   9.464
 1613POPC   PO423076  28.372  12.820   9.164
 1613POPC   GL123077  28.410  12.828   8.864
 1613POPC   GL223078  28.285  12.937   8.864
 1613POPC   C1A23079  28.342  12.861   8.564
 1613POPC   D2A23080  28.394  12.852   8.264
 1613POPC   C3A23081  28.417  12.852   7.964
 1613POPC   C4A23082  28.326  12.875   7.664
 1613POPC   C1B23083  28.196  13.037   8.564
 1613POPC   C2B23084  28.144  12.962   8.264
 1613POPC   C3B23085  28.169  12.984   7.964
 1613POPC   C4B23086  28.159  12.983   7.664
 1614POPC   NC323087  33.789   8.231   9.464
 1614POPC   PO423088  33.761   8.176   9.164
 1614POPC   GL123089  33.838   8.243   8.864
 1614POPC   GL223090  33.794   8.100   8.864
 1614POPC   C1A23091  33.847   8.158   8.564
 1614POPC   D2A23092  33.767   8.148   8.264
 1614POPC   C3A23093  33.816   8.208   7.964
 1614POPC   C4A23094  33.807   8.220   7.664
 1614POPC   C1B23095  33.735   8.018   8.564
 1614POPC   C2B23096  33.709   7.999   8.264
 1614POPC   C3B23097  33.693   7.968   7.964
 1614POPC   C4B23098  33.738   8.011   7.664
 1615POPC   NC323099  16.756  34.542   9.464
 1615POPC   PO423100  16.769  34.563   9.164
 1615POPC   GL123101  16.710  34.583   8.864
 1615POPC   GL223102  16.694  34.476   8.864
 1615POPC   C1A23103  16.704  34.556   8.564
 1615POPC   D2A23104  16.712  34.565   8.264
 1615POPC   C3A23105  16.770  34.556   7.964
 1615POPC   C4A23106  16.743  34.565   7.664
 1615POPC   C1B23107  16.549  34.421   8.564
 1615POPC   C2B23108  16.598  34.393   8.264
 1615POPC   C3B23109  16.594  34.407   7.964
 1615POPC   C4B23110  16.607  34.380   7.664
 1616POPC   NC323111  19.849  25.247   9.464
 1616POPC   PO423112  19.786  25.279   9.164
 1616POPC   GL123113  19.863  25.285   8.864
 1616POPC   GL223114  19.804  25.141   8.864
 1616POPC   C1A23115  19.826  25.240   8.564
 1616POPC   D2A23116  19.797  25.276   8.264
 1616POPC   C3A23117  19.816  25.314   7.964
 1616POPC   C4A23118  19.854  25.269   7.664
 1616POPC   C1B23119  19.807  25.028   8.564
 1616POPC   C2B23120  19.762  25.037   8.264
 1616POPC   C3B23121  19.816  25.052   7.964
 1616POPC   C4B23122  19.841  25.054   7.664
 1617POPC   NC323123  17.510  33.012   9.464
 1617POPC   PO423124  17.544  33.042   9.164
 1617POPC   GL123125  17.477  33.026   8.864
 1617POPC   GL223126  17.595  33.165   8.864
 1617POPC   C1A23127  17.487  33.041   8.564
 1617POPC   D2A23128  17.481  32.980   8.264
 1617POPC   C3A23129  17.547  33.027   7.964
 1617POPC   C4A23130  17.486  33.050   7.664
 1617POPC   C1B23131  17.648  33.215   8.564
 1617POPC   C2B23132  17.700  33.199   8.264
 1617POPC   C3B23133  17.686  33.212   7.964
 1617POPC   C4B23134  17.686  33.166   7.664
 1618POPC   NC323135  27.621  23.762   9.464
 1618POPC   PO423136  27.566  23.734   9.164
 1618POPC   GL123137  27.612  23.733   8.864
 1618POPC   GL223138  27.705  23.779   8.864
 1618POPC   C1A23139  27.582  23.741   8.564
 1618POPC   D2A23140  27.548  23.688   8.264
 1618POPC   C3A23141  27.569  23.739   7.964
 1618POPC   C4A23142  27.588  23.681   7.664
 1618POPC   C1B23143  27.772  23.866   8.564
 1618POPC   C2B23144  27.738  23.857   8.264
 1618POPC   C3B23145  27.766  23.928   7.964
 1618POPC   C4B23146  27.721  23.852   7.664
 1619POPC   NC323147  20.573  41.510   9.464
 1619POPC   PO423148  20.576  41.583   9.164
 1619POPC   GL123149  20.582  41.514   8.864
 1619POPC   GL223150  20.555  41.493   8.864
 1619POPC   C1A23151  20.607  41.521   8.564
 1619POPC   D2A23152  20.630  41.604   8.264
 1619POPC   C3A23153  20.565  41.524   7.964
 1619POPC   C4A23154  20.614  41.587   7.664
 1619POPC   C1B23155  20.479  41.379   8.564
 1619POPC   C2B23156  20.430  41.346   8.264
 1619POPC   C3B23157  20.443  41.420   7.964
 1619POPC   C4B23158  20.460  41.357   7.664
 1620POPC   NC323159   7.382   1.230   9.464
 1620POPC   PO423160   7.421   1.196   9.164
 1620POPC   GL123161   7.403   1.252   8.864
 1620POPC   GL223162   7.348   1.319   8.864
 1620POPC   C1A23163   7.425   1.191   8.564
 1620POPC   D2A23164   7.391   1.260   8.264
 1620POPC   C3A23165   7.380   1.253   7.964
 1620POPC   C4A23166   7.466   1.207   7.664
 1620POPC   C1B23167   7.327   1.452   8.564
 1620POPC   C2B23168   7.402   1.422   8.264
 1620POPC   C3B23169   7.361   1.450   7.964
 1620POPC   C4B23170   7.412   1.449   7.664
 1621POPC   NC323171  15.178  39.959   9.464
 1621POPC   PO423172  15.139  40.054   9.164
 1621POPC   GL123173  15.162  39.994   8.864
 1621POPC   GL223174  15.291  39.883   8.864
 1621POPC   C1A23175  15.217  40.035   8.564
 1621POPC   D2A23176  15.149  39.963   8.264
 1621POPC   C3A23177  15.227  40.018   7.964
 1621POPC   C4A23178  15.132  39.990   7.664
 1621POPC   C1B23179  15.287  39.830   8.564
 1621POPC   C2B23180  15.349  39.838   8.264
 1621POPC   C3B23181  15.295  39.790   7.964
 1621POPC   C4B23182  15.313  39.796   7.664
 1622POPC   NC323183   6.662  41.517   9.464
 1622POPC   PO423184   6.663  41.566   9.164
 1622POPC   GL123185   6.612  41.543   8.864
 1622POPC   GL223186   6.641  41.700   8.864
 1622POPC   C1A23187   6.675  41.541   8.564
 1622POPC   D2A23188   6.614  41.560   8.264
 1622POPC   C3A23189   6.663  41.596   7.964
 1622POPC   C4A23190   6.689  41.585   7.664
 1622POPC   C1B23191   6.587  41.768   8.564
 1622POPC   C2B23192   6.580  41.834   8.264
 1622POPC   C3B23193   6.607  41.755   7.964
 1622POPC   C4B23194   6.557  41.835   7.664
 1623POPC   NC323195  26.809  31.498   9.464
 1623POPC   PO423196  26.794  31.452   9.164
 1623POPC   GL123197  26.862  31.473   8.864
 1623POPC   GL223198  26.740  31.385   8.864
 1623POPC   C1A23199  26.788  31.471   8.564
 1623POPC   D2A23200  26.853  31.447   8.264
 1623POPC   C3A23201  26.854  31.494   7.964
 1623POPC   C4A23202  26.849  31.442   7.664
 1623POPC   C1B23203  26.554  31.388   8.564
 1623POPC   C2B23204  26.624  31.332   8.264
 1623POPC   C3B23205  26.571  31.399   7.964
 1623POPC   C4B23206  26.628  31.362   7.664
 1624POPC   NC323207  37.686  27.622   9.464
 1624POPC   PO423208  37.708  27.602   9.164
 1624POPC   GL123209  37.714  27.553   8.864
 1624POPC   GL223210  37.765  27.685   8.864
 1624POPC   C1A23211  37.708  27.587   8.564
 1624POPC   D2A23212  37.638  27.555   8.264
 1624POPC   C3A23213  37.657  27.557   7.964
 1624POPC   C4A23214  37.646  27.571   7.664
 1624POPC   C1B23215  37.851  27.725   8.564
 1624POPC   C2B23216  37.889  27.735   8.264
 1624POPC   C3B23217  37.912  27.757   7.964
 1624POPC   C4B23218  37.861  27.700   7.664
 1625POPC   NC323219   6.631   0.400   9.464
 1625POPC   PO423220   6.672   0.403   9.164
 1625POPC   GL123221   6.691   0.421   8.864
 1625POPC   GL223222   6.569   0.373   8.864
 1625POPC   C1A23223   6.606   0.404   8.564
 1625POPC   D2A23224   6.624   0.446   8.264
 1625POPC   C3A23225   6.609   0.414   7.964
 1625POPC   C4A23226   6.687   0.424   7.664
 1625POPC   C1B23227   6.413   0.434   8.564
 1625POPC   C2B23228   6.384   0.373   8.264
 1625POPC   C3B23229   6.402   0.354   7.964
 1625POPC   C4B23230   6.413   0.403   7.664
 1626POPC   NC323231  40.792  30.671   9.464
 1626POPC   PO423232  40.798  30.714   9.164
 1626POPC   GL123233  40.779  30.728   8.864
 1626POPC   GL223234  40.891  30.715   8.864
 1626POPC   C1A23235  40.828  30.742   8.564
 1626POPC   D2A23236  40.760  30.662   8.264
 1626POPC   C3A23237  40.791  30.665   7.964
 1626POPC   C4A23238  40.777  30.736   7.664
 1626POPC   C1B23239  41.069  30.685   8.564
 1626POPC   C2B23240  41.014  30.721   8.264
 1626POPC   C3B23241  41.035  30.638   7.964
 1626POPC   C4B23242  41.027  30.689   7.664
 1627POPC   NC323243  14.421  41.555   9.464
 1627POPC   PO423244  14.396  41.523   9.164
 1627POPC   GL123245  14.393  41.582   8.864
 1627POPC   GL223246  14.243  41.514   8.864
 1627POPC   C1A23247  14.362  41.587   8.564
 1627POPC   D2A23248  14.367  41.516   8.264
 1627POPC   C3A23249  14.427  41.566   7.964
 1627POPC   C4A23250  14.427  41.588   7.664
 1627POPC   C1B23251  14.158  41.500   8.564
 1627POPC   C2B23252  14.138  41.481   8.264
 1627POPC   C3B23253  14.204  41.485   7.964
 1627POPC   C4B23254  14.141  41.530   7.664
 1628POPC   NC323255  40.766  27.610   9.464
 1628POPC   PO423256  40.796  27.562   9.164
 1628POPC   GL123257  40.783  27.602   8.864
 1628POPC   GL223258  40.644  27.591   8.864
 1628POPC   C1A23259  40.777  27.600   8.564
 1628POPC   D2A23260  40.735  27.619   8.264
 1628POPC   C3A23261  40.748  27.549   7.964
 1628POPC   C4A23262  40.747  27.612   7.664
 1628POPC   C1B23263  40.555  27.585   8.564
 1628POPC   C2B23264  40.488  27.592   8.264
 1628POPC   C3B23265  40.496  27.632   7.964
 1628POPC   C4B23266  40.491  27.590   7.664
 1629POPC   NC323267  29.877  31.432   9.464
 1629POPC   PO423268  29.910  31.468   9.164
 1629POPC   GL123269  29.930  31.429   8.864
 1629POPC   GL223270  29.823  31.534   8.864
 1629POPC   C1A23271  29.931  31.447   8.564
 1629POPC   D2A23272  29.884  31.515   8.264
 1629POPC   C3A23273  29.967  31.464   7.964
 1629POPC   C4A23274  29.950  31.473   7.664
 1629POPC   C1B23275  29.687  31.610   8.564
 1629POPC   C2B23276  29.673  31.573   8.264
 1629POPC   C3B23277  29.709  31.624   7.964
 1629POPC   C4B23278  29.698  31.663   7.664
 1630POPC   NC323279  42.353   8.971   9.464
 1630POPC   PO423280  42.292   8.935   9.164
 1630POPC   GL123281  42.325   8.928   8.864
 1630POPC   GL223282  42.435   9.099   8.864
 1630POPC   C1A23283  42.298   8.955   8.564
 1630POPC   D2A23284  42.328   8.969   8.264
 1630POPC   C3A23285  42.294   8.995   7.964
 1630POPC   C4A23286  42.301   8.949   7.664
 1630POPC   C1B23287  42.492   9.135   8.564
 1630POPC   C2B23288  42.503   9.176   8.264
 1630POPC   C3B23289  42.476   9.166   7.964
 1630POPC   C4B23290  42.519   9.200   7.664
 1631POPC   NC323291  15.186  26.829   9.464
 1631POPC   PO423292  15.138  26.857   9.164
 1631POPC   GL123293  15.132  26.836   8.864
 1631POPC   GL223294  15.277  26.751   8.864
 1631POPC   C1A23295  15.186  26.861   8.564
 1631POPC   D2A23296  15.137  26.822   8.264
 1631POPC   C3A23297  15.205  26.824   7.964
 1631POPC   C4A23298  15.209  26.811   7.664
 1631POPC   C1B23299  15.386  26.664   8.564
 1631POPC   C2B23300  15.349  26.711   8.264
 1631POPC   C3B23301  15.373  26.637   7.964
 1631POPC   C4B23302  15.404  26.683   7.664
 1632POPC   NC323303   1.183   0.470   9.464
 1632POPC   PO423304   1.234   0.462   9.164
 1632POPC   GL123305   1.258   0.418   8.864
 1632POPC   GL223306   1.298   0.510   8.864
 1632POPC   C1A23307   1.172   0.418   8.564
 1632POPC   D2A23308   1.217   0.417   8.264
 1632POPC   C3A23309   1.182   0.446   7.964
 1632POPC   C4A23310   1.206   0.409   7.664
 1632POPC   C1B23311   1.392   0.671   8.564
 1632POPC   C2B23312   1.348   0.640   8.264
 1632POPC   C3B23313   1.360   0.647   7.964
 1632POPC   C4B23314   1.361   0.617   7.664
 1633POPC   NC323315  28.333  37.712   9.464
 1633POPC   PO423316  28.384  37.641   9.164
 1633POPC   GL123317  28.416  37.643   8.864
 1633POPC   GL223318  28.510  37.755   8.864
 1633POPC   C1A23319  28.403  37.637   8.564
 1633POPC   D2A23320  28.356  37.717   8.264
 1633POPC   C3A23321  28.379  37.671   7.964
 1633POPC   C4A23322  28.343  37.702   7.664
 1633POPC   C1B23323  28.628  37.842   8.564
 1633POPC   C2B23324  28.621  37.769   8.264
 1633POPC   C3B23325  28.608  37.842   7.964
 1633POPC   C4B23326  28.619  37.795   7.664
 1634POPC   NC323327  39.234  28.394   9.464
 1634POPC   PO423328  39.268  28.357   9.164
 1634POPC   GL123329  39.240  28.418   8.864
 1634POPC   GL223330  39.165  28.318   8.864
 1634POPC   C1A23331  39.280  28.365   8.564
 1634POPC   D2A23332  39.228  28.343   8.264
 1634POPC   C3A23333  39.200  28.378   7.964
 1634POPC   C4A23334  39.204  28.410   7.664
 1634POPC   C1B23335  39.022  28.221   8.564
 1634POPC   C2B23336  39.040  28.233   8.264
 1634POPC   C3B23337  39.064  28.194   7.964
 1634POPC   C4B23338  38.975  28.229   7.664
 1635POPC   NC323339   5.097  14.424   9.464
 1635POPC   PO423340   5.137  14.371   9.164
 1635POPC   GL123341   5.119  14.361   8.864
 1635POPC   GL223342   4.975  14.358   8.864
 1635POPC   C1A23343   5.096  14.387   8.564
 1635POPC   D2A23344   5.069  14.430   8.264
 1635POPC   C3A23345   5.065  14.399   7.964
 1635POPC   C4A23346   5.073  14.405   7.664
 1635POPC   C1B23347   4.896  14.289   8.564
 1635POPC   C2B23348   4.865  14.210   8.264
 1635POPC   C3B23349   4.901  14.293   7.964
 1635POPC   C4B23350   4.889  14.225   7.664
 1636POPC   NC323351  29.191  23.694   9.464
 1636POPC   PO423352  29.193  23.667   9.164
 1636POPC   GL123353  29.123  23.744   8.864
 1636POPC   GL223354  28.979  23.703   8.864
 1636POPC   C1A23355  29.179  23.693   8.564
 1636POPC   D2A23356  29.179  23.704   8.264
 1636POPC   C3A23357  29.174  23.760   7.964
 1636POPC   C4A23358  29.103  23.761   7.664
 1636POPC   C1B23359  28.858  23.627   8.564
 1636POPC   C2B23360  28.878  23.684   8.264
 1636POPC   C3B23361  28.900  23.592   7.964
 1636POPC   C4B23362  28.901  23.671   7.664
 1637POPC   NC323363  35.375  39.240   9.464
 1637POPC   PO423364  35.355  39.187   9.164
 1637POPC   GL123365  35.345  39.261   8.864
 1637POPC   GL223366  35.297  39.379   8.864
 1637POPC   C1A23367  35.325  39.212   8.564
 1637POPC   D2A23368  35.372  39.239   8.264
 1637POPC   C3A23369  35.332  39.181   7.964
 1637POPC   C4A23370  35.314  39.231   7.664
 1637POPC   C1B23371  35.234  39.451   8.564
 1637POPC   C2B23372  35.240  39.462   8.264
 1637POPC   C3B23373  35.286  39.467   7.964
 1637POPC   C4B23374  35.260  39.434   7.664
 1638POPC   NC323375  14.422  36.884   9.464
 1638POPC   PO423376  14.406  36.886   9.164
 1638POPC   GL123377  14.354  36.875   8.864
 1638POPC   GL223378  14.478  36.842   8.864
 1638POPC   C1A23379  14.430  36.926   8.564
 1638POPC   D2A23380  14.445  36.919   8.264
 1638POPC   C3A23381  14.403  36.929   7.964
 1638POPC   C4A23382  14.421  36.930   7.664
 1638POPC   C1B23383  14.570  36.786   8.564
 1638POPC   C2B23384  14.631  36.746   8.264
 1638POPC   C3B23385  14.576  36.758   7.964
 1638POPC   C4B23386  14.603  36.766   7.664
 1639POPC   NC323387  25.256  23.702   9.464
 1639POPC   PO423388  25.232  23.701   9.164
 1639POPC   GL123389  25.296  23.688   8.864
 1639POPC   GL223390  25.280  23.821   8.864
 1639POPC   C1A23391  25.289  23.706   8.564
 1639POPC   D2A23392  25.271  23.731   8.264
 1639POPC   C3A23393  25.292  23.741   7.964
 1639POPC   C4A23394  25.289  23.680   7.664
 1639POPC   C1B23395  25.332  23.972   8.564
 1639POPC   C2B23396  25.298  23.952   8.264
 1639POPC   C3B23397  25.361  23.945   7.964
 1639POPC   C4B23398  25.328  23.921   7.664
 1640POPC   NC323399  23.741  29.158   9.464
 1640POPC   PO423400  23.691  29.159   9.164
 1640POPC   GL123401  23.672  29.122   8.864
 1640POPC   GL223402  23.702  29.065   8.864
 1640POPC   C1A23403  23.751  29.166   8.564
 1640POPC   D2A23404  23.737  29.116   8.264
 1640POPC   C3A23405  23.737  29.161   7.964
 1640POPC   C4A23406  23.740  29.160   7.664
 1640POPC   C1B23407  23.579  28.878   8.564
 1640POPC   C2B23408  23.659  28.865   8.264
 1640POPC   C3B23409  23.582  28.901   7.964
 1640POPC   C4B23410  23.630  28.926   7.664
 1641POPC   NC323411  19.843  26.074   9.464
 1641POPC   PO423412  19.872  26.017   9.164
 1641POPC   GL123413  19.786  26.075   8.864
 1641POPC   GL223414  19.941  26.003   8.864
 1641POPC   C1A23415  19.785  26.085   8.564
 1641POPC   D2A23416  19.847  25.998   8.264
 1641POPC   C3A23417  19.848  26.082   7.964
 1641POPC   C4A23418  19.835  26.077   7.664
 1641POPC   C1B23419  20.050  25.953   8.564
 1641POPC   C2B23420  20.041  26.037   8.264
 1641POPC   C3B23421  20.125  25.986   7.964
 1641POPC   C4B23422  20.075  26.028   7.664
 1642POPC   NC323423  21.402  33.795   9.464
 1642POPC   PO423424  21.392  33.818   9.164
 1642POPC   GL123425  21.413  33.810   8.864
 1642POPC   GL223426  21.480  33.914   8.864
 1642POPC   C1A23427  21.337  33.820   8.564
 1642POPC   D2A23428  21.409  33.831   8.264
 1642POPC   C3A23429  21.405  33.771   7.964
 1642POPC   C4A23430  21.352  33.823   7.664
 1642POPC   C1B23431  21.583  33.974   8.564
 1642POPC   C2B23432  21.586  33.881   8.264
 1642POPC   C3B23433  21.605  33.936   7.964
 1642POPC   C4B23434  21.556  33.885   7.664
 1643POPC   NC323435  17.466  16.683   9.464
 1643POPC   PO423436  17.540  16.697   9.164
 1643POPC   GL123437  17.481  16.730   8.864
 1643POPC   GL223438  17.402  16.614   8.864
 1643POPC   C1A23439  17.466  16.693   8.564
 1643POPC   D2A23440  17.556  16.727   8.264
 1643POPC   C3A23441  17.497  16.722   7.964
 1643POPC   C4A23442  17.554  16.776   7.664
 1643POPC   C1B23443  17.341  16.550   8.564
 1643POPC   C2B23444  17.285  16.593   8.264
 1643POPC   C3B23445  17.323  16.577   7.964
 1643POPC   C4B23446  17.265  16.572   7.664
 1644POPC   NC323447  26.836  32.985   9.464
 1644POPC   PO423448  26.851  33.036   9.164
 1644POPC   GL123449  26.846  33.028   8.864
 1644POPC   GL223450  26.878  33.159   8.864
 1644POPC   C1A23451  26.841  33.049   8.564
 1644POPC   D2A23452  26.817  33.025   8.264
 1644POPC   C3A23453  26.819  33.064   7.964
 1644POPC   C4A23454  26.825  33.063   7.664
 1644POPC   C1B23455  26.940  33.263   8.564
 1644POPC   C2B23456  26.902  33.282   8.264
 1644POPC   C3B23457  26.878  33.201   7.964
 1644POPC   C4B23458  26.959  33.205   7.664
 1645POPC   NC323459  43.128  43.094   9.464
 1645POPC   PO423460  43.066  43.129   9.164
 1645POPC   GL123461  43.104  43.124   8.864
 1645POPC   GL223462  43.276  43.150   8.864
 1645POPC   C1A23463  43.120  43.154   8.564
 1645POPC   D2A23464  43.082  43.142   8.264
 1645POPC   C3A23465  43.098  43.140   7.964
 1645POPC   C4A23466  43.061  43.106   7.664
 1645POPC   C1B23467  43.359  43.119   8.564
 1645POPC   C2B23468  43.387  43.074   8.264
 1645POPC   C3B23469  43.398  43.160   7.964
 1645POPC   C4B23470  43.333  43.121   7.664
 1646POPC   NC323471  25.281  24.473   9.464
 1646POPC   PO423472  25.277  24.540   9.164
 1646POPC   GL123473  25.285  24.489   8.864
 1646POPC   GL223474  25.409  24.567   8.864
 1646POPC   C1A23475  25.242  24.494   8.564
 1646POPC   D2A23476  25.218  24.454   8.264
 1646POPC   C3A23477  25.247  24.520   7.964
 1646POPC   C4A23478  25.299  24.440   7.664
 1646POPC   C1B23479  25.510  24.652   8.564
 1646POPC   C2B23480  25.445  24.681   8.264
 1646POPC   C3B23481  25.502  24.682   7.964
 1646POPC   C4B23482  25.432  24.602   7.664
 1647POPC   NC323483  10.548  19.023   9.464
 1647POPC   PO423484  10.521  19.017   9.164
 1647POPC   GL123485  10.517  19.011   8.864
 1647POPC   GL223486  10.471  19.138   8.864
 1647POPC   C1A23487  10.507  19.086   8.564
 1647POPC   D2A23488  10.489  19.014   8.264
 1647POPC   C3A23489  10.515  19.059   7.964
 1647POPC   C4A23490  10.537  19.065   7.664
 1647POPC   C1B23491  10.329  19.175   8.564
 1647POPC   C2B23492  10.348  19.213   8.264
 1647POPC   C3B23493  10.377  19.193   7.964
 1647POPC   C4B23494  10.340  19.256   7.664
 1648POPC   NC323495  44.683  42.380   9.464
 1648POPC   PO423496  44.698  42.288   9.164
 1648POPC   GL123497  44.649  42.300   8.864
 1648POPC   GL223498  44.807  42.399   8.864
 1648POPC   C1A23499  44.616  42.350   8.564
 1648POPC   D2A23500  44.697  42.331   8.264
 1648POPC   C3A23501  44.704  42.372   7.964
 1648POPC   C4A23502  44.663  42.328   7.664
 1648POPC   C1B23503  44.935  42.397   8.564
 1648POPC   C2B23504  44.955  42.334   8.264
 1648POPC   C3B23505  44.869  42.400   7.964
 1648POPC   C4B23506  44.897  42.371   7.664
 1649POPC   NC323507  34.584  14.440   9.464
 1649POPC   PO423508  34.569  14.377   9.164
 1649POPC   GL123509  34.551  14.382   8.864
 1649POPC   GL223510  34.465  14.424   8.864
 1649POPC   C1A23511  34.617  14.423   8.564
 1649POPC   D2A23512  34.580  14.438   8.264
 1649POPC   C3A23513  34.547  14.410   7.964
 1649POPC   C4A23514  34.571  14.356   7.664
 1649POPC   C1B23515  34.372  14.399   8.564
 1649POPC   C2B23516  34.289  14.445   8.264
 1649POPC   C3B23517  34.308  14.434   7.964
 1649POPC   C4B23518  34.304  14.445   7.664
 1650POPC   NC323519  31.521  40.756   9.464
 1650POPC   PO423520  31.425  40.758   9.164
 1650POPC   GL123521  31.426  40.743   8.864
 1650POPC   GL223522  31.566  40.629   8.864
 1650POPC   C1A23523  31.428  40.745   8.564
 1650POPC   D2A23524  31.509  40.770   8.264
 1650POPC   C3A23525  31.454  40.796   7.964
 1650POPC   C4A23526  31.438  40.814   7.664
 1650POPC   C1B23527  31.599  40.514   8.564
 1650POPC   C2B23528  31.568  40.513   8.264
 1650POPC   C3B23529  31.604  40.536   7.964
 1650POPC   C4B23530  31.604  40.515   7.664
 1651POPC   NC323531  18.243   1.957   9.464
 1651POPC   PO423532  18.330   2.038   9.164
 1651POPC   GL123533  18.280   1.997   8.864
 1651POPC   GL223534  18.345   1.938   8.864
 1651POPC   C1A23535  18.240   1.946   8.564
 1651POPC   D2A23536  18.326   1.941   8.264
 1651POPC   C3A23537  18.247   2.011   7.964
 1651POPC   C4A23538  18.247   2.032   7.664
 1651POPC   C1B23539  18.412   1.819   8.564
 1651POPC   C2B23540  18.442   1.839   8.264
 1651POPC   C3B23541  18.419   1.847   7.964
 1651POPC   C4B23542  18.448   1.770   7.664
 1652POPC   NC323543  16.774  19.878   9.464
 1652POPC   PO423544  16.699  19.787   9.164
 1652POPC   GL123545  16.721  19.785   8.864
 1652POPC   GL223546  16.600  19.763   8.864
 1652POPC   C1A23547  16.747  19.789   8.564
 1652POPC   D2A23548  16.713  19.884   8.264
 1652POPC   C3A23549  16.776  19.842   7.964
 1652POPC   C4A23550  16.737  19.809   7.664
 1652POPC   C1B23551  16.466  19.720   8.564
 1652POPC   C2B23552  16.515  19.724   8.264
 1652POPC   C3B23553  16.558  19.735   7.964
 1652POPC   C4B23554  16.559  19.738   7.664
 1653POPC   NC323555  43.105  14.374   9.464
 1653POPC   PO423556  43.074  14.382   9.164
 1653POPC   GL123557  43.133  14.412   8.864
 1653POPC   GL223558  43.177  14.534   8.864
 1653POPC   C1A23559  43.076  14.441   8.564
 1653POPC   D2A23560  43.155  14.395   8.264
 1653POPC   C3A23561  43.119  14.409   7.964
 1653POPC   C4A23562  43.072  14.443   7.664
 1653POPC   C1B23563  43.250  14.648   8.564
 1653POPC   C2B23564  43.290  14.635   8.264
 1653POPC   C3B23565  43.304  14.557   7.964
 1653POPC   C4B23566  43.212  14.593   7.664
 1654POPC   NC323567  30.682   2.743   9.464
 1654POPC   PO423568  30.655   2.742   9.164
 1654POPC   GL123569  30.687   2.737   8.864
 1654POPC   GL223570  30.753   2.705   8.864
 1654POPC   C1A23571  30.657   2.748   8.564
 1654POPC   D2A23572  30.689   2.779   8.264
 1654POPC   C3A23573  30.715   2.740   7.964
 1654POPC   C4A23574  30.664   2.806   7.664
 1654POPC   C1B23575  30.908   2.600   8.564
 1654POPC   C2B23576  30.943   2.612   8.264
 1654POPC   C3B23577  30.863   2.661   7.964
 1654POPC   C4B23578  30.939   2.620   7.664
 1655POPC   NC323579  43.083  39.251   9.464
 1655POPC   PO423580  43.091  39.218   9.164
 1655POPC   GL123581  43.106  39.222   8.864
 1655POPC   GL223582  43.138  39.330   8.864
 1655POPC   C1A23583  43.094  39.198   8.564
 1655POPC   D2A23584  43.147  39.255   8.264
 1655POPC   C3A23585  43.082  39.225   7.964
 1655POPC   C4A23586  43.065  39.210   7.664
 1655POPC   C1B23587  43.176  39.505   8.564
 1655POPC   C2B23588  43.164  39.526   8.264
 1655POPC   C3B23589  43.147  39.449   7.964
 1655POPC   C4B23590  43.143  39.461   7.664
 1656POPC   NC323591  32.982  22.945   9.464
 1656POPC   PO423592  33.028  22.891   9.164
 1656POPC   GL123593  33.011  22.910   8.864
 1656POPC   GL223594  32.872  23.039   8.864
 1656POPC   C1A23595  33.043  22.943   8.564
 1656POPC   D2A23596  33.018  22.953   8.264
 1656POPC   C3A23597  32.985  22.931   7.964
 1656POPC   C4A23598  33.057  22.909   7.664
 1656POPC   C1B23599  32.795  23.086   8.564
 1656POPC   C2B23600  32.802  23.018   8.264
 1656POPC   C3B23601  32.821  23.084   7.964
 1656POPC   C4B23602  32.821  23.104   7.664
 1657POPC   NC323603  24.441  31.509   9.464
 1657POPC   PO423604  24.482  31.453   9.164
 1657POPC   GL123605  24.451  31.510   8.864
 1657POPC   GL223606  24.429  31.371   8.864
 1657POPC   C1A23607  24.522  31.505   8.564
 1657POPC   D2A23608  24.528  31.490   8.264
 1657POPC   C3A23609  24.528  31.431   7.964
 1657POPC   C4A23610  24.510  31.427   7.664
 1657POPC   C1B23611  24.442  31.207   8.564
 1657POPC   C2B23612  24.499  31.185   8.264
 1657POPC   C3B23613  24.484  31.261   7.964
 1657POPC   C4B23614  24.472  31.213   7.664
 1658POPC   NC323615  29.928  12.125   9.464
 1658POPC   PO423616  29.898  12.045   9.164
 1658POPC   GL123617  29.923  12.072   8.864
 1658POPC   GL223618  29.822  12.213   8.864
 1658POPC   C1A23619  29.911  12.108   8.564
 1658POPC   D2A23620  29.968  12.077   8.264
 1658POPC   C3A23621  29.959  12.029   7.964
 1658POPC   C4A23622  29.907  12.073   7.664
 1658POPC   C1B23623  29.763  12.317   8.564
 1658POPC   C2B23624  29.772  12.330   8.264
 1658POPC   C3B23625  29.754  12.290   7.964
 1658POPC   C4B23626  29.788  12.293   7.664
 1659POPC   NC323627  33.849  11.293   9.464
 1659POPC   PO423628  33.830  11.315   9.164
 1659POPC   GL123629  33.759  11.302   8.864
 1659POPC   GL223630  33.646  11.357   8.864
 1659POPC   C1A23631  33.811  11.296   8.564
 1659POPC   D2A23632  33.811  11.274   8.264
 1659POPC   C3A23633  33.832  11.277   7.964
 1659POPC   C4A23634  33.790  11.298   7.664
 1659POPC   C1B23635  33.544  11.328   8.564
 1659POPC   C2B23636  33.571  11.311   8.264
 1659POPC   C3B23637  33.577  11.324   7.964
 1659POPC   C4B23638  33.580  11.291   7.664
 1660POPC   NC323639   2.751  24.515   9.464
 1660POPC   PO423640   2.738  24.470   9.164
 1660POPC   GL123641   2.764  24.524   8.864
 1660POPC   GL223642   2.673  24.608   8.864
 1660POPC   C1A23643   2.796  24.452   8.564
 1660POPC   D2A23644   2.813  24.450   8.264
 1660POPC   C3A23645   2.783  24.494   7.964
 1660POPC   C4A23646   2.729  24.537   7.664
 1660POPC   C1B23647   2.581  24.666   8.564
 1660POPC   C2B23648   2.547  24.653   8.264
 1660POPC   C3B23649   2.529  24.658   7.964
 1660POPC   C4B23650   2.593  24.643   7.664
 1661POPC   NC323651  27.613   0.482   9.464
 1661POPC   PO423652  27.600   0.424   9.164
 1661POPC   GL123653  27.560   0.486   8.864
 1661POPC   GL223654  27.444   0.428   8.864
 1661POPC   C1A23655  27.565   0.471   8.564
 1661POPC   D2A23656  27.611   0.391   8.264
 1661POPC   C3A23657  27.573   0.450   7.964
 1661POPC   C4A23658  27.625   0.444   7.664
 1661POPC   C1B23659  27.380   0.503   8.564
 1661POPC   C2B23660  27.337   0.465   8.264
 1661POPC   C3B23661  27.307   0.464   7.964
 1661POPC   C4B23662  27.380   0.519   7.664
 1662POPC   NC323663  43.093  44.640   9.464
 1662POPC   PO423664  43.065  44.646   9.164
 1662POPC   GL123665  43.091  44.676   8.864
 1662POPC   GL223666  43.201  44.810   8.864
 1662POPC   C1A23667  43.127  44.654   8.564
 1662POPC   D2A23668  43.105  44.684   8.264
 1662POPC   C3A23669  43.095  44.624   7.964
 1662POPC   C4A23670  43.120  44.624   7.664
 1662POPC   C1B23671  43.179  44.881   8.564
 1662POPC   C2B23672  43.187  44.901   8.264
 1662POPC   C3B23673  43.246  44.855   7.964
 1662POPC   C4B23674  43.226  44.848   7.664
 1663POPC   NC323675  29.932   0.454   9.464
 1663POPC   PO423676  29.873   0.391   9.164
 1663POPC   GL123677  29.902   0.388   8.864
 1663POPC   GL223678  30.039   0.376   8.864
 1663POPC   C1A23679  29.888   0.485   8.564
 1663POPC   D2A23680  29.877   0.415   8.264
 1663POPC   C3A23681  29.871   0.413   7.964
 1663POPC   C4A23682  29.967   0.394   7.664
 1663POPC   C1B23683  30.030   0.281   8.564
 1663POPC   C2B23684  30.062   0.236   8.264
 1663POPC   C3B23685  30.069   0.233   7.964
 1663POPC   C4B23686  30.089   0.278   7.664
 1664POPC   NC323687  40.798  43.858   9.464
 1664POPC   PO423688  40.830  43.903   9.164
 1664POPC   GL123689  40.776  43.931   8.864
 1664POPC   GL223690  40.937  43.914   8.864
 1664POPC   C1A23691  40.804  43.888   8.564
 1664POPC   D2A23692  40.817  43.870   8.264
 1664POPC   C3A23693  40.789  43.912   7.964
 1664POPC   C4A23694  40.802  43.878   7.664
 1664POPC   C1B23695  41.008  43.856   8.564
 1664POPC   C2B23696  41.018  43.880   8.264
 1664POPC   C3B23697  41.061  43.814   7.964
 1664POPC   C4B23698  40.999  43.852   7.664
 1665POPC   NC323699   7.373  38.503   9.464
 1665POPC   PO423700   7.387  38.412   9.164
 1665POPC   GL123701   7.421  38.473   8.864
 1665POPC   GL223702   7.317  38.372   8.864
 1665POPC   C1A23703   7.421  38.432   8.564
 1665POPC   D2A23704   7.464  38.416   8.264
 1665POPC   C3A23705   7.427  38.474   7.964
 1665POPC   C4A23706   7.448  38.422   7.664
 1665POPC   C1B23707   7.313  38.234   8.564
 1665POPC   C2B23708   7.258  38.191   8.264
 1665POPC   C3B23709   7.252  38.239   7.964
 1665POPC   C4B23710   7.262  38.271   7.664
 1666POPC   NC323711  12.093  39.978   9.464
 1666POPC   PO423712  12.088  40.008   9.164
 1666POPC   GL123713  12.085  39.958   8.864
 1666POPC   GL223714  12.065  40.158   8.864
 1666POPC   C1A23715  12.030  40.032   8.564
 1666POPC   D2A23716  12.111  40.001   8.264
 1666POPC   C3A23717  12.120  40.047   7.964
 1666POPC   C4A23718  12.043  39.981   7.664
 1666POPC   C1B23719  11.995  40.220   8.564
 1666POPC   C2B23720  11.967  40.231   8.264
 1666POPC   C3B23721  11.992  40.242   7.964
 1666POPC   C4B23722  12.018  40.219   7.664
 1667POPC   NC323723   6.676  21.353   9.464
 1667POPC   PO423724   6.606  21.337   9.164
 1667POPC   GL123725   6.659  21.391   8.864
 1667POPC   GL223726   6.579  21.314   8.864
 1667POPC   C1A23727   6.683  21.383   8.564
 1667POPC   D2A23728   6.662  21.370   8.264
 1667POPC   C3A23729   6.616  21.428   7.964
 1667POPC   C4A23730   6.606  21.413   7.664
 1667POPC   C1B23731   6.535  21.199   8.564
 1667POPC   C2B23732   6.498  21.168   8.264
 1667POPC   C3B23733   6.500  21.195   7.964
 1667POPC   C4B23734   6.533  21.137   7.664
 1668POPC   NC323735  33.771  37.688   9.464
 1668POPC   PO423736  33.821  37.698   9.164
 1668POPC   GL123737  33.770  37.677   8.864
 1668POPC   GL223738  33.942  37.692   8.864
 1668POPC   C1A23739  33.837  37.674   8.564
 1668POPC   D2A23740  33.770  37.727   8.264
 1668POPC   C3A23741  33.825  37.710   7.964
 1668POPC   C4A23742  33.848  37.707   7.664
 1668POPC   C1B23743  34.067  37.707   8.564
 1668POPC   C2B23744  34.007  37.677   8.264
 1668POPC   C3B23745  34.049  37.684   7.964
 1668POPC   C4B23746  34.004  37.700   7.664
 1669POPC   NC323747   5.823  17.479   9.464
 1669POPC   PO423748   5.874  17.467   9.164
 1669POPC   GL123749   5.911  17.483   8.864
 1669POPC   GL223750   5.778  17.628   8.864
 1669POPC   C1A23751   5.885  17.551   8.564
 1669POPC   D2A23752   5.897  17.501   8.264
 1669POPC   C3A23753   5.886  17.462   7.964
 1669POPC   C4A23754   5.834  17.523   7.664
 1669POPC   C1B23755   5.735  17.715   8.564
 1669POPC   C2B23756   5.765  17.686   8.264
 1669POPC   C3B23757   5.742  17.747   7.964
 1669POPC   C4B23758   5.728  17.708   7.664
 1670POPC   NC323759  11.309  18.251   9.464
 1670POPC   PO423760  11.278  18.294   9.164
 1670POPC   GL123761  11.320  18.329   8.864
 1670POPC   GL223762  11.341  18.185   8.864
 1670POPC   C1A23763  11.258  18.254   8.564
 1670POPC   D2A23764  11.332  18.305   8.264
 1670POPC   C3A23765  11.255  18.315   7.964
 1670POPC   C4A23766  11.331  18.308   7.664
 1670POPC   C1B23767  11.461  18.104   8.564
 1670POPC   C2B23768  11.444  18.092   8.264
 1670POPC   C3B23769  11.499  18.120   7.964
 1670POPC   C4B23770  11.440  18.062   7.664
 1671POPC   NC323771   0.451  10.477   9.464
 1671POPC   PO423772   0.452  10.508   9.164
 1671POPC   GL123773   0.481  10.491   8.864
 1671POPC   GL223774   0.299  10.592   8.864
 1671POPC   C1A23775   0.443  10.553   8.564
 1671POPC   D2A23776   0.430  10.516   8.264
 1671POPC   C3A23777   0.409  10.511   7.964
 1671POPC   C4A23778   0.410  10.476   7.664
 1671POPC   C1B23779   0.231  10.728   8.564
 1671POPC   C2B23780   0.302  10.706   8.264
 1671POPC   C3B23781   0.296  10.669   7.964
 1671POPC   C4B23782   0.267  10.738   7.664
 1672POPC   NC323783  16.771   8.205   9.464
 1672POPC   PO423784  16.706   8.221   9.164
 1672POPC   GL123785  16.700   8.178   8.864
 1672POPC   GL223786  16.603   8.155   8.864
 1672POPC   C1A23787  16.727   8.197   8.564
 1672POPC   D2A23788  16.693   8.242   8.264
 1672POPC   C3A23789  16.685   8.163   7.964
 1672POPC   C4A23790  16.737   8.195   7.664
 1672POPC   C1B23791  16.500   8.114   8.564
 1672POPC   C2B23792  16.533   8.114   8.264
 1672POPC   C3B23793  16.533   8.132   7.964
 1672POPC   C4B23794  16.469   8.121   7.664
 1673POPC   NC323795   1.253  29.183   9.464
 1673POPC   PO423796   1.226  29.115   9.164
 1673POPC   GL123797   1.171  29.160   8.864
 1673POPC   GL223798   1.272  29.088   8.864
 1673POPC   C1A23799   1.174  29.148   8.564
 1673POPC   D2A23800   1.174  29.107   8.264
 1673POPC   C3A23801   1.200  29.105   7.964
 1673POPC   C4A23802   1.244  29.111   7.664
 1673POPC   C1B23803   1.376  28.941   8.564
 1673POPC   C2B23804   1.432  28.927   8.264
 1673POPC   C3B23805   1.418  28.973   7.964
 1673POPC   C4B23806   1.441  28.988   7.664
 1674POPC   NC323807  21.342  26.051   9.464
 1674POPC   PO423808  21.342  26.022   9.164
 1674POPC   GL123809  21.435  26.019   8.864
 1674POPC   GL223810  21.514  26.100   8.864
 1674POPC   C1A23811  21.355  26.086   8.564
 1674POPC   D2A23812  21.389  26.079   8.264
 1674POPC   C3A23813  21.351  26.025   7.964
 1674POPC   C4A23814  21.377  25.996   7.664
 1674POPC   C1B23815  21.621  26.141   8.564
 1674POPC   C2B23816  21.656  26.154   8.264
 1674POPC   C3B23817  21.576  26.154   7.964
 1674POPC   C4B23818  21.578  26.128   7.664
 1675POPC   NC323819  42.286  12.878   9.464
 1675POPC   PO423820  42.357  12.871   9.164
 1675POPC   GL123821  42.359  12.844   8.864
 1675POPC   GL223822  42.256  12.885   8.864
 1675POPC   C1A23823  42.358  12.836   8.564
 1675POPC   D2A23824  42.357  12.803   8.264
 1675POPC   C3A23825  42.301  12.858   7.964
 1675POPC   C4A23826  42.301  12.808   7.664
 1675POPC   C1B23827  42.082  12.916   8.564
 1675POPC   C2B23828  42.092  12.882   8.264
 1675POPC   C3B23829  42.088  12.848   7.964
 1675POPC   C4B23830  42.105  12.885   7.664
 1676POPC   NC323831  29.190  28.400   9.464
 1676POPC   PO423832  29.174  28.418   9.164
 1676POPC   GL123833  29.123  28.346   8.864
 1676POPC   GL223834  29.043  28.431   8.864
 1676POPC   C1A23835  29.115  28.370   8.564
 1676POPC   D2A23836  29.156  28.372   8.264
 1676POPC   C3A23837  29.127  28.417   7.964
 1676POPC   C4A23838  29.181  28.323   7.664
 1676POPC   C1B23839  28.977  28.510   8.564
 1676POPC   C2B23840  28.888  28.535   8.264
 1676POPC   C3B23841  28.973  28.547   7.964
 1676POPC   C4B23842  28.927  28.519   7.664
 1677POPC   NC323843  28.339   5.104   9.464
 1677POPC   PO423844  28.402   5.067   9.164
 1677POPC   GL123845  28.371   5.045   8.864
 1677POPC   GL223846  28.345   5.216   8.864
 1677POPC   C1A23847  28.402   5.114   8.564
 1677POPC   D2A23848  28.381   5.127   8.264
 1677POPC   C3A23849  28.371   5.073   7.964
 1677POPC   C4A23850  28.392   5.079   7.664
 1677POPC   C1B23851  28.345   5.375   8.564
 1677POPC   C2B23852  28.335   5.288   8.264
 1677POPC   C3B23853  28.278   5.356   7.964
 1677POPC   C4B23854  28.351   5.317   7.664
 1678POPC   NC323855  33.054  31.467   9.464
 1678POPC   PO423856  33.062  31.430   9.164
 1678POPC   GL123857  33.014  31.480   8.864
 1678POPC   GL223858  32.974  31.338   8.864
 1678POPC   C1A23859  32.987  31.480   8.564
 1678POPC   D2A23860  33.072  31.512   8.264
 1678POPC   C3A23861  33.006  31.503   7.964
 1678POPC   C4A23862  33.030  31.494   7.664
 1678POPC   C1B23863  32.976  31.205   8.564
 1678POPC   C2B23864  32.952  31.219   8.264
 1678POPC   C3B23865  33.019  31.241   7.964
 1678POPC   C4B23866  32.951  31.176   7.664
 1679POPC   NC323867   5.823  18.254   9.464
 1679POPC   PO423868   5.896  18.262   9.164
 1679POPC   GL123869   5.863  18.235   8.864
 1679POPC   GL223870   5.990  18.299   8.864
 1679POPC   C1A23871   5.838  18.273   8.564
 1679POPC   D2A23872   5.894  18.243   8.264
 1679POPC   C3A23873   5.873  18.332   7.964
 1679POPC   C4A23874   5.883  18.310   7.664
 1679POPC   C1B23875   6.134  18.415   8.564
 1679POPC   C2B23876   6.132  18.428   8.264
 1679POPC   C3B23877   6.074  18.394   7.964
 1679POPC   C4B23878   6.049  18.382   7.664
 1680POPC   NC323879  39.217  16.774   9.464
 1680POPC   PO423880  39.223  16.682   9.164
 1680POPC   GL123881  39.215  16.769   8.864
 1680POPC   GL223882  39.082  16.635   8.864
 1680POPC   C1A23883  39.215  16.688   8.564
 1680POPC   D2A23884  39.253  16.721   8.264
 1680POPC   C3A23885  39.274  16.753   7.964
 1680POPC   C4A23886  39.240  16.706   7.664
 1680POPC   C1B23887  39.045  16.543   8.564
 1680POPC   C2B23888  38.993  16.562   8.264
 1680POPC   C3B23889  38.995  16.578   7.964
 1680POPC   C4B23890  39.011  16.600   7.664
 1681POPC   NC323891  36.084  28.408   9.464
 1681POPC   PO423892  36.119  28.375   9.164
 1681POPC   GL123893  36.177  28.334   8.864
 1681POPC   GL223894  36.210  28.371   8.864
 1681POPC   C1A23895  36.084  28.381   8.564
 1681POPC   D2A23896  36.099  28.398   8.264
 1681POPC   C3A23897  36.121  28.401   7.964
 1681POPC   C4A23898  36.094  28.408   7.664
 1681POPC   C1B23899  36.390  28.418   8.564
 1681POPC   C2B23900  36.412  28.379   8.264
 1681POPC   C3B23901  36.374  28.460   7.964
 1681POPC   C4B23902  36.384  28.435   7.664
 1682POPC   NC323903  15.996  39.994   9.464
 1682POPC   PO423904  15.994  40.040   9.164
 1682POPC   GL123905  15.984  40.013   8.864
 1682POPC   GL223906  15.827  39.980   8.864
 1682POPC   C1A23907  15.929  40.029   8.564
 1682POPC   D2A23908  15.956  40.004   8.264
 1682POPC   C3A23909  15.977  39.971   7.964
 1682POPC   C4A23910  15.967  40.047   7.664
 1682POPC   C1B23911  15.774  39.815   8.564
 1682POPC   C2B23912  15.790  39.856   8.264
 1682POPC   C3B23913  15.753  39.852   7.964
 1682POPC   C4B23914  15.710  39.855   7.664
 1683POPC   NC323915  41.568  31.482   9.464
 1683POPC   PO423916  41.522  31.491   9.164
 1683POPC   GL123917  41.544  31.423   8.864
 1683POPC   GL223918  41.549  31.319   8.864
 1683POPC   C1A23919  41.521  31.510   8.564
 1683POPC   D2A23920  41.566  31.502   8.264
 1683POPC   C3A23921  41.522  31.478   7.964
 1683POPC   C4A23922  41.524  31.498   7.664
 1683POPC   C1B23923  41.521  31.272   8.564
 1683POPC   C2B23924  41.557  31.261   8.264
 1683POPC   C3B23925  41.531  31.232   7.964
 1683POPC   C4B23926  41.586  31.177   7.664
 1684POPC   NC323927  43.121  29.968   9.464
 1684POPC   PO423928  43.159  29.904   9.164
 1684POPC   GL123929  43.084  29.873   8.864
 1684POPC   GL223930  43.227  29.999   8.864
 1684POPC   C1A23931  43.128  29.926   8.564
 1684POPC   D2A23932  43.088  29.937   8.264
 1684POPC   C3A23933  43.147  29.887   7.964
 1684POPC   C4A23934  43.133  29.888   7.664
 1684POPC   C1B23935  43.272  30.105   8.564
 1684POPC   C2B23936  43.277  30.108   8.264
 1684POPC   C3B23937  43.317  30.077   7.964
 1684POPC   C4B23938  43.291  30.046   7.664
 1685POPC   NC323939  43.911  15.956   9.464
 1685POPC   PO423940  43.910  15.931   9.164
 1685POPC   GL123941  43.915  15.920   8.864
 1685POPC   GL223942  43.984  16.049   8.864
 1685POPC   C1A23943  43.896  15.961   8.564
 1685POPC   D2A23944  43.909  15.948   8.264
 1685POPC   C3A23945  43.917  15.918   7.964
 1685POPC   C4A23946  43.925  15.949   7.664
 1685POPC   C1B23947  44.045  16.209   8.564
 1685POPC   C2B23948  43.969  16.224   8.264
 1685POPC   C3B23949  43.960  16.138   7.964
 1685POPC   C4B23950  44.010  16.134   7.664
 1686POPC   NC323951   1.172  28.380   9.464
 1686POPC   PO423952   1.218  28.323   9.164
 1686POPC   GL123953   1.244  28.328   8.864
 1686POPC   GL223954   1.113  28.291   8.864
 1686POPC   C1A23955   1.237  28.335   8.564
 1686POPC   D2A23956   1.239  28.394   8.264
 1686POPC   C3A23957   1.212  28.388   7.964
 1686POPC   C4A23958   1.239  28.337   7.664
 1686POPC   C1B23959   1.084  28.116   8.564
 1686POPC   C2B23960   1.036  28.156   8.264
 1686POPC   C3B23961   1.059  28.175   7.964
 1686POPC   C4B23962   1.085  28.172   7.664
 1687POPC   NC323963  39.972  44.642   9.464
 1687POPC   PO423964  39.982  44.631   9.164
 1687POPC   GL123965  40.003  44.663   8.864
 1687POPC   GL223966  40.095  44.629   8.864
 1687POPC   C1A23967  40.011  44.668   8.564
 1687POPC   D2A23968  39.973  44.687   8.264
 1687POPC   C3A23969  39.968  44.642   7.964
 1687POPC   C4A23970  39.985  44.706   7.664
 1687POPC   C1B23971  40.254  44.583   8.564
 1687POPC   C2B23972  40.258  44.556   8.264
 1687POPC   C3B23973  40.253  44.516   7.964
 1687POPC   C4B23974  40.194  44.531   7.664
 1688POPC   NC323975  21.432  17.472   9.464
 1688POPC   PO423976  21.384  17.522   9.164
 1688POPC   GL123977  21.367  17.505   8.864
 1688POPC   GL223978  21.469  17.485   8.864
 1688POPC   C1A23979  21.411  17.546   8.564
 1688POPC   D2A23980  21.385  17.487   8.264
 1688POPC   C3A23981  21.375  17.513   7.964
 1688POPC   C4A23982  21.435  17.546   7.664
 1688POPC   C1B23983  21.683  17.472   8.564
 1688POPC   C2B23984  21.623  17.472   8.264
 1688POPC   C3B23985  21.663  17.517   7.964
 1688POPC   C4B23986  21.590  17.508   7.664
 1689POPC   NC323987  12.039  40.749   9.464
 1689POPC   PO423988  12.060  40.764   9.164
 1689POPC   GL123989  12.074  40.818   8.864
 1689POPC   GL223990  12.147  40.837   8.864
 1689POPC   C1A23991  12.080  40.777   8.564
 1689POPC   D2A23992  12.033  40.826   8.264
 1689POPC   C3A23993  12.041  40.764   7.964
 1689POPC   C4A23994  12.119  40.787   7.664
 1689POPC   C1B23995  12.317  40.975   8.564
 1689POPC   C2B23996  12.281  40.898   8.264
 1689POPC   C3B23997  12.319  40.887   7.964
 1689POPC   C4B23998  12.276  40.894   7.664
 1690POPC   NC323999   5.099   5.103   9.464
 1690POPC   PO424000   5.084   5.088   9.164
 1690POPC   GL124001   5.085   5.143   8.864
 1690POPC   GL224002   5.151   4.961   8.864
 1690POPC   C1A24003   5.107   5.059   8.564
 1690POPC   D2A24004   5.096   5.106   8.264
 1690POPC   C3A24005   5.079   5.063   7.964
 1690POPC   C4A24006   5.099   5.133   7.664
 1690POPC   C1B24007   5.166   4.807   8.564
 1690POPC   C2B24008   5.128   4.809   8.264
 1690POPC   C3B24009   5.178   4.889   7.964
 1690POPC   C4B24010   5.175   4.821   7.664
 1691POPC   NC324011  26.083  32.268   9.464
 1691POPC   PO424012  26.041  32.241   9.164
 1691POPC   GL124013  25.997  32.263   8.864
 1691POPC   GL224014  25.975  32.140   8.864
 1691POPC   C1A24015  26.041  32.264   8.564
 1691POPC   D2A24016  26.003  32.239   8.264
 1691POPC   C3A24017  26.005  32.264   7.964
 1691POPC   C4A24018  26.000  32.298   7.664
 1691POPC   C1B24019  25.911  32.073   8.564
 1691POPC   C2B24020  25.875  32.073   8.264
 1691POPC   C3B24021  25.870  32.086   7.964
 1691POPC   C4B24022  25.901  32.103   7.664
 1692POPC   NC324023  37.642   8.943   9.464
 1692POPC   PO424024  37.674   8.950   9.164
 1692POPC   GL124025  37.673   8.961   8.864
 1692POPC   GL224026  37.607   9.104   8.864
 1692POPC   C1A24027  37.701   8.944   8.564
 1692POPC   D2A24028  37.652   8.923   8.264
 1692POPC   C3A24029  37.685   8.963   7.964
 1692POPC   C4A24030  37.709   9.001   7.664
 1692POPC   C1B24031  37.572   9.170   8.564
 1692POPC   C2B24032  37.547   9.155   8.264
 1692POPC   C3B24033  37.576   9.210   7.964
 1692POPC   C4B24034  37.574   9.191   7.664
 1693POPC   NC324035  33.054  19.803   9.464
 1693POPC   PO424036  33.018  19.839   9.164
 1693POPC   GL124037  33.058  19.879   8.864
 1693POPC   GL224038  33.028  20.004   8.864
 1693POPC   C1A24039  32.981  19.854   8.564
 1693POPC   D2A24040  33.057  19.858   8.264
 1693POPC   C3A24041  33.018  19.808   7.964
 1693POPC   C4A24042  33.050  19.834   7.664
 1693POPC   C1B24043  33.075  20.108   8.564
 1693POPC   C2B24044  33.051  20.061   8.264
 1693POPC   C3B24045  33.041  20.048   7.964
 1693POPC   C4B24046  33.068  20.050   7.664
 1694POPC   NC324047  22.205  34.533   9.464
 1694POPC   PO424048  22.200  34.571   9.164
 1694POPC   GL124049  22.189  34.584   8.864
 1694POPC   GL224050  22.265  34.680   8.864
 1694POPC   C1A24051  22.145  34.617   8.564
 1694POPC   D2A24052  22.150  34.564   8.264
 1694POPC   C3A24053  22.119  34.546   7.964
 1694POPC   C4A24054  22.116  34.605   7.664
 1694POPC   C1B24055  22.342  34.769   8.564
 1694POPC   C2B24056  22.322  34.723   8.264
 1694POPC   C3B24057  22.305  34.767   7.964
 1694POPC   C4B24058  22.290  34.753   7.664
 1695POPC   NC324059  42.330  34.599   9.464
 1695POPC   PO424060  42.322  34.601   9.164
 1695POPC   GL124061  42.344  34.530   8.864
 1695POPC   GL224062  42.215  34.570   8.864
 1695POPC   C1A24063  42.288  34.579   8.564
 1695POPC   D2A24064  42.310  34.561   8.264
 1695POPC   C3A24065  42.294  34.540   7.964
 1695POPC   C4A24066  42.305  34.529   7.664
 1695POPC   C1B24067  42.110  34.608   8.564
 1695POPC   C2B24068  42.046  34.614   8.264
 1695POPC   C3B24069  42.105  34.564   7.964
 1695POPC   C4B24070  42.052  34.555   7.664
 1696POPC   NC324071  41.524  36.914   9.464
 1696POPC   PO424072  41.579  36.867   9.164
 1696POPC   GL124073  41.580  36.883   8.864
 1696POPC   GL224074  41.660  37.045   8.864
 1696POPC   C1A24075  41.560  36.896   8.564
 1696POPC   D2A24076  41.540  36.910   8.264
 1696POPC   C3A24077  41.600  36.896   7.964
 1696POPC   C4A24078  41.532  36.885   7.664
 1696POPC   C1B24079  41.677  37.139   8.564
 1696POPC   C2B24080  41.695  37.146   8.264
 1696POPC   C3B24081  41.620  37.136   7.964
 1696POPC   C4B24082  41.645  37.161   7.664
 1697POPC   NC324083  29.132  36.863   9.464
 1697POPC   PO424084  29.186  36.859   9.164
 1697POPC   GL124085  29.191  36.907   8.864
 1697POPC   GL224086  29.075  37.025   8.864
 1697POPC   C1A24087  29.181  36.898   8.564
 1697POPC   D2A24088  29.098  36.938   8.264
 1697POPC   C3A24089  29.121  36.854   7.964
 1697POPC   C4A24090  29.141  36.864   7.664
 1697POPC   C1B24091  29.048  37.133   8.564
 1697POPC   C2B24092  29.064  37.159   8.264
 1697POPC   C3B24093  29.025  37.157   7.964
 1697POPC   C4B24094  28.990  37.161   7.664
 1698POPC   NC324095  36.885   8.931   9.464
 1698POPC   PO424096  36.945   9.004   9.164
 1698POPC   GL124097  36.870   8.992   8.864
 1698POPC   GL224098  36.911   8.823   8.864
 1698POPC   C1A24099  36.892   8.984   8.564
 1698POPC   D2A24100  36.915   9.006   8.264
 1698POPC   C3A24101  36.874   8.929   7.964
 1698POPC   C4A24102  36.861   8.969   7.664
 1698POPC   C1B24103  36.976   8.764   8.564
 1698POPC   C2B24104  36.967   8.714   8.264
 1698POPC   C3B24105  37.040   8.711   7.964
 1698POPC   C4B24106  37.024   8.714   7.664
 1699POPC   NC324107  20.569   1.980   9.464
 1699POPC   PO424108  20.642   2.012   9.164
 1699POPC   GL124109  20.660   2.016   8.864
 1699POPC   GL224110  20.667   2.049   8.864
 1699POPC   C1A24111  20.612   1.967   8.564
 1699POPC   D2A24112  20.616   1.975   8.264
 1699POPC   C3A24113  20.636   1.953   7.964
 1699POPC   C4A24114  20.596   1.995   7.664
 1699POPC   C1B24115  20.873   2.071   8.564
 1699POPC   C2B24116  20.836   2.075   8.264
 1699POPC   C3B24117  20.797   2.090   7.964
 1699POPC   C4B24118  20.854   2.094   7.664
 1700POPC   NC324119  13.627  13.639   9.464
 1700POPC   PO424120  13.648  13.623   9.164
 1700POPC   GL124121  13.656  13.616   8.864
 1700POPC   GL224122  13.604  13.784   8.864
 1700POPC   C1A24123  13.585  13.649   8.564
 1700POPC   D2A24124  13.625  13.652   8.264
 1700POPC   C3A24125  13.626  13.658   7.964
 1700POPC   C4A24126  13.657  13.668   7.664
 1700POPC   C1B24127  13.549  13.907   8.564
 1700POPC   C2B24128  13.525  13.884   8.264
 1700POPC   C3B24129  13.614  13.861   7.964
 1700POPC   C4B24130  13.600  13.897   7.664
 1701POPC   NC324131  30.726  23.748   9.464
 1701POPC   PO424132  30.710  23.745   9.164
 1701POPC   GL124133  30.652  23.707   8.864
 1701POPC   GL224134  30.536  23.648   8.864
 1701POPC   C1A24135  30.708  23.705   8.564
 1701POPC   D2A24136  30.661  23.754   8.264
 1701POPC   C3A24137  30.658  23.685   7.964
 1701POPC   C4A24138  30.650  23.742   7.664
 1701POPC   C1B24139  30.483  23.621   8.564
 1701POPC   C2B24140  30.462  23.638   8.264
 1701POPC   C3B24141  30.433  23.667   7.964
 1701POPC   C4B24142  30.450  23.694   7.664
 1702POPC   NC324143  25.274  30.702   9.464
 1702POPC   PO424144  25.265  30.732   9.164
 1702POPC   GL124145  25.254  30.659   8.864
 1702POPC   GL224146  25.240  30.815   8.864
 1702POPC   C1A24147  25.222  30.658   8.564
 1702POPC   D2A24148  25.251  30.674   8.264
 1702POPC   C3A24149  25.269  30.720   7.964
 1702POPC   C4A24150  25.285  30.738   7.664
 1702POPC   C1B24151  25.174  30.948   8.564
 1702POPC   C2B24152  25.139  30.958   8.264
 1702POPC   C3B24153  25.206  30.919   7.964
 1702POPC   C4B24154  25.201  30.946   7.664
 1703POPC   NC324155  28.340   2.021   9.464
 1703POPC   PO424156  28.352   2.040   9.164
 1703POPC   GL124157  28.405   1.986   8.864
 1703POPC   GL224158  28.372   1.855   8.864
 1703POPC   C1A24159  28.354   1.985   8.564
 1703POPC   D2A24160  28.379   1.966   8.264
 1703POPC   C3A24161  28.379   1.993   7.964
 1703POPC   C4A24162  28.355   2.034   7.664
 1703POPC   C1B24163  28.372   1.783   8.564
 1703POPC   C2B24164  28.369   1.711   8.264
 1703POPC   C3B24165  28.389   1.775   7.964
 1703POPC   C4B24166  28.316   1.771   7.664
 1704POPC   NC324167   2.771   9.793   9.464
 1704POPC   PO424168   2.746   9.702   9.164
 1704POPC   GL124169   2.813   9.724   8.864
 1704POPC   GL224170   2.872   9.689   8.864
 1704POPC   C1A24171   2.796   9.757   8.564
 1704POPC   D2A24172   2.720   9.777   8.264
 1704POPC   C3A24173   2.791   9.749   7.964
 1704POPC   C4A24174   2.809   9.717   7.664
 1704POPC   C1B24175   3.014   9.601   8.564
 1704POPC   C2B24176   2.982   9.628   8.264
 1704POPC   C3B24177   3.007   9.577   7.964
 1704POPC   C4B24178   3.006   9.582   7.664
 1705POPC   NC324179  36.904  17.532   9.464
 1705POPC   PO424180  36.913  17.530   9.164
 1705POPC   GL124181  36.895  17.475   8.864
 1705POPC   GL224182  36.995  17.495   8.864
 1705POPC   C1A24183  36.928  17.479   8.564
 1705POPC   D2A24184  36.907  17.498   8.264
 1705POPC   C3A24185  36.854  17.529   7.964
 1705POPC   C4A24186  36.894  17.487   7.664
 1705POPC   C1B24187  37.104  17.569   8.564
 1705POPC   C2B24188  37.188  17.555   8.264
 1705POPC   C3B24189  37.188  17.519   7.964
 1705POPC   C4B24190  37.175  17.496   7.664
 1706POPC   NC324191  20.626  25.997   9.464
 1706POPC   PO424192  20.636  26.032   9.164
 1706POPC   GL124193  20.643  26.020   8.864
 1706POPC   GL224194  20.693  26.078   8.864
 1706POPC   C1A24195  20.652  25.993   8.564
 1706POPC   D2A24196  20.653  26.006   8.264
 1706POPC   C3A24197  20.582  26.080   7.964
 1706POPC   C4A24198  20.612  26.035   7.664
 1706POPC   C1B24199  20.773  26.159   8.564
 1706POPC   C2B24200  20.773  26.229   8.264
 1706POPC   C3B24201  20.830  26.183   7.964
 1706POPC   C4B24202  20.806  26.166   7.664
 1707POPC   NC324203  40.775  34.597   9.464
 1707POPC   PO424204  40.814  34.601   9.164
 1707POPC   GL124205  40.821  34.563   8.864
 1707POPC   GL224206  40.899  34.585   8.864
 1707POPC   C1A24207  40.823  34.536   8.564
 1707POPC   D2A24208  40.810  34.608   8.264
 1707POPC   C3A24209  40.814  34.553   7.964
 1707POPC   C4A24210  40.819  34.601   7.664
 1707POPC   C1B24211  40.990  34.514   8.564
 1707POPC   C2B24212  41.070  34.527   8.264
 1707POPC   C3B24213  41.039  34.585   7.964
 1707POPC   C4B24214  41.027  34.565   7.664
 1708POPC   NC324215   1.169  33.769   9.464
 1708POPC   PO424216   1.165  33.779   9.164
 1708POPC   GL124217   1.212  33.775   8.864
 1708POPC   GL224218   1.227  33.911   8.864
 1708POPC   C1A24219   1.190  33.823   8.564
 1708POPC   D2A24220   1.188  33.788   8.264
 1708POPC   C3A24221   1.259  33.762   7.964
 1708POPC   C4A24222   1.214  33.823   7.664
 1708POPC   C1B24223   1.300  34.041   8.564
 1708POPC   C2B24224   1.322  34.016   8.264
 1708POPC   C3B24225   1.318  33.981   7.964
 1708POPC   C4B24226   1.298  33.989   7.664
 1709POPC   NC324227  43.903  10.523   9.464
 1709POPC   PO424228  43.861  10.545   9.164
 1709POPC   GL124229  43.931  10.504   8.864
 1709POPC   GL224230  43.935  10.453   8.864
 1709POPC   C1A24231  43.878  10.556   8.564
 1709POPC   D2A24232  43.917  10.494   8.264
 1709POPC   C3A24233  43.906  10.503   7.964
 1709POPC   C4A24234  43.871  10.531   7.664
 1709POPC   C1B24235  44.042  10.313   8.564
 1709POPC   C2B24236  44.051  10.314   8.264
 1709POPC   C3B24237  44.051  10.342   7.964
 1709POPC   C4B24238  44.031  10.358   7.664
 1710POPC   NC324239   8.191  40.794   9.464
 1710POPC   PO424240   8.207  40.745   9.164
 1710POPC   GL124241   8.225  40.784   8.864
 1710POPC   GL224242   8.205  40.712   8.864
 1710POPC   C1A24243   8.156  40.746   8.564
 1710POPC   D2A24244   8.154  40.817   8.264
 1710POPC   C3A24245   8.200  40.826   7.964
 1710POPC   C4A24246   8.151  40.733   7.664
 1710POPC   C1B24247   8.082  40.542   8.564
 1710POPC   C2B24248   8.110  40.524   8.264
 1710POPC   C3B24249   8.105  40.524   7.964
 1710POPC   C4B24250   8.073  40.543   7.664
 1711POPC   NC324251  20.637  32.274   9.464
 1711POPC   PO424252  20.640  32.267   9.164
 1711POPC   GL124253  20.621  32.287   8.864
 1711POPC   GL224254  20.586  32.159   8.864
 1711POPC   C1A24255  20.560  32.209   8.564
 1711POPC   D2A24256  20.583  32.216   8.264
 1711POPC   C3A24257  20.633  32.266   7.964
 1711POPC   C4A24258  20.621  32.218   7.664
 1711POPC   C1B24259  20.528  32.017   8.564
 1711POPC   C2B24260  20.591  31.992   8.264
 1711POPC   C3B24261  20.509  32.051   7.964
 1711POPC   C4B24262  20.590  31.965   7.664
 1712POPC   NC324263  36.116  24.521   9.464
 1712POPC   PO424264  36.096  24.476   9.164
 1712POPC   GL124265  36.114  24.523   8.864
 1712POPC   GL224266  36.070  24.565   8.864
 1712POPC   C1A24267  36.171  24.487   8.564
 1712POPC   D2A24268  36.152  24.527   8.264
 1712POPC   C3A24269  36.108  24.481   7.964
 1712POPC   C4A24270  36.128  24.479   7.664
 1712POPC   C1B24271  36.071  24.711   8.564
 1712POPC   C2B24272  36.099  24.693   8.264
 1712POPC   C3B24273  36.027  24.759   7.964
 1712POPC   C4B24274  36.022  24.709   7.664
 1713POPC   NC324275   5.071  29.117   9.464
 1713POPC   PO424276   5.050  29.104   9.164
 1713POPC   GL124277   5.117  29.157   8.864
 1713POPC   GL224278   5.026  29.243   8.864
 1713POPC   C1A24279   5.103  29.127   8.564
 1713POPC   D2A24280   5.141  29.142   8.264
 1713POPC   C3A24281   5.132  29.121   7.964
 1713POPC   C4A24282   5.061  29.123   7.664
 1713POPC   C1B24283   4.970  29.309   8.564
 1713POPC   C2B24284   4.884  29.335   8.264
 1713POPC   C3B24285   4.916  29.362   7.964
 1713POPC   C4B24286   4.910  29.310   7.664
 1714POPC   NC324287  44.657   2.721   9.464
 1714POPC   PO424288  44.632   2.793   9.164
 1714POPC   GL124289  44.637   2.782   8.864
 1714POPC   GL224290  44.828   2.748   8.864
 1714POPC   C1A24291  44.691   2.761   8.564
 1714POPC   D2A24292  44.698   2.811   8.264
 1714POPC   C3A24293  44.624   2.780   7.964
 1714POPC   C4A24294  44.620   2.726   7.664
 1714POPC   C1B24295  44.914   2.873   8.564
 1714POPC   C2B24296  44.865   2.813   8.264
 1714POPC   C3B24297  44.869   2.786   7.964
 1714POPC   C4B24298  44.872   2.868   7.664
 1715POPC   NC324299  33.780   9.759   9.464
 1715POPC   PO424300  33.812   9.748   9.164
 1715POPC   GL124301  33.841   9.755   8.864
 1715POPC   GL224302  33.899   9.645   8.864
 1715POPC   C1A24303  33.753   9.704   8.564
 1715POPC   D2A24304  33.808   9.791   8.264
 1715POPC   C3A24305  33.783   9.760   7.964
 1715POPC   C4A24306  33.767   9.719   7.664
 1715POPC   C1B24307  33.949   9.568   8.564
 1715POPC   C2B24308  33.963   9.591   8.264
 1715POPC   C3B24309  33.973   9.592   7.964
 1715POPC   C4B24310  33.936   9.542   7.664
 1716POPC   NC324311  14.360   5.115   9.464
 1716POPC   PO424312  14.422   5.094   9.164
 1716POPC   GL124313  14.420   5.139   8.864
 1716POPC   GL224314  14.457   5.198   8.864
 1716POPC   C1A24315  14.399   5.095   8.564
 1716POPC   D2A24316  14.382   5.133   8.264
 1716POPC   C3A24317  14.371   5.066   7.964
 1716POPC   C4A24318  14.443   5.128   7.664
 1716POPC   C1B24319  14.539   5.279   8.564
 1716POPC   C2B24320  14.462   5.341   8.264
 1716POPC   C3B24321  14.554   5.272   7.964
 1716POPC   C4B24322  14.528   5.303   7.664
 1717POPC   NC324323  10.570   8.936   9.464
 1717POPC   PO424324  10.495   8.933   9.164
 1717POPC   GL124325  10.477   8.990   8.864
 1717POPC   GL224326  10.543   8.860   8.864
 1717POPC   C1A24327  10.559   9.018   8.564
 1717POPC   D2A24328  10.499   8.998   8.264
 1717POPC   C3A24329  10.516   8.978   7.964
 1717POPC   C4A24330  10.552   8.952   7.664
 1717POPC   C1B24331  10.605   8.768   8.564
 1717POPC   C2B24332  10.625   8.720   8.264
 1717POPC   C3B24333  10.601   8.764   7.964
 1717POPC   C4B24334  10.586   8.784   7.664
 1718POPC   NC324335  11.268  23.746   9.464
 1718POPC   PO424336  11.350  23.665   9.164
 1718POPC   GL124337  11.258  23.664   8.864
 1718POPC   GL224338  11.349  23.794   8.864
 1718POPC   C1A24339  11.268  23.737   8.564
 1718POPC   D2A24340  11.260  23.721   8.264
 1718POPC   C3A24341  11.258  23.685   7.964
 1718POPC   C4A24342  11.321  23.760   7.664
 1718POPC   C1B24343  11.386  23.991   8.564
 1718POPC   C2B24344  11.399  23.902   8.264
 1718POPC   C3B24345  11.385  23.910   7.964
 1718POPC   C4B24346  11.373  23.931   7.664
 1719POPC   NC324347   8.242  27.631   9.464
 1719POPC   PO424348   8.151  27.636   9.164
 1719POPC   GL124349   8.157  27.584   8.864
 1719POPC   GL224350   8.291  27.758   8.864
 1719POPC   C1A24351   8.246  27.549   8.564
 1719POPC   D2A24352   8.229  27.560   8.264
 1719POPC   C3A24353   8.176  27.639   7.964
 1719POPC   C4A24354   8.157  27.634   7.664
 1719POPC   C1B24355   8.255  27.857   8.564
 1719POPC   C2B24356   8.315  27.837   8.264
 1719POPC   C3B24357   8.301  27.826   7.964
 1719POPC   C4B24358   8.312  27.871   7.664
 1720POPC   NC324359  12.089  12.078   9.464
 1720POPC   PO424360  12.042  12.105   9.164
 1720POPC   GL124361  12.119  12.029   8.864
 1720POPC   GL224362  12.081  11.919   8.864
 1720POPC   C1A24363  12.061  12.043   8.564
 1720POPC   D2A24364  12.086  12.068   8.264
 1720POPC   C3A24365  12.082  12.086   7.964
 1720POPC   C4A24366  12.073  12.085   7.664
 1720POPC   C1B24367  12.049  11.869   8.564
 1720POPC   C2B24368  12.090  11.783   8.264
 1720POPC   C3B24369  12.059  11.778   7.964
 1720POPC   C4B24370  12.031  11.836   7.664
 1721POPC   NC324371  40.018  17.509   9.464
 1721POPC   PO424372  40.014  17.478   9.164
 1721POPC   GL124373  40.025  17.500   8.864
 1721POPC   GL224374  40.057  17.398   8.864
 1721POPC   C1A24375  39.972  17.477   8.564
 1721POPC   D2A24376  40.017  17.498   8.264
 1721POPC   C3A24377  40.019  17.495   7.964
 1721POPC   C4A24378  40.038  17.544   7.664
 1721POPC   C1B24379  40.138  17.367   8.564
 1721POPC   C2B24380  40.163  17.378   8.264
 1721POPC   C3B24381  40.192  17.308   7.964
 1721POPC   C4B24382  40.165  17.304   7.664
 1722POPC   NC324383  23.708  11.308   9.464
 1722POPC   PO424384  23.741  11.325   9.164
 1722POPC   GL124385  23.668  11.300   8.864
 1722POPC   GL224386  23.635  11.215   8.864
 1722POPC   C1A24387  23.721  11.270   8.564
 1722POPC   D2A24388  23.667  11.302   8.264
 1722POPC   C3A24389  23.755  11.271   7.964
 1722POPC   C4A24390  23.721  11.261   7.664
 1722POPC   C1B24391  23.502  11.134   8.564
 1722POPC   C2B24392  23.488  11.210   8.264
 1722POPC   C3B24393  23.455  11.186   7.964
 1722POPC   C4B24394  23.487  11.200   7.664
 1723POPC   NC324395   2.007  35.331   9.464
 1723POPC   PO424396   1.949  35.389   9.164
 1723POPC   GL124397   1.981  35.312   8.864
 1723POPC   GL224398   1.960  35.472   8.864
 1723POPC   C1A24399   2.016  35.315   8.564
 1723POPC   D2A24400   1.990  35.340   8.264
 1723POPC   C3A24401   1.949  35.397   7.964
 1723POPC   C4A24402   2.017  35.329   7.664
 1723POPC   C1B24403   1.937  35.595   8.564
 1723POPC   C2B24404   1.992  35.573   8.264
 1723POPC   C3B24405   1.959  35.612   7.964
 1723POPC   C4B24406   1.926  35.573   7.664
 1724POPC   NC324407  37.683  34.533   9.464
 1724POPC   PO424408  37.660  34.620   9.164
 1724POPC   GL124409  37.678  34.608   8.864
 1724POPC   GL224410  37.600  34.649   8.864
 1724POPC   C1A24411  37.724  34.533   8.564
 1724POPC   D2A24412  37.692  34.565   8.264
 1724POPC   C3A24413  37.678  34.622   7.964
 1724POPC   C4A24414  37.650  34.588   7.664
 1724POPC   C1B24415  37.622  34.841   8.564
 1724POPC   C2B24416  37.614  34.816   8.264
 1724POPC   C3B24417  37.576  34.784   7.964
 1724POPC   C4B24418  37.610  34.796   7.664
 1725POPC   NC324419  35.355  25.993   9.464
 1725POPC   PO424420  35.363  26.009   9.164
 1725POPC   GL124421  35.333  26.005   8.864
 1725POPC   GL224422  35.350  26.151   8.864
 1725POPC   C1A24423  35.379  26.058   8.564
 1725POPC   D2A24424  35.304  26.007   8.264
 1725POPC   C3A24425  35.332  26.021   7.964
 1725POPC   C4A24426  35.339  26.002   7.664
 1725POPC   C1B24427  35.286  26.319   8.564
 1725POPC   C2B24428  35.328  26.279   8.264
 1725POPC   C3B24429  35.367  26.295   7.964
 1725POPC   C4B24430  35.337  26.302   7.664
 1726POPC   NC324431  21.388  34.543   9.464
 1726POPC   PO424432  21.436  34.584   9.164
 1726POPC   GL124433  21.342  34.556   8.864
 1726POPC   GL224434  21.309  34.567   8.864
 1726POPC   C1A24435  21.401  34.542   8.564
 1726POPC   D2A24436  21.388  34.611   8.264
 1726POPC   C3A24437  21.400  34.576   7.964
 1726POPC   C4A24438  21.344  34.534   7.664
 1726POPC   C1B24439  21.155  34.551   8.564
 1726POPC   C2B24440  21.151  34.481   8.264
 1726POPC   C3B24441  21.157  34.476   7.964
 1726POPC   C4B24442  21.144  34.545   7.664
 1727POPC   NC324443  36.141   1.263   9.464
 1727POPC   PO424444  36.104   1.227   9.164
 1727POPC   GL124445  36.085   1.218   8.864
 1727POPC   GL224446  36.119   1.096   8.864
 1727POPC   C1A24447  36.170   1.166   8.564
 1727POPC   D2A24448  36.171   1.252   8.264
 1727POPC   C3A24449  36.087   1.203   7.964
 1727POPC   C4A24450  36.169   1.235   7.664
 1727POPC   C1B24451  36.051   0.933   8.564
 1727POPC   C2B24452  36.102   0.966   8.264
 1727POPC   C3B24453  36.111   1.001   7.964
 1727POPC   C4B24454  36.035   0.930   7.664
 1728POPC   NC324455  42.364  32.200   9.464
 1728POPC   PO424456  42.304  32.234   9.164
 1728POPC   GL124457  42.298  32.230   8.864
 1728POPC   GL224458  42.268  32.225   8.864
 1728POPC   C1A24459  42.312  32.203   8.564
 1728POPC   D2A24460  42.377  32.201   8.264
 1728POPC   C3A24461  42.379  32.237   7.964
 1728POPC   C4A24462  42.322  32.248   7.664
 1728POPC   C1B24463  42.155  32.163   8.564
 1728POPC   C2B24464  42.085  32.068   8.264
 1728POPC   C3B24465  42.146  32.152   7.964
 1728POPC   C4B24466  42.086  32.130   7.664
 1729POPC   NC324467  26.861  16.705   9.464
 1729POPC   PO424468  26.845  16.706   9.164
 1729POPC   GL124469  26.845  16.734   8.864
 1729POPC   GL224470  26.978  16.748   8.864
 1729POPC   C1A24471  26.789  16.750   8.564
 1729POPC   D2A24472  26.854  16.695   8.264
 1729POPC   C3A24473  26.823  16.715   7.964
 1729POPC   C4A24474  26.856  16.747   7.664
 1729POPC   C1B24475  27.045  16.794   8.564
 1729POPC   C2B24476  27.102  16.750   8.264
 1729POPC   C3B24477  27.064  16.731   7.964
 1729POPC   C4B24478  27.053  16.767   7.664
 1730POPC   NC324479   2.797  15.167   9.464
 1730POPC   PO424480   2.785  15.133   9.164
 1730POPC   GL124481   2.799  15.160   8.864
 1730POPC   GL224482   2.651  15.243   8.864
 1730POPC   C1A24483   2.815  15.194   8.564
 1730POPC   D2A24484   2.815  15.182   8.264
 1730POPC   C3A24485   2.742  15.152   7.964
 1730POPC   C4A24486   2.752  15.197   7.664
 1730POPC   C1B24487   2.587  15.273   8.564
 1730POPC   C2B24488   2.552  15.290   8.264
 1730POPC   C3B24489   2.584  15.310   7.964
 1730POPC   C4B24490   2.590  15.305   7.664
 1731POPC   NC324491  12.816  14.444   9.464
 1731POPC   PO424492  12.856  14.438   9.164
 1731POPC   GL124493  12.869  14.403   8.864
 1731POPC   GL224494  12.704  14.375   8.864
 1731POPC   C1A24495  12.852  14.401   8.564
 1731POPC   D2A24496  12.859  14.394   8.264
 1731POPC   C3A24497  12.828  14.387   7.964
 1731POPC   C4A24498  12.811  14.359   7.664
 1731POPC   C1B24499  12.591  14.405   8.564
 1731POPC   C2B24500  12.571  14.470   8.264
 1731POPC   C3B24501  12.646  14.386   7.964
 1731POPC   C4B24502  12.623  14.388   7.664
 1732POPC   NC324503  24.469   0.451   9.464
 1732POPC   PO424504  24.526   0.415   9.164
 1732POPC   GL124505  24.476   0.427   8.864
 1732POPC   GL224506  24.397   0.350   8.864
 1732POPC   C1A24507  24.470   0.407   8.564
 1732POPC   D2A24508  24.529   0.454   8.264
 1732POPC   C3A24509  24.479   0.474   7.964
 1732POPC   C4A24510  24.495   0.389   7.664
 1732POPC   C1B24511  24.328   0.269   8.564
 1732POPC   C2B24512  24.281   0.248   8.264
 1732POPC   C3B24513  24.286   0.261   7.964
 1732POPC   C4B24514  24.316   0.304   7.664
 1733POPC   NC324515  33.829  23.747   9.464
 1733POPC   PO424516  33.847  23.719   9.164
 1733POPC   GL124517  33.761  23.761   8.864
 1733POPC   GL224518  33.725  23.696   8.864
 1733POPC   C1A24519  33.850  23.692   8.564
 1733POPC   D2A24520  33.800  23.726   8.264
 1733POPC   C3A24521  33.847  23.756   7.964
 1733POPC   C4A24522  33.766  23.700   7.664
 1733POPC   C1B24523  33.529  23.723   8.564
 1733POPC   C2B24524  33.525  23.685   8.264
 1733POPC   C3B24525  33.583  23.754   7.964
 1733POPC   C4B24526  33.545  23.743   7.664
 1734POPC   NC324527  33.838  39.258   9.464
 1734POPC   PO424528  33.791  39.261   9.164
 1734POPC   GL124529  33.773  39.199   8.864
 1734POPC   GL224530  33.764  39.174   8.864
 1734POPC   C1A24531  33.769  39.215   8.564
 1734POPC   D2A24532  33.757  39.279   8.264
 1734POPC   C3A24533  33.850  39.215   7.964
 1734POPC   C4A24534  33.808  39.205   7.664
 1734POPC   C1B24535  33.705  38.982   8.564
 1734POPC   C2B24536  33.688  39.063   8.264
 1734POPC   C3B24537  33.616  39.025   7.964
 1734POPC   C4B24538  33.711  38.999   7.664
 1735POPC   NC324539  44.676  19.041   9.464
 1735POPC   PO424540  44.698  19.063   9.164
 1735POPC   GL124541  44.617  19.064   8.864
 1735POPC   GL224542  44.794  19.030   8.864
 1735POPC   C1A24543  44.616  19.038   8.564
 1735POPC   D2A24544  44.699  19.022   8.264
 1735POPC   C3A24545  44.700  19.055   7.964
 1735POPC   C4A24546  44.708  19.027   7.664
 1735POPC   C1B24547  44.851  18.912   8.564
 1735POPC   C2B24548  44.836  18.993   8.264
 1735POPC   C3B24549  44.918  18.899   7.964
 1735POPC   C4B24550  44.928  18.901   7.664
 1736POPC   NC324551  30.725  19.039   9.464
 1736POPC   PO424552  30.691  19.090   9.164
 1736POPC   GL124553  30.706  19.034   8.864
 1736POPC   GL224554  30.757  18.932   8.864
 1736POPC   C1A24555  30.696  19.029   8.564
 1736POPC   D2A24556  30.720  19.027   8.264
 1736POPC   C3A24557  30.689  19.053   7.964
 1736POPC   C4A24558  30.743  19.090   7.664
 1736POPC   C1B24559  30.850  18.820   8.564
 1736POPC   C2B24560  30.789  18.841   8.264
 1736POPC   C3B24561  30.777  18.886   7.964
 1736POPC   C4B24562  30.859  18.855   7.664
 1737POPC   NC324563  40.748  43.142   9.464
 1737POPC   PO424564  40.735  43.090   9.164
 1737POPC   GL124565  40.795  43.160   8.864
 1737POPC   GL224566  40.704  43.066   8.864
 1737POPC   C1A24567  40.817  43.083   8.564
 1737POPC   D2A24568  40.781  43.111   8.264
 1737POPC   C3A24569  40.826  43.143   7.964
 1737POPC   C4A24570  40.813  43.063   7.664
 1737POPC   C1B24571  40.555  43.066   8.564
 1737POPC   C2B24572  40.561  42.996   8.264
 1737POPC   C3B24573  40.593  43.049   7.964
 1737POPC   C4B24574  40.535  43.041   7.664
 1738POPC   NC324575   3.538  41.519   9.464
 1738POPC   PO424576   3.516  41.520   9.164
 1738POPC   GL124577   3.515  41.596   8.864
 1738POPC   GL224578   3.574  41.436   8.864
 1738POPC   C1A24579   3.538  41.540   8.564
 1738POPC   D2A24580   3.543  41.509   8.264
 1738POPC   C3A24581   3.591  41.566   7.964
 1738POPC   C4A24582   3.526  41.533   7.664
 1738POPC   C1B24583   3.567  41.323   8.564
 1738POPC   C2B24584   3.545  41.281   8.264
 1738POPC   C3B24585   3.545  41.302   7.964
 1738POPC   C4B24586   3.490  41.285   7.664
 1739POPC   NC324587  25.313  16.733   9.464
 1739POPC   PO424588  25.259  16.689   9.164
 1739POPC   GL124589  25.220  16.769   8.864
 1739POPC   GL224590  25.232  16.644   8.864
 1739POPC   C1A24591  25.303  16.708   8.564
 1739POPC   D2A24592  25.284  16.774   8.264
 1739POPC   C3A24593  25.258  16.721   7.964
 1739POPC   C4A24594  25.300  16.722   7.664
 1739POPC   C1B24595  25.234  16.501   8.564
 1739POPC   C2B24596  25.257  16.505   8.264
 1739POPC   C3B24597  25.261  16.519   7.964
 1739POPC   C4B24598  25.206  16.522   7.664
 1740POPC   NC324599  19.032  12.868   9.464
 1740POPC   PO424600  19.038  12.861   9.164
 1740POPC   GL124601  19.016  12.866   8.864
 1740POPC   GL224602  19.063  12.784   8.864
 1740POPC   C1A24603  19.050  12.897   8.564
 1740POPC   D2A24604  19.034  12.875   8.264
 1740POPC   C3A24605  19.024  12.898   7.964
 1740POPC   C4A24606  19.028  12.809   7.664
 1740POPC   C1B24607  19.130  12.580   8.564
 1740POPC   C2B24608  19.142  12.591   8.264
 1740POPC   C3B24609  19.167  12.582   7.964
 1740POPC   C4B24610  19.204  12.656   7.664
 1741POPC   NC324611  38.426  35.394   9.464
 1741POPC   PO424612  38.410  35.356   9.164
 1741POPC   GL124613  38.418  35.370   8.864
 1741POPC   GL224614  38.589  35.288   8.864
 1741POPC   C1A24615  38.435  35.328   8.564
 1741POPC   D2A24616  38.454  35.318   8.264
 1741POPC   C3A24617  38.472  35.376   7.964
 1741POPC   C4A24618  38.484  35.366   7.664
 1741POPC   C1B24619  38.627  35.176   8.564
 1741POPC   C2B24620  38.600  35.171   8.264
 1741POPC   C3B24621  38.670  35.225   7.964
 1741POPC   C4B24622  38.627  35.126   7.664
 1742POPC   NC324623  25.282  42.339   9.464
 1742POPC   PO424624  25.219  42.350   9.164
 1742POPC   GL124625  25.225  42.373   8.864
 1742POPC   GL224626  25.117  42.413   8.864
 1742POPC   C1A24627  25.236  42.309   8.564
 1742POPC   D2A24628  25.271  42.326   8.264
 1742POPC   C3A24629  25.312  42.362   7.964
 1742POPC   C4A24630  25.311  42.361   7.664
 1742POPC   C1B24631  25.078  42.511   8.564
 1742POPC   C2B24632  25.073  42.453   8.264
 1742POPC   C3B24633  25.087  42.458   7.964
 1742POPC   C4B24634  25.101  42.467   7.664
 1743POPC   NC324635  43.857   0.394   9.464
 1743POPC   PO424636  43.928   0.460   9.164
 1743POPC   GL124637  43.898   0.429   8.864
 1743POPC   GL224638  43.736   0.475   8.864
 1743POPC   C1A24639  43.840   0.487   8.564
 1743POPC   D2A24640  43.879   0.452   8.264
 1743POPC   C3A24641  43.896   0.483   7.964
 1743POPC   C4A24642  43.865   0.395   7.664
 1743POPC   C1B24643  43.617   0.502   8.564
 1743POPC   C2B24644  43.668   0.422   8.264
 1743POPC   C3B24645  43.618   0.502   7.964
 1743POPC   C4B24646  43.607   0.439   7.664
 1744POPC   NC324647  41.565  37.713   9.464
 1744POPC   PO424648  41.542  37.668   9.164
 1744POPC   GL124649  41.531  37.726   8.864
 1744POPC   GL224650  41.551  37.597   8.864
 1744POPC   C1A24651  41.566  37.692   8.564
 1744POPC   D2A24652  41.511  37.662   8.264
 1744POPC   C3A24653  41.517  37.671   7.964
 1744POPC   C4A24654  41.575  37.681   7.664
 1744POPC   C1B24655  41.442  37.410   8.564
 1744POPC   C2B24656  41.514  37.439   8.264
 1744POPC   C3B24657  41.482  37.481   7.964
 1744POPC   C4B24658  41.465  37.490   7.664
 1745POPC   NC324659  33.767  15.969   9.464
 1745POPC   PO424660  33.767  15.954   9.164
 1745POPC   GL124661  33.807  15.947   8.864
 1745POPC   GL224662  33.906  15.895   8.864
 1745POPC   C1A24663  33.800  15.983   8.564
 1745POPC   D2A24664  33.775  15.935   8.264
 1745POPC   C3A24665  33.760  15.918   7.964
 1745POPC   C4A24666  33.769  15.946   7.664
 1745POPC   C1B24667  33.915  15.754   8.564
 1745POPC   C2B24668  33.948  15.770   8.264
 1745POPC   C3B24669  33.911  15.780   7.964
 1745POPC   C4B24670  33.936  15.776   7.664
 1746POPC   NC324671  31.512   1.211   9.464
 1746POPC   PO424672  31.522   1.206   9.164
 1746POPC   GL124673  31.514   1.240   8.864
 1746POPC   GL224674  31.519   1.358   8.864
 1746POPC   C1A24675  31.439   1.169   8.564
 1746POPC   D2A24676  31.424   1.254   8.264
 1746POPC   C3A24677  31.480   1.209   7.964
 1746POPC   C4A24678  31.505   1.196   7.664
 1746POPC   C1B24679  31.587   1.453   8.564
 1746POPC   C2B24680  31.590   1.406   8.264
 1746POPC   C3B24681  31.589   1.498   7.964
 1746POPC   C4B24682  31.509   1.496   7.664
 1747POPC   NC324683   3.524  36.913   9.464
 1747POPC   PO424684   3.496  36.906   9.164
 1747POPC   GL124685   3.565  36.873   8.864
 1747POPC   GL224686   3.526  36.833   8.864
 1747POPC   C1A24687   3.514  36.856   8.564
 1747POPC   D2A24688   3.586  36.932   8.264
 1747POPC   C3A24689   3.525  36.922   7.964
 1747POPC   C4A24690   3.575  36.920   7.664
 1747POPC   C1B24691   3.454  36.701   8.564
 1747POPC   C2B24692   3.393  36.735   8.264
 1747POPC   C3B24693   3.414  36.659   7.964
 1747POPC   C4B24694   3.459  36.660   7.664
 1748POPC   NC324695  37.667  29.154   9.464
 1748POPC   PO424696  37.666  29.122   9.164
 1748POPC   GL124697  37.658  29.181   8.864
 1748POPC   GL224698  37.638  29.064   8.864
 1748POPC   C1A24699  37.710  29.194   8.564
 1748POPC   D2A24700  37.719  29.113   8.264
 1748POPC   C3A24701  37.728  29.126   7.964
 1748POPC   C4A24702  37.709  29.118   7.664
 1748POPC   C1B24703  37.626  28.854   8.564
 1748POPC   C2B24704  37.609  28.861   8.264
 1748POPC   C3B24705  37.621  28.872   7.964
 1748POPC   C4B24706  37.648  28.942   7.664
 1749POPC   NC324707  27.583  17.544   9.464
 1749POPC   PO424708  27.549  17.503   9.164
 1749POPC   GL124709  27.576  17.539   8.864
 1749POPC   GL224710  27.573  17.636   8.864
 1749POPC   C1A24711  27.550  17.494   8.564
 1749POPC   D2A24712  27.580  17.535   8.264
 1749POPC   C3A24713  27.602  17.514   7.964
 1749POPC   C4A24714  27.560  17.481   7.664
 1749POPC   C1B24715  27.536  17.726   8.564
 1749POPC   C2B24716  27.567  17.786   8.264
 1749POPC   C3B24717  27.612  17.728   7.964
 1749POPC   C4B24718  27.596  17.805   7.664
 1750POPC   NC324719   6.621  22.188   9.464
 1750POPC   PO424720   6.690  22.198   9.164
 1750POPC   GL124721   6.686  22.204   8.864
 1750POPC   GL224722   6.502  22.127   8.864
 1750POPC   C1A24723   6.596  22.201   8.564
 1750POPC   D2A24724   6.666  22.194   8.264
 1750POPC   C3A24725   6.640  22.128   7.964
 1750POPC   C4A24726   6.661  22.166   7.664
 1750POPC   C1B24727   6.486  22.008   8.564
 1750POPC   C2B24728   6.461  22.059   8.264
 1750POPC   C3B24729   6.405  21.997   7.964
 1750POPC   C4B24730   6.399  21.995   7.664
 1751POPC   NC324731  25.249  39.961   9.464
 1751POPC   PO424732  25.235  40.057   9.164
 1751POPC   GL124733  25.314  39.996   8.864
 1751POPC   GL224734  25.293  40.115   8.864
 1751POPC   C1A24735  25.258  39.978   8.564
 1751POPC   D2A24736  25.238  39.961   8.264
 1751POPC   C3A24737  25.230  40.028   7.964
 1751POPC   C4A24738  25.313  39.958   7.664
 1751POPC   C1B24739  25.379  40.236   8.564
 1751POPC   C2B24740  25.398  40.207   8.264
 1751POPC   C3B24741  25.336  40.212   7.964
 1751POPC   C4B24742  25.346  40.218   7.664
 1752POPC   NC324743  12.813  10.528   9.464
 1752POPC   PO424744  12.892  10.510   9.164
 1752POPC   GL124745  12.808  10.533   8.864
 1752POPC   GL224746  12.737  10.635   8.864
 1752POPC   C1A24747  12.861  10.484   8.564
 1752POPC   D2A24748  12.862  10.507   8.264
 1752POPC   C3A24749  12.834  10.552   7.964
 1752POPC   C4A24750  12.806  10.555   7.664
 1752POPC   C1B24751  12.598  10.618   8.564
 1752POPC   C2B24752  12.604  10.615   8.264
 1752POPC   C3B24753  12.633  10.696   7.964
 1752POPC   C4B24754  12.639  10.642   7.664
 1753POPC   NC324755  35.334   4.304   9.464
 1753POPC   PO424756  35.316   4.279   9.164
 1753POPC   GL124757  35.348   4.301   8.864
 1753POPC   GL224758  35.390   4.475   8.864
 1753POPC   C1A24759  35.311   4.317   8.564
 1753POPC   D2A24760  35.347   4.331   8.264
 1753POPC   C3A24761  35.402   4.306   7.964
 1753POPC   C4A24762  35.308   4.299   7.664
 1753POPC   C1B24763  35.395   4.577   8.564
 1753POPC   C2B24764  35.402   4.614   8.264
 1753POPC   C3B24765  35.327   4.609   7.964
 1753POPC   C4B24766  35.347   4.605   7.664
 1754POPC   NC324767  27.580   4.299   9.464
 1754POPC   PO424768  27.627   4.300   9.164
 1754POPC   GL124769  27.560   4.338   8.864
 1754POPC   GL224770  27.634   4.148   8.864
 1754POPC   C1A24771  27.630   4.293   8.564
 1754POPC   D2A24772  27.557   4.348   8.264
 1754POPC   C3A24773  27.618   4.319   7.964
 1754POPC   C4A24774  27.557   4.305   7.664
 1754POPC   C1B24775  27.698   4.107   8.564
 1754POPC   C2B24776  27.642   4.058   8.264
 1754POPC   C3B24777  27.649   4.115   7.964
 1754POPC   C4B24778  27.605   4.121   7.664
 1755POPC   NC324779  16.737  27.576   9.464
 1755POPC   PO424780  16.737  27.623   9.164
 1755POPC   GL124781  16.727  27.618   8.864
 1755POPC   GL224782  16.810  27.493   8.864
 1755POPC   C1A24783  16.681  27.555   8.564
 1755POPC   D2A24784  16.699  27.546   8.264
 1755POPC   C3A24785  16.707  27.576   7.964
 1755POPC   C4A24786  16.683  27.581   7.664
 1755POPC   C1B24787  16.911  27.488   8.564
 1755POPC   C2B24788  16.997  27.432   8.264
 1755POPC   C3B24789  16.921  27.493   7.964
 1755POPC   C4B24790  16.978  27.515   7.664
 1756POPC   NC324791   6.671   2.765   9.464
 1756POPC   PO424792   6.667   2.796   9.164
 1756POPC   GL124793   6.638   2.804   8.864
 1756POPC   GL224794   6.473   2.798   8.864
 1756POPC   C1A24795   6.633   2.802   8.564
 1756POPC   D2A24796   6.598   2.807   8.264
 1756POPC   C3A24797   6.663   2.728   7.964
 1756POPC   C4A24798   6.641   2.778   7.664
 1756POPC   C1B24799   6.445   2.715   8.564
 1756POPC   C2B24800   6.398   2.746   8.264
 1756POPC   C3B24801   6.444   2.772   7.964
 1756POPC   C4B24802   6.428   2.700   7.664
 1757POPC   NC324803  29.164  15.996   9.464
 1757POPC   PO424804  29.159  15.953   9.164
 1757POPC   GL124805  29.165  15.972   8.864
 1757POPC   GL224806  29.010  15.861   8.864
 1757POPC   C1A24807  29.148  15.972   8.564
 1757POPC   D2A24808  29.099  15.948   8.264
 1757POPC   C3A24809  29.123  15.940   7.964
 1757POPC   C4A24810  29.115  15.972   7.664
 1757POPC   C1B24811  28.943  15.774   8.564
 1757POPC   C2B24812  28.916  15.793   8.264
 1757POPC   C3B24813  28.984  15.740   7.964
 1757POPC   C4B24814  28.990  15.794   7.664
 1758POPC   NC324815  31.431  26.067   9.464
 1758POPC   PO424816  31.474  26.069   9.164
 1758POPC   GL124817  31.517  26.008   8.864
 1758POPC   GL224818  31.380  26.111   8.864
 1758POPC   C1A24819  31.477  26.009   8.564
 1758POPC   D2A24820  31.488  26.062   8.264
 1758POPC   C3A24821  31.447  26.067   7.964
 1758POPC   C4A24822  31.453  26.030   7.664
 1758POPC   C1B24823  31.246  26.254   8.564
 1758POPC   C2B24824  31.323  26.198   8.264
 1758POPC   C3B24825  31.247  26.241   7.964
 1758POPC   C4B24826  31.335  26.198   7.664
 1759POPC   NC324827   8.154  17.458   9.464
 1759POPC   PO424828   8.216  17.530   9.164
 1759POPC   GL124829   8.236  17.549   8.864
 1759POPC   GL224830   8.125  17.559   8.864
 1759POPC   C1A24831   8.216  17.461   8.564
 1759POPC   D2A24832   8.212  17.549   8.264
 1759POPC   C3A24833   8.163  17.546   7.964
 1759POPC   C4A24834   8.156  17.470   7.664
 1759POPC   C1B24835   7.939  17.636   8.564
 1759POPC   C2B24836   7.930  17.642   8.264
 1759POPC   C3B24837   7.997  17.591   7.964
 1759POPC   C4B24838   7.973  17.646   7.664
 1760POPC   NC324839   1.210  24.466   9.464
 1760POPC   PO424840   1.204  24.448   9.164
 1760POPC   GL124841   1.204  24.475   8.864
 1760POPC   GL224842   1.345  24.421   8.864
 1760POPC   C1A24843   1.215  24.458   8.564
 1760POPC   D2A24844   1.166  24.443   8.264
 1760POPC   C3A24845   1.215  24.531   7.964
 1760POPC   C4A24846   1.172  24.481   7.664
 1760POPC   C1B24847   1.394  24.398   8.564
 1760POPC   C2B24848   1.400  24.378   8.264
 1760POPC   C3B24849   1.432  24.380   7.964
 1760POPC   C4B24850   1.452  24.342   7.664
 1761POPC   NC324851  44.659   5.883   9.464
 1761POPC   PO424852  44.646   5.829   9.164
 1761POPC   GL124853  44.613   5.856   8.864
 1761POPC   GL224854  44.539   5.898   8.864
 1761POPC   C1A24855  44.649   5.879   8.564
 1761POPC   D2A24856  44.641   5.908   8.264
 1761POPC   C3A24857  44.665   5.859   7.964
 1761POPC   C4A24858  44.623   5.919   7.664
 1761POPC   C1B24859  44.457   5.849   8.564
 1761POPC   C2B24860  44.398   5.841   8.264
 1761POPC   C3B24861  44.445   5.821   7.964
 1761POPC   C4B24862  44.423   5.841   7.664
 1762POPC   NC324863  39.276   0.435   9.464
 1762POPC   PO424864  39.218   0.430   9.164
 1762POPC   GL124865  39.259   0.403   8.864
 1762POPC   GL224866  39.315   0.446   8.864
 1762POPC   C1A24867  39.268   0.427   8.564
 1762POPC   D2A24868  39.232   0.436   8.264
 1762POPC   C3A24869  39.224   0.406   7.964
 1762POPC   C4A24870  39.246   0.414   7.664
 1762POPC   C1B24871  39.507   0.474   8.564
 1762POPC   C2B24872  39.465   0.447   8.264
 1762POPC   C3B24873  39.475   0.461   7.964
 1762POPC   C4B24874  39.497   0.469   7.664
 1763POPC   NC324875  27.569   1.982   9.464
 1763POPC   PO424876  27.642   2.009   9.164
 1763POPC   GL124877  27.635   2.005   8.864
 1763POPC   GL224878  27.463   1.915   8.864
 1763POPC   C1A24879  27.563   2.031   8.564
 1763POPC   D2A24880  27.610   1.999   8.264
 1763POPC   C3A24881  27.625   2.036   7.964
 1763POPC   C4A24882  27.563   1.953   7.664
 1763POPC   C1B24883  27.326   1.856   8.564
 1763POPC   C2B24884  27.342   1.904   8.264
 1763POPC   C3B24885  27.344   1.896   7.964
 1763POPC   C4B24886  27.390   1.872   7.664
 1764POPC   NC324887  29.149  34.599   9.464
 1764POPC   PO424888  29.182  34.578   9.164
 1764POPC   GL124889  29.124  34.538   8.864
 1764POPC   GL224890  28.990  34.565   8.864
 1764POPC   C1A24891  29.180  34.562   8.564
 1764POPC   D2A24892  29.142  34.560   8.264
 1764POPC   C3A24893  29.154  34.606   7.964
 1764POPC   C4A24894  29.162  34.556   7.664
 1764POPC   C1B24895  28.849  34.586   8.564
 1764POPC   C2B24896  28.897  34.603   8.264
 1764POPC   C3B24897  28.888  34.578   7.964
 1764POPC   C4B24898  28.941  34.555   7.664
 1765POPC   NC324899  33.818  29.122   9.464
 1765POPC   PO424900  33.794  29.095   9.164
 1765POPC   GL124901  33.834  29.098   8.864
 1765POPC   GL224902  33.811  29.252   8.864
 1765POPC   C1A24903  33.818  29.100   8.564
 1765POPC   D2A24904  33.842  29.116   8.264
 1765POPC   C3A24905  33.778  29.115   7.964
 1765POPC   C4A24906  33.797  29.157   7.664
 1765POPC   C1B24907  33.776  29.412   8.564
 1765POPC   C2B24908  33.807  29.383   8.264
 1765POPC   C3B24909  33.774  29.395   7.964
 1765POPC   C4B24910  33.757  29.354   7.664
 1766POPC   NC324911   1.977   0.424   9.464
 1766POPC   PO424912   1.990   0.445   9.164
 1766POPC   GL124913   1.944   0.486   8.864
 1766POPC   GL224914   2.002   0.541   8.864
 1766POPC   C1A24915   1.977   0.474   8.564
 1766POPC   D2A24916   2.021   0.398   8.264
 1766POPC   C3A24917   2.025   0.448   7.964
 1766POPC   C4A24918   2.031   0.401   7.664
 1766POPC   C1B24919   2.043   0.643   8.564
 1766POPC   C2B24920   2.045   0.634   8.264
 1766POPC   C3B24921   2.086   0.692   7.964
 1766POPC   C4B24922   2.091   0.702   7.664
 1767POPC   NC324923  36.160  38.439   9.464
 1767POPC   PO424924  36.176  38.495   9.164
 1767POPC   GL124925  36.148  38.499   8.864
 1767POPC   GL224926  36.141  38.384   8.864
 1767POPC   C1A24927  36.171  38.476   8.564
 1767POPC   D2A24928  36.092  38.505   8.264
 1767POPC   C3A24929  36.123  38.486   7.964
 1767POPC   C4A24930  36.154  38.426   7.664
 1767POPC   C1B24931  36.176  38.234   8.564
 1767POPC   C2B24932  36.219  38.241   8.264
 1767POPC   C3B24933  36.203  38.220   7.964
 1767POPC   C4B24934  36.208  38.269   7.664
 1768POPC   NC324935   1.981  21.365   9.464
 1768POPC   PO424936   1.964  21.401   9.164
 1768POPC   GL124937   1.998  21.376   8.864
 1768POPC   GL224938   1.890  21.388   8.864
 1768POPC   C1A24939   1.982  21.372   8.564
 1768POPC   D2A24940   1.973  21.433   8.264
 1768POPC   C3A24941   1.957  21.374   7.964
 1768POPC   C4A24942   2.008  21.345   7.664
 1768POPC   C1B24943   1.775  21.356   8.564
 1768POPC   C2B24944   1.728  21.370   8.264
 1768POPC   C3B24945   1.776  21.367   7.964
 1768POPC   C4B24946   1.769  21.335   7.664
 1769POPC   NC324947   9.020   5.838   9.464
 1769POPC   PO424948   8.986   5.821   9.164
 1769POPC   GL124949   8.929   5.893   8.864
 1769POPC   GL224950   9.036   5.761   8.864
 1769POPC   C1A24951   9.011   5.911   8.564
 1769POPC   D2A24952   8.958   5.891   8.264
 1769POPC   C3A24953   8.945   5.824   7.964
 1769POPC   C4A24954   9.006   5.894   7.664
 1769POPC   C1B24955   9.058   5.641   8.564
 1769POPC   C2B24956   9.005   5.615   8.264
 1769POPC   C3B24957   9.022   5.630   7.964
 1769POPC   C4B24958   9.006   5.603   7.664
 1770POPC   NC324959  33.040  10.542   9.464
 1770POPC   PO424960  32.980  10.558   9.164
 1770POPC   GL124961  33.040  10.570   8.864
 1770POPC   GL224962  33.117  10.620   8.864
 1770POPC   C1A24963  33.051  10.523   8.564
 1770POPC   D2A24964  33.040  10.532   8.264
 1770POPC   C3A24965  33.012  10.520   7.964
 1770POPC   C4A24966  33.020  10.483   7.664
 1770POPC   C1B24967  33.186  10.736   8.564
 1770POPC   C2B24968  33.240  10.732   8.264
 1770POPC   C3B24969  33.243  10.711   7.964
 1770POPC   C4B24970  33.175  10.733   7.664
 1771POPC   NC324971   5.065   3.573   9.464
 1771POPC   PO424972   5.088   3.541   9.164
 1771POPC   GL124973   5.104   3.538   8.864
 1771POPC   GL224974   5.233   3.450   8.864
 1771POPC   C1A24975   5.081   3.556   8.564
 1771POPC   D2A24976   5.065   3.561   8.264
 1771POPC   C3A24977   5.110   3.564   7.964
 1771POPC   C4A24978   5.120   3.508   7.664
 1771POPC   C1B24979   5.255   3.405   8.564
 1771POPC   C2B24980   5.242   3.366   8.264
 1771POPC   C3B24981   5.262   3.337   7.964
 1771POPC   C4B24982   5.234   3.323   7.664
 1772POPC   NC324983  32.291  27.567   9.464
 1772POPC   PO424984  32.205  27.594   9.164
 1772POPC   GL124985  32.232  27.557   8.864
 1772POPC   GL224986  32.341  27.543   8.864
 1772POPC   C1A24987  32.224  27.634   8.564
 1772POPC   D2A24988  32.214  27.623   8.264
 1772POPC   C3A24989  32.295  27.595   7.964
 1772POPC   C4A24990  32.292  27.551   7.664
 1772POPC   C1B24991  32.486  27.460   8.564
 1772POPC   C2B24992  32.486  27.469   8.264
 1772POPC   C3B24993  32.506  27.450   7.964
 1772POPC   C4B24994  32.410  27.412   7.664
 1773POPC   NC324995  16.722  44.643   9.464
 1773POPC   PO424996  16.699  44.628   9.164
 1773POPC   GL124997  16.775  44.645   8.864
 1773POPC   GL224998  16.564  44.661   8.864
 1773POPC   C1A24999  16.760  44.622   8.564
 1773POPC   D2A25000  16.685  44.635   8.264
 1773POPC   C3A25001  16.756  44.700   7.964
 1773POPC   C4A25002  16.728  44.685   7.664
 1773POPC   C1B25003  16.456  44.699   8.564
 1773POPC   C2B25004  16.521  44.735   8.264
 1773POPC   C3B25005  16.503  44.718   7.964
 1773POPC   C4B25006  16.518  44.715   7.664
 1774POPC   NC325007  32.227   1.208   9.464
 1774POPC   PO425008  32.250   1.184   9.164
 1774POPC   GL125009  32.233   1.226   8.864
 1774POPC   GL225010  32.305   1.292   8.864
 1774POPC   C1A25011  32.200   1.197   8.564
 1774POPC   D2A25012  32.254   1.213   8.264
 1774POPC   C3A25013  32.273   1.259   7.964
 1774POPC   C4A25014  32.263   1.234   7.664
 1774POPC   C1B25015  32.278   1.453   8.564
 1774POPC   C2B25016  32.283   1.418   8.264
 1774POPC   C3B25017  32.307   1.447   7.964
 1774POPC   C4B25018  32.347   1.471   7.664
 1775POPC   NC325019  38.477  15.924   9.464
 1775POPC   PO425020  38.413  15.949   9.164
 1775POPC   GL125021  38.493  15.984   8.864
 1775POPC   GL225022  38.600  15.861   8.864
 1775POPC   C1A25023  38.491  15.931   8.564
 1775POPC   D2A25024  38.438  15.965   8.264
 1775POPC   C3A25025  38.429  15.974   7.964
 1775POPC   C4A25026  38.485  15.944   7.664
 1775POPC   C1B25027  38.634  15.858   8.564
 1775POPC   C2B25028  38.666  15.853   8.264
 1775POPC   C3B25029  38.650  15.801   7.964
 1775POPC   C4B25030  38.634  15.775   7.664
 1776POPC   NC325031  14.410  25.277   9.464
 1776POPC   PO425032  14.437  25.241   9.164
 1776POPC   GL125033  14.426  25.276   8.864
 1776POPC   GL225034  14.256  25.160   8.864
 1776POPC   C1A25035  14.387  25.240   8.564
 1776POPC   D2A25036  14.389  25.221   8.264
 1776POPC   C3A25037  14.381  25.267   7.964
 1776POPC   C4A25038  14.433  25.268   7.664
 1776POPC   C1B25039  14.237  25.140   8.564
 1776POPC   C2B25040  14.247  25.078   8.264
 1776POPC   C3B25041  14.222  25.142   7.964
 1776POPC   C4B25042  14.186  25.160   7.664
 1777POPC   NC325043  42.365  24.442   9.464
 1777POPC   PO425044  42.359  24.457   9.164
 1777POPC   GL125045  42.363  24.456   8.864
 1777POPC   GL225046  42.215  24.368   8.864
 1777POPC   C1A25047  42.343  24.459   8.564
 1777POPC   D2A25048  42.322  24.476   8.264
 1777POPC   C3A25049  42.330  24.482   7.964
 1777POPC   C4A25050  42.366  24.513   7.664
 1777POPC   C1B25051  42.182  24.254   8.564
 1777POPC   C2B25052  42.202  24.327   8.264
 1777POPC   C3B25053  42.160  24.273   7.964
 1777POPC   C4B25054  42.140  24.296   7.664
 1778POPC   NC325055  18.327  42.383   9.464
 1778POPC   PO425056  18.296  42.340   9.164
 1778POPC   GL125057  18.323  42.352   8.864
 1778POPC   GL225058  18.396  42.254   8.864
 1778POPC   C1A25059  18.295  42.331   8.564
 1778POPC   D2A25060  18.327  42.325   8.264
 1778POPC   C3A25061  18.281  42.336   7.964
 1778POPC   C4A25062  18.315  42.359   7.664
 1778POPC   C1B25063  18.554  42.245   8.564
 1778POPC   C2B25064  18.554  42.290   8.264
 1778POPC   C3B25065  18.507  42.203   7.964
 1778POPC   C4B25066  18.548  42.292   7.664
 1779POPC   NC325067  26.824   7.391   9.464
 1779POPC   PO425068  26.826   7.382   9.164
 1779POPC   GL125069  26.800   7.458   8.864
 1779POPC   GL225070  26.921   7.284   8.864
 1779POPC   C1A25071  26.814   7.379   8.564
 1779POPC   D2A25072  26.827   7.403   8.264
 1779POPC   C3A25073  26.798   7.467   7.964
 1779POPC   C4A25074  26.863   7.453   7.664
 1779POPC   C1B25075  26.890   7.160   8.564
 1779POPC   C2B25076  26.926   7.222   8.264
 1779POPC   C3B25077  26.924   7.191   7.964
 1779POPC   C4B25078  26.944   7.163   7.664
 1780POPC   NC325079  31.454  26.844   9.464
 1780POPC   PO425080  31.467  26.856   9.164
 1780POPC   GL125081  31.511  26.767   8.864
 1780POPC   GL225082  31.413  26.767   8.864
 1780POPC   C1A25083  31.470  26.804   8.564
 1780POPC   D2A25084  31.458  26.815   8.264
 1780POPC   C3A25085  31.502  26.795   7.964
 1780POPC   C4A25086  31.516  26.866   7.664
 1780POPC   C1B25087  31.270  26.678   8.564
 1780POPC   C2B25088  31.246  26.648   8.264
 1780POPC   C3B25089  31.251  26.637   7.964
 1780POPC   C4B25090  31.275  26.615   7.664
 1781POPC   NC325091   3.543  24.521   9.464
 1781POPC   PO425092   3.499  24.519   9.164
 1781POPC   GL125093   3.590  24.441   8.864
 1781POPC   GL225094   3.521  24.347   8.864
 1781POPC   C1A25095   3.508  24.522   8.564
 1781POPC   D2A25096   3.545  24.441   8.264
 1781POPC   C3A25097   3.505  24.467   7.964
 1781POPC   C4A25098   3.499  24.464   7.664
 1781POPC   C1B25099   3.618  24.210   8.564
 1781POPC   C2B25100   3.594  24.276   8.264
 1781POPC   C3B25101   3.614  24.194   7.964
 1781POPC   C4B25102   3.632  24.252   7.664
 1782POPC   NC325103  41.518  15.201   9.464
 1782POPC   PO425104  41.552  15.210   9.164
 1782POPC   GL125105  41.601  15.204   8.864
 1782POPC   GL225106  41.531  15.279   8.864
 1782POPC   C1A25107  41.591  15.221   8.564
 1782POPC   D2A25108  41.579  15.208   8.264
 1782POPC   C3A25109  41.522  15.132   7.964
 1782POPC   C4A25110  41.556  15.154   7.664
 1782POPC   C1B25111  41.551  15.400   8.564
 1782POPC   C2B25112  41.569  15.398   8.264
 1782POPC   C3B25113  41.587  15.408   7.964
 1782POPC   C4B25114  41.584  15.434   7.664
 1783POPC   NC325115  26.059  39.198   9.464
 1783POPC   PO425116  25.994  39.210   9.164
 1783POPC   GL125117  26.079  39.236   8.864
 1783POPC   GL225118  26.190  39.165   8.864
 1783POPC   C1A25119  26.009  39.192   8.564
 1783POPC   D2A25120  26.047  39.236   8.264
 1783POPC   C3A25121  26.071  39.242   7.964
 1783POPC   C4A25122  26.016  39.267   7.664
 1783POPC   C1B25123  26.253  39.123   8.564
 1783POPC   C2B25124  26.295  39.099   8.264
 1783POPC   C3B25125  26.232  39.060   7.964
 1783POPC   C4B25126  26.281  39.098   7.664
 1784POPC   NC325127   1.166   5.843   9.464
 1784POPC   PO425128   1.197   5.896   9.164
 1784POPC   GL125129   1.246   5.904   8.864
 1784POPC   GL225130   1.130   5.827   8.864
 1784POPC   C1A25131   1.239   5.848   8.564
 1784POPC   D2A25132   1.186   5.821   8.264
 1784POPC   C3A25133   1.164   5.882   7.964
 1784POPC   C4A25134   1.238   5.896   7.664
 1784POPC   C1B25135   0.961   5.757   8.564
 1784POPC   C2B25136   0.963   5.757   8.264
 1784POPC   C3B25137   1.040   5.717   7.964
 1784POPC   C4B25138   0.986   5.721   7.664
 1785POPC   NC325139  27.591  11.257   9.464
 1785POPC   PO425140  27.630  11.282   9.164
 1785POPC   GL125141  27.615  11.277   8.864
 1785POPC   GL225142  27.606  11.384   8.864
 1785POPC   C1A25143  27.568  11.310   8.564
 1785POPC   D2A25144  27.613  11.287   8.264
 1785POPC   C3A25145  27.617  11.312   7.964
 1785POPC   C4A25146  27.621  11.305   7.664
 1785POPC   C1B25147  27.611  11.578   8.564
 1785POPC   C2B25148  27.548  11.506   8.264
 1785POPC   C3B25149  27.560  11.592   7.964
 1785POPC   C4B25150  27.607  11.582   7.664
 1786POPC   NC325151   6.610  36.142   9.464
 1786POPC   PO425152   6.665  36.134   9.164
 1786POPC   GL125153   6.603  36.107   8.864
 1786POPC   GL225154   6.642  36.294   8.864
 1786POPC   C1A25155   6.618  36.154   8.564
 1786POPC   D2A25156   6.674  36.158   8.264
 1786POPC   C3A25157   6.628  36.128   7.964
 1786POPC   C4A25158   6.688  36.120   7.664
 1786POPC   C1B25159   6.765  36.340   8.564
 1786POPC   C2B25160   6.735  36.329   8.264
 1786POPC   C3B25161   6.706  36.378   7.964
 1786POPC   C4B25162   6.761  36.404   7.664
 1787POPC   NC325163  39.989  19.880   9.464
 1787POPC   PO425164  40.035  19.869   9.164
 1787POPC   GL125165  40.055  19.813   8.864
 1787POPC   GL225166  40.031  19.732   8.864
 1787POPC   C1A25167  40.036  19.853   8.564
 1787POPC   D2A25168  39.999  19.842   8.264
 1787POPC   C3A25169  40.043  19.789   7.964
 1787POPC   C4A25170  40.025  19.791   7.664
 1787POPC   C1B25171  39.991  19.634   8.564
 1787POPC   C2B25172  39.950  19.618   8.264
 1787POPC   C3B25173  39.972  19.591   7.964
 1787POPC   C4B25174  40.020  19.569   7.664
 1788POPC   NC325175  31.472  12.070   9.464
 1788POPC   PO425176  31.429  12.050   9.164
 1788POPC   GL125177  31.498  12.108   8.864
 1788POPC   GL225178  31.573  12.011   8.864
 1788POPC   C1A25179  31.455  12.030   8.564
 1788POPC   D2A25180  31.435  12.063   8.264
 1788POPC   C3A25181  31.448  12.070   7.964
 1788POPC   C4A25182  31.466  12.077   7.664
 1788POPC   C1B25183  31.612  11.825   8.564
 1788POPC   C2B25184  31.617  11.902   8.264
 1788POPC   C3B25185  31.618  11.866   7.964
 1788POPC   C4B25186  31.578  11.837   7.664
 1789POPC   NC325187  42.301  33.835   9.464
 1789POPC   PO425188  42.319  33.835   9.164
 1789POPC   GL125189  42.358  33.761   8.864
 1789POPC   GL225190  42.489  33.727   8.864
 1789POPC   C1A25191  42.353  33.827   8.564
 1789POPC   D2A25192  42.340  33.826   8.264
 1789POPC   C3A25193  42.378  33.808   7.964
 1789POPC   C4A25194  42.373  33.754   7.664
 1789POPC   C1B25195  42.531  33.779   8.564
 1789POPC   C2B25196  42.530  33.774   8.264
 1789POPC   C3B25197  42.547  33.753   7.964
 1789POPC   C4B25198  42.612  33.776   7.664
 1790POPC   NC325199  12.089  19.015   9.464
 1790POPC   PO425200  12.042  19.020   9.164
 1790POPC   GL125201  12.118  19.077   8.864
 1790POPC   GL225202  11.961  18.904   8.864
 1790POPC   C1A25203  12.031  19.082   8.564
 1790POPC   D2A25204  12.045  19.074   8.264
 1790POPC   C3A25205  12.066  19.080   7.964
 1790POPC   C4A25206  12.114  19.053   7.664
 1790POPC   C1B25207  11.915  18.813   8.564
 1790POPC   C2B25208  11.899  18.882   8.264
 1790POPC   C3B25209  11.905  18.810   7.964
 1790POPC   C4B25210  11.946  18.884   7.664
 1791POPC   NC325211  19.790  26.829   9.464
 1791POPC   PO425212  19.880  26.820   9.164
 1791POPC   GL125213  19.820  26.854   8.864
 1791POPC   GL225214  19.888  26.670   8.864
 1791POPC   C1A25215  19.820  26.841   8.564
 1791POPC   D2A25216  19.816  26.842   8.264
 1791POPC   C3A25217  19.822  26.790   7.964
 1791POPC   C4A25218  19.844  26.807   7.664
 1791POPC   C1B25219  19.873  26.613   8.564
 1791POPC   C2B25220  19.962  26.573   8.264
 1791POPC   C3B25221  19.960  26.557   7.964
 1791POPC   C4B25222  19.902  26.555   7.664
 1792POPC   NC325223  24.466   6.658   9.464
 1792POPC   PO425224  24.471   6.609   9.164
 1792POPC   GL125225  24.513   6.605   8.864
 1792POPC   GL225226  24.560   6.748   8.864
 1792POPC   C1A25227  24.466   6.680   8.564
 1792POPC   D2A25228  24.522   6.623   8.264
 1792POPC   C3A25229  24.470   6.627   7.964
 1792POPC   C4A25230  24.450   6.675   7.664
 1792POPC   C1B25231  24.652   6.815   8.564
 1792POPC   C2B25232  24.659   6.811   8.264
 1792POPC   C3B25233  24.671   6.841   7.964
 1792POPC   C4B25234  24.662   6.840   7.664
 1793POPC   NC325235   4.350  33.057   9.464
 1793POPC   PO425236   4.315  33.007   9.164
 1793POPC   GL125237   4.338  32.986   8.864
 1793POPC   GL225238   4.479  32.970   8.864
 1793POPC   C1A25239   4.326  33.011   8.564
 1793POPC   D2A25240   4.352  33.056   8.264
 1793POPC   C3A25241   4.323  33.018   7.964
 1793POPC   C4A25242   4.329  33.037   7.664
 1793POPC   C1B25243   4.513  32.998   8.564
 1793POPC   C2B25244   4.520  32.903   8.264
 1793POPC   C3B25245   4.516  32.913   7.964
 1793POPC   C4B25246   4.524  32.988   7.664
 1794POPC   NC325247  30.673  11.320   9.464
 1794POPC   PO425248  30.651  11.333   9.164
 1794POPC   GL125249  30.722  11.319   8.864
 1794POPC   GL225250  30.795  11.238   8.864
 1794POPC   C1A25251  30.651  11.302   8.564
 1794POPC   D2A25252  30.703  11.264   8.264
 1794POPC   C3A25253  30.723  11.340   7.964
 1794POPC   C4A25254  30.681  11.335   7.664
 1794POPC   C1B25255  30.839  11.049   8.564
 1794POPC   C2B25256  30.830  11.134   8.264
 1794POPC   C3B25257  30.867  11.101   7.964
 1794POPC   C4B25258  30.813  11.112   7.664
 1795POPC   NC325259  14.423  11.285   9.464
 1795POPC   PO425260  14.400  11.297   9.164
 1795POPC   GL125261  14.428  11.256   8.864
 1795POPC   GL225262  14.492  11.232   8.864
 1795POPC   C1A25263  14.396  11.290   8.564
 1795POPC   D2A25264  14.411  11.277   8.264
 1795POPC   C3A25265  14.431  11.349   7.964
 1795POPC   C4A25266  14.378  11.331   7.664
 1795POPC   C1B25267  14.666  11.263   8.564
 1795POPC   C2B25268  14.658  11.196   8.264
 1795POPC   C3B25269  14.617  11.182   7.964
 1795POPC   C4B25270  14.613  11.262   7.664
 1796POPC   NC325271  35.396  26.802   9.464
 1796POPC   PO425272  35.372  26.814   9.164
 1796POPC   GL125273  35.358  26.842   8.864
 1796POPC   GL225274  35.405  26.738   8.864
 1796POPC   C1A25275  35.373  26.854   8.564
 1796POPC   D2A25276  35.335  26.775   8.264
 1796POPC   C3A25277  35.384  26.866   7.964
 1796POPC   C4A25278  35.364  26.794   7.664
 1796POPC   C1B25279  35.521  26.663   8.564
 1796POPC   C2B25280  35.481  26.620   8.264
 1796POPC   C3B25281  35.572  26.614   7.964
 1796POPC   C4B25282  35.475  26.612   7.664
 1797POPC   NC325283  23.712   4.325   9.464
 1797POPC   PO425284  23.711   4.298   9.164
 1797POPC   GL125285  23.721   4.352   8.864
 1797POPC   GL225286  23.841   4.276   8.864
 1797POPC   C1A25287  23.664   4.331   8.564
 1797POPC   D2A25288  23.722   4.321   8.264
 1797POPC   C3A25289  23.748   4.347   7.964
 1797POPC   C4A25290  23.740   4.347   7.664
 1797POPC   C1B25291  23.939   4.256   8.564
 1797POPC   C2B25292  23.973   4.262   8.264
 1797POPC   C3B25293  23.914   4.253   7.964
 1797POPC   C4B25294  23.980   4.269   7.664
 1798POPC   NC325295  17.458  35.369   9.464
 1798POPC   PO425296  17.520  35.364   9.164
 1798POPC   GL125297  17.488  35.303   8.864
 1798POPC   GL225298  17.569  35.509   8.864
 1798POPC   C1A25299  17.495  35.387   8.564
 1798POPC   D2A25300  17.481  35.385   8.264
 1798POPC   C3A25301  17.463  35.369   7.964
 1798POPC   C4A25302  17.458  35.321   7.664
 1798POPC   C1B25303  17.646  35.600   8.564
 1798POPC   C2B25304  17.671  35.607   8.264
 1798POPC   C3B25305  17.627  35.605   7.964
 1798POPC   C4B25306  17.606  35.593   7.664
 1799POPC   NC325307  40.054  20.644   9.464
 1799POPC   PO425308  40.056  20.640   9.164
 1799POPC   GL125309  40.016  20.562   8.864
 1799POPC   GL225310  40.049  20.468   8.864
 1799POPC   C1A25311  39.958  20.630   8.564
 1799POPC   D2A25312  40.049  20.641   8.264
 1799POPC   C3A25313  40.031  20.628   7.964
 1799POPC   C4A25314  40.025  20.631   7.664
 1799POPC   C1B25315  40.041  20.335   8.564
 1799POPC   C2B25316  40.121  20.326   8.264
 1799POPC   C3B25317  40.094  20.414   7.964
 1799POPC   C4B25318  40.128  20.394   7.664
 1800POPC   NC325319  22.164   5.835   9.464
 1800POPC   PO425320  22.202   5.859   9.164
 1800POPC   GL125321  22.208   5.873   8.864
 1800POPC   GL225322  22.261   5.734   8.864
 1800POPC   C1A25323  22.143   5.890   8.564
 1800POPC   D2A25324  22.140   5.872   8.264
 1800POPC   C3A25325  22.145   5.868   7.964
 1800POPC   C4A25326  22.123   5.851   7.664
 1800POPC   C1B25327  22.302   5.702   8.564
 1800POPC   C2B25328  22.341   5.617   8.264
 1800POPC   C3B25329  22.316   5.636   7.964
 1800POPC   C4B25330  22.344   5.660   7.664
 1801POPC   NC325331  25.269  36.095   9.464
 1801POPC   PO425332  25.231  36.144   9.164
 1801POPC   GL125333  25.243  36.125   8.864
 1801POPC   GL225334  25.158  36.150   8.864
 1801POPC   C1A25335  25.247  36.134   8.564
 1801POPC   D2A25336  25.238  36.140   8.264
 1801POPC   C3A25337  25.282  36.165   7.964
 1801POPC   C4A25338  25.293  36.138   7.664
 1801POPC   C1B25339  25.036  36.136   8.564
 1801POPC   C2B25340  25.063  36.125   8.264
 1801POPC   C3B25341  25.026  36.093   7.964
 1801POPC   C4B25342  24.999  36.183   7.664
 1802POPC   NC325343  36.943  15.197   9.464
 1802POPC   PO425344  36.878  15.193   9.164
 1802POPC   GL125345  36.930  15.206   8.864
 1802POPC   GL225346  36.889  15.109   8.864
 1802POPC   C1A25347  36.953  15.182   8.564
 1802POPC   D2A25348  36.856  15.159   8.264
 1802POPC   C3A25349  36.896  15.195   7.964
 1802POPC   C4A25350  36.947  15.217   7.664
 1802POPC   C1B25351  36.807  14.925   8.564
 1802POPC   C2B25352  36.726  14.969   8.264
 1802POPC   C3B25353  36.746  15.001   7.964
 1802POPC   C4B25354  36.821  15.002   7.664
 1803POPC   NC325355  40.026  30.698   9.464
 1803POPC   PO425356  39.995  30.733   9.164
 1803POPC   GL125357  40.049  30.727   8.864
 1803POPC   GL225358  40.058  30.797   8.864
 1803POPC   C1A25359  39.994  30.700   8.564
 1803POPC   D2A25360  40.019  30.736   8.264
 1803POPC   C3A25361  40.038  30.648   7.964
 1803POPC   C4A25362  39.981  30.685   7.664
 1803POPC   C1B25363  40.195  30.881   8.564
 1803POPC   C2B25364  40.223  30.861   8.264
 1803POPC   C3B25365  40.153  30.837   7.964
 1803POPC   C4B25366  40.144  30.906   7.664
 1804POPC   NC325367   8.154  12.847   9.464
 1804POPC   PO425368   8.151  12.826   9.164
 1804POPC   GL125369   8.164  12.803   8.864
 1804POPC   GL225370   8.155  12.728   8.864
 1804POPC   C1A25371   8.221  12.879   8.564
 1804POPC   D2A25372   8.190  12.808   8.264
 1804POPC   C3A25373   8.160  12.822   7.964
 1804POPC   C4A25374   8.160  12.826   7.664
 1804POPC   C1B25375   8.098  12.641   8.564
 1804POPC   C2B25376   8.103  12.577   8.264
 1804POPC   C3B25377   8.081  12.617   7.964
 1804POPC   C4B25378   8.084  12.643   7.664
 1805POPC   NC325379   1.941   9.011   9.464
 1805POPC   PO425380   2.027   8.936   9.164
 1805POPC   GL125381   1.968   8.963   8.864
 1805POPC   GL225382   2.061   8.939   8.864
 1805POPC   C1A25383   1.982   9.008   8.564
 1805POPC   D2A25384   1.951   9.011   8.264
 1805POPC   C3A25385   2.027   8.939   7.964
 1805POPC   C4A25386   1.976   8.969   7.664
 1805POPC   C1B25387   2.158   8.809   8.564
 1805POPC   C2B25388   2.222   8.842   8.264
 1805POPC   C3B25389   2.159   8.833   7.964
 1805POPC   C4B25390   2.223   8.816   7.664
 1806POPC   NC325391  33.066   3.542   9.464
 1806POPC   PO425392  33.002   3.510   9.164
 1806POPC   GL125393  32.982   3.495   8.864
 1806POPC   GL225394  33.089   3.446   8.864
 1806POPC   C1A25395  33.000   3.520   8.564
 1806POPC   D2A25396  33.062   3.500   8.264
 1806POPC   C3A25397  33.044   3.517   7.964
 1806POPC   C4A25398  33.064   3.545   7.664
 1806POPC   C1B25399  33.210   3.397   8.564
 1806POPC   C2B25400  33.169   3.395   8.264
 1806POPC   C3B25401  33.235   3.317   7.964
 1806POPC   C4B25402  33.221   3.343   7.664
 1807POPC   NC325403   5.111  21.374   9.464
 1807POPC   PO425404   5.126  21.378   9.164
 1807POPC   GL125405   5.124  21.355   8.864
 1807POPC   GL225406   4.956  21.346   8.864
 1807POPC   C1A25407   5.124  21.403   8.564
 1807POPC   D2A25408   5.125  21.403   8.264
 1807POPC   C3A25409   5.118  21.387   7.964
 1807POPC   C4A25410   5.141  21.374   7.664
 1807POPC   C1B25411   4.828  21.408   8.564
 1807POPC   C2B25412   4.825  21.427   8.264
 1807POPC   C3B25413   4.827  21.426   7.964
 1807POPC   C4B25414   4.807  21.368   7.664
 1808POPC   NC325415  29.172  13.582   9.464
 1808POPC   PO425416  29.114  13.585   9.164
 1808POPC   GL125417  29.135  13.676   8.864
 1808POPC   GL225418  29.186  13.489   8.864
 1808POPC   C1A25419  29.139  13.666   8.564
 1808POPC   D2A25420  29.191  13.620   8.264
 1808POPC   C3A25421  29.109  13.633   7.964
 1808POPC   C4A25422  29.190  13.657   7.664
 1808POPC   C1B25423  29.296  13.367   8.564
 1808POPC   C2B25424  29.280  13.361   8.264
 1808POPC   C3B25425  29.232  13.353   7.964
 1808POPC   C4B25426  29.255  13.399   7.664
 1809POPC   NC325427  25.229  21.395   9.464
 1809POPC   PO425428  25.256  21.407   9.164
 1809POPC   GL125429  25.246  21.371   8.864
 1809POPC   GL225430  25.154  21.411   8.864
 1809POPC   C1A25431  25.252  21.357   8.564
 1809POPC   D2A25432  25.279  21.383   8.264
 1809POPC   C3A25433  25.228  21.345   7.964
 1809POPC   C4A25434  25.258  21.348   7.664
 1809POPC   C1B25435  25.057  21.492   8.564
 1809POPC   C2B25436  25.029  21.417   8.264
 1809POPC   C3B25437  25.043  21.495   7.964
 1809POPC   C4B25438  24.998  21.425   7.664
 1810POPC   NC325439  31.500  44.673   9.464
 1810POPC   PO425440  31.429  44.659   9.164
 1810POPC   GL125441  31.517  44.667   8.864
 1810POPC   GL225442  31.405  44.610   8.864
 1810POPC   C1A25443  31.451  44.614   8.564
 1810POPC   D2A25444  31.461  44.616   8.264
 1810POPC   C3A25445  31.485  44.627   7.964
 1810POPC   C4A25446  31.433  44.699   7.664
 1810POPC   C1B25447  31.295  44.500   8.564
 1810POPC   C2B25448  31.341  44.441   8.264
 1810POPC   C3B25449  31.262  44.433   7.964
 1810POPC   C4B25450  31.289  44.496   7.664
 1811POPC   NC325451  43.875  25.269   9.464
 1811POPC   PO425452  43.903  25.301   9.164
 1811POPC   GL125453  43.909  25.226   8.864
 1811POPC   GL225454  43.953  25.378   8.864
 1811POPC   C1A25455  43.887  25.293   8.564
 1811POPC   D2A25456  43.926  25.247   8.264
 1811POPC   C3A25457  43.936  25.309   7.964
 1811POPC   C4A25458  43.860  25.247   7.664
 1811POPC   C1B25459  44.046  25.437   8.564
 1811POPC   C2B25460  44.076  25.417   8.264
 1811POPC   C3B25461  44.057  25.499   7.964
 1811POPC   C4B25462  44.018  25.433   7.664
 1812POPC   NC325463  17.528  38.426   9.464
 1812POPC   PO425464  17.484  38.455   9.164
 1812POPC   GL125465  17.528  38.456   8.864
 1812POPC   GL225466  17.520  38.383   8.864
 1812POPC   C1A25467  17.520  38.465   8.564
 1812POPC   D2A25468  17.549  38.476   8.264
 1812POPC   C3A25469  17.463  38.488   7.964
 1812POPC   C4A25470  17.480  38.441   7.664
 1812POPC   C1B25471  17.543  38.164   8.564
 1812POPC   C2B25472  17.604  38.200   8.264
 1812POPC   C3B25473  17.610  38.257   7.964
 1812POPC   C4B25474  17.538  38.221   7.664
 1813POPC   NC325475  22.132  39.204   9.464
 1813POPC   PO425476  22.173  39.195   9.164
 1813POPC   GL125477  22.119  39.182   8.864
 1813POPC   GL225478  22.047  39.235   8.864
 1813POPC   C1A25479  22.203  39.251   8.564
 1813POPC   D2A25480  22.212  39.239   8.264
 1813POPC   C3A25481  22.152  39.208   7.964
 1813POPC   C4A25482  22.203  39.269   7.664
 1813POPC   C1B25483  21.940  39.297   8.564
 1813POPC   C2B25484  21.941  39.303   8.264
 1813POPC   C3B25485  21.959  39.360   7.964
 1813POPC   C4B25486  21.928  39.276   7.664
 1814POPC   NC325487  39.228   3.520   9.464
 1814POPC   PO425488  39.249   3.559   9.164
 1814POPC   GL125489  39.191   3.571   8.864
 1814POPC   GL225490  39.146   3.609   8.864
 1814POPC   C1A25491  39.183   3.518   8.564
 1814POPC   D2A25492  39.239   3.498   8.264
 1814POPC   C3A25493  39.276   3.516   7.964
 1814POPC   C4A25494  39.259   3.517   7.664
 1814POPC   C1B25495  38.977   3.625   8.564
 1814POPC   C2B25496  39.030   3.636   8.264
 1814POPC   C3B25497  38.985   3.597   7.964
 1814POPC   C4B25498  38.989   3.639   7.664
 1815POPC   NC325499  22.924  34.617   9.464
 1815POPC   PO425500  22.950  34.530   9.164
 1815POPC   GL125501  22.970  34.605   8.864
 1815POPC   GL225502  23.039  34.515   8.864
 1815POPC   C1A25503  22.977  34.603   8.564
 1815POPC   D2A25504  22.967  34.617   8.264
 1815POPC   C3A25505  22.946  34.543   7.964
 1815POPC   C4A25506  22.918  34.563   7.664
 1815POPC   C1B25507  23.155  34.416   8.564
 1815POPC   C2B25508  23.190  34.463   8.264
 1815POPC   C3B25509  23.135  34.467   7.964
 1815POPC   C4B25510  23.132  34.409   7.664
 1816POPC   NC325511  22.968   4.313   9.464
 1816POPC   PO425512  22.906   4.297   9.164
 1816POPC   GL125513  22.930   4.286   8.864
 1816POPC   GL225514  23.007   4.336   8.864
 1816POPC   C1A25515  22.977   4.287   8.564
 1816POPC   D2A25516  22.931   4.270   8.264
 1816POPC   C3A25517  22.905   4.311   7.964
 1816POPC   C4A25518  22.950   4.324   7.664
 1816POPC   C1B25519  23.165   4.361   8.564
 1816POPC   C2B25520  23.162   4.384   8.264
 1816POPC   C3B25521  23.159   4.367   7.964
 1816POPC   C4B25522  23.222   4.439   7.664
 1817POPC   NC325523  34.574  29.963   9.464
 1817POPC   PO425524  34.594  29.893   9.164
 1817POPC   GL125525  34.533  29.909   8.864
 1817POPC   GL225526  34.712  29.937   8.864
 1817POPC   C1A25527  34.597  29.955   8.564
 1817POPC   D2A25528  34.571  29.955   8.264
 1817POPC   C3A25529  34.599  29.919   7.964
 1817POPC   C4A25530  34.622  29.945   7.664
 1817POPC   C1B25531  34.839  30.000   8.564
 1817POPC   C2B25532  34.813  30.003   8.264
 1817POPC   C3B25533  34.837  30.000   7.964
 1817POPC   C4B25534  34.822  29.963   7.664
 1818POPC   NC325535  23.754  33.849   9.464
 1818POPC   PO425536  23.726  33.795   9.164
 1818POPC   GL125537  23.731  33.765   8.864
 1818POPC   GL225538  23.759  33.898   8.864
 1818POPC   C1A25539  23.724  33.803   8.564
 1818POPC   D2A25540  23.721  33.813   8.264
 1818POPC   C3A25541  23.760  33.754   7.964
 1818POPC   C4A25542  23.674  33.771   7.664
 1818POPC   C1B25543  23.892  33.994   8.564
 1818POPC   C2B25544  23.873  33.965   8.264
 1818POPC   C3B25545  23.810  33.986   7.964
 1818POPC   C4B25546  23.899  33.994   7.664
 1819POPC   NC325547   3.541  20.570   9.464
 1819POPC   PO425548   3.591  20.623   9.164
 1819POPC   GL125549   3.560  20.640   8.864
 1819POPC   GL225550   3.500  20.524   8.864
 1819POPC   C1A25551   3.587  20.591   8.564
 1819POPC   D2A25552   3.528  20.561   8.264
 1819POPC   C3A25553   3.566  20.660   7.964
 1819POPC   C4A25554   3.583  20.622   7.664
 1819POPC   C1B25555   3.414  20.348   8.564
 1819POPC   C2B25556   3.429  20.431   8.264
 1819POPC   C3B25557   3.452  20.440   7.964
 1819POPC   C4B25558   3.418  20.438   7.664
 1820POPC   NC325559  33.049  15.164   9.464
 1820POPC   PO425560  33.018  15.142   9.164
 1820POPC   GL125561  33.017  15.215   8.864
 1820POPC   GL225562  33.115  15.067   8.864
 1820POPC   C1A25563  33.042  15.186   8.564
 1820POPC   D2A25564  32.987  15.143   8.264
 1820POPC   C3A25565  33.054  15.221   7.964
 1820POPC   C4A25566  33.025  15.212   7.664
 1820POPC   C1B25567  33.151  14.924   8.564
 1820POPC   C2B25568  33.169  14.922   8.264
 1820POPC   C3B25569  33.098  14.986   7.964
 1820POPC   C4B25570  33.138  14.923   7.664
 1821POPC   NC325571  24.500  20.655   9.464
 1821POPC   PO425572  24.461  20.576   9.164
 1821POPC   GL125573  24.501  20.651   8.864
 1821POPC   GL225574  24.558  20.511   8.864
 1821POPC   C1A25575  24.481  20.657   8.564
 1821POPC   D2A25576  24.459  20.602   8.264
 1821POPC   C3A25577  24.453  20.578   7.964
 1821POPC   C4A25578  24.462  20.659   7.664
 1821POPC   C1B25579  24.553  20.379   8.564
 1821POPC   C2B25580  24.577  20.426   8.264
 1821POPC   C3B25581  24.601  20.357   7.964
 1821POPC   C4B25582  24.548  20.376   7.664
 1822POPC   NC325583  23.707  33.012   9.464
 1822POPC   PO425584  23.739  33.021   9.164
 1822POPC   GL125585  23.750  33.040   8.864
 1822POPC   GL225586  23.631  33.162   8.864
 1822POPC   C1A25587  23.723  33.032   8.564
 1822POPC   D2A25588  23.668  32.985   8.264
 1822POPC   C3A25589  23.707  32.982   7.964
 1822POPC   C4A25590  23.686  33.021   7.664
 1822POPC   C1B25591  23.618  33.227   8.564
 1822POPC   C2B25592  23.663  33.230   8.264
 1822POPC   C3B25593  23.577  33.295   7.964
 1822POPC   C4B25594  23.666  33.284   7.664
 1823POPC   NC325595  37.720  15.216   9.464
 1823POPC   PO425596  37.682  15.215   9.164
 1823POPC   GL125597  37.640  15.145   8.864
 1823POPC   GL225598  37.573  15.090   8.864
 1823POPC   C1A25599  37.659  15.178   8.564
 1823POPC   D2A25600  37.677  15.135   8.264
 1823POPC   C3A25601  37.691  15.183   7.964
 1823POPC   C4A25602  37.688  15.157   7.664
 1823POPC   C1B25603  37.478  15.107   8.564
 1823POPC   C2B25604  37.465  15.104   8.264
 1823POPC   C3B25605  37.436  15.107   7.964
 1823POPC   C4B25606  37.473  15.030   7.664
 1824POPC   NC325607  27.615  39.207   9.464
 1824POPC   PO425608  27.636  39.212   9.164
 1824POPC   GL125609  27.596  39.246   8.864
 1824POPC   GL225610  27.681  39.240   8.864
 1824POPC   C1A25611  27.623  39.279   8.564
 1824POPC   D2A25612  27.568  39.271   8.264
 1824POPC   C3A25613  27.623  39.258   7.964
 1824POPC   C4A25614  27.625  39.242   7.664
 1824POPC   C1B25615  27.848  39.290   8.564
 1824POPC   C2B25616  27.824  39.289   8.264
 1824POPC   C3B25617  27.858  39.263   7.964
 1824POPC   C4B25618  27.818  39.267   7.664
 1825POPC   NC325619  43.110  28.391   9.464
 1825POPC   PO425620  43.070  28.414   9.164
 1825POPC   GL125621  43.115  28.374   8.864
 1825POPC   GL225622  43.020  28.329   8.864
 1825POPC   C1A25623  43.088  28.398   8.564
 1825POPC   D2A25624  43.131  28.356   8.264
 1825POPC   C3A25625  43.106  28.345   7.964
 1825POPC   C4A25626  43.069  28.393   7.664
 1825POPC   C1B25627  42.927  28.309   8.564
 1825POPC   C2B25628  42.886  28.306   8.264
 1825POPC   C3B25629  42.904  28.268   7.964
 1825POPC   C4B25630  42.871  28.265   7.664
 1826POPC   NC325631  17.471  40.023   9.464
 1826POPC   PO425632  17.530  40.025   9.164
 1826POPC   GL125633  17.460  39.962   8.864
 1826POPC   GL225634  17.574  39.964   8.864
 1826POPC   C1A25635  17.479  40.006   8.564
 1826POPC   D2A25636  17.469  40.055   8.264
 1826POPC   C3A25637  17.457  39.986   7.964
 1826POPC   C4A25638  17.520  39.990   7.664
 1826POPC   C1B25639  17.721  39.852   8.564
 1826POPC   C2B25640  17.717  39.857   8.264
 1826POPC   C3B25641  17.685  39.873   7.964
 1826POPC   C4B25642  17.738  39.847   7.664
 1827POPC   NC325643  24.488   2.035   9.464
 1827POPC   PO425644  24.502   2.023   9.164
 1827POPC   GL125645  24.531   1.943   8.864
 1827POPC   GL225646  24.423   1.954   8.864
 1827POPC   C1A25647  24.465   1.976   8.564
 1827POPC   D2A25648  24.453   1.948   8.264
 1827POPC   C3A25649  24.485   1.974   7.964
 1827POPC   C4A25650  24.531   1.981   7.664
 1827POPC   C1B25651  24.267   1.869   8.564
 1827POPC   C2B25652  24.301   1.811   8.264
 1827POPC   C3B25653  24.335   1.773   7.964
 1827POPC   C4B25654  24.259   1.782   7.664
 1828POPC   NC325655  18.250  40.040   9.464
 1828POPC   PO425656  18.292  39.979   9.164
 1828POPC   GL125657  18.277  40.042   8.864
 1828POPC   GL225658  18.441  40.030   8.864
 1828POPC   C1A25659  18.247  39.976   8.564
 1828POPC   D2A25660  18.298  40.031   8.264
 1828POPC   C3A25661  18.246  39.980   7.964
 1828POPC   C4A25662  18.300  40.044   7.664
 1828POPC   C1B25663  18.581  39.966   8.564
 1828POPC   C2B25664  18.530  40.053   8.264
 1828POPC   C3B25665  18.552  40.016   7.964
 1828POPC   C4B25666  18.501  40.002   7.664
 1829POPC   NC325667   4.354  33.818   9.464
 1829POPC   PO425668   4.269  33.806   9.164
 1829POPC   GL125669   4.337  33.838   8.864
 1829POPC   GL225670   4.415  33.668   8.864
 1829POPC   C1A25671   4.275  33.776   8.564
 1829POPC   D2A25672   4.268  33.803   8.264
 1829POPC   C3A25673   4.279  33.782   7.964
 1829POPC   C4A25674   4.280  33.815   7.664
 1829POPC   C1B25675   4.451  33.565   8.564
 1829POPC   C2B25676   4.423  33.574   8.264
 1829POPC   C3B25677   4.431  33.620   7.964
 1829POPC   C4B25678   4.431  33.601   7.664
 1830POPC   NC325679   3.553   2.727   9.464
 1830POPC   PO425680   3.556   2.814   9.164
 1830POPC   GL125681   3.590   2.723   8.864
 1830POPC   GL225682   3.670   2.765   8.864
 1830POPC   C1A25683   3.496   2.729   8.564
 1830POPC   D2A25684   3.536   2.774   8.264
 1830POPC   C3A25685   3.575   2.739   7.964
 1830POPC   C4A25686   3.546   2.729   7.664
 1830POPC   C1B25687   3.822   2.788   8.564
 1830POPC   C2B25688   3.776   2.784   8.264
 1830POPC   C3B25689   3.758   2.791   7.964
 1830POPC   C4B25690   3.806   2.838   7.664
 1831POPC   NC325691  29.908  40.054   9.464
 1831POPC   PO425692  29.963  40.056   9.164
 1831POPC   GL125693  29.961  40.032   8.864
 1831POPC   GL225694  29.999  39.977   8.864
 1831POPC   C1A25695  29.948  40.056   8.564
 1831POPC   D2A25696  29.888  39.976   8.264
 1831POPC   C3A25697  29.945  40.045   7.964
 1831POPC   C4A25698  29.881  40.019   7.664
 1831POPC   C1B25699  30.159  39.935   8.564
 1831POPC   C2B25700  30.190  39.909   8.264
 1831POPC   C3B25701  30.120  39.877   7.964
 1831POPC   C4B25702  30.190  39.930   7.664
 1832POPC   NC325703   9.011   3.587   9.464
 1832POPC   PO425704   8.968   3.556   9.164
 1832POPC   GL125705   8.938   3.526   8.864
 1832POPC   GL225706   9.109   3.636   8.864
 1832POPC   C1A25707   8.923   3.518   8.564
 1832POPC   D2A25708   8.946   3.498   8.264
 1832POPC   C3A25709   8.928   3.541   7.964
 1832POPC   C4A25710   8.965   3.545   7.664
 1832POPC   C1B25711   9.158   3.609   8.564
 1832POPC   C2B25712   9.202   3.620   8.264
 1832POPC   C3B25713   9.171   3.667   7.964
 1832POPC   C4B25714   9.241   3.656   7.664
 1833POPC   NC325715  11.330   1.943   9.464
 1833POPC   PO425716  11.345   1.997   9.164
 1833POPC   GL125717  11.319   1.947   8.864
 1833POPC   GL225718  11.338   2.126   8.864
 1833POPC   C1A25719  11.329   1.964   8.564
 1833POPC   D2A25720  11.295   1.955   8.264
 1833POPC   C3A25721  11.306   1.980   7.964
 1833POPC   C4A25722  11.285   1.976   7.664
 1833POPC   C1B25723  11.430   2.144   8.564
 1833POPC   C2B25724  11.438   2.226   8.264
 1833POPC   C3B25725  11.444   2.192   7.964
 1833POPC   C4B25726  11.492   2.212   7.664
 1834POPC   NC325727  28.364  32.266   9.464
 1834POPC   PO425728  28.350  32.265   9.164
 1834POPC   GL125729  28.401  32.210   8.864
 1834POPC   GL225730  28.424  32.319   8.864
 1834POPC   C1A25731  28.384  32.224   8.564
 1834POPC   D2A25732  28.379  32.294   8.264
 1834POPC   C3A25733  28.384  32.282   7.964
 1834POPC   C4A25734  28.408  32.219   7.664
 1834POPC   C1B25735  28.550  32.425   8.564
 1834POPC   C2B25736  28.511  32.446   8.264
 1834POPC   C3B25737  28.493  32.426   7.964
 1834POPC   C4B25738  28.570  32.477   7.664
 1835POPC   NC325739   4.280   9.774   9.464
 1835POPC   PO425740   4.351   9.716   9.164
 1835POPC   GL125741   4.322   9.707   8.864
 1835POPC   GL225742   4.257   9.802   8.864
 1835POPC   C1A25743   4.296   9.715   8.564
 1835POPC   D2A25744   4.350   9.777   8.264
 1835POPC   C3A25745   4.345   9.711   7.964
 1835POPC   C4A25746   4.300   9.704   7.664
 1835POPC   C1B25747   4.083   9.867   8.564
 1835POPC   C2B25748   4.133   9.881   8.264
 1835POPC   C3B25749   4.144   9.932   7.964
 1835POPC   C4B25750   4.180   9.947   7.664
 1836POPC   NC325751   2.759  13.590   9.464
 1836POPC   PO425752   2.787  13.638   9.164
 1836POPC   GL125753   2.768  13.652   8.864
 1836POPC   GL225754   2.669  13.599   8.864
 1836POPC   C1A25755   2.750  13.650   8.564
 1836POPC   D2A25756   2.768  13.597   8.264
 1836POPC   C3A25757   2.788  13.632   7.964
 1836POPC   C4A25758   2.788  13.623   7.664
 1836POPC   C1B25759   2.536  13.553   8.564
 1836POPC   C2B25760   2.513  13.595   8.264
 1836POPC   C3B25761   2.519  13.606   7.964
 1836POPC   C4B25762   2.509  13.611   7.664
 1837POPC   NC325763   2.005  22.896   9.464
 1837POPC   PO425764   1.955  22.944   9.164
 1837POPC   GL125765   1.941  22.912   8.864
 1837POPC   GL225766   1.899  22.923   8.864
 1837POPC   C1A25767   1.965  22.932   8.564
 1837POPC   D2A25768   1.944  22.905   8.264
 1837POPC   C3A25769   2.023  22.928   7.964
 1837POPC   C4A25770   1.942  22.954   7.664
 1837POPC   C1B25771   1.760  22.930   8.564
 1837POPC   C2B25772   1.710  22.947   8.264
 1837POPC   C3B25773   1.735  22.991   7.964
 1837POPC   C4B25774   1.744  22.990   7.664
 1838POPC   NC325775  36.172  32.261   9.464
 1838POPC   PO425776  36.155  32.258   9.164
 1838POPC   GL125777  36.082  32.249   8.864
 1838POPC   GL225778  36.190  32.307   8.864
 1838POPC   C1A25779  36.176  32.217   8.564
 1838POPC   D2A25780  36.130  32.273   8.264
 1838POPC   C3A25781  36.114  32.251   7.964
 1838POPC   C4A25782  36.166  32.211   7.664
 1838POPC   C1B25783  36.262  32.495   8.564
 1838POPC   C2B25784  36.303  32.434   8.264
 1838POPC   C3B25785  36.315  32.478   7.964
 1838POPC   C4B25786  36.316  32.466   7.664
 1839POPC   NC325787  14.397  15.226   9.464
 1839POPC   PO425788  14.442  15.144   9.164
 1839POPC   GL125789  14.401  15.154   8.864
 1839POPC   GL225790  14.348  15.314   8.864
 1839POPC   C1A25791  14.421  15.199   8.564
 1839POPC   D2A25792  14.426  15.149   8.264
 1839POPC   C3A25793  14.451  15.223   7.964
 1839POPC   C4A25794  14.443  15.221   7.664
 1839POPC   C1B25795  14.381  15.395   8.564
 1839POPC   C2B25796  14.377  15.424   8.264
 1839POPC   C3B25797  14.304  15.390   7.964
 1839POPC   C4B25798  14.327  15.388   7.664
 1840POPC   NC325799   3.569  23.691   9.464
 1840POPC   PO425800   3.589  23.755   9.164
 1840POPC   GL125801   3.515  23.685   8.864
 1840POPC   GL225802   3.591  23.807   8.864
 1840POPC   C1A25803   3.567  23.683   8.564
 1840POPC   D2A25804   3.533  23.738   8.264
 1840POPC   C3A25805   3.576  23.674   7.964
 1840POPC   C4A25806   3.519  23.703   7.664
 1840POPC   C1B25807   3.627  23.924   8.564
 1840POPC   C2B25808   3.652  23.974   8.264
 1840POPC   C3B25809   3.672  23.937   7.964
 1840POPC   C4B25810   3.643  23.939   7.664
 1841POPC   NC325811  14.386  18.253   9.464
 1841POPC   PO425812  14.428  18.258   9.164
 1841POPC   GL125813  14.400  18.253   8.864
 1841POPC   GL225814  14.257  18.338   8.864
 1841POPC   C1A25815  14.415  18.264   8.564
 1841POPC   D2A25816  14.448  18.233   8.264
 1841POPC   C3A25817  14.404  18.252   7.964
 1841POPC   C4A25818  14.409  18.294   7.664
 1841POPC   C1B25819  14.215  18.449   8.564
 1841POPC   C2B25820  14.202  18.452   8.264
 1841POPC   C3B25821  14.213  18.426   7.964
 1841POPC   C4B25822  14.150  18.364   7.664
 1842POPC   NC325823  40.788  20.574   9.464
 1842POPC   PO425824  40.767  20.599   9.164
 1842POPC   GL125825  40.764  20.619   8.864
 1842POPC   GL225826  40.830  20.664   8.864
 1842POPC   C1A25827  40.801  20.645   8.564
 1842POPC   D2A25828  40.823  20.627   8.264
 1842POPC   C3A25829  40.743  20.646   7.964
 1842POPC   C4A25830  40.790  20.569   7.664
 1842POPC   C1B25831  40.954  20.781   8.564
 1842POPC   C2B25832  40.912  20.790   8.264
 1842POPC   C3B25833  40.975  20.843   7.964
 1842POPC   C4B25834  40.978  20.776   7.664
 1843POPC   NC325835  22.962  37.713   9.464
 1843POPC   PO425836  22.968  37.705   9.164
 1843POPC   GL125837  22.942  37.677   8.864
 1843POPC   GL225838  23.038  37.556   8.864
 1843POPC   C1A25839  22.957  37.653   8.564
 1843POPC   D2A25840  22.965  37.634   8.264
 1843POPC   C3A25841  22.970  37.717   7.964
 1843POPC   C4A25842  22.971  37.704   7.664
 1843POPC   C1B25843  23.112  37.509   8.564
 1843POPC   C2B25844  23.084  37.484   8.264
 1843POPC   C3B25845  23.077  37.475   7.964
 1843POPC   C4B25846  23.034  37.432   7.664
 1844POPC   NC325847   1.987  29.960   9.464
 1844POPC   PO425848   2.026  29.946   9.164
 1844POPC   GL125849   2.008  29.924   8.864
 1844POPC   GL225850   1.949  29.838   8.864
 1844POPC   C1A25851   1.941  29.930   8.564
 1844POPC   D2A25852   1.949  29.890   8.264
 1844POPC   C3A25853   1.958  29.924   7.964
 1844POPC   C4A25854   1.965  29.924   7.664
 1844POPC   C1B25855   1.855  29.737   8.564
 1844POPC   C2B25856   1.771  29.722   8.264
 1844POPC   C3B25857   1.809  29.762   7.964
 1844POPC   C4B25858   1.778  29.734   7.664
 1845POPC   NC325859  15.206  18.316   9.464
 1845POPC   PO425860  15.153  18.305   9.164
 1845POPC   GL125861  15.192  18.233   8.864
 1845POPC   GL225862  15.256  18.174   8.864
 1845POPC   C1A25863  15.168  18.327   8.564
 1845POPC   D2A25864  15.227  18.303   8.264
 1845POPC   C3A25865  15.192  18.292   7.964
 1845POPC   C4A25866  15.196  18.269   7.664
 1845POPC   C1B25867  15.343  18.100   8.564
 1845POPC   C2B25868  15.362  18.065   8.264
 1845POPC   C3B25869  15.317  18.041   7.964
 1845POPC   C4B25870  15.363  18.113   7.664
 1846POPC   NC325871  18.250  36.142   9.464
 1846POPC   PO425872  18.243  36.132   9.164
 1846POPC   GL125873  18.288  36.079   8.864
 1846POPC   GL225874  18.235  36.289   8.864
 1846POPC   C1A25875  18.272  36.112   8.564
 1846POPC   D2A25876  18.311  36.147   8.264
 1846POPC   C3A25877  18.309  36.122   7.964
 1846POPC   C4A25878  18.285  36.156   7.664
 1846POPC   C1B25879  18.300  36.335   8.564
 1846POPC   C2B25880  18.223  36.337   8.264
 1846POPC   C3B25881  18.305  36.366   7.964
 1846POPC   C4B25882  18.243  36.370   7.664
 1847POPC   NC325883   6.641  19.839   9.464
 1847POPC   PO425884   6.649  19.789   9.164
 1847POPC   GL125885   6.686  19.881   8.864
 1847POPC   GL225886   6.806  19.855   8.864
 1847POPC   C1A25887   6.627  19.830   8.564
 1847POPC   D2A25888   6.657  19.838   8.264
 1847POPC   C3A25889   6.652  19.792   7.964
 1847POPC   C4A25890   6.644  19.861   7.664
 1847POPC   C1B25891   6.891  19.896   8.564
 1847POPC   C2B25892   6.920  19.823   8.264
 1847POPC   C3B25893   6.933  19.886   7.964
 1847POPC   C4B25894   6.929  19.867   7.664
 1848POPC   NC325895   9.007  43.112   9.464
 1848POPC   PO425896   9.007  43.143   9.164
 1848POPC   GL125897   8.967  43.115   8.864
 1848POPC   GL225898   8.881  43.128   8.864
 1848POPC   C1A25899   9.016  43.081   8.564
 1848POPC   D2A25900   9.004  43.114   8.264
 1848POPC   C3A25901   9.006  43.140   7.964
 1848POPC   C4A25902   9.011  43.147   7.664
 1848POPC   C1B25903   8.732  43.088   8.564
 1848POPC   C2B25904   8.688  43.096   8.264
 1848POPC   C3B25905   8.765  43.159   7.964
 1848POPC   C4B25906   8.763  43.088   7.664
 1849POPC   NC325907  43.932  31.514   9.464
 1849POPC   PO425908  43.878  31.469   9.164
 1849POPC   GL125909  43.856  31.484   8.864
 1849POPC   GL225910  43.993  31.525   8.864
 1849POPC   C1A25911  43.869  31.518   8.564
 1849POPC   D2A25912  43.923  31.503   8.264
 1849POPC   C3A25913  43.888  31.464   7.964
 1849POPC   C4A25914  43.869  31.473   7.664
 1849POPC   C1B25915  44.134  31.509   8.564
 1849POPC   C2B25916  44.134  31.465   8.264
 1849POPC   C3B25917  44.091  31.487   7.964
 1849POPC   C4B25918  44.097  31.516   7.664
 1850POPC   NC325919  32.991  21.386   9.464
 1850POPC   PO425920  33.051  21.394   9.164
 1850POPC   GL125921  32.988  21.362   8.864
 1850POPC   GL225922  33.084  21.319   8.864
 1850POPC   C1A25923  32.992  21.382   8.564
 1850POPC   D2A25924  33.023  21.336   8.264
 1850POPC   C3A25925  33.042  21.339   7.964
 1850POPC   C4A25926  33.058  21.428   7.664
 1850POPC   C1B25927  33.184  21.252   8.564
 1850POPC   C2B25928  33.219  21.217   8.264
 1850POPC   C3B25929  33.180  21.207   7.964
 1850POPC   C4B25930  33.248  21.202   7.664
 1851POPC   NC325931  34.574  15.959   9.464
 1851POPC   PO425932  34.621  15.975   9.164
 1851POPC   GL125933  34.537  15.983   8.864
 1851POPC   GL225934  34.657  15.838   8.864
 1851POPC   C1A25935  34.619  15.908   8.564
 1851POPC   D2A25936  34.578  15.917   8.264
 1851POPC   C3A25937  34.604  15.938   7.964
 1851POPC   C4A25938  34.546  15.913   7.664
 1851POPC   C1B25939  34.710  15.736   8.564
 1851POPC   C2B25940  34.759  15.716   8.264
 1851POPC   C3B25941  34.732  15.751   7.964
 1851POPC   C4B25942  34.678  15.707   7.664
 1852POPC   NC325943  38.504  15.180   9.464
 1852POPC   PO425944  38.433  15.138   9.164
 1852POPC   GL125945  38.413  15.168   8.864
 1852POPC   GL225946  38.565  15.234   8.864
 1852POPC   C1A25947  38.489  15.142   8.564
 1852POPC   D2A25948  38.471  15.178   8.264
 1852POPC   C3A25949  38.430  15.172   7.964
 1852POPC   C4A25950  38.479  15.162   7.664
 1852POPC   C1B25951  38.617  15.341   8.564
 1852POPC   C2B25952  38.599  15.354   8.264
 1852POPC   C3B25953  38.583  15.390   7.964
 1852POPC   C4B25954  38.578  15.392   7.664
 1853POPC   NC325955  15.216  44.684   9.464
 1853POPC   PO425956  15.225  44.687   9.164
 1853POPC   GL125957  15.148  44.662   8.864
 1853POPC   GL225958  15.252  44.577   8.864
 1853POPC   C1A25959  15.145  44.677   8.564
 1853POPC   D2A25960  15.177  44.614   8.264
 1853POPC   C3A25961  15.183  44.691   7.964
 1853POPC   C4A25962  15.218  44.647   7.664
 1853POPC   C1B25963  15.384  44.562   8.564
 1853POPC   C2B25964  15.459  44.562   8.264
 1853POPC   C3B25965  15.416  44.611   7.964
 1853POPC   C4B25966  15.457  44.631   7.664
 1854POPC   NC325967  33.057  14.415   9.464
 1854POPC   PO425968  33.057  14.377   9.164
 1854POPC   GL125969  33.053  14.436   8.864
 1854POPC   GL225970  33.005  14.544   8.864
 1854POPC   C1A25971  33.001  14.364   8.564
 1854POPC   D2A25972  33.044  14.360   8.264
 1854POPC   C3A25973  33.022  14.451   7.964
 1854POPC   C4A25974  32.998  14.367   7.664
 1854POPC   C1B25975  32.912  14.649   8.564
 1854POPC   C2B25976  32.880  14.620   8.264
 1854POPC   C3B25977  32.860  14.671   7.964
 1854POPC   C4B25978  32.901  14.625   7.664
 1855POPC   NC325979  19.019  16.776   9.464
 1855POPC   PO425980  19.023  16.757   9.164
 1855POPC   GL125981  19.066  16.780   8.864
 1855POPC   GL225982  18.932  16.697   8.864
 1855POPC   C1A25983  19.096  16.694   8.564
 1855POPC   D2A25984  19.070  16.681   8.264
 1855POPC   C3A25985  19.071  16.732   7.964
 1855POPC   C4A25986  19.013  16.732   7.664
 1855POPC   C1B25987  18.838  16.755   8.564
 1855POPC   C2B25988  18.813  16.710   8.264
 1855POPC   C3B25989  18.759  16.778   7.964
 1855POPC   C4B25990  18.790  16.755   7.664
 1856POPC   NC325991  41.602  13.589   9.464
 1856POPC   PO425992  41.541  13.675   9.164
 1856POPC   GL125993  41.592  13.648   8.864
 1856POPC   GL225994  41.421  13.511   8.864
 1856POPC   C1A25995  41.609  13.627   8.564
 1856POPC   D2A25996  41.531  13.592   8.264
 1856POPC   C3A25997  41.531  13.594   7.964
 1856POPC   C4A25998  41.551  13.667   7.664
 1856POPC   C1B25999  41.404  13.423   8.564
 1856POPC   C2B26000  41.426  13.492   8.264
 1856POPC   C3B26001  41.343  13.449   7.964
 1856POPC   C4B26002  41.426  13.471   7.664
 1857POPC   NC326003   8.963  12.881   9.464
 1857POPC   PO426004   8.942  12.879   9.164
 1857POPC   GL126005   8.952  12.846   8.864
 1857POPC   GL226006   8.964  13.010   8.864
 1857POPC   C1A26007   8.998  12.845   8.564
 1857POPC   D2A26008   8.967  12.823   8.264
 1857POPC   C3A26009   8.967  12.872   7.964
 1857POPC   C4A26010   8.999  12.859   7.664
 1857POPC   C1B26011   8.874  13.094   8.564
 1857POPC   C2B26012   8.848  13.102   8.264
 1857POPC   C3B26013   8.818  13.123   7.964
 1857POPC   C4B26014   8.846  13.100   7.664
 1858POPC   NC326015   1.215  40.020   9.464
 1858POPC   PO426016   1.252  40.011   9.164
 1858POPC   GL126017   1.206  40.019   8.864
 1858POPC   GL226018   1.295  39.864   8.864
 1858POPC   C1A26019   1.184  40.034   8.564
 1858POPC   D2A26020   1.194  39.976   8.264
 1858POPC   C3A26021   1.254  40.024   7.964
 1858POPC   C4A26022   1.237  39.969   7.664
 1858POPC   C1B26023   1.316  39.801   8.564
 1858POPC   C2B26024   1.329  39.804   8.264
 1858POPC   C3B26025   1.302  39.802   7.964
 1858POPC   C4B26026   1.308  39.808   7.664
 1859POPC   NC326027  19.065   1.946   9.464
 1859POPC   PO426028  19.017   1.971   9.164
 1859POPC   GL126029  19.017   1.950   8.864
 1859POPC   GL226030  19.160   2.015   8.864
 1859POPC   C1A26031  19.063   1.988   8.564
 1859POPC   D2A26032  19.095   2.013   8.264
 1859POPC   C3A26033  19.017   2.000   7.964
 1859POPC   C4A26034  19.051   1.965   7.664
 1859POPC   C1B26035  19.266   2.032   8.564
 1859POPC   C2B26036  19.297   2.048   8.264
 1859POPC   C3B26037  19.274   1.963   7.964
 1859POPC   C4B26038  19.341   2.015   7.664
 1860POPC   NC326039   4.367  19.879   9.464
 1860POPC   PO426040   4.345  19.808   9.164
 1860POPC   GL126041   4.349  19.794   8.864
 1860POPC   GL226042   4.200  19.840   8.864
 1860POPC   C1A26043   4.332  19.882   8.564
 1860POPC   D2A26044   4.352  19.840   8.264
 1860POPC   C3A26045   4.321  19.803   7.964
 1860POPC   C4A26046   4.292  19.846   7.664
 1860POPC   C1B26047   4.039  19.790   8.564
 1860POPC   C2B26048   4.044  19.868   8.264
 1860POPC   C3B26049   4.044  19.842   7.964
 1860POPC   C4B26050   4.062  19.787   7.664
 1861POPC   NC326051   6.612  14.391   9.464
 1861POPC   PO426052   6.694  14.359   9.164
 1861POPC   GL126053   6.613  14.451   8.864
 1861POPC   GL226054   6.703  14.272   8.864
 1861POPC   C1A26055   6.636  14.383   8.564
 1861POPC   D2A26056   6.619  14.399   8.264
 1861POPC   C3A26057   6.601  14.452   7.964
 1861POPC   C4A26058   6.631  14.412   7.664
 1861POPC   C1B26059   6.695  14.183   8.564
 1861POPC   C2B26060   6.666  14.192   8.264
 1861POPC   C3B26061   6.671  14.127   7.964
 1861POPC   C4B26062   6.704  14.175   7.664
 1862POPC   NC326063  10.537  36.120   9.464
 1862POPC   PO426064  10.560  36.111   9.164
 1862POPC   GL126065  10.501  36.130   8.864
 1862POPC   GL226066  10.488  36.234   8.864
 1862POPC   C1A26067  10.528  36.139   8.564
 1862POPC   D2A26068  10.546  36.078   8.264
 1862POPC   C3A26069  10.527  36.163   7.964
 1862POPC   C4A26070  10.550  36.098   7.664
 1862POPC   C1B26071  10.430  36.320   8.564
 1862POPC   C2B26072  10.404  36.369   8.264
 1862POPC   C3B26073  10.397  36.397   7.964
 1862POPC   C4B26074  10.426  36.304   7.664
 1863POPC   NC326075   4.278  30.725   9.464
 1863POPC   PO426076   4.278  30.698   9.164
 1863POPC   GL126077   4.276  30.650   8.864
 1863POPC   GL226078   4.382  30.769   8.864
 1863POPC   C1A26079   4.338  30.651   8.564
 1863POPC   D2A26080   4.300  30.684   8.264
 1863POPC   C3A26081   4.344  30.722   7.964
 1863POPC   C4A26082   4.305  30.719   7.664
 1863POPC   C1B26083   4.406  30.900   8.564
 1863POPC   C2B26084   4.401  30.944   8.264
 1863POPC   C3B26085   4.427  30.930   7.964
 1863POPC   C4B26086   4.427  30.969   7.664
 1864POPC   NC326087  33.821   0.481   9.464
 1864POPC   PO426088  33.758   0.392   9.164
 1864POPC   GL126089  33.845   0.457   8.864
 1864POPC   GL226090  33.776   0.521   8.864
 1864POPC   C1A26091  33.844   0.460   8.564
 1864POPC   D2A26092  33.816   0.404   8.264
 1864POPC   C3A26093  33.801   0.407   7.964
 1864POPC   C4A26094  33.766   0.485   7.664
 1864POPC   C1B26095  33.842   0.721   8.564
 1864POPC   C2B26096  33.795   0.682   8.264
 1864POPC   C3B26097  33.790   0.672   7.964
 1864POPC   C4B26098  33.792   0.656   7.664
 1865POPC   NC326099  38.444  26.056   9.464
 1865POPC   PO426100  38.462  26.065   9.164
 1865POPC   GL126101  38.408  26.022   8.864
 1865POPC   GL226102  38.493  25.975   8.864
 1865POPC   C1A26103  38.412  26.041   8.564
 1865POPC   D2A26104  38.455  26.084   8.264
 1865POPC   C3A26105  38.487  26.018   7.964
 1865POPC   C4A26106  38.492  26.064   7.664
 1865POPC   C1B26107  38.662  25.898   8.564
 1865POPC   C2B26108  38.612  25.842   8.264
 1865POPC   C3B26109  38.652  25.826   7.964
 1865POPC   C4B26110  38.608  25.860   7.664
 1866POPC   NC326111  30.685  40.041   9.464
 1866POPC   PO426112  30.741  39.971   9.164
 1866POPC   GL126113  30.661  40.010   8.864
 1866POPC   GL226114  30.751  39.918   8.864
 1866POPC   C1A26115  30.741  40.008   8.564
 1866POPC   D2A26116  30.722  40.009   8.264
 1866POPC   C3A26117  30.694  39.981   7.964
 1866POPC   C4A26118  30.712  40.034   7.664
 1866POPC   C1B26119  30.850  39.763   8.564
 1866POPC   C2B26120  30.787  39.766   8.264
 1866POPC   C3B26121  30.855  39.808   7.964
 1866POPC   C4B26122  30.766  39.744   7.664
 1867POPC   NC326123  42.367  35.379   9.464
 1867POPC   PO426124  42.302  35.304   9.164
 1867POPC   GL126125  42.365  35.311   8.864
 1867POPC   GL226126  42.456  35.337   8.864
 1867POPC   C1A26127  42.333  35.312   8.564
 1867POPC   D2A26128  42.305  35.313   8.264
 1867POPC   C3A26129  42.333  35.336   7.964
 1867POPC   C4A26130  42.345  35.315   7.664
 1867POPC   C1B26131  42.593  35.360   8.564
 1867POPC   C2B26132  42.600  35.342   8.264
 1867POPC   C3B26133  42.565  35.296   7.964
 1867POPC   C4B26134  42.581  35.376   7.664
 1868POPC   NC326135  29.178   1.204   9.464
 1868POPC   PO426136  29.137   1.234   9.164
 1868POPC   GL126137  29.160   1.214   8.864
 1868POPC   GL226138  29.104   1.332   8.864
 1868POPC   C1A26139  29.123   1.164   8.564
 1868POPC   D2A26140  29.175   1.232   8.264
 1868POPC   C3A26141  29.139   1.261   7.964
 1868POPC   C4A26142  29.195   1.233   7.664
 1868POPC   C1B26143  29.136   1.478   8.564
 1868POPC   C2B26144  29.086   1.475   8.264
 1868POPC   C3B26145  29.135   1.428   7.964
 1868POPC   C4B26146  29.174   1.437   7.664
 1869POPC   NC326147   9.791  10.545   9.464
 1869POPC   PO426148   9.735  10.506   9.164
 1869POPC   GL126149   9.739  10.498   8.864
 1869POPC   GL226150   9.863  10.626   8.864
 1869POPC   C1A26151   9.788  10.508   8.564
 1869POPC   D2A26152   9.737  10.480   8.264
 1869POPC   C3A26153   9.750  10.567   7.964
 1869POPC   C4A26154   9.786  10.548   7.664
 1869POPC   C1B26155   9.934  10.738   8.564
 1869POPC   C2B26156   9.879  10.729   8.264
 1869POPC   C3B26157   9.909  10.720   7.964
 1869POPC   C4B26158   9.862  10.732   7.664
 1870POPC   NC326159  23.742  31.436   9.464
 1870POPC   PO426160  23.697  31.490   9.164
 1870POPC   GL126161  23.688  31.514   8.864
 1870POPC   GL226162  23.651  31.395   8.864
 1870POPC   C1A26163  23.721  31.443   8.564
 1870POPC   D2A26164  23.741  31.438   8.264
 1870POPC   C3A26165  23.756  31.448   7.964
 1870POPC   C4A26166  23.757  31.514   7.664
 1870POPC   C1B26167  23.522  31.341   8.564
 1870POPC   C2B26168  23.472  31.274   8.264
 1870POPC   C3B26169  23.489  31.328   7.964
 1870POPC   C4B26170  23.507  31.339   7.664
 1871POPC   NC326171  28.396   4.348   9.464
 1871POPC   PO426172  28.378   4.299   9.164
 1871POPC   GL126173  28.343   4.355   8.864
 1871POPC   GL226174  28.290   4.401   8.864
 1871POPC   C1A26175  28.374   4.291   8.564
 1871POPC   D2A26176  28.413   4.307   8.264
 1871POPC   C3A26177  28.336   4.359   7.964
 1871POPC   C4A26178  28.398   4.365   7.664
 1871POPC   C1B26179  28.275   4.561   8.564
 1871POPC   C2B26180  28.339   4.526   8.264
 1871POPC   C3B26181  28.288   4.540   7.964
 1871POPC   C4B26182  28.281   4.565   7.664
 1872POPC   NC326183  32.269   4.291   9.464
 1872POPC   PO426184  32.256   4.288   9.164
 1872POPC   GL126185  32.234   4.336   8.864
 1872POPC   GL226186  32.121   4.425   8.864
 1872POPC   C1A26187  32.276   4.345   8.564
 1872POPC   D2A26188  32.291   4.285   8.264
 1872POPC   C3A26189  32.199   4.367   7.964
 1872POPC   C4A26190  32.226   4.337   7.664
 1872POPC   C1B26191  32.085   4.426   8.564
 1872POPC   C2B26192  32.051   4.468   8.264
 1872POPC   C3B26193  32.063   4.433   7.964
 1872POPC   C4B26194  32.002   4.430   7.664
 1873POPC   NC326195  44.711  19.875   9.464
 1873POPC   PO426196  44.658  19.873   9.164
 1873POPC   GL126197  44.688  19.833   8.864
 1873POPC   GL226198  44.621  19.970   8.864
 1873POPC   C1A26199  44.708  19.808   8.564
 1873POPC   D2A26200  44.657  19.837   8.264
 1873POPC   C3A26201  44.624  19.791   7.964
 1873POPC   C4A26202  44.689  19.793   7.664
 1873POPC   C1B26203  44.563  20.003   8.564
 1873POPC   C2B26204  44.495  20.065   8.264
 1873POPC   C3B26205  44.493  20.073   7.964
 1873POPC   C4B26206  44.494  20.016   7.664
 1874POPC   NC326207   9.769  29.189   9.464
 1874POPC   PO426208   9.745  29.103   9.164
 1874POPC   GL126209   9.781  29.184   8.864
 1874POPC   GL226210   9.808  29.281   8.864
 1874POPC   C1A26211   9.742  29.126   8.564
 1874POPC   D2A26212   9.791  29.116   8.264
 1874POPC   C3A26213   9.713  29.175   7.964
 1874POPC   C4A26214   9.736  29.180   7.664
 1874POPC   C1B26215   9.869  29.359   8.564
 1874POPC   C2B26216   9.818  29.339   8.264
 1874POPC   C3B26217   9.902  29.368   7.964
 1874POPC   C4B26218   9.895  29.346   7.664
 1875POPC   NC326219  17.549  43.153   9.464
 1875POPC   PO426220  17.543  43.147   9.164
 1875POPC   GL126221  17.545  43.131   8.864
 1875POPC   GL226222  17.600  42.981   8.864
 1875POPC   C1A26223  17.524  43.071   8.564
 1875POPC   D2A26224  17.508  43.137   8.264
 1875POPC   C3A26225  17.467  43.144   7.964
 1875POPC   C4A26226  17.540  43.127   7.664
 1875POPC   C1B26227  17.693  42.904   8.564
 1875POPC   C2B26228  17.732  42.920   8.264
 1875POPC   C3B26229  17.658  42.965   7.964
 1875POPC   C4B26230  17.640  42.914   7.664
 1876POPC   NC326231  22.149   5.125   9.464
 1876POPC   PO426232  22.158   5.142   9.164
 1876POPC   GL126233  22.204   5.138   8.864
 1876POPC   GL226234  22.090   4.963   8.864
 1876POPC   C1A26235  22.127   5.100   8.564
 1876POPC   D2A26236  22.124   5.048   8.264
 1876POPC   C3A26237  22.142   5.133   7.964
 1876POPC   C4A26238  22.113   5.066   7.664
 1876POPC   C1B26239  21.960   4.883   8.564
 1876POPC   C2B26240  21.963   4.899   8.264
 1876POPC   C3B26241  21.997   4.875   7.964
 1876POPC   C4B26242  22.023   4.941   7.664
 1877POPC   NC326243  13.600  27.602   9.464
 1877POPC   PO426244  13.608  27.561   9.164
 1877POPC   GL126245  13.649  27.630   8.864
 1877POPC   GL226246  13.783  27.664   8.864
 1877POPC   C1A26247  13.581  27.629   8.564
 1877POPC   D2A26248  13.651  27.551   8.264
 1877POPC   C3A26249  13.613  27.617   7.964
 1877POPC   C4A26250  13.651  27.643   7.664
 1877POPC   C1B26251  13.813  27.649   8.564
 1877POPC   C2B26252  13.814  27.667   8.264
 1877POPC   C3B26253  13.824  27.701   7.964
 1877POPC   C4B26254  13.811  27.743   7.664
 1878POPC   NC326255  19.791  41.550   9.464
 1878POPC   PO426256  19.880  41.539   9.164
 1878POPC   GL126257  19.877  41.551   8.864
 1878POPC   GL226258  19.716  41.610   8.864
 1878POPC   C1A26259  19.787  41.573   8.564
 1878POPC   D2A26260  19.806  41.564   8.264
 1878POPC   C3A26261  19.831  41.555   7.964
 1878POPC   C4A26262  19.793  41.601   7.664
 1878POPC   C1B26263  19.679  41.687   8.564
 1878POPC   C2B26264  19.641  41.707   8.264
 1878POPC   C3B26265  19.689  41.756   7.964
 1878POPC   C4B26266  19.674  41.718   7.664
 1879POPC   NC326267  43.920  15.197   9.464
 1879POPC   PO426268  43.862  15.185   9.164
 1879POPC   GL126269  43.886  15.162   8.864
 1879POPC   GL226270  43.754  15.226   8.864
 1879POPC   C1A26271  43.848  15.152   8.564
 1879POPC   D2A26272  43.916  15.213   8.264
 1879POPC   C3A26273  43.907  15.156   7.964
 1879POPC   C4A26274  43.905  15.166   7.664
 1879POPC   C1B26275  43.705  15.320   8.564
 1879POPC   C2B26276  43.726  15.304   8.264
 1879POPC   C3B26277  43.671  15.337   7.964
 1879POPC   C4B26278  43.664  15.366   7.664
 1880POPC   NC326279  19.869  17.522   9.464
 1880POPC   PO426280  19.813  17.551   9.164
 1880POPC   GL126281  19.819  17.476   8.864
 1880POPC   GL226282  19.878  17.473   8.864
 1880POPC   C1A26283  19.858  17.517   8.564
 1880POPC   D2A26284  19.808  17.484   8.264
 1880POPC   C3A26285  19.877  17.521   7.964
 1880POPC   C4A26286  19.847  17.499   7.664
 1880POPC   C1B26287  20.050  17.351   8.564
 1880POPC   C2B26288  20.056  17.370   8.264
 1880POPC   C3B26289  19.991  17.351   7.964
 1880POPC   C4B26290  20.035  17.358   7.664
 1881POPC   NC326291   7.462  39.244   9.464
 1881POPC   PO426292   7.424  39.268   9.164
 1881POPC   GL126293   7.375  39.196   8.864
 1881POPC   GL226294   7.439  39.125   8.864
 1881POPC   C1A26295   7.455  39.220   8.564
 1881POPC   D2A26296   7.436  39.249   8.264
 1881POPC   C3A26297   7.389  39.227   7.964
 1881POPC   C4A26298   7.442  39.277   7.664
 1881POPC   C1B26299   7.516  39.013   8.564
 1881POPC   C2B26300   7.479  38.976   8.264
 1881POPC   C3B26301   7.539  39.046   7.964
 1881POPC   C4B26302   7.557  38.959   7.664
 1882POPC   NC326303  43.147   5.126   9.464
 1882POPC   PO426304  43.117   5.064   9.164
 1882POPC   GL126305  43.155   5.081   8.864
 1882POPC   GL226306  43.220   4.986   8.864
 1882POPC   C1A26307  43.157   5.095   8.564
 1882POPC   D2A26308  43.063   5.107   8.264
 1882POPC   C3A26309  43.077   5.114   7.964
 1882POPC   C4A26310  43.139   5.110   7.664
 1882POPC   C1B26311  43.278   4.868   8.564
 1882POPC   C2B26312  43.284   4.864   8.264
 1882POPC   C3B26313  43.222   4.863   7.964
 1882POPC   C4B26314  43.235   4.877   7.664
 1883POPC   NC326315   1.246   7.430   9.464
 1883POPC   PO426316   1.169   7.455   9.164
 1883POPC   GL126317   1.227   7.424   8.864
 1883POPC   GL226318   1.286   7.562   8.864
 1883POPC   C1A26319   1.239   7.408   8.564
 1883POPC   D2A26320   1.241   7.386   8.264
 1883POPC   C3A26321   1.242   7.442   7.964
 1883POPC   C4A26322   1.165   7.439   7.664
 1883POPC   C1B26323   1.344   7.606   8.564
 1883POPC   C2B26324   1.315   7.658   8.264
 1883POPC   C3B26325   1.265   7.687   7.964
 1883POPC   C4B26326   1.351   7.658   7.664
 1884POPC   NC326327  44.661   7.417   9.464
 1884POPC   PO426328  44.642   7.394   9.164
 1884POPC   GL126329  44.655   7.453   8.864
 1884POPC   GL226330  44.572   7.395   8.864
 1884POPC   C1A26331  44.635   7.399   8.564
 1884POPC   D2A26332  44.654   7.397   8.264
 1884POPC   C3A26333  44.675   7.470   7.964
 1884POPC   C4A26334  44.619   7.453   7.664
 1884POPC   C1B26335  44.457   7.276   8.564
 1884POPC   C2B26336  44.415   7.354   8.264
 1884POPC   C3B26337  44.482   7.328   7.964
 1884POPC   C4B26338  44.466   7.288   7.664
 1885POPC   NC326339  29.966  19.084   9.464
 1885POPC   PO426340  29.875  19.036   9.164
 1885POPC   GL126341  29.933  19.009   8.864
 1885POPC   GL226342  30.068  19.080   8.864
 1885POPC   C1A26343  29.899  19.057   8.564
 1885POPC   D2A26344  29.966  19.048   8.264
 1885POPC   C3A26345  29.966  19.070   7.964
 1885POPC   C4A26346  29.885  19.072   7.664
 1885POPC   C1B26347  30.184  19.156   8.564
 1885POPC   C2B26348  30.156  19.152   8.264
 1885POPC   C3B26349  30.210  19.088   7.964
 1885POPC   C4B26350  30.138  19.153   7.664
 1886POPC   NC326351  16.686  26.863   9.464
 1886POPC   PO426352  16.691  26.842   9.164
 1886POPC   GL126353  16.708  26.827   8.864
 1886POPC   GL226354  16.728  26.893   8.864
 1886POPC   C1A26355  16.726  26.842   8.564
 1886POPC   D2A26356  16.742  26.855   8.264
 1886POPC   C3A26357  16.723  26.820   7.964
 1886POPC   C4A26358  16.729  26.846   7.664
 1886POPC   C1B26359  16.779  27.094   8.564
 1886POPC   C2B26360  16.754  27.019   8.264
 1886POPC   C3B26361  16.760  27.065   7.964
 1886POPC   C4B26362  16.762  27.038   7.664
 1887POPC   NC326363   3.554  18.253   9.464
 1887POPC   PO426364   3.539  18.261   9.164
 1887POPC   GL126365   3.497  18.257   8.864
 1887POPC   GL226366   3.456  18.374   8.864
 1887POPC   C1A26367   3.554  18.333   8.564
 1887POPC   D2A26368   3.532  18.235   8.264
 1887POPC   C3A26369   3.518  18.238   7.964
 1887POPC   C4A26370   3.554  18.282   7.664
 1887POPC   C1B26371   3.384  18.510   8.564
 1887POPC   C2B26372   3.474  18.519   8.264
 1887POPC   C3B26373   3.394  18.460   7.964
 1887POPC   C4B26374   3.400  18.512   7.664
 1888POPC   NC326375  26.850  37.725   9.464
 1888POPC   PO426376  26.782  37.702   9.164
 1888POPC   GL126377  26.826  37.663   8.864
 1888POPC   GL226378  26.781  37.575   8.864
 1888POPC   C1A26379  26.822  37.728   8.564
 1888POPC   D2A26380  26.822  37.647   8.264
 1888POPC   C3A26381  26.841  37.694   7.964
 1888POPC   C4A26382  26.784  37.673   7.664
 1888POPC   C1B26383  26.743  37.403   8.564
 1888POPC   C2B26384  26.726  37.481   8.264
 1888POPC   C3B26385  26.724  37.484   7.964
 1888POPC   C4B26386  26.762  37.468   7.664
 1889POPC   NC326387  28.340  43.857   9.464
 1889POPC   PO426388  28.374  43.877   9.164
 1889POPC   GL126389  28.329  43.893   8.864
 1889POPC   GL226390  28.284  44.035   8.864
 1889POPC   C1A26391  28.361  43.866   8.564
 1889POPC   D2A26392  28.374  43.900   8.264
 1889POPC   C3A26393  28.347  43.919   7.964
 1889POPC   C4A26394  28.370  43.846   7.664
 1889POPC   C1B26395  28.251  44.067   8.564
 1889POPC   C2B26396  28.219  44.123   8.264
 1889POPC   C3B26397  28.227  44.143   7.964
 1889POPC   C4B26398  28.281  44.127   7.664
 1890POPC   NC326399  12.885  12.032   9.464
 1890POPC   PO426400  12.869  12.036   9.164
 1890POPC   GL126401  12.817  12.044   8.864
 1890POPC   GL226402  12.780  11.941   8.864
 1890POPC   C1A26403  12.865  12.094   8.564
 1890POPC   D2A26404  12.821  12.064   8.264
 1890POPC   C3A26405  12.849  12.120   7.964
 1890POPC   C4A26406  12.866  12.126   7.664
 1890POPC   C1B26407  12.745  11.783   8.564
 1890POPC   C2B26408  12.761  11.858   8.264
 1890POPC   C3B26409  12.822  11.818   7.964
 1890POPC   C4B26410  12.798  11.868   7.664
 1891POPC   NC326411   4.367  37.662   9.464
 1891POPC   PO426412   4.345  37.708   9.164
 1891POPC   GL126413   4.291  37.711   8.864
 1891POPC   GL226414   4.313  37.853   8.864
 1891POPC   C1A26415   4.301  37.640   8.564
 1891POPC   D2A26416   4.367  37.660   8.264
 1891POPC   C3A26417   4.364  37.728   7.964
 1891POPC   C4A26418   4.365  37.679   7.664
 1891POPC   C1B26419   4.367  37.968   8.564
 1891POPC   C2B26420   4.304  37.946   8.264
 1891POPC   C3B26421   4.368  37.893   7.964
 1891POPC   C4B26422   4.300  37.964   7.664
 1892POPC   NC326423  39.268  43.096   9.464
 1892POPC   PO426424  39.270  43.061   9.164
 1892POPC   GL126425  39.186  43.141   8.864
 1892POPC   GL226426  39.145  43.165   8.864
 1892POPC   C1A26427  39.253  43.132   8.564
 1892POPC   D2A26428  39.280  43.063   8.264
 1892POPC   C3A26429  39.219  43.121   7.964
 1892POPC   C4A26430  39.218  43.100   7.664
 1892POPC   C1B26431  39.119  43.347   8.564
 1892POPC   C2B26432  39.097  43.306   8.264
 1892POPC   C3B26433  39.097  43.288   7.964
 1892POPC   C4B26434  39.087  43.267   7.664
 1893POPC   NC326435  41.547   2.719   9.464
 1893POPC   PO426436  41.575   2.751   9.164
 1893POPC   GL126437  41.593   2.757   8.864
 1893POPC   GL226438  41.700   2.867   8.864
 1893POPC   C1A26439  41.512   2.814   8.564
 1893POPC   D2A26440  41.589   2.769   8.264
 1893POPC   C3A26441  41.548   2.776   7.964
 1893POPC   C4A26442  41.516   2.726   7.664
 1893POPC   C1B26443  41.785   2.898   8.564
 1893POPC   C2B26444  41.784   2.899   8.264
 1893POPC   C3B26445  41.800   2.930   7.964
 1893POPC   C4B26446  41.726   2.897   7.664
 1894POPC   NC326447  15.173  33.058   9.464
 1894POPC   PO426448  15.228  33.024   9.164
 1894POPC   GL126449  15.141  33.059   8.864
 1894POPC   GL226450  15.293  33.079   8.864
 1894POPC   C1A26451  15.169  33.026   8.564
 1894POPC   D2A26452  15.216  33.052   8.264
 1894POPC   C3A26453  15.203  33.044   7.964
 1894POPC   C4A26454  15.131  33.053   7.664
 1894POPC   C1B26455  15.419  33.092   8.564
 1894POPC   C2B26456  15.399  33.061   8.264
 1894POPC   C3B26457  15.393  33.082   7.964
 1894POPC   C4B26458  15.458  33.056   7.664
 1895POPC   NC326459  29.917   8.992   9.464
 1895POPC   PO426460  29.900   9.011   9.164
 1895POPC   GL126461  29.873   8.970   8.864
 1895POPC   GL226462  29.979   8.931   8.864
 1895POPC   C1A26463  29.916   8.946   8.564
 1895POPC   D2A26464  29.895   8.970   8.264
 1895POPC   C3A26465  29.964   8.943   7.964
 1895POPC   C4A26466  29.916   8.931   7.664
 1895POPC   C1B26467  30.105   8.857   8.564
 1895POPC   C2B26468  30.151   8.841   8.264
 1895POPC   C3B26469  30.082   8.844   7.964
 1895POPC   C4B26470  30.166   8.813   7.664
 1896POPC   NC326471  20.580  33.848   9.464
 1896POPC   PO426472  20.622  33.817   9.164
 1896POPC   GL126473  20.562  33.784   8.864
 1896POPC   GL226474  20.546  33.926   8.864
 1896POPC   C1A26475  20.606  33.804   8.564
 1896POPC   D2A26476  20.562  33.822   8.264
 1896POPC   C3A26477  20.604  33.788   7.964
 1896POPC   C4A26478  20.645  33.790   7.664
 1896POPC   C1B26479  20.453  33.981   8.564
 1896POPC   C2B26480  20.420  34.015   8.264
 1896POPC   C3B26481  20.485  34.021   7.964
 1896POPC   C4B26482  20.462  33.952   7.664
 1897POPC   NC326483  28.372  41.529   9.464
 1897POPC   PO426484  28.356  41.550   9.164
 1897POPC   GL126485  28.408  41.553   8.864
 1897POPC   GL226486  28.292  41.670   8.864
 1897POPC   C1A26487  28.348  41.545   8.564
 1897POPC   D2A26488  28.319  41.524   8.264
 1897POPC   C3A26489  28.382  41.606   7.964
 1897POPC   C4A26490  28.353  41.557   7.664
 1897POPC   C1B26491  28.359  41.780   8.564
 1897POPC   C2B26492  28.345  41.780   8.264
 1897POPC   C3B26493  28.350  41.752   7.964
 1897POPC   C4B26494  28.361  41.764   7.664
 1898POPC   NC326495  29.886  23.672   9.464
 1898POPC   PO426496  29.871  23.697   9.164
 1898POPC   GL126497  29.874  23.670   8.864
 1898POPC   GL226498  30.082  23.762   8.864
 1898POPC   C1A26499  29.906  23.678   8.564
 1898POPC   D2A26500  29.942  23.699   8.264
 1898POPC   C3A26501  29.882  23.705   7.964
 1898POPC   C4A26502  29.876  23.751   7.664
 1898POPC   C1B26503  30.196  23.806   8.564
 1898POPC   C2B26504  30.198  23.746   8.264
 1898POPC   C3B26505  30.168  23.816   7.964
 1898POPC   C4B26506  30.190  23.767   7.664
 1899POPC   NC326507  36.929  27.625   9.464
 1899POPC   PO426508  36.862  27.633   9.164
 1899POPC   GL126509  36.918  27.597   8.864
 1899POPC   GL226510  36.908  27.432   8.864
 1899POPC   C1A26511  36.918  27.582   8.564
 1899POPC   D2A26512  36.947  27.618   8.264
 1899POPC   C3A26513  36.923  27.550   7.964
 1899POPC   C4A26514  36.900  27.593   7.664
 1899POPC   C1B26515  36.868  27.346   8.564
 1899POPC   C2B26516  36.859  27.295   8.264
 1899POPC   C3B26517  36.838  27.317   7.964
 1899POPC   C4B26518  36.842  27.383   7.664
 1900POPC   NC326519  12.857  29.912   9.464
 1900POPC   PO426520  12.883  29.948   9.164
 1900POPC   GL126521  12.848  29.883   8.864
 1900POPC   GL226522  12.849  29.822   8.864
 1900POPC   C1A26523  12.812  29.896   8.564
 1900POPC   D2A26524  12.826  29.948   8.264
 1900POPC   C3A26525  12.842  29.924   7.964
 1900POPC   C4A26526  12.808  29.880   7.664
 1900POPC   C1B26527  12.882  29.631   8.564
 1900POPC   C2B26528  12.943  29.715   8.264
 1900POPC   C3B26529  12.902  29.665   7.964
 1900POPC   C4B26530  12.870  29.641   7.664
 1901POPC   NC326531  13.593   0.466   9.464
 1901POPC   PO426532  13.664   0.454   9.164
 1901POPC   GL126533  13.578   0.409   8.864
 1901POPC   GL226534  13.716   0.520   8.864
 1901POPC   C1A26535  13.659   0.415   8.564
 1901POPC   D2A26536  13.609   0.449   8.264
 1901POPC   C3A26537  13.657   0.471   7.964
 1901POPC   C4A26538  13.643   0.394   7.664
 1901POPC   C1B26539  13.729   0.637   8.564
 1901POPC   C2B26540  13.760   0.635   8.264
 1901POPC   C3B26541  13.757   0.625   7.964
 1901POPC   C4B26542  13.790   0.670   7.664
 1902POPC   NC326543  23.667  12.809   9.464
 1902POPC   PO426544  23.731  12.900   9.164
 1902POPC   GL126545  23.741  12.860   8.864
 1902POPC   GL226546  23.735  12.728   8.864
 1902POPC   C1A26547  23.668  12.858   8.564
 1902POPC   D2A26548  23.704  12.811   8.264
 1902POPC   C3A26549  23.695  12.864   7.964
 1902POPC   C4A26550  23.734  12.833   7.664
 1902POPC   C1B26551  23.746  12.605   8.564
 1902POPC   C2B26552  23.754  12.597   8.264
 1902POPC   C3B26553  23.776  12.636   7.964
 1902POPC   C4B26554  23.795  12.643   7.664
 1903POPC   NC326555  21.421  12.896   9.464
 1903POPC   PO426556  21.358  12.859   9.164
 1903POPC   GL126557  21.416  12.853   8.864
 1903POPC   GL226558  21.310  12.914   8.864
 1903POPC   C1A26559  21.403  12.888   8.564
 1903POPC   D2A26560  21.400  12.871   8.264
 1903POPC   C3A26561  21.378  12.826   7.964
 1903POPC   C4A26562  21.367  12.869   7.664
 1903POPC   C1B26563  21.197  12.935   8.564
 1903POPC   C2B26564  21.154  12.954   8.264
 1903POPC   C3B26565  21.125  12.913   7.964
 1903POPC   C4B26566  21.138  12.997   7.664
 1904POPC   NC326567  36.163  17.496   9.464
 1904POPC   PO426568  36.107  17.549   9.164
 1904POPC   GL126569  36.119  17.543   8.864
 1904POPC   GL226570  36.270  17.488   8.864
 1904POPC   C1A26571  36.129  17.534   8.564
 1904POPC   D2A26572  36.165  17.466   8.264
 1904POPC   C3A26573  36.149  17.470   7.964
 1904POPC   C4A26574  36.140  17.548   7.664
 1904POPC   C1B26575  36.406  17.372   8.564
 1904POPC   C2B26576  36.363  17.380   8.264
 1904POPC   C3B26577  36.325  17.386   7.964
 1904POPC   C4B26578  36.351  17.362   7.664
 1905POPC   NC326579  15.185   2.740   9.464
 1905POPC   PO426580  15.166   2.796   9.164
 1905POPC   GL126581  15.146   2.732   8.864
 1905POPC   GL226582  15.227   2.930   8.864
 1905POPC   C1A26583  15.179   2.724   8.564
 1905POPC   D2A26584  15.146   2.741   8.264
 1905POPC   C3A26585  15.198   2.742   7.964
 1905POPC   C4A26586  15.154   2.742   7.664
 1905POPC   C1B26587  15.223   2.995   8.564
 1905POPC   C2B26588  15.172   3.025   8.264
 1905POPC   C3B26589  15.173   2.987   7.964
 1905POPC   C4B26590  15.162   3.058   7.664
 1906POPC   NC326591  43.073   3.576   9.464
 1906POPC   PO426592  43.157   3.588   9.164
 1906POPC   GL126593  43.092   3.521   8.864
 1906POPC   GL226594  43.084   3.672   8.864
 1906POPC   C1A26595  43.114   3.522   8.564
 1906POPC   D2A26596  43.125   3.529   8.264
 1906POPC   C3A26597  43.126   3.529   7.964
 1906POPC   C4A26598  43.112   3.504   7.664
 1906POPC   C1B26599  43.128   3.840   8.564
 1906POPC   C2B26600  43.118   3.742   8.264
 1906POPC   C3B26601  43.091   3.796   7.964
 1906POPC   C4B26602  43.133   3.787   7.664
 1907POPC   NC326603   2.766  33.017   9.464
 1907POPC   PO426604   2.777  33.073   9.164
 1907POPC   GL126605   2.773  33.016   8.864
 1907POPC   GL226606   2.694  32.954   8.864
 1907POPC   C1A26607   2.751  32.996   8.564
 1907POPC   D2A26608   2.752  33.040   8.264
 1907POPC   C3A26609   2.739  33.027   7.964
 1907POPC   C4A26610   2.801  33.067   7.664
 1907POPC   C1B26611   2.557  32.967   8.564
 1907POPC   C2B26612   2.571  32.986   8.264
 1907POPC   C3B26613   2.575  32.980   7.964
 1907POPC   C4B26614   2.556  32.915   7.664
 1908POPC   NC326615  30.736  43.080   9.464
 1908POPC   PO426616  30.695  43.083   9.164
 1908POPC   GL126617  30.657  43.159   8.864
 1908POPC   GL226618  30.625  43.201   8.864
 1908POPC   C1A26619  30.743  43.119   8.564
 1908POPC   D2A26620  30.668  43.141   8.264
 1908POPC   C3A26621  30.666  43.087   7.964
 1908POPC   C4A26622  30.741  43.135   7.664
 1908POPC   C1B26623  30.628  43.350   8.564
 1908POPC   C2B26624  30.624  43.394   8.264
 1908POPC   C3B26625  30.648  43.331   7.964
 1908POPC   C4B26626  30.684  43.319   7.664
 1909POPC   NC326627  28.373  38.488   9.464
 1909POPC   PO426628  28.360  38.450   9.164
 1909POPC   GL126629  28.323  38.500   8.864
 1909POPC   GL226630  28.495  38.474   8.864
 1909POPC   C1A26631  28.397  38.430   8.564
 1909POPC   D2A26632  28.380  38.474   8.264
 1909POPC   C3A26633  28.348  38.431   7.964
 1909POPC   C4A26634  28.358  38.460   7.664
 1909POPC   C1B26635  28.621  38.608   8.564
 1909POPC   C2B26636  28.608  38.551   8.264
 1909POPC   C3B26637  28.602  38.599   7.964
 1909POPC   C4B26638  28.617  38.560   7.664
 1910POPC   NC326639  35.340  37.699   9.464
 1910POPC   PO426640  35.308  37.727   9.164
 1910POPC   GL126641  35.365  37.703   8.864
 1910POPC   GL226642  35.338  37.531   8.864
 1910POPC   C1A26643  35.310  37.651   8.564
 1910POPC   D2A26644  35.337  37.636   8.264
 1910POPC   C3A26645  35.318  37.651   7.964
 1910POPC   C4A26646  35.326  37.642   7.664
 1910POPC   C1B26647  35.257  37.441   8.564
 1910POPC   C2B26648  35.269  37.394   8.264
 1910POPC   C3B26649  35.259  37.403   7.964
 1910POPC   C4B26650  35.229  37.478   7.664
 1911POPC   NC326651  26.061  44.707   9.464
 1911POPC   PO426652  26.066  44.654   9.164
 1911POPC   GL126653  26.045  44.630   8.864
 1911POPC   GL226654  25.986  44.553   8.864
 1911POPC   C1A26655  26.077  44.615   8.564
 1911POPC   D2A26656  26.030  44.637   8.264
 1911POPC   C3A26657  26.037  44.689   7.964
 1911POPC   C4A26658  26.087  44.615   7.664
 1911POPC   C1B26659  25.907  44.488   8.564
 1911POPC   C2B26660  25.892  44.466   8.264
 1911POPC   C3B26661  25.907  44.496   7.964
 1911POPC   C4B26662  25.912  44.463   7.664
 1912POPC   NC326663  19.823   9.735   9.464
 1912POPC   PO426664  19.872   9.784   9.164
 1912POPC   GL126665  19.787   9.722   8.864
 1912POPC   GL226666  19.821   9.834   8.864
 1912POPC   C1A26667  19.852   9.782   8.564
 1912POPC   D2A26668  19.863   9.782   8.264
 1912POPC   C3A26669  19.828   9.797   7.964
 1912POPC   C4A26670  19.842   9.795   7.664
 1912POPC   C1B26671  19.750  10.005   8.564
 1912POPC   C2B26672  19.744   9.985   8.264
 1912POPC   C3B26673  19.782   9.986   7.964
 1912POPC   C4B26674  19.724   9.995   7.664
 1913POPC   NC326675  13.600  15.229   9.464
 1913POPC   PO426676  13.661  15.193   9.164
 1913POPC   GL126677  13.586  15.188   8.864
 1913POPC   GL226678  13.464  15.209   8.864
 1913POPC   C1A26679  13.607  15.197   8.564
 1913POPC   D2A26680  13.658  15.212   8.264
 1913POPC   C3A26681  13.602  15.226   7.964
 1913POPC   C4A26682  13.663  15.183   7.664
 1913POPC   C1B26683  13.408  15.265   8.564
 1913POPC   C2B26684  13.372  15.248   8.264
 1913POPC   C3B26685  13.428  15.280   7.964
 1913POPC   C4B26686  13.363  15.287   7.664
 1914POPC   NC326687  26.060  33.060   9.464
 1914POPC   PO426688  26.062  33.049   9.164
 1914POPC   GL126689  26.071  33.068   8.864
 1914POPC   GL226690  25.941  32.978   8.864
 1914POPC   C1A26691  26.074  33.064   8.564
 1914POPC   D2A26692  26.086  33.036   8.264
 1914POPC   C3A26693  25.994  33.069   7.964
 1914POPC   C4A26694  25.998  32.989   7.664
 1914POPC   C1B26695  25.810  32.985   8.564
 1914POPC   C2B26696  25.826  32.966   8.264
 1914POPC   C3B26697  25.816  32.931   7.964
 1914POPC   C4B26698  25.820  32.898   7.664
 1915POPC   NC326699  36.102  37.678   9.464
 1915POPC   PO426700  36.135  37.710   9.164
 1915POPC   GL126701  36.166  37.642   8.864
 1915POPC   GL226702  36.249  37.605   8.864
 1915POPC   C1A26703  36.108  37.703   8.564
 1915POPC   D2A26704  36.117  37.674   8.264
 1915POPC   C3A26705  36.096  37.721   7.964
 1915POPC   C4A26706  36.151  37.715   7.664
 1915POPC   C1B26707  36.308  37.533   8.564
 1915POPC   C2B26708  36.308  37.579   8.264
 1915POPC   C3B26709  36.325  37.590   7.964
 1915POPC   C4B26710  36.337  37.546   7.664
 1916POPC   NC326711  12.089   2.717   9.464
 1916POPC   PO426712  12.109   2.768   9.164
 1916POPC   GL126713  12.065   2.759   8.864
 1916POPC   GL226714  12.121   2.676   8.864
 1916POPC   C1A26715  12.117   2.743   8.564
 1916POPC   D2A26716  12.060   2.720   8.264
 1916POPC   C3A26717  12.040   2.761   7.964
 1916POPC   C4A26718  12.114   2.731   7.664
 1916POPC   C1B26719  12.122   2.530   8.564
 1916POPC   C2B26720  12.129   2.523   8.264
 1916POPC   C3B26721  12.145   2.573   7.964
 1916POPC   C4B26722  12.119   2.575   7.664
 1917POPC   NC326723  11.269  35.361   9.464
 1917POPC   PO426724  11.304  35.343   9.164
 1917POPC   GL126725  11.323  35.338   8.864
 1917POPC   GL226726  11.242  35.422   8.864
 1917POPC   C1A26727  11.307  35.379   8.564
 1917POPC   D2A26728  11.255  35.345   8.264
 1917POPC   C3A26729  11.256  35.318   7.964
 1917POPC   C4A26730  11.268  35.313   7.664
 1917POPC   C1B26731  11.201  35.633   8.564
 1917POPC   C2B26732  11.178  35.580   8.264
 1917POPC   C3B26733  11.193  35.600   7.964
 1917POPC   C4B26734  11.248  35.604   7.664
 1918POPC   NC326735  12.810  27.568   9.464
 1918POPC   PO426736  12.844  27.561   9.164
 1918POPC   GL126737  12.846  27.544   8.864
 1918POPC   GL226738  12.706  27.591   8.864
 1918POPC   C1A26739  12.893  27.620   8.564
 1918POPC   D2A26740  12.852  27.552   8.264
 1918POPC   C3A26741  12.884  27.615   7.964
 1918POPC   C4A26742  12.816  27.605   7.664
 1918POPC   C1B26743  12.632  27.672   8.564
 1918POPC   C2B26744  12.588  27.690   8.264
 1918POPC   C3B26745  12.635  27.630   7.964
 1918POPC   C4B26746  12.657  27.674   7.664
 1919POPC   NC326747  33.844  24.497   9.464
 1919POPC   PO426748  33.806  24.485   9.164
 1919POPC   GL126749  33.839  24.499   8.864
 1919POPC   GL226750  33.799  24.604   8.864
 1919POPC   C1A26751  33.818  24.490   8.564
 1919POPC   D2A26752  33.804  24.502   8.264
 1919POPC   C3A26753  33.822  24.499   7.964
 1919POPC   C4A26754  33.780  24.497   7.664
 1919POPC   C1B26755  33.739  24.696   8.564
 1919POPC   C2B26756  33.718  24.717   8.264
 1919POPC   C3B26757  33.747  24.750   7.964
 1919POPC   C4B26758  33.700  24.769   7.664
 1920POPC   NC326759  36.866  18.325   9.464
 1920POPC   PO426760  36.915  18.256   9.164
 1920POPC   GL126761  36.927  18.323   8.864
 1920POPC   GL226762  36.895  18.190   8.864
 1920POPC   C1A26763  36.908  18.313   8.564
 1920POPC   D2A26764  36.888  18.315   8.264
 1920POPC   C3A26765  36.862  18.283   7.964
 1920POPC   C4A26766  36.869  18.315   7.664
 1920POPC   C1B26767  36.917  18.053   8.564
 1920POPC   C2B26768  36.914  18.020   8.264
 1920POPC   C3B26769  36.862  18.068   7.964
 1920POPC   C4B26770  36.908  17.988   7.664
 1921POPC   NC326771  30.730  27.550   9.464
 1921POPC   PO426772  30.665  27.569   9.164
 1921POPC   GL126773  30.691  27.621   8.864
 1921POPC   GL226774  30.756  27.694   8.864
 1921POPC   C1A26775  30.660  27.613   8.564
 1921POPC   D2A26776  30.659  27.580   8.264
 1921POPC   C3A26777  30.709  27.635   7.964
 1921POPC   C4A26778  30.725  27.620   7.664
 1921POPC   C1B26779  30.878  27.688   8.564
 1921POPC   C2B26780  30.952  27.749   8.264
 1921POPC   C3B26781  30.899  27.710   7.964
 1921POPC   C4B26782  30.882  27.693   7.664
 1922POPC   NC326783  12.867  21.370   9.464
 1922POPC   PO426784  12.846  21.387   9.164
 1922POPC   GL126785  12.807  21.361   8.864
 1922POPC   GL226786  12.733  21.325   8.864
 1922POPC   C1A26787  12.804  21.417   8.564
 1922POPC   D2A26788  12.837  21.424   8.264
 1922POPC   C3A26789  12.850  21.389   7.964
 1922POPC   C4A26790  12.853  21.362   7.664
 1922POPC   C1B26791  12.682  21.305   8.564
 1922POPC   C2B26792  12.641  21.300   8.264
 1922POPC   C3B26793  12.587  21.304   7.964
 1922POPC   C4B26794  12.603  21.284   7.664
 1923POPC   NC326795  43.924  22.119   9.464
 1923POPC   PO426796  43.879  22.187   9.164
 1923POPC   GL126797  43.902  22.169   8.864
 1923POPC   GL226798  44.041  22.156   8.864
 1923POPC   C1A26799  43.918  22.202   8.564
 1923POPC   D2A26800  43.864  22.184   8.264
 1923POPC   C3A26801  43.865  22.201   7.964
 1923POPC   C4A26802  43.837  22.204   7.664
 1923POPC   C1B26803  44.092  22.115   8.564
 1923POPC   C2B26804  44.146  22.137   8.264
 1923POPC   C3B26805  44.139  22.168   7.964
 1923POPC   C4B26806  44.109  22.158   7.664
 1924POPC   NC326807  21.388  15.944   9.464
 1924POPC   PO426808  21.382  15.930   9.164
 1924POPC   GL126809  21.391  15.991   8.864
 1924POPC   GL226810  21.416  15.841   8.864
 1924POPC   C1A26811  21.393  15.965   8.564
 1924POPC   D2A26812  21.432  15.986   8.264
 1924POPC   C3A26813  21.426  15.933   7.964
 1924POPC   C4A26814  21.384  15.935   7.664
 1924POPC   C1B26815  21.527  15.696   8.564
 1924POPC   C2B26816  21.490  15.726   8.264
 1924POPC   C3B26817  21.530  15.748   7.964
 1924POPC   C4B26818  21.501  15.733   7.664
 1925POPC   NC326819   2.812  35.360   9.464
 1925POPC   PO426820   2.789  35.376   9.164
 1925POPC   GL126821   2.725  35.351   8.864
 1925POPC   GL226822   2.771  35.525   8.864
 1925POPC   C1A26823   2.807  35.354   8.564
 1925POPC   D2A26824   2.776  35.306   8.264
 1925POPC   C3A26825   2.759  35.345   7.964
 1925POPC   C4A26826   2.724  35.378   7.664
 1925POPC   C1B26827   2.745  35.642   8.564
 1925POPC   C2B26828   2.743  35.607   8.264
 1925POPC   C3B26829   2.801  35.598   7.964
 1925POPC   C4B26830   2.811  35.643   7.664
 1926POPC   NC326831   3.590  36.081   9.464
 1926POPC   PO426832   3.555  36.082   9.164
 1926POPC   GL126833   3.519  36.161   8.864
 1926POPC   GL226834   3.678  36.211   8.864
 1926POPC   C1A26835   3.511  36.106   8.564
 1926POPC   D2A26836   3.549  36.141   8.264
 1926POPC   C3A26837   3.585  36.093   7.964
 1926POPC   C4A26838   3.492  36.133   7.664
 1926POPC   C1B26839   3.719  36.221   8.564
 1926POPC   C2B26840   3.789  36.251   8.264
 1926POPC   C3B26841   3.714  36.309   7.964
 1926POPC   C4B26842   3.759  36.308   7.664
 1927POPC   NC326843  31.450   4.327   9.464
 1927POPC   PO426844  31.426   4.293   9.164
 1927POPC   GL126845  31.462   4.291   8.864
 1927POPC   GL226846  31.552   4.456   8.864
 1927POPC   C1A26847  31.427   4.326   8.564
 1927POPC   D2A26848  31.513   4.317   8.264
 1927POPC   C3A26849  31.479   4.353   7.964
 1927POPC   C4A26850  31.506   4.329   7.664
 1927POPC   C1B26851  31.607   4.479   8.564
 1927POPC   C2B26852  31.646   4.489   8.264
 1927POPC   C3B26853  31.634   4.540   7.964
 1927POPC   C4B26854  31.580   4.503   7.664
 1928POPC   NC326855  16.769  21.361   9.464
 1928POPC   PO426856  16.725  21.421   9.164
 1928POPC   GL126857  16.746  21.420   8.864
 1928POPC   GL226858  16.589  21.418   8.864
 1928POPC   C1A26859  16.698  21.369   8.564
 1928POPC   D2A26860  16.764  21.368   8.264
 1928POPC   C3A26861  16.754  21.418   7.964
 1928POPC   C4A26862  16.699  21.349   7.664
 1928POPC   C1B26863  16.502  21.455   8.564
 1928POPC   C2B26864  16.448  21.425   8.264
 1928POPC   C3B26865  16.447  21.443   7.964
 1928POPC   C4B26866  16.534  21.389   7.664
 1929POPC   NC326867  35.315  43.913   9.464
 1929POPC   PO426868  35.377  43.844   9.164
 1929POPC   GL126869  35.333  43.874   8.864
 1929POPC   GL226870  35.302  43.776   8.864
 1929POPC   C1A26871  35.370  43.878   8.564
 1929POPC   D2A26872  35.390  43.891   8.264
 1929POPC   C3A26873  35.363  43.885   7.964
 1929POPC   C4A26874  35.379  43.875   7.664
 1929POPC   C1B26875  35.297  43.656   8.564
 1929POPC   C2B26876  35.266  43.631   8.264
 1929POPC   C3B26877  35.301  43.694   7.964
 1929POPC   C4B26878  35.300  43.616   7.664
 1930POPC   NC326879   5.106   8.229   9.464
 1930POPC   PO426880   5.060   8.153   9.164
 1930POPC   GL126881   5.107   8.236   8.864
 1930POPC   GL226882   5.034   8.317   8.864
 1930POPC   C1A26883   5.098   8.176   8.564
 1930POPC   D2A26884   5.059   8.244   8.264
 1930POPC   C3A26885   5.105   8.155   7.964
 1930POPC   C4A26886   5.068   8.152   7.664
 1930POPC   C1B26887   4.981   8.393   8.564
 1930POPC   C2B26888   5.003   8.462   8.264
 1930POPC   C3B26889   4.984   8.422   7.964
 1930POPC   C4B26890   4.930   8.387   7.664
 1931POPC   NC326891  42.383  44.623   9.464
 1931POPC   PO426892  42.330  44.670   9.164
 1931POPC   GL126893  42.298  44.703   8.864
 1931POPC   GL226894  42.434  44.734   8.864
 1931POPC   C1A26895  42.322  44.651   8.564
 1931POPC   D2A26896  42.378  44.621   8.264
 1931POPC   C3A26897  42.305  44.692   7.964
 1931POPC   C4A26898  42.285  44.628   7.664
 1931POPC   C1B26899  42.471  44.834   8.564
 1931POPC   C2B26900  42.480  44.869   8.264
 1931POPC   C3B26901  42.555  44.831   7.964
 1931POPC   C4B26902  42.543  44.811   7.664
 1932POPC   NC326903  13.613   7.393   9.464
 1932POPC   PO426904  13.648   7.458   9.164
 1932POPC   GL126905  13.612   7.452   8.864
 1932POPC   GL226906  13.480   7.425   8.864
 1932POPC   C1A26907  13.626   7.434   8.564
 1932POPC   D2A26908  13.642   7.428   8.264
 1932POPC   C3A26909  13.646   7.404   7.964
 1932POPC   C4A26910  13.625   7.451   7.664
 1932POPC   C1B26911  13.346   7.405   8.564
 1932POPC   C2B26912  13.414   7.373   8.264
 1932POPC   C3B26913  13.337   7.400   7.964
 1932POPC   C4B26914  13.348   7.460   7.664
 1933POPC   NC326915   5.878  28.408   9.464
 1933POPC   PO426916   5.881  28.411   9.164
 1933POPC   GL126917   5.913  28.378   8.864
 1933POPC   GL226918   5.786  28.321   8.864
 1933POPC   C1A26919   5.905  28.350   8.564
 1933POPC   D2A26920   5.828  28.335   8.264
 1933POPC   C3A26921   5.900  28.363   7.964
 1933POPC   C4A26922   5.880  28.393   7.664
 1933POPC   C1B26923   5.676  28.315   8.564
 1933POPC   C2B26924   5.664  28.310   8.264
 1933POPC   C3B26925   5.641  28.327   7.964
 1933POPC   C4B26926   5.591  28.248   7.664
 1934POPC   NC326927  39.209  15.921   9.464
 1934POPC   PO426928  39.259  15.976   9.164
 1934POPC   GL126929  39.247  15.950   8.864
 1934POPC   GL226930  39.124  15.936   8.864
 1934POPC   C1A26931  39.211  15.975   8.564
 1934POPC   D2A26932  39.247  15.926   8.264
 1934POPC   C3A26933  39.215  15.940   7.964
 1934POPC   C4A26934  39.257  15.924   7.664
 1934POPC   C1B26935  39.034  15.985   8.564
 1934POPC   C2B26936  38.972  16.007   8.264
 1934POPC   C3B26937  38.981  16.010   7.964
 1934POPC   C4B26938  39.037  16.059   7.664
 1935POPC   NC326939   8.986  10.568   9.464
 1935POPC   PO426940   8.995  10.567   9.164
 1935POPC   GL126941   8.940  10.527   8.864
 1935POPC   GL226942   9.044  10.535   8.864
 1935POPC   C1A26943   8.954  10.521   8.564
 1935POPC   D2A26944   8.930  10.562   8.264
 1935POPC   C3A26945   8.959  10.476   7.964
 1935POPC   C4A26946   8.986  10.548   7.664
 1935POPC   C1B26947   9.213  10.600   8.564
 1935POPC   C2B26948   9.180  10.639   8.264
 1935POPC   C3B26949   9.214  10.604   7.964
 1935POPC   C4B26950   9.244  10.673   7.664
 1936POPC   NC326951   2.798  36.932   9.464
 1936POPC   PO426952   2.799  36.950   9.164
 1936POPC   GL126953   2.785  36.945   8.864
 1936POPC   GL226954   2.747  36.975   8.864
 1936POPC   C1A26955   2.753  36.863   8.564
 1936POPC   D2A26956   2.721  36.859   8.264
 1936POPC   C3A26957   2.717  36.933   7.964
 1936POPC   C4A26958   2.740  36.880   7.664
 1936POPC   C1B26959   2.698  37.159   8.564
 1936POPC   C2B26960   2.637  37.166   8.264
 1936POPC   C3B26961   2.635  37.107   7.964
 1936POPC   C4B26962   2.601  37.165   7.664
 1937POPC   NC326963   1.209   6.682   9.464
 1937POPC   PO426964   1.259   6.688   9.164
 1937POPC   GL126965   1.200   6.642   8.864
 1937POPC   GL226966   1.344   6.543   8.864
 1937POPC   C1A26967   1.241   6.668   8.564
 1937POPC   D2A26968   1.176   6.676   8.264
 1937POPC   C3A26969   1.215   6.650   7.964
 1937POPC   C4A26970   1.165   6.654   7.664
 1937POPC   C1B26971   1.464   6.464   8.564
 1937POPC   C2B26972   1.409   6.472   8.264
 1937POPC   C3B26973   1.413   6.507   7.964
 1937POPC   C4B26974   1.393   6.501   7.664
 1938POPC   NC326975  41.562  24.538   9.464
 1938POPC   PO426976  41.584  24.506   9.164
 1938POPC   GL126977  41.513  24.515   8.864
 1938POPC   GL226978  41.680  24.383   8.864
 1938POPC   C1A26979  41.529  24.522   8.564
 1938POPC   D2A26980  41.569  24.509   8.264
 1938POPC   C3A26981  41.605  24.495   7.964
 1938POPC   C4A26982  41.519  24.442   7.664
 1938POPC   C1B26983  41.715  24.315   8.564
 1938POPC   C2B26984  41.721  24.301   8.264
 1938POPC   C3B26985  41.728  24.354   7.964
 1938POPC   C4B26986  41.733  24.367   7.664
 1939POPC   NC326987  31.441  30.719   9.464
 1939POPC   PO426988  31.503  30.711   9.164
 1939POPC   GL126989  31.439  30.669   8.864
 1939POPC   GL226990  31.373  30.621   8.864
 1939POPC   C1A26991  31.470  30.698   8.564
 1939POPC   D2A26992  31.433  30.733   8.264
 1939POPC   C3A26993  31.458  30.655   7.964
 1939POPC   C4A26994  31.517  30.702   7.664
 1939POPC   C1B26995  31.348  30.485   8.564
 1939POPC   C2B26996  31.346  30.544   8.264
 1939POPC   C3B26997  31.315  30.542   7.964
 1939POPC   C4B26998  31.291  30.479   7.664
 1940POPC   NC326999  26.045   1.985   9.464
 1940POPC   PO427000  26.060   2.035   9.164
 1940POPC   GL127001  26.027   1.971   8.864
 1940POPC   GL227002  25.952   1.874   8.864
 1940POPC   C1A27003  26.025   2.034   8.564
 1940POPC   D2A27004  25.999   1.981   8.264
 1940POPC   C3A27005  26.087   1.971   7.964
 1940POPC   C4A27006  25.994   2.028   7.664
 1940POPC   C1B27007  25.987   1.712   8.564
 1940POPC   C2B27008  25.972   1.767   8.264
 1940POPC   C3B27009  25.985   1.777   7.964
 1940POPC   C4B27010  25.908   1.779   7.664
 1941POPC   NC327011  16.692   9.000   9.464
 1941POPC   PO427012  16.771   8.994   9.164
 1941POPC   GL127013  16.705   9.018   8.864
 1941POPC   GL227014  16.858   8.899   8.864
 1941POPC   C1A27015  16.727   8.960   8.564
 1941POPC   D2A27016  16.706   8.974   8.264
 1941POPC   C3A27017  16.732   9.008   7.964
 1941POPC   C4A27018  16.695   8.995   7.664
 1941POPC   C1B27019  16.846   8.811   8.564
 1941POPC   C2B27020  16.920   8.770   8.264
 1941POPC   C3B27021  16.872   8.742   7.964
 1941POPC   C4B27022  16.897   8.756   7.664
 1942POPC   NC327023  36.154  27.588   9.464
 1942POPC   PO427024  36.154  27.575   9.164
 1942POPC   GL127025  36.096  27.603   8.864
 1942POPC   GL227026  36.221  27.496   8.864
 1942POPC   C1A27027  36.172  27.613   8.564
 1942POPC   D2A27028  36.087  27.605   8.264
 1942POPC   C3A27029  36.090  27.556   7.964
 1942POPC   C4A27030  36.150  27.626   7.664
 1942POPC   C1B27031  36.293  27.452   8.564
 1942POPC   C2B27032  36.290  27.470   8.264
 1942POPC   C3B27033  36.300  27.479   7.964
 1942POPC   C4B27034  36.361  27.447   7.664
 1943POPC   NC327035   2.004  18.302   9.464
 1943POPC   PO427036   1.982  18.295   9.164
 1943POPC   GL127037   2.013  18.264   8.864
 1943POPC   GL227038   2.062  18.368   8.864
 1943POPC   C1A27039   1.964  18.255   8.564
 1943POPC   D2A27040   2.013  18.302   8.264
 1943POPC   C3A27041   2.010  18.248   7.964
 1943POPC   C4A27042   2.019  18.303   7.664
 1943POPC   C1B27043   2.242  18.372   8.564
 1943POPC   C2B27044   2.189  18.393   8.264
 1943POPC   C3B27045   2.256  18.376   7.964
 1943POPC   C4B27046   2.174  18.385   7.664
 1944POPC   NC327047  13.646  11.267   9.464
 1944POPC   PO427048  13.632  11.340   9.164
 1944POPC   GL127049  13.668  11.345   8.864
 1944POPC   GL227050  13.523  11.297   8.864
 1944POPC   C1A27051  13.663  11.328   8.564
 1944POPC   D2A27052  13.631  11.317   8.264
 1944POPC   C3A27053  13.619  11.343   7.964
 1944POPC   C4A27054  13.632  11.326   7.664
 1944POPC   C1B27055  13.412  11.336   8.564
 1944POPC   C2B27056  13.337  11.365   8.264
 1944POPC   C3B27057  13.402  11.357   7.964
 1944POPC   C4B27058  13.431  11.328   7.664
 1945POPC   NC327059   5.854   0.430   9.464
 1945POPC   PO427060   5.874   0.426   9.164
 1945POPC   GL127061   5.900   0.428   8.864
 1945POPC   GL227062   5.887   0.555   8.864
 1945POPC   C1A27063   5.867   0.475   8.564
 1945POPC   D2A27064   5.876   0.440   8.264
 1945POPC   C3A27065   5.905   0.427   7.964
 1945POPC   C4A27066   5.852   0.466   7.664
 1945POPC   C1B27067   5.857   0.716   8.564
 1945POPC   C2B27068   5.921   0.687   8.264
 1945POPC   C3B27069   5.875   0.731   7.964
 1945POPC   C4B27070   5.929   0.704   7.664
 1946POPC   NC327071  30.694  22.975   9.464
 1946POPC   PO427072  30.738  22.947   9.164
 1946POPC   GL127073  30.673  22.983   8.864
 1946POPC   GL227074  30.698  22.802   8.864
 1946POPC   C1A27075  30.698  22.944   8.564
 1946POPC   D2A27076  30.652  22.955   8.264
 1946POPC   C3A27077  30.741  22.927   7.964
 1946POPC   C4A27078  30.698  22.930   7.664
 1946POPC   C1B27079  30.750  22.720   8.564
 1946POPC   C2B27080  30.669  22.733   8.264
 1946POPC   C3B27081  30.718  22.643   7.964
 1946POPC   C4B27082  30.658  22.690   7.664
 1947POPC   NC327083  27.551  43.899   9.464
 1947POPC   PO427084  27.636  43.917   9.164
 1947POPC   GL127085  27.622  43.850   8.864
 1947POPC   GL227086  27.680  43.949   8.864
 1947POPC   C1A27087  27.563  43.852   8.564
 1947POPC   D2A27088  27.566  43.914   8.264
 1947POPC   C3A27089  27.573  43.900   7.964
 1947POPC   C4A27090  27.640  43.856   7.664
 1947POPC   C1B27091  27.682  44.069   8.564
 1947POPC   C2B27092  27.758  44.100   8.264
 1947POPC   C3B27093  27.671  44.083   7.964
 1947POPC   C4B27094  27.682  44.125   7.664
 1948POPC   NC327095  24.517  21.416   9.464
 1948POPC   PO427096  24.534  21.355   9.164
 1948POPC   GL127097  24.475  21.423   8.864
 1948POPC   GL227098  24.322  21.420   8.864
 1948POPC   C1A27099  24.470  21.410   8.564
 1948POPC   D2A27100  24.442  21.416   8.264
 1948POPC   C3A27101  24.513  21.432   7.964
 1948POPC   C4A27102  24.500  21.347   7.664
 1948POPC   C1B27103  24.276  21.435   8.564
 1948POPC   C2B27104  24.245  21.407   8.264
 1948POPC   C3B27105  24.199  21.368   7.964
 1948POPC   C4B27106  24.278  21.409   7.664
 1949POPC   NC327107  29.146   5.832   9.464
 1949POPC   PO427108  29.157   5.908   9.164
 1949POPC   GL127109  29.185   5.893   8.864
 1949POPC   GL227110  29.192   5.958   8.864
 1949POPC   C1A27111  29.157   5.879   8.564
 1949POPC   D2A27112  29.127   5.867   8.264
 1949POPC   C3A27113  29.188   5.852   7.964
 1949POPC   C4A27114  29.178   5.916   7.664
 1949POPC   C1B27115  29.266   6.061   8.564
 1949POPC   C2B27116  29.322   6.041   8.264
 1949POPC   C3B27117  29.308   6.037   7.964
 1949POPC   C4B27118  29.245   6.069   7.664
 1950POPC   NC327119  15.178  24.535   9.464
 1950POPC   PO427120  15.224  24.444   9.164
 1950POPC   GL127121  15.191  24.440   8.864
 1950POPC   GL227122  15.283  24.416   8.864
 1950POPC   C1A27123  15.187  24.470   8.564
 1950POPC   D2A27124  15.192  24.538   8.264
 1950POPC   C3A27125  15.206  24.521   7.964
 1950POPC   C4A27126  15.135  24.536   7.664
 1950POPC   C1B27127  15.437  24.363   8.564
 1950POPC   C2B27128  15.442  24.372   8.264
 1950POPC   C3B27129  15.361  24.359   7.964
 1950POPC   C4B27130  15.413  24.366   7.664
 1951POPC   NC327131   2.765  20.635   9.464
 1951POPC   PO427132   2.721  20.582   9.164
 1951POPC   GL127133   2.787  20.648   8.864
 1951POPC   GL227134   2.785  20.709   8.864
 1951POPC   C1A27135   2.798  20.634   8.564
 1951POPC   D2A27136   2.748  20.614   8.264
 1951POPC   C3A27137   2.767  20.584   7.964
 1951POPC   C4A27138   2.749  20.581   7.664
 1951POPC   C1B27139   2.724  20.836   8.564
 1951POPC   C2B27140   2.700  20.836   8.264
 1951POPC   C3B27141   2.741  20.900   7.964
 1951POPC   C4B27142   2.721  20.835   7.664
 1952POPC   NC327143  14.359  29.940   9.464
 1952POPC   PO427144  14.402  29.902   9.164
 1952POPC   GL127145  14.426  29.949   8.864
 1952POPC   GL227146  14.250  29.896   8.864
 1952POPC   C1A27147  14.447  29.961   8.564
 1952POPC   D2A27148  14.440  29.957   8.264
 1952POPC   C3A27149  14.381  29.914   7.964
 1952POPC   C4A27150  14.396  29.938   7.664
 1952POPC   C1B27151  14.176  29.819   8.564
 1952POPC   C2B27152  14.139  29.890   8.264
 1952POPC   C3B27153  14.131  29.850   7.964
 1952POPC   C4B27154  14.213  29.809   7.664
 1953POPC   NC327155   2.022  28.342   9.464
 1953POPC   PO427156   1.950  28.363   9.164
 1953POPC   GL127157   1.994  28.403   8.864
 1953POPC   GL227158   2.164  28.333   8.864
 1953POPC   C1A27159   2.003  28.410   8.564
 1953POPC   D2A27160   1.984  28.399   8.264
 1953POPC   C3A27161   1.975  28.364   7.964
 1953POPC   C4A27162   2.035  28.375   7.664
 1953POPC   C1B27163   2.246  28.333   8.564
 1953POPC   C2B27164   2.283  28.367   8.264
 1953POPC   C3B27165   2.202  28.374   7.964
 1953POPC   C4B27166   2.241  28.379   7.664
 1954POPC   NC327167  23.721  42.307   9.464
 1954POPC   PO427168  23.710  42.360   9.164
 1954POPC   GL127169  23.708  42.339   8.864
 1954POPC   GL227170  23.632  42.199   8.864
 1954POPC   C1A27171  23.730  42.340   8.564
 1954POPC   D2A27172  23.729  42.371   8.264
 1954POPC   C3A27173  23.696  42.336   7.964
 1954POPC   C4A27174  23.674  42.327   7.664
 1954POPC   C1B27175  23.603  42.146   8.564
 1954POPC   C2B27176  23.576  42.102   8.264
 1954POPC   C3B27177  23.616  42.154   7.964
 1954POPC   C4B27178  23.632  42.066   7.664
 1955POPC   NC327179  40.030   8.938   9.464
 1955POPC   PO427180  39.961   8.932   9.164
 1955POPC   GL127181  40.045   8.932   8.864
 1955POPC   GL227182  40.118   9.089   8.864
 1955POPC   C1A27183  40.047   8.997   8.564
 1955POPC   D2A27184  40.024   8.945   8.264
 1955POPC   C3A27185  40.041   9.011   7.964
 1955POPC   C4A27186  40.018   9.002   7.664
 1955POPC   C1B27187  40.191   9.169   8.564
 1955POPC   C2B27188  40.198   9.129   8.264
 1955POPC   C3B27189  40.171   9.133   7.964
 1955POPC   C4B27190  40.186   9.147   7.664
 1956POPC   NC327191   8.189  15.154   9.464
 1956POPC   PO427192   8.224  15.217   9.164
 1956POPC   GL127193   8.206  15.189   8.864
 1956POPC   GL227194   8.041  15.228   8.864
 1956POPC   C1A27195   8.236  15.168   8.564
 1956POPC   D2A27196   8.221  15.134   8.264
 1956POPC   C3A27197   8.227  15.192   7.964
 1956POPC   C4A27198   8.244  15.167   7.664
 1956POPC   C1B27199   7.985  15.244   8.564
 1956POPC   C2B27200   7.967  15.243   8.264
 1956POPC   C3B27201   7.971  15.220   7.964
 1956POPC   C4B27202   7.945  15.212   7.664
 1957POPC   NC327203  10.489  29.903   9.464
 1957POPC   PO427204  10.492  29.928   9.164
 1957POPC   GL127205  10.548  29.872   8.864
 1957POPC   GL227206  10.408  29.817   8.864
 1957POPC   C1A27207  10.556  29.971   8.564
 1957POPC   D2A27208  10.518  29.906   8.264
 1957POPC   C3A27209  10.572  29.873   7.964
 1957POPC   C4A27210  10.557  29.885   7.664
 1957POPC   C1B27211  10.352  29.759   8.564
 1957POPC   C2B27212  10.342  29.735   8.264
 1957POPC   C3B27213  10.393  29.728   7.964
 1957POPC   C4B27214  10.373  29.695   7.664
 1958POPC   NC327215  12.114  20.563   9.464
 1958POPC   PO427216  12.049  20.627   9.164
 1958POPC   GL127217  12.121  20.571   8.864
 1958POPC   GL227218  12.174  20.569   8.864
 1958POPC   C1A27219  12.123  20.632   8.564
 1958POPC   D2A27220  12.069  20.597   8.264
 1958POPC   C3A27221  12.032  20.573   7.964
 1958POPC   C4A27222  12.110  20.634   7.664
 1958POPC   C1B27223  12.228  20.386   8.564
 1958POPC   C2B27224  12.230  20.469   8.264
 1958POPC   C3B27225  12.261  20.437   7.964
 1958POPC   C4B27226  12.263  20.416   7.664
 1959POPC   NC327227  42.349   4.300   9.464
 1959POPC   PO427228  42.384   4.291   9.164
 1959POPC   GL127229  42.316   4.299   8.864
 1959POPC   GL227230  42.346   4.483   8.864
 1959POPC   C1A27231  42.383   4.313   8.564
 1959POPC   D2A27232  42.315   4.340   8.264
 1959POPC   C3A27233  42.327   4.357   7.964
 1959POPC   C4A27234  42.380   4.333   7.664
 1959POPC   C1B27235  42.282   4.547   8.564
 1959POPC   C2B27236  42.349   4.559   8.264
 1959POPC   C3B27237  42.365   4.526   7.964
 1959POPC   C4B27238  42.299   4.525   7.664
 1960POPC   NC327239  39.229   2.720   9.464
 1960POPC   PO427240  39.271   2.798   9.164
 1960POPC   GL127241  39.211   2.761   8.864
 1960POPC   GL227242  39.159   2.632   8.864
 1960POPC   C1A27243  39.194   2.733   8.564
 1960POPC   D2A27244  39.198   2.815   8.264
 1960POPC   C3A27245  39.184   2.740   7.964
 1960POPC   C4A27246  39.229   2.766   7.664
 1960POPC   C1B27247  38.998   2.550   8.564
 1960POPC   C2B27248  39.036   2.639   8.264
 1960POPC   C3B27249  39.028   2.596   7.964
 1960POPC   C4B27250  39.026   2.565   7.664
 1961POPC   NC327251   8.965   0.451   9.464
 1961POPC   PO427252   8.975   0.410   9.164
 1961POPC   GL127253   9.011   0.446   8.864
 1961POPC   GL227254   9.083   0.583   8.864
 1961POPC   C1A27255   8.944   0.391   8.564
 1961POPC   D2A27256   8.927   0.449   8.264
 1961POPC   C3A27257   8.949   0.398   7.964
 1961POPC   C4A27258   8.999   0.474   7.664
 1961POPC   C1B27259   9.096   0.673   8.564
 1961POPC   C2B27260   9.099   0.622   8.264
 1961POPC   C3B27261   9.153   0.627   7.964
 1961POPC   C4B27262   9.112   0.665   7.664
 1962POPC   NC327263  43.079  24.486   9.464
 1962POPC   PO427264  43.063  24.501   9.164
 1962POPC   GL127265  43.119  24.536   8.864
 1962POPC   GL227266  42.990  24.560   8.864
 1962POPC   C1A27267  43.081  24.482   8.564
 1962POPC   D2A27268  43.142  24.522   8.264
 1962POPC   C3A27269  43.133  24.470   7.964
 1962POPC   C4A27270  43.066  24.487   7.664
 1962POPC   C1B27271  42.942  24.653   8.564
 1962POPC   C2B27272  42.964  24.667   8.264
 1962POPC   C3B27273  42.914  24.688   7.964
 1962POPC   C4B27274  42.932  24.706   7.664
 1963POPC   NC327275  42.319   0.420   9.464
 1963POPC   PO427276  42.325   0.445   9.164
 1963POPC   GL127277  42.355   0.419   8.864
 1963POPC   GL227278  42.444   0.342   8.864
 1963POPC   C1A27279  42.352   0.420   8.564
 1963POPC   D2A27280  42.345   0.478   8.264
 1963POPC   C3A27281  42.317   0.442   7.964
 1963POPC   C4A27282  42.309   0.448   7.664
 1963POPC   C1B27283  42.421   0.211   8.564
 1963POPC   C2B27284  42.494   0.206   8.264
 1963POPC   C3B27285  42.492   0.206   7.964
 1963POPC   C4B27286  42.472   0.250   7.664
 1964POPC   NC327287  19.109  24.504   9.464
 1964POPC   PO427288  19.046  24.498   9.164
 1964POPC   GL127289  19.019  24.464   8.864
 1964POPC   GL227290  19.164  24.400   8.864
 1964POPC   C1A27291  19.016  24.495   8.564
 1964POPC   D2A27292  19.063  24.530   8.264
 1964POPC   C3A27293  19.009  24.534   7.964
 1964POPC   C4A27294  19.027  24.465   7.664
 1964POPC   C1B27295  19.262  24.420   8.564
 1964POPC   C2B27296  19.286  24.383   8.264
 1964POPC   C3B27297  19.325  24.390   7.964
 1964POPC   C4B27298  19.328  24.364   7.664
 1965POPC   NC327299  26.048  42.297   9.464
 1965POPC   PO427300  26.072  42.298   9.164
 1965POPC   GL127301  26.088  42.302   8.864
 1965POPC   GL227302  26.117  42.445   8.864
 1965POPC   C1A27303  26.085  42.298   8.564
 1965POPC   D2A27304  26.090  42.313   8.264
 1965POPC   C3A27305  26.021  42.344   7.964
 1965POPC   C4A27306  26.048  42.315   7.664
 1965POPC   C1B27307  26.288  42.448   8.564
 1965POPC   C2B27308  26.237  42.492   8.264
 1965POPC   C3B27309  26.228  42.497   7.964
 1965POPC   C4B27310  26.263  42.446   7.664
 1966POPC   NC327311  22.961  26.061   9.464
 1966POPC   PO427312  22.901  26.023   9.164
 1966POPC   GL127313  22.952  26.066   8.864
 1966POPC   GL227314  22.790  26.024   8.864
 1966POPC   C1A27315  22.911  26.082   8.564
 1966POPC   D2A27316  22.959  26.041   8.264
 1966POPC   C3A27317  22.888  26.032   7.964
 1966POPC   C4A27318  22.978  26.028   7.664
 1966POPC   C1B27319  22.676  26.015   8.564
 1966POPC   C2B27320  22.650  25.997   8.264
 1966POPC   C3B27321  22.723  25.975   7.964
 1966POPC   C4B27322  22.695  26.024   7.664
 1967POPC   NC327323  35.385  42.307   9.464
 1967POPC   PO427324  35.302  42.286   9.164
 1967POPC   GL127325  35.367  42.321   8.864
 1967POPC   GL227326  35.474  42.250   8.864
 1967POPC   C1A27327  35.378  42.377   8.564
 1967POPC   D2A27328  35.317  42.347   8.264
 1967POPC   C3A27329  35.325  42.358   7.964
 1967POPC   C4A27330  35.320  42.335   7.664
 1967POPC   C1B27331  35.598  42.178   8.564
 1967POPC   C2B27332  35.572  42.211   8.264
 1967POPC   C3B27333  35.567  42.242   7.964
 1967POPC   C4B27334  35.603  42.191   7.664
 1968POPC   NC327335   2.007  23.752   9.464
 1968POPC   PO427336   1.977  23.698   9.164
 1968POPC   GL127337   1.984  23.752   8.864
 1968POPC   GL227338   1.921  23.598   8.864
 1968POPC   C1A27339   2.013  23.695   8.564
 1968POPC   D2A27340   2.035  23.683   8.264
 1968POPC   C3A27341   2.024  23.680   7.964
 1968POPC   C4A27342   2.002  23.749   7.664
 1968POPC   C1B27343   1.968  23.448   8.564
 1968POPC   C2B27344   1.985  23.474   8.264
 1968POPC   C3B27345   1.961  23.499   7.964
 1968POPC   C4B27346   1.945  23.494   7.664
 1969POPC   NC327347  32.976  18.281   9.464
 1969POPC   PO427348  33.034  18.316   9.164
 1969POPC   GL127349  32.987  18.311   8.864
 1969POPC   GL227350  33.118  18.305   8.864
 1969POPC   C1A27351  32.987  18.322   8.564
 1969POPC   D2A27352  33.015  18.233   8.264
 1969POPC   C3A27353  32.991  18.268   7.964
 1969POPC   C4A27354  33.003  18.285   7.664
 1969POPC   C1B27355  33.270  18.337   8.564
 1969POPC   C2B27356  33.303  18.337   8.264
 1969POPC   C3B27357  33.264  18.336   7.964
 1969POPC   C4B27358  33.250  18.276   7.664
 1970POPC   NC327359  43.073  12.082   9.464
 1970POPC   PO427360  43.068  12.071   9.164
 1970POPC   GL127361  43.080  12.045   8.864
 1970POPC   GL227362  43.099  11.924   8.864
 1970POPC   C1A27363  43.080  12.042   8.564
 1970POPC   D2A27364  43.064  12.042   8.264
 1970POPC   C3A27365  43.094  12.033   7.964
 1970POPC   C4A27366  43.111  12.033   7.664
 1970POPC   C1B27367  43.173  11.787   8.564
 1970POPC   C2B27368  43.141  11.784   8.264
 1970POPC   C3B27369  43.162  11.820   7.964
 1970POPC   C4B27370  43.129  11.790   7.664
 1971POPC   NC327371  26.010  22.954   9.464
 1971POPC   PO427372  26.076  22.909   9.164
 1971POPC   GL127373  26.007  22.946   8.864
 1971POPC   GL227374  25.926  22.942   8.864
 1971POPC   C1A27375  26.043  22.897   8.564
 1971POPC   D2A27376  26.014  22.903   8.264
 1971POPC   C3A27377  26.077  22.976   7.964
 1971POPC   C4A27378  26.045  22.900   7.664
 1971POPC   C1B27379  25.824  22.821   8.564
 1971POPC   C2B27380  25.818  22.870   8.264
 1971POPC   C3B27381  25.783  22.888   7.964
 1971POPC   C4B27382  25.800  22.823   7.664
 1972POPC   NC327383  27.621  33.005   9.464
 1972POPC   PO427384  27.643  33.045   9.164
 1972POPC   GL127385  27.614  33.021   8.864
 1972POPC   GL227386  27.448  33.040   8.864
 1972POPC   C1A27387  27.627  33.016   8.564
 1972POPC   D2A27388  27.631  32.977   8.264
 1972POPC   C3A27389  27.638  32.980   7.964
 1972POPC   C4A27390  27.597  32.977   7.664
 1972POPC   C1B27391  27.325  33.070   8.564
 1972POPC   C2B27392  27.326  33.044   8.264
 1972POPC   C3B27393  27.327  33.088   7.964
 1972POPC   C4B27394  27.314  32.992   7.664
 1973POPC   NC327395  42.324  30.736   9.464
 1973POPC   PO427396  42.288  30.661   9.164
 1973POPC   GL127397  42.294  30.707   8.864
 1973POPC   GL227398  42.214  30.687   8.864
 1973POPC   C1A27399  42.359  30.673   8.564
 1973POPC   D2A27400  42.288  30.649   8.264
 1973POPC   C3A27401  42.370  30.699   7.964
 1973POPC   C4A27402  42.377  30.724   7.664
 1973POPC   C1B27403  42.111  30.668   8.564
 1973POPC   C2B27404  42.108  30.610   8.264
 1973POPC   C3B27405  42.087  30.597   7.964
 1973POPC   C4B27406  42.126  30.629   7.664
 1974POPC   NC327407  15.167  43.149   9.464
 1974POPC   PO427408  15.187  43.149   9.164
 1974POPC   GL127409  15.213  43.129   8.864
 1974POPC   GL227410  15.250  43.075   8.864
 1974POPC   C1A27411  15.162  43.098   8.564
 1974POPC   D2A27412  15.153  43.111   8.264
 1974POPC   C3A27413  15.158  43.144   7.964
 1974POPC   C4A27414  15.198  43.156   7.664
 1974POPC   C1B27415  15.383  42.979   8.564
 1974POPC   C2B27416  15.430  43.023   8.264
 1974POPC   C3B27417  15.398  43.019   7.964
 1974POPC   C4B27418  15.454  42.985   7.664
 1975POPC   NC327419   0.439  11.339   9.464
 1975POPC   PO427420   0.485  11.300   9.164
 1975POPC   GL127421   0.416  11.262   8.864
 1975POPC   GL227422   0.445  11.141   8.864
 1975POPC   C1A27423   0.438  11.329   8.564
 1975POPC   D2A27424   0.411  11.344   8.264
 1975POPC   C3A27425   0.484  11.341   7.964
 1975POPC   C4A27426   0.471  11.270   7.664
 1975POPC   C1B27427   0.572  11.114   8.564
 1975POPC   C2B27428   0.571  11.024   8.264
 1975POPC   C3B27429   0.489  11.095   7.964
 1975POPC   C4B27430   0.480  11.076   7.664
 1976POPC   NC327431  30.702  20.576   9.464
 1976POPC   PO427432  30.730  20.641   9.164
 1976POPC   GL127433  30.741  20.613   8.864
 1976POPC   GL227434  30.737  20.553   8.864
 1976POPC   C1A27435  30.663  20.606   8.564
 1976POPC   D2A27436  30.651  20.659   8.264
 1976POPC   C3A27437  30.736  20.592   7.964
 1976POPC   C4A27438  30.730  20.600   7.664
 1976POPC   C1B27439  30.789  20.402   8.564
 1976POPC   C2B27440  30.827  20.373   8.264
 1976POPC   C3B27441  30.820  20.369   7.964
 1976POPC   C4B27442  30.858  20.380   7.664
 1977POPC   NC327443  25.273  19.066   9.464
 1977POPC   PO427444  25.302  19.025   9.164
 1977POPC   GL127445  25.285  19.104   8.864
 1977POPC   GL227446  25.309  19.100   8.864
 1977POPC   C1A27447  25.260  19.026   8.564
 1977POPC   D2A27448  25.260  19.016   8.264
 1977POPC   C3A27449  25.315  19.089   7.964
 1977POPC   C4A27450  25.245  19.105   7.664
 1977POPC   C1B27451  25.475  19.237   8.564
 1977POPC   C2B27452  25.462  19.263   8.264
 1977POPC   C3B27453  25.394  19.269   7.964
 1977POPC   C4B27454  25.445  19.192   7.664
 1978POPC   NC327455   1.170  23.751   9.464
 1978POPC   PO427456   1.237  23.754   9.164
 1978POPC   GL127457   1.202  23.696   8.864
 1978POPC   GL227458   1.195  23.839   8.864
 1978POPC   C1A27459   1.201  23.680   8.564
 1978POPC   D2A27460   1.201  23.747   8.264
 1978POPC   C3A27461   1.172  23.731   7.964
 1978POPC   C4A27462   1.189  23.705   7.664
 1978POPC   C1B27463   1.128  23.923   8.564
 1978POPC   C2B27464   1.155  23.997   8.264
 1978POPC   C3B27465   1.120  23.930   7.964
 1978POPC   C4B27466   1.175  23.969   7.664
 1979POPC   NC327467  30.742  12.063   9.464
 1979POPC   PO427468  30.740  12.106   9.164
 1979POPC   GL127469  30.730  12.039   8.864
 1979POPC   GL227470  30.548  12.092   8.864
 1979POPC   C1A27471  30.739  12.043   8.564
 1979POPC   D2A27472  30.695  12.026   8.264
 1979POPC   C3A27473  30.727  12.118   7.964
 1979POPC   C4A27474  30.694  12.065   7.664
 1979POPC   C1B27475  30.449  12.086   8.564
 1979POPC   C2B27476  30.496  12.148   8.264
 1979POPC   C3B27477  30.427  12.129   7.964
 1979POPC   C4B27478  30.447  12.127   7.664
 1980POPC   NC327479   4.356  40.030   9.464
 1980POPC   PO427480   4.303  40.051   9.164
 1980POPC   GL127481   4.284  40.018   8.864
 1980POPC   GL227482   4.160  40.011   8.864
 1980POPC   C1A27483   4.288  40.029   8.564
 1980POPC   D2A27484   4.352  40.012   8.264
 1980POPC   C3A27485   4.314  40.055   7.964
 1980POPC   C4A27486   4.312  39.994   7.664
 1980POPC   C1B27487   4.055  40.066   8.564
 1980POPC   C2B27488   4.052  40.050   8.264
 1980POPC   C3B27489   4.031  40.056   7.964
 1980POPC   C4B27490   4.054  40.080   7.664
 1981POPC   NC327491  41.590  33.049   9.464
 1981POPC   PO427492  41.559  33.001   9.164
 1981POPC   GL127493  41.584  33.054   8.864
 1981POPC   GL227494  41.487  33.156   8.864
 1981POPC   C1A27495  41.561  33.000   8.564
 1981POPC   D2A27496  41.603  33.064   8.264
 1981POPC   C3A27497  41.531  33.056   7.964
 1981POPC   C4A27498  41.539  33.046   7.664
 1981POPC   C1B27499  41.457  33.209   8.564
 1981POPC   C2B27500  41.429  33.254   8.264
 1981POPC   C3B27501  41.431  33.233   7.964
 1981POPC   C4B27502  41.502  33.285   7.664
 1982POPC   NC327503  19.055  33.775   9.464
 1982POPC   PO427504  19.034  33.755   9.164
 1982POPC   GL127505  19.105  33.760   8.864
 1982POPC   GL227506  18.937  33.874   8.864
 1982POPC   C1A27507  19.013  33.782   8.564
 1982POPC   D2A27508  19.103  33.774   8.264
 1982POPC   C3A27509  19.089  33.820   7.964
 1982POPC   C4A27510  19.068  33.829   7.664
 1982POPC   C1B27511  18.828  33.933   8.564
 1982POPC   C2B27512  18.875  33.879   8.264
 1982POPC   C3B27513  18.783  33.945   7.964
 1982POPC   C4B27514  18.850  33.915   7.664
 1983POPC   NC327515  24.504  16.755   9.464
 1983POPC   PO427516  24.485  16.735   9.164
 1983POPC   GL127517  24.522  16.745   8.864
 1983POPC   GL227518  24.386  16.703   8.864
 1983POPC   C1A27519  24.492  16.761   8.564
 1983POPC   D2A27520  24.463  16.684   8.264
 1983POPC   C3A27521  24.494  16.761   7.964
 1983POPC   C4A27522  24.502  16.720   7.664
 1983POPC   C1B27523  24.288  16.712   8.564
 1983POPC   C2B27524  24.284  16.691   8.264
 1983POPC   C3B27525  24.197  16.711   7.964
 1983POPC   C4B27526  24.227  16.670   7.664
 1984POPC   NC327527  41.545  22.137   9.464
 1984POPC   PO427528  41.551  22.133   9.164
 1984POPC   GL127529  41.536  22.175   8.864
 1984POPC   GL227530  41.551  22.071   8.864
 1984POPC   C1A27531  41.570  22.121   8.564
 1984POPC   D2A27532  41.606  22.204   8.264
 1984POPC   C3A27533  41.580  22.150   7.964
 1984POPC   C4A27534  41.557  22.153   7.664
 1984POPC   C1B27535  41.478  21.924   8.564
 1984POPC   C2B27536  41.483  21.891   8.264
 1984POPC   C3B27537  41.467  21.890   7.964
 1984POPC   C4B27538  41.475  21.911   7.664
 1985POPC   NC327539  21.383  14.436   9.464
 1985POPC   PO427540  21.395  14.373   9.164
 1985POPC   GL127541  21.404  14.365   8.864
 1985POPC   GL227542  21.439  14.291   8.864
 1985POPC   C1A27543  21.400  14.421   8.564
 1985POPC   D2A27544  21.340  14.382   8.264
 1985POPC   C3A27545  21.393  14.442   7.964
 1985POPC   C4A27546  21.413  14.369   7.664
 1985POPC   C1B27547  21.424  14.142   8.564
 1985POPC   C2B27548  21.444  14.212   8.264
 1985POPC   C3B27549  21.435  14.150   7.964
 1985POPC   C4B27550  21.484  14.143   7.664
 1986POPC   NC327551  22.987  28.341   9.464
 1986POPC   PO427552  22.893  28.356   9.164
 1986POPC   GL127553  22.930  28.380   8.864
 1986POPC   GL227554  22.857  28.220   8.864
 1986POPC   C1A27555  22.946  28.369   8.564
 1986POPC   D2A27556  22.901  28.374   8.264
 1986POPC   C3A27557  22.965  28.370   7.964
 1986POPC   C4A27558  22.898  28.395   7.664
 1986POPC   C1B27559  22.804  28.188   8.564
 1986POPC   C2B27560  22.858  28.146   8.264
 1986POPC   C3B27561  22.798  28.133   7.964
 1986POPC   C4B27562  22.833  28.146   7.664
 1987POPC   NC327563   7.441   7.448   9.464
 1987POPC   PO427564   7.458   7.441   9.164
 1987POPC   GL127565   7.436   7.397   8.864
 1987POPC   GL227566   7.440   7.500   8.864
 1987POPC   C1A27567   7.417   7.437   8.564
 1987POPC   D2A27568   7.442   7.439   8.264
 1987POPC   C3A27569   7.442   7.375   7.964
 1987POPC   C4A27570   7.448   7.387   7.664
 1987POPC   C1B27571   7.517   7.709   8.564
 1987POPC   C2B27572   7.463   7.632   8.264
 1987POPC   C3B27573   7.537   7.659   7.964
 1987POPC   C4B27574   7.454   7.632   7.664
 1988POPC   NC327575  22.167  44.687   9.464
 1988POPC   PO427576  22.163  44.674   9.164
 1988POPC   GL127577  22.183  44.652   8.864
 1988POPC   GL227578  22.148  44.783   8.864
 1988POPC   C1A27579  22.164  44.651   8.564
 1988POPC   D2A27580  22.123  44.682   8.264
 1988POPC   C3A27581  22.132  44.709   7.964
 1988POPC   C4A27582  22.163  44.708   7.664
 1988POPC   C1B27583  22.230  44.940   8.564
 1988POPC   C2B27584  22.195  44.911   8.264
 1988POPC   C3B27585  22.232  44.887   7.964
 1988POPC   C4B27586  22.213  44.891   7.664
 1989POPC   NC327587  19.054  12.063   9.464
 1989POPC   PO427588  19.073  12.062   9.164
 1989POPC   GL127589  19.075  12.044   8.864
 1989POPC   GL227590  19.167  12.072   8.864
 1989POPC   C1A27591  19.108  12.119   8.564
 1989POPC   D2A27592  19.084  12.123   8.264
 1989POPC   C3A27593  19.043  12.083   7.964
 1989POPC   C4A27594  19.012  12.070   7.664
 1989POPC   C1B27595  19.294  12.135   8.564
 1989POPC   C2B27596  19.279  12.089   8.264
 1989POPC   C3B27597  19.279  12.135   7.964
 1989POPC   C4B27598  19.263  12.080   7.664
 1990POPC   NC327599  36.914  41.559   9.464
 1990POPC   PO427600  36.884  41.595   9.164
 1990POPC   GL127601  36.944  41.538   8.864
 1990POPC   GL227602  36.959  41.476   8.864
 1990POPC   C1A27603  36.939  41.572   8.564
 1990POPC   D2A27604  36.951  41.586   8.264
 1990POPC   C3A27605  36.924  41.596   7.964
 1990POPC   C4A27606  36.882  41.579   7.664
 1990POPC   C1B27607  37.114  41.407   8.564
 1990POPC   C2B27608  37.115  41.360   8.264
 1990POPC   C3B27609  37.085  41.388   7.964
 1990POPC   C4B27610  37.071  41.375   7.664
 1991POPC   NC327611   9.009   8.158   9.464
 1991POPC   PO427612   8.994   8.158   9.164
 1991POPC   GL127613   9.004   8.231   8.864
 1991POPC   GL227614   9.118   8.282   8.864
 1991POPC   C1A27615   9.004   8.216   8.564
 1991POPC   D2A27616   9.005   8.227   8.264
 1991POPC   C3A27617   8.941   8.164   7.964
 1991POPC   C4A27618   8.928   8.175   7.664
 1991POPC   C1B27619   9.201   8.280   8.564
 1991POPC   C2B27620   9.235   8.229   8.264
 1991POPC   C3B27621   9.176   8.309   7.964
 1991POPC   C4B27622   9.221   8.266   7.664
 1992POPC   NC327623  28.380  19.790   9.464
 1992POPC   PO427624  28.410  19.850   9.164
 1992POPC   GL127625  28.402  19.858   8.864
 1992POPC   GL227626  28.432  19.917   8.864
 1992POPC   C1A27627  28.417  19.864   8.564
 1992POPC   D2A27628  28.342  19.884   8.264
 1992POPC   C3A27629  28.326  19.785   7.964
 1992POPC   C4A27630  28.335  19.849   7.664
 1992POPC   C1B27631  28.508  19.968   8.564
 1992POPC   C2B27632  28.557  19.964   8.264
 1992POPC   C3B27633  28.577  19.950   7.964
 1992POPC   C4B27634  28.514  19.965   7.664
 1993POPC   NC327635   9.717  39.197   9.464
 1993POPC   PO427636   9.715  39.248   9.164
 1993POPC   GL127637   9.759  39.185   8.864
 1993POPC   GL227638   9.618  39.297   8.864
 1993POPC   C1A27639   9.782  39.188   8.564
 1993POPC   D2A27640   9.792  39.226   8.264
 1993POPC   C3A27641   9.794  39.201   7.964
 1993POPC   C4A27642   9.713  39.254   7.664
 1993POPC   C1B27643   9.524  39.381   8.564
 1993POPC   C2B27644   9.482  39.308   8.264
 1993POPC   C3B27645   9.497  39.364   7.964
 1993POPC   C4B27646   9.517  39.394   7.664
 1994POPC   NC327647  43.911   4.346   9.464
 1994POPC   PO427648  43.853   4.359   9.164
 1994POPC   GL127649  43.900   4.346   8.864
 1994POPC   GL227650  43.839   4.190   8.864
 1994POPC   C1A27651  43.909   4.284   8.564
 1994POPC   D2A27652  43.864   4.343   8.264
 1994POPC   C3A27653  43.920   4.362   7.964
 1994POPC   C4A27654  43.856   4.273   7.664
 1994POPC   C1B27655  43.801   4.059   8.564
 1994POPC   C2B27656  43.779   4.090   8.264
 1994POPC   C3B27657  43.834   4.041   7.964
 1994POPC   C4B27658  43.831   4.056   7.664
 1995POPC   NC327659  44.649  11.280   9.464
 1995POPC   PO427660  44.672  11.335   9.164
 1995POPC   GL127661  44.641  11.296   8.864
 1995POPC   GL227662  44.617  11.356   8.864
 1995POPC   C1A27663  44.626  11.349   8.564
 1995POPC   D2A27664  44.639  11.336   8.264
 1995POPC   C3A27665  44.659  11.257   7.964
 1995POPC   C4A27666  44.667  11.330   7.664
 1995POPC   C1B27667  44.515  11.497   8.564
 1995POPC   C2B27668  44.512  11.529   8.264
 1995POPC   C3B27669  44.543  11.545   7.964
 1995POPC   C4B27670  44.497  11.457   7.664
 1996POPC   NC327671  11.297   8.170   9.464
 1996POPC   PO427672  11.307   8.181   9.164
 1996POPC   GL127673  11.274   8.153   8.864
 1996POPC   GL227674  11.281   8.090   8.864
 1996POPC   C1A27675  11.344   8.201   8.564
 1996POPC   D2A27676  11.312   8.164   8.264
 1996POPC   C3A27677  11.267   8.211   7.964
 1996POPC   C4A27678  11.285   8.167   7.664
 1996POPC   C1B27679  11.167   7.939   8.564
 1996POPC   C2B27680  11.217   7.987   8.264
 1996POPC   C3B27681  11.236   7.994   7.964
 1996POPC   C4B27682  11.238   7.976   7.664
 1997POPC   NC327683  25.219  31.502   9.464
 1997POPC   PO427684  25.246  31.457   9.164
 1997POPC   GL127685  25.303  31.481   8.864
 1997POPC   GL227686  25.293  31.337   8.864
 1997POPC   C1A27687  25.315  31.480   8.564
 1997POPC   D2A27688  25.299  31.483   8.264
 1997POPC   C3A27689  25.310  31.468   7.964
 1997POPC   C4A27690  25.294  31.476   7.664
 1997POPC   C1B27691  25.323  31.189   8.564
 1997POPC   C2B27692  25.371  31.223   8.264
 1997POPC   C3B27693  25.392  31.277   7.964
 1997POPC   C4B27694  25.324  31.280   7.664
 1998POPC   NC327695   3.531   7.451   9.464
 1998POPC   PO427696   3.549   7.410   9.164
 1998POPC   GL127697   3.588   7.450   8.864
 1998POPC   GL227698   3.472   7.486   8.864
 1998POPC   C1A27699   3.559   7.448   8.564
 1998POPC   D2A27700   3.539   7.470   8.264
 1998POPC   C3A27701   3.565   7.378   7.964
 1998POPC   C4A27702   3.503   7.382   7.664
 1998POPC   C1B27703   3.294   7.483   8.564
 1998POPC   C2B27704   3.328   7.471   8.264
 1998POPC   C3B27705   3.350   7.453   7.964
 1998POPC   C4B27706   3.304   7.469   7.664
 1999POPC   NC327707  42.321  22.162   9.464
 1999POPC   PO427708  42.299  22.181   9.164
 1999POPC   GL127709  42.336  22.161   8.864
 1999POPC   GL227710  42.407  22.296   8.864
 1999POPC   C1A27711  42.342  22.151   8.564
 1999POPC   D2A27712  42.337  22.131   8.264
 1999POPC   C3A27713  42.331  22.114   7.964
 1999POPC   C4A27714  42.289  22.187   7.664
 1999POPC   C1B27715  42.505  22.342   8.564
 1999POPC   C2B27716  42.427  22.349   8.264
 1999POPC   C3B27717  42.435  22.360   7.964
 1999POPC   C4B27718  42.490  22.425   7.664
 2000POPC   NC327719  44.638  14.356   9.464
 2000POPC   PO427720  44.626  14.446   9.164
 2000POPC   GL127721  44.618  14.419   8.864
 2000POPC   GL227722  44.701  14.238   8.864
 2000POPC   C1A27723  44.659  14.405   8.564
 2000POPC   D2A27724  44.666  14.374   8.264
 2000POPC   C3A27725  44.653  14.422   7.964
 2000POPC   C4A27726  44.666  14.421   7.664
 2000POPC   C1B27727  44.741  14.152   8.564
 2000POPC   C2B27728  44.688  14.115   8.264
 2000POPC   C3B27729  44.688  14.177   7.964
 2000POPC   C4B27730  44.724  14.168   7.664
 2001POPC   NC327731  12.806  22.165   9.464
 2001POPC   PO427732  12.816  22.134   9.164
 2001POPC   GL127733  12.897  22.157   8.864
 2001POPC   GL227734  12.844  22.316   8.864
 2001POPC   C1A27735  12.836  22.127   8.564
 2001POPC   D2A27736  12.831  22.119   8.264
 2001POPC   C3A27737  12.826  22.136   7.964
 2001POPC   C4A27738  12.836  22.206   7.664
 2001POPC   C1B27739  12.912  22.423   8.564
 2001POPC   C2B27740  12.917  22.441   8.264
 2001POPC   C3B27741  12.892  22.374   7.964
 2001POPC   C4B27742  12.889  22.387   7.664
 2002POPC   NC327743   5.837  30.722   9.464
 2002POPC   PO427744   5.821  30.716   9.164
 2002POPC   GL127745   5.850  30.714   8.864
 2002POPC   GL227746   5.993  30.654   8.864
 2002POPC   C1A27747   5.824  30.685   8.564
 2002POPC   D2A27748   5.906  30.736   8.264
 2002POPC   C3A27749   5.833  30.664   7.964
 2002POPC   C4A27750   5.890  30.715   7.664
 2002POPC   C1B27751   6.159  30.666   8.564
 2002POPC   C2B27752   6.143  30.722   8.264
 2002POPC   C3B27753   6.100  30.688   7.964
 2002POPC   C4B27754   6.121  30.761   7.664
 2003POPC   NC327755  26.817  40.800   9.464
 2003POPC   PO427756  26.832  40.754   9.164
 2003POPC   GL127757  26.818  40.798   8.864
 2003POPC   GL227758  26.944  40.659   8.864
 2003POPC   C1A27759  26.866  40.779   8.564
 2003POPC   D2A27760  26.820  40.784   8.264
 2003POPC   C3A27761  26.847  40.817   7.964
 2003POPC   C4A27762  26.814  40.780   7.664
 2003POPC   C1B27763  27.055  40.645   8.564
 2003POPC   C2B27764  27.050  40.653   8.264
 2003POPC   C3B27765  26.970  40.601   7.964
 2003POPC   C4B27766  27.052  40.594   7.664
 2004POPC   NC327767  39.260  22.970   9.464
 2004POPC   PO427768  39.185  22.924   9.164
 2004POPC   GL127769  39.201  22.902   8.864
 2004POPC   GL227770  39.267  23.044   8.864
 2004POPC   C1A27771  39.255  22.969   8.564
 2004POPC   D2A27772  39.231  22.895   8.264
 2004POPC   C3A27773  39.263  22.915   7.964
 2004POPC   C4A27774  39.264  22.923   7.664
 2004POPC   C1B27775  39.241  23.185   8.564
 2004POPC   C2B27776  39.258  23.152   8.264
 2004POPC   C3B27777  39.237  23.211   7.964
 2004POPC   C4B27778  39.232  23.191   7.664
 2005POPC   NC327779   9.726   3.493   9.464
 2005POPC   PO427780   9.781   3.514   9.164
 2005POPC   GL127781   9.753   3.573   8.864
 2005POPC   GL227782   9.839   3.413   8.864
 2005POPC   C1A27783   9.785   3.590   8.564
 2005POPC   D2A27784   9.727   3.584   8.264
 2005POPC   C3A27785   9.699   3.537   7.964
 2005POPC   C4A27786   9.790   3.586   7.664
 2005POPC   C1B27787   9.856   3.344   8.564
 2005POPC   C2B27788   9.906   3.323   8.264
 2005POPC   C3B27789   9.863   3.326   7.964
 2005POPC   C4B27790   9.889   3.372   7.664
 2006POPC   NC327791  19.820  35.357   9.464
 2006POPC   PO427792  19.839  35.306   9.164
 2006POPC   GL127793  19.849  35.385   8.864
 2006POPC   GL227794  20.002  35.356   8.864
 2006POPC   C1A27795  19.809  35.326   8.564
 2006POPC   D2A27796  19.843  35.371   8.264
 2006POPC   C3A27797  19.804  35.384   7.964
 2006POPC   C4A27798  19.791  35.315   7.664
 2006POPC   C1B27799  20.081  35.260   8.564
 2006POPC   C2B27800  20.088  35.273   8.264
 2006POPC   C3B27801  20.127  35.349   7.964
 2006POPC   C4B27802  20.093  35.336   7.664
 2007POPC   NC327803  21.383  13.673   9.464
 2007POPC   PO427804  21.418  13.592   9.164
 2007POPC   GL127805  21.352  13.676   8.864
 2007POPC   GL227806  21.521  13.727   8.864
 2007POPC   C1A27807  21.380  13.643   8.564
 2007POPC   D2A27808  21.347  13.668   8.264
 2007POPC   C3A27809  21.405  13.581   7.964
 2007POPC   C4A27810  21.340  13.578   7.664
 2007POPC   C1B27811  21.604  13.800   8.564
 2007POPC   C2B27812  21.577  13.838   8.264
 2007POPC   C3B27813  21.587  13.753   7.964
 2007POPC   C4B27814  21.596  13.762   7.664
 2008POPC   NC327815   0.402   0.390   9.464
 2008POPC   PO427816   0.432   0.419   9.164
 2008POPC   GL127817   0.401   0.472   8.864
 2008POPC   GL227818   0.509   0.511   8.864
 2008POPC   C1A27819   0.404   0.444   8.564
 2008POPC   D2A27820   0.436   0.415   8.264
 2008POPC   C3A27821   0.443   0.462   7.964
 2008POPC   C4A27822   0.488   0.459   7.664
 2008POPC   C1B27823   0.644   0.549   8.564
 2008POPC   C2B27824   0.643   0.483   8.264
 2008POPC   C3B27825   0.665   0.495   7.964
 2008POPC   C4B27826   0.641   0.502   7.664
 2009POPC   NC327827  32.291  32.294   9.464
 2009POPC   PO427828  32.228  32.218   9.164
 2009POPC   GL127829  32.219  32.261   8.864
 2009POPC   GL227830  32.182  32.345   8.864
 2009POPC   C1A27831  32.245  32.202   8.564
 2009POPC   D2A27832  32.252  32.277   8.264
 2009POPC   C3A27833  32.214  32.292   7.964
 2009POPC   C4A27834  32.212  32.246   7.664
 2009POPC   C1B27835  32.124  32.457   8.564
 2009POPC   C2B27836  32.112  32.460   8.264
 2009POPC   C3B27837  32.099  32.463   7.964
 2009POPC   C4B27838  32.088  32.472   7.664
 2010POPC   NC327839  34.540  29.164   9.464
 2010POPC   PO427840  34.531  29.149   9.164
 2010POPC   GL127841  34.528  29.103   8.864
 2010POPC   GL227842  34.420  29.104   8.864
 2010POPC   C1A27843  34.605  29.174   8.564
 2010POPC   D2A27844  34.621  29.157   8.264
 2010POPC   C3A27845  34.620  29.158   7.964
 2010POPC   C4A27846  34.608  29.118   7.664
 2010POPC   C1B27847  34.333  29.059   8.564
 2010POPC   C2B27848  34.345  29.069   8.264
 2010POPC   C3B27849  34.344  29.041   7.964
 2010POPC   C4B27850  34.348  29.061   7.664
 2011POPC   NC327851  40.779   9.777   9.464
 2011POPC   PO427852  40.747   9.788   9.164
 2011POPC   GL127853  40.790   9.781   8.864
 2011POPC   GL227854  40.642   9.668   8.864
 2011POPC   C1A27855  40.832   9.702   8.564
 2011POPC   D2A27856  40.756   9.723   8.264
 2011POPC   C3A27857  40.790   9.725   7.964
 2011POPC   C4A27858  40.787   9.728   7.664
 2011POPC   C1B27859  40.577   9.717   8.564
 2011POPC   C2B27860  40.589   9.647   8.264
 2011POPC   C3B27861  40.522   9.731   7.964
 2011POPC   C4B27862  40.542   9.728   7.664
 2012POPC   NC327863   2.770  27.562   9.464
 2012POPC   PO427864   2.752  27.559   9.164
 2012POPC   GL127865   2.722  27.575   8.864
 2012POPC   GL227866   2.713  27.707   8.864
 2012POPC   C1A27867   2.782  27.591   8.564
 2012POPC   D2A27868   2.796  27.614   8.264
 2012POPC   C3A27869   2.796  27.560   7.964
 2012POPC   C4A27870   2.807  27.629   7.664
 2012POPC   C1B27871   2.709  27.825   8.564
 2012POPC   C2B27872   2.731  27.877   8.264
 2012POPC   C3B27873   2.772  27.849   7.964
 2012POPC   C4B27874   2.726  27.869   7.664
 2013POPC   NC327875   9.009   1.263   9.464
 2013POPC   PO427876   8.935   1.230   9.164
 2013POPC   GL127877   9.010   1.200   8.864
 2013POPC   GL227878   9.083   1.260   8.864
 2013POPC   C1A27879   8.936   1.259   8.564
 2013POPC   D2A27880   8.928   1.225   8.264
 2013POPC   C3A27881   8.954   1.263   7.964
 2013POPC   C4A27882   8.969   1.221   7.664
 2013POPC   C1B27883   9.251   1.324   8.564
 2013POPC   C2B27884   9.160   1.287   8.264
 2013POPC   C3B27885   9.242   1.349   7.964
 2013POPC   C4B27886   9.195   1.310   7.664
 2014POPC   NC327887  19.026  36.131   9.464
 2014POPC   PO427888  19.080  36.081   9.164
 2014POPC   GL127889  19.045  36.082   8.864
 2014POPC   GL227890  18.897  36.088   8.864
 2014POPC   C1A27891  19.035  36.108   8.564
 2014POPC   D2A27892  19.022  36.176   8.264
 2014POPC   C3A27893  19.009  36.097   7.964
 2014POPC   C4A27894  19.030  36.108   7.664
 2014POPC   C1B27895  18.842  36.135   8.564
 2014POPC   C2B27896  18.787  36.083   8.264
 2014POPC   C3B27897  18.835  36.139   7.964
 2014POPC   C4B27898  18.764  36.128   7.664
 2015POPC   NC327899  40.738  37.705   9.464
 2015POPC   PO427900  40.811  37.638   9.164
 2015POPC   GL127901  40.748  37.664   8.864
 2015POPC   GL227902  40.665  37.763   8.864
 2015POPC   C1A27903  40.820  37.693   8.564
 2015POPC   D2A27904  40.733  37.631   8.264
 2015POPC   C3A27905  40.781  37.648   7.964
 2015POPC   C4A27906  40.811  37.667   7.664
 2015POPC   C1B27907  40.562  37.757   8.564
 2015POPC   C2B27908  40.568  37.786   8.264
 2015POPC   C3B27909  40.592  37.782   7.964
 2015POPC   C4B27910  40.599  37.764   7.664
 2016POPC   NC327911  18.277  18.284   9.464
 2016POPC   PO427912  18.261  18.248   9.164
 2016POPC   GL127913  18.261  18.326   8.864
 2016POPC   GL227914  18.417  18.201   8.864
 2016POPC   C1A27915  18.254  18.290   8.564
 2016POPC   D2A27916  18.256  18.238   8.264
 2016POPC   C3A27917  18.262  18.322   7.964
 2016POPC   C4A27918  18.256  18.328   7.664
 2016POPC   C1B27919  18.489  18.102   8.564
 2016POPC   C2B27920  18.432  18.142   8.264
 2016POPC   C3B27921  18.511  18.156   7.964
 2016POPC   C4B27922  18.446  18.111   7.664
 2017POPC   NC327923  39.254   9.017   9.464
 2017POPC   PO427924  39.275   8.940   9.164
 2017POPC   GL127925  39.229   8.970   8.864
 2017POPC   GL227926  39.305   9.101   8.864
 2017POPC   C1A27927  39.205   8.936   8.564
 2017POPC   D2A27928  39.234   8.934   8.264
 2017POPC   C3A27929  39.260   9.003   7.964
 2017POPC   C4A27930  39.240   9.018   7.664
 2017POPC   C1B27931  39.349   9.204   8.564
 2017POPC   C2B27932  39.410   9.110   8.264
 2017POPC   C3B27933  39.438   9.114   7.964
 2017POPC   C4B27934  39.354   9.173   7.664
 2018POPC   NC327935  35.321  29.144   9.464
 2018POPC   PO427936  35.311  29.119   9.164
 2018POPC   GL127937  35.365  29.134   8.864
 2018POPC   GL227938  35.277  29.044   8.864
 2018POPC   C1A27939  35.347  29.108   8.564
 2018POPC   D2A27940  35.342  29.138   8.264
 2018POPC   C3A27941  35.333  29.147   7.964
 2018POPC   C4A27942  35.375  29.103   7.664
 2018POPC   C1B27943  35.203  29.009   8.564
 2018POPC   C2B27944  35.214  28.919   8.264
 2018POPC   C3B27945  35.183  28.945   7.964
 2018POPC   C4B27946  35.202  28.919   7.664
 2019POPC   NC327947   5.093  18.324   9.464
 2019POPC   PO427948   5.079  18.256   9.164
 2019POPC   GL127949   5.109  18.302   8.864
 2019POPC   GL227950   5.255  18.231   8.864
 2019POPC   C1A27951   5.046  18.244   8.564
 2019POPC   D2A27952   5.095  18.296   8.264
 2019POPC   C3A27953   5.052  18.302   7.964
 2019POPC   C4A27954   5.086  18.301   7.664
 2019POPC   C1B27955   5.379  18.196   8.564
 2019POPC   C2B27956   5.319  18.229   8.264
 2019POPC   C3B27957   5.298  18.155   7.964
 2019POPC   C4B27958   5.339  18.192   7.664
 2020POPC   NC327959  42.348  25.311   9.464
 2020POPC   PO427960  42.330  25.234   9.164
 2020POPC   GL127961  42.334  25.251   8.864
 2020POPC   GL227962  42.270  25.378   8.864
 2020POPC   C1A27963  42.360  25.289   8.564
 2020POPC   D2A27964  42.382  25.270   8.264
 2020POPC   C3A27965  42.347  25.290   7.964
 2020POPC   C4A27966  42.362  25.233   7.664
 2020POPC   C1B27967  42.122  25.489   8.564
 2020POPC   C2B27968  42.215  25.445   8.264
 2020POPC   C3B27969  42.150  25.459   7.964
 2020POPC   C4B27970  42.213  25.442   7.664
 2021POPC   NC327971  18.319  40.768   9.464
 2021POPC   PO427972  18.299  40.755   9.164
 2021POPC   GL127973  18.263  40.795   8.864
 2021POPC   GL227974  18.319  40.873   8.864
 2021POPC   C1A27975  18.248  40.772   8.564
 2021POPC   D2A27976  18.258  40.749   8.264
 2021POPC   C3A27977  18.302  40.788   7.964
 2021POPC   C4A27978  18.256  40.767   7.664
 2021POPC   C1B27979  18.289  41.049   8.564
 2021POPC   C2B27980  18.344  41.057   8.264
 2021POPC   C3B27981  18.336  41.019   7.964
 2021POPC   C4B27982  18.330  40.999   7.664
 2022POPC   NC327983  42.286  26.824   9.464
 2022POPC   PO427984  42.295  26.828   9.164
 2022POPC   GL127985  42.310  26.852   8.864
 2022POPC   GL227986  42.390  26.719   8.864
 2022POPC   C1A27987  42.344  26.820   8.564
 2022POPC   D2A27988  42.310  26.805   8.264
 2022POPC   C3A27989  42.327  26.857   7.964
 2022POPC   C4A27990  42.327  26.797   7.664
 2022POPC   C1B27991  42.452  26.593   8.564
 2022POPC   C2B27992  42.404  26.601   8.264
 2022POPC   C3B27993  42.444  26.550   7.964
 2022POPC   C4B27994  42.389  26.536   7.664
 2023POPC   NC327995   6.608   5.051   9.464
 2023POPC   PO427996   6.622   5.127   9.164
 2023POPC   GL127997   6.668   5.057   8.864
 2023POPC   GL227998   6.775   4.974   8.864
 2023POPC   C1A27999   6.654   5.120   8.564
 2023POPC   D2A28000   6.651   5.060   8.264
 2023POPC   C3A28001   6.648   5.073   7.964
 2023POPC   C4A28002   6.623   5.111   7.664
 2023POPC   C1B28003   6.848   4.919   8.564
 2023POPC   C2B28004   6.764   4.894   8.264
 2023POPC   C3B28005   6.802   4.891   7.964
 2023POPC   C4B28006   6.816   4.894   7.664
 2024POPC   NC328007  19.033  25.249   9.464
 2024POPC   PO428008  19.069  25.229   9.164
 2024POPC   GL128009  19.022  25.242   8.864
 2024POPC   GL228010  19.161  25.152   8.864
 2024POPC   C1A28011  19.088  25.266   8.564
 2024POPC   D2A28012  19.067  25.244   8.264
 2024POPC   C3A28013  19.035  25.237   7.964
 2024POPC   C4A28014  19.049  25.273   7.664
 2024POPC   C1B28015  19.170  25.037   8.564
 2024POPC   C2B28016  19.136  25.083   8.264
 2024POPC   C3B28017  19.179  25.055   7.964
 2024POPC   C4B28018  19.180  25.099   7.664
 2025POPC   NC328019  15.996  19.846   9.464
 2025POPC   PO428020  15.943  19.827   9.164
 2025POPC   GL128021  15.942  19.856   8.864
 2025POPC   GL228022  15.796  19.836   8.864
 2025POPC   C1A28023  15.990  19.854   8.564
 2025POPC   D2A28024  15.946  19.849   8.264
 2025POPC   C3A28025  15.985  19.862   7.964
 2025POPC   C4A28026  15.960  19.833   7.664
 2025POPC   C1B28027  15.701  19.957   8.564
 2025POPC   C2B28028  15.695  19.911   8.264
 2025POPC   C3B28029  15.682  19.888   7.964
 2025POPC   C4B28030  15.719  19.928   7.664
 2026POPC   NC328031  36.877  13.589   9.464
 2026POPC   PO428032  36.909  13.668   9.164
 2026POPC   GL128033  36.864  13.654   8.864
 2026POPC   GL228034  36.769  13.568   8.864
 2026POPC   C1A28035  36.898  13.605   8.564
 2026POPC   D2A28036  36.855  13.665   8.264
 2026POPC   C3A28037  36.944  13.673   7.964
 2026POPC   C4A28038  36.932  13.623   7.664
 2026POPC   C1B28039  36.678  13.485   8.564
 2026POPC   C2B28040  36.663  13.449   8.264
 2026POPC   C3B28041  36.691  13.494   7.964
 2026POPC   C4B28042  36.742  13.452   7.664
 2027POPC   NC328043  15.984  17.538   9.464
 2027POPC   PO428044  15.988  17.539   9.164
 2027POPC   GL128045  15.998  17.497   8.864
 2027POPC   GL228046  15.872  17.615   8.864
 2027POPC   C1A28047  15.980  17.516   8.564
 2027POPC   D2A28048  15.966  17.551   8.264
 2027POPC   C3A28049  15.940  17.521   7.964
 2027POPC   C4A28050  15.976  17.468   7.664
 2027POPC   C1B28051  15.728  17.693   8.564
 2027POPC   C2B28052  15.781  17.681   8.264
 2027POPC   C3B28053  15.726  17.658   7.964
 2027POPC   C4B28054  15.798  17.636   7.664
 2028POPC   NC328055   5.122   1.208   9.464
 2028POPC   PO428056   5.048   1.220   9.164
 2028POPC   GL128057   5.131   1.252   8.864
 2028POPC   GL228058   5.204   1.259   8.864
 2028POPC   C1A28059   5.095   1.167   8.564
 2028POPC   D2A28060   5.143   1.206   8.264
 2028POPC   C3A28061   5.067   1.183   7.964
 2028POPC   C4A28062   5.139   1.261   7.664
 2028POPC   C1B28063   5.344   1.340   8.564
 2028POPC   C2B28064   5.290   1.303   8.264
 2028POPC   C3B28065   5.308   1.389   7.964
 2028POPC   C4B28066   5.299   1.357   7.664
 2029POPC   NC328067  43.140  26.849   9.464
 2029POPC   PO428068  43.133  26.830   9.164
 2029POPC   GL128069  43.105  26.781   8.864
 2029POPC   GL228070  42.955  26.810   8.864
 2029POPC   C1A28071  43.096  26.779   8.564
 2029POPC   D2A28072  43.130  26.802   8.264
 2029POPC   C3A28073  43.129  26.779   7.964
 2029POPC   C4A28074  43.094  26.849   7.664
 2029POPC   C1B28075  42.866  26.820   8.564
 2029POPC   C2B28076  42.823  26.839   8.264
 2029POPC   C3B28077  42.829  26.800   7.964
 2029POPC   C4B28078  42.882  26.817   7.664
 2030POPC   NC328079  35.318  41.569   9.464
 2030POPC   PO428080  35.360  41.592   9.164
 2030POPC   GL128081  35.312  41.604   8.864
 2030POPC   GL228082  35.389  41.477   8.864
 2030POPC   C1A28083  35.377  41.532   8.564
 2030POPC   D2A28084  35.344  41.602   8.264
 2030POPC   C3A28085  35.371  41.527   7.964
 2030POPC   C4A28086  35.336  41.516   7.664
 2030POPC   C1B28087  35.358  41.286   8.564
 2030POPC   C2B28088  35.444  41.305   8.264
 2030POPC   C3B28089  35.437  41.281   7.964
 2030POPC   C4B28090  35.382  41.333   7.664
 2031POPC   NC328091  34.536  12.884   9.464
 2031POPC   PO428092  34.578  12.820   9.164
 2031POPC   GL128093  34.605  12.839   8.864
 2031POPC   GL228094  34.460  12.823   8.864
 2031POPC   C1A28095  34.594  12.885   8.564
 2031POPC   D2A28096  34.580  12.839   8.264
 2031POPC   C3A28097  34.557  12.811   7.964
 2031POPC   C4A28098  34.579  12.821   7.664
 2031POPC   C1B28099  34.295  12.893   8.564
 2031POPC   C2B28100  34.370  12.917   8.264
 2031POPC   C3B28101  34.370  12.841   7.964
 2031POPC   C4B28102  34.309  12.870   7.664
 2032POPC   NC328103  21.414  10.497   9.464
 2032POPC   PO428104  21.419  10.531   9.164
 2032POPC   GL128105  21.381  10.480   8.864
 2032POPC   GL228106  21.437  10.619   8.864
 2032POPC   C1A28107  21.414  10.524   8.564
 2032POPC   D2A28108  21.355  10.483   8.264
 2032POPC   C3A28109  21.346  10.572   7.964
 2032POPC   C4A28110  21.414  10.550   7.664
 2032POPC   C1B28111  21.385  10.752   8.564
 2032POPC   C2B28112  21.440  10.732   8.264
 2032POPC   C3B28113  21.392  10.765   7.964
 2032POPC   C4B28114  21.438  10.737   7.664
 2033POPC   NC328115  43.098   1.180   9.464
 2033POPC   PO428116  43.117   1.165   9.164
 2033POPC   GL128117  43.151   1.226   8.864
 2033POPC   GL228118  43.037   1.304   8.864
 2033POPC   C1A28119  43.083   1.196   8.564
 2033POPC   D2A28120  43.118   1.194   8.264
 2033POPC   C3A28121  43.112   1.218   7.964
 2033POPC   C4A28122  43.086   1.263   7.664
 2033POPC   C1B28123  43.089   1.466   8.564
 2033POPC   C2B28124  43.018   1.453   8.264
 2033POPC   C3B28125  43.014   1.471   7.964
 2033POPC   C4B28126  43.082   1.444   7.664
 2034POPC   NC328127  12.091  22.136   9.464
 2034POPC   PO428128  12.105  22.152   9.164
 2034POPC   GL128129  12.083  22.140   8.864
 2034POPC   GL228130  12.230  22.146   8.864
 2034POPC   C1A28131  12.112  22.159   8.564
 2034POPC   D2A28132  12.126  22.151   8.264
 2034POPC   C3A28133  12.057  22.137   7.964
 2034POPC   C4A28134  12.095  22.209   7.664
 2034POPC   C1B28135  12.365  22.077   8.564
 2034POPC   C2B28136  12.326  22.146   8.264
 2034POPC   C3B28137  12.350  22.071   7.964
 2034POPC   C4B28138  12.358  22.124   7.664
 2035POPC   NC328139  21.405  43.929   9.464
 2035POPC   PO428140  21.369  43.903   9.164
 2035POPC   GL128141  21.342  43.880   8.864
 2035POPC   GL228142  21.338  44.014   8.864
 2035POPC   C1A28143  21.373  43.895   8.564
 2035POPC   D2A28144  21.348  43.879   8.264
 2035POPC   C3A28145  21.362  43.874   7.964
 2035POPC   C4A28146  21.416  43.933   7.664
 2035POPC   C1B28147  21.332  44.087   8.564
 2035POPC   C2B28148  21.275  44.100   8.264
 2035POPC   C3B28149  21.281  44.085   7.964
 2035POPC   C4B28150  21.355  44.115   7.664
 2036POPC   NC328151  31.444  41.599   9.464
 2036POPC   PO428152  31.444  41.561   9.164
 2036POPC   GL128153  31.434  41.608   8.864
 2036POPC   GL228154  31.338  41.565   8.864
 2036POPC   C1A28155  31.461  41.573   8.564
 2036POPC   D2A28156  31.456  41.575   8.264
 2036POPC   C3A28157  31.447  41.529   7.964
 2036POPC   C4A28158  31.512  41.598   7.664
 2036POPC   C1B28159  31.242  41.600   8.564
 2036POPC   C2B28160  31.188  41.547   8.264
 2036POPC   C3B28161  31.188  41.591   7.964
 2036POPC   C4B28162  31.173  41.587   7.664
 2037POPC   NC328163   5.113  19.789   9.464
 2037POPC   PO428164   5.095  19.852   9.164
 2037POPC   GL128165   5.141  19.847   8.864
 2037POPC   GL228166   5.041  19.799   8.864
 2037POPC   C1A28167   5.143  19.844   8.564
 2037POPC   D2A28168   5.132  19.805   8.264
 2037POPC   C3A28169   5.066  19.816   7.964
 2037POPC   C4A28170   5.139  19.848   7.664
 2037POPC   C1B28171   4.922  19.705   8.564
 2037POPC   C2B28172   4.937  19.648   8.264
 2037POPC   C3B28173   4.907  19.728   7.964
 2037POPC   C4B28174   4.871  19.722   7.664
 2038POPC   NC328175  39.244  12.896   9.464
 2038POPC   PO428176  39.217  12.833   9.164
 2038POPC   GL128177  39.239  12.895   8.864
 2038POPC   GL228178  39.403  12.906   8.864
 2038POPC   C1A28179  39.183  12.804   8.564
 2038POPC   D2A28180  39.245  12.839   8.264
 2038POPC   C3A28181  39.227  12.884   7.964
 2038POPC   C4A28182  39.240  12.808   7.664
 2038POPC   C1B28183  39.436  12.867   8.564
 2038POPC   C2B28184  39.488  12.899   8.264
 2038POPC   C3B28185  39.494  12.869   7.964
 2038POPC   C4B28186  39.441  12.853   7.664
 2039POPC   NC328187  29.121  39.218   9.464
 2039POPC   PO428188  29.192  39.250   9.164
 2039POPC   GL128189  29.135  39.243   8.864
 2039POPC   GL228190  29.091  39.365   8.864
 2039POPC   C1A28191  29.118  39.280   8.564
 2039POPC   D2A28192  29.190  39.252   8.264
 2039POPC   C3A28193  29.135  39.196   7.964
 2039POPC   C4A28194  29.123  39.271   7.664
 2039POPC   C1B28195  28.969  39.445   8.564
 2039POPC   C2B28196  28.962  39.405   8.264
 2039POPC   C3B28197  28.995  39.375   7.964
 2039POPC   C4B28198  28.987  39.381   7.664
 2040POPC   NC328199  41.567  27.586   9.464
 2040POPC   PO428200  41.537  27.608   9.164
 2040POPC   GL128201  41.549  27.555   8.864
 2040POPC   GL228202  41.478  27.458   8.864
 2040POPC   C1A28203  41.587  27.581   8.564
 2040POPC   D2A28204  41.571  27.606   8.264
 2040POPC   C3A28205  41.580  27.600   7.964
 2040POPC   C4A28206  41.598  27.563   7.664
 2040POPC   C1B28207  41.530  27.331   8.564
 2040POPC   C2B28208  41.457  27.389   8.264
 2040POPC   C3B28209  41.469  27.345   7.964
 2040POPC   C4B28210  41.519  27.315   7.664
 2041POPC   NC328211  36.082  26.837   9.464
 2041POPC   PO428212  36.088  26.803   9.164
 2041POPC   GL128213  36.158  26.796   8.864
 2041POPC   GL228214  36.187  26.917   8.864
 2041POPC   C1A28215  36.093  26.856   8.564
 2041POPC   D2A28216  36.119  26.812   8.264
 2041POPC   C3A28217  36.094  26.841   7.964
 2041POPC   C4A28218  36.114  26.806   7.664
 2041POPC   C1B28219  36.258  27.007   8.564
 2041POPC   C2B28220  36.316  26.951   8.264
 2041POPC   C3B28221  36.310  26.963   7.964
 2041POPC   C4B28222  36.327  26.991   7.664
 2042POPC   NC328223  27.606  26.784   9.464
 2042POPC   PO428224  27.551  26.834   9.164
 2042POPC   GL128225  27.609  26.789   8.864
 2042POPC   GL228226  27.533  26.733   8.864
 2042POPC   C1A28227  27.635  26.825   8.564
 2042POPC   D2A28228  27.576  26.835   8.264
 2042POPC   C3A28229  27.581  26.785   7.964
 2042POPC   C4A28230  27.602  26.832   7.664
 2042POPC   C1B28231  27.475  26.589   8.564
 2042POPC   C2B28232  27.418  26.638   8.264
 2042POPC   C3B28233  27.437  26.659   7.964
 2042POPC   C4B28234  27.468  26.629   7.664
 2043POPC   NC328235  22.943   1.236   9.464
 2043POPC   PO428236  22.904   1.186   9.164
 2043POPC   GL128237  22.943   1.213   8.864
 2043POPC   GL228238  22.830   1.264   8.864
 2043POPC   C1A28239  22.965   1.199   8.564
 2043POPC   D2A28240  22.943   1.166   8.264
 2043POPC   C3A28241  22.971   1.196   7.964
 2043POPC   C4A28242  22.922   1.213   7.664
 2043POPC   C1B28243  22.777   1.428   8.564
 2043POPC   C2B28244  22.781   1.407   8.264
 2043POPC   C3B28245  22.720   1.419   7.964
 2043POPC   C4B28246  22.739   1.433   7.664
 2044POPC   NC328247  24.484   2.802   9.464
 2044POPC   PO428248  24.473   2.772   9.164
 2044POPC   GL128249  24.459   2.789   8.864
 2044POPC   GL228250  24.494   2.840   8.864
 2044POPC   C1A28251  24.525   2.777   8.564
 2044POPC   D2A28252  24.447   2.756   8.264
 2044POPC   C3A28253  24.535   2.773   7.964
 2044POPC   C4A28254  24.539   2.776   7.664
 2044POPC   C1B28255  24.504   3.004   8.564
 2044POPC   C2B28256  24.540   2.967   8.264
 2044POPC   C3B28257  24.496   2.994   7.964
 2044POPC   C4B28258  24.559   2.982   7.664
 2045POPC   NC328259  15.934   5.131   9.464
 2045POPC   PO428260  15.927   5.119   9.164
 2045POPC   GL128261  15.909   5.090   8.864
 2045POPC   GL228262  16.060   5.093   8.864
 2045POPC   C1A28263  15.977   5.078   8.564
 2045POPC   D2A28264  16.002   5.140   8.264
 2045POPC   C3A28265  15.950   5.083   7.964
 2045POPC   C4A28266  15.955   5.117   7.664
 2045POPC   C1B28267  16.197   5.126   8.564
 2045POPC   C2B28268  16.215   5.219   8.264
 2045POPC   C3B28269  16.170   5.145   7.964
 2045POPC   C4B28270  16.208   5.190   7.664
 2046POPC   NC328271   8.192  36.109   9.464
 2046POPC   PO428272   8.200  36.113   9.164
 2046POPC   GL128273   8.195  36.122   8.864
 2046POPC   GL228274   8.201  36.005   8.864
 2046POPC   C1A28275   8.221  36.128   8.564
 2046POPC   D2A28276   8.171  36.091   8.264
 2046POPC   C3A28277   8.178  36.120   7.964
 2046POPC   C4A28278   8.161  36.151   7.664
 2046POPC   C1B28279   8.257  35.927   8.564
 2046POPC   C2B28280   8.331  35.911   8.264
 2046POPC   C3B28281   8.315  35.932   7.964
 2046POPC   C4B28282   8.257  35.895   7.664
 2047POPC   NC328283  15.972  44.623   9.464
 2047POPC   PO428284  15.979  44.625   9.164
 2047POPC   GL128285  15.931  44.684   8.864
 2047POPC   GL228286  15.931  44.550   8.864
 2047POPC   C1A28287  15.994  44.656   8.564
 2047POPC   D2A28288  15.990  44.705   8.264
 2047POPC   C3A28289  15.982  44.659   7.964
 2047POPC   C4A28290  15.947  44.667   7.664
 2047POPC   C1B28291  15.827  44.500   8.564
 2047POPC   C2B28292  15.777  44.417   8.264
 2047POPC   C3B28293  15.801  44.471   7.964
 2047POPC   C4B28294  15.810  44.471   7.664
 2048POPC   NC328295  29.130  32.232   9.464
 2048POPC   PO428296  29.181  32.227   9.164
 2048POPC   GL128297  29.124  32.267   8.864
 2048POPC   GL228298  29.196  32.370   8.864
 2048POPC   C1A28299  29.165  32.205   8.564
 2048POPC   D2A28300  29.116  32.219   8.264
 2048POPC   C3A28301  29.166  32.237   7.964
 2048POPC   C4A28302  29.107  32.245   7.664
 2048POPC   C1B28303  29.181  32.483   8.564
 2048POPC   C2B28304  29.205  32.446   8.264
 2048POPC   C3B28305  29.161  32.467   7.964
 2048POPC   C4B28306  29.150  32.454   7.664
 2049POPC   NC328307  38.431   2.730   9.464
 2049POPC   PO428308  38.441   2.805   9.164
 2049POPC   GL128309  38.468   2.815   8.864
 2049POPC   GL228310  38.347   2.670   8.864
 2049POPC   C1A28311  38.499   2.792   8.564
 2049POPC   D2A28312  38.454   2.738   8.264
 2049POPC   C3A28313  38.424   2.727   7.964
 2049POPC   C4A28314  38.488   2.717   7.664
 2049POPC   C1B28315  38.292   2.550   8.564
 2049POPC   C2B28316  38.311   2.593   8.264
 2049POPC   C3B28317  38.279   2.579   7.964
 2049POPC   C4B28318  38.301   2.575   7.664
 2050POPC   NC328319   1.993  39.237   9.464
 2050POPC   PO428320   1.995  39.228   9.164
 2050POPC   GL128321   2.024  39.250   8.864
 2050POPC   GL228322   1.935  39.332   8.864
 2050POPC   C1A28323   1.993  39.227   8.564
 2050POPC   D2A28324   1.962  39.226   8.264
 2050POPC   C3A28325   1.943  39.274   7.964
 2050POPC   C4A28326   1.987  39.253   7.664
 2050POPC   C1B28327   1.980  39.488   8.564
 2050POPC   C2B28328   2.001  39.521   8.264
 2050POPC   C3B28329   1.998  39.455   7.964
 2050POPC   C4B28330   1.970  39.475   7.664
 2051POPC   NC328331   4.364  23.741   9.464
 2051POPC   PO428332   4.304  23.745   9.164
 2051POPC   GL128333   4.334  23.709   8.864
 2051POPC   GL228334   4.213  23.776   8.864
 2051POPC   C1A28335   4.279  23.700   8.564
 2051POPC   D2A28336   4.297  23.681   8.264
 2051POPC   C3A28337   4.335  23.677   7.964
 2051POPC   C4A28338   4.289  23.680   7.664
 2051POPC   C1B28339   4.080  23.783   8.564
 2051POPC   C2B28340   4.028  23.795   8.264
 2051POPC   C3B28341   4.086  23.772   7.964
 2051POPC   C4B28342   4.052  23.822   7.664
 2052POPC   NC328343   3.536  35.315   9.464
 2052POPC   PO428344   3.538  35.355   9.164
 2052POPC   GL128345   3.555  35.358   8.864
 2052POPC   GL228346   3.679  35.442   8.864
 2052POPC   C1A28347   3.494  35.378   8.564
 2052POPC   D2A28348   3.495  35.320   8.264
 2052POPC   C3A28349   3.507  35.399   7.964
 2052POPC   C4A28350   3.516  35.324   7.664
 2052POPC   C1B28351   3.773  35.437   8.564
 2052POPC   C2B28352   3.763  35.448   8.264
 2052POPC   C3B28353   3.791  35.438   7.964
 2052POPC   C4B28354   3.706  35.458   7.664
 2053POPC   NC328355  20.623  19.081   9.464
 2053POPC   PO428356  20.587  19.027   9.164
 2053POPC   GL128357  20.657  19.086   8.864
 2053POPC   GL228358  20.662  19.124   8.864
 2053POPC   C1A28359  20.648  19.015   8.564
 2053POPC   D2A28360  20.649  19.082   8.264
 2053POPC   C3A28361  20.592  19.098   7.964
 2053POPC   C4A28362  20.607  19.083   7.664
 2053POPC   C1B28363  20.707  19.284   8.564
 2053POPC   C2B28364  20.762  19.245   8.264
 2053POPC   C3B28365  20.743  19.299   7.964
 2053POPC   C4B28366  20.759  19.254   7.664
 2054POPC   NC328367  22.189  19.032   9.464
 2054POPC   PO428368  22.145  19.012   9.164
 2054POPC   GL128369  22.152  19.030   8.864
 2054POPC   GL228370  22.102  18.928   8.864
 2054POPC   C1A28371  22.120  19.107   8.564
 2054POPC   D2A28372  22.160  19.095   8.264
 2054POPC   C3A28373  22.174  19.088   7.964
 2054POPC   C4A28374  22.193  19.044   7.664
 2054POPC   C1B28375  22.027  18.868   8.564
 2054POPC   C2B28376  22.023  18.881   8.264
 2054POPC   C3B28377  21.985  18.864   7.964
 2054POPC   C4B28378  22.039  18.864   7.664
 2055POPC   NC328379  38.467  28.363   9.464
 2055POPC   PO428380  38.437  28.399   9.164
 2055POPC   GL128381  38.463  28.407   8.864
 2055POPC   GL228382  38.336  28.410   8.864
 2055POPC   C1A28383  38.454  28.356   8.564
 2055POPC   D2A28384  38.444  28.371   8.264
 2055POPC   C3A28385  38.470  28.365   7.964
 2055POPC   C4A28386  38.476  28.333   7.664
 2055POPC   C1B28387  38.244  28.408   8.564
 2055POPC   C2B28388  38.156  28.394   8.264
 2055POPC   C3B28389  38.253  28.413   7.964
 2055POPC   C4B28390  38.241  28.376   7.664
 2056POPC   NC328391   1.246  27.579   9.464
 2056POPC   PO428392   1.223  27.641   9.164
 2056POPC   GL128393   1.258  27.556   8.864
 2056POPC   GL228394   1.089  27.697   8.864
 2056POPC   C1A28395   1.231  27.622   8.564
 2056POPC   D2A28396   1.216  27.623   8.264
 2056POPC   C3A28397   1.246  27.606   7.964
 2056POPC   C4A28398   1.253  27.594   7.664
 2056POPC   C1B28399   0.955  27.699   8.564
 2056POPC   C2B28400   1.000  27.680   8.264
 2056POPC   C3B28401   1.032  27.756   7.964
 2056POPC   C4B28402   1.002  27.685   7.664
 2057POPC   NC328403  23.738  14.446   9.464
 2057POPC   PO428404  23.710  14.453   9.164
 2057POPC   GL128405  23.714  14.386   8.864
 2057POPC   GL228406  23.691  14.462   8.864
 2057POPC   C1A28407  23.665  14.430   8.564
 2057POPC   D2A28408  23.678  14.434   8.264
 2057POPC   C3A28409  23.686  14.421   7.964
 2057POPC   C4A28410  23.734  14.375   7.664
 2057POPC   C1B28411  23.550  14.614   8.564
 2057POPC   C2B28412  23.599  14.569   8.264
 2057POPC   C3B28413  23.542  14.599   7.964
 2057POPC   C4B28414  23.585  14.616   7.664
 2058POPC   NC328415  39.235  25.237   9.464
 2058POPC   PO428416  39.251  25.264   9.164
 2058POPC   GL128417  39.231  25.279   8.864
 2058POPC   GL228418  39.342  25.141   8.864
 2058POPC   C1A28419  39.260  25.247   8.564
 2058POPC   D2A28420  39.257  25.228   8.264
 2058POPC   C3A28421  39.259  25.225   7.964
 2058POPC   C4A28422  39.207  25.311   7.664
 2058POPC   C1B28423  39.455  25.113   8.564
 2058POPC   C2B28424  39.435  25.096   8.264
 2058POPC   C3B28425  39.379  25.054   7.964
 2058POPC   C4B28426  39.439  25.045   7.664
 2059POPC   NC328427  18.248  26.090   9.464
 2059POPC   PO428428  18.291  26.076   9.164
 2059POPC   GL128429  18.301  26.074   8.864
 2059POPC   GL228430  18.311  26.161   8.864
 2059POPC   C1A28431  18.298  26.055   8.564
 2059POPC   D2A28432  18.317  26.017   8.264
 2059POPC   C3A28433  18.326  26.033   7.964
 2059POPC   C4A28434  18.256  26.078   7.664
 2059POPC   C1B28435  18.341  26.289   8.564
 2059POPC   C2B28436  18.347  26.313   8.264
 2059POPC   C3B28437  18.369  26.321   7.964
 2059POPC   C4B28438  18.414  26.245   7.664
 2060POPC   NC328439  30.669  44.685   9.464
 2060POPC   PO428440  30.715  44.679   9.164
 2060POPC   GL128441  30.726  44.644   8.864
 2060POPC   GL228442  30.614  44.728   8.864
 2060POPC   C1A28443  30.709  44.637   8.564
 2060POPC   D2A28444  30.703  44.659   8.264
 2060POPC   C3A28445  30.701  44.644   7.964
 2060POPC   C4A28446  30.704  44.623   7.664
 2060POPC   C1B28447  30.628  44.860   8.564
 2060POPC   C2B28448  30.595  44.931   8.264
 2060POPC   C3B28449  30.633  44.911   7.964
 2060POPC   C4B28450  30.633  44.864   7.664
 2061POPC   NC328451  15.217  41.527   9.464
 2061POPC   PO428452  15.226  41.561   9.164
 2061POPC   GL128453  15.180  41.562   8.864
 2061POPC   GL228454  15.073  41.501   8.864
 2061POPC   C1A28455  15.184  41.538   8.564
 2061POPC   D2A28456  15.162  41.540   8.264
 2061POPC   C3A28457  15.227  41.603   7.964
 2061POPC   C4A28458  15.162  41.533   7.664
 2061POPC   C1B28459  15.063  41.314   8.564
 2061POPC   C2B28460  15.026  41.340   8.264
 2061POPC   C3B28461  15.045  41.318   7.964
 2061POPC   C4B28462  15.055  41.376   7.664
 2062POPC   NC328463  10.502  44.654   9.464
 2062POPC   PO428464  10.545  44.615   9.164
 2062POPC   GL128465  10.529  44.632   8.864
 2062POPC   GL228466  10.673  44.715   8.864
 2062POPC   C1A28467  10.532  44.659   8.564
 2062POPC   D2A28468  10.495  44.654   8.264
 2062POPC   C3A28469  10.543  44.665   7.964
 2062POPC   C4A28470  10.550  44.662   7.664
 2062POPC   C1B28471  10.765  44.729   8.564
 2062POPC   C2B28472  10.717  44.758   8.264
 2062POPC   C3B28473  10.732  44.805   7.964
 2062POPC   C4B28474  10.721  44.752   7.664
 2063POPC   NC328475  43.851  28.403   9.464
 2063POPC   PO428476  43.852  28.356   9.164
 2063POPC   GL128477  43.864  28.413   8.864
 2063POPC   GL228478  43.730  28.311   8.864
 2063POPC   C1A28479  43.907  28.343   8.564
 2063POPC   D2A28480  43.842  28.338   8.264
 2063POPC   C3A28481  43.921  28.407   7.964
 2063POPC   C4A28482  43.880  28.362   7.664
 2063POPC   C1B28483  43.677  28.317   8.564
 2063POPC   C2B28484  43.680  28.301   8.264
 2063POPC   C3B28485  43.670  28.313   7.964
 2063POPC   C4B28486  43.645  28.276   7.664
 2064POPC   NC328487  38.457  37.725   9.464
 2064POPC   PO428488  38.472  37.726   9.164
 2064POPC   GL128489  38.426  37.638   8.864
 2064POPC   GL228490  38.493  37.779   8.864
 2064POPC   C1A28491  38.429  37.711   8.564
 2064POPC   D2A28492  38.439  37.718   8.264
 2064POPC   C3A28493  38.442  37.711   7.964
 2064POPC   C4A28494  38.484  37.633   7.664
 2064POPC   C1B28495  38.537  37.867   8.564
 2064POPC   C2B28496  38.537  37.938   8.264
 2064POPC   C3B28497  38.575  37.943   7.964
 2064POPC   C4B28498  38.553  37.933   7.664
 2065POPC   NC328499  16.693  22.114   9.464
 2065POPC   PO428500  16.710  22.148   9.164
 2065POPC   GL128501  16.747  22.114   8.864
 2065POPC   GL228502  16.733  22.230   8.864
 2065POPC   C1A28503  16.695  22.164   8.564
 2065POPC   D2A28504  16.768  22.182   8.264
 2065POPC   C3A28505  16.723  22.119   7.964
 2065POPC   C4A28506  16.741  22.140   7.664
 2065POPC   C1B28507  16.772  22.408   8.564
 2065POPC   C2B28508  16.778  22.368   8.264
 2065POPC   C3B28509  16.777  22.411   7.964
 2065POPC   C4B28510  16.770  22.393   7.664
 2066POPC   NC328511  31.489  20.576   9.464
 2066POPC   PO428512  31.448  20.608   9.164
 2066POPC   GL128513  31.511  20.658   8.864
 2066POPC   GL228514  31.424  20.486   8.864
 2066POPC   C1A28515  31.468  20.637   8.564
 2066POPC   D2A28516  31.465  20.611   8.264
 2066POPC   C3A28517  31.489  20.617   7.964
 2066POPC   C4A28518  31.439  20.584   7.664
 2066POPC   C1B28519  31.442  20.397   8.564
 2066POPC   C2B28520  31.409  20.389   8.264
 2066POPC   C3B28521  31.393  20.375   7.964
 2066POPC   C4B28522  31.467  20.378   7.664
 2067POPC   NC328523   8.942  13.648   9.464
 2067POPC   PO428524   8.966  13.593   9.164
 2067POPC   GL128525   9.013  13.603   8.864
 2067POPC   GL228526   8.905  13.545   8.864
 2067POPC   C1A28527   8.950  13.630   8.564
 2067POPC   D2A28528   8.986  13.656   8.264
 2067POPC   C3A28529   8.970  13.587   7.964
 2067POPC   C4A28530   8.947  13.645   7.664
 2067POPC   C1B28531   8.850  13.425   8.564
 2067POPC   C2B28532   8.835  13.440   8.264
 2067POPC   C3B28533   8.840  13.465   7.964
 2067POPC   C4B28534   8.769  13.432   7.664
 2068POPC   NC328535  38.418  22.959   9.464
 2068POPC   PO428536  38.464  22.900   9.164
 2068POPC   GL128537  38.472  22.959   8.864
 2068POPC   GL228538  38.325  23.000   8.864
 2068POPC   C1A28539  38.476  22.986   8.564
 2068POPC   D2A28540  38.428  22.891   8.264
 2068POPC   C3A28541  38.480  22.891   7.964
 2068POPC   C4A28542  38.457  22.987   7.664
 2068POPC   C1B28543  38.250  23.097   8.564
 2068POPC   C2B28544  38.296  23.087   8.264
 2068POPC   C3B28545  38.255  23.147   7.964
 2068POPC   C4B28546  38.291  23.169   7.664
 2069POPC   NC328547  43.090  20.573   9.464
 2069POPC   PO428548  43.088  20.633   9.164
 2069POPC   GL128549  43.066  20.608   8.864
 2069POPC   GL228550  43.115  20.747   8.864
 2069POPC   C1A28551  43.101  20.660   8.564
 2069POPC   D2A28552  43.125  20.633   8.264
 2069POPC   C3A28553  43.154  20.638   7.964
 2069POPC   C4A28554  43.134  20.614   7.664
 2069POPC   C1B28555  43.061  20.834   8.564
 2069POPC   C2B28556  43.097  20.839   8.264
 2069POPC   C3B28557  43.072  20.877   7.964
 2069POPC   C4B28558  43.050  20.893   7.664
 2070POPC   NC328559  38.468  12.819   9.464
 2070POPC   PO428560  38.471  12.850   9.164
 2070POPC   GL128561  38.466  12.835   8.864
 2070POPC   GL228562  38.489  12.728   8.864
 2070POPC   C1A28563  38.471  12.871   8.564
 2070POPC   D2A28564  38.495  12.809   8.264
 2070POPC   C3A28565  38.446  12.899   7.964
 2070POPC   C4A28566  38.471  12.863   7.664
 2070POPC   C1B28567  38.544  12.611   8.564
 2070POPC   C2B28568  38.476  12.575   8.264
 2070POPC   C3B28569  38.485  12.560   7.964
 2070POPC   C4B28570  38.470  12.654   7.664
 2071POPC   NC328571  33.822  27.618   9.464
 2071POPC   PO428572  33.767  27.614   9.164
 2071POPC   GL128573  33.848  27.559   8.864
 2071POPC   GL228574  33.926  27.552   8.864
 2071POPC   C1A28575  33.797  27.597   8.564
 2071POPC   D2A28576  33.752  27.569   8.264
 2071POPC   C3A28577  33.846  27.642   7.964
 2071POPC   C4A28578  33.844  27.585   7.664
 2071POPC   C1B28579  34.055  27.486   8.564
 2071POPC   C2B28580  34.014  27.481   8.264
 2071POPC   C3B28581  34.013  27.478   7.964
 2071POPC   C4B28582  34.003  27.412   7.664
 2072POPC   NC328583  33.805  19.032   9.464
 2072POPC   PO428584  33.811  19.081   9.164
 2072POPC   GL128585  33.794  19.068   8.864
 2072POPC   GL228586  33.861  19.153   8.864
 2072POPC   C1A28587  33.814  19.090   8.564
 2072POPC   D2A28588  33.761  19.035   8.264
 2072POPC   C3A28589  33.821  19.096   7.964
 2072POPC   C4A28590  33.772  19.023   7.664
 2072POPC   C1B28591  33.906  19.348   8.564
 2072POPC   C2B28592  33.816  19.295   8.264
 2072POPC   C3B28593  33.895  19.342   7.964
 2072POPC   C4B28594  33.824  19.326   7.664
 2073POPC   NC328595  35.321  17.495   9.464
 2073POPC   PO428596  35.323  17.460   9.164
 2073POPC   GL128597  35.309  17.556   8.864
 2073POPC   GL228598  35.412  17.641   8.864
 2073POPC   C1A28599  35.329  17.461   8.564
 2073POPC   D2A28600  35.318  17.528   8.264
 2073POPC   C3A28601  35.387  17.533   7.964
 2073POPC   C4A28602  35.344  17.492   7.664
 2073POPC   C1B28603  35.519  17.727   8.564
 2073POPC   C2B28604  35.468  17.677   8.264
 2073POPC   C3B28605  35.439  17.736   7.964
 2073POPC   C4B28606  35.474  17.707   7.664
 2074POPC   NC328607  40.756   1.956   9.464
 2074POPC   PO428608  40.773   2.027   9.164
 2074POPC   GL128609  40.820   1.959   8.864
 2074POPC   GL228610  40.948   2.021   8.864
 2074POPC   C1A28611  40.812   1.950   8.564
 2074POPC   D2A28612  40.819   2.024   8.264
 2074POPC   C3A28613  40.818   1.968   7.964
 2074POPC   C4A28614  40.747   2.017   7.664
 2074POPC   C1B28615  40.982   2.053   8.564
 2074POPC   C2B28616  41.008   2.063   8.264
 2074POPC   C3B28617  41.020   2.003   7.964
 2074POPC   C4B28618  41.022   2.038   7.664
 2075POPC   NC328619  21.352  11.326   9.464
 2075POPC   PO428620  21.403  11.259   9.164
 2075POPC   GL128621  21.426  11.348   8.864
 2075POPC   GL228622  21.353  11.203   8.864
 2075POPC   C1A28623  21.393  11.346   8.564
 2075POPC   D2A28624  21.364  11.260   8.264
 2075POPC   C3A28625  21.382  11.330   7.964
 2075POPC   C4A28626  21.410  11.255   7.664
 2075POPC   C1B28627  21.316  11.064   8.564
 2075POPC   C2B28628  21.260  11.055   8.264
 2075POPC   C3B28629  21.275  11.105   7.964
 2075POPC   C4B28630  21.315  11.051   7.664
 2076POPC   NC328631  22.164  20.658   9.464
 2076POPC   PO428632  22.207  20.649   9.164
 2076POPC   GL128633  22.182  20.645   8.864
 2076POPC   GL228634  22.051  20.599   8.864
 2076POPC   C1A28635  22.151  20.583   8.564
 2076POPC   D2A28636  22.124  20.573   8.264
 2076POPC   C3A28637  22.195  20.622   7.964
 2076POPC   C4A28638  22.182  20.624   7.664
 2076POPC   C1B28639  21.960  20.487   8.564
 2076POPC   C2B28640  21.885  20.561   8.264
 2076POPC   C3B28641  21.972  20.496   7.964
 2076POPC   C4B28642  21.967  20.560   7.664
 2077POPC   NC328643   4.362  10.527   9.464
 2077POPC   PO428644   4.343  10.550   9.164
 2077POPC   GL128645   4.284  10.523   8.864
 2077POPC   GL228646   4.231  10.381   8.864
 2077POPC   C1A28647   4.287  10.528   8.564
 2077POPC   D2A28648   4.359  10.491   8.264
 2077POPC   C3A28649   4.336  10.528   7.964
 2077POPC   C4A28650   4.298  10.553   7.664
 2077POPC   C1B28651   4.256  10.320   8.564
 2077POPC   C2B28652   4.204  10.274   8.264
 2077POPC   C3B28653   4.236  10.325   7.964
 2077POPC   C4B28654   4.241  10.331   7.664
 2078POPC   NC328655  39.269  17.525   9.464
 2078POPC   PO428656  39.220  17.535   9.164
 2078POPC   GL128657  39.228  17.535   8.864
 2078POPC   GL228658  39.135  17.458   8.864
 2078POPC   C1A28659  39.251  17.506   8.564
 2078POPC   D2A28660  39.278  17.543   8.264
 2078POPC   C3A28661  39.217  17.507   7.964
 2078POPC   C4A28662  39.255  17.479   7.664
 2078POPC   C1B28663  39.023  17.447   8.564
 2078POPC   C2B28664  38.988  17.430   8.264
 2078POPC   C3B28665  38.983  17.428   7.964
 2078POPC   C4B28666  39.006  17.393   7.664
 2079POPC   NC328667  30.718  43.855   9.464
 2079POPC   PO428668  30.734  43.854   9.164
 2079POPC   GL128669  30.718  43.857   8.864
 2079POPC   GL228670  30.553  43.871   8.864
 2079POPC   C1A28671  30.695  43.864   8.564
 2079POPC   D2A28672  30.735  43.890   8.264
 2079POPC   C3A28673  30.703  43.899   7.964
 2079POPC   C4A28674  30.702  43.925   7.664
 2079POPC   C1B28675  30.451  43.731   8.564
 2079POPC   C2B28676  30.465  43.769   8.264
 2079POPC   C3B28677  30.483  43.727   7.964
 2079POPC   C4B28678  30.471  43.744   7.664
 2080POPC   NC328679  38.406  36.125   9.464
 2080POPC   PO428680  38.479  36.099   9.164
 2080POPC   GL128681  38.495  36.120   8.864
 2080POPC   GL228682  38.496  36.017   8.864
 2080POPC   C1A28683  38.452  36.174   8.564
 2080POPC   D2A28684  38.450  36.158   8.264
 2080POPC   C3A28685  38.463  36.079   7.964
 2080POPC   C4A28686  38.413  36.149   7.664
 2080POPC   C1B28687  38.535  35.886   8.564
 2080POPC   C2B28688  38.497  35.837   8.264
 2080POPC   C3B28689  38.451  35.889   7.964
 2080POPC   C4B28690  38.521  35.882   7.664
 2081POPC   NC328691   5.058   9.700   9.464
 2081POPC   PO428692   5.053   9.728   9.164
 2081POPC   GL128693   5.067   9.728   8.864
 2081POPC   GL228694   5.207   9.738   8.864
 2081POPC   C1A28695   5.068   9.794   8.564
 2081POPC   D2A28696   5.078   9.739   8.264
 2081POPC   C3A28697   5.084   9.746   7.964
 2081POPC   C4A28698   5.103   9.793   7.664
 2081POPC   C1B28699   5.311   9.742   8.564
 2081POPC   C2B28700   5.292   9.689   8.264
 2081POPC   C3B28701   5.357   9.689   7.964
 2081POPC   C4B28702   5.328   9.744   7.664
 2082POPC   NC328703  10.500  39.189   9.464
 2082POPC   PO428704  10.570  39.255   9.164
 2082POPC   GL128705  10.525  39.212   8.864
 2082POPC   GL228706  10.422  39.316   8.864
 2082POPC   C1A28707  10.527  39.266   8.564
 2082POPC   D2A28708  10.526  39.187   8.264
 2082POPC   C3A28709  10.560  39.254   7.964
 2082POPC   C4A28710  10.501  39.265   7.664
 2082POPC   C1B28711  10.308  39.359   8.564
 2082POPC   C2B28712  10.302  39.361   8.264
 2082POPC   C3B28713  10.325  39.404   7.964
 2082POPC   C4B28714  10.278  39.409   7.664
 2083POPC   NC328715  43.868  20.578   9.464
 2083POPC   PO428716  43.865  20.597   9.164
 2083POPC   GL128717  43.864  20.597   8.864
 2083POPC   GL228718  43.737  20.645   8.864
 2083POPC   C1A28719  43.895  20.647   8.564
 2083POPC   D2A28720  43.909  20.564   8.264
 2083POPC   C3A28721  43.866  20.565   7.964
 2083POPC   C4A28722  43.868  20.647   7.664
 2083POPC   C1B28723  43.647  20.553   8.564
 2083POPC   C2B28724  43.613  20.580   8.264
 2083POPC   C3B28725  43.602  20.538   7.964
 2083POPC   C4B28726  43.675  20.609   7.664
 2084POPC   NC328727  26.016  23.711   9.464
 2084POPC   PO428728  26.091  23.672   9.164
 2084POPC   GL128729  26.000  23.675   8.864
 2084POPC   GL228730  26.077  23.838   8.864
 2084POPC   C1A28731  26.029  23.722   8.564
 2084POPC   D2A28732  26.068  23.705   8.264
 2084POPC   C3A28733  26.072  23.674   7.964
 2084POPC   C4A28734  26.033  23.675   7.664
 2084POPC   C1B28735  26.107  23.930   8.564
 2084POPC   C2B28736  26.122  23.929   8.264
 2084POPC   C3B28737  26.074  23.955   7.964
 2084POPC   C4B28738  26.103  23.971   7.664
 2085POPC   NC328739  25.309  26.809   9.464
 2085POPC   PO428740  25.311  26.773   9.164
 2085POPC   GL128741  25.226  26.861   8.864
 2085POPC   GL228742  25.212  26.693   8.864
 2085POPC   C1A28743  25.220  26.789   8.564
 2085POPC   D2A28744  25.247  26.773   8.264
 2085POPC   C3A28745  25.267  26.799   7.964
 2085POPC   C4A28746  25.259  26.852   7.664
 2085POPC   C1B28747  25.159  26.640   8.564
 2085POPC   C2B28748  25.093  26.636   8.264
 2085POPC   C3B28749  25.183  26.551   7.964
 2085POPC   C4B28750  25.106  26.624   7.664
 2086POPC   NC328751  27.595  36.919   9.464
 2086POPC   PO428752  27.620  36.899   9.164
 2086POPC   GL128753  27.574  36.950   8.864
 2086POPC   GL228754  27.702  36.785   8.864
 2086POPC   C1A28755  27.587  36.943   8.564
 2086POPC   D2A28756  27.552  36.891   8.264
 2086POPC   C3A28757  27.599  36.935   7.964
 2086POPC   C4A28758  27.557  36.898   7.664
 2086POPC   C1B28759  27.715  36.727   8.564
 2086POPC   C2B28760  27.784  36.697   8.264
 2086POPC   C3B28761  27.717  36.673   7.964
 2086POPC   C4B28762  27.766  36.725   7.664
 2087POPC   NC328763  30.728  42.381   9.464
 2087POPC   PO428764  30.689  42.332   9.164
 2087POPC   GL128765  30.734  42.378   8.864
 2087POPC   GL228766  30.835  42.223   8.864
 2087POPC   C1A28767  30.683  42.354   8.564
 2087POPC   D2A28768  30.676  42.341   8.264
 2087POPC   C3A28769  30.665  42.297   7.964
 2087POPC   C4A28770  30.662  42.309   7.664
 2087POPC   C1B28771  30.920  42.182   8.564
 2087POPC   C2B28772  30.920  42.154   8.264
 2087POPC   C3B28773  30.921  42.211   7.964
 2087POPC   C4B28774  30.920  42.202   7.664
 2088POPC   NC328775  35.307  32.217   9.464
 2088POPC   PO428776  35.336  32.213   9.164
 2088POPC   GL128777  35.310  32.236   8.864
 2088POPC   GL228778  35.369  32.327   8.864
 2088POPC   C1A28779  35.310  32.261   8.564
 2088POPC   D2A28780  35.364  32.283   8.264
 2088POPC   C3A28781  35.365  32.212   7.964
 2088POPC   C4A28782  35.363  32.203   7.664
 2088POPC   C1B28783  35.321  32.508   8.564
 2088POPC   C2B28784  35.295  32.510   8.264
 2088POPC   C3B28785  35.323  32.459   7.964
 2088POPC   C4B28786  35.302  32.519   7.664
 2089POPC   NC328787   8.951  23.671   9.464
 2089POPC   PO428788   8.952  23.698   9.164
 2089POPC   GL128789   8.983  23.735   8.864
 2089POPC   GL228790   8.898  23.687   8.864
 2089POPC   C1A28791   8.988  23.726   8.564
 2089POPC   D2A28792   8.990  23.718   8.264
 2089POPC   C3A28793   8.936  23.748   7.964
 2089POPC   C4A28794   8.989  23.670   7.664
 2089POPC   C1B28795   8.760  23.580   8.564
 2089POPC   C2B28796   8.775  23.590   8.264
 2089POPC   C3B28797   8.735  23.593   7.964
 2089POPC   C4B28798   8.722  23.611   7.664
 2090POPC   NC328799  20.576   5.066   9.464
 2090POPC   PO428800  20.595   5.058   9.164
 2090POPC   GL128801  20.647   5.120   8.864
 2090POPC   GL228802  20.537   5.108   8.864
 2090POPC   C1A28803  20.564   5.048   8.564
 2090POPC   D2A28804  20.656   5.081   8.264
 2090POPC   C3A28805  20.609   5.068   7.964
 2090POPC   C4A28806  20.656   5.081   7.664
 2090POPC   C1B28807  20.330   5.093   8.564
 2090POPC   C2B28808  20.328   5.180   8.264
 2090POPC   C3B28809  20.323   5.141   7.964
 2090POPC   C4B28810  20.330   5.126   7.664
 2091POPC   NC328811  12.839   7.389   9.464
 2091POPC   PO428812  12.824   7.454   9.164
 2091POPC   GL128813  12.856   7.419   8.864
 2091POPC   GL228814  12.740   7.329   8.864
 2091POPC   C1A28815  12.803   7.467   8.564
 2091POPC   D2A28816  12.867   7.374   8.264
 2091POPC   C3A28817  12.817   7.421   7.964
 2091POPC   C4A28818  12.844   7.389   7.664
 2091POPC   C1B28819  12.638   7.278   8.564
 2091POPC   C2B28820  12.631   7.273   8.264
 2091POPC   C3B28821  12.697   7.213   7.964
 2091POPC   C4B28822  12.676   7.203   7.664
 2092POPC   NC328823   2.014  41.516   9.464
 2092POPC   PO428824   2.003  41.541   9.164
 2092POPC   GL128825   1.961  41.542   8.864
 2092POPC   GL228826   1.939  41.660   8.864
 2092POPC   C1A28827   2.018  41.546   8.564
 2092POPC   D2A28828   2.029  41.586   8.264
 2092POPC   C3A28829   1.995  41.570   7.964
 2092POPC   C4A28830   1.976  41.602   7.664
 2092POPC   C1B28831   1.935  41.852   8.564
 2092POPC   C2B28832   1.926  41.777   8.264
 2092POPC   C3B28833   2.015  41.758   7.964
 2092POPC   C4B28834   2.007  41.791   7.664
 2093POPC   NC328835   1.245  42.342   9.464
 2093POPC   PO428836   1.193  42.376   9.164
 2093POPC   GL128837   1.237  42.322   8.864
 2093POPC   GL228838   1.322  42.244   8.864
 2093POPC   C1A28839   1.222  42.285   8.564
 2093POPC   D2A28840   1.228  42.310   8.264
 2093POPC   C3A28841   1.190  42.359   7.964
 2093POPC   C4A28842   1.240  42.306   7.664
 2093POPC   C1B28843   1.399  42.083   8.564
 2093POPC   C2B28844   1.309  42.165   8.264
 2093POPC   C3B28845   1.374  42.167   7.964
 2093POPC   C4B28846   1.341  42.174   7.664
 2094POPC   NC328847  22.162  31.496   9.464
 2094POPC   PO428848  22.149  31.468   9.164
 2094POPC   GL128849  22.165  31.478   8.864
 2094POPC   GL228850  22.017  31.544   8.864
 2094POPC   C1A28851  22.206  31.473   8.564
 2094POPC   D2A28852  22.180  31.428   8.264
 2094POPC   C3A28853  22.137  31.497   7.964
 2094POPC   C4A28854  22.200  31.492   7.664
 2094POPC   C1B28855  21.918  31.557   8.564
 2094POPC   C2B28856  21.909  31.599   8.264
 2094POPC   C3B28857  21.905  31.601   7.964
 2094POPC   C4B28858  21.927  31.544   7.664
 2095POPC   NC328859  26.863  43.924   9.464
 2095POPC   PO428860  26.794  43.878   9.164
 2095POPC   GL128861  26.785  43.849   8.864
 2095POPC   GL228862  26.977  43.888   8.864
 2095POPC   C1A28863  26.814  43.900   8.564
 2095POPC   D2A28864  26.780  43.923   8.264
 2095POPC   C3A28865  26.839  43.838   7.964
 2095POPC   C4A28866  26.820  43.916   7.664
 2095POPC   C1B28867  27.099  43.870   8.564
 2095POPC   C2B28868  27.019  43.946   8.264
 2095POPC   C3B28869  27.075  43.889   7.964
 2095POPC   C4B28870  27.031  43.948   7.664
 2096POPC   NC328871  39.252   7.446   9.464
 2096POPC   PO428872  39.239   7.400   9.164
 2096POPC   GL128873  39.198   7.455   8.864
 2096POPC   GL228874  39.363   7.533   8.864
 2096POPC   C1A28875  39.192   7.446   8.564
 2096POPC   D2A28876  39.243   7.377   8.264
 2096POPC   C3A28877  39.216   7.393   7.964
 2096POPC   C4A28878  39.230   7.448   7.664
 2096POPC   C1B28879  39.372   7.604   8.564
 2096POPC   C2B28880  39.453   7.545   8.264
 2096POPC   C3B28881  39.418   7.602   7.964
 2096POPC   C4B28882  39.380   7.551   7.664
 2097POPC   NC328883  10.486  43.114   9.464
 2097POPC   PO428884  10.533  43.113   9.164
 2097POPC   GL128885  10.483  43.067   8.864
 2097POPC   GL228886  10.464  43.227   8.864
 2097POPC   C1A28887  10.564  43.123   8.564
 2097POPC   D2A28888  10.481  43.073   8.264
 2097POPC   C3A28889  10.503  43.115   7.964
 2097POPC   C4A28890  10.503  43.071   7.664
 2097POPC   C1B28891  10.416  43.283   8.564
 2097POPC   C2B28892  10.373  43.290   8.264
 2097POPC   C3B28893  10.355  43.343   7.964
 2097POPC   C4B28894  10.341  43.304   7.664
 2098POPC   NC328895   3.578  26.018   9.464
 2098POPC   PO428896   3.548  26.053   9.164
 2098POPC   GL128897   3.520  25.992   8.864
 2098POPC   GL228898   3.678  26.171   8.864
 2098POPC   C1A28899   3.549  26.045   8.564
 2098POPC   D2A28900   3.554  26.006   8.264
 2098POPC   C3A28901   3.529  26.043   7.964
 2098POPC   C4A28902   3.497  26.051   7.664
 2098POPC   C1B28903   3.693  26.213   8.564
 2098POPC   C2B28904   3.751  26.228   8.264
 2098POPC   C3B28905   3.715  26.237   7.964
 2098POPC   C4B28906   3.711  26.168   7.664
 2099POPC   NC328907  29.944  44.646   9.464
 2099POPC   PO428908  29.878  44.678   9.164
 2099POPC   GL128909  29.912  44.651   8.864
 2099POPC   GL228910  29.938  44.806   8.864
 2099POPC   C1A28911  29.922  44.620   8.564
 2099POPC   D2A28912  29.938  44.642   8.264
 2099POPC   C3A28913  29.962  44.643   7.964
 2099POPC   C4A28914  29.950  44.664   7.664
 2099POPC   C1B28915  30.021  44.878   8.564
 2099POPC   C2B28916  30.015  44.862   8.264
 2099POPC   C3B28917  29.957  44.878   7.964
 2099POPC   C4B28918  29.993  44.945   7.664
 2100POPC   NC328919  35.325  15.991   9.464
 2100POPC   PO428920  35.365  15.908   9.164
 2100POPC   GL128921  35.369  15.965   8.864
 2100POPC   GL228922  35.340  15.876   8.864
 2100POPC   C1A28923  35.359  15.952   8.564
 2100POPC   D2A28924  35.314  15.998   8.264
 2100POPC   C3A28925  35.374  15.927   7.964
 2100POPC   C4A28926  35.305  15.907   7.664
 2100POPC   C1B28927  35.356  15.715   8.564
 2100POPC   C2B28928  35.307  15.694   8.264
 2100POPC   C3B28929  35.337  15.725   7.964
 2100POPC   C4B28930  35.326  15.682   7.664
 2101POPC   NC328931   0.481  22.189   9.464
 2101POPC   PO428932   0.393  22.116   9.164
 2101POPC   GL128933   0.461  22.167   8.864
 2101POPC   GL228934   0.374  22.244   8.864
 2101POPC   C1A28935   0.423  22.131   8.564
 2101POPC   D2A28936   0.410  22.134   8.264
 2101POPC   C3A28937   0.394  22.199   7.964
 2101POPC   C4A28938   0.434  22.184   7.664
 2101POPC   C1B28939   0.268  22.322   8.564
 2101POPC   C2B28940   0.190  22.261   8.264
 2101POPC   C3B28941   0.211  22.302   7.964
 2101POPC   C4B28942   0.266  22.291   7.664
 2102POPC   NC328943  43.904  26.060   9.464
 2102POPC   PO428944  43.925  26.047   9.164
 2102POPC   GL128945  43.922  26.079   8.864
 2102POPC   GL228946  43.820  26.099   8.864
 2102POPC   C1A28947  43.925  26.070   8.564
 2102POPC   D2A28948  43.917  26.047   8.264
 2102POPC   C3A28949  43.903  26.025   7.964
 2102POPC   C4A28950  43.932  26.051   7.664
 2102POPC   C1B28951  43.708  26.255   8.564
 2102POPC   C2B28952  43.698  26.219   8.264
 2102POPC   C3B28953  43.741  26.179   7.964
 2102POPC   C4B28954  43.699  26.213   7.664
 2103POPC   NC328955  25.242  41.510   9.464
 2103POPC   PO428956  25.228  41.578   9.164
 2103POPC   GL128957  25.217  41.548   8.864
 2103POPC   GL228958  25.339  41.438   8.864
 2103POPC   C1A28959  25.243  41.527   8.564
 2103POPC   D2A28960  25.296  41.517   8.264
 2103POPC   C3A28961  25.271  41.521   7.964
 2103POPC   C4A28962  25.267  41.577   7.664
 2103POPC   C1B28963  25.437  41.433   8.564
 2103POPC   C2B28964  25.498  41.412   8.264
 2103POPC   C3B28965  25.442  41.371   7.964
 2103POPC   C4B28966  25.490  41.414   7.664
 2104POPC   NC328967  29.885  29.136   9.464
 2104POPC   PO428968  29.948  29.111   9.164
 2104POPC   GL128969  29.912  29.107   8.864
 2104POPC   GL228970  29.965  29.020   8.864
 2104POPC   C1A28971  29.945  29.134   8.564
 2104POPC   D2A28972  29.935  29.170   8.264
 2104POPC   C3A28973  29.887  29.134   7.964
 2104POPC   C4A28974  29.885  29.136   7.664
 2104POPC   C1B28975  29.992  28.917   8.564
 2104POPC   C2B28976  29.989  28.873   8.264
 2104POPC   C3B28977  29.995  28.894   7.964
 2104POPC   C4B28978  30.026  28.936   7.664
 2105POPC   NC328979  32.295  24.444   9.464
 2105POPC   PO428980  32.254  24.466   9.164
 2105POPC   GL128981  32.291  24.498   8.864
 2105POPC   GL228982  32.216  24.322   8.864
 2105POPC   C1A28983  32.273  24.457   8.564
 2105POPC   D2A28984  32.239  24.500   8.264
 2105POPC   C3A28985  32.209  24.491   7.964
 2105POPC   C4A28986  32.264  24.480   7.664
 2105POPC   C1B28987  32.243  24.286   8.564
 2105POPC   C2B28988  32.244  24.260   8.264
 2105POPC   C3B28989  32.307  24.235   7.964
 2105POPC   C4B28990  32.329  24.278   7.664
 2106POPC   NC328991  44.627  23.710   9.464
 2106POPC   PO428992  44.629  23.759   9.164
 2106POPC   GL128993  44.694  23.739   8.864
 2106POPC   GL228994  44.762  23.679   8.864
 2106POPC   C1A28995  44.649  23.737   8.564
 2106POPC   D2A28996  44.702  23.733   8.264
 2106POPC   C3A28997  44.634  23.697   7.964
 2106POPC   C4A28998  44.667  23.728   7.664
 2106POPC   C1B28999  44.914  23.540   8.564
 2106POPC   C2B29000  44.848  23.555   8.264
 2106POPC   C3B29001  44.894  23.584   7.964
 2106POPC   C4B29002  44.857  23.537   7.664
 2107POPC   NC329003  20.595  15.134   9.464
 2107POPC   PO429004  20.620  15.176   9.164
 2107POPC   GL129005  20.588  15.144   8.864
 2107POPC   GL229006  20.765  15.139   8.864
 2107POPC   C1A29007  20.599  15.158   8.564
 2107POPC   D2A29008  20.618  15.143   8.264
 2107POPC   C3A29009  20.565  15.134   7.964
 2107POPC   C4A29010  20.565  15.166   7.664
 2107POPC   C1B29011  20.838  15.194   8.564
 2107POPC   C2B29012  20.865  15.178   8.264
 2107POPC   C3B29013  20.904  15.111   7.964
 2107POPC   C4B29014  20.854  15.132   7.664
 2108POPC   NC329015   0.446  14.433   9.464
 2108POPC   PO429016   0.427  14.414   9.164
 2108POPC   GL129017   0.389  14.436   8.864
 2108POPC   GL229018   0.559  14.473   8.864
 2108POPC   C1A29019   0.446  14.415   8.564
 2108POPC   D2A29020   0.434  14.418   8.264
 2108POPC   C3A29021   0.459  14.357   7.964
 2108POPC   C4A29022   0.420  14.392   7.664
 2108POPC   C1B29023   0.630  14.602   8.564
 2108POPC   C2B29024   0.589  14.632   8.264
 2108POPC   C3B29025   0.638  14.581   7.964
 2108POPC   C4B29026   0.637  14.624   7.664
 2109POPC   NC329027  13.579  42.368   9.464
 2109POPC   PO429028  13.579  42.286   9.164
 2109POPC   GL129029  13.669  42.326   8.864
 2109POPC   GL229030  13.604  42.197   8.864
 2109POPC   C1A29031  13.625  42.293   8.564
 2109POPC   D2A29032  13.672  42.361   8.264
 2109POPC   C3A29033  13.598  42.323   7.964
 2109POPC   C4A29034  13.645  42.378   7.664
 2109POPC   C1B29035  13.448  42.160   8.564
 2109POPC   C2B29036  13.479  42.162   8.264
 2109POPC   C3B29037  13.440  42.101   7.964
 2109POPC   C4B29038  13.506  42.106   7.664
 2110POPC   NC329039  15.213  25.241   9.464
 2110POPC   PO429040  15.182  25.256   9.164
 2110POPC   GL129041  15.143  25.241   8.864
 2110POPC   GL229042  15.067  25.251   8.864
 2110POPC   C1A29043  15.179  25.242   8.564
 2110POPC   D2A29044  15.222  25.239   8.264
 2110POPC   C3A29045  15.141  25.284   7.964
 2110POPC   C4A29046  15.161  25.276   7.664
 2110POPC   C1B29047  14.920  25.144   8.564
 2110POPC   C2B29048  14.978  25.207   8.264
 2110POPC   C3B29049  14.961  25.141   7.964
 2110POPC   C4B29050  14.984  25.184   7.664
 2111POPC   NC329051   5.088  22.147   9.464
 2111POPC   PO429052   5.076  22.136   9.164
 2111POPC   GL129053   5.100  22.189   8.864
 2111POPC   GL229054   5.066  22.259   8.864
 2111POPC   C1A29055   5.114  22.143   8.564
 2111POPC   D2A29056   5.071  22.199   8.264
 2111POPC   C3A29057   5.055  22.165   7.964
 2111POPC   C4A29058   5.064  22.121   7.664
 2111POPC   C1B29059   5.079  22.453   8.564
 2111POPC   C2B29060   5.089  22.393   8.264
 2111POPC   C3B29061   5.037  22.443   7.964
 2111POPC   C4B29062   5.050  22.424   7.664
 2112POPC   NC329063  34.574  31.483   9.464
 2112POPC   PO429064  34.569  31.424   9.164
 2112POPC   GL129065  34.602  31.519   8.864
 2112POPC   GL229066  34.590  31.580   8.864
 2112POPC   C1A29067  34.598  31.439   8.564
 2112POPC   D2A29068  34.571  31.437   8.264
 2112POPC   C3A29069  34.603  31.428   7.964
 2112POPC   C4A29070  34.537  31.489   7.664
 2112POPC   C1B29071  34.579  31.729   8.564
 2112POPC   C2B29072  34.624  31.739   8.264
 2112POPC   C3B29073  34.593  31.738   7.964
 2112POPC   C4B29074  34.612  31.690   7.664
 2113POPC   NC329075  19.069  35.304   9.464
 2113POPC   PO429076  19.020  35.376   9.164
 2113POPC   GL129077  19.030  35.375   8.864
 2113POPC   GL229078  19.030  35.499   8.864
 2113POPC   C1A29079  19.074  35.400   8.564
 2113POPC   D2A29080  19.034  35.402   8.264
 2113POPC   C3A29081  19.030  35.356   7.964
 2113POPC   C4A29082  19.048  35.348   7.664
 2113POPC   C1B29083  18.954  35.590   8.564
 2113POPC   C2B29084  18.956  35.520   8.264
 2113POPC   C3B29085  18.908  35.552   7.964
 2113POPC   C4B29086  18.879  35.569   7.664
 2114POPC   NC329087  16.749  29.176   9.464
 2114POPC   PO429088  16.741  29.158   9.164
 2114POPC   GL129089  16.682  29.155   8.864
 2114POPC   GL229090  16.763  29.035   8.864
 2114POPC   C1A29091  16.728  29.101   8.564
 2114POPC   D2A29092  16.724  29.155   8.264
 2114POPC   C3A29093  16.748  29.142   7.964
 2114POPC   C4A29094  16.698  29.134   7.664
 2114POPC   C1B29095  16.896  28.981   8.564
 2114POPC   C2B29096  16.822  28.965   8.264
 2114POPC   C3B29097  16.860  28.899   7.964
 2114POPC   C4B29098  16.822  28.905   7.664
 2115POPC   NC329099  21.350   9.774   9.464
 2115POPC   PO429100  21.365   9.721   9.164
 2115POPC   GL129101  21.436   9.728   8.864
 2115POPC   GL229102  21.297   9.806   8.864
 2115POPC   C1A29103  21.368   9.780   8.564
 2115POPC   D2A29104  21.374   9.698   8.264
 2115POPC   C3A29105  21.367   9.745   7.964
 2115POPC   C4A29106  21.427   9.703   7.664
 2115POPC   C1B29107  21.268   9.936   8.564
 2115POPC   C2B29108  21.250   9.967   8.264
 2115POPC   C3B29109  21.296   9.944   7.964
 2115POPC   C4B29110  21.235  10.006   7.664
 2116POPC   NC329111  32.265  10.557   9.464
 2116POPC   PO429112  32.231  10.483   9.164
 2116POPC   GL129113  32.240  10.547   8.864
 2116POPC   GL229114  32.367  10.625   8.864
 2116POPC   C1A29115  32.203  10.489   8.564
 2116POPC   D2A29116  32.229  10.525   8.264
 2116POPC   C3A29117  32.229  10.489   7.964
 2116POPC   C4A29118  32.227  10.493   7.664
 2116POPC   C1B29119  32.414  10.687   8.564
 2116POPC   C2B29120  32.397  10.731   8.264
 2116POPC   C3B29121  32.419  10.694   7.964
 2116POPC   C4B29122  32.404  10.754   7.664
 2117POPC   NC329123  39.217  31.502   9.464
 2117POPC   PO429124  39.244  31.461   9.164
 2117POPC   GL129125  39.226  31.498   8.864
 2117POPC   GL229126  39.249  31.594   8.864
 2117POPC   C1A29127  39.226  31.474   8.564
 2117POPC   D2A29128  39.240  31.447   8.264
 2117POPC   C3A29129  39.226  31.436   7.964
 2117POPC   C4A29130  39.249  31.495   7.664
 2117POPC   C1B29131  39.226  31.673   8.564
 2117POPC   C2B29132  39.178  31.752   8.264
 2117POPC   C3B29133  39.201  31.681   7.964
 2117POPC   C4B29134  39.130  31.682   7.664
 2118POPC   NC329135  24.528  15.910   9.464
 2118POPC   PO429136  24.537  15.958   9.164
 2118POPC   GL129137  24.470  15.990   8.864
 2118POPC   GL229138  24.480  16.025   8.864
 2118POPC   C1A29139  24.472  15.933   8.564
 2118POPC   D2A29140  24.447  15.965   8.264
 2118POPC   C3A29141  24.465  15.929   7.964
 2118POPC   C4A29142  24.520  15.929   7.664
 2118POPC   C1B29143  24.447  16.151   8.564
 2118POPC   C2B29144  24.354  16.210   8.264
 2118POPC   C3B29145  24.404  16.171   7.964
 2118POPC   C4B29146  24.400  16.173   7.664
 2119POPC   NC329147  19.839  34.587   9.464
 2119POPC   PO429148  19.847  34.567   9.164
 2119POPC   GL129149  19.852  34.539   8.864
 2119POPC   GL229150  19.716  34.642   8.864
 2119POPC   C1A29151  19.813  34.599   8.564
 2119POPC   D2A29152  19.851  34.608   8.264
 2119POPC   C3A29153  19.816  34.544   7.964
 2119POPC   C4A29154  19.873  34.540   7.664
 2119POPC   C1B29155  19.653  34.767   8.564
 2119POPC   C2B29156  19.672  34.689   8.264
 2119POPC   C3B29157  19.682  34.762   7.964
 2119POPC   C4B29158  19.616  34.754   7.664
 2120POPC   NC329159  25.289  19.825   9.464
 2120POPC   PO429160  25.299  19.795   9.164
 2120POPC   GL129161  25.229  19.828   8.864
 2120POPC   GL229162  25.205  19.967   8.864
 2120POPC   C1A29163  25.263  19.810   8.564
 2120POPC   D2A29164  25.238  19.857   8.264
 2120POPC   C3A29165  25.225  19.884   7.964
 2120POPC   C4A29166  25.245  19.858   7.664
 2120POPC   C1B29167  25.185  20.067   8.564
 2120POPC   C2B29168  25.160  20.113   8.264
 2120POPC   C3B29169  25.159  20.071   7.964
 2120POPC   C4B29170  25.153  20.059   7.664
 2121POPC   NC329171  26.833   3.503   9.464
 2121POPC   PO429172  26.805   3.577   9.164
 2121POPC   GL129173  26.773   3.535   8.864
 2121POPC   GL229174  26.755   3.490   8.864
 2121POPC   C1A29175  26.843   3.527   8.564
 2121POPC   D2A29176  26.829   3.570   8.264
 2121POPC   C3A29177  26.817   3.501   7.964
 2121POPC   C4A29178  26.808   3.552   7.664
 2121POPC   C1B29179  26.679   3.316   8.564
 2121POPC   C2B29180  26.612   3.325   8.264
 2121POPC   C3B29181  26.614   3.371   7.964
 2121POPC   C4B29182  26.657   3.351   7.664
 2122POPC   NC329183  11.298  43.135   9.464
 2122POPC   PO429184  11.334  43.141   9.164
 2122POPC   GL129185  11.347  43.116   8.864
 2122POPC   GL229186  11.192  43.213   8.864
 2122POPC   C1A29187  11.314  43.093   8.564
 2122POPC   D2A29188  11.264  43.137   8.264
 2122POPC   C3A29189  11.255  43.079   7.964
 2122POPC   C4A29190  11.250  43.129   7.664
 2122POPC   C1B29191  11.099  43.227   8.564
 2122POPC   C2B29192  11.076  43.262   8.264
 2122POPC   C3B29193  11.058  43.249   7.964
 2122POPC   C4B29194  11.126  43.184   7.664
 2123POPC   NC329195  26.800   1.985   9.464
 2123POPC   PO429196  26.777   1.987   9.164
 2123POPC   GL129197  26.781   1.997   8.864
 2123POPC   GL229198  26.737   2.017   8.864
 2123POPC   C1A29199  26.777   2.032   8.564
 2123POPC   D2A29200  26.789   1.975   8.264
 2123POPC   C3A29201  26.801   1.964   7.964
 2123POPC   C4A29202  26.836   1.961   7.664
 2123POPC   C1B29203  26.585   2.028   8.564
 2123POPC   C2B29204  26.586   2.063   8.264
 2123POPC   C3B29205  26.572   2.023   7.964
 2123POPC   C4B29206  26.576   2.077   7.664
 2124POPC   NC329207  15.914  19.086   9.464
 2124POPC   PO429208  15.929  19.012   9.164
 2124POPC   GL129209  15.937  19.058   8.864
 2124POPC   GL229210  15.884  18.893   8.864
 2124POPC   C1A29211  15.927  19.018   8.564
 2124POPC   D2A29212  15.913  19.095   8.264
 2124POPC   C3A29213  15.975  19.081   7.964
 2124POPC   C4A29214  15.981  19.057   7.664
 2124POPC   C1B29215  15.895  18.863   8.564
 2124POPC   C2B29216  15.827  18.796   8.264
 2124POPC   C3B29217  15.872  18.822   7.964
 2124POPC   C4B29218  15.847  18.787   7.664
 2125POPC   NC329219   8.176  39.986   9.464
 2125POPC   PO429220   8.217  40.035   9.164
 2125POPC   GL129221   8.147  40.047   8.864
 2125POPC   GL229222   8.309  39.939   8.864
 2125POPC   C1A29223   8.162  40.052   8.564
 2125POPC   D2A29224   8.219  40.001   8.264
 2125POPC   C3A29225   8.245  39.975   7.964
 2125POPC   C4A29226   8.159  40.042   7.664
 2125POPC   C1B29227   8.382  39.925   8.564
 2125POPC   C2B29228   8.458  39.872   8.264
 2125POPC   C3B29229   8.390  39.920   7.964
 2125POPC   C4B29230   8.418  39.950   7.664
 2126POPC   NC329231  28.408  12.039   9.464
 2126POPC   PO429232  28.365  12.048   9.164
 2126POPC   GL129233  28.390  12.049   8.864
 2126POPC   GL229234  28.286  12.041   8.864
 2126POPC   C1A29235  28.379  12.116   8.564
 2126POPC   D2A29236  28.396  12.036   8.264
 2126POPC   C3A29237  28.381  12.105   7.964
 2126POPC   C4A29238  28.342  12.067   7.664
 2126POPC   C1B29239  28.093  12.089   8.564
 2126POPC   C2B29240  28.072  12.018   8.264
 2126POPC   C3B29241  28.128  11.995   7.964
 2126POPC   C4B29242  28.168  12.073   7.664
 2127POPC   NC329243   4.350  21.413   9.464
 2127POPC   PO429244   4.279  21.415   9.164
 2127POPC   GL129245   4.302  21.430   8.864
 2127POPC   GL229246   4.203  21.446   8.864
 2127POPC   C1A29247   4.360  21.399   8.564
 2127POPC   D2A29248   4.314  21.349   8.264
 2127POPC   C3A29249   4.324  21.395   7.964
 2127POPC   C4A29250   4.332  21.412   7.664
 2127POPC   C1B29251   4.112  21.422   8.564
 2127POPC   C2B29252   4.129  21.424   8.264
 2127POPC   C3B29253   4.111  21.457   7.964
 2127POPC   C4B29254   4.050  21.475   7.664
 2128POPC   NC329255  17.479  41.585   9.464
 2128POPC   PO429256  17.532  41.519   9.164
 2128POPC   GL129257  17.466  41.550   8.864
 2128POPC   GL229258  17.517  41.480   8.864
 2128POPC   C1A29259  17.521  41.550   8.564
 2128POPC   D2A29260  17.478  41.570   8.264
 2128POPC   C3A29261  17.544  41.570   7.964
 2128POPC   C4A29262  17.536  41.559   7.664
 2128POPC   C1B29263  17.579  41.282   8.564
 2128POPC   C2B29264  17.594  41.266   8.264
 2128POPC   C3B29265  17.567  41.362   7.964
 2128POPC   C4B29266  17.519  41.279   7.664
 2129POPC   NC329267  22.177  33.772   9.464
 2129POPC   PO429268  22.156  33.845   9.164
 2129POPC   GL129269  22.126  33.820   8.864
 2129POPC   GL229270  22.070  33.675   8.864
 2129POPC   C1A29271  22.127  33.789   8.564
 2129POPC   D2A29272  22.203  33.790   8.264
 2129POPC   C3A29273  22.129  33.771   7.964
 2129POPC   C4A29274  22.113  33.763   7.664
 2129POPC   C1B29275  21.998  33.583   8.564
 2129POPC   C2B29276  21.981  33.584   8.264
 2129POPC   C3B29277  22.026  33.608   7.964
 2129POPC   C4B29278  21.989  33.631   7.664
 2130POPC   NC329279   6.621   3.507   9.464
 2130POPC   PO429280   6.670   3.516   9.164
 2130POPC   GL129281   6.624   3.538   8.864
 2130POPC   GL229282   6.540   3.497   8.864
 2130POPC   C1A29283   6.688   3.543   8.564
 2130POPC   D2A29284   6.661   3.510   8.264
 2130POPC   C3A29285   6.656   3.572   7.964
 2130POPC   C4A29286   6.640   3.549   7.664
 2130POPC   C1B29287   6.437   3.471   8.564
 2130POPC   C2B29288   6.424   3.469   8.264
 2130POPC   C3B29289   6.403   3.538   7.964
 2130POPC   C4B29290   6.430   3.514   7.664
 2131POPC   NC329291   8.211  13.600   9.464
 2131POPC   PO429292   8.213  13.641   9.164
 2131POPC   GL129293   8.200  13.642   8.864
 2131POPC   GL229294   8.254  13.757   8.864
 2131POPC   C1A29295   8.164  13.632   8.564
 2131POPC   D2A29296   8.219  13.674   8.264
 2131POPC   C3A29297   8.166  13.671   7.964
 2131POPC   C4A29298   8.196  13.649   7.664
 2131POPC   C1B29299   8.223  13.891   8.564
 2131POPC   C2B29300   8.263  13.831   8.264
 2131POPC   C3B29301   8.189  13.880   7.964
 2131POPC   C4B29302   8.211  13.856   7.664
 2132POPC   NC329303  34.593  19.023   9.464
 2132POPC   PO429304  34.597  19.047   9.164
 2132POPC   GL129305  34.607  19.015   8.864
 2132POPC   GL229306  34.578  18.945   8.864
 2132POPC   C1A29307  34.585  19.087   8.564
 2132POPC   D2A29308  34.589  19.060   8.264
 2132POPC   C3A29309  34.552  19.102   7.964
 2132POPC   C4A29310  34.562  19.093   7.664
 2132POPC   C1B29311  34.551  18.793   8.564
 2132POPC   C2B29312  34.538  18.760   8.264
 2132POPC   C3B29313  34.595  18.851   7.964
 2132POPC   C4B29314  34.539  18.835   7.664
 2133POPC   NC329315  29.922  13.662   9.464
 2133POPC   PO429316  29.960  13.604   9.164
 2133POPC   GL129317  29.948  13.627   8.864
 2133POPC   GL229318  29.941  13.455   8.864
 2133POPC   C1A29319  29.957  13.655   8.564
 2133POPC   D2A29320  29.893  13.652   8.264
 2133POPC   C3A29321  29.940  13.646   7.964
 2133POPC   C4A29322  29.955  13.623   7.664
 2133POPC   C1B29323  29.848  13.428   8.564
 2133POPC   C2B29324  29.910  13.365   8.264
 2133POPC   C3B29325  29.923  13.419   7.964
 2133POPC   C4B29326  29.853  13.357   7.664
 2134POPC   NC329327  16.723  41.551   9.464
 2134POPC   PO429328  16.697  41.571   9.164
 2134POPC   GL129329  16.686  41.550   8.864
 2134POPC   GL229330  16.833  41.641   8.864
 2134POPC   C1A29331  16.706  41.527   8.564
 2134POPC   D2A29332  16.753  41.593   8.264
 2134POPC   C3A29333  16.731  41.566   7.964
 2134POPC   C4A29334  16.734  41.593   7.664
 2134POPC   C1B29335  16.912  41.760   8.564
 2134POPC   C2B29336  16.908  41.683   8.264
 2134POPC   C3B29337  16.882  41.717   7.964
 2134POPC   C4B29338  16.967  41.711   7.664
 2135POPC   NC329339   5.909  16.685   9.464
 2135POPC   PO429340   5.822  16.693   9.164
 2135POPC   GL129341   5.918  16.780   8.864
 2135POPC   GL229342   5.751  16.788   8.864
 2135POPC   C1A29343   5.853  16.724   8.564
 2135POPC   D2A29344   5.884  16.701   8.264
 2135POPC   C3A29345   5.872  16.721   7.964
 2135POPC   C4A29346   5.869  16.772   7.664
 2135POPC   C1B29347   5.572  16.740   8.564
 2135POPC   C2B29348   5.590  16.737   8.264
 2135POPC   C3B29349   5.611  16.742   7.964
 2135POPC   C4B29350   5.625  16.713   7.664
 2136POPC   NC329351  44.684   4.343   9.464
 2136POPC   PO429352  44.675   4.311   9.164
 2136POPC   GL129353  44.670   4.352   8.864
 2136POPC   GL229354  44.704   4.214   8.864
 2136POPC   C1A29355  44.623   4.275   8.564
 2136POPC   D2A29356  44.622   4.283   8.264
 2136POPC   C3A29357  44.637   4.322   7.964
 2136POPC   C4A29358  44.690   4.303   7.664
 2136POPC   C1B29359  44.683   4.098   8.564
 2136POPC   C2B29360  44.682   4.074   8.264
 2136POPC   C3B29361  44.610   4.099   7.964
 2136POPC   C4B29362  44.701   4.040   7.664
 2137POPC   NC329363   5.122  27.584   9.464
 2137POPC   PO429364   5.050  27.620   9.164
 2137POPC   GL129365   5.107  27.602   8.864
 2137POPC   GL229366   5.115  27.454   8.864
 2137POPC   C1A29367   5.051  27.623   8.564
 2137POPC   D2A29368   5.137  27.636   8.264
 2137POPC   C3A29369   5.053  27.618   7.964
 2137POPC   C4A29370   5.096  27.582   7.664
 2137POPC   C1B29371   5.093  27.370   8.564
 2137POPC   C2B29372   5.074  27.384   8.264
 2137POPC   C3B29373   5.137  27.293   7.964
 2137POPC   C4B29374   5.073  27.376   7.664
 2138POPC   NC329375  37.729   2.771   9.464
 2138POPC   PO429376  37.664   2.770   9.164
 2138POPC   GL129377  37.708   2.791   8.864
 2138POPC   GL229378  37.622   2.846   8.864
 2138POPC   C1A29379  37.704   2.739   8.564
 2138POPC   D2A29380  37.684   2.770   8.264
 2138POPC   C3A29381  37.637   2.763   7.964
 2138POPC   C4A29382  37.697   2.730   7.664
 2138POPC   C1B29383  37.593   3.015   8.564
 2138POPC   C2B29384  37.605   2.972   8.264
 2138POPC   C3B29385  37.625   3.020   7.964
 2138POPC   C4B29386  37.618   3.036   7.664
 2139POPC   NC329387  29.943  40.812   9.464
 2139POPC   PO429388  29.915  40.775   9.164
 2139POPC   GL129389  29.956  40.807   8.864
 2139POPC   GL229390  29.803  40.764   8.864
 2139POPC   C1A29391  29.956  40.828   8.564
 2139POPC   D2A29392  29.963  40.787   8.264
 2139POPC   C3A29393  29.942  40.792   7.964
 2139POPC   C4A29394  29.888  40.773   7.664
 2139POPC   C1B29395  29.684  40.694   8.564
 2139POPC   C2B29396  29.697  40.737   8.264
 2139POPC   C3B29397  29.699  40.690   7.964
 2139POPC   C4B29398  29.663  40.674   7.664
 2140POPC   NC329399  26.816  30.662   9.464
 2140POPC   PO429400  26.814  30.681   9.164
 2140POPC   GL129401  26.837  30.682   8.864
 2140POPC   GL229402  26.689  30.665   8.864
 2140POPC   C1A29403  26.802  30.742   8.564
 2140POPC   D2A29404  26.835  30.653   8.264
 2140POPC   C3A29405  26.834  30.709   7.964
 2140POPC   C4A29406  26.798  30.719   7.664
 2140POPC   C1B29407  26.583  30.693   8.564
 2140POPC   C2B29408  26.570  30.653   8.264
 2140POPC   C3B29409  26.547  30.690   7.964
 2140POPC   C4B29410  26.555  30.643   7.664
 2141POPC   NC329411   0.463  24.531   9.464
 2141POPC   PO429412   0.417  24.535   9.164
 2141POPC   GL129413   0.433  24.446   8.864
 2141POPC   GL229414   0.342  24.623   8.864
 2141POPC   C1A29415   0.444  24.460   8.564
 2141POPC   D2A29416   0.459  24.473   8.264
 2141POPC   C3A29417   0.411  24.467   7.964
 2141POPC   C4A29418   0.439  24.530   7.664
 2141POPC   C1B29419   0.327  24.680   8.564
 2141POPC   C2B29420   0.313  24.654   8.264
 2141POPC   C3B29421   0.258  24.732   7.964
 2141POPC   C4B29422   0.258  24.719   7.664
 2142POPC   NC329423   7.459  15.982   9.464
 2142POPC   PO429424   7.428  15.926   9.164
 2142POPC   GL129425   7.376  15.983   8.864
 2142POPC   GL229426   7.256  15.963   8.864
 2142POPC   C1A29427   7.406  15.927   8.564
 2142POPC   D2A29428   7.415  15.956   8.264
 2142POPC   C3A29429   7.374  15.925   7.964
 2142POPC   C4A29430   7.400  15.938   7.664
 2142POPC   C1B29431   7.158  16.043   8.564
 2142POPC   C2B29432   7.191  15.997   8.264
 2142POPC   C3B29433   7.167  15.977   7.964
 2142POPC   C4B29434   7.147  16.014   7.664
 2143POPC   NC329435  24.479  40.815   9.464
 2143POPC   PO429436  24.451  40.814   9.164
 2143POPC   GL129437  24.468  40.740   8.864
 2143POPC   GL229438  24.319  40.708   8.864
 2143POPC   C1A29439  24.509  40.801   8.564
 2143POPC   D2A29440  24.466  40.821   8.264
 2143POPC   C3A29441  24.507  40.794   7.964
 2143POPC   C4A29442  24.467  40.832   7.664
 2143POPC   C1B29443  24.248  40.762   8.564
 2143POPC   C2B29444  24.258  40.683   8.264
 2143POPC   C3B29445  24.223  40.729   7.964
 2143POPC   C4B29446  24.281  40.680   7.664
 2144POPC   NC329447  22.920  26.782   9.464
 2144POPC   PO429448  22.935  26.841   9.164
 2144POPC   GL129449  22.977  26.819   8.864
 2144POPC   GL229450  22.830  26.774   8.864
 2144POPC   C1A29451  22.948  26.859   8.564
 2144POPC   D2A29452  22.943  26.799   8.264
 2144POPC   C3A29453  22.938  26.835   7.964
 2144POPC   C4A29454  22.968  26.828   7.664
 2144POPC   C1B29455  22.726  26.708   8.564
 2144POPC   C2B29456  22.750  26.657   8.264
 2144POPC   C3B29457  22.715  26.687   7.964
 2144POPC   C4B29458  22.736  26.638   7.664
 2145POPC   NC329459  33.824  31.455   9.464
 2145POPC   PO429460  33.763  31.446   9.164
 2145POPC   GL129461  33.840  31.516   8.864
 2145POPC   GL229462  33.675  31.347   8.864
 2145POPC   C1A29463  33.821  31.427   8.564
 2145POPC   D2A29464  33.835  31.512   8.264
 2145POPC   C3A29465  33.834  31.443   7.964
 2145POPC   C4A29466  33.845  31.470   7.664
 2145POPC   C1B29467  33.662  31.251   8.564
 2145POPC   C2B29468  33.624  31.303   8.264
 2145POPC   C3B29469  33.671  31.300   7.964
 2145POPC   C4B29470  33.652  31.251   7.664
 2146POPC   NC329471  19.822   4.362   9.464
 2146POPC   PO429472  19.858   4.358   9.164
 2146POPC   GL129473  19.797   4.345   8.864
 2146POPC   GL229474  19.928   4.414   8.864
 2146POPC   C1A29475  19.815   4.326   8.564
 2146POPC   D2A29476  19.874   4.291   8.264
 2146POPC   C3A29477  19.844   4.324   7.964
 2146POPC   C4A29478  19.844   4.330   7.664
 2146POPC   C1B29479  19.973   4.521   8.564
 2146POPC   C2B29480  19.998   4.433   8.264
 2146POPC   C3B29481  20.039   4.459   7.964
 2146POPC   C4B29482  19.981   4.516   7.664
 2147POPC   NC329483   3.529   9.733   9.464
 2147POPC   PO429484   3.504   9.703   9.164
 2147POPC   GL129485   3.532   9.771   8.864
 2147POPC   GL229486   3.550   9.875   8.864
 2147POPC   C1A29487   3.522   9.704   8.564
 2147POPC   D2A29488   3.569   9.774   8.264
 2147POPC   C3A29489   3.505   9.717   7.964
 2147POPC   C4A29490   3.526   9.712   7.664
 2147POPC   C1B29491   3.524  10.032   8.564
 2147POPC   C2B29492   3.496  10.000   8.264
 2147POPC   C3B29493   3.499   9.995   7.964
 2147POPC   C4B29494   3.547   9.972   7.664
 2148POPC   NC329495  16.742  28.349   9.464
 2148POPC   PO429496  16.716  28.388   9.164
 2148POPC   GL129497  16.691  28.326   8.864
 2148POPC   GL229498  16.617  28.246   8.864
 2148POPC   C1A29499  16.735  28.365   8.564
 2148POPC   D2A29500  16.734  28.404   8.264
 2148POPC   C3A29501  16.682  28.363   7.964
 2148POPC   C4A29502  16.740  28.409   7.664
 2148POPC   C1B29503  16.563  28.185   8.564
 2148POPC   C2B29504  16.604  28.204   8.264
 2148POPC   C3B29505  16.546  28.205   7.964
 2148POPC   C4B29506  16.523  28.179   7.664
 2149POPC   NC329507   4.361  19.060   9.464
 2149POPC   PO429508   4.274  19.030   9.164
 2149POPC   GL129509   4.270  19.015   8.864
 2149POPC   GL229510   4.359  19.144   8.864
 2149POPC   C1A29511   4.268  19.032   8.564
 2149POPC   D2A29512   4.343  19.105   8.264
 2149POPC   C3A29513   4.293  19.009   7.964
 2149POPC   C4A29514   4.274  19.082   7.664
 2149POPC   C1B29515   4.500  19.228   8.564
 2149POPC   C2B29516   4.547  19.269   8.264
 2149POPC   C3B29517   4.505  19.253   7.964
 2149POPC   C4B29518   4.486  19.212   7.664
 2150POPC   NC329519  24.470  39.281   9.464
 2150POPC   PO429520  24.512  39.275   9.164
 2150POPC   GL129521  24.503  39.274   8.864
 2150POPC   GL229522  24.410  39.309   8.864
 2150POPC   C1A29523  24.534  39.241   8.564
 2150POPC   D2A29524  24.452  39.195   8.264
 2150POPC   C3A29525  24.520  39.249   7.964
 2150POPC   C4A29526  24.528  39.235   7.664
 2150POPC   C1B29527  24.454  39.507   8.564
 2150POPC   C2B29528  24.453  39.462   8.264
 2150POPC   C3B29529  24.476  39.455   7.964
 2150POPC   C4B29530  24.413  39.513   7.664
 2151POPC   NC329531   2.752   2.743   9.464
 2151POPC   PO429532   2.748   2.756   9.164
 2151POPC   GL129533   2.748   2.780   8.864
 2151POPC   GL229534   2.685   2.747   8.864
 2151POPC   C1A29535   2.756   2.786   8.564
 2151POPC   D2A29536   2.813   2.770   8.264
 2151POPC   C3A29537   2.731   2.804   7.964
 2151POPC   C4A29538   2.741   2.723   7.664
 2151POPC   C1B29539   2.540   2.663   8.564
 2151POPC   C2B29540   2.527   2.670   8.264
 2151POPC   C3B29541   2.515   2.644   7.964
 2151POPC   C4B29542   2.572   2.686   7.664
 2152POPC   NC329543  43.867  41.584   9.464
 2152POPC   PO429544  43.887  41.515   9.164
 2152POPC   GL129545  43.892  41.571   8.864
 2152POPC   GL229546  43.922  41.435   8.864
 2152POPC   C1A29547  43.915  41.608   8.564
 2152POPC   D2A29548  43.875  41.543   8.264
 2152POPC   C3A29549  43.909  41.572   7.964
 2152POPC   C4A29550  43.928  41.520   7.664
 2152POPC   C1B29551  43.933  41.359   8.564
 2152POPC   C2B29552  43.890  41.315   8.264
 2152POPC   C3B29553  43.876  41.271   7.964
 2152POPC   C4B29554  43.950  41.317   7.664
 2153POPC   NC329555  19.858  10.528   9.464
 2153POPC   PO429556  19.852  10.565   9.164
 2153POPC   GL129557  19.883  10.507   8.864
 2153POPC   GL229558  19.894  10.613   8.864
 2153POPC   C1A29559  19.878  10.505   8.564
 2153POPC   D2A29560  19.876  10.530   8.264
 2153POPC   C3A29561  19.823  10.504   7.964
 2153POPC   C4A29562  19.819  10.475   7.664
 2153POPC   C1B29563  20.085  10.705   8.564
 2153POPC   C2B29564  20.007  10.635   8.264
 2153POPC   C3B29565  20.040  10.644   7.964
 2153POPC   C4B29566  20.034  10.640   7.664
 2154POPC   NC329567  30.669   4.324   9.464
 2154POPC   PO429568  30.684   4.312   9.164
 2154POPC   GL129569  30.741   4.302   8.864
 2154POPC   GL229570  30.797   4.271   8.864
 2154POPC   C1A29571  30.712   4.340   8.564
 2154POPC   D2A29572  30.662   4.283   8.264
 2154POPC   C3A29573  30.710   4.282   7.964
 2154POPC   C4A29574  30.721   4.299   7.664
 2154POPC   C1B29575  30.879   4.132   8.564
 2154POPC   C2B29576  30.857   4.171   8.264
 2154POPC   C3B29577  30.940   4.154   7.964
 2154POPC   C4B29578  30.887   4.208   7.664
 2155POPC   NC329579  11.332   0.459   9.464
 2155POPC   PO429580  11.333   0.405   9.164
 2155POPC   GL129581  11.306   0.449   8.864
 2155POPC   GL229582  11.147   0.468   8.864
 2155POPC   C1A29583  11.345   0.416   8.564
 2155POPC   D2A29584  11.252   0.460   8.264
 2155POPC   C3A29585  11.262   0.394   7.964
 2155POPC   C4A29586  11.255   0.460   7.664
 2155POPC   C1B29587  11.124   0.565   8.564
 2155POPC   C2B29588  11.114   0.557   8.264
 2155POPC   C3B29589  11.096   0.568   7.964
 2155POPC   C4B29590  11.044   0.558   7.664
 2156POPC   NC329591   0.447   5.885   9.464
 2156POPC   PO429592   0.419   5.849   9.164
 2156POPC   GL129593   0.477   5.830   8.864
 2156POPC   GL229594   0.388   5.799   8.864
 2156POPC   C1A29595   0.475   5.853   8.564
 2156POPC   D2A29596   0.451   5.847   8.264
 2156POPC   C3A29597   0.399   5.908   7.964
 2156POPC   C4A29598   0.438   5.860   7.664
 2156POPC   C1B29599   0.340   5.632   8.564
 2156POPC   C2B29600   0.377   5.640   8.264
 2156POPC   C3B29601   0.360   5.681   7.964
 2156POPC   C4B29602   0.350   5.607   7.664
 2157POPC   NC329603  33.822   1.221   9.464
 2157POPC   PO429604  33.764   1.194   9.164
 2157POPC   GL129605  33.845   1.187   8.864
 2157POPC   GL229606  33.783   1.339   8.864
 2157POPC   C1A29607  33.797   1.189   8.564
 2157POPC   D2A29608  33.846   1.190   8.264
 2157POPC   C3A29609  33.820   1.230   7.964
 2157POPC   C4A29610  33.818   1.258   7.664
 2157POPC   C1B29611  33.617   1.427   8.564
 2157POPC   C2B29612  33.625   1.423   8.264
 2157POPC   C3B29613  33.667   1.456   7.964
 2157POPC   C4B29614  33.654   1.461   7.664
 2158POPC   NC329615  29.970  42.327   9.464
 2158POPC   PO429616  29.896  42.304   9.164
 2158POPC   GL129617  29.875  42.364   8.864
 2158POPC   GL229618  29.947  42.181   8.864
 2158POPC   C1A29619  29.923  42.343   8.564
 2158POPC   D2A29620  29.879  42.330   8.264
 2158POPC   C3A29621  29.900  42.300   7.964
 2158POPC   C4A29622  29.921  42.292   7.664
 2158POPC   C1B29623  29.971  42.045   8.564
 2158POPC   C2B29624  30.018  42.064   8.264
 2158POPC   C3B29625  29.936  42.093   7.964
 2158POPC   C4B29626  30.021  42.088   7.664
 2159POPC   NC329627  13.617   3.555   9.464
 2159POPC   PO429628  13.630   3.537   9.164
 2159POPC   GL129629  13.595   3.521   8.864
 2159POPC   GL229630  13.470   3.571   8.864
 2159POPC   C1A29631  13.635   3.564   8.564
 2159POPC   D2A29632  13.664   3.566   8.264
 2159POPC   C3A29633  13.650   3.567   7.964
 2159POPC   C4A29634  13.643   3.504   7.664
 2159POPC   C1B29635  13.430   3.594   8.564
 2159POPC   C2B29636  13.385   3.628   8.264
 2159POPC   C3B29637  13.403   3.610   7.964
 2159POPC   C4B29638  13.399   3.571   7.664
 2160POPC   NC329639  43.928  12.059   9.464
 2160POPC   PO429640  43.915  12.028   9.164
 2160POPC   GL129641  43.930  12.093   8.864
 2160POPC   GL229642  44.010  12.031   8.864
 2160POPC   C1A29643  43.903  12.123   8.564
 2160POPC   D2A29644  43.895  12.066   8.264
 2160POPC   C3A29645  43.924  12.096   7.964
 2160POPC   C4A29646  43.853  12.108   7.664
 2160POPC   C1B29647  44.103  11.919   8.564
 2160POPC   C2B29648  44.032  11.960   8.264
 2160POPC   C3B29649  44.117  11.885   7.964
 2160POPC   C4B29650  44.060  11.925   7.664
 2161POPC   NC329651  21.432   7.391   9.464
 2161POPC   PO429652  21.426   7.455   9.164
 2161POPC   GL129653  21.362   7.388   8.864
 2161POPC   GL229654  21.387   7.289   8.864
 2161POPC   C1A29655  21.377   7.379   8.564
 2161POPC   D2A29656  21.408   7.432   8.264
 2161POPC   C3A29657  21.389   7.403   7.964
 2161POPC   C4A29658  21.346   7.398   7.664
 2161POPC   C1B29659  21.451   7.169   8.564
 2161POPC   C2B29660  21.448   7.226   8.264
 2161POPC   C3B29661  21.457   7.233   7.964
 2161POPC   C4B29662  21.452   7.197   7.664
 2162POPC   NC329663   4.361  40.810   9.464
 2162POPC   PO429664   4.321  40.781   9.164
 2162POPC   GL129665   4.352  40.763   8.864
 2162POPC   GL229666   4.248  40.847   8.864
 2162POPC   C1A29667   4.317  40.830   8.564
 2162POPC   D2A29668   4.274  40.815   8.264
 2162POPC   C3A29669   4.292  40.795   7.964
 2162POPC   C4A29670   4.328  40.762   7.664
 2162POPC   C1B29671   4.148  40.950   8.564
 2162POPC   C2B29672   4.208  40.978   8.264
 2162POPC   C3B29673   4.193  41.038   7.964
 2162POPC   C4B29674   4.229  40.986   7.664
 2163POPC   NC329675  20.611  20.612   9.464
 2163POPC   PO429676  20.573  20.575   9.164
 2163POPC   GL129677  20.613  20.610   8.864
 2163POPC   GL229678  20.713  20.501   8.864
 2163POPC   C1A29679  20.641  20.603   8.564
 2163POPC   D2A29680  20.644  20.569   8.264
 2163POPC   C3A29681  20.575  20.575   7.964
 2163POPC   C4A29682  20.590  20.655   7.664
 2163POPC   C1B29683  20.763  20.446   8.564
 2163POPC   C2B29684  20.780  20.440   8.264
 2163POPC   C3B29685  20.761  20.407   7.964
 2163POPC   C4B29686  20.749  20.413   7.664
 2164POPC   NC329687  15.995  21.403   9.464
 2164POPC   PO429688  15.931  21.383   9.164
 2164POPC   GL129689  15.934  21.364   8.864
 2164POPC   GL229690  15.853  21.349   8.864
 2164POPC   C1A29691  15.999  21.431   8.564
 2164POPC   D2A29692  15.941  21.367   8.264
 2164POPC   C3A29693  15.937  21.389   7.964
 2164POPC   C4A29694  15.949  21.428   7.664
 2164POPC   C1B29695  15.702  21.282   8.564
 2164POPC   C2B29696  15.774  21.290   8.264
 2164POPC   C3B29697  15.714  21.260   7.964
 2164POPC   C4B29698  15.724  21.238   7.664
 2165POPC   NC329699  25.258  12.072   9.464
 2165POPC   PO429700  25.223  12.077   9.164
 2165POPC   GL129701  25.278  12.040   8.864
 2165POPC   GL229702  25.295  11.968   8.864
 2165POPC   C1A29703  25.239  12.084   8.564
 2165POPC   D2A29704  25.251  12.081   8.264
 2165POPC   C3A29705  25.244  12.056   7.964
 2165POPC   C4A29706  25.235  12.074   7.664
 2165POPC   C1B29707  25.385  11.824   8.564
 2165POPC   C2B29708  25.328  11.812   8.264
 2165POPC   C3B29709  25.379  11.803   7.964
 2165POPC   C4B29710  25.372  11.881   7.664
 2166POPC   NC329711  15.946  23.725   9.464
 2166POPC   PO429712  15.982  23.759   9.164
 2166POPC   GL129713  15.992  23.713   8.864
 2166POPC   GL229714  16.048  23.801   8.864
 2166POPC   C1A29715  15.926  23.668   8.564
 2166POPC   D2A29716  15.975  23.750   8.264
 2166POPC   C3A29717  15.991  23.733   7.964
 2166POPC   C4A29718  15.921  23.745   7.664
 2166POPC   C1B29719  16.148  23.855   8.564
 2166POPC   C2B29720  16.133  23.855   8.264
 2166POPC   C3B29721  16.167  23.844   7.964
 2166POPC   C4B29722  16.116  23.898   7.664
 2167POPC   NC329723  43.120  22.146   9.464
 2167POPC   PO429724  43.102  22.208   9.164
 2167POPC   GL129725  43.086  22.208   8.864
 2167POPC   GL229726  43.017  22.124   8.864
 2167POPC   C1A29727  43.137  22.123   8.564
 2167POPC   D2A29728  43.103  22.189   8.264
 2167POPC   C3A29729  43.088  22.150   7.964
 2167POPC   C4A29730  43.098  22.156   7.664
 2167POPC   C1B29731  42.883  21.972   8.564
 2167POPC   C2B29732  42.896  21.971   8.264
 2167POPC   C3B29733  42.931  22.005   7.964
 2167POPC   C4B29734  42.956  22.029   7.664
 2168POPC   NC329735   2.775   6.651   9.464
 2168POPC   PO429736   2.790   6.666   9.164
 2168POPC   GL129737   2.775   6.630   8.864
 2168POPC   GL229738   2.604   6.640   8.864
 2168POPC   C1A29739   2.778   6.692   8.564
 2168POPC   D2A29740   2.725   6.599   8.264
 2168POPC   C3A29741   2.767   6.674   7.964
 2168POPC   C4A29742   2.731   6.645   7.664
 2168POPC   C1B29743   2.527   6.638   8.564
 2168POPC   C2B29744   2.537   6.617   8.264
 2168POPC   C3B29745   2.567   6.602   7.964
 2168POPC   C4B29746   2.550   6.633   7.664
 2169POPC   NC329747   1.179  38.413   9.464
 2169POPC   PO429748   1.166  38.490   9.164
 2169POPC   GL129749   1.211  38.499   8.864
 2169POPC   GL229750   1.083  38.509   8.864
 2169POPC   C1A29751   1.167  38.455   8.564
 2169POPC   D2A29752   1.235  38.459   8.264
 2169POPC   C3A29753   1.216  38.410   7.964
 2169POPC   C4A29754   1.188  38.450   7.664
 2169POPC   C1B29755   1.018  38.586   8.564
 2169POPC   C2B29756   1.044  38.601   8.264
 2169POPC   C3B29757   1.055  38.576   7.964
 2169POPC   C4B29758   1.012  38.579   7.664
 2170POPC   NC329759  14.443   3.514   9.464
 2170POPC   PO429760  14.451   3.551   9.164
 2170POPC   GL129761  14.406   3.570   8.864
 2170POPC   GL229762  14.287   3.514   8.864
 2170POPC   C1A29763  14.431   3.521   8.564
 2170POPC   D2A29764  14.412   3.574   8.264
 2170POPC   C3A29765  14.413   3.581   7.964
 2170POPC   C4A29766  14.414   3.566   7.664
 2170POPC   C1B29767  14.180   3.488   8.564
 2170POPC   C2B29768  14.114   3.482   8.264
 2170POPC   C3B29769  14.105   3.559   7.964
 2170POPC   C4B29770  14.151   3.494   7.664
 2171POPC   NC329771   3.502   6.639   9.464
 2171POPC   PO429772   3.531   6.678   9.164
 2171POPC   GL129773   3.535   6.652   8.864
 2171POPC   GL229774   3.569   6.779   8.864
 2171POPC   C1A29775   3.501   6.677   8.564
 2171POPC   D2A29776   3.554   6.666   8.264
 2171POPC   C3A29777   3.567   6.673   7.964
 2171POPC   C4A29778   3.584   6.688   7.664
 2171POPC   C1B29779   3.556   6.894   8.564
 2171POPC   C2B29780   3.500   6.925   8.264
 2171POPC   C3B29781   3.478   6.861   7.964
 2171POPC   C4B29782   3.558   6.893   7.664
 2172POPC   NC329783  16.694  16.683   9.464
 2172POPC   PO429784  16.741  16.733   9.164
 2172POPC   GL129785  16.685  16.763   8.864
 2172POPC   GL229786  16.597  16.775   8.864
 2172POPC   C1A29787  16.773  16.768   8.564
 2172POPC   D2A29788  16.698  16.709   8.264
 2172POPC   C3A29789  16.769  16.727   7.964
 2172POPC   C4A29790  16.729  16.699   7.664
 2172POPC   C1B29791  16.507  16.845   8.564
 2172POPC   C2B29792  16.474  16.816   8.264
 2172POPC   C3B29793  16.536  16.786   7.964
 2172POPC   C4B29794  16.538  16.779   7.664
 2173POPC   NC329795   6.694  22.966   9.464
 2173POPC   PO429796   6.636  22.949   9.164
 2173POPC   GL129797   6.631  22.970   8.864
 2173POPC   GL229798   6.732  22.988   8.864
 2173POPC   C1A29799   6.670  22.987   8.564
 2173POPC   D2A29800   6.666  22.954   8.264
 2173POPC   C3A29801   6.686  22.946   7.964
 2173POPC   C4A29802   6.634  22.930   7.664
 2173POPC   C1B29803   6.835  22.967   8.564
 2173POPC   C2B29804   6.848  23.009   8.264
 2173POPC   C3B29805   6.838  22.997   7.964
 2173POPC   C4B29806   6.897  23.063   7.664
 2174POPC   NC329807  29.150  12.094   9.464
 2174POPC   PO429808  29.167  12.093   9.164
 2174POPC   GL129809  29.136  12.037   8.864
 2174POPC   GL229810  28.989  12.067   8.864
 2174POPC   C1A29811  29.152  12.097   8.564
 2174POPC   D2A29812  29.125  12.097   8.264
 2174POPC   C3A29813  29.180  12.041   7.964
 2174POPC   C4A29814  29.134  12.096   7.664
 2174POPC   C1B29815  28.933  12.159   8.564
 2174POPC   C2B29816  28.944  12.146   8.264
 2174POPC   C3B29817  28.899  12.158   7.964
 2174POPC   C4B29818  28.934  12.100   7.664
 2175POPC   NC329819  16.773  36.894   9.464
 2175POPC   PO429820  16.754  36.900   9.164
 2175POPC   GL129821  16.770  36.908   8.864
 2175POPC   GL229822  16.829  37.009   8.864
 2175POPC   C1A29823  16.689  36.941   8.564
 2175POPC   D2A29824  16.707  36.926   8.264
 2175POPC   C3A29825  16.748  36.883   7.964
 2175POPC   C4A29826  16.773  36.880   7.664
 2175POPC   C1B29827  16.886  37.136   8.564
 2175POPC   C2B29828  16.901  37.129   8.264
 2175POPC   C3B29829  16.857  37.145   7.964
 2175POPC   C4B29830  16.825  37.087   7.664
 2176POPC   NC329831  31.446  31.508   9.464
 2176POPC   PO429832  31.441  31.441   9.164
 2176POPC   GL129833  31.487  31.516   8.864
 2176POPC   GL229834  31.411  31.346   8.864
 2176POPC   C1A29835  31.511  31.517   8.564
 2176POPC   D2A29836  31.497  31.485   8.264
 2176POPC   C3A29837  31.474  31.498   7.964
 2176POPC   C4A29838  31.440  31.460   7.664
 2176POPC   C1B29839  31.326  31.309   8.564
 2176POPC   C2B29840  31.345  31.279   8.264
 2176POPC   C3B29841  31.338  31.306   7.964
 2176POPC   C4B29842  31.319  31.329   7.664
 2177POPC   NC329843  19.803  15.930   9.464
 2177POPC   PO429844  19.800  15.939   9.164
 2177POPC   GL129845  19.871  15.983   8.864
 2177POPC   GL229846  19.796  16.085   8.864
 2177POPC   C1A29847  19.871  15.923   8.564
 2177POPC   D2A29848  19.872  15.946   8.264
 2177POPC   C3A29849  19.827  15.978   7.964
 2177POPC   C4A29850  19.869  15.951   7.664
 2177POPC   C1B29851  19.680  16.122   8.564
 2177POPC   C2B29852  19.675  16.109   8.264
 2177POPC   C3B29853  19.702  16.096   7.964
 2177POPC   C4B29854  19.701  16.166   7.664
 2178POPC   NC329855  36.132   8.160   9.464
 2178POPC   PO429856  36.173   8.153   9.164
 2178POPC   GL129857  36.169   8.232   8.864
 2178POPC   GL229858  36.161   8.333   8.864
 2178POPC   C1A29859  36.144   8.211   8.564
 2178POPC   D2A29860  36.156   8.155   8.264
 2178POPC   C3A29861  36.166   8.214   7.964
 2178POPC   C4A29862  36.120   8.194   7.664
 2178POPC   C1B29863  36.290   8.433   8.564
 2178POPC   C2B29864  36.241   8.369   8.264
 2178POPC   C3B29865  36.274   8.391   7.964
 2178POPC   C4B29866  36.242   8.380   7.664
 2179POPC   NC329867  39.206  19.816   9.464
 2179POPC   PO429868  39.243  19.836   9.164
 2179POPC   GL129869  39.197  19.865   8.864
 2179POPC   GL229870  39.318  19.723   8.864
 2179POPC   C1A29871  39.182  19.838   8.564
 2179POPC   D2A29872  39.264  19.873   8.264
 2179POPC   C3A29873  39.182  19.860   7.964
 2179POPC   C4A29874  39.237  19.816   7.664
 2179POPC   C1B29875  39.369  19.669   8.564
 2179POPC   C2B29876  39.408  19.638   8.264
 2179POPC   C3B29877  39.419  19.630   7.964
 2179POPC   C4B29878  39.435  19.674   7.664
 2180POPC   NC329879   8.934  37.699   9.464
 2180POPC   PO429880   8.972  37.691   9.164
 2180POPC   GL129881   8.937  37.728   8.864
 2180POPC   GL229882   8.956  37.590   8.864
 2180POPC   C1A29883   8.966  37.695   8.564
 2180POPC   D2A29884   8.987  37.698   8.264
 2180POPC   C3A29885   9.004  37.669   7.964
 2180POPC   C4A29886   8.930  37.717   7.664
 2180POPC   C1B29887   9.015  37.473   8.564
 2180POPC   C2B29888   9.020  37.479   8.264
 2180POPC   C3B29889   9.031  37.457   7.964
 2180POPC   C4B29890   9.000  37.422   7.664
 2181POPC   NC329891  42.296  29.952   9.464
 2181POPC   PO429892  42.306  29.906   9.164
 2181POPC   GL129893  42.325  29.922   8.864
 2181POPC   GL229894  42.300  29.999   8.864
 2181POPC   C1A29895  42.322  29.963   8.564
 2181POPC   D2A29896  42.291  29.937   8.264
 2181POPC   C3A29897  42.342  29.908   7.964
 2181POPC   C4A29898  42.370  29.929   7.664
 2181POPC   C1B29899  42.152  30.109   8.564
 2181POPC   C2B29900  42.157  30.083   8.264
 2181POPC   C3B29901  42.123  30.107   7.964
 2181POPC   C4B29902  42.124  30.142   7.664
 2182POPC   NC329903  41.593   5.062   9.464
 2182POPC   PO429904  41.554   5.056   9.164
 2182POPC   GL129905  41.599   5.133   8.864
 2182POPC   GL229906  41.500   5.011   8.864
 2182POPC   C1A29907  41.530   5.064   8.564
 2182POPC   D2A29908  41.531   5.093   8.264
 2182POPC   C3A29909  41.511   5.139   7.964
 2182POPC   C4A29910  41.557   5.124   7.664
 2182POPC   C1B29911  41.495   4.864   8.564
 2182POPC   C2B29912  41.456   4.834   8.264
 2182POPC   C3B29913  41.529   4.838   7.964
 2182POPC   C4B29914  41.529   4.824   7.664
 2183POPC   NC329915  14.449  44.711   9.464
 2183POPC   PO429916  14.442  44.698   9.164
 2183POPC   GL129917  14.419  44.704   8.864
 2183POPC   GL229918  14.268  44.658   8.864
 2183POPC   C1A29919  14.445  44.712   8.564
 2183POPC   D2A29920  14.413  44.682   8.264
 2183POPC   C3A29921  14.439  44.645   7.964
 2183POPC   C4A29922  14.372  44.638   7.664
 2183POPC   C1B29923  14.180  44.573   8.564
 2183POPC   C2B29924  14.123  44.553   8.264
 2183POPC   C3B29925  14.124  44.591   7.964
 2183POPC   C4B29926  14.189  44.616   7.664
 2184POPC   NC329927  43.100   1.992   9.464
 2184POPC   PO429928  43.107   1.957   9.164
 2184POPC   GL129929  43.099   2.005   8.864
 2184POPC   GL229930  43.137   1.847   8.864
 2184POPC   C1A29931  43.112   1.950   8.564
 2184POPC   D2A29932  43.126   1.979   8.264
 2184POPC   C3A29933  43.122   2.018   7.964
 2184POPC   C4A29934  43.111   1.971   7.664
 2184POPC   C1B29935  43.123   1.698   8.564
 2184POPC   C2B29936  43.108   1.767   8.264
 2184POPC   C3B29937  43.138   1.745   7.964
 2184POPC   C4B29938  43.182   1.772   7.664
 2185POPC   NC329939  26.046  30.718   9.464
 2185POPC   PO429940  26.034  30.728   9.164
 2185POPC   GL129941  26.050  30.704   8.864
 2185POPC   GL229942  26.029  30.792   8.864
 2185POPC   C1A29943  26.019  30.689   8.564
 2185POPC   D2A29944  26.066  30.654   8.264
 2185POPC   C3A29945  26.025  30.724   7.964
 2185POPC   C4A29946  26.057  30.746   7.664
 2185POPC   C1B29947  26.039  30.897   8.564
 2185POPC   C2B29948  26.015  30.916   8.264
 2185POPC   C3B29949  26.032  30.930   7.964
 2185POPC   C4B29950  26.109  30.965   7.664
 2186POPC   NC329951  11.295  44.648   9.464
 2186POPC   PO429952  11.305  44.692   9.164
 2186POPC   GL129953  11.335  44.629   8.864
 2186POPC   GL229954  11.391  44.739   8.864
 2186POPC   C1A29955  11.348  44.653   8.564
 2186POPC   D2A29956  11.285  44.652   8.264
 2186POPC   C3A29957  11.316  44.618   7.964
 2186POPC   C4A29958  11.283  44.624   7.664
 2186POPC   C1B29959  11.468  44.895   8.564
 2186POPC   C2B29960  11.448  44.845   8.264
 2186POPC   C3B29961  11.469  44.871   7.964
 2186POPC   C4B29962  11.444  44.905   7.664
 2187POPC   NC329963  34.608  26.786   9.464
 2187POPC   PO429964  34.546  26.813   9.164
 2187POPC   GL129965  34.552  26.841   8.864
 2187POPC   GL229966  34.464  26.669   8.864
 2187POPC   C1A29967  34.577  26.820   8.564
 2187POPC   D2A29968  34.580  26.837   8.264
 2187POPC   C3A29969  34.599  26.782   7.964
 2187POPC   C4A29970  34.613  26.778   7.664
 2187POPC   C1B29971  34.485  26.600   8.564
 2187POPC   C2B29972  34.441  26.589   8.264
 2187POPC   C3B29973  34.462  26.612   7.964
 2187POPC   C4B29974  34.459  26.584   7.664
 2188POPC   NC329975  31.455   2.797   9.464
 2188POPC   PO429976  31.516   2.718   9.164
 2188POPC   GL129977  31.429   2.767   8.864
 2188POPC   GL229978  31.425   2.685   8.864
 2188POPC   C1A29979  31.508   2.719   8.564
 2188POPC   D2A29980  31.518   2.733   8.264
 2188POPC   C3A29981  31.468   2.717   7.964
 2188POPC   C4A29982  31.426   2.723   7.664
 2188POPC   C1B29983  31.257   2.568   8.564
 2188POPC   C2B29984  31.326   2.538   8.264
 2188POPC   C3B29985  31.317   2.549   7.964
 2188POPC   C4B29986  31.343   2.553   7.664
 2189POPC   NC329987  39.212   9.774   9.464
 2189POPC   PO429988  39.250   9.746   9.164
 2189POPC   GL129989  39.281   9.786   8.864
 2189POPC   GL229990  39.060   9.758   8.864
 2189POPC   C1A29991  39.246   9.768   8.564
 2189POPC   D2A29992  39.275   9.785   8.264
 2189POPC   C3A29993  39.195   9.730   7.964
 2189POPC   C4A29994  39.182   9.722   7.664
 2189POPC   C1B29995  38.959   9.835   8.564
 2189POPC   C2B29996  39.029   9.790   8.264
 2189POPC   C3B29997  38.995   9.796   7.964
 2189POPC   C4B29998  39.023   9.765   7.664
 2190POPC   NC329999   5.054  33.848   9.464
 2190POPC   PO430000   5.124  33.847   9.164
 2190POPC   GL130001   5.090  33.776   8.864
 2190POPC   GL230002   5.196  33.804   8.864
 2190POPC   C1A30003   5.097  33.829   8.564
 2190POPC   D2A30004   5.075  33.752   8.264
 2190POPC   C3A30005   5.142  33.807   7.964
 2190POPC   C4A30006   5.086  33.802   7.664
 2190POPC   C1B30007   5.298  33.827   8.564
 2190POPC   C2B30008   5.327  33.814   8.264
 2190POPC   C3B30009   5.311  33.860   7.964
 2190POPC   C4B30010   5.298  33.771   7.664
 2191POPC   NC330011   2.782  33.846   9.464
 2191POPC   PO430012   2.755  33.810   9.164
 2191POPC   GL130013   2.737  33.786   8.864
 2191POPC   GL230014   2.816  33.753   8.864
 2191POPC   C1A30015   2.775  33.774   8.564
 2191POPC   D2A30016   2.803  33.836   8.264
 2191POPC   C3A30017   2.796  33.835   7.964
 2191POPC   C4A30018   2.763  33.808   7.664
 2191POPC   C1B30019   2.969  33.597   8.564
 2191POPC   C2B30020   2.928  33.586   8.264
 2191POPC   C3B30021   2.935  33.672   7.964
 2191POPC   C4B30022   2.939  33.594   7.664
 2192POPC   NC330023  12.822  28.407   9.464
 2192POPC   PO430024  12.865  28.359   9.164
 2192POPC   GL130025  12.859  28.345   8.864
 2192POPC   GL230026  12.738  28.450   8.864
 2192POPC   C1A30027  12.855  28.418   8.564
 2192POPC   D2A30028  12.825  28.414   8.264
 2192POPC   C3A30029  12.831  28.336   7.964
 2192POPC   C4A30030  12.804  28.418   7.664
 2192POPC   C1B30031  12.647  28.498   8.564
 2192POPC   C2B30032  12.623  28.503   8.264
 2192POPC   C3B30033  12.655  28.568   7.964
 2192POPC   C4B30034  12.695  28.554   7.664
 2193POPC   NC330035  40.823  38.461   9.464
 2193POPC   PO430036  40.791  38.470   9.164
 2193POPC   GL130037  40.778  38.443   8.864
 2193POPC   GL230038  40.786  38.375   8.864
 2193POPC   C1A30039  40.768  38.414   8.564
 2193POPC   D2A30040  40.744  38.439   8.264
 2193POPC   C3A30041  40.803  38.502   7.964
 2193POPC   C4A30042  40.741  38.438   7.664
 2193POPC   C1B30043  40.889  38.233   8.564
 2193POPC   C2B30044  40.842  38.212   8.264
 2193POPC   C3B30045  40.885  38.223   7.964
 2193POPC   C4B30046  40.816  38.193   7.664
 2194POPC   NC330047  25.270  25.285   9.464
 2194POPC   PO430048  25.262  25.314   9.164
 2194POPC   GL130049  25.218  25.297   8.864
 2194POPC   GL230050  25.111  25.176   8.864
 2194POPC   C1A30051  25.296  25.299   8.564
 2194POPC   D2A30052  25.250  25.260   8.264
 2194POPC   C3A30053  25.217  25.288   7.964
 2194POPC   C4A30054  25.224  25.275   7.664
 2194POPC   C1B30055  25.072  25.132   8.564
 2194POPC   C2B30056  25.085  25.151   8.264
 2194POPC   C3B30057  25.071  25.157   7.964
 2194POPC   C4B30058  25.086  25.095   7.664
 2195POPC   NC330059  25.284  22.173   9.464
 2195POPC   PO430060  25.262  22.209   9.164
 2195POPC   GL130061  25.305  22.197   8.864
 2195POPC   GL230062  25.395  22.127   8.864
 2195POPC   C1A30063  25.248  22.125   8.564
 2195POPC   D2A30064  25.249  22.152   8.264
 2195POPC   C3A30065  25.223  22.161   7.964
 2195POPC   C4A30066  25.268  22.167   7.664
 2195POPC   C1B30067  25.455  21.992   8.564
 2195POPC   C2B30068  25.473  22.028   8.264
 2195POPC   C3B30069  25.469  21.966   7.964
 2195POPC   C4B30070  25.450  22.011   7.664
 2196POPC   NC330071  29.961  29.880   9.464
 2196POPC   PO430072  29.892  29.901   9.164
 2196POPC   GL130073  29.874  29.941   8.864
 2196POPC   GL230074  29.838  29.922   8.864
 2196POPC   C1A30075  29.955  29.964   8.564
 2196POPC   D2A30076  29.885  29.968   8.264
 2196POPC   C3A30077  29.922  29.896   7.964
 2196POPC   C4A30078  29.916  29.878   7.664
 2196POPC   C1B30079  29.636  29.847   8.564
 2196POPC   C2B30080  29.637  29.936   8.264
 2196POPC   C3B30081  29.697  29.871   7.964
 2196POPC   C4B30082  29.708  29.847   7.664
 2197POPC   NC330083  36.146   0.454   9.464
 2197POPC   PO430084  36.164   0.461   9.164
 2197POPC   GL130085  36.101   0.402   8.864
 2197POPC   GL230086  36.234   0.532   8.864
 2197POPC   C1A30087  36.163   0.422   8.564
 2197POPC   D2A30088  36.141   0.423   8.264
 2197POPC   C3A30089  36.078   0.422   7.964
 2197POPC   C4A30090  36.087   0.456   7.664
 2197POPC   C1B30091  36.327   0.600   8.564
 2197POPC   C2B30092  36.257   0.588   8.264
 2197POPC   C3B30093  36.285   0.672   7.964
 2197POPC   C4B30094  36.282   0.588   7.664
 2198POPC   NC330095  20.620  43.859   9.464
 2198POPC   PO430096  20.615  43.924   9.164
 2198POPC   GL130097  20.584  43.855   8.864
 2198POPC   GL230098  20.618  43.807   8.864
 2198POPC   C1A30099  20.640  43.932   8.564
 2198POPC   D2A30100  20.567  43.901   8.264
 2198POPC   C3A30101  20.659  43.917   7.964
 2198POPC   C4A30102  20.575  43.879   7.664
 2198POPC   C1B30103  20.714  43.629   8.564
 2198POPC   C2B30104  20.697  43.627   8.264
 2198POPC   C3B30105  20.740  43.666   7.964
 2198POPC   C4B30106  20.710  43.663   7.664
 2199POPC   NC330107  36.914  19.044   9.464
 2199POPC   PO430108  36.900  19.039   9.164
 2199POPC   GL130109  36.937  19.088   8.864
 2199POPC   GL230110  36.805  18.973   8.864
 2199POPC   C1A30111  36.855  19.082   8.564
 2199POPC   D2A30112  36.950  19.031   8.264
 2199POPC   C3A30113  36.863  19.103   7.964
 2199POPC   C4A30114  36.873  19.055   7.664
 2199POPC   C1B30115  36.829  18.831   8.564
 2199POPC   C2B30116  36.845  18.837   8.264
 2199POPC   C3B30117  36.758  18.793   7.964
 2199POPC   C4B30118  36.838  18.827   7.664
 2200POPC   NC330119  34.535   5.832   9.464
 2200POPC   PO430120  34.616   5.872   9.164
 2200POPC   GL130121  34.543   5.834   8.864
 2200POPC   GL230122  34.473   5.927   8.864
 2200POPC   C1A30123  34.587   5.867   8.564
 2200POPC   D2A30124  34.603   5.899   8.264
 2200POPC   C3A30125  34.622   5.839   7.964
 2200POPC   C4A30126  34.578   5.877   7.664
 2200POPC   C1B30127  34.382   6.064   8.564
 2200POPC   C2B30128  34.369   6.070   8.264
 2200POPC   C3B30129  34.432   6.053   7.964
 2200POPC   C4B30130  34.434   6.047   7.664
 2201POPC   NC330131  18.253  12.079   9.464
 2201POPC   PO430132  18.262  12.122   9.164
 2201POPC   GL130133  18.246  12.043   8.864
 2201POPC   GL230134  18.305  11.964   8.864
 2201POPC   C1A30135  18.258  12.102   8.564
 2201POPC   D2A30136  18.251  12.107   8.264
 2201POPC   C3A30137  18.256  12.089   7.964
 2201POPC   C4A30138  18.293  12.120   7.664
 2201POPC   C1B30139  18.376  11.868   8.564
 2201POPC   C2B30140  18.299  11.787   8.264
 2201POPC   C3B30141  18.298  11.832   7.964
 2201POPC   C4B30142  18.390  11.783   7.664
 2202POPC   NC330143  27.624   3.591   9.464
 2202POPC   PO430144  27.570   3.581   9.164
 2202POPC   GL130145  27.605   3.559   8.864
 2202POPC   GL230146  27.496   3.491   8.864
 2202POPC   C1A30147  27.618   3.506   8.564
 2202POPC   D2A30148  27.606   3.579   8.264
 2202POPC   C3A30149  27.597   3.537   7.964
 2202POPC   C4A30150  27.605   3.515   7.664
 2202POPC   C1B30151  27.388   3.322   8.564
 2202POPC   C2B30152  27.437   3.413   8.264
 2202POPC   C3B30153  27.458   3.373   7.964
 2202POPC   C4B30154  27.437   3.366   7.664
 2203POPC   NC330155  33.780  10.543   9.464
 2203POPC   PO430156  33.795  10.502   9.164
 2203POPC   GL130157  33.825  10.496   8.864
 2203POPC   GL230158  33.785  10.597   8.864
 2203POPC   C1A30159  33.825  10.538   8.564
 2203POPC   D2A30160  33.755  10.517   8.264
 2203POPC   C3A30161  33.837  10.508   7.964
 2203POPC   C4A30162  33.831  10.535   7.664
 2203POPC   C1B30163  33.766  10.735   8.564
 2203POPC   C2B30164  33.759  10.754   8.264
 2203POPC   C3B30165  33.728  10.753   7.964
 2203POPC   C4B30166  33.723  10.715   7.664
 2204POPC   NC330167  19.811   5.098   9.464
 2204POPC   PO430168  19.866   5.103   9.164
 2204POPC   GL130169  19.871   5.096   8.864
 2204POPC   GL230170  19.726   5.125   8.864
 2204POPC   C1A30171  19.873   5.097   8.564
 2204POPC   D2A30172  19.826   5.097   8.264
 2204POPC   C3A30173  19.787   5.092   7.964
 2204POPC   C4A30174  19.827   5.072   7.664
 2204POPC   C1B30175  19.562   5.153   8.564
 2204POPC   C2B30176  19.576   5.172   8.264
 2204POPC   C3B30177  19.641   5.152   7.964
 2204POPC   C4B30178  19.634   5.221   7.664
 2205POPC   NC330179  40.797  39.999   9.464
 2205POPC   PO430180  40.763  40.037   9.164
 2205POPC   GL130181  40.734  39.997   8.864
 2205POPC   GL230182  40.699  40.092   8.864
 2205POPC   C1A30183  40.743  39.965   8.564
 2205POPC   D2A30184  40.807  39.988   8.264
 2205POPC   C3A30185  40.791  39.985   7.964
 2205POPC   C4A30186  40.780  40.021   7.664
 2205POPC   C1B30187  40.594  40.063   8.564
 2205POPC   C2B30188  40.591  40.133   8.264
 2205POPC   C3B30189  40.584  40.067   7.964
 2205POPC   C4B30190  40.572  40.048   7.664
 2206POPC   NC330191  25.251   5.109   9.464
 2206POPC   PO430192  25.266   5.143   9.164
 2206POPC   GL130193  25.265   5.052   8.864
 2206POPC   GL230194  25.376   5.034   8.864
 2206POPC   C1A30195  25.229   5.071   8.564
 2206POPC   D2A30196  25.283   5.140   8.264
 2206POPC   C3A30197  25.238   5.066   7.964
 2206POPC   C4A30198  25.288   5.070   7.664
 2206POPC   C1B30199  25.397   4.875   8.564
 2206POPC   C2B30200  25.421   4.872   8.264
 2206POPC   C3B30201  25.371   4.864   7.964
 2206POPC   C4B30202  25.421   4.865   7.664
 2207POPC   NC330203   6.663  25.246   9.464
 2207POPC   PO430204   6.640  25.299   9.164
 2207POPC   GL130205   6.660  25.306   8.864
 2207POPC   GL230206   6.710  25.181   8.864
 2207POPC   C1A30207   6.638  25.249   8.564
 2207POPC   D2A30208   6.687  25.261   8.264
 2207POPC   C3A30209   6.687  25.274   7.964
 2207POPC   C4A30210   6.652  25.306   7.664
 2207POPC   C1B30211   6.868  25.107   8.564
 2207POPC   C2B30212   6.820  25.156   8.264
 2207POPC   C3B30213   6.885  25.087   7.964
 2207POPC   C4B30214   6.843  25.125   7.664
 2208POPC   NC330215   3.589  15.173   9.464
 2208POPC   PO430216   3.516  15.226   9.164
 2208POPC   GL130217   3.588  15.205   8.864
 2208POPC   GL230218   3.595  15.023   8.864
 2208POPC   C1A30219   3.572  15.205   8.564
 2208POPC   D2A30220   3.589  15.176   8.264
 2208POPC   C3A30221   3.505  15.155   7.964
 2208POPC   C4A30222   3.554  15.199   7.664
 2208POPC   C1B30223   3.601  14.969   8.564
 2208POPC   C2B30224   3.615  14.910   8.264
 2208POPC   C3B30225   3.620  14.985   7.964
 2208POPC   C4B30226   3.693  14.967   7.664
 2209POPC   NC330227  15.226   1.990   9.464
 2209POPC   PO430228  15.131   1.966   9.164
 2209POPC   GL130229  15.169   1.964   8.864
 2209POPC   GL230230  15.218   2.115   8.864
 2209POPC   C1A30231  15.176   1.965   8.564
 2209POPC   D2A30232  15.150   1.950   8.264
 2209POPC   C3A30233  15.180   1.948   7.964
 2209POPC   C4A30234  15.155   1.959   7.664
 2209POPC   C1B30235  15.244   2.239   8.564
 2209POPC   C2B30236  15.252   2.227   8.264
 2209POPC   C3B30237  15.215   2.196   7.964
 2209POPC   C4B30238  15.260   2.273   7.664
 2210POPC   NC330239  40.734  26.038   9.464
 2210POPC   PO430240  40.808  26.081   9.164
 2210POPC   GL130241  40.749  26.024   8.864
 2210POPC   GL230242  40.815  25.901   8.864
 2210POPC   C1A30243  40.798  26.062   8.564
 2210POPC   D2A30244  40.758  26.005   8.264
 2210POPC   C3A30245  40.799  26.056   7.964
 2210POPC   C4A30246  40.816  25.994   7.664
 2210POPC   C1B30247  40.721  25.778   8.564
 2210POPC   C2B30248  40.749  25.797   8.264
 2210POPC   C3B30249  40.755  25.826   7.964
 2210POPC   C4B30250  40.784  25.765   7.664
 2211POPC   NC330251  28.386  33.829   9.464
 2211POPC   PO430252  28.409  33.779   9.164
 2211POPC   GL130253  28.390  33.839   8.864
 2211POPC   GL230254  28.407  33.680   8.864
 2211POPC   C1A30255  28.349  33.803   8.564
 2211POPC   D2A30256  28.392  33.835   8.264
 2211POPC   C3A30257  28.383  33.814   7.964
 2211POPC   C4A30258  28.340  33.843   7.664
 2211POPC   C1B30259  28.417  33.586   8.564
 2211POPC   C2B30260  28.364  33.598   8.264
 2211POPC   C3B30261  28.432  33.588   7.964
 2211POPC   C4B30262  28.369  33.522   7.664
 2212POPC   NC330263  31.443  15.180   9.464
 2212POPC   PO430264  31.491  15.167   9.164
 2212POPC   GL130265  31.497  15.145   8.864
 2212POPC   GL230266  31.560  15.276   8.864
 2212POPC   C1A30267  31.451  15.217   8.564
 2212POPC   D2A30268  31.472  15.186   8.264
 2212POPC   C3A30269  31.441  15.148   7.964
 2212POPC   C4A30270  31.479  15.131   7.664
 2212POPC   C1B30271  31.671  15.352   8.564
 2212POPC   C2B30272  31.678  15.344   8.264
 2212POPC   C3B30273  31.682  15.323   7.964
 2212POPC   C4B30274  31.645  15.310   7.664
 2213POPC   NC330275  12.101  32.220   9.464
 2213POPC   PO430276  12.119  32.204   9.164
 2213POPC   GL130277  12.091  32.241   8.864
 2213POPC   GL230278  12.026  32.144   8.864
 2213POPC   C1A30279  12.116  32.272   8.564
 2213POPC   D2A30280  12.034  32.284   8.264
 2213POPC   C3A30281  12.079  32.224   7.964
 2213POPC   C4A30282  12.031  32.264   7.664
 2213POPC   C1B30283  12.061  31.974   8.564
 2213POPC   C2B30284  12.089  31.960   8.264
 2213POPC   C3B30285  12.066  32.010   7.964
 2213POPC   C4B30286  12.055  32.001   7.664
 2214POPC   NC330287  10.541  14.453   9.464
 2214POPC   PO430288  10.572  14.450   9.164
 2214POPC   GL130289  10.557  14.427   8.864
 2214POPC   GL230290  10.492  14.248   8.864
 2214POPC   C1A30291  10.562  14.439   8.564
 2214POPC   D2A30292  10.570  14.426   8.264
 2214POPC   C3A30293  10.555  14.449   7.964
 2214POPC   C4A30294  10.489  14.397   7.664
 2214POPC   C1B30295  10.485  14.153   8.564
 2214POPC   C2B30296  10.413  14.143   8.264
 2214POPC   C3B30297  10.472  14.205   7.964
 2214POPC   C4B30298  10.445  14.191   7.664
 2215POPC   NC330299  16.702   5.886   9.464
 2215POPC   PO430300  16.740   5.826   9.164
 2215POPC   GL130301  16.750   5.867   8.864
 2215POPC   GL230302  16.794   5.727   8.864
 2215POPC   C1A30303  16.715   5.845   8.564
 2215POPC   D2A30304  16.690   5.834   8.264
 2215POPC   C3A30305  16.704   5.821   7.964
 2215POPC   C4A30306  16.736   5.851   7.664
 2215POPC   C1B30307  16.781   5.643   8.564
 2215POPC   C2B30308  16.760   5.632   8.264
 2215POPC   C3B30309  16.800   5.630   7.964
 2215POPC   C4B30310  16.747   5.660   7.664
 2216POPC   NC330311   1.948  13.618   9.464
 2216POPC   PO430312   1.996  13.612   9.164
 2216POPC   GL130313   1.983  13.634   8.864
 2216POPC   GL230314   2.138  13.625   8.864
 2216POPC   C1A30315   2.003  13.590   8.564
 2216POPC   D2A30316   2.029  13.655   8.264
 2216POPC   C3A30317   2.003  13.588   7.964
 2216POPC   C4A30318   2.015  13.651   7.664
 2216POPC   C1B30319   2.190  13.566   8.564
 2216POPC   C2B30320   2.247  13.610   8.264
 2216POPC   C3B30321   2.283  13.549   7.964
 2216POPC   C4B30322   2.276  13.574   7.664
 2217POPC   NC330323  14.382  19.101   9.464
 2217POPC   PO430324  14.377  19.040   9.164
 2217POPC   GL130325  14.358  19.068   8.864
 2217POPC   GL230326  14.334  19.143   8.864
 2217POPC   C1A30327  14.439  19.080   8.564
 2217POPC   D2A30328  14.424  19.026   8.264
 2217POPC   C3A30329  14.389  19.066   7.964
 2217POPC   C4A30330  14.407  19.031   7.664
 2217POPC   C1B30331  14.335  19.275   8.564
 2217POPC   C2B30332  14.294  19.345   8.264
 2217POPC   C3B30333  14.334  19.264   7.964
 2217POPC   C4B30334  14.319  19.346   7.664
 2218POPC   NC330335   8.937  33.842   9.464
 2218POPC   PO430336   8.957  33.764   9.164
 2218POPC   GL130337   8.943  33.780   8.864
 2218POPC   GL230338   8.879  33.865   8.864
 2218POPC   C1A30339   9.010  33.776   8.564
 2218POPC   D2A30340   8.936  33.805   8.264
 2218POPC   C3A30341   8.952  33.820   7.964
 2218POPC   C4A30342   8.958  33.794   7.664
 2218POPC   C1B30343   8.739  33.887   8.564
 2218POPC   C2B30344   8.761  33.836   8.264
 2218POPC   C3B30345   8.719  33.821   7.964
 2218POPC   C4B30346   8.713  33.885   7.664
 2219POPC   NC330347  30.669  21.412   9.464
 2219POPC   PO430348  30.699  21.396   9.164
 2219POPC   GL130349  30.676  21.413   8.864
 2219POPC   GL230350  30.538  21.400   8.864
 2219POPC   C1A30351  30.656  21.349   8.564
 2219POPC   D2A30352  30.744  21.379   8.264
 2219POPC   C3A30353  30.695  21.381   7.964
 2219POPC   C4A30354  30.692  21.339   7.664
 2219POPC   C1B30355  30.492  21.389   8.564
 2219POPC   C2B30356  30.501  21.393   8.264
 2219POPC   C3B30357  30.499  21.391   7.964
 2219POPC   C4B30358  30.419  21.387   7.664
 2220POPC   NC330359  18.324  27.583   9.464
 2220POPC   PO430360  18.245  27.629   9.164
 2220POPC   GL130361  18.234  27.554   8.864
 2220POPC   GL230362  18.345  27.612   8.864
 2220POPC   C1A30363  18.300  27.543   8.564
 2220POPC   D2A30364  18.330  27.583   8.264
 2220POPC   C3A30365  18.305  27.591   7.964
 2220POPC   C4A30366  18.312  27.580   7.664
 2220POPC   C1B30367  18.474  27.720   8.564
 2220POPC   C2B30368  18.502  27.661   8.264
 2220POPC   C3B30369  18.522  27.659   7.964
 2220POPC   C4B30370  18.466  27.724   7.664
 2221POPC   NC330371   7.373   3.508   9.464
 2221POPC   PO430372   7.412   3.540   9.164
 2221POPC   GL130373   7.378   3.503   8.864
 2221POPC   GL230374   7.332   3.601   8.864
 2221POPC   C1A30375   7.422   3.590   8.564
 2221POPC   D2A30376   7.387   3.508   8.264
 2221POPC   C3A30377   7.414   3.508   7.964
 2221POPC   C4A30378   7.445   3.587   7.664
 2221POPC   C1B30379   7.253   3.787   8.564
 2221POPC   C2B30380   7.268   3.719   8.264
 2221POPC   C3B30381   7.304   3.730   7.964
 2221POPC   C4B30382   7.229   3.701   7.664
 2222POPC   NC330383  22.114  15.995   9.464
 2222POPC   PO430384  22.172  15.950   9.164
 2222POPC   GL130385  22.124  15.953   8.864
 2222POPC   GL230386  22.096  16.094   8.864
 2222POPC   C1A30387  22.181  15.964   8.564
 2222POPC   D2A30388  22.164  15.997   8.264
 2222POPC   C3A30389  22.166  15.958   7.964
 2222POPC   C4A30390  22.136  15.932   7.664
 2222POPC   C1B30391  22.135  16.183   8.564
 2222POPC   C2B30392  22.058  16.230   8.264
 2222POPC   C3B30393  22.082  16.216   7.964
 2222POPC   C4B30394  22.113  16.209   7.664
 2223POPC   NC330395   2.779  29.148   9.464
 2223POPC   PO430396   2.733  29.164   9.164
 2223POPC   GL130397   2.807  29.153   8.864
 2223POPC   GL230398   2.703  29.128   8.864
 2223POPC   C1A30399   2.788  29.144   8.564
 2223POPC   D2A30400   2.756  29.142   8.264
 2223POPC   C3A30401   2.806  29.110   7.964
 2223POPC   C4A30402   2.754  29.114   7.664
 2223POPC   C1B30403   2.594  28.997   8.564
 2223POPC   C2B30404   2.516  29.061   8.264
 2223POPC   C3B30405   2.589  29.027   7.964
 2223POPC   C4B30406   2.539  28.982   7.664
 2224POPC   NC330407  24.533   5.130   9.464
 2224POPC   PO430408  24.529   5.111   9.164
 2224POPC   GL130409  24.463   5.096   8.864
 2224POPC   GL230410  24.586   5.183   8.864
 2224POPC   C1A30411  24.492   5.077   8.564
 2224POPC   D2A30412  24.469   5.068   8.264
 2224POPC   C3A30413  24.462   5.093   7.964
 2224POPC   C4A30414  24.504   5.114   7.664
 2224POPC   C1B30415  24.634   5.226   8.564
 2224POPC   C2B30416  24.613   5.303   8.264
 2224POPC   C3B30417  24.710   5.229   7.964
 2224POPC   C4B30418  24.644   5.304   7.664
 2225POPC   NC330419  18.247   0.450   9.464
 2225POPC   PO430420  18.233   0.462   9.164
 2225POPC   GL130421  18.259   0.418   8.864
 2225POPC   GL230422  18.309   0.327   8.864
 2225POPC   C1A30423  18.273   0.485   8.564
 2225POPC   D2A30424  18.288   0.406   8.264
 2225POPC   C3A30425  18.316   0.398   7.964
 2225POPC   C4A30426  18.319   0.395   7.664
 2225POPC   C1B30427  18.265   0.222   8.564
 2225POPC   C2B30428  18.245   0.182   8.264
 2225POPC   C3B30429  18.251   0.153   7.964
 2225POPC   C4B30430  18.310   0.209   7.664
 2226POPC   NC330431   5.827  15.220   9.464
 2226POPC   PO430432   5.882  15.132   9.164
 2226POPC   GL130433   5.908  15.168   8.864
 2226POPC   GL230434   5.769  15.090   8.864
 2226POPC   C1A30435   5.902  15.192   8.564
 2226POPC   D2A30436   5.831  15.152   8.264
 2226POPC   C3A30437   5.918  15.138   7.964
 2226POPC   C4A30438   5.828  15.138   7.664
 2226POPC   C1B30439   5.672  15.019   8.564
 2226POPC   C2B30440   5.642  14.982   8.264
 2226POPC   C3B30441   5.735  14.999   7.964
 2226POPC   C4B30442   5.683  14.979   7.664
 2227POPC   NC330443  22.912  13.667   9.464
 2227POPC   PO430444  22.960  13.592   9.164
 2227POPC   GL130445  22.977  13.601   8.864
 2227POPC   GL230446  22.789  13.549   8.864
 2227POPC   C1A30447  22.891  13.660   8.564
 2227POPC   D2A30448  22.943  13.591   8.264
 2227POPC   C3A30449  22.976  13.632   7.964
 2227POPC   C4A30450  22.966  13.620   7.664
 2227POPC   C1B30451  22.695  13.452   8.564
 2227POPC   C2B30452  22.721  13.500   8.264
 2227POPC   C3B30453  22.717  13.484   7.964
 2227POPC   C4B30454  22.754  13.541   7.664
 2228POPC   NC330455   3.565  33.843   9.464
 2228POPC   PO430456   3.559  33.758   9.164
 2228POPC   GL130457   3.523  33.782   8.864
 2228POPC   GL230458   3.604  33.911   8.864
 2228POPC   C1A30459   3.588  33.799   8.564
 2228POPC   D2A30460   3.502  33.754   8.264
 2228POPC   C3A30461   3.534  33.757   7.964
 2228POPC   C4A30462   3.529  33.824   7.664
 2228POPC   C1B30463   3.681  34.016   8.564
 2228POPC   C2B30464   3.754  33.993   8.264
 2228POPC   C3B30465   3.688  33.984   7.964
 2228POPC   C4B30466   3.755  33.983   7.664
 2229POPC   NC330467  42.382  16.778   9.464
 2229POPC   PO430468  42.336  16.713   9.164
 2229POPC   GL130469  42.340  16.694   8.864
 2229POPC   GL230470  42.474  16.766   8.864
 2229POPC   C1A30471  42.293  16.742   8.564
 2229POPC   D2A30472  42.285  16.690   8.264
 2229POPC   C3A30473  42.371  16.691   7.964
 2229POPC   C4A30474  42.287  16.703   7.664
 2229POPC   C1B30475  42.588  16.836   8.564
 2229POPC   C2B30476  42.549  16.908   8.264
 2229POPC   C3B30477  42.514  16.867   7.964
 2229POPC   C4B30478  42.515  16.818   7.664
 2230POPC   NC330479   5.140   6.636   9.464
 2230POPC   PO430480   5.081   6.647   9.164
 2230POPC   GL130481   5.108   6.689   8.864
 2230POPC   GL230482   4.946   6.716   8.864
 2230POPC   C1A30483   5.138   6.673   8.564
 2230POPC   D2A30484   5.107   6.669   8.264
 2230POPC   C3A30485   5.084   6.660   7.964
 2230POPC   C4A30486   5.104   6.648   7.664
 2230POPC   C1B30487   4.851   6.737   8.564
 2230POPC   C2B30488   4.892   6.721   8.264
 2230POPC   C3B30489   4.838   6.697   7.964
 2230POPC   C4B30490   4.898   6.744   7.664
 2231POPC   NC330491  28.355  24.472   9.464
 2231POPC   PO430492  28.332  24.448   9.164
 2231POPC   GL130493  28.402  24.490   8.864
 2231POPC   GL230494  28.421  24.615   8.864
 2231POPC   C1A30495  28.364  24.441   8.564
 2231POPC   D2A30496  28.382  24.497   8.264
 2231POPC   C3A30497  28.337  24.451   7.964
 2231POPC   C4A30498  28.333  24.446   7.664
 2231POPC   C1B30499  28.412  24.702   8.564
 2231POPC   C2B30500  28.468  24.756   8.264
 2231POPC   C3B30501  28.469  24.682   7.964
 2231POPC   C4B30502  28.399  24.683   7.664
 2232POPC   NC330503  27.594  40.783   9.464
 2232POPC   PO430504  27.629  40.800   9.164
 2232POPC   GL130505  27.554  40.792   8.864
 2232POPC   GL230506  27.541  40.653   8.864
 2232POPC   C1A30507  27.625  40.749   8.564
 2232POPC   D2A30508  27.616  40.764   8.264
 2232POPC   C3A30509  27.626  40.812   7.964
 2232POPC   C4A30510  27.620  40.793   7.664
 2232POPC   C1B30511  27.429  40.555   8.564
 2232POPC   C2B30512  27.430  40.613   8.264
 2232POPC   C3B30513  27.489  40.523   7.964
 2232POPC   C4B30514  27.501  40.616   7.664
 2233POPC   NC330515  24.496  25.247   9.464
 2233POPC   PO430516  24.524  25.291   9.164
 2233POPC   GL130517  24.443  25.278   8.864
 2233POPC   GL230518  24.478  25.364   8.864
 2233POPC   C1A30519  24.464  25.307   8.564
 2233POPC   D2A30520  24.501  25.291   8.264
 2233POPC   C3A30521  24.493  25.267   7.964
 2233POPC   C4A30522  24.478  25.273   7.664
 2233POPC   C1B30523  24.396  25.456   8.564
 2233POPC   C2B30524  24.386  25.478   8.264
 2233POPC   C3B30525  24.419  25.490   7.964
 2233POPC   C4B30526  24.406  25.480   7.664
 2234POPC   NC330527  19.101  11.324   9.464
 2234POPC   PO430528  19.076  11.323   9.164
 2234POPC   GL130529  19.084  11.310   8.864
 2234POPC   GL230530  18.970  11.292   8.864
 2234POPC   C1A30531  19.063  11.307   8.564
 2234POPC   D2A30532  19.009  11.332   8.264
 2234POPC   C3A30533  19.009  11.258   7.964
 2234POPC   C4A30534  19.050  11.323   7.664
 2234POPC   C1B30535  18.777  11.251   8.564
 2234POPC   C2B30536  18.847  11.247   8.264
 2234POPC   C3B30537  18.794  11.177   7.964
 2234POPC   C4B30538  18.865  11.207   7.664
 2235POPC   NC330539  38.496  21.340   9.464
 2235POPC   PO430540  38.413  21.401   9.164
 2235POPC   GL130541  38.505  21.338   8.864
 2235POPC   GL230542  38.594  21.275   8.864
 2235POPC   C1A30543  38.423  21.341   8.564
 2235POPC   D2A30544  38.453  21.386   8.264
 2235POPC   C3A30545  38.409  21.399   7.964
 2235POPC   C4A30546  38.406  21.407   7.664
 2235POPC   C1B30547  38.647  21.204   8.564
 2235POPC   C2B30548  38.689  21.260   8.264
 2235POPC   C3B30549  38.607  21.213   7.964
 2235POPC   C4B30550  38.653  21.181   7.664
 2236POPC   NC330551   8.199  18.282   9.464
 2236POPC   PO430552   8.152  18.235   9.164
 2236POPC   GL130553   8.174  18.257   8.864
 2236POPC   GL230554   8.127  18.192   8.864
 2236POPC   C1A30555   8.237  18.313   8.564
 2236POPC   D2A30556   8.236  18.305   8.264
 2236POPC   C3A30557   8.225  18.291   7.964
 2236POPC   C4A30558   8.152  18.257   7.664
 2236POPC   C1B30559   8.104  18.028   8.564
 2236POPC   C2B30560   8.012  18.114   8.264
 2236POPC   C3B30561   8.096  18.112   7.964
 2236POPC   C4B30562   8.026  18.035   7.664
 2237POPC   NC330563  19.804  19.070   9.464
 2237POPC   PO430564  19.836  19.069   9.164
 2237POPC   GL130565  19.853  19.071   8.864
 2237POPC   GL230566  19.987  19.082   8.864
 2237POPC   C1A30567  19.873  19.056   8.564
 2237POPC   D2A30568  19.884  19.009   8.264
 2237POPC   C3A30569  19.795  19.037   7.964
 2237POPC   C4A30570  19.807  19.015   7.664
 2237POPC   C1B30571  20.003  19.162   8.564
 2237POPC   C2B30572  20.041  19.197   8.264
 2237POPC   C3B30573  20.028  19.213   7.964
 2237POPC   C4B30574  20.062  19.211   7.664
 2238POPC   NC330575  28.363  33.056   9.464
 2238POPC   PO430576  28.401  33.021   9.164
 2238POPC   GL130577  28.385  32.992   8.864
 2238POPC   GL230578  28.540  33.023   8.864
 2238POPC   C1A30579  28.329  32.987   8.564
 2238POPC   D2A30580  28.326  32.985   8.264
 2238POPC   C3A30581  28.351  32.976   7.964
 2238POPC   C4A30582  28.407  33.006   7.664
 2238POPC   C1B30583  28.595  33.092   8.564
 2238POPC   C2B30584  28.598  33.041   8.264
 2238POPC   C3B30585  28.641  33.082   7.964
 2238POPC   C4B30586  28.626  33.031   7.664
 2239POPC   NC330587  26.003  16.712   9.464
 2239POPC   PO430588  26.069  16.704   9.164
 2239POPC   GL130589  26.084  16.688   8.864
 2239POPC   GL230590  26.111  16.850   8.864
 2239POPC   C1A30591  26.085  16.691   8.564
 2239POPC   D2A30592  25.997  16.719   8.264
 2239POPC   C3A30593  26.025  16.765   7.964
 2239POPC   C4A30594  26.076  16.694   7.664
 2239POPC   C1B30595  26.130  17.013   8.564
 2239POPC   C2B30596  26.135  16.934   8.264
 2239POPC   C3B30597  26.107  16.942   7.964
 2239POPC   C4B30598  26.102  16.971   7.664
 2240POPC   NC330599  24.455   3.524   9.464
 2240POPC   PO430600  24.527   3.587   9.164
 2240POPC   GL130601  24.470   3.533   8.864
 2240POPC   GL230602  24.534   3.660   8.864
 2240POPC   C1A30603  24.519   3.498   8.564
 2240POPC   D2A30604  24.492   3.539   8.264
 2240POPC   C3A30605  24.492   3.588   7.964
 2240POPC   C4A30606  24.534   3.497   7.664
 2240POPC   C1B30607  24.569   3.829   8.564
 2240POPC   C2B30608  24.543   3.801   8.264
 2240POPC   C3B30609  24.510   3.749   7.964
 2240POPC   C4B30610  24.506   3.813   7.664
 2241POPC   NC330611   4.344  36.908   9.464
 2241POPC   PO430612   4.334  36.906   9.164
 2241POPC   GL130613   4.358  36.939   8.864
 2241POPC   GL230614   4.203  36.813   8.864
 2241POPC   C1A30615   4.312  36.942   8.564
 2241POPC   D2A30616   4.292  36.949   8.264
 2241POPC   C3A30617   4.293  36.951   7.964
 2241POPC   C4A30618   4.292  36.925   7.664
 2241POPC   C1B30619   4.063  36.792   8.564
 2241POPC   C2B30620   4.088  36.755   8.264
 2241POPC   C3B30621   4.119  36.834   7.964
 2241POPC   C4B30622   4.105  36.800   7.664
 2242POPC   NC330623  34.605   2.000   9.464
 2242POPC   PO430624  34.554   2.002   9.164
 2242POPC   GL130625  34.621   2.033   8.864
 2242POPC   GL230626  34.591   2.108   8.864
 2242POPC   C1A30627  34.534   1.977   8.564
 2242POPC   D2A30628  34.593   2.030   8.264
 2242POPC   C3A30629  34.531   1.943   7.964
 2242POPC   C4A30630  34.576   1.968   7.664
 2242POPC   C1B30631  34.608   2.268   8.564
 2242POPC   C2B30632  34.626   2.273   8.264
 2242POPC   C3B30633  34.642   2.275   7.964
 2242POPC   C4B30634  34.601   2.225   7.664
 2243POPC   NC330635  31.448  33.808   9.464
 2243POPC   PO430636  31.450  33.833   9.164
 2243POPC   GL130637  31.508  33.825   8.864
 2243POPC   GL230638  31.583  33.766   8.864
 2243POPC   C1A30639  31.482  33.803   8.564
 2243POPC   D2A30640  31.468  33.808   8.264
 2243POPC   C3A30641  31.511  33.771   7.964
 2243POPC   C4A30642  31.431  33.766   7.664
 2243POPC   C1B30643  31.662  33.670   8.564
 2243POPC   C2B30644  31.724  33.677   8.264
 2243POPC   C3B30645  31.739  33.754   7.964
 2243POPC   C4B30646  31.730  33.735   7.664
 2244POPC   NC330647   5.902  43.867   9.464
 2244POPC   PO430648   5.880  43.857   9.164
 2244POPC   GL130649   5.844  43.907   8.864
 2244POPC   GL230650   5.824  44.030   8.864
 2244POPC   C1A30651   5.902  43.897   8.564
 2244POPC   D2A30652   5.820  43.878   8.264
 2244POPC   C3A30653   5.883  43.926   7.964
 2244POPC   C4A30654   5.894  43.869   7.664
 2244POPC   C1B30655   5.744  44.118   8.564
 2244POPC   C2B30656   5.756  44.138   8.264
 2244POPC   C3B30657   5.743  44.093   7.964
 2244POPC   C4B30658   5.742  44.060   7.664
 2245POPC   NC330659  23.739   1.195   9.464
 2245POPC   PO430660  23.758   1.183   9.164
 2245POPC   GL130661  23.669   1.220   8.864
 2245POPC   GL230662  23.839   1.080   8.864
 2245POPC   C1A30663  23.699   1.197   8.564
 2245POPC   D2A30664  23.702   1.166   8.264
 2245POPC   C3A30665  23.739   1.254   7.964
 2245POPC   C4A30666  23.759   1.255   7.664
 2245POPC   C1B30667  23.864   1.026   8.564
 2245POPC   C2B30668  23.875   1.044   8.264
 2245POPC   C3B30669  23.914   1.036   7.964
 2245POPC   C4B30670  23.874   1.040   7.664
 2246POPC   NC330671  22.195  36.880   9.464
 2246POPC   PO430672  22.151  36.940   9.164
 2246POPC   GL130673  22.157  36.941   8.864
 2246POPC   GL230674  22.217  37.060   8.864
 2246POPC   C1A30675  22.187  36.920   8.564
 2246POPC   D2A30676  22.155  36.864   8.264
 2246POPC   C3A30677  22.131  36.921   7.964
 2246POPC   C4A30678  22.210  36.946   7.664
 2246POPC   C1B30679  22.260  37.119   8.564
 2246POPC   C2B30680  22.293  37.102   8.264
 2246POPC   C3B30681  22.248  37.130   7.964
 2246POPC   C4B30682  22.274  37.086   7.664
 2247POPC   NC330683  26.865   5.049   9.464
 2247POPC   PO430684  26.778   5.124   9.164
 2247POPC   GL130685  26.848   5.058   8.864
 2247POPC   GL230686  26.860   5.015   8.864
 2247POPC   C1A30687  26.839   5.120   8.564
 2247POPC   D2A30688  26.831   5.119   8.264
 2247POPC   C3A30689  26.799   5.129   7.964
 2247POPC   C4A30690  26.787   5.092   7.664
 2247POPC   C1B30691  26.843   4.888   8.564
 2247POPC   C2B30692  26.924   4.814   8.264
 2247POPC   C3B30693  26.929   4.833   7.964
 2247POPC   C4B30694  26.932   4.842   7.664
 2248POPC   NC330695   2.787  12.094   9.464
 2248POPC   PO430696   2.767  12.027   9.164
 2248POPC   GL130697   2.779  12.114   8.864
 2248POPC   GL230698   2.772  12.200   8.864
 2248POPC   C1A30699   2.785  12.117   8.564
 2248POPC   D2A30700   2.756  12.125   8.264
 2248POPC   C3A30701   2.774  12.084   7.964
 2248POPC   C4A30702   2.804  12.063   7.664
 2248POPC   C1B30703   2.788  12.362   8.564
 2248POPC   C2B30704   2.812  12.327   8.264
 2248POPC   C3B30705   2.762  12.364   7.964
 2248POPC   C4B30706   2.788  12.302   7.664
 2249POPC   NC330707   0.394  12.052   9.464
 2249POPC   PO430708   0.448  12.050   9.164
 2249POPC   GL130709   0.481  12.102   8.864
 2249POPC   GL230710   0.507  12.172   8.864
 2249POPC   C1A30711   0.469  12.082   8.564
 2249POPC   D2A30712   0.426  12.062   8.264
 2249POPC   C3A30713   0.449  12.088   7.964
 2249POPC   C4A30714   0.429  12.063   7.664
 2249POPC   C1B30715   0.639  12.249   8.564
 2249POPC   C2B30716   0.647  12.178   8.264
 2249POPC   C3B30717   0.601  12.270   7.964
 2249POPC   C4B30718   0.643  12.262   7.664
 2250POPC   NC330719  34.562  33.823   9.464
 2250POPC   PO430720  34.575  33.833   9.164
 2250POPC   GL130721  34.552  33.841   8.864
 2250POPC   GL230722  34.643  33.700   8.864
 2250POPC   C1A30723  34.614  33.792   8.564
 2250POPC   D2A30724  34.550  33.835   8.264
 2250POPC   C3A30725  34.610  33.809   7.964
 2250POPC   C4A30726  34.603  33.830   7.664
 2250POPC   C1B30727  34.634  33.537   8.564
 2250POPC   C2B30728  34.601  33.543   8.264
 2250POPC   C3B30729  34.629  33.571   7.964
 2250POPC   C4B30730  34.620  33.586   7.664
 2251POPC   NC330731  21.413  21.364   9.464
 2251POPC   PO430732  21.430  21.429   9.164
 2251POPC   GL130733  21.356  21.419   8.864
 2251POPC   GL230734  21.518  21.467   8.864
 2251POPC   C1A30735  21.347  21.403   8.564
 2251POPC   D2A30736  21.353  21.433   8.264
 2251POPC   C3A30737  21.384  21.350   7.964
 2251POPC   C4A30738  21.434  21.374   7.664
 2251POPC   C1B30739  21.615  21.516   8.564
 2251POPC   C2B30740  21.564  21.573   8.264
 2251POPC   C3B30741  21.586  21.527   7.964
 2251POPC   C4B30742  21.619  21.507   7.664
 2252POPC   NC330743  33.827  29.896   9.464
 2252POPC   PO430744  33.805  29.952   9.164
 2252POPC   GL130745  33.846  29.955   8.864
 2252POPC   GL230746  33.776  29.832   8.864
 2252POPC   C1A30747  33.804  29.960   8.564
 2252POPC   D2A30748  33.808  29.954   8.264
 2252POPC   C3A30749  33.834  29.950   7.964
 2252POPC   C4A30750  33.774  29.881   7.664
 2252POPC   C1B30751  33.708  29.662   8.564
 2252POPC   C2B30752  33.709  29.669   8.264
 2252POPC   C3B30753  33.669  29.709   7.964
 2252POPC   C4B30754  33.694  29.682   7.664
 2253POPC   NC330755  42.299   7.435   9.464
 2253POPC   PO430756  42.335   7.401   9.164
 2253POPC   GL130757  42.346   7.470   8.864
 2253POPC   GL230758  42.490   7.402   8.864
 2253POPC   C1A30759  42.334   7.428   8.564
 2253POPC   D2A30760  42.366   7.420   8.264
 2253POPC   C3A30761  42.381   7.439   7.964
 2253POPC   C4A30762  42.366   7.412   7.664
 2253POPC   C1B30763  42.585   7.354   8.564
 2253POPC   C2B30764  42.628   7.366   8.264
 2253POPC   C3B30765  42.557   7.365   7.964
 2253POPC   C4B30766  42.617   7.413   7.664
 2254POPC   NC330767   2.759   5.126   9.464
 2254POPC   PO430768   2.748   5.126   9.164
 2254POPC   GL130769   2.809   5.142   8.864
 2254POPC   GL230770   2.654   5.121   8.864
 2254POPC   C1A30771   2.788   5.070   8.564
 2254POPC   D2A30772   2.813   5.135   8.264
 2254POPC   C3A30773   2.758   5.061   7.964
 2254POPC   C4A30774   2.793   5.064   7.664
 2254POPC   C1B30775   2.544   5.117   8.564
 2254POPC   C2B30776   2.477   5.155   8.264
 2254POPC   C3B30777   2.489   5.144   7.964
 2254POPC   C4B30778   2.494   5.191   7.664
 2255POPC   NC330779  43.102  11.349   9.464
 2255POPC   PO430780  43.101  11.310   9.164
 2255POPC   GL130781  43.090  11.298   8.864
 2255POPC   GL230782  43.163  11.142   8.864
 2255POPC   C1A30783  43.150  11.285   8.564
 2255POPC   D2A30784  43.101  11.274   8.264
 2255POPC   C3A30785  43.141  11.255   7.964
 2255POPC   C4A30786  43.115  11.256   7.664
 2255POPC   C1B30787  43.140  11.028   8.564
 2255POPC   C2B30788  43.164  11.030   8.264
 2255POPC   C3B30789  43.120  11.098   7.964
 2255POPC   C4B30790  43.185  11.093   7.664
 2256POPC   NC330791  40.802  12.866   9.464
 2256POPC   PO430792  40.794  12.833   9.164
 2256POPC   GL130793  40.782  12.863   8.864
 2256POPC   GL230794  40.806  12.934   8.864
 2256POPC   C1A30795  40.762  12.871   8.564
 2256POPC   D2A30796  40.802  12.891   8.264
 2256POPC   C3A30797  40.741  12.830   7.964
 2256POPC   C4A30798  40.762  12.890   7.664
 2256POPC   C1B30799  40.893  13.047   8.564
 2256POPC   C2B30800  40.843  13.084   8.264
 2256POPC   C3B30801  40.870  13.121   7.964
 2256POPC   C4B30802  40.891  13.092   7.664
 2257POPC   NC330803  27.553   1.215   9.464
 2257POPC   PO430804  27.594   1.170   9.164
 2257POPC   GL130805  27.553   1.189   8.864
 2257POPC   GL230806  27.695   1.329   8.864
 2257POPC   C1A30807  27.607   1.248   8.564
 2257POPC   D2A30808  27.618   1.262   8.264
 2257POPC   C3A30809  27.554   1.254   7.964
 2257POPC   C4A30810  27.553   1.222   7.664
 2257POPC   C1B30811  27.770   1.378   8.564
 2257POPC   C2B30812  27.816   1.334   8.264
 2257POPC   C3B30813  27.815   1.337   7.964
 2257POPC   C4B30814  27.753   1.354   7.664
 2258POPC   NC330815  25.237  43.079   9.464
 2258POPC   PO430816  25.236  43.092   9.164
 2258POPC   GL130817  25.218  43.153   8.864
 2258POPC   GL230818  25.107  43.070   8.864
 2258POPC   C1A30819  25.275  43.136   8.564
 2258POPC   D2A30820  25.250  43.141   8.264
 2258POPC   C3A30821  25.251  43.092   7.964
 2258POPC   C4A30822  25.260  43.087   7.664
 2258POPC   C1B30823  25.003  43.099   8.564
 2258POPC   C2B30824  25.065  43.090   8.264
 2258POPC   C3B30825  25.027  43.058   7.964
 2258POPC   C4B30826  24.986  43.053   7.664
 2259POPC   NC330827   6.643   2.018   9.464
 2259POPC   PO430828   6.625   1.946   9.164
 2259POPC   GL130829   6.688   1.987   8.864
 2259POPC   GL230830   6.595   1.897   8.864
 2259POPC   C1A30831   6.643   1.971   8.564
 2259POPC   D2A30832   6.630   1.946   8.264
 2259POPC   C3A30833   6.607   1.998   7.964
 2259POPC   C4A30834   6.673   1.984   7.664
 2259POPC   C1B30835   6.420   1.798   8.564
 2259POPC   C2B30836   6.503   1.817   8.264
 2259POPC   C3B30837   6.427   1.797   7.964
 2259POPC   C4B30838   6.515   1.797   7.664
 2260POPC   NC330839  31.477   9.778   9.464
 2260POPC   PO430840  31.438   9.702   9.164
 2260POPC   GL130841  31.480   9.743   8.864
 2260POPC   GL230842  31.502   9.821   8.864
 2260POPC   C1A30843  31.521   9.712   8.564
 2260POPC   D2A30844  31.437   9.701   8.264
 2260POPC   C3A30845  31.487   9.743   7.964
 2260POPC   C4A30846  31.442   9.780   7.664
 2260POPC   C1B30847  31.631   9.962   8.564
 2260POPC   C2B30848  31.619   9.924   8.264
 2260POPC   C3B30849  31.589   9.983   7.964
 2260POPC   C4B30850  31.574   9.991   7.664
 2261POPC   NC330851  24.480  22.166   9.464
 2261POPC   PO430852  24.539  22.196   9.164
 2261POPC   GL130853  24.531  22.127   8.864
 2261POPC   GL230854  24.635  22.109   8.864
 2261POPC   C1A30855  24.486  22.119   8.564
 2261POPC   D2A30856  24.484  22.198   8.264
 2261POPC   C3A30857  24.506  22.139   7.964
 2261POPC   C4A30858  24.539  22.209   7.664
 2261POPC   C1B30859  24.688  22.044   8.564
 2261POPC   C2B30860  24.741  22.033   8.264
 2261POPC   C3B30861  24.702  22.035   7.964
 2261POPC   C4B30862  24.745  22.054   7.664
 2262POPC   NC330863  12.815  15.985   9.464
 2262POPC   PO430864  12.859  15.936   9.164
 2262POPC   GL130865  12.896  15.980   8.864
 2262POPC   GL230866  12.988  16.018   8.864
 2262POPC   C1A30867  12.826  15.975   8.564
 2262POPC   D2A30868  12.899  15.964   8.264
 2262POPC   C3A30869  12.861  15.996   7.964
 2262POPC   C4A30870  12.890  15.915   7.664
 2262POPC   C1B30871  13.056  16.088   8.564
 2262POPC   C2B30872  13.107  16.084   8.264
 2262POPC   C3B30873  13.059  16.096   7.964
 2262POPC   C4B30874  13.054  16.110   7.664
 2263POPC   NC330875  32.206  19.879   9.464
 2263POPC   PO430876  32.283  19.832   9.164
 2263POPC   GL130877  32.221  19.820   8.864
 2263POPC   GL230878  32.305  19.745   8.864
 2263POPC   C1A30879  32.268  19.812   8.564
 2263POPC   D2A30880  32.281  19.863   8.264
 2263POPC   C3A30881  32.260  19.864   7.964
 2263POPC   C4A30882  32.269  19.803   7.664
 2263POPC   C1B30883  32.347  19.663   8.564
 2263POPC   C2B30884  32.348  19.596   8.264
 2263POPC   C3B30885  32.387  19.633   7.964
 2263POPC   C4B30886  32.403  19.593   7.664
 2264POPC   NC330887  17.517   8.939   9.464
 2264POPC   PO430888  17.554   8.933   9.164
 2264POPC   GL130889  17.487   8.996   8.864
 2264POPC   GL230890  17.443   9.092   8.864
 2264POPC   C1A30891  17.466   8.927   8.564
 2264POPC   D2A30892  17.527   9.006   8.264
 2264POPC   C3A30893  17.484   8.980   7.964
 2264POPC   C4A30894  17.462   8.949   7.664
 2264POPC   C1B30895  17.315   9.122   8.564
 2264POPC   C2B30896  17.313   9.159   8.264
 2264POPC   C3B30897  17.314   9.165   7.964
 2264POPC   C4B30898  17.310   9.129   7.664
 2265POPC   NC330899  10.556  36.925   9.464
 2265POPC   PO430900  10.524  36.892   9.164
 2265POPC   GL130901  10.502  36.900   8.864
 2265POPC   GL230902  10.625  36.891   8.864
 2265POPC   C1A30903  10.529  36.892   8.564
 2265POPC   D2A30904  10.541  36.941   8.264
 2265POPC   C3A30905  10.569  36.903   7.964
 2265POPC   C4A30906  10.571  36.950   7.664
 2265POPC   C1B30907  10.706  36.810   8.564
 2265POPC   C2B30908  10.771  36.809   8.264
 2265POPC   C3B30909  10.717  36.841   7.964
 2265POPC   C4B30910  10.733  36.840   7.664
 2266POPC   NC330911  33.836  17.504   9.464
 2266POPC   PO430912  33.753  17.556   9.164
 2266POPC   GL130913  33.811  17.552   8.864
 2266POPC   GL230914  33.927  17.555   8.864
 2266POPC   C1A30915  33.837  17.547   8.564
 2266POPC   D2A30916  33.846  17.508   8.264
 2266POPC   C3A30917  33.830  17.468   7.964
 2266POPC   C4A30918  33.763  17.532   7.664
 2266POPC   C1B30919  34.032  17.580   8.564
 2266POPC   C2B30920  34.028  17.616   8.264
 2266POPC   C3B30921  34.032  17.596   7.964
 2266POPC   C4B30922  34.043  17.569   7.664
 2267POPC   NC330923   0.486   7.435   9.464
 2267POPC   PO430924   0.476   7.378   9.164
 2267POPC   GL130925   0.453   7.374   8.864
 2267POPC   GL230926   0.513   7.301   8.864
 2267POPC   C1A30927   0.405   7.422   8.564
 2267POPC   D2A30928   0.453   7.398   8.264
 2267POPC   C3A30929   0.461   7.405   7.964
 2267POPC   C4A30930   0.433   7.373   7.664
 2267POPC   C1B30931   0.598   7.202   8.564
 2267POPC   C2B30932   0.613   7.194   8.264
 2267POPC   C3B30933   0.575   7.168   7.964
 2267POPC   C4B30934   0.589   7.168   7.664
 2268POPC   NC330935  24.444  15.186   9.464
 2268POPC   PO430936  24.505  15.164   9.164
 2268POPC   GL130937  24.441  15.137   8.864
 2268POPC   GL230938  24.614  15.184   8.864
 2268POPC   C1A30939  24.476  15.135   8.564
 2268POPC   D2A30940  24.521  15.156   8.264
 2268POPC   C3A30941  24.504  15.175   7.964
 2268POPC   C4A30942  24.455  15.143   7.664
 2268POPC   C1B30943  24.756  15.139   8.564
 2268POPC   C2B30944  24.775  15.121   8.264
 2268POPC   C3B30945  24.755  15.101   7.964
 2268POPC   C4B30946  24.716  15.119   7.664
 2269POPC   NC330947  36.107  12.873   9.464
 2269POPC   PO430948  36.080  12.818   9.164
 2269POPC   GL130949  36.108  12.843   8.864
 2269POPC   GL230950  36.122  12.974   8.864
 2269POPC   C1A30951  36.089  12.844   8.564
 2269POPC   D2A30952  36.093  12.839   8.264
 2269POPC   C3A30953  36.100  12.804   7.964
 2269POPC   C4A30954  36.170  12.814   7.664
 2269POPC   C1B30955  36.217  13.086   8.564
 2269POPC   C2B30956  36.162  13.056   8.264
 2269POPC   C3B30957  36.221  13.060   7.964
 2269POPC   C4B30958  36.212  13.100   7.664
 2270POPC   NC330959  26.020  17.457   9.464
 2270POPC   PO430960  26.026  17.554   9.164
 2270POPC   GL130961  26.074  17.484   8.864
 2270POPC   GL230962  25.920  17.539   8.864
 2270POPC   C1A30963  26.043  17.556   8.564
 2270POPC   D2A30964  26.035  17.495   8.264
 2270POPC   C3A30965  26.081  17.550   7.964
 2270POPC   C4A30966  26.066  17.485   7.664
 2270POPC   C1B30967  25.842  17.666   8.564
 2270POPC   C2B30968  25.801  17.680   8.264
 2270POPC   C3B30969  25.825  17.650   7.964
 2270POPC   C4B30970  25.822  17.622   7.664
 2271POPC   NC330971  19.039  19.012   9.464
 2271POPC   PO430972  19.092  19.042   9.164
 2271POPC   GL130973  19.043  19.091   8.864
 2271POPC   GL230974  18.939  18.998   8.864
 2271POPC   C1A30975  19.025  19.065   8.564
 2271POPC   D2A30976  19.015  19.016   8.264
 2271POPC   C3A30977  19.067  19.027   7.964
 2271POPC   C4A30978  19.101  19.095   7.664
 2271POPC   C1B30979  18.863  19.022   8.564
 2271POPC   C2B30980  18.867  18.958   8.264
 2271POPC   C3B30981  18.828  19.009   7.964
 2271POPC   C4B30982  18.842  18.967   7.664
 2272POPC   NC330983  35.375  40.014   9.464
 2272POPC   PO430984  35.382  39.976   9.164
 2272POPC   GL130985  35.364  39.971   8.864
 2272POPC   GL230986  35.314  39.922   8.864
 2272POPC   C1A30987  35.325  40.057   8.564
 2272POPC   D2A30988  35.324  39.997   8.264
 2272POPC   C3A30989  35.401  39.968   7.964
 2272POPC   C4A30990  35.317  39.957   7.664
 2272POPC   C1B30991  35.357  39.794   8.564
 2272POPC   C2B30992  35.349  39.772   8.264
 2272POPC   C3B30993  35.295  39.802   7.964
 2272POPC   C4B30994  35.299  39.772   7.664
 2273POPC   NC330995  21.376  22.143   9.464
 2273POPC   PO430996  21.435  22.120   9.164
 2273POPC   GL130997  21.355  22.116   8.864
 2273POPC   GL230998  21.526  22.226   8.864
 2273POPC   C1A30999  21.383  22.171   8.564
 2273POPC   D2A31000  21.379  22.165   8.264
 2273POPC   C3A31001  21.413  22.140   7.964
 2273POPC   C4A31002  21.407  22.189   7.664
 2273POPC   C1B31003  21.529  22.337   8.564
 2273POPC   C2B31004  21.530  22.332   8.264
 2273POPC   C3B31005  21.523  22.355   7.964
 2273POPC   C4B31006  21.595  22.284   7.664
 2274POPC   NC331007   9.761   6.622   9.464
 2274POPC   PO431008   9.734   6.687   9.164
 2274POPC   GL131009   9.789   6.612   8.864
 2274POPC   GL231010   9.619   6.642   8.864
 2274POPC   C1A31011   9.749   6.652   8.564
 2274POPC   D2A31012   9.748   6.636   8.264
 2274POPC   C3A31013   9.740   6.636   7.964
 2274POPC   C4A31014   9.751   6.677   7.664
 2274POPC   C1B31015   9.466   6.568   8.564
 2274POPC   C2B31016   9.541   6.626   8.264
 2274POPC   C3B31017   9.495   6.552   7.964
 2274POPC   C4B31018   9.525   6.622   7.664
 2275POPC   NC331019  34.544   8.958   9.464
 2275POPC   PO431020  34.610   8.951   9.164
 2275POPC   GL131021  34.568   8.933   8.864
 2275POPC   GL231022  34.587   8.826   8.864
 2275POPC   C1A31023  34.537   8.964   8.564
 2275POPC   D2A31024  34.568   8.971   8.264
 2275POPC   C3A31025  34.619   8.939   7.964
 2275POPC   C4A31026  34.559   8.954   7.664
 2275POPC   C1B31027  34.652   8.678   8.564
 2275POPC   C2B31028  34.578   8.771   8.264
 2275POPC   C3B31029  34.590   8.680   7.964
 2275POPC   C4B31030  34.579   8.751   7.664
 2276POPC   NC331031   9.767   8.228   9.464
 2276POPC   PO431032   9.718   8.179   9.164
 2276POPC   GL131033   9.754   8.161   8.864
 2276POPC   GL231034   9.732   8.293   8.864
 2276POPC   C1A31035   9.775   8.175   8.564
 2276POPC   D2A31036   9.788   8.163   8.264
 2276POPC   C3A31037   9.780   8.233   7.964
 2276POPC   C4A31038   9.708   8.238   7.664
 2276POPC   C1B31039   9.682   8.415   8.564
 2276POPC   C2B31040   9.723   8.484   8.264
 2276POPC   C3B31041   9.693   8.454   7.964
 2276POPC   C4B31042   9.754   8.435   7.664
 2277POPC   NC331043  26.086  21.374   9.464
 2277POPC   PO431044  26.071  21.336   9.164
 2277POPC   GL131045  26.023  21.406   8.864
 2277POPC   GL231046  25.887  21.358   8.864
 2277POPC   C1A31047  26.040  21.419   8.564
 2277POPC   D2A31048  26.034  21.419   8.264
 2277POPC   C3A31049  26.082  21.393   7.964
 2277POPC   C4A31050  26.046  21.368   7.664
 2277POPC   C1B31051  25.760  21.277   8.564
 2277POPC   C2B31052  25.851  21.277   8.264
 2277POPC   C3B31053  25.769  21.339   7.964
 2277POPC   C4B31054  25.847  21.327   7.664
 2278POPC   NC331055  39.230   1.985   9.464
 2278POPC   PO431056  39.242   1.943   9.164
 2278POPC   GL131057  39.265   1.970   8.864
 2278POPC   GL231058  39.249   2.147   8.864
 2278POPC   C1A31059  39.194   1.940   8.564
 2278POPC   D2A31060  39.184   2.021   8.264
 2278POPC   C3A31061  39.260   2.035   7.964
 2278POPC   C4A31062  39.215   1.943   7.664
 2278POPC   C1B31063  39.136   2.255   8.564
 2278POPC   C2B31064  39.205   2.193   8.264
 2278POPC   C3B31065  39.212   2.210   7.964
 2278POPC   C4B31066  39.214   2.285   7.664
 2279POPC   NC331067  36.938  33.066   9.464
 2279POPC   PO431068  36.926  33.032   9.164
 2279POPC   GL131069  36.901  33.038   8.864
 2279POPC   GL231070  36.809  32.923   8.864
 2279POPC   C1A31071  36.856  33.065   8.564
 2279POPC   D2A31072  36.880  33.060   8.264
 2279POPC   C3A31073  36.907  33.054   7.964
 2279POPC   C4A31074  36.880  33.007   7.664
 2279POPC   C1B31075  36.677  32.887   8.564
 2279POPC   C2B31076  36.731  32.875   8.264
 2279POPC   C3B31077  36.741  32.856   7.964
 2279POPC   C4B31078  36.756  32.850   7.664
 2280POPC   NC331079   0.401  29.121   9.464
 2280POPC   PO431080   0.471  29.108   9.164
 2280POPC   GL131081   0.415  29.144   8.864
 2280POPC   GL231082   0.512  29.284   8.864
 2280POPC   C1A31083   0.394  29.152   8.564
 2280POPC   D2A31084   0.411  29.150   8.264
 2280POPC   C3A31085   0.424  29.195   7.964
 2280POPC   C4A31086   0.445  29.140   7.664
 2280POPC   C1B31087   0.549  29.431   8.564
 2280POPC   C2B31088   0.473  29.368   8.264
 2280POPC   C3B31089   0.488  29.363   7.964
 2280POPC   C4B31090   0.545  29.353   7.664
 2281POPC   NC331091  12.109  16.771   9.464
 2281POPC   PO431092  12.054  16.694   9.164
 2281POPC   GL131093  12.061  16.711   8.864
 2281POPC   GL231094  12.095  16.807   8.864
 2281POPC   C1A31095  12.054  16.767   8.564
 2281POPC   D2A31096  12.032  16.697   8.264
 2281POPC   C3A31097  12.098  16.702   7.964
 2281POPC   C4A31098  12.059  16.710   7.664
 2281POPC   C1B31099  12.212  16.934   8.564
 2281POPC   C2B31100  12.208  16.974   8.264
 2281POPC   C3B31101  12.225  16.960   7.964
 2281POPC   C4B31102  12.233  16.973   7.664
 2282POPC   NC331103  42.299  18.234   9.464
 2282POPC   PO431104  42.349  18.275   9.164
 2282POPC   GL131105  42.382  18.292   8.864
 2282POPC   GL231106  42.317  18.218   8.864
 2282POPC   C1A31107  42.338  18.244   8.564
 2282POPC   D2A31108  42.364  18.322   8.264
 2282POPC   C3A31109  42.314  18.322   7.964
 2282POPC   C4A31110  42.324  18.312   7.664
 2282POPC   C1B31111  42.183  18.071   8.564
 2282POPC   C2B31112  42.160  18.029   8.264
 2282POPC   C3B31113  42.196  18.051   7.964
 2282POPC   C4B31114  42.192  18.040   7.664
 2283POPC   NC331115  34.551  39.225   9.464
 2283POPC   PO431116  34.616  39.275   9.164
 2283POPC   GL131117  34.542  39.207   8.864
 2283POPC   GL231118  34.517  39.348   8.864
 2283POPC   C1A31119  34.610  39.266   8.564
 2283POPC   D2A31120  34.612  39.270   8.264
 2283POPC   C3A31121  34.571  39.259   7.964
 2283POPC   C4A31122  34.616  39.256   7.664
 2283POPC   C1B31123  34.403  39.408   8.564
 2283POPC   C2B31124  34.440  39.413   8.264
 2283POPC   C3B31125  34.401  39.415   7.964
 2283POPC   C4B31126  34.460  39.378   7.664
 2284POPC   NC331127   2.770  39.262   9.464
 2284POPC   PO431128   2.729  39.187   9.164
 2284POPC   GL131129   2.719  39.189   8.864
 2284POPC   GL231130   2.656  39.223   8.864
 2284POPC   C1A31131   2.777  39.204   8.564
 2284POPC   D2A31132   2.804  39.212   8.264
 2284POPC   C3A31133   2.786  39.264   7.964
 2284POPC   C4A31134   2.783  39.188   7.664
 2284POPC   C1B31135   2.554  39.215   8.564
 2284POPC   C2B31136   2.470  39.233   8.264
 2284POPC   C3B31137   2.482  39.180   7.964
 2284POPC   C4B31138   2.543  39.159   7.664
 2285POPC   NC331139  26.810  39.958   9.464
 2285POPC   PO431140  26.852  39.975   9.164
 2285POPC   GL131141  26.804  40.026   8.864
 2285POPC   GL231142  26.690  40.112   8.864
 2285POPC   C1A31143  26.859  40.028   8.564
 2285POPC   D2A31144  26.773  39.960   8.264
 2285POPC   C3A31145  26.796  39.991   7.964
 2285POPC   C4A31146  26.848  40.026   7.664
 2285POPC   C1B31147  26.581  40.180   8.564
 2285POPC   C2B31148  26.572  40.122   8.264
 2285POPC   C3B31149  26.640  40.164   7.964
 2285POPC   C4B31150  26.606  40.125   7.664
 2286POPC   NC331151  23.745  37.721   9.464
 2286POPC   PO431152  23.665  37.687   9.164
 2286POPC   GL131153  23.702  37.659   8.864
 2286POPC   GL231154  23.689  37.797   8.864
 2286POPC   C1A31155  23.721  37.657   8.564
 2286POPC   D2A31156  23.692  37.636   8.264
 2286POPC   C3A31157  23.702  37.704   7.964
 2286POPC   C4A31158  23.713  37.656   7.664
 2286POPC   C1B31159  23.586  37.887   8.564
 2286POPC   C2B31160  23.576  37.860   8.264
 2286POPC   C3B31161  23.616  37.897   7.964
 2286POPC   C4B31162  23.565  37.909   7.664
 2287POPC   NC331163   7.452  34.542   9.464
 2287POPC   PO431164   7.430  34.568   9.164
 2287POPC   GL131165   7.462  34.563   8.864
 2287POPC   GL231166   7.548  34.544   8.864
 2287POPC   C1A31167   7.470  34.610   8.564
 2287POPC   D2A31168   7.448  34.555   8.264
 2287POPC   C3A31169   7.390  34.604   7.964
 2287POPC   C4A31170   7.382  34.589   7.664
 2287POPC   C1B31171   7.619  34.414   8.564
 2287POPC   C2B31172   7.637  34.448   8.264
 2287POPC   C3B31173   7.614  34.458   7.964
 2287POPC   C4B31174   7.589  34.473   7.664
 2288POPC   NC331175  31.448  22.952   9.464
 2288POPC   PO431176  31.433  22.948   9.164
 2288POPC   GL131177  31.471  22.921   8.864
 2288POPC   GL231178  31.574  22.834   8.864
 2288POPC   C1A31179  31.490  22.985   8.564
 2288POPC   D2A31180  31.468  22.919   8.264
 2288POPC   C3A31181  31.500  22.910   7.964
 2288POPC   C4A31182  31.448  22.977   7.664
 2288POPC   C1B31183  31.671  22.772   8.564
 2288POPC   C2B31184  31.715  22.777   8.264
 2288POPC   C3B31185  31.636  22.753   7.964
 2288POPC   C4B31186  31.721  22.811   7.664
 2289POPC   NC331187  15.926  27.604   9.464
 2289POPC   PO431188  15.938  27.639   9.164
 2289POPC   GL131189  15.927  27.607   8.864
 2289POPC   GL231190  15.841  27.703   8.864
 2289POPC   C1A31191  15.965  27.602   8.564
 2289POPC   D2A31192  15.910  27.624   8.264
 2289POPC   C3A31193  15.933  27.627   7.964
 2289POPC   C4A31194  15.970  27.584   7.664
 2289POPC   C1B31195  15.757  27.731   8.564
 2289POPC   C2B31196  15.827  27.759   8.264
 2289POPC   C3B31197  15.803  27.762   7.964
 2289POPC   C4B31198  15.819  27.756   7.664
 2290POPC   NC331199  39.278   8.183   9.464
 2290POPC   PO431200  39.232   8.243   9.164
 2290POPC   GL131201  39.249   8.147   8.864
 2290POPC   GL231202  39.345   8.129   8.864
 2290POPC   C1A31203  39.267   8.238   8.564
 2290POPC   D2A31204  39.231   8.195   8.264
 2290POPC   C3A31205  39.198   8.238   7.964
 2290POPC   C4A31206  39.202   8.181   7.664
 2290POPC   C1B31207  39.355   8.002   8.564
 2290POPC   C2B31208  39.350   8.018   8.264
 2290POPC   C3B31209  39.425   8.001   7.964
 2290POPC   C4B31210  39.425   8.026   7.664
 2291POPC   NC331211  36.904  30.666   9.464
 2291POPC   PO431212  36.866  30.669   9.164
 2291POPC   GL131213  36.915  30.676   8.864
 2291POPC   GL231214  36.856  30.525   8.864
 2291POPC   C1A31215  36.862  30.704   8.564
 2291POPC   D2A31216  36.896  30.678   8.264
 2291POPC   C3A31217  36.879  30.679   7.964
 2291POPC   C4A31218  36.854  30.660   7.664
 2291POPC   C1B31219  36.914  30.475   8.564
 2291POPC   C2B31220  36.903  30.418   8.264
 2291POPC   C3B31221  36.874  30.465   7.964
 2291POPC   C4B31222  36.914  30.495   7.664
 2292POPC   NC331223  20.575   8.206   9.464
 2292POPC   PO431224  20.609   8.220   9.164
 2292POPC   GL131225  20.582   8.242   8.864
 2292POPC   GL231226  20.584   8.103   8.864
 2292POPC   C1A31227  20.601   8.198   8.564
 2292POPC   D2A31228  20.572   8.221   8.264
 2292POPC   C3A31229  20.609   8.207   7.964
 2292POPC   C4A31230  20.649   8.173   7.664
 2292POPC   C1B31231  20.631   7.933   8.564
 2292POPC   C2B31232  20.639   7.988   8.264
 2292POPC   C3B31233  20.579   7.917   7.964
 2292POPC   C4B31234  20.590   7.944   7.664
 2293POPC   NC331235  38.501  19.014   9.464
 2293POPC   PO431236  38.488  19.042   9.164
 2293POPC   GL131237  38.431  19.058   8.864
 2293POPC   GL231238  38.515  18.956   8.864
 2293POPC   C1A31239  38.456  19.092   8.564
 2293POPC   D2A31240  38.458  19.030   8.264
 2293POPC   C3A31241  38.473  19.102   7.964
 2293POPC   C4A31242  38.498  19.047   7.664
 2293POPC   C1B31243  38.503  18.791   8.564
 2293POPC   C2B31244  38.472  18.776   8.264
 2293POPC   C3B31245  38.508  18.827   7.964
 2293POPC   C4B31246  38.452  18.840   7.664
 2294POPC   NC331247  11.252  28.391   9.464
 2294POPC   PO431248  11.320  28.390   9.164
 2294POPC   GL131249  11.297  28.368   8.864
 2294POPC   GL231250  11.324  28.452   8.864
 2294POPC   C1A31251  11.310  28.343   8.564
 2294POPC   D2A31252  11.326  28.366   8.264
 2294POPC   C3A31253  11.324  28.413   7.964
 2294POPC   C4A31254  11.268  28.370   7.664
 2294POPC   C1B31255  11.371  28.553   8.564
 2294POPC   C2B31256  11.456  28.616   8.264
 2294POPC   C3B31257  11.405  28.585   7.964
 2294POPC   C4B31258  11.445  28.586   7.664
 2295POPC   NC331259  36.917  36.875   9.464
 2295POPC   PO431260  36.875  36.865   9.164
 2295POPC   GL131261  36.912  36.869   8.864
 2295POPC   GL231262  36.807  36.926   8.864
 2295POPC   C1A31263  36.914  36.889   8.564
 2295POPC   D2A31264  36.927  36.922   8.264
 2295POPC   C3A31265  36.860  36.899   7.964
 2295POPC   C4A31266  36.936  36.949   7.664
 2295POPC   C1B31267  36.705  36.954   8.564
 2295POPC   C2B31268  36.649  36.977   8.264
 2295POPC   C3B31269  36.650  36.993   7.964
 2295POPC   C4B31270  36.705  36.981   7.664
 2296POPC   NC331271   1.982  34.531   9.464
 2296POPC   PO431272   2.033  34.539   9.164
 2296POPC   GL131273   2.033  34.618   8.864
 2296POPC   GL231274   1.926  34.617   8.864
 2296POPC   C1A31275   1.950  34.528   8.564
 2296POPC   D2A31276   1.980  34.578   8.264
 2296POPC   C3A31277   1.996  34.591   7.964
 2296POPC   C4A31278   1.991  34.529   7.664
 2296POPC   C1B31279   1.802  34.754   8.564
 2296POPC   C2B31280   1.781  34.737   8.264
 2296POPC   C3B31281   1.824  34.729   7.964
 2296POPC   C4B31282   1.797  34.667   7.664
 2297POPC   NC331283  23.703   1.984   9.464
 2297POPC   PO431284  23.693   2.037   9.164
 2297POPC   GL131285  23.764   2.032   8.864
 2297POPC   GL231286  23.715   2.089   8.864
 2297POPC   C1A31287  23.673   2.033   8.564
 2297POPC   D2A31288  23.703   1.974   8.264
 2297POPC   C3A31289  23.671   2.020   7.964
 2297POPC   C4A31290  23.681   2.000   7.664
 2297POPC   C1B31291  23.741   2.271   8.564
 2297POPC   C2B31292  23.733   2.270   8.264
 2297POPC   C3B31293  23.757   2.247   7.964
 2297POPC   C4B31294  23.759   2.209   7.664
 2298POPC   NC331295  22.163  30.696   9.464
 2298POPC   PO431296  22.122  30.673   9.164
 2298POPC   GL131297  22.203  30.675   8.864
 2298POPC   GL231298  22.033  30.738   8.864
 2298POPC   C1A31299  22.211  30.704   8.564
 2298POPC   D2A31300  22.149  30.746   8.264
 2298POPC   C3A31301  22.142  30.721   7.964
 2298POPC   C4A31302  22.157  30.727   7.664
 2298POPC   C1B31303  21.960  30.864   8.564
 2298POPC   C2B31304  21.979  30.899   8.264
 2298POPC   C3B31305  21.926  30.819   7.964
 2298POPC   C4B31306  21.943  30.891   7.664
 2299POPC   NC331307  14.372  30.676   9.464
 2299POPC   PO431308  14.427  30.658   9.164
 2299POPC   GL131309  14.381  30.693   8.864
 2299POPC   GL231310  14.473  30.613   8.864
 2299POPC   C1A31311  14.413  30.686   8.564
 2299POPC   D2A31312  14.360  30.736   8.264
 2299POPC   C3A31313  14.437  30.721   7.964
 2299POPC   C4A31314  14.364  30.694   7.664
 2299POPC   C1B31315  14.458  30.485   8.564
 2299POPC   C2B31316  14.496  30.507   8.264
 2299POPC   C3B31317  14.489  30.485   7.964
 2299POPC   C4B31318  14.485  30.448   7.664
 2300POPC   NC331319  40.772   6.689   9.464
 2300POPC   PO431320  40.740   6.671   9.164
 2300POPC   GL131321  40.747   6.634   8.864
 2300POPC   GL231322  40.680   6.731   8.864
 2300POPC   C1A31323  40.773   6.689   8.564
 2300POPC   D2A31324  40.779   6.611   8.264
 2300POPC   C3A31325  40.799   6.605   7.964
 2300POPC   C4A31326  40.795   6.677   7.664
 2300POPC   C1B31327  40.548   6.729   8.564
 2300POPC   C2B31328  40.518   6.710   8.264
 2300POPC   C3B31329  40.568   6.744   7.964
 2300POPC   C4B31330  40.553   6.734   7.664
 2301POPC   NC331331   5.852  19.098   9.464
 2301POPC   PO431332   5.863  19.072   9.164
 2301POPC   GL131333   5.903  19.041   8.864
 2301POPC   GL231334   5.917  18.890   8.864
 2301POPC   C1A31335   5.910  19.046   8.564
 2301POPC   D2A31336   5.907  19.065   8.264
 2301POPC   C3A31337   5.841  19.025   7.964
 2301POPC   C4A31338   5.915  19.015   7.664
 2301POPC   C1B31339   5.876  18.804   8.564
 2301POPC   C2B31340   5.865  18.797   8.264
 2301POPC   C3B31341   5.904  18.809   7.964
 2301POPC   C4B31342   5.878  18.763   7.664
 2302POPC   NC331343  15.171  17.513   9.464
 2302POPC   PO431344  15.161  17.473   9.164
 2302POPC   GL131345  15.215  17.533   8.864
 2302POPC   GL231346  15.110  17.608   8.864
 2302POPC   C1A31347  15.187  17.553   8.564
 2302POPC   D2A31348  15.154  17.494   8.264
 2302POPC   C3A31349  15.198  17.462   7.964
 2302POPC   C4A31350  15.208  17.503   7.664
 2302POPC   C1B31351  15.080  17.756   8.564
 2302POPC   C2B31352  15.072  17.717   8.264
 2302POPC   C3B31353  15.078  17.731   7.964
 2302POPC   C4B31354  15.123  17.744   7.664
 2303POPC   NC331355  13.598  32.207   9.464
 2303POPC   PO431356  13.672  32.284   9.164
 2303POPC   GL131357  13.672  32.249   8.864
 2303POPC   GL231358  13.746  32.133   8.864
 2303POPC   C1A31359  13.592  32.263   8.564
 2303POPC   D2A31360  13.600  32.276   8.264
 2303POPC   C3A31361  13.622  32.289   7.964
 2303POPC   C4A31362  13.676  32.206   7.664
 2303POPC   C1B31363  13.783  32.031   8.564
 2303POPC   C2B31364  13.822  32.093   8.264
 2303POPC   C3B31365  13.858  32.095   7.964
 2303POPC   C4B31366  13.784  32.108   7.664
 2304POPC   NC331367  41.558  16.687   9.464
 2304POPC   PO431368  41.586  16.711   9.164
 2304POPC   GL131369  41.543  16.779   8.864
 2304POPC   GL231370  41.677  16.614   8.864
 2304POPC   C1A31371  41.588  16.742   8.564
 2304POPC   D2A31372  41.530  16.743   8.264
 2304POPC   C3A31373  41.582  16.722   7.964
 2304POPC   C4A31374  41.528  16.701   7.664
 2304POPC   C1B31375  41.694  16.520   8.564
 2304POPC   C2B31376  41.729  16.482   8.264
 2304POPC   C3B31377  41.727  16.483   7.964
 2304POPC   C4B31378  41.659  16.541   7.664
 2305POPC   NC331379  42.366  21.369   9.464
 2305POPC   PO431380  42.345  21.432   9.164
 2305POPC   GL131381  42.354  21.379   8.864
 2305POPC   GL231382  42.221  21.304   8.864
 2305POPC   C1A31383  42.348  21.385   8.564
 2305POPC   D2A31384  42.340  21.428   8.264
 2305POPC   C3A31385  42.322  21.344   7.964
 2305POPC   C4A31386  42.379  21.385   7.664
 2305POPC   C1B31387  42.098  21.219   8.564
 2305POPC   C2B31388  42.091  21.274   8.264
 2305POPC   C3B31389  42.158  21.277   7.964
 2305POPC   C4B31390  42.067  21.216   7.664
 2306POPC   NC331391  40.808  15.207   9.464
 2306POPC   PO431392  40.789  15.179   9.164
 2306POPC   GL131393  40.810  15.134   8.864
 2306POPC   GL231394  40.882  15.252   8.864
 2306POPC   C1A31395  40.765  15.158   8.564
 2306POPC   D2A31396  40.790  15.156   8.264
 2306POPC   C3A31397  40.753  15.131   7.964
 2306POPC   C4A31398  40.772  15.157   7.664
 2306POPC   C1B31399  40.958  15.429   8.564
 2306POPC   C2B31400  40.917  15.385   8.264
 2306POPC   C3B31401  40.923  15.332   7.964
 2306POPC   C4B31402  40.965  15.332   7.664
 2307POPC   NC331403  22.204  15.229   9.464
 2307POPC   PO431404  22.200  15.185   9.164
 2307POPC   GL131405  22.132  15.167   8.864
 2307POPC   GL231406  22.179  15.339   8.864
 2307POPC   C1A31407  22.138  15.173   8.564
 2307POPC   D2A31408  22.201  15.166   8.264
 2307POPC   C3A31409  22.126  15.192   7.964
 2307POPC   C4A31410  22.198  15.181   7.664
 2307POPC   C1B31411  22.211  15.432   8.564
 2307POPC   C2B31412  22.244  15.421   8.264
 2307POPC   C3B31413  22.206  15.387   7.964
 2307POPC   C4B31414  22.247  15.445   7.664
 2308POPC   NC331415  17.507  36.176   9.464
 2308POPC   PO431416  17.471  36.079   9.164
 2308POPC   GL131417  17.514  36.092   8.864
 2308POPC   GL231418  17.485  36.205   8.864
 2308POPC   C1A31419  17.490  36.086   8.564
 2308POPC   D2A31420  17.515  36.110   8.264
 2308POPC   C3A31421  17.458  36.148   7.964
 2308POPC   C4A31422  17.490  36.130   7.664
 2308POPC   C1B31423  17.532  36.421   8.564
 2308POPC   C2B31424  17.572  36.349   8.264
 2308POPC   C3B31425  17.480  36.419   7.964
 2308POPC   C4B31426  17.503  36.392   7.664
 2309POPC   NC331427  26.027  29.886   9.464
 2309POPC   PO431428  26.039  29.927   9.164
 2309POPC   GL131429  26.020  29.883   8.864
 2309POPC   GL231430  26.074  29.757   8.864
 2309POPC   C1A31431  26.040  29.937   8.564
 2309POPC   D2A31432  26.010  29.877   8.264
 2309POPC   C3A31433  26.067  29.893   7.964
 2309POPC   C4A31434  26.041  29.931   7.664
 2309POPC   C1B31435  26.045  29.692   8.564
 2309POPC   C2B31436  26.075  29.630   8.264
 2309POPC   C3B31437  26.096  29.710   7.964
 2309POPC   C4B31438  26.065  29.653   7.664
 2310POPC   NC331439  29.103  19.068   9.464
 2310POPC   PO431440  29.147  19.009   9.164
 2310POPC   GL131441  29.176  19.088   8.864
 2310POPC   GL231442  29.035  19.166   8.864
 2310POPC   C1A31443  29.103  19.105   8.564
 2310POPC   D2A31444  29.113  19.066   8.264
 2310POPC   C3A31445  29.161  19.039   7.964
 2310POPC   C4A31446  29.122  19.028   7.664
 2310POPC   C1B31447  29.052  19.315   8.564
 2310POPC   C2B31448  29.053  19.226   8.264
 2310POPC   C3B31449  29.054  19.325   7.964
 2310POPC   C4B31450  28.994  19.321   7.664
 2311POPC   NC331451  34.534  30.664   9.464
 2311POPC   PO431452  34.558  30.651   9.164
 2311POPC   GL131453  34.623  30.679   8.864
 2311POPC   GL231454  34.528  30.770   8.864
 2311POPC   C1A31455  34.590  30.655   8.564
 2311POPC   D2A31456  34.600  30.704   8.264
 2311POPC   C3A31457  34.584  30.681   7.964
 2311POPC   C4A31458  34.595  30.654   7.664
 2311POPC   C1B31459  34.429  30.928   8.564
 2311POPC   C2B31460  34.494  30.893   8.264
 2311POPC   C3B31461  34.519  30.881   7.964
 2311POPC   C4B31462  34.514  30.906   7.664
 2312POPC   NC331463  27.600  15.977   9.464
 2312POPC   PO431464  27.563  15.971   9.164
 2312POPC   GL131465  27.575  15.960   8.864
 2312POPC   GL231466  27.430  15.934   8.864
 2312POPC   C1A31467  27.619  15.964   8.564
 2312POPC   D2A31468  27.632  15.972   8.264
 2312POPC   C3A31469  27.627  15.963   7.964
 2312POPC   C4A31470  27.586  15.952   7.664
 2312POPC   C1B31471  27.297  16.024   8.564
 2312POPC   C2B31472  27.325  15.961   8.264
 2312POPC   C3B31473  27.342  15.945   7.964
 2312POPC   C4B31474  27.387  15.980   7.664
 2313POPC   NC331475   8.962   2.730   9.464
 2313POPC   PO431476   8.930   2.799   9.164
 2313POPC   GL131477   8.927   2.796   8.864
 2313POPC   GL231478   8.876   2.874   8.864
 2313POPC   C1A31479   8.988   2.791   8.564
 2313POPC   D2A31480   8.989   2.733   8.264
 2313POPC   C3A31481   8.949   2.743   7.964
 2313POPC   C4A31482   8.942   2.745   7.664
 2313POPC   C1B31483   8.762   2.920   8.564
 2313POPC   C2B31484   8.768   2.940   8.264
 2313POPC   C3B31485   8.759   2.936   7.964
 2313POPC   C4B31486   8.765   2.899   7.664
 2314POPC   NC331487   0.436   1.173   9.464
 2314POPC   PO431488   0.461   1.244   9.164
 2314POPC   GL131489   0.478   1.194   8.864
 2314POPC   GL231490   0.344   1.298   8.864
 2314POPC   C1A31491   0.457   1.229   8.564
 2314POPC   D2A31492   0.392   1.195   8.264
 2314POPC   C3A31493   0.399   1.252   7.964
 2314POPC   C4A31494   0.414   1.214   7.664
 2314POPC   C1B31495   0.233   1.330   8.564
 2314POPC   C2B31496   0.158   1.282   8.264
 2314POPC   C3B31497   0.196   1.241   7.964
 2314POPC   C4B31498   0.222   1.257   7.664
 2315POPC   NC331499  23.761  21.436   9.464
 2315POPC   PO431500  23.730  21.409   9.164
 2315POPC   GL131501  23.710  21.370   8.864
 2315POPC   GL231502  23.792  21.407   8.864
 2315POPC   C1A31503  23.699  21.386   8.564
 2315POPC   D2A31504  23.690  21.358   8.264
 2315POPC   C3A31505  23.706  21.342   7.964
 2315POPC   C4A31506  23.714  21.358   7.664
 2315POPC   C1B31507  23.997  21.408   8.564
 2315POPC   C2B31508  23.987  21.394   8.264
 2315POPC   C3B31509  23.989  21.445   7.964
 2315POPC   C4B31510  23.934  21.353   7.664
 2316POPC   NC331511   5.910   5.821   9.464
 2316POPC   PO431512   5.906   5.850   9.164
 2316POPC   GL131513   5.873   5.892   8.864
 2316POPC   GL231514   5.779   6.017   8.864
 2316POPC   C1A31515   5.849   5.877   8.564
 2316POPC   D2A31516   5.822   5.901   8.264
 2316POPC   C3A31517   5.878   5.865   7.964
 2316POPC   C4A31518   5.887   5.904   7.664
 2316POPC   C1B31519   5.758   6.100   8.564
 2316POPC   C2B31520   5.708   6.064   8.264
 2316POPC   C3B31521   5.756   6.090   7.964
 2316POPC   C4B31522   5.789   6.103   7.664
 2317POPC   NC331523  31.434  19.100   9.464
 2317POPC   PO431524  31.492  19.049   9.164
 2317POPC   GL131525  31.446  19.105   8.864
 2317POPC   GL231526  31.579  19.084   8.864
 2317POPC   C1A31527  31.477  19.108   8.564
 2317POPC   D2A31528  31.437  19.050   8.264
 2317POPC   C3A31529  31.513  19.057   7.964
 2317POPC   C4A31530  31.464  19.096   7.664
 2317POPC   C1B31531  31.648  19.228   8.564
 2317POPC   C2B31532  31.667  19.215   8.264
 2317POPC   C3B31533  31.702  19.251   7.964
 2317POPC   C4B31534  31.718  19.246   7.664
 2318POPC   NC331535  33.058  24.475   9.464
 2318POPC   PO431536  33.051  24.470   9.164
 2318POPC   GL131537  32.990  24.462   8.864
 2318POPC   GL231538  32.890  24.489   8.864
 2318POPC   C1A31539  33.051  24.501   8.564
 2318POPC   D2A31540  32.995  24.508   8.264
 2318POPC   C3A31541  33.009  24.498   7.964
 2318POPC   C4A31542  33.045  24.478   7.664
 2318POPC   C1B31543  32.828  24.547   8.564
 2318POPC   C2B31544  32.826  24.519   8.264
 2318POPC   C3B31545  32.786  24.592   7.964
 2318POPC   C4B31546  32.752  24.545   7.664
 2319POPC   NC331547  32.987  38.422   9.464
 2319POPC   PO431548  33.036  38.502   9.164
 2319POPC   GL131549  32.997  38.481   8.864
 2319POPC   GL231550  32.971  38.396   8.864
 2319POPC   C1A31551  33.006  38.478   8.564
 2319POPC   D2A31552  33.048  38.469   8.264
 2319POPC   C3A31553  33.025  38.429   7.964
 2319POPC   C4A31554  32.999  38.478   7.664
 2319POPC   C1B31555  32.861  38.263   8.564
 2319POPC   C2B31556  32.873  38.292   8.264
 2319POPC   C3B31557  32.874  38.261   7.964
 2319POPC   C4B31558  32.846  38.264   7.664
 2320POPC   NC331559  36.869  43.929   9.464
 2320POPC   PO431560  36.894  43.881   9.164
 2320POPC   GL131561  36.903  43.892   8.864
 2320POPC   GL231562  36.827  43.824   8.864
 2320POPC   C1A31563  36.928  43.897   8.564
 2320POPC   D2A31564  36.924  43.905   8.264
 2320POPC   C3A31565  36.862  43.879   7.964
 2320POPC   C4A31566  36.864  43.896   7.664
 2320POPC   C1B31567  36.711  43.726   8.564
 2320POPC   C2B31568  36.684  43.700   8.264
 2320POPC   C3B31569  36.703  43.737   7.964
 2320POPC   C4B31570  36.731  43.678   7.664
 2321POPC   NC331571  28.375   5.848   9.464
 2321POPC   PO431572  28.391   5.874   9.164
 2321POPC   GL131573  28.326   5.894   8.864
 2321POPC   GL231574  28.440   6.013   8.864
 2321POPC   C1A31575  28.396   5.878   8.564
 2321POPC   D2A31576  28.398   5.890   8.264
 2321POPC   C3A31577  28.407   5.891   7.964
 2321POPC   C4A31578  28.400   5.877   7.664
 2321POPC   C1B31579  28.420   6.068   8.564
 2321POPC   C2B31580  28.444   6.086   8.264
 2321POPC   C3B31581  28.392   6.125   7.964
 2321POPC   C4B31582  28.395   6.147   7.664
 2322POPC   NC331583   3.552  29.892   9.464
 2322POPC   PO431584   3.557  29.956   9.164
 2322POPC   GL131585   3.519  29.918   8.864
 2322POPC   GL231586   3.403  29.838   8.864
 2322POPC   C1A31587   3.511  29.909   8.564
 2322POPC   D2A31588   3.509  29.883   8.264
 2322POPC   C3A31589   3.509  29.916   7.964
 2322POPC   C4A31590   3.549  29.941   7.664
 2322POPC   C1B31591   3.294  29.854   8.564
 2322POPC   C2B31592   3.295  29.805   8.264
 2322POPC   C3B31593   3.346  29.820   7.964
 2322POPC   C4B31594   3.327  29.844   7.664
 2323POPC   NC331595  40.819  28.371   9.464
 2323POPC   PO431596  40.746  28.410   9.164
 2323POPC   GL131597  40.787  28.352   8.864
 2323POPC   GL231598  40.905  28.275   8.864
 2323POPC   C1A31599  40.820  28.320   8.564
 2323POPC   D2A31600  40.744  28.362   8.264
 2323POPC   C3A31601  40.785  28.343   7.964
 2323POPC   C4A31602  40.811  28.329   7.664
 2323POPC   C1B31603  41.028  28.218   8.564
 2323POPC   C2B31604  40.932  28.229   8.264
 2323POPC   C3B31605  41.012  28.205   7.964
 2323POPC   C4B31606  40.959  28.181   7.664
 2324POPC   NC331607  35.387  19.826   9.464
 2324POPC   PO431608  35.326  19.853   9.164
 2324POPC   GL131609  35.331  19.831   8.864
 2324POPC   GL231610  35.396  19.727   8.864
 2324POPC   C1A31611  35.388  19.789   8.564
 2324POPC   D2A31612  35.319  19.809   8.264
 2324POPC   C3A31613  35.349  19.849   7.964
 2324POPC   C4A31614  35.361  19.806   7.664
 2324POPC   C1B31615  35.335  19.548   8.564
 2324POPC   C2B31616  35.389  19.558   8.264
 2324POPC   C3B31617  35.370  19.565   7.964
 2324POPC   C4B31618  35.380  19.539   7.664
 2325POPC   NC331619  39.189  21.375   9.464
 2325POPC   PO431620  39.185  21.410   9.164
 2325POPC   GL131621  39.260  21.415   8.864
 2325POPC   GL231622  39.198  21.281   8.864
 2325POPC   C1A31623  39.238  21.436   8.564
 2325POPC   D2A31624  39.184  21.422   8.264
 2325POPC   C3A31625  39.198  21.354   7.964
 2325POPC   C4A31626  39.192  21.396   7.664
 2325POPC   C1B31627  39.160  21.094   8.564
 2325POPC   C2B31628  39.162  21.169   8.264
 2325POPC   C3B31629  39.188  21.179   7.964
 2325POPC   C4B31630  39.232  21.161   7.664
 2326POPC   NC331631   9.699  41.522   9.464
 2326POPC   PO431632   9.708  41.561   9.164
 2326POPC   GL131633   9.739  41.567   8.864
 2326POPC   GL231634   9.804  41.646   8.864
 2326POPC   C1A31635   9.770  41.527   8.564
 2326POPC   D2A31636   9.758  41.551   8.264
 2326POPC   C3A31637   9.734  41.556   7.964
 2326POPC   C4A31638   9.711  41.517   7.664
 2326POPC   C1B31639   9.878  41.780   8.564
 2326POPC   C2B31640   9.934  41.724   8.264
 2326POPC   C3B31641   9.914  41.766   7.964
 2326POPC   C4B31642   9.867  41.737   7.664
 2327POPC   NC331643   8.194   1.994   9.464
 2327POPC   PO431644   8.231   1.964   9.164
 2327POPC   GL131645   8.216   1.966   8.864
 2327POPC   GL231646   8.240   2.163   8.864
 2327POPC   C1A31647   8.183   2.003   8.564
 2327POPC   D2A31648   8.196   1.978   8.264
 2327POPC   C3A31649   8.245   2.000   7.964
 2327POPC   C4A31650   8.178   1.989   7.664
 2327POPC   C1B31651   8.231   2.227   8.564
 2327POPC   C2B31652   8.257   2.242   8.264
 2327POPC   C3B31653   8.217   2.275   7.964
 2327POPC   C4B31654   8.210   2.226   7.664
 2328POPC   NC331655  40.811   5.824   9.464
 2328POPC   PO431656  40.797   5.825   9.164
 2328POPC   GL131657  40.742   5.825   8.864
 2328POPC   GL231658  40.793   5.708   8.864
 2328POPC   C1A31659  40.750   5.847   8.564
 2328POPC   D2A31660  40.737   5.854   8.264
 2328POPC   C3A31661  40.736   5.827   7.964
 2328POPC   C4A31662  40.807   5.842   7.664
 2328POPC   C1B31663  40.704   5.669   8.564
 2328POPC   C2B31664  40.702   5.640   8.264
 2328POPC   C3B31665  40.738   5.619   7.964
 2328POPC   C4B31666  40.715   5.667   7.664
 2329POPC   NC331667  18.235  33.787   9.464
 2329POPC   PO431668  18.240  33.754   9.164
 2329POPC   GL131669  18.249  33.751   8.864
 2329POPC   GL231670  18.415  33.774   8.864
 2329POPC   C1A31671  18.301  33.779   8.564
 2329POPC   D2A31672  18.313  33.771   8.264
 2329POPC   C3A31673  18.312  33.829   7.964
 2329POPC   C4A31674  18.288  33.778   7.664
 2329POPC   C1B31675  18.533  33.711   8.564
 2329POPC   C2B31676  18.558  33.720   8.264
 2329POPC   C3B31677  18.503  33.691   7.964
 2329POPC   C4B31678  18.473  33.694   7.664
 2330POPC   NC331679  14.449  17.514   9.464
 2330POPC   PO431680  14.385  17.514   9.164
 2330POPC   GL131681  14.401  17.557   8.864
 2330POPC   GL231682  14.359  17.589   8.864
 2330POPC   C1A31683  14.368  17.486   8.564
 2330POPC   D2A31684  14.412  17.538   8.264
 2330POPC   C3A31685  14.368  17.551   7.964
 2330POPC   C4A31686  14.404  17.524   7.664
 2330POPC   C1B31687  14.277  17.653   8.564
 2330POPC   C2B31688  14.256  17.720   8.264
 2330POPC   C3B31689  14.242  17.676   7.964
 2330POPC   C4B31690  14.225  17.670   7.664
 2331POPC   NC331691  14.413  31.516   9.464
 2331POPC   PO431692  14.385  31.512   9.164
 2331POPC   GL131693  14.354  31.488   8.864
 2331POPC   GL231694  14.504  31.603   8.864
 2331POPC   C1A31695  14.385  31.462   8.564
 2331POPC   D2A31696  14.374  31.511   8.264
 2331POPC   C3A31697  14.380  31.504   7.964
 2331POPC   C4A31698  14.395  31.450   7.664
 2331POPC   C1B31699  14.525  31.709   8.564
 2331POPC   C2B31700  14.531  31.642   8.264
 2331POPC   C3B31701  14.574  31.713   7.964
 2331POPC   C4B31702  14.546  31.627   7.664
 2332POPC   NC331703  20.580   7.470   9.464
 2332POPC   PO431704  20.640   7.458   9.164
 2332POPC   GL131705  20.643   7.374   8.864
 2332POPC   GL231706  20.491   7.319   8.864
 2332POPC   C1A31707  20.613   7.432   8.564
 2332POPC   D2A31708  20.636   7.380   8.264
 2332POPC   C3A31709  20.636   7.471   7.964
 2332POPC   C4A31710  20.561   7.467   7.664
 2332POPC   C1B31711  20.424   7.223   8.564
 2332POPC   C2B31712  20.456   7.235   8.264
 2332POPC   C3B31713  20.448   7.224   7.964
 2332POPC   C4B31714  20.432   7.250   7.664
 2333POPC   NC331715  39.969  33.817   9.464
 2333POPC   PO431716  39.986  33.768   9.164
 2333POPC   GL131717  40.005  33.818   8.864
 2333POPC   GL231718  39.849  33.877   8.864
 2333POPC   C1A31719  39.968  33.781   8.564
 2333POPC   D2A31720  39.973  33.792   8.264
 2333POPC   C3A31721  40.020  33.846   7.964
 2333POPC   C4A31722  40.047  33.809   7.664
 2333POPC   C1B31723  39.741  33.908   8.564
 2333POPC   C2B31724  39.796  33.905   8.264
 2333POPC   C3B31725  39.750  33.852   7.964
 2333POPC   C4B31726  39.752  33.850   7.664
 2334POPC   NC331727  19.051   8.172   9.464
 2334POPC   PO431728  19.080   8.188   9.164
 2334POPC   GL131729  19.107   8.243   8.864
 2334POPC   GL231730  18.954   8.147   8.864
 2334POPC   C1A31731  19.049   8.228   8.564
 2334POPC   D2A31732  19.076   8.169   8.264
 2334POPC   C3A31733  19.077   8.149   7.964
 2334POPC   C4A31734  19.099   8.195   7.664
 2334POPC   C1B31735  18.783   8.145   8.564
 2334POPC   C2B31736  18.773   8.166   8.264
 2334POPC   C3B31737  18.823   8.184   7.964
 2334POPC   C4B31738  18.800   8.146   7.664
 2335POPC   NC331739  10.510   9.729   9.464
 2335POPC   PO431740  10.485   9.704   9.164
 2335POPC   GL131741  10.493   9.751   8.864
 2335POPC   GL231742  10.534   9.611   8.864
 2335POPC   C1A31743  10.564   9.736   8.564
 2335POPC   D2A31744  10.479   9.767   8.264
 2335POPC   C3A31745  10.509   9.775   7.964
 2335POPC   C4A31746  10.568   9.706   7.664
 2335POPC   C1B31747  10.413   9.558   8.564
 2335POPC   C2B31748  10.469   9.462   8.264
 2335POPC   C3B31749  10.469   9.469   7.964
 2335POPC   C4B31750  10.415   9.553   7.664
 2336POPC   NC331751  16.698  43.866   9.464
 2336POPC   PO431752  16.685  43.845   9.164
 2336POPC   GL131753  16.703  43.916   8.864
 2336POPC   GL231754  16.823  43.897   8.864
 2336POPC   C1A31755  16.730  43.860   8.564
 2336POPC   D2A31756  16.744  43.893   8.264
 2336POPC   C3A31757  16.722  43.845   7.964
 2336POPC   C4A31758  16.716  43.893   7.664
 2336POPC   C1B31759  17.023  43.820   8.564
 2336POPC   C2B31760  17.002  43.822   8.264
 2336POPC   C3B31761  16.939  43.844   7.964
 2336POPC   C4B31762  17.013  43.807   7.664
 2337POPC   NC331763  19.021   5.844   9.464
 2337POPC   PO431764  19.063   5.852   9.164
 2337POPC   GL131765  19.048   5.849   8.864
 2337POPC   GL231766  19.153   5.865   8.864
 2337POPC   C1A31767  19.103   5.869   8.564
 2337POPC   D2A31768  19.021   5.885   8.264
 2337POPC   C3A31769  19.108   5.826   7.964
 2337POPC   C4A31770  19.097   5.821   7.664
 2337POPC   C1B31771  19.317   5.868   8.564
 2337POPC   C2B31772  19.327   5.900   8.264
 2337POPC   C3B31773  19.316   5.907   7.964
 2337POPC   C4B31774  19.327   5.923   7.664
 2338POPC   NC331775  26.040  43.846   9.464
 2338POPC   PO431776  26.009  43.903   9.164
 2338POPC   GL131777  26.050  43.921   8.864
 2338POPC   GL231778  25.896  43.854   8.864
 2338POPC   C1A31779  26.042  43.928   8.564
 2338POPC   D2A31780  26.057  43.873   8.264
 2338POPC   C3A31781  25.994  43.846   7.964
 2338POPC   C4A31782  26.080  43.855   7.664
 2338POPC   C1B31783  25.782  43.834   8.564
 2338POPC   C2B31784  25.826  43.826   8.264
 2338POPC   C3B31785  25.770  43.844   7.964
 2338POPC   C4B31786  25.832  43.845   7.664
 2339POPC   NC331787  19.802  22.194   9.464
 2339POPC   PO431788  19.853  22.166   9.164
 2339POPC   GL131789  19.785  22.115   8.864
 2339POPC   GL231790  19.904  22.268   8.864
 2339POPC   C1A31791  19.855  22.177   8.564
 2339POPC   D2A31792  19.877  22.201   8.264
 2339POPC   C3A31793  19.845  22.174   7.964
 2339POPC   C4A31794  19.806  22.211   7.664
 2339POPC   C1B31795  20.042  22.254   8.564
 2339POPC   C2B31796  20.091  22.318   8.264
 2339POPC   C3B31797  20.051  22.265   7.964
 2339POPC   C4B31798  20.027  22.311   7.664
 2340POPC   NC331799  34.592  32.988   9.464
 2340POPC   PO431800  34.615  33.003   9.164
 2340POPC   GL131801  34.559  33.008   8.864
 2340POPC   GL231802  34.683  33.033   8.864
 2340POPC   C1A31803  34.557  32.984   8.564
 2340POPC   D2A31804  34.550  33.004   8.264
 2340POPC   C3A31805  34.569  33.022   7.964
 2340POPC   C4A31806  34.601  33.007   7.664
 2340POPC   C1B31807  34.809  32.920   8.564
 2340POPC   C2B31808  34.795  32.987   8.264
 2340POPC   C3B31809  34.780  32.964   7.964
 2340POPC   C4B31810  34.793  32.894   7.664
 2341POPC   NC331811   5.136  43.142   9.464
 2341POPC   PO431812   5.046  43.152   9.164
 2341POPC   GL131813   5.105  43.143   8.864
 2341POPC   GL231814   5.200  43.196   8.864
 2341POPC   C1A31815   5.135  43.140   8.564
 2341POPC   D2A31816   5.113  43.145   8.264
 2341POPC   C3A31817   5.066  43.080   7.964
 2341POPC   C4A31818   5.099  43.156   7.664
 2341POPC   C1B31819   5.355  43.202   8.564
 2341POPC   C2B31820   5.361  43.194   8.264
 2341POPC   C3B31821   5.332  43.208   7.964
 2341POPC   C4B31822   5.283  43.221   7.664
 2342POPC   NC331823  19.872   0.482   9.464
 2342POPC   PO431824  19.818   0.454   9.164
 2342POPC   GL131825  19.831   0.405   8.864
 2342POPC   GL231826  19.906   0.334   8.864
 2342POPC   C1A31827  19.875   0.429   8.564
 2342POPC   D2A31828  19.840   0.420   8.264
 2342POPC   C3A31829  19.855   0.477   7.964
 2342POPC   C4A31830  19.834   0.405   7.664
 2342POPC   C1B31831  19.883   0.157   8.564
 2342POPC   C2B31832  19.852   0.151   8.264
 2342POPC   C3B31833  19.881   0.185   7.964
 2342POPC   C4B31834  19.881   0.238   7.664
 2343POPC   NC331835  36.170   3.569   9.464
 2343POPC   PO431836  36.159   3.500   9.164
 2343POPC   GL131837  36.157   3.560   8.864
 2343POPC   GL231838  36.040   3.626   8.864
 2343POPC   C1A31839  36.125   3.548   8.564
 2343POPC   D2A31840  36.095   3.576   8.264
 2343POPC   C3A31841  36.173   3.587   7.964
 2343POPC   C4A31842  36.175   3.515   7.664
 2343POPC   C1B31843  35.883   3.626   8.564
 2343POPC   C2B31844  35.877   3.668   8.264
 2343POPC   C3B31845  35.912   3.625   7.964
 2343POPC   C4B31846  35.920   3.606   7.664
 2344POPC   NC331847  42.372   9.727   9.464
 2344POPC   PO431848  42.323   9.777   9.164
 2344POPC   GL131849  42.371   9.704   8.864
 2344POPC   GL231850  42.414   9.669   8.864
 2344POPC   C1A31851  42.334   9.766   8.564
 2344POPC   D2A31852  42.372   9.725   8.264
 2344POPC   C3A31853  42.309   9.771   7.964
 2344POPC   C4A31854  42.384   9.717   7.664
 2344POPC   C1B31855  42.459   9.490   8.564
 2344POPC   C2B31856  42.473   9.567   8.264
 2344POPC   C3B31857  42.510   9.536   7.964
 2344POPC   C4B31858  42.508   9.546   7.664
 2345POPC   NC331859  34.615  41.550   9.464
 2345POPC   PO431860  34.548  41.513   9.164
 2345POPC   GL131861  34.625  41.594   8.864
 2345POPC   GL231862  34.651  41.511   8.864
 2345POPC   C1A31863  34.597  41.597   8.564
 2345POPC   D2A31864  34.622  41.605   8.264
 2345POPC   C3A31865  34.622  41.584   7.964
 2345POPC   C4A31866  34.615  41.596   7.664
 2345POPC   C1B31867  34.830  41.494   8.564
 2345POPC   C2B31868  34.791  41.467   8.264
 2345POPC   C3B31869  34.796  41.445   7.964
 2345POPC   C4B31870  34.763  41.423   7.664
 2346POPC   NC331871  37.663  41.527   9.464
 2346POPC   PO431872  37.718  41.564   9.164
 2346POPC   GL131873  37.643  41.538   8.864
 2346POPC   GL231874  37.755  41.589   8.864
 2346POPC   C1A31875  37.630  41.556   8.564
 2346POPC   D2A31876  37.649  41.518   8.264
 2346POPC   C3A31877  37.643  41.594   7.964
 2346POPC   C4A31878  37.680  41.596   7.664
 2346POPC   C1B31879  37.892  41.492   8.564
 2346POPC   C2B31880  37.902  41.558   8.264
 2346POPC   C3B31881  37.961  41.509   7.964
 2346POPC   C4B31882  37.926  41.540   7.664
 2347POPC   NC331883  36.123  18.236   9.464
 2347POPC   PO431884  36.096  18.305   9.164
 2347POPC   GL131885  36.084  18.255   8.864
 2347POPC   GL231886  36.017  18.215   8.864
 2347POPC   C1A31887  36.137  18.234   8.564
 2347POPC   D2A31888  36.151  18.263   8.264
 2347POPC   C3A31889  36.104  18.271   7.964
 2347POPC   C4A31890  36.123  18.312   7.664
 2347POPC   C1B31891  35.965  18.111   8.564
 2347POPC   C2B31892  36.009  18.028   8.264
 2347POPC   C3B31893  36.013  18.025   7.964
 2347POPC   C4B31894  35.999  18.040   7.664
 2348POPC   NC331895  26.026  24.538   9.464
 2348POPC   PO431896  25.995  24.462   9.164
 2348POPC   GL131897  26.042  24.463   8.864
 2348POPC   GL231898  25.941  24.414   8.864
 2348POPC   C1A31899  26.072  24.490   8.564
 2348POPC   D2A31900  26.061  24.490   8.264
 2348POPC   C3A31901  26.039  24.463   7.964
 2348POPC   C4A31902  26.014  24.479   7.664
 2348POPC   C1B31903  25.883  24.355   8.564
 2348POPC   C2B31904  25.832  24.305   8.264
 2348POPC   C3B31905  25.882  24.330   7.964
 2348POPC   C4B31906  25.816  24.315   7.664
 2349POPC   NC331907  22.154  28.414   9.464
 2349POPC   PO431908  22.189  28.380   9.164
 2349POPC   GL131909  22.146  28.353   8.864
 2349POPC   GL231910  22.302  28.393   8.864
 2349POPC   C1A31911  22.183  28.367   8.564
 2349POPC   D2A31912  22.126  28.401   8.264
 2349POPC   C3A31913  22.126  28.379   7.964
 2349POPC   C4A31914  22.211  28.382   7.664
 2349POPC   C1B31915  22.420  28.437   8.564
 2349POPC   C2B31916  22.380  28.430   8.264
 2349POPC   C3B31917  22.362  28.401   7.964
 2349POPC   C4B31918  22.370  28.441   7.664
 2350POPC   NC331919  16.754   3.583   9.464
 2350POPC   PO431920  16.745   3.529   9.164
 2350POPC   GL131921  16.713   3.524   8.864
 2350POPC   GL231922  16.592   3.550   8.864
 2350POPC   C1A31923  16.749   3.581   8.564
 2350POPC   D2A31924  16.780   3.508   8.264
 2350POPC   C3A31925  16.723   3.568   7.964
 2350POPC   C4A31926  16.716   3.580   7.664
 2350POPC   C1B31927  16.444   3.656   8.564
 2350POPC   C2B31928  16.506   3.588   8.264
 2350POPC   C3B31929  16.487   3.633   7.964
 2350POPC   C4B31930  16.517   3.621   7.664
 2351POPC   NC331931   6.664  42.286   9.464
 2351POPC   PO431932   6.682  42.286   9.164
 2351POPC   GL131933   6.681  42.341   8.864
 2351POPC   GL231934   6.755  42.319   8.864
 2351POPC   C1A31935   6.679  42.374   8.564
 2351POPC   D2A31936   6.601  42.293   8.264
 2351POPC   C3A31937   6.658  42.328   7.964
 2351POPC   C4A31938   6.694  42.366   7.664
 2351POPC   C1B31939   6.892  42.250   8.564
 2351POPC   C2B31940   6.862  42.266   8.264
 2351POPC   C3B31941   6.874  42.259   7.964
 2351POPC   C4B31942   6.924  42.317   7.664
 2352POPC   NC331943   7.444   8.167   9.464
 2352POPC   PO431944   7.444   8.156   9.164
 2352POPC   GL131945   7.420   8.210   8.864
 2352POPC   GL231946   7.311   8.129   8.864
 2352POPC   C1A31947   7.430   8.240   8.564
 2352POPC   D2A31948   7.372   8.163   8.264
 2352POPC   C3A31949   7.392   8.230   7.964
 2352POPC   C4A31950   7.454   8.184   7.664
 2352POPC   C1B31951   7.182   8.110   8.564
 2352POPC   C2B31952   7.171   8.136   8.264
 2352POPC   C3B31953   7.147   8.165   7.964
 2352POPC   C4B31954   7.203   8.167   7.664
 2353POPC   NC331955  21.349  27.613   9.464
 2353POPC   PO431956  21.422  27.570   9.164
 2353POPC   GL131957  21.430  27.573   8.864
 2353POPC   GL231958  21.496  27.467   8.864
 2353POPC   C1A31959  21.383  27.545   8.564
 2353POPC   D2A31960  21.365  27.586   8.264
 2353POPC   C3A31961  21.376  27.576   7.964
 2353POPC   C4A31962  21.366  27.611   7.664
 2353POPC   C1B31963  21.586  27.420   8.564
 2353POPC   C2B31964  21.531  27.426   8.264
 2353POPC   C3B31965  21.569  27.409   7.964
 2353POPC   C4B31966  21.534  27.388   7.664
 2354POPC   NC331967   2.770  26.836   9.464
 2354POPC   PO431968   2.815  26.805   9.164
 2354POPC   GL131969   2.760  26.781   8.864
 2354POPC   GL231970   2.725  26.920   8.864
 2354POPC   C1A31971   2.759  26.807   8.564
 2354POPC   D2A31972   2.765  26.794   8.264
 2354POPC   C3A31973   2.807  26.817   7.964
 2354POPC   C4A31974   2.799  26.799   7.664
 2354POPC   C1B31975   2.588  27.014   8.564
 2354POPC   C2B31976   2.615  26.996   8.264
 2354POPC   C3B31977   2.658  27.062   7.964
 2354POPC   C4B31978   2.653  27.019   7.664
 2355POPC   NC331979  26.053  20.563   9.464
 2355POPC   PO431980  26.026  20.575   9.164
 2355POPC   GL131981  26.063  20.611   8.864
 2355POPC   GL231982  25.992  20.497   8.864
 2355POPC   C1A31983  26.001  20.653   8.564
 2355POPC   D2A31984  25.997  20.605   8.264
 2355POPC   C3A31985  26.015  20.627   7.964
 2355POPC   C4A31986  26.086  20.601   7.664
 2355POPC   C1B31987  25.900  20.435   8.564
 2355POPC   C2B31988  25.918  20.380   8.264
 2355POPC   C3B31989  25.877  20.351   7.964
 2355POPC   C4B31990  25.946  20.347   7.664
 2356POPC   NC331991  41.531  28.319   9.464
 2356POPC   PO431992  41.528  28.368   9.164
 2356POPC   GL131993  41.584  28.347   8.864
 2356POPC   GL231994  41.489  28.307   8.864
 2356POPC   C1A31995  41.580  28.351   8.564
 2356POPC   D2A31996  41.571  28.352   8.264
 2356POPC   C3A31997  41.595  28.352   7.964
 2356POPC   C4A31998  41.522  28.419   7.664
 2356POPC   C1B31999  41.298  28.222   8.564
 2356POPC   C2B32000  41.306  28.296   8.264
 2356POPC   C3B32001  41.331  28.307   7.964
 2356POPC   C4B32002  41.283  28.241   7.664
 2357POPC   NC332003   1.181   9.785   9.464
 2357POPC   PO432004   1.259   9.768   9.164
 2357POPC   GL132005   1.210   9.729   8.864
 2357POPC   GL232006   1.229   9.835   8.864
 2357POPC   C1A32007   1.252   9.783   8.564
 2357POPC   D2A32008   1.235   9.756   8.264
 2357POPC   C3A32009   1.167   9.796   7.964
 2357POPC   C4A32010   1.232   9.736   7.664
 2357POPC   C1B32011   1.266   9.964   8.564
 2357POPC   C2B32012   1.208   9.995   8.264
 2357POPC   C3B32013   1.182  10.026   7.964
 2357POPC   C4B32014   1.244  10.030   7.664
 2358POPC   NC332015  30.650  31.481   9.464
 2358POPC   PO432016  30.690  31.499   9.164
 2358POPC   GL132017  30.719  31.450   8.864
 2358POPC   GL232018  30.760  31.394   8.864
 2358POPC   C1A32019  30.676  31.513   8.564
 2358POPC   D2A32020  30.718  31.511   8.264
 2358POPC   C3A32021  30.737  31.503   7.964
 2358POPC   C4A32022  30.700  31.500   7.664
 2358POPC   C1B32023  30.723  31.261   8.564
 2358POPC   C2B32024  30.771  31.207   8.264
 2358POPC   C3B32025  30.694  31.180   7.964
 2358POPC   C4B32026  30.758  31.241   7.664
 2359POPC   NC332027  41.594  25.313   9.464
 2359POPC   PO432028  41.588  25.217   9.164
 2359POPC   GL132029  41.598  25.229   8.864
 2359POPC   GL232030  41.645  25.392   8.864
 2359POPC   C1A32031  41.539  25.258   8.564
 2359POPC   D2A32032  41.570  25.259   8.264
 2359POPC   C3A32033  41.511  25.220   7.964
 2359POPC   C4A32034  41.595  25.300   7.664
 2359POPC   C1B32035  41.732  25.446   8.564
 2359POPC   C2B32036  41.752  25.485   8.264
 2359POPC   C3B32037  41.678  25.425   7.964
 2359POPC   C4B32038  41.683  25.468   7.664
 2360POPC   NC332039  44.629  21.432   9.464
 2360POPC   PO432040  44.647  21.393   9.164
 2360POPC   GL132041  44.705  21.365   8.864
 2360POPC   GL232042  44.769  21.475   8.864
 2360POPC   C1A32043  44.694  21.358   8.564
 2360POPC   D2A32044  44.644  21.370   8.264
 2360POPC   C3A32045  44.633  21.380   7.964
 2360POPC   C4A32046  44.622  21.399   7.664
 2360POPC   C1B32047  44.804  21.642   8.564
 2360POPC   C2B32048  44.806  21.646   8.264
 2360POPC   C3B32049  44.793  21.651   7.964
 2360POPC   C4B32050  44.746  21.592   7.664
 2361POPC   NC332051  41.585  38.432   9.464
 2361POPC   PO432052  41.608  38.504   9.164
 2361POPC   GL132053  41.594  38.493   8.864
 2361POPC   GL232054  41.550  38.603   8.864
 2361POPC   C1A32055  41.522  38.504   8.564
 2361POPC   D2A32056  41.581  38.454   8.264
 2361POPC   C3A32057  41.578  38.430   7.964
 2361POPC   C4A32058  41.576  38.453   7.664
 2361POPC   C1B32059  41.435  38.630   8.564
 2361POPC   C2B32060  41.414  38.715   8.264
 2361POPC   C3B32061  41.444  38.680   7.964
 2361POPC   C4B32062  41.485  38.657   7.664
 2362POPC   NC332063  19.100  43.901   9.464
 2362POPC   PO432064  19.021  43.892   9.164
 2362POPC   GL132065  19.012  43.850   8.864
 2362POPC   GL232066  19.177  43.918   8.864
 2362POPC   C1A32067  19.058  43.862   8.564
 2362POPC   D2A32068  19.061  43.925   8.264
 2362POPC   C3A32069  19.073  43.838   7.964
 2362POPC   C4A32070  19.038  43.904   7.664
 2362POPC   C1B32071  19.290  44.009   8.564
 2362POPC   C2B32072  19.227  44.029   8.264
 2362POPC   C3B32073  19.254  44.014   7.964
 2362POPC   C4B32074  19.257  44.046   7.664
 2363POPC   NC332075  39.270   1.195   9.464
 2363POPC   PO432076  39.269   1.237   9.164
 2363POPC   GL132077  39.217   1.262   8.864
 2363POPC   GL232078  39.195   1.108   8.864
 2363POPC   C1A32079  39.236   1.179   8.564
 2363POPC   D2A32080  39.187   1.168   8.264
 2363POPC   C3A32081  39.211   1.240   7.964
 2363POPC   C4A32082  39.226   1.246   7.664
 2363POPC   C1B32083  39.232   0.965   8.564
 2363POPC   C2B32084  39.260   1.010   8.264
 2363POPC   C3B32085  39.256   0.984   7.964
 2363POPC   C4B32086  39.253   0.924   7.664
 2364POPC   NC332087  26.030  18.300   9.464
 2364POPC   PO432088  26.028  18.252   9.164
 2364POPC   GL132089  26.021  18.242   8.864
 2364POPC   GL232090  26.201  18.177   8.864
 2364POPC   C1A32091  26.087  18.292   8.564
 2364POPC   D2A32092  26.088  18.257   8.264
 2364POPC   C3A32093  26.029  18.251   7.964
 2364POPC   C4A32094  26.034  18.330   7.664
 2364POPC   C1B32095  26.238  18.168   8.564
 2364POPC   C2B32096  26.295  18.211   8.264
 2364POPC   C3B32097  26.217  18.156   7.964
 2364POPC   C4B32098  26.272  18.156   7.664
 2365POPC   NC332099   8.159  11.328   9.464
 2365POPC   PO432100   8.182  11.325   9.164
 2365POPC   GL132101   8.226  11.336   8.864
 2365POPC   GL232102   8.132  11.327   8.864
 2365POPC   C1A32103   8.220  11.275   8.564
 2365POPC   D2A32104   8.221  11.284   8.264
 2365POPC   C3A32105   8.168  11.265   7.964
 2365POPC   C4A32106   8.224  11.343   7.664
 2365POPC   C1B32107   7.990  11.449   8.564
 2365POPC   C2B32108   7.992  11.433   8.264
 2365POPC   C3B32109   7.946  11.402   7.964
 2365POPC   C4B32110   7.968  11.393   7.664
 2366POPC   NC332111  33.059  32.271   9.464
 2366POPC   PO432112  33.053  32.278   9.164
 2366POPC   GL132113  33.037  32.250   8.864
 2366POPC   GL232114  32.942  32.179   8.864
 2366POPC   C1A32115  33.068  32.244   8.564
 2366POPC   D2A32116  33.003  32.275   8.264
 2366POPC   C3A32117  33.029  32.289   7.964
 2366POPC   C4A32118  33.025  32.290   7.664
 2366POPC   C1B32119  32.887  32.046   8.564
 2366POPC   C2B32120  32.906  32.031   8.264
 2366POPC   C3B32121  32.871  31.995   7.964
 2366POPC   C4B32122  32.907  32.056   7.664
 2367POPC   NC332123   3.531  43.151   9.464
 2367POPC   PO432124   3.535  43.117   9.164
 2367POPC   GL132125   3.560  43.157   8.864
 2367POPC   GL232126   3.641  42.947   8.864
 2367POPC   C1A32127   3.512  43.067   8.564
 2367POPC   D2A32128   3.505  43.079   8.264
 2367POPC   C3A32129   3.533  43.130   7.964
 2367POPC   C4A32130   3.546  43.111   7.664
 2367POPC   C1B32131   3.678  42.860   8.564
 2367POPC   C2B32132   3.615  42.836   8.264
 2367POPC   C3B32133   3.624  42.883   7.964
 2367POPC   C4B32134   3.636  42.901   7.664
 2368POPC   NC332135  33.005   1.221   9.464
 2368POPC   PO432136  32.990   1.196   9.164
 2368POPC   GL132137  33.064   1.228   8.864
 2368POPC   GL232138  32.963   1.067   8.864
 2368POPC   C1A32139  33.026   1.248   8.564
 2368POPC   D2A32140  33.051   1.208   8.264
 2368POPC   C3A32141  33.015   1.238   7.964
 2368POPC   C4A32142  33.016   1.201   7.664
 2368POPC   C1B32143  32.895   1.027   8.564
 2368POPC   C2B32144  32.823   1.036   8.264
 2368POPC   C3B32145  32.831   0.977   7.964
 2368POPC   C4B32146  32.851   1.059   7.664
 2369POPC   NC332147   8.232  28.347   9.464
 2369POPC   PO432148   8.198  28.400   9.164
 2369POPC   GL132149   8.150  28.344   8.864
 2369POPC   GL232150   8.061  28.405   8.864
 2369POPC   C1A32151   8.240  28.322   8.564
 2369POPC   D2A32152   8.211  28.327   8.264
 2369POPC   C3A32153   8.197  28.345   7.964
 2369POPC   C4A32154   8.238  28.339   7.664
 2369POPC   C1B32155   7.953  28.320   8.564
 2369POPC   C2B32156   7.918  28.318   8.264
 2369POPC   C3B32157   7.940  28.340   7.964
 2369POPC   C4B32158   7.930  28.372   7.664
 2370POPC   NC332159  16.686  37.705   9.464
 2370POPC   PO432160  16.766  37.666   9.164
 2370POPC   GL132161  16.716  37.632   8.864
 2370POPC   GL232162  16.695  37.852   8.864
 2370POPC   C1A32163  16.706  37.680   8.564
 2370POPC   D2A32164  16.761  37.681   8.264
 2370POPC   C3A32165  16.707  37.677   7.964
 2370POPC   C4A32166  16.683  37.725   7.664
 2370POPC   C1B32167  16.703  37.927   8.564
 2370POPC   C2B32168  16.745  37.966   8.264
 2370POPC   C3B32169  16.691  37.962   7.964
 2370POPC   C4B32170  16.693  37.908   7.664
 2371POPC   NC332171  17.500   5.886   9.464
 2371POPC   PO432172  17.531   5.853   9.164
 2371POPC   GL132173  17.496   5.844   8.864
 2371POPC   GL232174  17.545   6.030   8.864
 2371POPC   C1A32175  17.491   5.912   8.564
 2371POPC   D2A32176  17.533   5.893   8.264
 2371POPC   C3A32177  17.534   5.866   7.964
 2371POPC   C4A32178  17.460   5.917   7.664
 2371POPC   C1B32179  17.487   6.096   8.564
 2371POPC   C2B32180  17.462   6.126   8.264
 2371POPC   C3B32181  17.449   6.126   7.964
 2371POPC   C4B32182  17.449   6.157   7.664
 2372POPC   NC332183   5.084  24.537   9.464
 2372POPC   PO432184   5.121  24.531   9.164
 2372POPC   GL132185   5.133  24.538   8.864
 2372POPC   GL232186   5.093  24.337   8.864
 2372POPC   C1A32187   5.064  24.502   8.564
 2372POPC   D2A32188   5.133  24.471   8.264
 2372POPC   C3A32189   5.084  24.512   7.964
 2372POPC   C4A32190   5.067  24.467   7.664
 2372POPC   C1B32191   5.023  24.198   8.564
 2372POPC   C2B32192   5.052  24.263   8.264
 2372POPC   C3B32193   5.000  24.244   7.964
 2372POPC   C4B32194   5.010  24.279   7.664
 2373POPC   NC332195   4.279  22.978   9.464
 2373POPC   PO432196   4.298  22.901   9.164
 2373POPC   GL132197   4.295  22.907   8.864
 2373POPC   GL232198   4.245  22.878   8.864
 2373POPC   C1A32199   4.298  22.889   8.564
 2373POPC   D2A32200   4.335  22.977   8.264
 2373POPC   C3A32201   4.346  22.942   7.964
 2373POPC   C4A32202   4.342  22.972   7.664
 2373POPC   C1B32203   4.154  22.750   8.564
 2373POPC   C2B32204   4.095  22.763   8.264
 2373POPC   C3B32205   4.141  22.753   7.964
 2373POPC   C4B32206   4.088  22.808   7.664
 2374POPC   NC332207  11.346  22.956   9.464
 2374POPC   PO432208  11.334  22.953   9.164
 2374POPC   GL132209  11.312  22.987   8.864
 2374POPC   GL232210  11.365  23.082   8.864
 2374POPC   C1A32211  11.316  22.903   8.564
 2374POPC   D2A32212  11.258  22.914   8.264
 2374POPC   C3A32213  11.268  22.944   7.964
 2374POPC   C4A32214  11.290  22.981   7.664
 2374POPC   C1B32215  11.381  23.198   8.564
 2374POPC   C2B32216  11.307  23.209   8.264
 2374POPC   C3B32217  11.339  23.173   7.964
 2374POPC   C4B32218  11.307  23.166   7.664
 2375POPC   NC332219  19.076  42.364   9.464
 2375POPC   PO432220  19.055  42.299   9.164
 2375POPC   GL132221  19.090  42.384   8.864
 2375POPC   GL232222  19.186  42.288   8.864
 2375POPC   C1A32223  19.077  42.314   8.564
 2375POPC   D2A32224  19.040  42.339   8.264
 2375POPC   C3A32225  19.040  42.352   7.964
 2375POPC   C4A32226  19.100  42.374   7.664
 2375POPC   C1B32227  19.234  42.143   8.564
 2375POPC   C2B32228  19.217  42.162   8.264
 2375POPC   C3B32229  19.313  42.165   7.964
 2375POPC   C4B32230  19.287  42.240   7.664
 2376POPC   NC332231   5.873  12.117   9.464
 2376POPC   PO432232   5.832  12.040   9.164
 2376POPC   GL132233   5.826  12.122   8.864
 2376POPC   GL232234   5.883  12.228   8.864
 2376POPC   C1A32235   5.824  12.030   8.564
 2376POPC   D2A32236   5.857  12.081   8.264
 2376POPC   C3A32237   5.868  12.091   7.964
 2376POPC   C4A32238   5.891  12.081   7.664
 2376POPC   C1B32239   5.956  12.303   8.564
 2376POPC   C2B32240   5.928  12.285   8.264
 2376POPC   C3B32241   6.007  12.303   7.964
 2376POPC   C4B32242   5.974  12.299   7.664
 2377POPC   NC332243   8.167  37.646   9.464
 2377POPC   PO432244   8.202  37.691   9.164
 2377POPC   GL132245   8.235  37.644   8.864
 2377POPC   GL232246   8.155  37.533   8.864
 2377POPC   C1A32247   8.211  37.650   8.564
 2377POPC   D2A32248   8.246  37.695   8.264
 2377POPC   C3A32249   8.234  37.692   7.964
 2377POPC   C4A32250   8.187  37.669   7.664
 2377POPC   C1B32251   8.106  37.431   8.564
 2377POPC   C2B32252   8.140  37.491   8.264
 2377POPC   C3B32253   8.109  37.482   7.964
 2377POPC   C4B32254   8.100  37.440   7.664
 2378POPC   NC332255   1.956   5.080   9.464
 2378POPC   PO432256   2.030   5.096   9.164
 2378POPC   GL132257   1.958   5.104   8.864
 2378POPC   GL232258   1.857   5.103   8.864
 2378POPC   C1A32259   1.981   5.094   8.564
 2378POPC   D2A32260   1.993   5.094   8.264
 2378POPC   C3A32261   1.975   5.052   7.964
 2378POPC   C4A32262   2.003   5.119   7.664
 2378POPC   C1B32263   1.729   5.130   8.564
 2378POPC   C2B32264   1.768   5.160   8.264
 2378POPC   C3B32265   1.735   5.072   7.964
 2378POPC   C4B32266   1.710   5.074   7.664
 2379POPC   NC332267  10.514  16.735   9.464
 2379POPC   PO432268  10.478  16.706   9.164
 2379POPC   GL132269  10.484  16.737   8.864
 2379POPC   GL232270  10.366  16.726   8.864
 2379POPC   C1A32271  10.495  16.766   8.564
 2379POPC   D2A32272  10.479  16.726   8.264
 2379POPC   C3A32273  10.538  16.767   7.964
 2379POPC   C4A32274  10.524  16.717   7.664
 2379POPC   C1B32275  10.242  16.796   8.564
 2379POPC   C2B32276  10.264  16.736   8.264
 2379POPC   C3B32277  10.288  16.767   7.964
 2379POPC   C4B32278  10.250  16.813   7.664
 2380POPC   NC332279   7.448  27.592   9.464
 2380POPC   PO432280   7.417  27.561   9.164
 2380POPC   GL132281   7.411  27.621   8.864
 2380POPC   GL232282   7.282  27.580   8.864
 2380POPC   C1A32283   7.411  27.623   8.564
 2380POPC   D2A32284   7.438  27.578   8.264
 2380POPC   C3A32285   7.382  27.630   7.964
 2380POPC   C4A32286   7.437  27.640   7.664
 2380POPC   C1B32287   7.169  27.681   8.564
 2380POPC   C2B32288   7.171  27.675   8.264
 2380POPC   C3B32289   7.186  27.607   7.964
 2380POPC   C4B32290   7.145  27.648   7.664
 2381POPC   NC332291  41.572   5.870   9.464
 2381POPC   PO432292  41.603   5.831   9.164
 2381POPC   GL132293  41.530   5.903   8.864
 2381POPC   GL232294  41.597   5.946   8.864
 2381POPC   C1A32295  41.552   5.903   8.564
 2381POPC   D2A32296  41.524   5.867   8.264
 2381POPC   C3A32297  41.513   5.848   7.964
 2381POPC   C4A32298  41.603   5.897   7.664
 2381POPC   C1B32299  41.759   6.069   8.564
 2381POPC   C2B32300  41.728   6.006   8.264
 2381POPC   C3B32301  41.771   6.006   7.964
 2381POPC   C4B32302  41.687   6.017   7.664
 2382POPC   NC332303  35.401   3.572   9.464
 2382POPC   PO432304  35.368   3.526   9.164
 2382POPC   GL132305  35.307   3.530   8.864
 2382POPC   GL232306  35.432   3.604   8.864
 2382POPC   C1A32307  35.363   3.519   8.564
 2382POPC   D2A32308  35.307   3.542   8.264
 2382POPC   C3A32309  35.337   3.574   7.964
 2382POPC   C4A32310  35.334   3.519   7.664
 2382POPC   C1B32311  35.541   3.710   8.564
 2382POPC   C2B32312  35.535   3.764   8.264
 2382POPC   C3B32313  35.482   3.742   7.964
 2382POPC   C4B32314  35.532   3.731   7.664
 2383POPC   NC332315  29.126   7.434   9.464
 2383POPC   PO432316  29.124   7.401   9.164
 2383POPC   GL132317  29.170   7.373   8.864
 2383POPC   GL232318  29.056   7.349   8.864
 2383POPC   C1A32319  29.183   7.416   8.564
 2383POPC   D2A32320  29.156   7.386   8.264
 2383POPC   C3A32321  29.126   7.456   7.964
 2383POPC   C4A32322  29.117   7.457   7.664
 2383POPC   C1B32323  28.955   7.335   8.564
 2383POPC   C2B32324  28.961   7.341   8.264
 2383POPC   C3B32325  28.889   7.277   7.964
 2383POPC   C4B32326  28.899   7.350   7.664
 2384POPC   NC332327  37.704  33.787   9.464
 2384POPC   PO432328  37.637  33.817   9.164
 2384POPC   GL132329  37.642  33.845   8.864
 2384POPC   GL232330  37.522  33.743   8.864
 2384POPC   C1A32331  37.664  33.759   8.564
 2384POPC   D2A32332  37.696  33.842   8.264
 2384POPC   C3A32333  37.700  33.826   7.964
 2384POPC   C4A32334  37.702  33.829   7.664
 2384POPC   C1B32335  37.412  33.746   8.564
 2384POPC   C2B32336  37.428  33.727   8.264
 2384POPC   C3B32337  37.477  33.774   7.964
 2384POPC   C4B32338  37.426  33.705   7.664
 2385POPC   NC332339  20.604  36.899   9.464
 2385POPC   PO432340  20.648  36.856   9.164
 2385POPC   GL132341  20.568  36.902   8.864
 2385POPC   GL232342  20.767  36.839   8.864
 2385POPC   C1A32343  20.614  36.937   8.564
 2385POPC   D2A32344  20.607  36.863   8.264
 2385POPC   C3A32345  20.583  36.888   7.964
 2385POPC   C4A32346  20.597  36.951   7.664
 2385POPC   C1B32347  20.895  36.855   8.564
 2385POPC   C2B32348  20.838  36.869   8.264
 2385POPC   C3B32349  20.863  36.843   7.964
 2385POPC   C4B32350  20.881  36.831   7.664
 2386POPC   NC332351  13.624  23.760   9.464
 2386POPC   PO432352  13.641  23.699   9.164
 2386POPC   GL132353  13.592  23.714   8.864
 2386POPC   GL232354  13.534  23.804   8.864
 2386POPC   C1A32355  13.626  23.693   8.564
 2386POPC   D2A32356  13.634  23.738   8.264
 2386POPC   C3A32357  13.616  23.738   7.964
 2386POPC   C4A32358  13.633  23.724   7.664
 2386POPC   C1B32359  13.446  23.817   8.564
 2386POPC   C2B32360  13.464  23.850   8.264
 2386POPC   C3B32361  13.414  23.811   7.964
 2386POPC   C4B32362  13.432  23.868   7.664
 2387POPC   NC332363   6.664  29.908   9.464
 2387POPC   PO432364   6.602  29.883   9.164
 2387POPC   GL132365   6.636  29.970   8.864
 2387POPC   GL232366   6.783  29.800   8.864
 2387POPC   C1A32367   6.642  29.960   8.564
 2387POPC   D2A32368   6.610  29.894   8.264
 2387POPC   C3A32369   6.617  29.970   7.964
 2387POPC   C4A32370   6.658  29.945   7.664
 2387POPC   C1B32371   6.842  29.783   8.564
 2387POPC   C2B32372   6.867  29.708   8.264
 2387POPC   C3B32373   6.873  29.759   7.964
 2387POPC   C4B32374   6.784  29.786   7.664
 2388POPC   NC332375  26.074   8.169   9.464
 2388POPC   PO432376  26.035   8.196   9.164
 2388POPC   GL132377  26.023   8.244   8.864
 2388POPC   GL232378  25.951   8.127   8.864
 2388POPC   C1A32379  26.088   8.245   8.564
 2388POPC   D2A32380  26.064   8.211   8.264
 2388POPC   C3A32381  26.028   8.210   7.964
 2388POPC   C4A32382  26.052   8.161   7.664
 2388POPC   C1B32383  25.804   8.119   8.564
 2388POPC   C2B32384  25.785   8.108   8.264
 2388POPC   C3B32385  25.838   8.060   7.964
 2388POPC   C4B32386  25.850   8.122   7.664
 2389POPC   NC332387   1.251  21.429   9.464
 2389POPC   PO432388   1.217  21.380   9.164
 2389POPC   GL132389   1.240  21.395   8.864
 2389POPC   GL232390   1.298  21.465   8.864
 2389POPC   C1A32391   1.169  21.404   8.564
 2389POPC   D2A32392   1.185  21.347   8.264
 2389POPC   C3A32393   1.200  21.411   7.964
 2389POPC   C4A32394   1.228  21.394   7.664
 2389POPC   C1B32395   1.433  21.460   8.564
 2389POPC   C2B32396   1.453  21.462   8.264
 2389POPC   C3B32397   1.460  21.467   7.964
 2389POPC   C4B32398   1.480  21.507   7.664
 2390POPC   NC332399  35.337   8.219   9.464
 2390POPC   PO432400  35.344   8.202   9.164
 2390POPC   GL132401  35.366   8.244   8.864
 2390POPC   GL232402  35.247   8.231   8.864
 2390POPC   C1A32403  35.355   8.196   8.564
 2390POPC   D2A32404  35.343   8.224   8.264
 2390POPC   C3A32405  35.398   8.173   7.964
 2390POPC   C4A32406  35.376   8.208   7.664
 2390POPC   C1B32407  35.142   8.125   8.564
 2390POPC   C2B32408  35.119   8.146   8.264
 2390POPC   C3B32409  35.137   8.169   7.964
 2390POPC   C4B32410  35.139   8.189   7.664
 2391POPC   NC332411  12.109  22.936   9.464
 2391POPC   PO432412  12.034  22.955   9.164
 2391POPC   GL132413  12.095  22.969   8.864
 2391POPC   GL232414  12.207  22.863   8.864
 2391POPC   C1A32415  12.049  22.983   8.564
 2391POPC   D2A32416  12.035  22.967   8.264
 2391POPC   C3A32417  12.030  22.953   7.964
 2391POPC   C4A32418  12.090  22.911   7.664
 2391POPC   C1B32419  12.316  22.756   8.564
 2391POPC   C2B32420  12.217  22.736   8.264
 2391POPC   C3B32421  12.300  22.819   7.964
 2391POPC   C4B32422  12.279  22.784   7.664
 2392POPC   NC332423  19.097  26.841   9.464
 2392POPC   PO432424  19.071  26.783   9.164
 2392POPC   GL132425  19.047  26.769   8.864
 2392POPC   GL232426  18.891  26.875   8.864
 2392POPC   C1A32427  19.059  26.840   8.564
 2392POPC   D2A32428  19.043  26.784   8.264
 2392POPC   C3A32429  19.043  26.798   7.964
 2392POPC   C4A32430  19.065  26.776   7.664
 2392POPC   C1B32431  18.792  26.851   8.564
 2392POPC   C2B32432  18.816  26.831   8.264
 2392POPC   C3B32433  18.856  26.852   7.964
 2392POPC   C4B32434  18.859  26.828   7.664
 2393POPC   NC332435  26.839  41.551   9.464
 2393POPC   PO432436  26.773  41.544   9.164
 2393POPC   GL132437  26.808  41.597   8.864
 2393POPC   GL232438  26.723  41.416   8.864
 2393POPC   C1A32439  26.831  41.598   8.564
 2393POPC   D2A32440  26.811  41.600   8.264
 2393POPC   C3A32441  26.789  41.594   7.964
 2393POPC   C4A32442  26.816  41.533   7.664
 2393POPC   C1B32443  26.681  41.385   8.564
 2393POPC   C2B32444  26.640  41.385   8.264
 2393POPC   C3B32445  26.635  41.351   7.964
 2393POPC   C4B32446  26.708  41.327   7.664
 2394POPC   NC332447  44.614  38.414   9.464
 2394POPC   PO432448  44.636  38.441   9.164
 2394POPC   GL132449  44.687  38.413   8.864
 2394POPC   GL232450  44.661  38.337   8.864
 2394POPC   C1A32451  44.616  38.471   8.564
 2394POPC   D2A32452  44.698  38.409   8.264
 2394POPC   C3A32453  44.668  38.440   7.964
 2394POPC   C4A32454  44.645  38.475   7.664
 2394POPC   C1B32455  44.621  38.222   8.564
 2394POPC   C2B32456  44.604  38.210   8.264
 2394POPC   C3B32457  44.624  38.260   7.964
 2394POPC   C4B32458  44.606  38.185   7.664
 2395POPC   NC332459  10.519  10.486   9.464
 2395POPC   PO432460  10.539  10.564   9.164
 2395POPC   GL132461  10.502  10.572   8.864
 2395POPC   GL232462  10.553  10.663   8.864
 2395POPC   C1A32463  10.532  10.488   8.564
 2395POPC   D2A32464  10.484  10.521   8.264
 2395POPC   C3A32465  10.558  10.524   7.964
 2395POPC   C4A32466  10.477  10.510   7.664
 2395POPC   C1B32467  10.598  10.731   8.564
 2395POPC   C2B32468  10.609  10.806   8.264
 2395POPC   C3B32469  10.562  10.741   7.964
 2395POPC   C4B32470  10.626  10.744   7.664
 2396POPC   NC332471  19.813  12.057   9.464
 2396POPC   PO432472  19.833  12.032   9.164
 2396POPC   GL132473  19.787  12.072   8.864
 2396POPC   GL232474  19.824  12.150   8.864
 2396POPC   C1A32475  19.805  12.074   8.564
 2396POPC   D2A32476  19.849  12.121   8.264
 2396POPC   C3A32477  19.848  12.032   7.964
 2396POPC   C4A32478  19.870  12.085   7.664
 2396POPC   C1B32479  19.676  12.320   8.564
 2396POPC   C2B32480  19.673  12.305   8.264
 2396POPC   C3B32481  19.742  12.294   7.964
 2396POPC   C4B32482  19.692  12.326   7.664
 2397POPC   NC332483  18.326  17.512   9.464
 2397POPC   PO432484  18.284  17.511   9.164
 2397POPC   GL132485  18.288  17.526   8.864
 2397POPC   GL232486  18.402  17.489   8.864
 2397POPC   C1A32487  18.325  17.553   8.564
 2397POPC   D2A32488  18.241  17.551   8.264
 2397POPC   C3A32489  18.288  17.554   7.964
 2397POPC   C4A32490  18.314  17.463   7.664
 2397POPC   C1B32491  18.541  17.470   8.564
 2397POPC   C2B32492  18.525  17.512   8.264
 2397POPC   C3B32493  18.501  17.543   7.964
 2397POPC   C4B32494  18.544  17.521   7.664
 2398POPC   NC332495  17.516  44.619   9.464
 2398POPC   PO432496  17.518  44.674   9.164
 2398POPC   GL132497  17.471  44.678   8.864
 2398POPC   GL232498  17.573  44.777   8.864
 2398POPC   C1A32499  17.525  44.658   8.564
 2398POPC   D2A32500  17.537  44.684   8.264
 2398POPC   C3A32501  17.556  44.666   7.964
 2398POPC   C4A32502  17.538  44.656   7.664
 2398POPC   C1B32503  17.684  44.840   8.564
 2398POPC   C2B32504  17.666  44.790   8.264
 2398POPC   C3B32505  17.713  44.871   7.964
 2398POPC   C4B32506  17.738  44.780   7.664
 2399POPC   NC332507  43.074   9.014   9.464
 2399POPC   PO432508  43.109   8.969   9.164
 2399POPC   GL132509  43.063   8.929   8.864
 2399POPC   GL232510  43.187   9.037   8.864
 2399POPC   C1A32511  43.087   8.951   8.564
 2399POPC   D2A32512  43.073   9.006   8.264
 2399POPC   C3A32513  43.092   8.995   7.964
 2399POPC   C4A32514  43.119   8.992   7.664
 2399POPC   C1B32515  43.274   9.104   8.564
 2399POPC   C2B32516  43.289   9.105   8.264
 2399POPC   C3B32517  43.298   9.140   7.964
 2399POPC   C4B32518  43.256   9.134   7.664
 2400POPC   NC332519  20.653   4.345   9.464
 2400POPC   PO432520  20.587   4.302   9.164
 2400POPC   GL132521  20.626   4.283   8.864
 2400POPC   GL232522  20.698   4.319   8.864
 2400POPC   C1A32523  20.622   4.345   8.564
 2400POPC   D2A32524  20.621   4.289   8.264
 2400POPC   C3A32525  20.563   4.330   7.964
 2400POPC   C4A32526  20.656   4.331   7.664
 2400POPC   C1B32527  20.899   4.348   8.564
 2400POPC   C2B32528  20.852   4.272   8.264
 2400POPC   C3B32529  20.826   4.300   7.964
 2400POPC   C4B32530  20.821   4.279   7.664
 2401POPC   NC332531   2.799  40.005   9.464
 2401POPC   PO432532   2.786  39.982   9.164
 2401POPC   GL132533   2.719  40.001   8.864
 2401POPC   GL232534   2.807  39.872   8.864
 2401POPC   C1A32535   2.737  40.003   8.564
 2401POPC   D2A32536   2.737  40.007   8.264
 2401POPC   C3A32537   2.779  39.999   7.964
 2401POPC   C4A32538   2.762  40.044   7.664
 2401POPC   C1B32539   2.836  39.773   8.564
 2401POPC   C2B32540   2.829  39.818   8.264
 2401POPC   C3B32541   2.885  39.816   7.964
 2401POPC   C4B32542   2.817  39.731   7.664
 2402POPC   NC332543  12.876  20.636   9.464
 2402POPC   PO432544  12.805  20.607   9.164
 2402POPC   GL132545  12.901  20.624   8.864
 2402POPC   GL232546  12.691  20.556   8.864
 2402POPC   C1A32547  12.836  20.626   8.564
 2402POPC   D2A32548  12.819  20.587   8.264
 2402POPC   C3A32549  12.885  20.568   7.964
 2402POPC   C4A32550  12.836  20.654   7.664
 2402POPC   C1B32551  12.643  20.549   8.564
 2402POPC   C2B32552  12.657  20.516   8.264
 2402POPC   C3B32553  12.623  20.484   7.964
 2402POPC   C4B32554  12.592  20.494   7.664
 2403POPC   NC332555   4.284  20.580   9.464
 2403POPC   PO432556   4.353  20.567   9.164
 2403POPC   GL132557   4.349  20.567   8.864
 2403POPC   GL232558   4.234  20.472   8.864
 2403POPC   C1A32559   4.293  20.596   8.564
 2403POPC   D2A32560   4.313  20.618   8.264
 2403POPC   C3A32561   4.288  20.564   7.964
 2403POPC   C4A32562   4.309  20.585   7.664
 2403POPC   C1B32563   4.153  20.419   8.564
 2403POPC   C2B32564   4.208  20.457   8.264
 2403POPC   C3B32565   4.129  20.382   7.964
 2403POPC   C4B32566   4.180  20.383   7.664
 2404POPC   NC332567  30.660  36.923   9.464
 2404POPC   PO432568  30.702  36.951   9.164
 2404POPC   GL132569  30.662  36.931   8.864
 2404POPC   GL232570  30.790  36.822   8.864
 2404POPC   C1A32571  30.673  36.948   8.564
 2404POPC   D2A32572  30.698  36.896   8.264
 2404POPC   C3A32573  30.698  36.941   7.964
 2404POPC   C4A32574  30.699  36.949   7.664
 2404POPC   C1B32575  30.796  36.690   8.564
 2404POPC   C2B32576  30.809  36.740   8.264
 2404POPC   C3B32577  30.815  36.676   7.964
 2404POPC   C4B32578  30.833  36.698   7.664
 2405POPC   NC332579  12.894  39.958   9.464
 2405POPC   PO432580  12.860  40.006   9.164
 2405POPC   GL132581  12.894  40.012   8.864
 2405POPC   GL232582  12.894  40.139   8.864
 2405POPC   C1A32583  12.895  40.010   8.564
 2405POPC   D2A32584  12.828  40.051   8.264
 2405POPC   C3A32585  12.876  40.020   7.964
 2405POPC   C4A32586  12.804  39.974   7.664
 2405POPC   C1B32587  12.965  40.291   8.564
 2405POPC   C2B32588  12.900  40.231   8.264
 2405POPC   C3B32589  12.894  40.268   7.964
 2405POPC   C4B32590  12.937  40.209   7.664
 2406POPC   NC332591  30.655  26.001   9.464
 2406POPC   PO432592  30.664  26.049   9.164
 2406POPC   GL132593  30.715  26.079   8.864
 2406POPC   GL232594  30.787  25.993   8.864
 2406POPC   C1A32595  30.699  26.042   8.564
 2406POPC   D2A32596  30.650  26.059   8.264
 2406POPC   C3A32597  30.697  26.031   7.964
 2406POPC   C4A32598  30.666  26.089   7.664
 2406POPC   C1B32599  30.928  25.885   8.564
 2406POPC   C2B32600  30.866  25.884   8.264
 2406POPC   C3B32601  30.921  25.870   7.964
 2406POPC   C4B32602  30.871  25.937   7.664
 2407POPC   NC332603  44.669  33.809   9.464
 2407POPC   PO432604  44.661  33.788   9.164
 2407POPC   GL132605  44.628  33.821   8.864
 2407POPC   GL232606  44.542  33.775   8.864
 2407POPC   C1A32607  44.646  33.802   8.564
 2407POPC   D2A32608  44.657  33.791   8.264
 2407POPC   C3A32609  44.693  33.757   7.964
 2407POPC   C4A32610  44.656  33.767   7.664
 2407POPC   C1B32611  44.409  33.716   8.564
 2407POPC   C2B32612  44.406  33.722   8.264
 2407POPC   C3B32613  44.404  33.638   7.964
 2407POPC   C4B32614  44.406  33.687   7.664
 2408POPC   NC332615  34.550  22.937   9.464
 2408POPC   PO432616  34.617  22.925   9.164
 2408POPC   GL132617  34.596  22.890   8.864
 2408POPC   GL232618  34.708  22.967   8.864
 2408POPC   C1A32619  34.602  22.908   8.564
 2408POPC   D2A32620  34.579  22.933   8.264
 2408POPC   C3A32621  34.578  22.953   7.964
 2408POPC   C4A32622  34.535  22.916   7.664
 2408POPC   C1B32623  34.869  22.933   8.564
 2408POPC   C2B32624  34.825  22.972   8.264
 2408POPC   C3B32625  34.825  22.951   7.964
 2408POPC   C4B32626  34.816  22.940   7.664
 2409POPC   NC332627   5.836  44.680   9.464
 2409POPC   PO432628   5.846  44.642   9.164
 2409POPC   GL132629   5.862  44.696   8.864
 2409POPC   GL232630   5.985  44.579   8.864
 2409POPC   C1A32631   5.843  44.662   8.564
 2409POPC   D2A32632   5.907  44.686   8.264
 2409POPC   C3A32633   5.841  44.650   7.964
 2409POPC   C4A32634   5.882  44.661   7.664
 2409POPC   C1B32635   6.113  44.569   8.564
 2409POPC   C2B32636   6.121  44.550   8.264
 2409POPC   C3B32637   6.147  44.606   7.964
 2409POPC   C4B32638   6.117  44.576   7.664
 2410POPC   NC332639  32.977   4.324   9.464
 2410POPC   PO432640  33.020   4.339   9.164
 2410POPC   GL132641  33.073   4.347   8.864
 2410POPC   GL232642  32.944   4.379   8.864
 2410POPC   C1A32643  33.038   4.318   8.564
 2410POPC   D2A32644  33.014   4.289   8.264
 2410POPC   C3A32645  33.065   4.305   7.964
 2410POPC   C4A32646  33.026   4.299   7.664
 2410POPC   C1B32647  32.773   4.359   8.564
 2410POPC   C2B32648  32.815   4.348   8.264
 2410POPC   C3B32649  32.788   4.324   7.964
 2410POPC   C4B32650  32.772   4.371   7.664
 2411POPC   NC332651  15.151  29.156   9.464
 2411POPC   PO432652  15.151  29.128   9.164
 2411POPC   GL132653  15.147  29.139   8.864
 2411POPC   GL232654  15.215  29.291   8.864
 2411POPC   C1A32655  15.152  29.162   8.564
 2411POPC   D2A32656  15.195  29.149   8.264
 2411POPC   C3A32657  15.191  29.156   7.964
 2411POPC   C4A32658  15.198  29.135   7.664
 2411POPC   C1B32659  15.265  29.369   8.564
 2411POPC   C2B32660  15.345  29.368   8.264
 2411POPC   C3B32661  15.328  29.309   7.964
 2411POPC   C4B32662  15.288  29.402   7.664
 2412POPC   NC332663  21.387   2.015   9.464
 2412POPC   PO432664  21.428   1.998   9.164
 2412POPC   GL132665  21.344   1.949   8.864
 2412POPC   GL232666  21.396   1.866   8.864
 2412POPC   C1A32667  21.408   1.978   8.564
 2412POPC   D2A32668  21.369   2.026   8.264
 2412POPC   C3A32669  21.418   2.027   7.964
 2412POPC   C4A32670  21.407   1.943   7.664
 2412POPC   C1B32671  21.417   1.778   8.564
 2412POPC   C2B32672  21.439   1.787   8.264
 2412POPC   C3B32673  21.469   1.738   7.964
 2412POPC   C4B32674  21.452   1.768   7.664
 2413POPC   NC332675  24.518  26.833   9.464
 2413POPC   PO432676  24.480  26.867   9.164
 2413POPC   GL132677  24.486  26.817   8.864
 2413POPC   GL232678  24.343  26.801   8.864
 2413POPC   C1A32679  24.539  26.787   8.564
 2413POPC   D2A32680  24.482  26.835   8.264
 2413POPC   C3A32681  24.529  26.804   7.964
 2413POPC   C4A32682  24.477  26.839   7.664
 2413POPC   C1B32683  24.239  26.777   8.564
 2413POPC   C2B32684  24.269  26.716   8.264
 2413POPC   C3B32685  24.282  26.754   7.964
 2413POPC   C4B32686  24.273  26.689   7.664
 2414POPC   NC332687  29.879  27.600   9.464
 2414POPC   PO432688  29.941  27.633   9.164
 2414POPC   GL132689  29.933  27.593   8.864
 2414POPC   GL232690  30.045  27.561   8.864
 2414POPC   C1A32691  29.877  27.634   8.564
 2414POPC   D2A32692  29.904  27.549   8.264
 2414POPC   C3A32693  29.924  27.600   7.964
 2414POPC   C4A32694  29.927  27.627   7.664
 2414POPC   C1B32695  30.151  27.537   8.564
 2414POPC   C2B32696  30.200  27.527   8.264
 2414POPC   C3B32697  30.165  27.544   7.964
 2414POPC   C4B32698  30.123  27.573   7.664
 2415POPC   NC332699  11.272  33.825   9.464
 2415POPC   PO432700  11.295  33.799   9.164
 2415POPC   GL132701  11.271  33.770   8.864
 2415POPC   GL232702  11.274  33.641   8.864
 2415POPC   C1A32703  11.251  33.781   8.564
 2415POPC   D2A32704  11.319  33.774   8.264
 2415POPC   C3A32705  11.284  33.825   7.964
 2415POPC   C4A32706  11.252  33.760   7.664
 2415POPC   C1B32707  11.333  33.594   8.564
 2415POPC   C2B32708  11.337  33.600   8.264
 2415POPC   C3B32709  11.334  33.590   7.964
 2415POPC   C4B32710  11.307  33.555   7.664
 2416POPC   NC332711   4.278  17.461   9.464
 2416POPC   PO432712   4.332  17.531   9.164
 2416POPC   GL132713   4.308  17.509   8.864
 2416POPC   GL232714   4.173  17.409   8.864
 2416POPC   C1A32715   4.298  17.515   8.564
 2416POPC   D2A32716   4.312  17.509   8.264
 2416POPC   C3A32717   4.357  17.460   7.964
 2416POPC   C4A32718   4.269  17.514   7.664
 2416POPC   C1B32719   4.103  17.403   8.564
 2416POPC   C2B32720   4.057  17.383   8.264
 2416POPC   C3B32721   4.068  17.341   7.964
 2416POPC   C4B32722   4.143  17.346   7.664
 2417POPC   NC332723  29.191  33.049   9.464
 2417POPC   PO432724  29.150  33.055   9.164
 2417POPC   GL132725  29.105  32.979   8.864
 2417POPC   GL232726  29.196  33.160   8.864
 2417POPC   C1A32727  29.165  33.072   8.564
 2417POPC   D2A32728  29.109  33.012   8.264
 2417POPC   C3A32729  29.185  33.018   7.964
 2417POPC   C4A32730  29.111  33.037   7.664
 2417POPC   C1B32731  29.207  33.215   8.564
 2417POPC   C2B32732  29.220  33.278   8.264
 2417POPC   C3B32733  29.276  33.248   7.964
 2417POPC   C4B32734  29.207  33.254   7.664
 2418POPC   NC332735  40.052  43.111   9.464
 2418POPC   PO432736  40.042  43.148   9.164
 2418POPC   GL132737  40.019  43.145   8.864
 2418POPC   GL232738  40.092  43.156   8.864
 2418POPC   C1A32739  39.967  43.151   8.564
 2418POPC   D2A32740  40.029  43.062   8.264
 2418POPC   C3A32741  40.036  43.084   7.964
 2418POPC   C4A32742  40.049  43.093   7.664
 2418POPC   C1B32743  40.201  43.176   8.564
 2418POPC   C2B32744  40.209  43.255   8.264
 2418POPC   C3B32745  40.193  43.265   7.964
 2418POPC   C4B32746  40.273  43.247   7.664
 2419POPC   NC332747  32.987  33.043   9.464
 2419POPC   PO432748  33.043  33.035   9.164
 2419POPC   GL132749  32.986  33.059   8.864
 2419POPC   GL232750  32.956  33.106   8.864
 2419POPC   C1A32751  33.070  32.996   8.564
 2419POPC   D2A32752  33.060  33.064   8.264
 2419POPC   C3A32753  33.022  33.048   7.964
 2419POPC   C4A32754  33.021  33.064   7.664
 2419POPC   C1B32755  32.891  33.271   8.564
 2419POPC   C2B32756  32.969  33.267   8.264
 2419POPC   C3B32757  32.892  33.298   7.964
 2419POPC   C4B32758  32.892  33.296   7.664
 2420POPC   NC332759  36.869  33.812   9.464
 2420POPC   PO432760  36.933  33.843   9.164
 2420POPC   GL132761  36.942  33.841   8.864
 2420POPC   GL232762  36.985  33.737   8.864
 2420POPC   C1A32763  36.913  33.792   8.564
 2420POPC   D2A32764  36.923  33.755   8.264
 2420POPC   C3A32765  36.859  33.752   7.964
 2420POPC   C4A32766  36.892  33.808   7.664
 2420POPC   C1B32767  37.051  33.551   8.564
 2420POPC   C2B32768  36.992  33.591   8.264
 2420POPC   C3B32769  37.009  33.604   7.964
 2420POPC   C4B32770  37.025  33.628   7.664
 2421POPC   NC332771   0.441  38.407   9.464
 2421POPC   PO432772   0.448  38.412   9.164
 2421POPC   GL132773   0.414  38.457   8.864
 2421POPC   GL232774   0.557  38.534   8.864
 2421POPC   C1A32775   0.389  38.488   8.564
 2421POPC   D2A32776   0.488  38.422   8.264
 2421POPC   C3A32777   0.431  38.460   7.964
 2421POPC   C4A32778   0.481  38.460   7.664
 2421POPC   C1B32779   0.646  38.626   8.564
 2421POPC   C2B32780   0.684  38.602   8.264
 2421POPC   C3B32781   0.661  38.571   7.964
 2421POPC   C4B32782   0.636  38.581   7.664
 2422POPC   NC332783   4.333   3.569   9.464
 2422POPC   PO432784   4.298   3.583   9.164
 2422POPC   GL132785   4.310   3.512   8.864
 2422POPC   GL232786   4.201   3.507   8.864
 2422POPC   C1A32787   4.296   3.503   8.564
 2422POPC   D2A32788   4.337   3.581   8.264
 2422POPC   C3A32789   4.323   3.515   7.964
 2422POPC   C4A32790   4.323   3.494   7.664
 2422POPC   C1B32791   4.137   3.403   8.564
 2422POPC   C2B32792   4.080   3.419   8.264
 2422POPC   C3B32793   4.080   3.423   7.964
 2422POPC   C4B32794   4.084   3.391   7.664
 2423POPC   NC332795  36.862  16.756   9.464
 2423POPC   PO432796  36.914  16.763   9.164
 2423POPC   GL132797  36.893  16.726   8.864
 2423POPC   GL232798  36.989  16.696   8.864
 2423POPC   C1A32799  36.912  16.778   8.564
 2423POPC   D2A32800  36.938  16.683   8.264
 2423POPC   C3A32801  36.933  16.682   7.964
 2423POPC   C4A32802  36.860  16.761   7.664
 2423POPC   C1B32803  37.124  16.692   8.564
 2423POPC   C2B32804  37.148  16.738   8.264
 2423POPC   C3B32805  37.170  16.706   7.964
 2423POPC   C4B32806  37.141  16.750   7.664
 2424POPC   NC332807  29.133  16.774   9.464
 2424POPC   PO432808  29.185  16.747   9.164
 2424POPC   GL132809  29.133  16.687   8.864
 2424POPC   GL232810  29.298  16.675   8.864
 2424POPC   C1A32811  29.120  16.776   8.564
 2424POPC   D2A32812  29.111  16.760   8.264
 2424POPC   C3A32813  29.138  16.728   7.964
 2424POPC   C4A32814  29.107  16.709   7.664
 2424POPC   C1B32815  29.420  16.758   8.564
 2424POPC   C2B32816  29.420  16.712   8.264
 2424POPC   C3B32817  29.379  16.680   7.964
 2424POPC   C4B32818  29.359  16.752   7.664
 2425POPC   NC332819  10.474  38.480   9.464
 2425POPC   PO432820  10.496  38.438   9.164
 2425POPC   GL132821  10.504  38.480   8.864
 2425POPC   GL232822  10.558  38.322   8.864
 2425POPC   C1A32823  10.488  38.426   8.564
 2425POPC   D2A32824  10.550  38.440   8.264
 2425POPC   C3A32825  10.531  38.444   7.964
 2425POPC   C4A32826  10.522  38.451   7.664
 2425POPC   C1B32827  10.475  38.220   8.564
 2425POPC   C2B32828  10.501  38.220   8.264
 2425POPC   C3B32829  10.521  38.158   7.964
 2425POPC   C4B32830  10.530  38.185   7.664
 2426POPC   NC332831  40.049   1.973   9.464
 2426POPC   PO432832  39.975   2.038   9.164
 2426POPC   GL132833  40.005   1.967   8.864
 2426POPC   GL232834  39.918   2.025   8.864
 2426POPC   C1A32835  39.985   1.974   8.564
 2426POPC   D2A32836  39.973   2.037   8.264
 2426POPC   C3A32837  40.036   1.977   7.964
 2426POPC   C4A32838  40.054   1.942   7.664
 2426POPC   C1B32839  39.734   2.133   8.564
 2426POPC   C2B32840  39.795   2.061   8.264
 2426POPC   C3B32841  39.802   2.067   7.964
 2426POPC   C4B32842  39.768   2.138   7.664
 2427POPC   NC332843  40.816   0.397   9.464
 2427POPC   PO432844  40.791   0.411   9.164
 2427POPC   GL132845  40.758   0.389   8.864
 2427POPC   GL232846  40.631   0.519   8.864
 2427POPC   C1A32847  40.810   0.471   8.564
 2427POPC   D2A32848  40.822   0.468   8.264
 2427POPC   C3A32849  40.809   0.488   7.964
 2427POPC   C4A32850  40.789   0.474   7.664
 2427POPC   C1B32851  40.586   0.476   8.564
 2427POPC   C2B32852  40.571   0.486   8.264
 2427POPC   C3B32853  40.510   0.543   7.964
 2427POPC   C4B32854  40.517   0.471   7.664
 2428POPC   NC332855  37.644   1.195   9.464
 2428POPC   PO432856  37.645   1.225   9.164
 2428POPC   GL132857  37.689   1.262   8.864
 2428POPC   GL232858  37.668   1.317   8.864
 2428POPC   C1A32859  37.663   1.195   8.564
 2428POPC   D2A32860  37.699   1.261   8.264
 2428POPC   C3A32861  37.634   1.259   7.964
 2428POPC   C4A32862  37.694   1.188   7.664
 2428POPC   C1B32863  37.571   1.449   8.564
 2428POPC   C2B32864  37.618   1.480   8.264
 2428POPC   C3B32865  37.558   1.461   7.964
 2428POPC   C4B32866  37.616   1.485   7.664
 2429POPC   NC332867  17.460   1.228   9.464
 2429POPC   PO432868  17.492   1.186   9.164
 2429POPC   GL132869  17.512   1.191   8.864
 2429POPC   GL232870  17.675   1.265   8.864
 2429POPC   C1A32871  17.510   1.223   8.564
 2429POPC   D2A32872  17.542   1.252   8.264
 2429POPC   C3A32873  17.531   1.238   7.964
 2429POPC   C4A32874  17.521   1.257   7.664
 2429POPC   C1B32875  17.751   1.259   8.564
 2429POPC   C2B32876  17.780   1.259   8.264
 2429POPC   C3B32877  17.758   1.230   7.964
 2429POPC   C4B32878  17.760   1.247   7.664
 2430POPC   NC332879  40.752   7.437   9.464
 2430POPC   PO432880  40.756   7.442   9.164
 2430POPC   GL132881  40.766   7.454   8.864
 2430POPC   GL232882  40.871   7.515   8.864
 2430POPC   C1A32883  40.736   7.433   8.564
 2430POPC   D2A32884  40.782   7.435   8.264
 2430POPC   C3A32885  40.829   7.440   7.964
 2430POPC   C4A32886  40.805   7.442   7.664
 2430POPC   C1B32887  41.007   7.568   8.564
 2430POPC   C2B32888  40.968   7.582   8.264
 2430POPC   C3B32889  40.968   7.552   7.964
 2430POPC   C4B32890  40.951   7.599   7.664
 2431POPC   NC332891  42.374   3.517   9.464
 2431POPC   PO432892  42.312   3.542   9.164
 2431POPC   GL132893  42.365   3.535   8.864
 2431POPC   GL232894  42.433   3.534   8.864
 2431POPC   C1A32895  42.291   3.586   8.564
 2431POPC   D2A32896  42.305   3.499   8.264
 2431POPC   C3A32897  42.382   3.492   7.964
 2431POPC   C4A32898  42.290   3.510   7.664
 2431POPC   C1B32899  42.595   3.441   8.564
 2431POPC   C2B32900  42.568   3.488   8.264
 2431POPC   C3B32901  42.546   3.454   7.964
 2431POPC   C4B32902  42.540   3.429   7.664
 2432POPC   NC332903  11.311  40.778   9.464
 2432POPC   PO432904  11.296  40.797   9.164
 2432POPC   GL132905  11.343  40.771   8.864
 2432POPC   GL232906  11.353  40.680   8.864
 2432POPC   C1A32907  11.286  40.753   8.564
 2432POPC   D2A32908  11.290  40.813   8.264
 2432POPC   C3A32909  11.347  40.826   7.964
 2432POPC   C4A32910  11.260  40.800   7.664
 2432POPC   C1B32911  11.354  40.561   8.564
 2432POPC   C2B32912  11.305  40.572   8.264
 2432POPC   C3B32913  11.316  40.573   7.964
 2432POPC   C4B32914  11.342  40.503   7.664
 2433POPC   NC332915  20.601  12.086   9.464
 2433POPC   PO432916  20.651  12.087   9.164
 2433POPC   GL132917  20.650  12.031   8.864
 2433POPC   GL232918  20.723  12.070   8.864
 2433POPC   C1A32919  20.651  12.040   8.564
 2433POPC   D2A32920  20.649  12.081   8.264
 2433POPC   C3A32921  20.624  12.029   7.964
 2433POPC   C4A32922  20.585  12.045   7.664
 2433POPC   C1B32923  20.886  12.008   8.564
 2433POPC   C2B32924  20.810  12.061   8.264
 2433POPC   C3B32925  20.891  11.996   7.964
 2433POPC   C4B32926  20.825  12.000   7.664
 2434POPC   NC332927   9.743  17.551   9.464
 2434POPC   PO432928   9.742  17.498   9.164
 2434POPC   GL132929   9.711  17.542   8.864
 2434POPC   GL232930   9.878  17.646   8.864
 2434POPC   C1A32931   9.737  17.467   8.564
 2434POPC   D2A32932   9.717  17.504   8.264
 2434POPC   C3A32933   9.724  17.500   7.964
 2434POPC   C4A32934   9.748  17.522   7.664
 2434POPC   C1B32935   9.862  17.667   8.564
 2434POPC   C2B32936   9.940  17.658   8.264
 2434POPC   C3B32937   9.898  17.667   7.964
 2434POPC   C4B32938   9.950  17.694   7.664
 2435POPC   NC332939  13.649  26.860   9.464
 2435POPC   PO432940  13.671  26.845   9.164
 2435POPC   GL132941  13.625  26.826   8.864
 2435POPC   GL232942  13.686  26.856   8.864
 2435POPC   C1A32943  13.627  26.824   8.564
 2435POPC   D2A32944  13.619  26.860   8.264
 2435POPC   C3A32945  13.662  26.790   7.964
 2435POPC   C4A32946  13.579  26.863   7.664
 2435POPC   C1B32947  13.820  26.919   8.564
 2435POPC   C2B32948  13.816  26.965   8.264
 2435POPC   C3B32949  13.836  26.990   7.964
 2435POPC   C4B32950  13.796  26.907   7.664
 2436POPC   NC332951  11.283  29.181   9.464
 2436POPC   PO432952  11.345  29.124   9.164
 2436POPC   GL132953  11.292  29.155   8.864
 2436POPC   GL232954  11.278  29.268   8.864
 2436POPC   C1A32955  11.302  29.128   8.564
 2436POPC   D2A32956  11.275  29.178   8.264
 2436POPC   C3A32957  11.345  29.123   7.964
 2436POPC   C4A32958  11.304  29.193   7.664
 2436POPC   C1B32959  11.233  29.349   8.564
 2436POPC   C2B32960  11.184  29.361   8.264
 2436POPC   C3B32961  11.246  29.327   7.964
 2436POPC   C4B32962  11.247  29.360   7.664
 2437POPC   NC332963   1.241  16.710   9.464
 2437POPC   PO432964   1.241  16.748   9.164
 2437POPC   GL132965   1.254  16.724   8.864
 2437POPC   GL232966   1.106  16.635   8.864
 2437POPC   C1A32967   1.187  16.719   8.564
 2437POPC   D2A32968   1.210  16.747   8.264
 2437POPC   C3A32969   1.261  16.687   7.964
 2437POPC   C4A32970   1.167  16.704   7.664
 2437POPC   C1B32971   1.029  16.555   8.564
 2437POPC   C2B32972   1.028  16.520   8.264
 2437POPC   C3B32973   1.037  16.485   7.964
 2437POPC   C4B32974   1.046  16.551   7.664
 2438POPC   NC332975  16.696  43.121   9.464
 2438POPC   PO432976  16.727  43.100   9.164
 2438POPC   GL132977  16.741  43.083   8.864
 2438POPC   GL232978  16.641  43.002   8.864
 2438POPC   C1A32979  16.703  43.109   8.564
 2438POPC   D2A32980  16.747  43.146   8.264
 2438POPC   C3A32981  16.768  43.085   7.964
 2438POPC   C4A32982  16.777  43.064   7.664
 2438POPC   C1B32983  16.481  42.939   8.564
 2438POPC   C2B32984  16.540  43.002   8.264
 2438POPC   C3B32985  16.550  42.958   7.964
 2438POPC   C4B32986  16.542  43.003   7.664
 2439POPC   NC332987   0.480  33.786   9.464
 2439POPC   PO432988   0.447  33.792   9.164
 2439POPC   GL132989   0.429  33.846   8.864
 2439POPC   GL232990   0.529  33.818   8.864
 2439POPC   C1A32991   0.455  33.816   8.564
 2439POPC   D2A32992   0.427  33.755   8.264
 2439POPC   C3A32993   0.390  33.843   7.964
 2439POPC   C4A32994   0.409  33.790   7.664
 2439POPC   C1B32995   0.682  33.874   8.564
 2439POPC   C2B32996   0.658  33.884   8.264
 2439POPC   C3B32997   0.663  33.893   7.964
 2439POPC   C4B32998   0.704  33.855   7.664
 2440POPC   NC332999  12.088   1.219   9.464
 2440POPC   PO433000  12.040   1.176   9.164
 2440POPC   GL133001  12.123   1.180   8.864
 2440POPC   GL233002  12.033   1.050   8.864
 2440POPC   C1A33003  12.040   1.173   8.564
 2440POPC   D2A33004  12.056   1.168   8.264
 2440POPC   C3A33005  12.049   1.252   7.964
 2440POPC   C4A33006  12.116   1.179   7.664
 2440POPC   C1B33007  11.984   0.957   8.564
 2440POPC   C2B33008  12.036   0.989   8.264
 2440POPC   C3B33009  12.010   1.008   7.964
 2440POPC   C4B33010  12.018   0.966   7.664
 2441POPC   NC333011   5.865  40.007   9.464
 2441POPC   PO433012   5.904  40.008   9.164
 2441POPC   GL133013   5.861  40.012   8.864
 2441POPC   GL233014   5.756  40.064   8.864
 2441POPC   C1A33015   5.854  40.024   8.564
 2441POPC   D2A33016   5.866  40.037   8.264
 2441POPC   C3A33017   5.898  40.011   7.964
 2441POPC   C4A33018   5.870  40.021   7.664
 2441POPC   C1B33019   5.662  40.127   8.564
 2441POPC   C2B33020   5.661  40.097   8.264
 2441POPC   C3B33021   5.591  40.045   7.964
 2441POPC   C4B33022   5.661  40.043   7.664
 2442POPC   NC333023  23.725   3.503   9.464
 2442POPC   PO433024  23.678   3.499   9.164
 2442POPC   GL133025  23.675   3.509   8.864
 2442POPC   GL233026  23.877   3.574   8.864
 2442POPC   C1A33027  23.723   3.523   8.564
 2442POPC   D2A33028  23.713   3.576   8.264
 2442POPC   C3A33029  23.754   3.555   7.964
 2442POPC   C4A33030  23.719   3.575   7.664
 2442POPC   C1B33031  23.971   3.525   8.564
 2442POPC   C2B33032  23.937   3.547   8.264
 2442POPC   C3B33033  23.992   3.548   7.964
 2442POPC   C4B33034  23.991   3.515   7.664
 2443POPC   NC333035  26.030   5.092   9.464
 2443POPC   PO433036  25.998   5.108   9.164
 2443POPC   GL133037  26.034   5.082   8.864
 2443POPC   GL233038  26.043   4.932   8.864
 2443POPC   C1A33039  26.074   5.071   8.564
 2443POPC   D2A33040  26.063   5.109   8.264
 2443POPC   C3A33041  26.082   5.055   7.964
 2443POPC   C4A33042  26.031   5.121   7.664
 2443POPC   C1B33043  26.087   4.856   8.564
 2443POPC   C2B33044  26.052   4.869   8.264
 2443POPC   C3B33045  26.100   4.886   7.964
 2443POPC   C4B33046  26.066   4.873   7.664
 2444POPC   NC333047   5.835  11.303   9.464
 2444POPC   PO433048   5.830  11.324   9.164
 2444POPC   GL133049   5.826  11.266   8.864
 2444POPC   GL233050   5.925  11.439   8.864
 2444POPC   C1A33051   5.830  11.278   8.564
 2444POPC   D2A33052   5.841  11.253   8.264
 2444POPC   C3A33053   5.882  11.322   7.964
 2444POPC   C4A33054   5.853  11.319   7.664
 2444POPC   C1B33055   6.014  11.558   8.564
 2444POPC   C2B33056   5.956  11.525   8.264
 2444POPC   C3B33057   5.958  11.474   7.964
 2444POPC   C4B33058   5.981  11.542   7.664
 2445POPC   NC333059  44.671  36.118   9.464
 2445POPC   PO433060  44.709  36.177   9.164
 2445POPC   GL133061  44.682  36.125   8.864
 2445POPC   GL233062  44.737  36.186   8.864
 2445POPC   C1A33063  44.620  36.083   8.564
 2445POPC   D2A33064  44.641  36.082   8.264
 2445POPC   C3A33065  44.655  36.097   7.964
 2445POPC   C4A33066  44.667  36.146   7.664
 2445POPC   C1B33067  44.885  36.286   8.564
 2445POPC   C2B33068  44.823  36.245   8.264
 2445POPC   C3B33069  44.860  36.309   7.964
 2445POPC   C4B33070  44.847  36.327   7.664
 2446POPC   NC333071  41.549  22.986   9.464
 2446POPC   PO433072  41.512  22.902   9.164
 2446POPC   GL133073  41.556  22.913   8.864
 2446POPC   GL233074  41.572  23.044   8.864
 2446POPC   C1A33075  41.573  22.969   8.564
 2446POPC   D2A33076  41.595  22.977   8.264
 2446POPC   C3A33077  41.517  22.962   7.964
 2446POPC   C4A33078  41.561  22.892   7.664
 2446POPC   C1B33079  41.513  23.173   8.564
 2446POPC   C2B33080  41.587  23.179   8.264
 2446POPC   C3B33081  41.555  23.227   7.964
 2446POPC   C4B33082  41.563  23.215   7.664
 2447POPC   NC333083  15.146  15.200   9.464
 2447POPC   PO433084  15.217  15.137   9.164
 2447POPC   GL133085  15.138  15.154   8.864
 2447POPC   GL233086  15.110  15.095   8.864
 2447POPC   C1A33087  15.202  15.153   8.564
 2447POPC   D2A33088  15.200  15.161   8.264
 2447POPC   C3A33089  15.202  15.166   7.964
 2447POPC   C4A33090  15.134  15.202   7.664
 2447POPC   C1B33091  14.980  15.119   8.564
 2447POPC   C2B33092  14.979  15.132   8.264
 2447POPC   C3B33093  14.940  15.139   7.964
 2447POPC   C4B33094  14.952  15.127   7.664
 2448POPC   NC333095  24.443  10.565   9.464
 2448POPC   PO433096  24.453  10.496   9.164
 2448POPC   GL133097  24.456  10.509   8.864
 2448POPC   GL233098  24.344  10.484   8.864
 2448POPC   C1A33099  24.458  10.512   8.564
 2448POPC   D2A33100  24.445  10.497   8.264
 2448POPC   C3A33101  24.474  10.525   7.964
 2448POPC   C4A33102  24.530  10.573   7.664
 2448POPC   C1B33103  24.256  10.425   8.564
 2448POPC   C2B33104  24.225  10.449   8.264
 2448POPC   C3B33105  24.237  10.459   7.964
 2448POPC   C4B33106  24.261  10.391   7.664
 2449POPC   NC333107   8.927  16.703   9.464
 2449POPC   PO433108   8.983  16.778   9.164
 2449POPC   GL133109   8.936  16.743   8.864
 2449POPC   GL233110   9.077  16.822   8.864
 2449POPC   C1A33111   8.943  16.694   8.564
 2449POPC   D2A33112   8.944  16.686   8.264
 2449POPC   C3A33113   8.929  16.683   7.964
 2449POPC   C4A33114   8.952  16.708   7.664
 2449POPC   C1B33115   9.214  16.909   8.564
 2449POPC   C2B33116   9.192  16.854   8.264
 2449POPC   C3B33117   9.160  16.886   7.964
 2449POPC   C4B33118   9.184  16.827   7.664
 2450POPC   NC333119  21.387  36.935   9.464
 2450POPC   PO433120  21.435  36.859   9.164
 2450POPC   GL133121  21.424  36.952   8.864
 2450POPC   GL233122  21.495  36.941   8.864
 2450POPC   C1A33123  21.347  36.863   8.564
 2450POPC   D2A33124  21.398  36.934   8.264
 2450POPC   C3A33125  21.369  36.899   7.964
 2450POPC   C4A33126  21.390  36.919   7.664
 2450POPC   C1B33127  21.656  37.053   8.564
 2450POPC   C2B33128  21.563  37.035   8.264
 2450POPC   C3B33129  21.629  36.964   7.964
 2450POPC   C4B33130  21.650  36.982   7.664
 2451POPC   NC333131  43.916  18.244   9.464
 2451POPC   PO433132  43.907  18.251   9.164
 2451POPC   GL133133  43.868  18.237   8.864
 2451POPC   GL233134  43.891  18.454   8.864
 2451POPC   C1A33135  43.880  18.289   8.564
 2451POPC   D2A33136  43.859  18.258   8.264
 2451POPC   C3A33137  43.874  18.274   7.964
 2451POPC   C4A33138  43.895  18.268   7.664
 2451POPC   C1B33139  43.895  18.517   8.564
 2451POPC   C2B33140  43.842  18.501   8.264
 2451POPC   C3B33141  43.848  18.560   7.964
 2451POPC   C4B33142  43.873  18.536   7.664
 2452POPC   NC333143   3.513  39.253   9.464
 2452POPC   PO433144   3.494  39.202   9.164
 2452POPC   GL133145   3.526  39.246   8.864
 2452POPC   GL233146   3.397  39.231   8.864
 2452POPC   C1A33147   3.574  39.247   8.564
 2452POPC   D2A33148   3.582  39.266   8.264
 2452POPC   C3A33149   3.509  39.216   7.964
 2452POPC   C4A33150   3.570  39.281   7.664
 2452POPC   C1B33151   3.265  39.170   8.564
 2452POPC   C2B33152   3.345  39.113   8.264
 2452POPC   C3B33153   3.318  39.141   7.964
 2452POPC   C4B33154   3.307  39.169   7.664
 2453POPC   NC333155  17.462  22.961   9.464
 2453POPC   PO433156  17.471  22.961   9.164
 2453POPC   GL133157  17.503  22.973   8.864
 2453POPC   GL233158  17.622  22.849   8.864
 2453POPC   C1A33159  17.555  22.977   8.564
 2453POPC   D2A33160  17.539  22.892   8.264
 2453POPC   C3A33161  17.497  22.901   7.964
 2453POPC   C4A33162  17.533  22.898   7.664
 2453POPC   C1B33163  17.731  22.828   8.564
 2453POPC   C2B33164  17.708  22.806   8.264
 2453POPC   C3B33165  17.770  22.868   7.964
 2453POPC   C4B33166  17.691  22.864   7.664
 2454POPC   NC333167  21.352  38.411   9.464
 2454POPC   PO433168  21.413  38.418   9.164
 2454POPC   GL133169  21.365  38.449   8.864
 2454POPC   GL233170  21.465  38.448   8.864
 2454POPC   C1A33171  21.342  38.423   8.564
 2454POPC   D2A33172  21.371  38.472   8.264
 2454POPC   C3A33173  21.401  38.452   7.964
 2454POPC   C4A33174  21.380  38.436   7.664
 2454POPC   C1B33175  21.620  38.420   8.564
 2454POPC   C2B33176  21.625  38.448   8.264
 2454POPC   C3B33177  21.672  38.411   7.964
 2454POPC   C4B33178  21.670  38.430   7.664
 2455POPC   NC333179  40.766  10.508   9.464
 2455POPC   PO433180  40.798  10.493   9.164
 2455POPC   GL133181  40.819  10.556   8.864
 2455POPC   GL233182  40.723  10.382   8.864
 2455POPC   C1A33183  40.743  10.573   8.564
 2455POPC   D2A33184  40.774  10.526   8.264
 2455POPC   C3A33185  40.766  10.510   7.964
 2455POPC   C4A33186  40.816  10.485   7.664
 2455POPC   C1B33187  40.755  10.289   8.564
 2455POPC   C2B33188  40.717  10.303   8.264
 2455POPC   C3B33189  40.761  10.299   7.964
 2455POPC   C4B33190  40.721  10.312   7.664
 2456POPC   NC333191  22.905  21.338   9.464
 2456POPC   PO433192  22.893  21.376   9.164
 2456POPC   GL133193  22.981  21.376   8.864
 2456POPC   GL233194  22.840  21.534   8.864
 2456POPC   C1A33195  22.945  21.411   8.564
 2456POPC   D2A33196  22.983  21.337   8.264
 2456POPC   C3A33197  22.901  21.433   7.964
 2456POPC   C4A33198  22.911  21.372   7.664
 2456POPC   C1B33199  22.795  21.610   8.564
 2456POPC   C2B33200  22.807  21.636   8.264
 2456POPC   C3B33201  22.778  21.572   7.964
 2456POPC   C4B33202  22.848  21.584   7.664
 2457POPC   NC333203  34.622  12.035   9.464
 2457POPC   PO433204  34.591  12.027   9.164
 2457POPC   GL133205  34.541  12.091   8.864
 2457POPC   GL233206  34.558  11.927   8.864
 2457POPC   C1A33207  34.543  12.096   8.564
 2457POPC   D2A33208  34.569  12.037   8.264
 2457POPC   C3A33209  34.625  12.090   7.964
 2457POPC   C4A33210  34.607  12.106   7.664
 2457POPC   C1B33211  34.626  11.807   8.564
 2457POPC   C2B33212  34.589  11.864   8.264
 2457POPC   C3B33213  34.663  11.854   7.964
 2457POPC   C4B33214  34.642  11.858   7.664
 2458POPC   NC333215  15.174  22.981   9.464
 2458POPC   PO433216  15.200  22.919   9.164
 2458POPC   GL133217  15.152  22.961   8.864
 2458POPC   GL233218  15.320  22.963   8.864
 2458POPC   C1A33219  15.216  22.896   8.564
 2458POPC   D2A33220  15.167  22.988   8.264
 2458POPC   C3A33221  15.134  22.903   7.964
 2458POPC   C4A33222  15.193  22.950   7.664
 2458POPC   C1B33223  15.384  22.981   8.564
 2458POPC   C2B33224  15.452  23.023   8.264
 2458POPC   C3B33225  15.365  23.006   7.964
 2458POPC   C4B33226  15.377  22.993   7.664
 2459POPC   NC333227   1.262  14.438   9.464
 2459POPC   PO433228   1.186  14.437   9.164
 2459POPC   GL133229   1.208  14.405   8.864
 2459POPC   GL233230   1.238  14.501   8.864
 2459POPC   C1A33231   1.214  14.447   8.564
 2459POPC   D2A33232   1.175  14.440   8.264
 2459POPC   C3A33233   1.182  14.441   7.964
 2459POPC   C4A33234   1.198  14.444   7.664
 2459POPC   C1B33235   1.281  14.603   8.564
 2459POPC   C2B33236   1.267  14.666   8.264
 2459POPC   C3B33237   1.248  14.647   7.964
 2459POPC   C4B33238   1.303  14.612   7.664
 2460POPC   NC333239  43.095  27.561   9.464
 2460POPC   PO433240  43.120  27.588   9.164
 2460POPC   GL133241  43.137  27.568   8.864
 2460POPC   GL233242  43.172  27.543   8.864
 2460POPC   C1A33243  43.063  27.615   8.564
 2460POPC   D2A33244  43.078  27.618   8.264
 2460POPC   C3A33245  43.078  27.633   7.964
 2460POPC   C4A33246  43.103  27.605   7.664
 2460POPC   C1B33247  43.226  27.414   8.564
 2460POPC   C2B33248  43.284  27.405   8.264
 2460POPC   C3B33249  43.267  27.420   7.964
 2460POPC   C4B33250  43.228  27.442   7.664
 2461POPC   NC333251  10.560   2.013   9.464
 2461POPC   PO433252  10.515   1.963   9.164
 2461POPC   GL133253  10.528   1.965   8.864
 2461POPC   GL233254  10.566   1.873   8.864
 2461POPC   C1A33255  10.479   2.031   8.564
 2461POPC   D2A33256  10.505   1.951   8.264
 2461POPC   C3A33257  10.516   2.011   7.964
 2461POPC   C4A33258  10.516   2.020   7.664
 2461POPC   C1B33259  10.697   1.780   8.564
 2461POPC   C2B33260  10.737   1.834   8.264
 2461POPC   C3B33261  10.663   1.750   7.964
 2461POPC   C4B33262  10.720   1.810   7.664
 2462POPC   NC333263   3.581  22.207   9.464
 2462POPC   PO433264   3.554  22.134   9.164
 2462POPC   GL133265   3.518  22.158   8.864
 2462POPC   GL233266   3.557  22.283   8.864
 2462POPC   C1A33267   3.506  22.168   8.564
 2462POPC   D2A33268   3.516  22.187   8.264
 2462POPC   C3A33269   3.565  22.148   7.964
 2462POPC   C4A33270   3.497  22.128   7.664
 2462POPC   C1B33271   3.570  22.424   8.564
 2462POPC   C2B33272   3.530  22.429   8.264
 2462POPC   C3B33273   3.569  22.450   7.964
 2462POPC   C4B33274   3.538  22.460   7.664
 2463POPC   NC333275  30.691  15.981   9.464
 2463POPC   PO433276  30.722  15.948   9.164
 2463POPC   GL133277  30.665  16.000   8.864
 2463POPC   GL233278  30.800  15.865   8.864
 2463POPC   C1A33279  30.729  15.944   8.564
 2463POPC   D2A33280  30.670  15.985   8.264
 2463POPC   C3A33281  30.694  15.987   7.964
 2463POPC   C4A33282  30.717  15.908   7.664
 2463POPC   C1B33283  30.878  15.750   8.564
 2463POPC   C2B33284  30.914  15.793   8.264
 2463POPC   C3B33285  30.921  15.738   7.964
 2463POPC   C4B33286  30.827  15.745   7.664
 2464POPC   NC333287  38.408  18.269   9.464
 2464POPC   PO433288  38.450  18.295   9.164
 2464POPC   GL133289  38.478  18.277   8.864
 2464POPC   GL233290  38.488  18.139   8.864
 2464POPC   C1A33291  38.502  18.313   8.564
 2464POPC   D2A33292  38.422  18.320   8.264
 2464POPC   C3A33293  38.491  18.317   7.964
 2464POPC   C4A33294  38.437  18.274   7.664
 2464POPC   C1B33295  38.453  18.018   8.564
 2464POPC   C2B33296  38.443  18.005   8.264
 2464POPC   C3B33297  38.462  17.993   7.964
 2464POPC   C4B33298  38.465  17.984   7.664
 2465POPC   NC333299  29.885  10.564   9.464
 2465POPC   PO433300  29.889  10.547   9.164
 2465POPC   GL133301  29.962  10.565   8.864
 2465POPC   GL233302  29.801  10.486   8.864
 2465POPC   C1A33303  29.945  10.477   8.564
 2465POPC   D2A33304  29.873  10.483   8.264
 2465POPC   C3A33305  29.893  10.485   7.964
 2465POPC   C4A33306  29.966  10.530   7.664
 2465POPC   C1B33307  29.676  10.549   8.564
 2465POPC   C2B33308  29.668  10.492   8.264
 2465POPC   C3B33309  29.666  10.510   7.964
 2465POPC   C4B33310  29.651  10.480   7.664
 2466POPC   NC333311  22.899  15.946   9.464
 2466POPC   PO433312  22.941  16.005   9.164
 2466POPC   GL133313  22.926  15.914   8.864
 2466POPC   GL233314  23.019  16.039   8.864
 2466POPC   C1A33315  22.926  15.947   8.564
 2466POPC   D2A33316  22.915  15.926   8.264
 2466POPC   C3A33317  22.900  15.986   7.964
 2466POPC   C4A33318  22.985  15.997   7.664
 2466POPC   C1B33319  23.103  16.186   8.564
 2466POPC   C2B33320  23.122  16.168   8.264
 2466POPC   C3B33321  23.113  16.134   7.964
 2466POPC   C4B33322  23.092  16.135   7.664
 2467POPC   NC333323  36.924  32.233   9.464
 2467POPC   PO433324  36.860  32.201   9.164
 2467POPC   GL133325  36.886  32.282   8.864
 2467POPC   GL233326  36.891  32.339   8.864
 2467POPC   C1A33327  36.911  32.267   8.564
 2467POPC   D2A33328  36.873  32.250   8.264
 2467POPC   C3A33329  36.927  32.282   7.964
 2467POPC   C4A33330  36.893  32.241   7.664
 2467POPC   C1B33331  36.935  32.457   8.564
 2467POPC   C2B33332  36.903  32.482   8.264
 2467POPC   C3B33333  36.914  32.486   7.964
 2467POPC   C4B33334  36.995  32.509   7.664
 2468POPC   NC333335  33.816  43.131   9.464
 2468POPC   PO433336  33.794  43.119   9.164
 2468POPC   GL133337  33.758  43.081   8.864
 2468POPC   GL233338  33.944  43.151   8.864
 2468POPC   C1A33339  33.793  43.129   8.564
 2468POPC   D2A33340  33.813  43.140   8.264
 2468POPC   C3A33341  33.846  43.094   7.964
 2468POPC   C4A33342  33.753  43.108   7.664
 2468POPC   C1B33343  34.067  43.174   8.564
 2468POPC   C2B33344  34.087  43.151   8.264
 2468POPC   C3B33345  34.043  43.166   7.964
 2468POPC   C4B33346  34.053  43.140   7.664
 2469POPC   NC333347   0.443  15.952   9.464
 2469POPC   PO433348   0.454  15.907   9.164
 2469POPC   GL133349   0.446  15.941   8.864
 2469POPC   GL233350   0.594  15.848   8.864
 2469POPC   C1A33351   0.441  15.993   8.564
 2469POPC   D2A33352   0.395  15.981   8.264
 2469POPC   C3A33353   0.390  15.965   7.964
 2469POPC   C4A33354   0.404  15.923   7.664
 2469POPC   C1B33355   0.619  15.789   8.564
 2469POPC   C2B33356   0.642  15.846   8.264
 2469POPC   C3B33357   0.680  15.873   7.964
 2469POPC   C4B33358   0.644  15.881   7.664
 2470POPC   NC333359  14.423  15.944   9.464
 2470POPC   PO433360  14.368  15.987   9.164
 2470POPC   GL133361  14.379  16.004   8.864
 2470POPC   GL233362  14.485  15.934   8.864
 2470POPC   C1A33363  14.452  15.915   8.564
 2470POPC   D2A33364  14.395  15.976   8.264
 2470POPC   C3A33365  14.370  15.961   7.964
 2470POPC   C4A33366  14.401  15.950   7.664
 2470POPC   C1B33367  14.618  15.883   8.564
 2470POPC   C2B33368  14.654  15.844   8.264
 2470POPC   C3B33369  14.587  15.883   7.964
 2470POPC   C4B33370  14.663  15.828   7.664
 2471POPC   NC333371  29.895  22.187   9.464
 2471POPC   PO433372  29.880  22.193   9.164
 2471POPC   GL133373  29.882  22.197   8.864
 2471POPC   GL233374  29.971  22.037   8.864
 2471POPC   C1A33375  29.964  22.132   8.564
 2471POPC   D2A33376  29.937  22.205   8.264
 2471POPC   C3A33377  29.922  22.128   7.964
 2471POPC   C4A33378  29.911  22.141   7.664
 2471POPC   C1B33379  30.003  21.980   8.564
 2471POPC   C2B33380  30.070  21.977   8.264
 2471POPC   C3B33381  30.053  21.895   7.964
 2471POPC   C4B33382  30.058  21.957   7.664
 2472POPC   NC333383  29.937  33.759   9.464
 2472POPC   PO433384  29.907  33.841   9.164
 2472POPC   GL133385  29.886  33.841   8.864
 2472POPC   GL233386  29.903  33.881   8.864
 2472POPC   C1A33387  29.899  33.800   8.564
 2472POPC   D2A33388  29.890  33.785   8.264
 2472POPC   C3A33389  29.960  33.795   7.964
 2472POPC   C4A33390  29.871  33.806   7.664
 2472POPC   C1B33391  29.799  34.056   8.564
 2472POPC   C2B33392  29.774  34.036   8.264
 2472POPC   C3B33393  29.818  34.039   7.964
 2472POPC   C4B33394  29.786  34.015   7.664
 2473POPC   NC333395   5.860  33.761   9.464
 2473POPC   PO433396   5.862  33.823   9.164
 2473POPC   GL133397   5.841  33.829   8.864
 2473POPC   GL233398   5.947  33.860   8.864
 2473POPC   C1A33399   5.824  33.755   8.564
 2473POPC   D2A33400   5.857  33.817   8.264
 2473POPC   C3A33401   5.885  33.808   7.964
 2473POPC   C4A33402   5.862  33.804   7.664
 2473POPC   C1B33403   6.084  34.026   8.564
 2473POPC   C2B33404   6.031  33.985   8.264
 2473POPC   C3B33405   6.044  34.023   7.964
 2473POPC   C4B33406   6.002  33.944   7.664
 2474POPC   NC333407  44.652  26.087   9.464
 2474POPC   PO433408  44.689  26.012   9.164
 2474POPC   GL133409  44.690  26.088   8.864
 2474POPC   GL233410  44.601  25.882   8.864
 2474POPC   C1A33411  44.615  25.998   8.564
 2474POPC   D2A33412  44.634  26.047   8.264
 2474POPC   C3A33413  44.617  26.015   7.964
 2474POPC   C4A33414  44.612  26.062   7.664
 2474POPC   C1B33415  44.561  25.833   8.564
 2474POPC   C2B33416  44.593  25.802   8.264
 2474POPC   C3B33417  44.599  25.798   7.964
 2474POPC   C4B33418  44.626  25.826   7.664
 2475POPC   NC333419   7.406  12.900   9.464
 2475POPC   PO433420   7.438  12.862   9.164
 2475POPC   GL133421   7.416  12.861   8.864
 2475POPC   GL233422   7.303  12.832   8.864
 2475POPC   C1A33423   7.461  12.848   8.564
 2475POPC   D2A33424   7.464  12.853   8.264
 2475POPC   C3A33425   7.409  12.878   7.964
 2475POPC   C4A33426   7.387  12.814   7.664
 2475POPC   C1B33427   7.137  12.855   8.564
 2475POPC   C2B33428   7.150  12.872   8.264
 2475POPC   C3B33429   7.168  12.866   7.964
 2475POPC   C4B33430   7.161  12.871   7.664
 2476POPC   NC333431   2.782   0.441   9.464
 2476POPC   PO433432   2.720   0.442   9.164
 2476POPC   GL133433   2.807   0.473   8.864
 2476POPC   GL233434   2.679   0.305   8.864
 2476POPC   C1A33435   2.753   0.454   8.564
 2476POPC   D2A33436   2.798   0.412   8.264
 2476POPC   C3A33437   2.733   0.455   7.964
 2476POPC   C4A33438   2.744   0.468   7.664
 2476POPC   C1B33439   2.636   0.245   8.564
 2476POPC   C2B33440   2.599   0.242   8.264
 2476POPC   C3B33441   2.555   0.307   7.964
 2476POPC   C4B33442   2.540   0.230   7.664
 2477POPC   NC333443  19.796  32.261   9.464
 2477POPC   PO433444  19.865  32.221   9.164
 2477POPC   GL133445  19.818  32.254   8.864
 2477POPC   GL233446  19.836  32.398   8.864
 2477POPC   C1A33447  19.793  32.208   8.564
 2477POPC   D2A33448  19.880  32.224   8.264
 2477POPC   C3A33449  19.811  32.218   7.964
 2477POPC   C4A33450  19.817  32.282   7.664
 2477POPC   C1B33451  19.789  32.531   8.564
 2477POPC   C2B33452  19.877  32.541   8.264
 2477POPC   C3B33453  19.785  32.518   7.964
 2477POPC   C4B33454  19.862  32.492   7.664
 2478POPC   NC333455  35.341  18.285   9.464
 2478POPC   PO433456  35.369  18.281   9.164
 2478POPC   GL133457  35.308  18.267   8.864
 2478POPC   GL233458  35.253  18.201   8.864
 2478POPC   C1A33459  35.395  18.270   8.564
 2478POPC   D2A33460  35.375  18.306   8.264
 2478POPC   C3A33461  35.392  18.267   7.964
 2478POPC   C4A33462  35.324  18.259   7.664
 2478POPC   C1B33463  35.103  18.096   8.564
 2478POPC   C2B33464  35.180  18.159   8.264
 2478POPC   C3B33465  35.125  18.111   7.964
 2478POPC   C4B33466  35.115  18.132   7.664
 2479POPC   NC333467   3.557  44.712   9.464
 2479POPC   PO433468   3.505  44.698   9.164
 2479POPC   GL133469   3.576  44.641   8.864
 2479POPC   GL233470   3.656  44.570   8.864
 2479POPC   C1A33471   3.563  44.675   8.564
 2479POPC   D2A33472   3.573  44.630   8.264
 2479POPC   C3A33473   3.575  44.621   7.964
 2479POPC   C4A33474   3.504  44.663   7.664
 2479POPC   C1B33475   3.684  44.444   8.564
 2479POPC   C2B33476   3.739  44.514   8.264
 2479POPC   C3B33477   3.720  44.477   7.964
 2479POPC   C4B33478   3.742  44.522   7.664
 2480POPC   NC333479  35.371  16.730   9.464
 2480POPC   PO433480  35.400  16.736   9.164
 2480POPC   GL133481  35.399  16.735   8.864
 2480POPC   GL233482  35.496  16.745   8.864
 2480POPC   C1A33483  35.329  16.769   8.564
 2480POPC   D2A33484  35.314  16.744   8.264
 2480POPC   C3A33485  35.319  16.723   7.964
 2480POPC   C4A33486  35.399  16.705   7.664
 2480POPC   C1B33487  35.601  16.810   8.564
 2480POPC   C2B33488  35.602  16.840   8.264
 2480POPC   C3B33489  35.591  16.790   7.964
 2480POPC   C4B33490  35.554  16.848   7.664
 2481POPC   NC333491   9.001  42.356   9.464
 2481POPC   PO433492   9.016  42.376   9.164
 2481POPC   GL133493   8.996  42.356   8.864
 2481POPC   GL233494   8.819  42.289   8.864
 2481POPC   C1A33495   8.925  42.365   8.564
 2481POPC   D2A33496   8.989  42.339   8.264
 2481POPC   C3A33497   8.974  42.317   7.964
 2481POPC   C4A33498   8.960  42.336   7.664
 2481POPC   C1B33499   8.790  42.215   8.564
 2481POPC   C2B33500   8.801  42.247   8.264
 2481POPC   C3B33501   8.759  42.226   7.964
 2481POPC   C4B33502   8.710  42.208   7.664
 2482POPC   NC333503  17.527  27.639   9.464
 2482POPC   PO433504  17.515  27.574   9.164
 2482POPC   GL133505  17.522  27.608   8.864
 2482POPC   GL233506  17.434  27.663   8.864
 2482POPC   C1A33507  17.555  27.563   8.564
 2482POPC   D2A33508  17.551  27.606   8.264
 2482POPC   C3A33509  17.501  27.641   7.964
 2482POPC   C4A33510  17.467  27.566   7.664
 2482POPC   C1B33511  17.461  27.800   8.564
 2482POPC   C2B33512  17.467  27.865   8.264
 2482POPC   C3B33513  17.390  27.788   7.964
 2482POPC   C4B33514  17.463  27.831   7.664
 2483POPC   NC333515  15.934  22.211   9.464
 2483POPC   PO433516  15.940  22.138   9.164
 2483POPC   GL133517  15.928  22.155   8.864
 2483POPC   GL233518  15.849  22.231   8.864
 2483POPC   C1A33519  16.004  22.190   8.564
 2483POPC   D2A33520  15.908  22.122   8.264
 2483POPC   C3A33521  15.908  22.208   7.964
 2483POPC   C4A33522  15.987  22.158   7.664
 2483POPC   C1B33523  15.787  22.366   8.564
 2483POPC   C2B33524  15.824  22.409   8.264
 2483POPC   C3B33525  15.802  22.383   7.964
 2483POPC   C4B33526  15.807  22.398   7.664
 2484POPC   NC333527   1.997  40.776   9.464
 2484POPC   PO433528   1.941  40.797   9.164
 2484POPC   GL133529   2.021  40.767   8.864
 2484POPC   GL233530   2.038  40.939   8.864
 2484POPC   C1A33531   2.011  40.785   8.564
 2484POPC   D2A33532   1.980  40.733   8.264
 2484POPC   C3A33533   2.038  40.828   7.964
 2484POPC   C4A33534   2.017  40.827   7.664
 2484POPC   C1B33535   2.071  41.047   8.564
 2484POPC   C2B33536   2.053  41.067   8.264
 2484POPC   C3B33537   2.046  41.020   7.964
 2484POPC   C4B33538   1.988  41.045   7.664
 2485POPC   NC333539  37.694  26.783   9.464
 2485POPC   PO433540  37.693  26.853   9.164
 2485POPC   GL133541  37.720  26.807   8.864
 2485POPC   GL233542  37.555  26.839   8.864
 2485POPC   C1A33543  37.652  26.768   8.564
 2485POPC   D2A33544  37.642  26.774   8.264
 2485POPC   C3A33545  37.706  26.864   7.964
 2485POPC   C4A33546  37.706  26.793   7.664
 2485POPC   C1B33547  37.422  26.942   8.564
 2485POPC   C2B33548  37.506  26.984   8.264
 2485POPC   C3B33549  37.460  26.984   7.964
 2485POPC   C4B33550  37.471  26.929   7.664
 2486POPC   NC333551  31.514  13.579   9.464
 2486POPC   PO433552  31.457  13.636   9.164
 2486POPC   GL133553  31.517  13.656   8.864
 2486POPC   GL233554  31.321  13.579   8.864
 2486POPC   C1A33555  31.432  13.675   8.564
 2486POPC   D2A33556  31.445  13.650   8.264
 2486POPC   C3A33557  31.484  13.677   7.964
 2486POPC   C4A33558  31.425  13.610   7.664
 2486POPC   C1B33559  31.186  13.559   8.564
 2486POPC   C2B33560  31.204  13.597   8.264
 2486POPC   C3B33561  31.196  13.632   7.964
 2486POPC   C4B33562  31.253  13.590   7.664
 2487POPC   NC333563  36.090  36.120   9.464
 2487POPC   PO433564  36.103  36.157   9.164
 2487POPC   GL133565  36.168  36.138   8.864
 2487POPC   GL233566  35.969  36.125   8.864
 2487POPC   C1A33567  36.093  36.084   8.564
 2487POPC   D2A33568  36.152  36.136   8.264
 2487POPC   C3A33569  36.152  36.094   7.964
 2487POPC   C4A33570  36.110  36.100   7.664
 2487POPC   C1B33571  35.890  36.185   8.564
 2487POPC   C2B33572  35.935  36.186   8.264
 2487POPC   C3B33573  35.932  36.169   7.964
 2487POPC   C4B33574  35.896  36.235   7.664
 2488POPC   NC333575  20.655  19.824   9.464
 2488POPC   PO433576  20.604  19.829   9.164
 2488POPC   GL133577  20.644  19.876   8.864
 2488POPC   GL233578  20.536  19.721   8.864
 2488POPC   C1A33579  20.639  19.867   8.564
 2488POPC   D2A33580  20.592  19.874   8.264
 2488POPC   C3A33581  20.578  19.821   7.964
 2488POPC   C4A33582  20.563  19.859   7.664
 2488POPC   C1B33583  20.443  19.650   8.564
 2488POPC   C2B33584  20.408  19.683   8.264
 2488POPC   C3B33585  20.373  19.628   7.964
 2488POPC   C4B33586  20.441  19.673   7.664
 2489POPC   NC333587  32.217  11.309   9.464
 2489POPC   PO433588  32.264  11.330   9.164
 2489POPC   GL133589  32.244  11.265   8.864
 2489POPC   GL233590  32.099  11.275   8.864
 2489POPC   C1A33591  32.240  11.310   8.564
 2489POPC   D2A33592  32.249  11.280   8.264
 2489POPC   C3A33593  32.208  11.287   7.964
 2489POPC   C4A33594  32.218  11.307   7.664
 2489POPC   C1B33595  31.984  11.294   8.564
 2489POPC   C2B33596  32.018  11.245   8.264
 2489POPC   C3B33597  32.024  11.259   7.964
 2489POPC   C4B33598  31.990  11.260   7.664
 2490POPC   NC333599  43.871  14.367   9.464
 2490POPC   PO433600  43.842  14.415   9.164
 2490POPC   GL133601  43.892  14.443   8.864
 2490POPC   GL233602  43.757  14.325   8.864
 2490POPC   C1A33603  43.868  14.354   8.564
 2490POPC   D2A33604  43.913  14.440   8.264
 2490POPC   C3A33605  43.893  14.380   7.964
 2490POPC   C4A33606  43.908  14.417   7.664
 2490POPC   C1B33607  43.665  14.310   8.564
 2490POPC   C2B33608  43.677  14.232   8.264
 2490POPC   C3B33609  43.711  14.277   7.964
 2490POPC   C4B33610  43.695  14.277   7.664
 2491POPC   NC333611  35.375  24.534   9.464
 2491POPC   PO433612  35.337  24.530   9.164
 2491POPC   GL133613  35.309  24.453   8.864
 2491POPC   GL233614  35.242  24.477   8.864
 2491POPC   C1A33615  35.371  24.517   8.564
 2491POPC   D2A33616  35.373  24.499   8.264
 2491POPC   C3A33617  35.348  24.453   7.964
 2491POPC   C4A33618  35.353  24.446   7.664
 2491POPC   C1B33619  35.069  24.561   8.564
 2491POPC   C2B33620  35.117  24.488   8.264
 2491POPC   C3B33621  35.138  24.523   7.964
 2491POPC   C4B33622  35.095  24.500   7.664
 2492POPC   NC333623  23.741  41.580   9.464
 2492POPC   PO433624  23.681  41.587   9.164
 2492POPC   GL133625  23.673  41.532   8.864
 2492POPC   GL233626  23.615  41.529   8.864
 2492POPC   C1A33627  23.698  41.529   8.564
 2492POPC   D2A33628  23.698  41.564   8.264
 2492POPC   C3A33629  23.716  41.546   7.964
 2492POPC   C4A33630  23.761  41.535   7.664
 2492POPC   C1B33631  23.425  41.474   8.564
 2492POPC   C2B33632  23.452  41.511   8.264
 2492POPC   C3B33633  23.504  41.527   7.964
 2492POPC   C4B33634  23.442  41.487   7.664
 2493POPC   NC333635  26.071  43.152   9.464
 2493POPC   PO433636  26.072  43.158   9.164
 2493POPC   GL133637  26.082  43.133   8.864
 2493POPC   GL233638  26.018  43.000   8.864
 2493POPC   C1A33639  26.018  43.066   8.564
 2493POPC   D2A33640  26.050  43.072   8.264
 2493POPC   C3A33641  26.011  43.129   7.964
 2493POPC   C4A33642  26.063  43.135   7.664
 2493POPC   C1B33643  26.025  42.910   8.564
 2493POPC   C2B33644  26.026  42.853   8.264
 2493POPC   C3B33645  26.019  42.869   7.964
 2493POPC   C4B33646  26.083  42.901   7.664
 2494POPC   NC333647  21.375   1.253   9.464
 2494POPC   PO433648  21.402   1.175   9.164
 2494POPC   GL133649  21.364   1.215   8.864
 2494POPC   GL233650  21.430   1.373   8.864
 2494POPC   C1A33651  21.429   1.234   8.564
 2494POPC   D2A33652  21.377   1.203   8.264
 2494POPC   C3A33653  21.366   1.216   7.964
 2494POPC   C4A33654  21.383   1.204   7.664
 2494POPC   C1B33655  21.462   1.432   8.564
 2494POPC   C2B33656  21.486   1.440   8.264
 2494POPC   C3B33657  21.478   1.464   7.964
 2494POPC   C4B33658  21.510   1.470   7.664
 2495POPC   NC333659   2.780  28.405   9.464
 2495POPC   PO433660   2.763  28.379   9.164
 2495POPC   GL133661   2.747  28.389   8.864
 2495POPC   GL233662   2.784  28.512   8.864
 2495POPC   C1A33663   2.815  28.336   8.564
 2495POPC   D2A33664   2.760  28.367   8.264
 2495POPC   C3A33665   2.744  28.384   7.964
 2495POPC   C4A33666   2.742  28.342   7.664
 2495POPC   C1B33667   2.780  28.600   8.564
 2495POPC   C2B33668   2.716  28.648   8.264
 2495POPC   C3B33669   2.775  28.620   7.964
 2495POPC   C4B33670   2.758  28.651   7.664
 2496POPC   NC333671  43.159  35.335   9.464
 2496POPC   PO433672  43.116  35.381   9.164
 2496POPC   GL133673  43.153  35.387   8.864
 2496POPC   GL233674  43.201  35.326   8.864
 2496POPC   C1A33675  43.146  35.370   8.564
 2496POPC   D2A33676  43.147  35.319   8.264
 2496POPC   C3A33677  43.080  35.360   7.964
 2496POPC   C4A33678  43.131  35.337   7.664
 2496POPC   C1B33679  43.377  35.321   8.564
 2496POPC   C2B33680  43.330  35.318   8.264
 2496POPC   C3B33681  43.315  35.335   7.964
 2496POPC   C4B33682  43.409  35.371   7.664
 2497POPC   NC333683  12.858  29.131   9.464
 2497POPC   PO433684  12.812  29.176   9.164
 2497POPC   GL133685  12.895  29.157   8.864
 2497POPC   GL233686  12.934  29.290   8.864
 2497POPC   C1A33687  12.859  29.157   8.564
 2497POPC   D2A33688  12.888  29.190   8.264
 2497POPC   C3A33689  12.859  29.150   7.964
 2497POPC   C4A33690  12.853  29.190   7.664
 2497POPC   C1B33691  12.963  29.367   8.564
 2497POPC   C2B33692  12.919  29.358   8.264
 2497POPC   C3B33693  12.958  29.402   7.964
 2497POPC   C4B33694  13.007  29.405   7.664
 2498POPC   NC333695  40.813  35.348   9.464
 2498POPC   PO433696  40.801  35.323   9.164
 2498POPC   GL133697  40.791  35.365   8.864
 2498POPC   GL233698  40.747  35.219   8.864
 2498POPC   C1A33699  40.793  35.355   8.564
 2498POPC   D2A33700  40.783  35.391   8.264
 2498POPC   C3A33701  40.767  35.363   7.964
 2498POPC   C4A33702  40.749  35.323   7.664
 2498POPC   C1B33703  40.654  35.124   8.564
 2498POPC   C2B33704  40.636  35.158   8.264
 2498POPC   C3B33705  40.683  35.143   7.964
 2498POPC   C4B33706  40.650  35.126   7.664
 2499POPC   NC333707  17.462   9.746   9.464
 2499POPC   PO433708  17.477   9.704   9.164
 2499POPC   GL133709  17.480   9.741   8.864
 2499POPC   GL233710  17.626   9.687   8.864
 2499POPC   C1A33711  17.522   9.797   8.564
 2499POPC   D2A33712  17.514   9.720   8.264
 2499POPC   C3A33713  17.522   9.714   7.964
 2499POPC   C4A33714  17.540   9.770   7.664
 2499POPC   C1B33715  17.784   9.739   8.564
 2499POPC   C2B33716  17.802   9.756   8.264
 2499POPC   C3B33717  17.727   9.739   7.964
 2499POPC   C4B33718  17.733   9.709   7.664
 2500POPC   NC333719  22.143  32.279   9.464
 2500POPC   PO433720  22.172  32.268   9.164
 2500POPC   GL133721  22.167  32.207   8.864
 2500POPC   GL233722  22.177  32.326   8.864
 2500POPC   C1A33723  22.146  32.216   8.564
 2500POPC   D2A33724  22.159  32.222   8.264
 2500POPC   C3A33725  22.141  32.294   7.964
 2500POPC   C4A33726  22.199  32.231   7.664
 2500POPC   C1B33727  22.206  32.487   8.564
 2500POPC   C2B33728  22.225  32.485   8.264
 2500POPC   C3B33729  22.261  32.538   7.964
 2500POPC   C4B33730  22.267  32.507   7.664
 2501POPC   NC333731   7.448  35.363   9.464
 2501POPC   PO433732   7.452  35.361   9.164
 2501POPC   GL133733   7.469  35.304   8.864
 2501POPC   GL233734   7.352  35.439   8.864
 2501POPC   C1A33735   7.397  35.390   8.564
 2501POPC   D2A33736   7.446  35.357   8.264
 2501POPC   C3A33737   7.450  35.329   7.964
 2501POPC   C4A33738   7.465  35.382   7.664
 2501POPC   C1B33739   7.279  35.575   8.564
 2501POPC   C2B33740   7.292  35.628   8.264
 2501POPC   C3B33741   7.296  35.542   7.964
 2501POPC   C4B33742   7.328  35.624   7.664
 2502POPC   NC333743  36.924  28.320   9.464
 2502POPC   PO433744  36.880  28.323   9.164
 2502POPC   GL133745  36.923  28.390   8.864
 2502POPC   GL233746  36.795  28.434   8.864
 2502POPC   C1A33747  36.883  28.381   8.564
 2502POPC   D2A33748  36.916  28.378   8.264
 2502POPC   C3A33749  36.925  28.397   7.964
 2502POPC   C4A33750  36.950  28.368   7.664
 2502POPC   C1B33751  36.668  28.404   8.564
 2502POPC   C2B33752  36.671  28.444   8.264
 2502POPC   C3B33753  36.661  28.422   7.964
 2502POPC   C4B33754  36.663  28.460   7.664
 2503POPC   NC333755  26.861  44.643   9.464
 2503POPC   PO433756  26.835  44.697   9.164
 2503POPC   GL133757  26.808  44.700   8.864
 2503POPC   GL233758  26.879  44.721   8.864
 2503POPC   C1A33759  26.772  44.612   8.564
 2503POPC   D2A33760  26.773  44.626   8.264
 2503POPC   C3A33761  26.849  44.701   7.964
 2503POPC   C4A33762  26.845  44.691   7.664
 2503POPC   C1B33763  27.026  44.796   8.564
 2503POPC   C2B33764  27.028  44.830   8.264
 2503POPC   C3B33765  26.969  44.873   7.964
 2503POPC   C4B33766  27.036  44.840   7.664
 2504POPC   NC333767  25.239  40.801   9.464
 2504POPC   PO433768  25.261  40.763   9.164
 2504POPC   GL133769  25.298  40.778   8.864
 2504POPC   GL233770  25.325  40.868   8.864
 2504POPC   C1A33771  25.274  40.774   8.564
 2504POPC   D2A33772  25.217  40.820   8.264
 2504POPC   C3A33773  25.221  40.829   7.964
 2504POPC   C4A33774  25.256  40.745   7.664
 2504POPC   C1B33775  25.397  41.025   8.564
 2504POPC   C2B33776  25.381  40.969   8.264
 2504POPC   C3B33777  25.401  41.060   7.964
 2504POPC   C4B33778  25.385  40.986   7.664
 2505POPC   NC333779  29.167  17.458   9.464
 2505POPC   PO433780  29.142  17.552   9.164
 2505POPC   GL133781  29.181  17.471   8.864
 2505POPC   GL233782  29.042  17.420   8.864
 2505POPC   C1A33783  29.171  17.501   8.564
 2505POPC   D2A33784  29.118  17.471   8.264
 2505POPC   C3A33785  29.095  17.527   7.964
 2505POPC   C4A33786  29.170  17.536   7.664
 2505POPC   C1B33787  28.980  17.268   8.564
 2505POPC   C2B33788  29.045  17.246   8.264
 2505POPC   C3B33789  29.063  17.279   7.964
 2505POPC   C4B33790  29.065  17.280   7.664
 2506POPC   NC333791  13.644  22.987   9.464
 2506POPC   PO433792  13.675  22.899   9.164
 2506POPC   GL133793  13.579  22.950   8.864
 2506POPC   GL233794  13.611  23.107   8.864
 2506POPC   C1A33795  13.661  22.961   8.564
 2506POPC   D2A33796  13.592  22.969   8.264
 2506POPC   C3A33797  13.616  22.958   7.964
 2506POPC   C4A33798  13.579  22.945   7.664
 2506POPC   C1B33799  13.615  23.217   8.564
 2506POPC   C2B33800  13.626  23.159   8.264
 2506POPC   C3B33801  13.575  23.143   7.964
 2506POPC   C4B33802  13.646  23.233   7.664
 2507POPC   NC333803  10.517  13.610   9.464
 2507POPC   PO433804  10.478  13.636   9.164
 2507POPC   GL133805  10.510  13.649   8.864
 2507POPC   GL233806  10.488  13.556   8.864
 2507POPC   C1A33807  10.565  13.585   8.564
 2507POPC   D2A33808  10.481  13.669   8.264
 2507POPC   C3A33809  10.574  13.579   7.964
 2507POPC   C4A33810  10.538  13.663   7.664
 2507POPC   C1B33811  10.462  13.373   8.564
 2507POPC   C2B33812  10.429  13.351   8.264
 2507POPC   C3B33813  10.403  13.436   7.964
 2507POPC   C4B33814  10.415  13.403   7.664
 2508POPC   NC333815  19.816   2.018   9.464
 2508POPC   PO433816  19.865   2.029   9.164
 2508POPC   GL133817  19.829   1.950   8.864
 2508POPC   GL233818  19.896   1.881   8.864
 2508POPC   C1A33819  19.813   1.980   8.564
 2508POPC   D2A33820  19.821   1.982   8.264
 2508POPC   C3A33821  19.823   2.033   7.964
 2508POPC   C4A33822  19.883   1.975   7.664
 2508POPC   C1B33823  19.941   1.798   8.564
 2508POPC   C2B33824  19.977   1.749   8.264
 2508POPC   C3B33825  19.961   1.804   7.964
 2508POPC   C4B33826  20.001   1.790   7.664
 2509POPC   NC333827   2.771   1.950   9.464
 2509POPC   PO433828   2.730   1.972   9.164
 2509POPC   GL133829   2.791   1.984   8.864
 2509POPC   GL233830   2.818   1.837   8.864
 2509POPC   C1A33831   2.734   2.036   8.564
 2509POPC   D2A33832   2.717   1.969   8.264
 2509POPC   C3A33833   2.728   1.944   7.964
 2509POPC   C4A33834   2.810   1.978   7.664
 2509POPC   C1B33835   2.857   1.739   8.564
 2509POPC   C2B33836   2.863   1.753   8.264
 2509POPC   C3B33837   2.801   1.746   7.964
 2509POPC   C4B33838   2.868   1.778   7.664
 2510POPC   NC333839   5.871  27.612   9.464
 2510POPC   PO433840   5.910  27.593   9.164
 2510POPC   GL133841   5.919  27.555   8.864
 2510POPC   GL233842   5.743  27.514   8.864
 2510POPC   C1A33843   5.855  27.585   8.564
 2510POPC   D2A33844   5.854  27.547   8.264
 2510POPC   C3A33845   5.838  27.587   7.964
 2510POPC   C4A33846   5.858  27.571   7.664
 2510POPC   C1B33847   5.670  27.460   8.564
 2510POPC   C2B33848   5.692  27.411   8.264
 2510POPC   C3B33849   5.668  27.491   7.964
 2510POPC   C4B33850   5.616  27.464   7.664
 2511POPC   NC333851  18.281   5.876   9.464
 2511POPC   PO433852  18.281   5.846   9.164
 2511POPC   GL133853  18.260   5.858   8.864
 2511POPC   GL233854  18.418   5.783   8.864
 2511POPC   C1A33855  18.314   5.889   8.564
 2511POPC   D2A33856  18.325   5.887   8.264
 2511POPC   C3A33857  18.305   5.857   7.964
 2511POPC   C4A33858  18.327   5.858   7.664
 2511POPC   C1B33859  18.456   5.674   8.564
 2511POPC   C2B33860  18.471   5.675   8.264
 2511POPC   C3B33861  18.444   5.716   7.964
 2511POPC   C4B33862  18.442   5.717   7.664
 2512POPC   NC333863   8.203  15.945   9.464
 2512POPC   PO433864   8.190  15.991   9.164
 2512POPC   GL133865   8.226  15.908   8.864
 2512POPC   GL233866   8.259  16.018   8.864
 2512POPC   C1A33867   8.187  15.966   8.564
 2512POPC   D2A33868   8.189  15.997   8.264
 2512POPC   C3A33869   8.181  15.995   7.964
 2512POPC   C4A33870   8.244  16.004   7.664
 2512POPC   C1B33871   8.344  16.148   8.564
 2512POPC   C2B33872   8.388  16.136   8.264
 2512POPC   C3B33873   8.392  16.114   7.964
 2512POPC   C4B33874   8.374  16.136   7.664
 2513POPC   NC333875  34.561  16.759   9.464
 2513POPC   PO433876  34.531  16.761   9.164
 2513POPC   GL133877  34.622  16.766   8.864
 2513POPC   GL233878  34.685  16.631   8.864
 2513POPC   C1A33879  34.532  16.756   8.564
 2513POPC   D2A33880  34.574  16.779   8.264
 2513POPC   C3A33881  34.545  16.773   7.964
 2513POPC   C4A33882  34.598  16.771   7.664
 2513POPC   C1B33883  34.677  16.548   8.564
 2513POPC   C2B33884  34.730  16.547   8.264
 2513POPC   C3B33885  34.720  16.533   7.964
 2513POPC   C4B33886  34.704  16.569   7.664
 2514POPC   NC333887  15.139  15.944   9.464
 2514POPC   PO433888  15.137  15.956   9.164
 2514POPC   GL133889  15.149  15.963   8.864
 2514POPC   GL233890  15.188  16.118   8.864
 2514POPC   C1A33891  15.165  15.935   8.564
 2514POPC   D2A33892  15.217  15.949   8.264
 2514POPC   C3A33893  15.207  15.966   7.964
 2514POPC   C4A33894  15.207  16.003   7.664
 2514POPC   C1B33895  15.145  16.253   8.564
 2514POPC   C2B33896  15.127  16.214   8.264
 2514POPC   C3B33897  15.207  16.181   7.964
 2514POPC   C4B33898  15.150  16.202   7.664
 2515POPC   NC333899  38.430  38.453   9.464
 2515POPC   PO433900  38.410  38.441   9.164
 2515POPC   GL133901  38.490  38.468   8.864
 2515POPC   GL233902  38.334  38.419   8.864
 2515POPC   C1A33903  38.505  38.437   8.564
 2515POPC   D2A33904  38.472  38.497   8.264
 2515POPC   C3A33905  38.483  38.410   7.964
 2515POPC   C4A33906  38.434  38.454   7.664
 2515POPC   C1B33907  38.239  38.316   8.564
 2515POPC   C2B33908  38.206  38.385   8.264
 2515POPC   C3B33909  38.268  38.364   7.964
 2515POPC   C4B33910  38.195  38.379   7.664
 2516POPC   NC333911   5.118  32.268   9.464
 2516POPC   PO433912   5.055  32.200   9.164
 2516POPC   GL133913   5.044  32.228   8.864
 2516POPC   GL233914   5.033  32.169   8.864
 2516POPC   C1A33915   5.082  32.245   8.564
 2516POPC   D2A33916   5.078  32.200   8.264
 2516POPC   C3A33917   5.123  32.280   7.964
 2516POPC   C4A33918   5.081  32.293   7.664
 2516POPC   C1B33919   5.083  32.040   8.564
 2516POPC   C2B33920   5.055  32.042   8.264
 2516POPC   C3B33921   5.097  32.015   7.964
 2516POPC   C4B33922   5.114  32.002   7.664
 2517POPC   NC333923  30.745  28.399   9.464
 2517POPC   PO433924  30.732  28.391   9.164
 2517POPC   GL133925  30.698  28.367   8.864
 2517POPC   GL233926  30.807  28.375   8.864
 2517POPC   C1A33927  30.672  28.374   8.564
 2517POPC   D2A33928  30.686  28.374   8.264
 2517POPC   C3A33929  30.714  28.395   7.964
 2517POPC   C4A33930  30.709  28.322   7.664
 2517POPC   C1B33931  30.945  28.326   8.564
 2517POPC   C2B33932  30.979  28.286   8.264
 2517POPC   C3B33933  30.987  28.351   7.964
 2517POPC   C4B33934  30.929  28.356   7.664
 2518POPC   NC333935  29.942  39.241   9.464
 2518POPC   PO433936  29.890  39.278   9.164
 2518POPC   GL133937  29.905  39.184   8.864
 2518POPC   GL233938  29.932  39.394   8.864
 2518POPC   C1A33939  29.924  39.238   8.564
 2518POPC   D2A33940  29.943  39.196   8.264
 2518POPC   C3A33941  29.893  39.204   7.964
 2518POPC   C4A33942  29.952  39.193   7.664
 2518POPC   C1B33943  29.844  39.505   8.564
 2518POPC   C2B33944  29.840  39.492   8.264
 2518POPC   C3B33945  29.853  39.458   7.964
 2518POPC   C4B33946  29.930  39.493   7.664
 2519POPC   NC333947  27.592  32.225   9.464
 2519POPC   PO433948  27.575  32.272   9.164
 2519POPC   GL133949  27.629  32.261   8.864
 2519POPC   GL233950  27.635  32.175   8.864
 2519POPC   C1A33951  27.560  32.280   8.564
 2519POPC   D2A33952  27.570  32.212   8.264
 2519POPC   C3A33953  27.591  32.209   7.964
 2519POPC   C4A33954  27.546  32.279   7.664
 2519POPC   C1B33955  27.740  32.095   8.564
 2519POPC   C2B33956  27.712  32.046   8.264
 2519POPC   C3B33957  27.780  32.063   7.964
 2519POPC   C4B33958  27.704  32.053   7.664
 2520POPC   NC333959   2.038  33.059   9.464
 2520POPC   PO433960   1.940  32.987   9.164
 2520POPC   GL133961   2.039  33.064   8.864
 2520POPC   GL233962   2.079  33.057   8.864
 2520POPC   C1A33963   2.000  33.063   8.564
 2520POPC   D2A33964   2.012  33.021   8.264
 2520POPC   C3A33965   1.947  32.983   7.964
 2520POPC   C4A33966   2.002  33.063   7.664
 2520POPC   C1B33967   2.261  33.107   8.564
 2520POPC   C2B33968   2.201  33.147   8.264
 2520POPC   C3B33969   2.227  33.059   7.964
 2520POPC   C4B33970   2.179  33.062   7.664
 2521POPC   NC333971  23.701  16.778   9.464
 2521POPC   PO433972  23.732  16.698   9.164
 2521POPC   GL133973  23.751  16.695   8.864
 2521POPC   GL233974  23.752  16.588   8.864
 2521POPC   C1A33975  23.756  16.767   8.564
 2521POPC   D2A33976  23.698  16.689   8.264
 2521POPC   C3A33977  23.721  16.691   7.964
 2521POPC   C4A33978  23.744  16.701   7.664
 2521POPC   C1B33979  23.699  16.513   8.564
 2521POPC   C2B33980  23.742  16.520   8.264
 2521POPC   C3B33981  23.778  16.513   7.964
 2521POPC   C4B33982  23.700  16.472   7.664
 2522POPC   NC333983  26.043   6.671   9.464
 2522POPC   PO433984  25.993   6.643   9.164
 2522POPC   GL133985  26.043   6.660   8.864
 2522POPC   GL233986  25.927   6.713   8.864
 2522POPC   C1A33987  26.035   6.674   8.564
 2522POPC   D2A33988  26.015   6.616   8.264
 2522POPC   C3A33989  26.078   6.684   7.964
 2522POPC   C4A33990  26.065   6.626   7.664
 2522POPC   C1B33991  25.900   6.869   8.564
 2522POPC   C2B33992  25.927   6.827   8.264
 2522POPC   C3B33993  25.885   6.838   7.964
 2522POPC   C4B33994  25.859   6.815   7.664
 2523POPC   NC333995   4.288   4.268   9.464
 2523POPC   PO433996   4.283   4.317   9.164
 2523POPC   GL133997   4.292   4.358   8.864
 2523POPC   GL233998   4.458   4.327   8.864
 2523POPC   C1A33999   4.327   4.341   8.564
 2523POPC   D2A34000   4.296   4.294   8.264
 2523POPC   C3A34001   4.352   4.320   7.964
 2523POPC   C4A34002   4.309   4.325   7.664
 2523POPC   C1B34003   4.603   4.310   8.564
 2523POPC   C2B34004   4.539   4.384   8.264
 2523POPC   C3B34005   4.569   4.336   7.964
 2523POPC   C4B34006   4.537   4.335   7.664
 2524POPC   NC334007   5.874   6.599   9.464
 2524POPC   PO434008   5.901   6.656   9.164
 2524POPC   GL134009   5.831   6.607   8.864
 2524POPC   GL234010   5.873   6.526   8.864
 2524POPC   C1A34011   5.883   6.640   8.564
 2524POPC   D2A34012   5.885   6.611   8.264
 2524POPC   C3A34013   5.826   6.694   7.964
 2524POPC   C4A34014   5.875   6.659   7.664
 2524POPC   C1B34015   5.835   6.371   8.564
 2524POPC   C2B34016   5.786   6.401   8.264
 2524POPC   C3B34017   5.767   6.372   7.964
 2524POPC   C4B34018   5.775   6.391   7.664
 2525POPC   NC334019  43.891  42.339   9.464
 2525POPC   PO434020  43.878  42.294   9.164
 2525POPC   GL134021  43.863  42.375   8.864
 2525POPC   GL234022  43.921  42.443   8.864
 2525POPC   C1A34023  43.847  42.383   8.564
 2525POPC   D2A34024  43.913  42.361   8.264
 2525POPC   C3A34025  43.847  42.362   7.964
 2525POPC   C4A34026  43.917  42.329   7.664
 2525POPC   C1B34027  44.055  42.493   8.564
 2525POPC   C2B34028  43.985  42.500   8.264
 2525POPC   C3B34029  44.058  42.500   7.964
 2525POPC   C4B34030  43.996  42.580   7.664
 2526POPC   NC334031   3.515  32.267   9.464
 2526POPC   PO434032   3.518  32.222   9.164
 2526POPC   GL134033   3.522  32.240   8.864
 2526POPC   GL234034   3.707  32.234   8.864
 2526POPC   C1A34035   3.503  32.231   8.564
 2526POPC   D2A34036   3.507  32.261   8.264
 2526POPC   C3A34037   3.504  32.225   7.964
 2526POPC   C4A34038   3.584  32.295   7.664
 2526POPC   C1B34039   3.780  32.185   8.564
 2526POPC   C2B34040   3.755  32.184   8.264
 2526POPC   C3B34041   3.778  32.184   7.964
 2526POPC   C4B34042   3.824  32.214   7.664
 2527POPC   NC334043  25.302  38.442   9.464
 2527POPC   PO434044  25.231  38.418   9.164
 2527POPC   GL134045  25.226  38.492   8.864
 2527POPC   GL234046  25.197  38.625   8.864
 2527POPC   C1A34047  25.272  38.500   8.564
 2527POPC   D2A34048  25.277  38.407   8.264
 2527POPC   C3A34049  25.273  38.498   7.964
 2527POPC   C4A34050  25.303  38.504   7.664
 2527POPC   C1B34051  25.241  38.690   8.564
 2527POPC   C2B34052  25.176  38.726   8.264
 2527POPC   C3B34053  25.220  38.738   7.964
 2527POPC   C4B34054  25.252  38.663   7.664
 2528POPC   NC334055  19.086  23.699   9.464
 2528POPC   PO434056  19.029  23.694   9.164
 2528POPC   GL134057  19.057  23.695   8.864
 2528POPC   GL234058  19.007  23.805   8.864
 2528POPC   C1A34059  19.017  23.707   8.564
 2528POPC   D2A34060  19.043  23.723   8.264
 2528POPC   C3A34061  19.045  23.695   7.964
 2528POPC   C4A34062  19.067  23.679   7.664
 2528POPC   C1B34063  18.958  23.924   8.564
 2528POPC   C2B34064  18.964  23.929   8.264
 2528POPC   C3B34065  18.969  23.930   7.964
 2528POPC   C4B34066  18.989  23.929   7.664
 2529POPC   NC334067  26.801   5.864   9.464
 2529POPC   PO434068  26.855   5.833   9.164
 2529POPC   GL134069  26.799   5.892   8.864
 2529POPC   GL234070  26.928   5.919   8.864
 2529POPC   C1A34071  26.803   5.914   8.564
 2529POPC   D2A34072  26.856   5.907   8.264
 2529POPC   C3A34073  26.806   5.864   7.964
 2529POPC   C4A34074  26.865   5.864   7.664
 2529POPC   C1B34075  27.024   5.982   8.564
 2529POPC   C2B34076  27.007   6.006   8.264
 2529POPC   C3B34077  27.011   5.944   7.964
 2529POPC   C4B34078  27.031   5.957   7.664
 2530POPC   NC334079  14.368  39.258   9.464
 2530POPC   PO434080  14.406  39.205   9.164
 2530POPC   GL134081  14.385  39.249   8.864
 2530POPC   GL234082  14.233  39.179   8.864
 2530POPC   C1A34083  14.401  39.275   8.564
 2530POPC   D2A34084  14.426  39.242   8.264
 2530POPC   C3A34085  14.438  39.233   7.964
 2530POPC   C4A34086  14.453  39.195   7.664
 2530POPC   C1B34087  14.134  39.220   8.564
 2530POPC   C2B34088  14.125  39.211   8.264
 2530POPC   C3B34089  14.190  39.191   7.964
 2530POPC   C4B34090  14.127  39.138   7.664
 2531POPC   NC334091  43.126  30.745   9.464
 2531POPC   PO434092  43.151  30.684   9.164
 2531POPC   GL134093  43.130  30.671   8.864
 2531POPC   GL234094  43.084  30.858   8.864
 2531POPC   C1A34095  43.124  30.676   8.564
 2531POPC   D2A34096  43.065  30.725   8.264
 2531POPC   C3A34097  43.081  30.695   7.964
 2531POPC   C4A34098  43.061  30.651   7.664
 2531POPC   C1B34099  43.112  30.977   8.564
 2531POPC   C2B34100  43.027  30.955   8.264
 2531POPC   C3B34101  43.034  30.956   7.964
 2531POPC   C4B34102  43.045  30.981   7.664
 2532POPC   NC334103  33.802  40.755   9.464
 2532POPC   PO434104  33.842  40.831   9.164
 2532POPC   GL134105  33.762  40.824   8.864
 2532POPC   GL234106  33.943  40.718   8.864
 2532POPC   C1A34107  33.798  40.817   8.564
 2532POPC   D2A34108  33.799  40.754   8.264
 2532POPC   C3A34109  33.833  40.816   7.964
 2532POPC   C4A34110  33.814  40.762   7.664
 2532POPC   C1B34111  34.073  40.648   8.564
 2532POPC   C2B34112  34.027  40.721   8.264
 2532POPC   C3B34113  34.074  40.670   7.964
 2532POPC   C4B34114  33.986  40.697   7.664
 2533POPC   NC334115  25.306   0.432   9.464
 2533POPC   PO434116  25.252   0.481   9.164
 2533POPC   GL134117  25.223   0.465   8.864
 2533POPC   GL234118  25.197   0.362   8.864
 2533POPC   C1A34119  25.222   0.439   8.564
 2533POPC   D2A34120  25.293   0.393   8.264
 2533POPC   C3A34121  25.244   0.401   7.964
 2533POPC   C4A34122  25.241   0.477   7.664
 2533POPC   C1B34123  25.108   0.256   8.564
 2533POPC   C2B34124  25.096   0.310   8.264
 2533POPC   C3B34125  25.086   0.324   7.964
 2533POPC   C4B34126  25.094   0.266   7.664
 2534POPC   NC334127   6.678  15.921   9.464
 2534POPC   PO434128   6.596  15.964   9.164
 2534POPC   GL134129   6.638  15.945   8.864
 2534POPC   GL234130   6.488  16.025   8.864
 2534POPC   C1A34131   6.684  15.940   8.564
 2534POPC   D2A34132   6.603  15.969   8.264
 2534POPC   C3A34133   6.646  15.923   7.964
 2534POPC   C4A34134   6.647  15.997   7.664
 2534POPC   C1B34135   6.405  16.043   8.564
 2534POPC   C2B34136   6.421  16.008   8.264
 2534POPC   C3B34137   6.459  16.021   7.964
 2534POPC   C4B34138   6.400  16.006   7.664
 2535POPC   NC334139  37.653  29.888   9.464
 2535POPC   PO434140  37.701  29.871   9.164
 2535POPC   GL134141  37.658  29.876   8.864
 2535POPC   GL234142  37.785  29.950   8.864
 2535POPC   C1A34143  37.662  29.954   8.564
 2535POPC   D2A34144  37.696  29.960   8.264
 2535POPC   C3A34145  37.675  29.969   7.964
 2535POPC   C4A34146  37.711  29.895   7.664
 2535POPC   C1B34147  37.971  29.949   8.564
 2535POPC   C2B34148  37.888  29.980   8.264
 2535POPC   C3B34149  37.943  29.975   7.964
 2535POPC   C4B34150  37.885  29.932   7.664
 2536POPC   NC334151   1.201  18.332   9.464
 2536POPC   PO434152   1.166  18.296   9.164
 2536POPC   GL134153   1.171  18.299   8.864
 2536POPC   GL234154   1.104  18.298   8.864
 2536POPC   C1A34155   1.261  18.307   8.564
 2536POPC   D2A34156   1.229  18.299   8.264
 2536POPC   C3A34157   1.224  18.261   7.964
 2536POPC   C4A34158   1.166  18.294   7.664
 2536POPC   C1B34159   0.989  18.336   8.564
 2536POPC   C2B34160   0.953  18.256   8.264
 2536POPC   C3B34161   1.010  18.250   7.964
 2536POPC   C4B34162   0.954  18.256   7.664
 2537POPC   NC334163  12.814  11.317   9.464
 2537POPC   PO434164  12.878  11.296   9.164
 2537POPC   GL134165  12.816  11.257   8.864
 2537POPC   GL234166  12.939  11.226   8.864
 2537POPC   C1A34167  12.828  11.330   8.564
 2537POPC   D2A34168  12.895  11.328   8.264
 2537POPC   C3A34169  12.853  11.297   7.964
 2537POPC   C4A34170  12.894  11.288   7.664
 2537POPC   C1B34171  12.970  11.094   8.564
 2537POPC   C2B34172  12.978  11.032   8.264
 2537POPC   C3B34173  13.003  11.072   7.964
 2537POPC   C4B34174  12.958  11.091   7.664
 2538POPC   NC334175  27.608  33.834   9.464
 2538POPC   PO434176  27.589  33.761   9.164
 2538POPC   GL134177  27.566  33.806   8.864
 2538POPC   GL234178  27.714  33.872   8.864
 2538POPC   C1A34179  27.624  33.769   8.564
 2538POPC   D2A34180  27.630  33.771   8.264
 2538POPC   C3A34181  27.622  33.753   7.964
 2538POPC   C4A34182  27.550  33.836   7.664
 2538POPC   C1B34183  27.829  33.898   8.564
 2538POPC   C2B34184  27.835  33.820   8.264
 2538POPC   C3B34185  27.836  33.855   7.964
 2538POPC   C4B34186  27.841  33.849   7.664
 2539POPC   NC334187   8.157  35.380   9.464
 2539POPC   PO434188   8.227  35.381   9.164
 2539POPC   GL134189   8.193  35.307   8.864
 2539POPC   GL234190   8.130  35.384   8.864
 2539POPC   C1A34191   8.167  35.371   8.564
 2539POPC   D2A34192   8.193  35.347   8.264
 2539POPC   C3A34193   8.166  35.319   7.964
 2539POPC   C4A34194   8.238  35.363   7.664
 2539POPC   C1B34195   7.980  35.524   8.564
 2539POPC   C2B34196   7.958  35.559   8.264
 2539POPC   C3B34197   8.042  35.528   7.964
 2539POPC   C4B34198   7.988  35.504   7.664
 2540POPC   NC334199  42.310   5.096   9.464
 2540POPC   PO434200  42.294   5.096   9.164
 2540POPC   GL134201  42.328   5.078   8.864
 2540POPC   GL234202  42.234   5.109   8.864
 2540POPC   C1A34203  42.340   5.065   8.564
 2540POPC   D2A34204  42.305   5.107   8.264
 2540POPC   C3A34205  42.334   5.071   7.964
 2540POPC   C4A34206  42.286   5.062   7.664
 2540POPC   C1B34207  42.131   5.049   8.564
 2540POPC   C2B34208  42.046   5.068   8.264
 2540POPC   C3B34209  42.063   5.049   7.964
 2540POPC   C4B34210  42.127   5.094   7.664
 2541POPC   NC334211   4.285   0.457   9.464
 2541POPC   PO434212   4.363   0.422   9.164
 2541POPC   GL134213   4.313   0.483   8.864
 2541POPC   GL234214   4.401   0.423   8.864
 2541POPC   C1A34215   4.274   0.390   8.564
 2541POPC   D2A34216   4.330   0.480   8.264
 2541POPC   C3A34217   4.324   0.404   7.964
 2541POPC   C4A34218   4.360   0.438   7.664
 2541POPC   C1B34219   4.574   0.463   8.564
 2541POPC   C2B34220   4.605   0.536   8.264
 2541POPC   C3B34221   4.580   0.536   7.964
 2541POPC   C4B34222   4.523   0.514   7.664
 2542POPC   NC334223  11.342  13.651   9.464
 2542POPC   PO434224  11.313  13.649   9.164
 2542POPC   GL134225  11.269  13.592   8.864
 2542POPC   GL234226  11.224  13.523   8.864
 2542POPC   C1A34227  11.311  13.676   8.564
 2542POPC   D2A34228  11.253  13.630   8.264
 2542POPC   C3A34229  11.328  13.671   7.964
 2542POPC   C4A34230  11.302  13.637   7.664
 2542POPC   C1B34231  11.118  13.535   8.564
 2542POPC   C2B34232  11.117  13.489   8.264
 2542POPC   C3B34233  11.122  13.502   7.964
 2542POPC   C4B34234  11.125  13.519   7.664
 2543POPC   NC334235   7.463  28.391   9.464
 2543POPC   PO434236   7.453  28.319   9.164
 2543POPC   GL134237   7.377  28.392   8.864
 2543POPC   GL234238   7.290  28.444   8.864
 2543POPC   C1A34239   7.373  28.410   8.564
 2543POPC   D2A34240   7.406  28.329   8.264
 2543POPC   C3A34241   7.393  28.388   7.964
 2543POPC   C4A34242   7.441  28.386   7.664
 2543POPC   C1B34243   7.219  28.439   8.564
 2543POPC   C2B34244   7.151  28.406   8.264
 2543POPC   C3B34245   7.144  28.389   7.964
 2543POPC   C4B34246   7.137  28.401   7.664
 2544POPC   NC334247  13.615  16.717   9.464
 2544POPC   PO434248  13.669  16.771   9.164
 2544POPC   GL134249  13.603  16.705   8.864
 2544POPC   GL234250  13.676  16.845   8.864
 2544POPC   C1A34251  13.668  16.772   8.564
 2544POPC   D2A34252  13.652  16.750   8.264
 2544POPC   C3A34253  13.654  16.714   7.964
 2544POPC   C4A34254  13.615  16.721   7.664
 2544POPC   C1B34255  13.841  16.896   8.564
 2544POPC   C2B34256  13.799  16.895   8.264
 2544POPC   C3B34257  13.791  16.907   7.964
 2544POPC   C4B34258  13.838  16.910   7.664
 2545POPC   NC334259  33.796   4.277   9.464
 2545POPC   PO434260  33.830   4.311   9.164
 2545POPC   GL134261  33.762   4.319   8.864
 2545POPC   GL234262  33.940   4.385   8.864
 2545POPC   C1A34263  33.830   4.346   8.564
 2545POPC   D2A34264  33.757   4.299   8.264
 2545POPC   C3A34265  33.849   4.364   7.964
 2545POPC   C4A34266  33.836   4.279   7.664
 2545POPC   C1B34267  34.042   4.449   8.564
 2545POPC   C2B34268  34.008   4.443   8.264
 2545POPC   C3B34269  34.042   4.442   7.964
 2545POPC   C4B34270  33.965   4.448   7.664
 2546POPC   NC334271  31.478  29.958   9.464
 2546POPC   PO434272  31.455  29.913   9.164
 2546POPC   GL134273  31.461  29.930   8.864
 2546POPC   GL234274  31.625  29.906   8.864
 2546POPC   C1A34275  31.455  29.887   8.564
 2546POPC   D2A34276  31.445  29.969   8.264
 2546POPC   C3A34277  31.519  29.919   7.964
 2546POPC   C4A34278  31.503  29.952   7.664
 2546POPC   C1B34279  31.736  29.844   8.564
 2546POPC   C2B34280  31.740  29.897   8.264
 2546POPC   C3B34281  31.675  29.927   7.964
 2546POPC   C4B34282  31.756  29.898   7.664
 2547POPC   NC334283  43.877  40.812   9.464
 2547POPC   PO434284  43.928  40.794   9.164
 2547POPC   GL134285  43.922  40.796   8.864
 2547POPC   GL234286  43.986  40.811   8.864
 2547POPC   C1A34287  43.840  40.765   8.564
 2547POPC   D2A34288  43.895  40.783   8.264
 2547POPC   C3A34289  43.875  40.744   7.964
 2547POPC   C4A34290  43.936  40.805   7.664
 2547POPC   C1B34291  44.135  40.862   8.564
 2547POPC   C2B34292  44.099  40.816   8.264
 2547POPC   C3B34293  44.175  40.841   7.964
 2547POPC   C4B34294  44.110  40.845   7.664
 2548POPC   NC334295  29.874  18.316   9.464
 2548POPC   PO434296  29.931  18.244   9.164
 2548POPC   GL134297  29.888  18.325   8.864
 2548POPC   GL234298  29.954  18.435   8.864
 2548POPC   C1A34299  29.886  18.258   8.564
 2548POPC   D2A34300  29.933  18.283   8.264
 2548POPC   C3A34301  29.965  18.250   7.964
 2548POPC   C4A34302  29.945  18.323   7.664
 2548POPC   C1B34303  30.001  18.506   8.564
 2548POPC   C2B34304  29.971  18.559   8.264
 2548POPC   C3B34305  29.948  18.551   7.964
 2548POPC   C4B34306  29.940  18.517   7.664
 2549POPC   NC334307   8.169   6.639   9.464
 2549POPC   PO434308   8.195   6.640   9.164
 2549POPC   GL134309   8.226   6.672   8.864
 2549POPC   GL234310   8.237   6.587   8.864
 2549POPC   C1A34311   8.182   6.669   8.564
 2549POPC   D2A34312   8.244   6.634   8.264
 2549POPC   C3A34313   8.230   6.599   7.964
 2549POPC   C4A34314   8.224   6.684   7.664
 2549POPC   C1B34315   8.314   6.491   8.564
 2549POPC   C2B34316   8.364   6.407   8.264
 2549POPC   C3B34317   8.351   6.493   7.964
 2549POPC   C4B34318   8.396   6.408   7.664
 2550POPC   NC334319  34.599  35.395   9.464
 2550POPC   PO434320  34.527  35.334   9.164
 2550POPC   GL134321  34.544  35.378   8.864
 2550POPC   GL234322  34.657  35.463   8.864
 2550POPC   C1A34323  34.592  35.366   8.564
 2550POPC   D2A34324  34.539  35.302   8.264
 2550POPC   C3A34325  34.544  35.350   7.964
 2550POPC   C4A34326  34.562  35.397   7.664
 2550POPC   C1B34327  34.710  35.534   8.564
 2550POPC   C2B34328  34.716  35.536   8.264
 2550POPC   C3B34329  34.687  35.603   7.964
 2550POPC   C4B34330  34.711  35.575   7.664
 2551POPC   NC334331  21.391  39.185   9.464
 2551POPC   PO434332  21.400  39.216   9.164
 2551POPC   GL134333  21.388  39.232   8.864
 2551POPC   GL234334  21.310  39.134   8.864
 2551POPC   C1A34335  21.381  39.182   8.564
 2551POPC   D2A34336  21.340  39.208   8.264
 2551POPC   C3A34337  21.392  39.240   7.964
 2551POPC   C4A34338  21.339  39.273   7.664
 2551POPC   C1B34339  21.247  39.031   8.564
 2551POPC   C2B34340  21.187  39.063   8.264
 2551POPC   C3B34341  21.253  39.087   7.964
 2551POPC   C4B34342  21.189  38.991   7.664
 2552POPC   NC334343  26.853  25.289   9.464
 2552POPC   PO434344  26.775  25.220   9.164
 2552POPC   GL134345  26.811  25.240   8.864
 2552POPC   GL234346  26.955  25.271   8.864
 2552POPC   C1A34347  26.858  25.268   8.564
 2552POPC   D2A34348  26.818  25.312   8.264
 2552POPC   C3A34349  26.847  25.312   7.964
 2552POPC   C4A34350  26.859  25.280   7.664
 2552POPC   C1B34351  27.107  25.227   8.564
 2552POPC   C2B34352  27.018  25.244   8.264
 2552POPC   C3B34353  27.102  25.194   7.964
 2552POPC   C4B34354  27.043  25.189   7.664
 2553POPC   NC334355  32.205  28.339   9.464
 2553POPC   PO434356  32.224  28.345   9.164
 2553POPC   GL134357  32.233  28.333   8.864
 2553POPC   GL234358  32.376  28.327   8.864
 2553POPC   C1A34359  32.265  28.366   8.564
 2553POPC   D2A34360  32.220  28.385   8.264
 2553POPC   C3A34361  32.242  28.382   7.964
 2553POPC   C4A34362  32.225  28.349   7.664
 2553POPC   C1B34363  32.487  28.262   8.564
 2553POPC   C2B34364  32.488  28.319   8.264
 2553POPC   C3B34365  32.509  28.287   7.964
 2553POPC   C4B34366  32.529  28.321   7.664
 2554POPC   NC334367  21.415  29.937   9.464
 2554POPC   PO434368  21.361  29.918   9.164
 2554POPC   GL134369  21.347  29.967   8.864
 2554POPC   GL234370  21.333  30.024   8.864
 2554POPC   C1A34371  21.349  29.952   8.564
 2554POPC   D2A34372  21.356  29.960   8.264
 2554POPC   C3A34373  21.338  29.901   7.964
 2554POPC   C4A34374  21.374  29.901   7.664
 2554POPC   C1B34375  21.409  30.123   8.564
 2554POPC   C2B34376  21.356  30.187   8.264
 2554POPC   C3B34377  21.350  30.121   7.964
 2554POPC   C4B34378  21.402  30.157   7.664
 2555POPC   NC334379  26.859   8.183   9.464
 2555POPC   PO434380  26.835   8.208   9.164
 2555POPC   GL134381  26.781   8.166   8.864
 2555POPC   GL234382  26.714   8.333   8.864
 2555POPC   C1A34383  26.852   8.180   8.564
 2555POPC   D2A34384  26.851   8.232   8.264
 2555POPC   C3A34385  26.866   8.148   7.964
 2555POPC   C4A34386  26.785   8.228   7.664
 2555POPC   C1B34387  26.630   8.348   8.564
 2555POPC   C2B34388  26.697   8.395   8.264
 2555POPC   C3B34389  26.670   8.418   7.964
 2555POPC   C4B34390  26.690   8.375   7.664
 2556POPC   NC334391   5.142  43.851   9.464
 2556POPC   PO434392   5.143  43.925   9.164
 2556POPC   GL134393   5.085  43.894   8.864
 2556POPC   GL234394   5.196  43.949   8.864
 2556POPC   C1A34395   5.053  43.933   8.564
 2556POPC   D2A34396   5.137  43.889   8.264
 2556POPC   C3A34397   5.092  43.873   7.964
 2556POPC   C4A34398   5.129  43.861   7.664
 2556POPC   C1B34399   5.348  43.869   8.564
 2556POPC   C2B34400   5.318  43.942   8.264
 2556POPC   C3B34401   5.377  43.915   7.964
 2556POPC   C4B34402   5.381  43.896   7.664
 2557POPC   NC334403   8.193  16.700   9.464
 2557POPC   PO434404   8.246  16.685   9.164
 2557POPC   GL134405   8.157  16.721   8.864
 2557POPC   GL234406   8.090  16.662   8.864
 2557POPC   C1A34407   8.171  16.751   8.564
 2557POPC   D2A34408   8.178  16.729   8.264
 2557POPC   C3A34409   8.221  16.729   7.964
 2557POPC   C4A34410   8.196  16.763   7.664
 2557POPC   C1B34411   7.973  16.665   8.564
 2557POPC   C2B34412   7.972  16.724   8.264
 2557POPC   C3B34413   7.933  16.669   7.964
 2557POPC   C4B34414   7.943  16.676   7.664
 2558POPC   NC334415  44.707   2.019   9.464
 2558POPC   PO434416  44.626   2.008   9.164
 2558POPC   GL134417  44.674   1.984   8.864
 2558POPC   GL234418  44.574   1.930   8.864
 2558POPC   C1A34419  44.685   2.023   8.564
 2558POPC   D2A34420  44.621   1.963   8.264
 2558POPC   C3A34421  44.689   1.967   7.964
 2558POPC   C4A34422  44.636   1.941   7.664
 2558POPC   C1B34423  44.507   1.810   8.564
 2558POPC   C2B34424  44.555   1.765   8.264
 2558POPC   C3B34425  44.552   1.761   7.964
 2558POPC   C4B34426  44.559   1.815   7.664
 2559POPC   NC334427   2.719   1.235   9.464
 2559POPC   PO434428   2.761   1.205   9.164
 2559POPC   GL134429   2.777   1.179   8.864
 2559POPC   GL234430   2.794   1.073   8.864
 2559POPC   C1A34431   2.718   1.207   8.564
 2559POPC   D2A34432   2.784   1.190   8.264
 2559POPC   C3A34433   2.723   1.219   7.964
 2559POPC   C4A34434   2.809   1.249   7.664
 2559POPC   C1B34435   2.940   1.039   8.564
 2559POPC   C2B34436   2.919   1.048   8.264
 2559POPC   C3B34437   2.907   0.976   7.964
 2559POPC   C4B34438   2.856   0.982   7.664
 2560POPC   NC334439   6.671  12.119   9.464
 2560POPC   PO434440   6.635  12.062   9.164
 2560POPC   GL134441   6.648  12.121   8.864
 2560POPC   GL234442   6.518  11.995   8.864
 2560POPC   C1A34443   6.665  12.071   8.564
 2560POPC   D2A34444   6.604  12.055   8.264
 2560POPC   C3A34445   6.688  12.089   7.964
 2560POPC   C4A34446   6.686  12.036   7.664
 2560POPC   C1B34447   6.417  11.964   8.564
 2560POPC   C2B34448   6.441  11.935   8.264
 2560POPC   C3B34449   6.415  11.937   7.964
 2560POPC   C4B34450   6.380  11.989   7.664
 2561POPC   NC334451   1.165   1.194   9.464
 2561POPC   PO434452   1.244   1.166   9.164
 2561POPC   GL134453   1.207   1.230   8.864
 2561POPC   GL234454   1.313   1.247   8.864
 2561POPC   C1A34455   1.252   1.185   8.564
 2561POPC   D2A34456   1.210   1.214   8.264
 2561POPC   C3A34457   1.224   1.223   7.964
 2561POPC   C4A34458   1.235   1.243   7.664
 2561POPC   C1B34459   1.500   1.283   8.564
 2561POPC   C2B34460   1.429   1.294   8.264
 2561POPC   C3B34461   1.502   1.245   7.964
 2561POPC   C4B34462   1.425   1.301   7.664
 2562POPC   NC334463  21.366  19.047   9.464
 2562POPC   PO434464  21.349  19.057   9.164
 2562POPC   GL134465  21.358  19.103   8.864
 2562POPC   GL234466  21.371  18.967   8.864
 2562POPC   C1A34467  21.347  19.046   8.564
 2562POPC   D2A34468  21.402  19.031   8.264
 2562POPC   C3A34469  21.428  19.069   7.964
 2562POPC   C4A34470  21.348  19.100   7.664
 2562POPC   C1B34471  21.252  18.856   8.564
 2562POPC   C2B34472  21.273  18.815   8.264
 2562POPC   C3B34473  21.296  18.796   7.964
 2562POPC   C4B34474  21.317  18.838   7.664
 2563POPC   NC334475  33.801  44.627   9.464
 2563POPC   PO434476  33.804  44.622   9.164
 2563POPC   GL134477  33.761  44.618   8.864
 2563POPC   GL234478  33.751  44.551   8.864
 2563POPC   C1A34479  33.767  44.701   8.564
 2563POPC   D2A34480  33.782  44.702   8.264
 2563POPC   C3A34481  33.847  44.679   7.964
 2563POPC   C4A34482  33.753  44.627   7.664
 2563POPC   C1B34483  33.679  44.446   8.564
 2563POPC   C2B34484  33.662  44.460   8.264
 2563POPC   C3B34485  33.666  44.451   7.964
 2563POPC   C4B34486  33.675  44.425   7.664
 2564POPC   NC334487   2.765  18.287   9.464
 2564POPC   PO434488   2.753  18.240   9.164
 2564POPC   GL134489   2.803  18.268   8.864
 2564POPC   GL234490   2.686  18.367   8.864
 2564POPC   C1A34491   2.719  18.296   8.564
 2564POPC   D2A34492   2.748  18.240   8.264
 2564POPC   C3A34493   2.789  18.313   7.964
 2564POPC   C4A34494   2.741  18.237   7.664
 2564POPC   C1B34495   2.570  18.376   8.564
 2564POPC   C2B34496   2.575  18.388   8.264
 2564POPC   C3B34497   2.555  18.417   7.964
 2564POPC   C4B34498   2.567  18.435   7.664
 2565POPC   NC334499  12.057  44.664   9.464
 2565POPC   PO434500  12.114  44.704   9.164
 2565POPC   GL134501  12.053  44.641   8.864
 2565POPC   GL234502  12.196  44.643   8.864
 2565POPC   C1A34503  12.056  44.673   8.564
 2565POPC   D2A34504  12.119  44.690   8.264
 2565POPC   C3A34505  12.046  44.687   7.964
 2565POPC   C4A34506  12.124  44.627   7.664
 2565POPC   C1B34507  12.321  44.613   8.564
 2565POPC   C2B34508  12.332  44.594   8.264
 2565POPC   C3B34509  12.340  44.586   7.964
 2565POPC   C4B34510  12.306  44.601   7.664
 2566POPC   NC334511  19.837  40.012   9.464
 2566POPC   PO434512  19.850  40.026   9.164
 2566POPC   GL134513  19.798  39.972   8.864
 2566POPC   GL234514  19.768  39.943   8.864
 2566POPC   C1A34515  19.837  40.000   8.564
 2566POPC   D2A34516  19.872  39.990   8.264
 2566POPC   C3A34517  19.883  39.968   7.964
 2566POPC   C4A34518  19.827  39.963   7.664
 2566POPC   C1B34519  19.668  39.860   8.564
 2566POPC   C2B34520  19.643  39.811   8.264
 2566POPC   C3B34521  19.676  39.866   7.964
 2566POPC   C4B34522  19.600  39.886   7.664
 2567POPC   NC334523  26.067  10.519   9.464
 2567POPC   PO434524  26.035  10.482   9.164
 2567POPC   GL134525  26.033  10.535   8.864
 2567POPC   GL234526  25.962  10.491   8.864
 2567POPC   C1A34527  26.089  10.512   8.564
 2567POPC   D2A34528  26.031  10.484   8.264
 2567POPC   C3A34529  26.079  10.547   7.964
 2567POPC   C4A34530  26.007  10.527   7.664
 2567POPC   C1B34531  25.834  10.390   8.564
 2567POPC   C2B34532  25.827  10.426   8.264
 2567POPC   C3B34533  25.828  10.425   7.964
 2567POPC   C4B34534  25.857  10.381   7.664
 2568POPC   NC334535  37.705  25.307   9.464
 2568POPC   PO434536  37.649  25.224   9.164
 2568POPC   GL134537  37.647  25.292   8.864
 2568POPC   GL234538  37.799  25.387   8.864
 2568POPC   C1A34539  37.631  25.275   8.564
 2568POPC   D2A34540  37.699  25.235   8.264
 2568POPC   C3A34541  37.695  25.288   7.964
 2568POPC   C4A34542  37.686  25.277   7.664
 2568POPC   C1B34543  37.861  25.450   8.564
 2568POPC   C2B34544  37.891  25.409   8.264
 2568POPC   C3B34545  37.831  25.425   7.964
 2568POPC   C4B34546  37.830  25.403   7.664
 2569POPC   NC334547  11.324  34.563   9.464
 2569POPC   PO434548  11.260  34.562   9.164
 2569POPC   GL134549  11.258  34.600   8.864
 2569POPC   GL234550  11.248  34.646   8.864
 2569POPC   C1A34551  11.263  34.573   8.564
 2569POPC   D2A34552  11.269  34.557   8.264
 2569POPC   C3A34553  11.333  34.587   7.964
 2569POPC   C4A34554  11.335  34.587   7.664
 2569POPC   C1B34555  11.132  34.706   8.564
 2569POPC   C2B34556  11.128  34.759   8.264
 2569POPC   C3B34557  11.130  34.729   7.964
 2569POPC   C4B34558  11.151  34.781   7.664
 2570POPC   NC334559  14.367   9.003   9.464
 2570POPC   PO434560  14.376   8.959   9.164
 2570POPC   GL134561  14.415   9.008   8.864
 2570POPC   GL234562  14.490   8.838   8.864
 2570POPC   C1A34563  14.365   8.928   8.564
 2570POPC   D2A34564  14.440   8.938   8.264
 2570POPC   C3A34565  14.381   8.986   7.964
 2570POPC   C4A34566  14.355   8.961   7.664
 2570POPC   C1B34567  14.546   8.725   8.564
 2570POPC   C2B34568  14.461   8.711   8.264
 2570POPC   C3B34569  14.527   8.765   7.964
 2570POPC   C4B34570  14.552   8.699   7.664
 2571POPC   NC334571  27.624  44.617   9.464
 2571POPC   PO434572  27.598  44.676   9.164
 2571POPC   GL134573  27.584  44.672   8.864
 2571POPC   GL234574  27.700  44.562   8.864
 2571POPC   C1A34575  27.548  44.652   8.564
 2571POPC   D2A34576  27.573  44.625   8.264
 2571POPC   C3A34577  27.625  44.705   7.964
 2571POPC   C4A34578  27.634  44.632   7.664
 2571POPC   C1B34579  27.746  44.494   8.564
 2571POPC   C2B34580  27.764  44.470   8.264
 2571POPC   C3B34581  27.811  44.452   7.964
 2571POPC   C4B34582  27.827  44.529   7.664
 2572POPC   NC334583  28.377  22.150   9.464
 2572POPC   PO434584  28.340  22.153   9.164
 2572POPC   GL134585  28.352  22.211   8.864
 2572POPC   GL234586  28.395  22.079   8.864
 2572POPC   C1A34587  28.417  22.199   8.564
 2572POPC   D2A34588  28.362  22.150   8.264
 2572POPC   C3A34589  28.366  22.178   7.964
 2572POPC   C4A34590  28.352  22.176   7.664
 2572POPC   C1B34591  28.359  21.870   8.564
 2572POPC   C2B34592  28.408  21.910   8.264
 2572POPC   C3B34593  28.416  21.881   7.964
 2572POPC   C4B34594  28.380  21.926   7.664
 2573POPC   NC334595   5.843  43.160   9.464
 2573POPC   PO434596   5.832  43.067   9.164
 2573POPC   GL134597   5.827  43.154   8.864
 2573POPC   GL234598   5.762  43.098   8.864
 2573POPC   C1A34599   5.903  43.074   8.564
 2573POPC   D2A34600   5.857  43.067   8.264
 2573POPC   C3A34601   5.891  43.136   7.964
 2573POPC   C4A34602   5.838  43.128   7.664
 2573POPC   C1B34603   5.610  43.053   8.564
 2573POPC   C2B34604   5.608  43.095   8.264
 2573POPC   C3B34605   5.580  43.032   7.964
 2573POPC   C4B34606   5.669  43.071   7.664
 2574POPC   NC334607   4.269  31.434   9.464
 2574POPC   PO434608   4.361  31.430   9.164
 2574POPC   GL134609   4.271  31.462   8.864
 2574POPC   GL234610   4.161  31.450   8.864
 2574POPC   C1A34611   4.312  31.481   8.564
 2574POPC   D2A34612   4.340  31.514   8.264
 2574POPC   C3A34613   4.301  31.505   7.964
 2574POPC   C4A34614   4.347  31.468   7.664
 2574POPC   C1B34615   4.068  31.390   8.564
 2574POPC   C2B34616   4.113  31.417   8.264
 2574POPC   C3B34617   4.036  31.375   7.964
 2574POPC   C4B34618   4.033  31.389   7.664
 2575POPC   NC334619  32.258  16.743   9.464
 2575POPC   PO434620  32.206  16.775   9.164
 2575POPC   GL134621  32.217  16.699   8.864
 2575POPC   GL234622  32.357  16.749   8.864
 2575POPC   C1A34623  32.280  16.729   8.564
 2575POPC   D2A34624  32.223  16.766   8.264
 2575POPC   C3A34625  32.244  16.747   7.964
 2575POPC   C4A34626  32.264  16.697   7.664
 2575POPC   C1B34627  32.447  16.892   8.564
 2575POPC   C2B34628  32.438  16.805   8.264
 2575POPC   C3B34629  32.437  16.811   7.964
 2575POPC   C4B34630  32.514  16.891   7.664
 2576POPC   NC334631  10.483  30.661   9.464
 2576POPC   PO434632  10.547  30.674   9.164
 2576POPC   GL134633  10.482  30.682   8.864
 2576POPC   GL234634  10.651  30.589   8.864
 2576POPC   C1A34635  10.564  30.707   8.564
 2576POPC   D2A34636  10.518  30.741   8.264
 2576POPC   C3A34637  10.542  30.703   7.964
 2576POPC   C4A34638  10.531  30.708   7.664
 2576POPC   C1B34639  10.690  30.573   8.564
 2576POPC   C2B34640  10.770  30.591   8.264
 2576POPC   C3B34641  10.759  30.552   7.964
 2576POPC   C4B34642  10.768  30.549   7.664
 2577POPC   NC334643  10.536  25.236   9.464
 2577POPC   PO434644  10.556  25.266   9.164
 2577POPC   GL134645  10.541  25.281   8.864
 2577POPC   GL234646  10.559  25.384   8.864
 2577POPC   C1A34647  10.558  25.309   8.564
 2577POPC   D2A34648  10.494  25.313   8.264
 2577POPC   C3A34649  10.484  25.310   7.964
 2577POPC   C4A34650  10.526  25.216   7.664
 2577POPC   C1B34651  10.576  25.455   8.564
 2577POPC   C2B34652  10.655  25.543   8.264
 2577POPC   C3B34653  10.654  25.497   7.964
 2577POPC   C4B34654  10.633  25.497   7.664
 2578POPC   NC334655  15.939  24.483   9.464
 2578POPC   PO434656  15.957  24.441   9.164
 2578POPC   GL134657  16.003  24.530   8.864
 2578POPC   GL234658  16.025  24.594   8.864
 2578POPC   C1A34659  15.960  24.445   8.564
 2578POPC   D2A34660  15.908  24.468   8.264
 2578POPC   C3A34661  15.950  24.494   7.964
 2578POPC   C4A34662  15.990  24.516   7.664
 2578POPC   C1B34663  16.164  24.683   8.564
 2578POPC   C2B34664  16.162  24.682   8.264
 2578POPC   C3B34665  16.187  24.603   7.964
 2578POPC   C4B34666  16.198  24.621   7.664
 2579POPC   NC334667  28.406  40.039   9.464
 2579POPC   PO434668  28.380  39.989   9.164
 2579POPC   GL134669  28.341  40.022   8.864
 2579POPC   GL234670  28.383  39.855   8.864
 2579POPC   C1A34671  28.347  40.025   8.564
 2579POPC   D2A34672  28.325  39.986   8.264
 2579POPC   C3A34673  28.370  40.033   7.964
 2579POPC   C4A34674  28.379  39.965   7.664
 2579POPC   C1B34675  28.310  39.721   8.564
 2579POPC   C2B34676  28.373  39.763   8.264
 2579POPC   C3B34677  28.347  39.722   7.964
 2579POPC   C4B34678  28.334  39.723   7.664
 2580POPC   NC334679  29.099  35.387   9.464
 2580POPC   PO434680  29.129  35.374   9.164
 2580POPC   GL134681  29.125  35.373   8.864
 2580POPC   GL234682  29.232  35.417   8.864
 2580POPC   C1A34683  29.181  35.303   8.564
 2580POPC   D2A34684  29.138  35.306   8.264
 2580POPC   C3A34685  29.186  35.326   7.964
 2580POPC   C4A34686  29.172  35.302   7.664
 2580POPC   C1B34687  29.404  35.390   8.564
 2580POPC   C2B34688  29.389  35.434   8.264
 2580POPC   C3B34689  29.365  35.434   7.964
 2580POPC   C4B34690  29.380  35.438   7.664
 2581POPC   NC334691  40.760  11.251   9.464
 2581POPC   PO434692  40.754  11.333   9.164
 2581POPC   GL134693  40.735  11.253   8.864
 2581POPC   GL234694  40.914  11.266   8.864
 2581POPC   C1A34695  40.826  11.349   8.564
 2581POPC   D2A34696  40.757  11.336   8.264
 2581POPC   C3A34697  40.766  11.266   7.964
 2581POPC   C4A34698  40.815  11.273   7.664
 2581POPC   C1B34699  41.002  11.117   8.564
 2581POPC   C2B34700  40.973  11.137   8.264
 2581POPC   C3B34701  41.009  11.136   7.964
 2581POPC   C4B34702  40.996  11.190   7.664
 2582POPC   NC334703  31.483  12.890   9.464
 2582POPC   PO434704  31.507  12.881   9.164
 2582POPC   GL134705  31.510  12.878   8.864
 2582POPC   GL234706  31.595  12.756   8.864
 2582POPC   C1A34707  31.512  12.847   8.564
 2582POPC   D2A34708  31.439  12.877   8.264
 2582POPC   C3A34709  31.479  12.849   7.964
 2582POPC   C4A34710  31.439  12.861   7.664
 2582POPC   C1B34711  31.739  12.746   8.564
 2582POPC   C2B34712  31.702  12.783   8.264
 2582POPC   C3B34713  31.742  12.789   7.964
 2582POPC   C4B34714  31.654  12.779   7.664
 2583POPC   NC334715  18.240   2.786   9.464
 2583POPC   PO434716  18.302   2.738   9.164
 2583POPC   GL134717  18.253   2.725   8.864
 2583POPC   GL234718  18.192   2.830   8.864
 2583POPC   C1A34719  18.257   2.779   8.564
 2583POPC   D2A34720  18.238   2.772   8.264
 2583POPC   C3A34721  18.315   2.775   7.964
 2583POPC   C4A34722  18.302   2.757   7.664
 2583POPC   C1B34723  18.027   2.884   8.564
 2583POPC   C2B34724  18.093   2.872   8.264
 2583POPC   C3B34725  18.048   2.854   7.964
 2583POPC   C4B34726  18.039   2.895   7.664
 2584POPC   NC334727  38.458  41.591   9.464
 2584POPC   PO434728  38.501  41.602   9.164
 2584POPC   GL134729  38.470  41.591   8.864
 2584POPC   GL234730  38.290  41.556   8.864
 2584POPC   C1A34731  38.463  41.544   8.564
 2584POPC   D2A34732  38.406  41.542   8.264
 2584POPC   C3A34733  38.489  41.533   7.964
 2584POPC   C4A34734  38.492  41.518   7.664
 2584POPC   C1B34735  38.181  41.461   8.564
 2584POPC   C2B34736  38.265  41.497   8.264
 2584POPC   C3B34737  38.178  41.425   7.964
 2584POPC   C4B34738  38.266  41.460   7.664
 2585POPC   NC334739  18.246  24.448   9.464
 2585POPC   PO434740  18.328  24.493   9.164
 2585POPC   GL134741  18.299  24.460   8.864
 2585POPC   GL234742  18.385  24.622   8.864
 2585POPC   C1A34743  18.328  24.479   8.564
 2585POPC   D2A34744  18.285  24.482   8.264
 2585POPC   C3A34745  18.304  24.463   7.964
 2585POPC   C4A34746  18.311  24.509   7.664
 2585POPC   C1B34747  18.472  24.627   8.564
 2585POPC   C2B34748  18.433  24.655   8.264
 2585POPC   C3B34749  18.480  24.642   7.964
 2585POPC   C4B34750  18.405  24.634   7.664
 2586POPC   NC334751  44.695   9.717   9.464
 2586POPC   PO434752  44.624   9.776   9.164
 2586POPC   GL134753  44.662   9.763   8.864
 2586POPC   GL234754  44.655   9.828   8.864
 2586POPC   C1A34755  44.627   9.704   8.564
 2586POPC   D2A34756  44.617   9.711   8.264
 2586POPC   C3A34757  44.647   9.792   7.964
 2586POPC   C4A34758  44.669   9.760   7.664
 2586POPC   C1B34759  44.688   9.986   8.564
 2586POPC   C2B34760  44.639  10.020   8.264
 2586POPC   C3B34761  44.636   9.987   7.964
 2586POPC   C4B34762  44.628  10.047   7.664
 2587POPC   NC334763  14.406   6.632   9.464
 2587POPC   PO434764  14.415   6.645   9.164
 2587POPC   GL134765  14.359   6.683   8.864
 2587POPC   GL234766  14.319   6.665   8.864
 2587POPC   C1A34767  14.383   6.664   8.564
 2587POPC   D2A34768  14.397   6.637   8.264
 2587POPC   C3A34769  14.429   6.651   7.964
 2587POPC   C4A34770  14.415   6.690   7.664
 2587POPC   C1B34771  14.196   6.797   8.564
 2587POPC   C2B34772  14.202   6.763   8.264
 2587POPC   C3B34773  14.170   6.827   7.964
 2587POPC   C4B34774  14.197   6.738   7.664
 2588POPC   NC334775  15.174   5.143   9.464
 2588POPC   PO434776  15.156   5.096   9.164
 2588POPC   GL134777  15.181   5.056   8.864
 2588POPC   GL234778  15.052   4.963   8.864
 2588POPC   C1A34779  15.148   5.086   8.564
 2588POPC   D2A34780  15.205   5.071   8.264
 2588POPC   C3A34781  15.184   5.125   7.964
 2588POPC   C4A34782  15.181   5.077   7.664
 2588POPC   C1B34783  14.979   4.950   8.564
 2588POPC   C2B34784  15.033   4.961   8.264
 2588POPC   C3B34785  14.956   4.975   7.964
 2588POPC   C4B34786  14.947   4.897   7.664
 2589POPC   NC334787  16.766  38.491   9.464
 2589POPC   PO434788  16.758  38.461   9.164
 2589POPC   GL134789  16.702  38.450   8.864
 2589POPC   GL234790  16.806  38.509   8.864
 2589POPC   C1A34791  16.733  38.412   8.564
 2589POPC   D2A34792  16.684  38.472   8.264
 2589POPC   C3A34793  16.762  38.428   7.964
 2589POPC   C4A34794  16.748  38.422   7.664
 2589POPC   C1B34795  17.015  38.515   8.564
 2589POPC   C2B34796  16.996  38.484   8.264
 2589POPC   C3B34797  16.981  38.479   7.964
 2589POPC   C4B34798  16.977  38.486   7.664
 2590POPC   NC334799  15.940   6.688   9.464
 2590POPC   PO434800  15.948   6.669   9.164
 2590POPC   GL134801  15.968   6.636   8.864
 2590POPC   GL234802  15.895   6.795   8.864
 2590POPC   C1A34803  15.988   6.679   8.564
 2590POPC   D2A34804  15.951   6.602   8.264
 2590POPC   C3A34805  15.970   6.690   7.964
 2590POPC   C4A34806  15.924   6.652   7.664
 2590POPC   C1B34807  15.871   6.896   8.564
 2590POPC   C2B34808  15.868   6.833   8.264
 2590POPC   C3B34809  15.847   6.893   7.964
 2590POPC   C4B34810  15.889   6.918   7.664
 2591POPC   NC334811  18.267  20.594   9.464
 2591POPC   PO434812  18.239  20.658   9.164
 2591POPC   GL134813  18.245  20.641   8.864
 2591POPC   GL234814  18.283  20.713   8.864
 2591POPC   C1A34815  18.245  20.659   8.564
 2591POPC   D2A34816  18.268  20.625   8.264
 2591POPC   C3A34817  18.303  20.633   7.964
 2591POPC   C4A34818  18.266  20.567   7.664
 2591POPC   C1B34819  18.286  20.877   8.564
 2591POPC   C2B34820  18.360  20.832   8.264
 2591POPC   C3B34821  18.284  20.856   7.964
 2591POPC   C4B34822  18.332  20.808   7.664
 2592POPC   NC334823  12.040  29.154   9.464
 2592POPC   PO434824  12.036  29.167   9.164
 2592POPC   GL134825  12.061  29.130   8.864
 2592POPC   GL234826  11.934  29.150   8.864
 2592POPC   C1A34827  12.113  29.194   8.564
 2592POPC   D2A34828  12.087  29.125   8.264
 2592POPC   C3A34829  12.085  29.170   7.964
 2592POPC   C4A34830  12.063  29.192   7.664
 2592POPC   C1B34831  11.830  29.101   8.564
 2592POPC   C2B34832  11.814  29.115   8.264
 2592POPC   C3B34833  11.825  29.164   7.964
 2592POPC   C4B34834  11.807  29.171   7.664
 2593POPC   NC334835  28.323  22.963   9.464
 2593POPC   PO434836  28.346  22.920   9.164
 2593POPC   GL134837  28.341  22.977   8.864
 2593POPC   GL234838  28.349  23.029   8.864
 2593POPC   C1A34839  28.412  22.929   8.564
 2593POPC   D2A34840  28.342  22.921   8.264
 2593POPC   C3A34841  28.325  22.965   7.964
 2593POPC   C4A34842  28.396  22.922   7.664
 2593POPC   C1B34843  28.414  23.195   8.564
 2593POPC   C2B34844  28.386  23.168   8.264
 2593POPC   C3B34845  28.387  23.160   7.964
 2593POPC   C4B34846  28.393  23.227   7.664
 2594POPC   NC334847   5.876   1.243   9.464
 2594POPC   PO434848   5.832   1.249   9.164
 2594POPC   GL134849   5.832   1.174   8.864
 2594POPC   GL234850   5.774   1.299   8.864
 2594POPC   C1A34851   5.844   1.236   8.564
 2594POPC   D2A34852   5.916   1.239   8.264
 2594POPC   C3A34853   5.846   1.204   7.964
 2594POPC   C4A34854   5.885   1.214   7.664
 2594POPC   C1B34855   5.685   1.415   8.564
 2594POPC   C2B34856   5.721   1.417   8.264
 2594POPC   C3B34857   5.673   1.422   7.964
 2594POPC   C4B34858   5.725   1.435   7.664
 2595POPC   NC334859  32.235  41.528   9.464
 2595POPC   PO434860  32.264  41.558   9.164
 2595POPC   GL134861  32.246  41.555   8.864
 2595POPC   GL234862  32.353  41.554   8.864
 2595POPC   C1A34863  32.203  41.569   8.564
 2595POPC   D2A34864  32.274  41.552   8.264
 2595POPC   C3A34865  32.270  41.581   7.964
 2595POPC   C4A34866  32.214  41.514   7.664
 2595POPC   C1B34867  32.548  41.576   8.564
 2595POPC   C2B34868  32.471  41.618   8.264
 2595POPC   C3B34869  32.525  41.599   7.964
 2595POPC   C4B34870  32.528  41.603   7.664
 2596POPC   NC334871   1.203   8.226   9.464
 2596POPC   PO434872   1.229   8.184   9.164
 2596POPC   GL134873   1.231   8.240   8.864
 2596POPC   GL234874   1.223   8.329   8.864
 2596POPC   C1A34875   1.217   8.157   8.564
 2596POPC   D2A34876   1.176   8.184   8.264
 2596POPC   C3A34877   1.180   8.205   7.964
 2596POPC   C4A34878   1.168   8.184   7.664
 2596POPC   C1B34879   1.225   8.396   8.564
 2596POPC   C2B34880   1.260   8.472   8.264
 2596POPC   C3B34881   1.295   8.447   7.964
 2596POPC   C4B34882   1.268   8.394   7.664
 2597POPC   NC334883   2.738  38.408   9.464
 2597POPC   PO434884   2.728  38.501   9.164
 2597POPC   GL134885   2.780  38.432   8.864
 2597POPC   GL234886   2.880  38.368   8.864
 2597POPC   C1A34887   2.774  38.441   8.564
 2597POPC   D2A34888   2.743  38.463   8.264
 2597POPC   C3A34889   2.766  38.445   7.964
 2597POPC   C4A34890   2.792  38.415   7.664
 2597POPC   C1B34891   2.940  38.289   8.564
 2597POPC   C2B34892   2.971  38.309   8.264
 2597POPC   C3B34893   2.928  38.301   7.964
 2597POPC   C4B34894   2.980  38.305   7.664
 2598POPC   NC334895  44.640  32.984   9.464
 2598POPC   PO434896  44.656  33.044   9.164
 2598POPC   GL134897  44.659  33.026   8.864
 2598POPC   GL234898  44.574  32.946   8.864
 2598POPC   C1A34899  44.709  33.048   8.564
 2598POPC   D2A34900  44.643  33.033   8.264
 2598POPC   C3A34901  44.657  33.026   7.964
 2598POPC   C4A34902  44.684  32.979   7.664
 2598POPC   C1B34903  44.468  32.916   8.564
 2598POPC   C2B34904  44.382  32.948   8.264
 2598POPC   C3B34905  44.412  32.993   7.964
 2598POPC   C4B34906  44.445  32.951   7.664
 2599POPC   NC334907  33.816  26.774   9.464
 2599POPC   PO434908  33.835  26.814   9.164
 2599POPC   GL134909  33.783  26.819   8.864
 2599POPC   GL234910  33.755  26.905   8.864
 2599POPC   C1A34911  33.828  26.814   8.564
 2599POPC   D2A34912  33.824  26.771   8.264
 2599POPC   C3A34913  33.830  26.856   7.964
 2599POPC   C4A34914  33.770  26.788   7.664
 2599POPC   C1B34915  33.651  26.965   8.564
 2599POPC   C2B34916  33.599  27.053   8.264
 2599POPC   C3B34917  33.655  27.055   7.964
 2599POPC   C4B34918  33.595  26.997   7.664
 2600POPC   NC334919  33.026  13.580   9.464
 2600POPC   PO434920  33.022  13.582   9.164
 2600POPC   GL134921  32.977  13.614   8.864
 2600POPC   GL234922  33.163  13.582   8.864
 2600POPC   C1A34923  33.008  13.628   8.564
 2600POPC   D2A34924  33.038  13.660   8.264
 2600POPC   C3A34925  33.058  13.646   7.964
 2600POPC   C4A34926  33.029  13.602   7.664
 2600POPC   C1B34927  33.238  13.544   8.564
 2600POPC   C2B34928  33.260  13.613   8.264
 2600POPC   C3B34929  33.230  13.597   7.964
 2600POPC   C4B34930  33.275  13.602   7.664
 2601POPC   NC334931  19.843  23.711   9.464
 2601POPC   PO434932  19.839  23.697   9.164
 2601POPC   GL134933  19.862  23.725   8.864
 2601POPC   GL234934  19.738  23.803   8.864
 2601POPC   C1A34935  19.833  23.726   8.564
 2601POPC   D2A34936  19.827  23.737   8.264
 2601POPC   C3A34937  19.858  23.722   7.964
 2601POPC   C4A34938  19.811  23.758   7.664
 2601POPC   C1B34939  19.639  23.870   8.564
 2601POPC   C2B34940  19.636  23.862   8.264
 2601POPC   C3B34941  19.613  23.891   7.964
 2601POPC   C4B34942  19.655  23.853   7.664
 2602POPC   NC334943   5.855  13.676   9.464
 2602POPC   PO434944   5.826  13.607   9.164
 2602POPC   GL134945   5.826  13.596   8.864
 2602POPC   GL234946   5.797  13.642   8.864
 2602POPC   C1A34947   5.887  13.628   8.564
 2602POPC   D2A34948   5.877  13.627   8.264
 2602POPC   C3A34949   5.903  13.621   7.964
 2602POPC   C4A34950   5.884  13.661   7.664
 2602POPC   C1B34951   5.667  13.707   8.564
 2602POPC   C2B34952   5.644  13.763   8.264
 2602POPC   C3B34953   5.618  13.687   7.964
 2602POPC   C4B34954   5.609  13.690   7.664
 2603POPC   NC334955  20.566  36.104   9.464
 2603POPC   PO434956  20.593  36.121   9.164
 2603POPC   GL134957  20.578  36.113   8.864
 2603POPC   GL234958  20.754  36.189   8.864
 2603POPC   C1A34959  20.615  36.110   8.564
 2603POPC   D2A34960  20.577  36.123   8.264
 2603POPC   C3A34961  20.593  36.118   7.964
 2603POPC   C4A34962  20.648  36.081   7.664
 2603POPC   C1B34963  20.789  36.221   8.564
 2603POPC   C2B34964  20.836  36.294   8.264
 2603POPC   C3B34965  20.839  36.236   7.964
 2603POPC   C4B34966  20.790  36.311   7.664
 2604POPC   NC334967  33.066  19.042   9.464
 2604POPC   PO434968  33.030  19.074   9.164
 2604POPC   GL134969  33.061  19.036   8.864
 2604POPC   GL234970  33.137  19.089   8.864
 2604POPC   C1A34971  33.059  19.030   8.564
 2604POPC   D2A34972  33.007  19.026   8.264
 2604POPC   C3A34973  33.033  19.092   7.964
 2604POPC   C4A34974  33.071  19.023   7.664
 2604POPC   C1B34975  33.292  19.134   8.564
 2604POPC   C2B34976  33.245  19.164   8.264
 2604POPC   C3B34977  33.226  19.113   7.964
 2604POPC   C4B34978  33.298  19.150   7.664
 2605POPC   NC334979  13.582  19.883   9.464
 2605POPC   PO434980  13.579  19.841   9.164
 2605POPC   GL134981  13.659  19.862   8.864
 2605POPC   GL234982  13.567  19.774   8.864
 2605POPC   C1A34983  13.608  19.785   8.564
 2605POPC   D2A34984  13.609  19.828   8.264
 2605POPC   C3A34985  13.603  19.852   7.964
 2605POPC   C4A34986  13.636  19.877   7.664
 2605POPC   C1B34987  13.466  19.656   8.564
 2605POPC   C2B34988  13.454  19.636   8.264
 2605POPC   C3B34989  13.413  19.637   7.964
 2605POPC   C4B34990  13.472  19.653   7.664
 2606POPC   NC334991   8.242   9.722   9.464
 2606POPC   PO434992   8.176   9.770   9.164
 2606POPC   GL134993   8.225   9.698   8.864
 2606POPC   GL234994   8.159   9.881   8.864
 2606POPC   C1A34995   8.233   9.756   8.564
 2606POPC   D2A34996   8.209   9.796   8.264
 2606POPC   C3A34997   8.234   9.752   7.964
 2606POPC   C4A34998   8.168   9.782   7.664
 2606POPC   C1B34999   8.048   9.934   8.564
 2606POPC   C2B35000   8.071   9.962   8.264
 2606POPC   C3B35001   8.033   9.987   7.964
 2606POPC   C4B35002   8.020   9.951   7.664
 2607POPC   NC335003  43.150  18.296   9.464
 2607POPC   PO435004  43.130  18.327   9.164
 2607POPC   GL135005  43.104  18.315   8.864
 2607POPC   GL235006  42.978  18.352   8.864
 2607POPC   C1A35007  43.099  18.297   8.564
 2607POPC   D2A35008  43.098  18.248   8.264
 2607POPC   C3A35009  43.064  18.296   7.964
 2607POPC   C4A35010  43.101  18.322   7.664
 2607POPC   C1B35011  42.864  18.361   8.564
 2607POPC   C2B35012  42.910  18.304   8.264
 2607POPC   C3B35013  42.869  18.357   7.964
 2607POPC   C4B35014  42.831  18.301   7.664
 2608POPC   NC335015  43.876   1.203   9.464
 2608POPC   PO435016  43.877   1.199   9.164
 2608POPC   GL135017  43.913   1.216   8.864
 2608POPC   GL235018  43.742   1.139   8.864
 2608POPC   C1A35019  43.924   1.195   8.564
 2608POPC   D2A35020  43.847   1.172   8.264
 2608POPC   C3A35021  43.876   1.168   7.964
 2608POPC   C4A35022  43.897   1.249   7.664
 2608POPC   C1B35023  43.634   1.156   8.564
 2608POPC   C2B35024  43.614   1.170   8.264
 2608POPC   C3B35025  43.604   1.174   7.964
 2608POPC   C4B35026  43.670   1.131   7.664
 2609POPC   NC335027  29.131   9.783   9.464
 2609POPC   PO435028  29.178   9.723   9.164
 2609POPC   GL135029  29.181   9.773   8.864
 2609POPC   GL235030  29.253   9.882   8.864
 2609POPC   C1A35031  29.194   9.715   8.564
 2609POPC   D2A35032  29.122   9.772   8.264
 2609POPC   C3A35033  29.162   9.700   7.964
 2609POPC   C4A35034  29.155   9.740   7.664
 2609POPC   C1B35035  29.312   9.961   8.564
 2609POPC   C2B35036  29.295   9.928   8.264
 2609POPC   C3B35037  29.267   9.937   7.964
 2609POPC   C4B35038  29.249   9.993   7.664
 2610POPC   NC335039  43.086   0.407   9.464
 2610POPC   PO435040  43.069   0.453   9.164
 2610POPC   GL135041  43.157   0.426   8.864
 2610POPC   GL235042  43.077   0.563   8.864
 2610POPC   C1A35043  43.141   0.398   8.564
 2610POPC   D2A35044  43.115   0.469   8.264
 2610POPC   C3A35045  43.061   0.469   7.964
 2610POPC   C4A35046  43.104   0.444   7.664
 2610POPC   C1B35047  43.072   0.660   8.564
 2610POPC   C2B35048  43.071   0.640   8.264
 2610POPC   C3B35049  43.100   0.705   7.964
 2610POPC   C4B35050  43.096   0.724   7.664
 2611POPC   NC335051  27.638   8.925   9.464
 2611POPC   PO435052  27.562   9.015   9.164
 2611POPC   GL135053  27.549   8.970   8.864
 2611POPC   GL235054  27.762   8.981   8.864
 2611POPC   C1A35055  27.563   9.014   8.564
 2611POPC   D2A35056  27.590   8.959   8.264
 2611POPC   C3A35057  27.633   9.012   7.964
 2611POPC   C4A35058  27.626   9.010   7.664
 2611POPC   C1B35059  27.827   8.974   8.564
 2611POPC   C2B35060  27.889   8.914   8.264
 2611POPC   C3B35061  27.835   8.964   7.964
 2611POPC   C4B35062  27.811   8.936   7.664
 2612POPC   NC335063  17.503   3.538   9.464
 2612POPC   PO435064  17.498   3.580   9.164
 2612POPC   GL135065  17.457   3.579   8.864
 2612POPC   GL235066  17.552   3.687   8.864
 2612POPC   C1A35067  17.489   3.555   8.564
 2612POPC   D2A35068  17.506   3.522   8.264
 2612POPC   C3A35069  17.525   3.516   7.964
 2612POPC   C4A35070  17.499   3.586   7.664
 2612POPC   C1B35071  17.566   3.739   8.564
 2612POPC   C2B35072  17.631   3.787   8.264
 2612POPC   C3B35073  17.560   3.770   7.964
 2612POPC   C4B35074  17.543   3.732   7.664
 2613POPC   NC335075  18.251   8.169   9.464
 2613POPC   PO435076  18.284   8.157   9.164
 2613POPC   GL135077  18.266   8.228   8.864
 2613POPC   GL235078  18.115   8.210   8.864
 2613POPC   C1A35079  18.305   8.189   8.564
 2613POPC   D2A35080  18.261   8.147   8.264
 2613POPC   C3A35081  18.254   8.241   7.964
 2613POPC   C4A35082  18.326   8.167   7.664
 2613POPC   C1B35083  18.070   8.266   8.564
 2613POPC   C2B35084  18.010   8.218   8.264
 2613POPC   C3B35085  18.024   8.236   7.964
 2613POPC   C4B35086  18.077   8.233   7.664
 2614POPC   NC335087   1.229   8.978   9.464
 2614POPC   PO435088   1.176   8.957   9.164
 2614POPC   GL135089   1.205   8.933   8.864
 2614POPC   GL235090   1.123   9.045   8.864
 2614POPC   C1A35091   1.244   8.985   8.564
 2614POPC   D2A35092   1.178   9.004   8.264
 2614POPC   C3A35093   1.251   8.977   7.964
 2614POPC   C4A35094   1.187   9.014   7.664
 2614POPC   C1B35095   1.018   9.058   8.564
 2614POPC   C2B35096   0.976   9.135   8.264
 2614POPC   C3B35097   0.957   9.131   7.964
 2614POPC   C4B35098   1.009   9.088   7.664
 2615POPC   NC335099  19.837  14.395   9.464
 2615POPC   PO435100  19.853  14.414   9.164
 2615POPC   GL135101  19.790  14.397   8.864
 2615POPC   GL235102  19.952  14.414   8.864
 2615POPC   C1A35103  19.805  14.451   8.564
 2615POPC   D2A35104  19.873  14.442   8.264
 2615POPC   C3A35105  19.850  14.425   7.964
 2615POPC   C4A35106  19.876  14.383   7.664
 2615POPC   C1B35107  20.070  14.389   8.564
 2615POPC   C2B35108  20.128  14.345   8.264
 2615POPC   C3B35109  20.048  14.343   7.964
 2615POPC   C4B35110  20.083  14.381   7.664
 2616POPC   NC335111  33.788  14.426   9.464
 2616POPC   PO435112  33.846  14.386   9.164
 2616POPC   GL135113  33.753  14.440   8.864
 2616POPC   GL235114  33.830  14.558   8.864
 2616POPC   C1A35115  33.770  14.408   8.564
 2616POPC   D2A35116  33.817  14.413   8.264
 2616POPC   C3A35117  33.815  14.361   7.964
 2616POPC   C4A35118  33.771  14.436   7.664
 2616POPC   C1B35119  33.821  14.653   8.564
 2616POPC   C2B35120  33.851  14.698   8.264
 2616POPC   C3B35121  33.811  14.690   7.964
 2616POPC   C4B35122  33.809  14.667   7.664
 2617POPC   NC335123  29.890  26.782   9.464
 2617POPC   PO435124  29.895  26.802   9.164
 2617POPC   GL135125  29.879  26.795   8.864
 2617POPC   GL235126  29.814  26.844   8.864
 2617POPC   C1A35127  29.927  26.803   8.564
 2617POPC   D2A35128  29.921  26.817   8.264
 2617POPC   C3A35129  29.923  26.851   7.964
 2617POPC   C4A35130  29.933  26.859   7.664
 2617POPC   C1B35131  29.655  26.889   8.564
 2617POPC   C2B35132  29.658  26.902   8.264
 2617POPC   C3B35133  29.668  26.916   7.964
 2617POPC   C4B35134  29.699  26.842   7.664
 2618POPC   NC335135  12.111   1.943   9.464
 2618POPC   PO435136  12.100   1.958   9.164
 2618POPC   GL135137  12.047   1.954   8.864
 2618POPC   GL235138  12.128   1.894   8.864
 2618POPC   C1A35139  12.059   1.980   8.564
 2618POPC   D2A35140  12.103   2.019   8.264
 2618POPC   C3A35141  12.044   1.950   7.964
 2618POPC   C4A35142  12.084   2.025   7.664
 2618POPC   C1B35143  12.234   1.764   8.564
 2618POPC   C2B35144  12.225   1.774   8.264
 2618POPC   C3B35145  12.187   1.797   7.964
 2618POPC   C4B35146  12.164   1.762   7.664
 2619POPC   NC335147  22.975   1.965   9.464
 2619POPC   PO435148  22.890   1.975   9.164
 2619POPC   GL135149  22.901   1.943   8.864
 2619POPC   GL235150  22.982   1.923   8.864
 2619POPC   C1A35151  22.964   1.986   8.564
 2619POPC   D2A35152  22.921   1.972   8.264
 2619POPC   C3A35153  22.901   1.973   7.964
 2619POPC   C4A35154  22.907   2.017   7.664
 2619POPC   C1B35155  23.048   1.821   8.564
 2619POPC   C2B35156  23.120   1.758   8.264
 2619POPC   C3B35157  23.067   1.738   7.964
 2619POPC   C4B35158  23.092   1.816   7.664
 2620POPC   NC335159  32.298  33.031   9.464
 2620POPC   PO435160  32.226  33.014   9.164
 2620POPC   GL135161  32.284  33.069   8.864
 2620POPC   GL235162  32.238  33.145   8.864
 2620POPC   C1A35163  32.260  33.022   8.564
 2620POPC   D2A35164  32.227  33.016   8.264
 2620POPC   C3A35165  32.202  33.070   7.964
 2620POPC   C4A35166  32.275  33.017   7.664
 2620POPC   C1B35167  32.266  33.246   8.564
 2620POPC   C2B35168  32.343  33.236   8.264
 2620POPC   C3B35169  32.276  33.314   7.964
 2620POPC   C4B35170  32.264  33.289   7.664
 2621POPC   NC335171  36.100  36.894   9.464
 2621POPC   PO435172  36.150  36.889   9.164
 2621POPC   GL135173  36.135  36.914   8.864
 2621POPC   GL235174  36.168  37.052   8.864
 2621POPC   C1A35175  36.084  36.864   8.564
 2621POPC   D2A35176  36.118  36.854   8.264
 2621POPC   C3A35177  36.159  36.896   7.964
 2621POPC   C4A35178  36.145  36.896   7.664
 2621POPC   C1B35179  36.290  37.123   8.564
 2621POPC   C2B35180  36.300  37.135   8.264
 2621POPC   C3B35181  36.303  37.108   7.964
 2621POPC   C4B35182  36.305  37.114   7.664
 2622POPC   NC335183   2.020  19.031   9.464
 2622POPC   PO435184   2.003  19.095   9.164
 2622POPC   GL135185   1.972  19.021   8.864
 2622POPC   GL235186   1.901  19.105   8.864
 2622POPC   C1A35187   1.988  19.013   8.564
 2622POPC   D2A35188   2.014  19.107   8.264
 2622POPC   C3A35189   1.970  19.108   7.964
 2622POPC   C4A35190   2.004  19.108   7.664
 2622POPC   C1B35191   1.745  19.220   8.564
 2622POPC   C2B35192   1.778  19.154   8.264
 2622POPC   C3B35193   1.813  19.207   7.964
 2622POPC   C4B35194   1.755  19.204   7.664
 2623POPC   NC335195  15.183   3.495   9.464
 2623POPC   PO435196  15.187   3.517   9.164
 2623POPC   GL135197  15.165   3.569   8.864
 2623POPC   GL235198  15.288   3.602   8.864
 2623POPC   C1A35199  15.152   3.512   8.564
 2623POPC   D2A35200  15.207   3.580   8.264
 2623POPC   C3A35201  15.139   3.537   7.964
 2623POPC   C4A35202  15.192   3.589   7.664
 2623POPC   C1B35203  15.377   3.663   8.564
 2623POPC   C2B35204  15.424   3.621   8.264
 2623POPC   C3B35205  15.354   3.685   7.964
 2623POPC   C4B35206  15.407   3.666   7.664
 2624POPC   NC335207  30.744   8.931   9.464
 2624POPC   PO435208  30.653   9.014   9.164
 2624POPC   GL135209  30.743   8.948   8.864
 2624POPC   GL235210  30.572   8.927   8.864
 2624POPC   C1A35211  30.696   9.018   8.564
 2624POPC   D2A35212  30.661   8.945   8.264
 2624POPC   C3A35213  30.734   8.984   7.964
 2624POPC   C4A35214  30.724   8.937   7.664
 2624POPC   C1B35215  30.440   8.939   8.564
 2624POPC   C2B35216  30.499   8.910   8.264
 2624POPC   C3B35217  30.442   8.941   7.964
 2624POPC   C4B35218  30.416   8.877   7.664
 2625POPC   NC335219  29.129  20.606   9.464
 2625POPC   PO435220  29.175  20.660   9.164
 2625POPC   GL135221  29.103  20.628   8.864
 2625POPC   GL235222  29.278  20.601   8.864
 2625POPC   C1A35223  29.137  20.581   8.564
 2625POPC   D2A35224  29.163  20.594   8.264
 2625POPC   C3A35225  29.152  20.647   7.964
 2625POPC   C4A35226  29.098  20.652   7.664
 2625POPC   C1B35227  29.386  20.692   8.564
 2625POPC   C2B35228  29.422  20.628   8.264
 2625POPC   C3B35229  29.347  20.621   7.964
 2625POPC   C4B35230  29.416  20.710   7.664
 2626POPC   NC335231  11.272  32.266   9.464
 2626POPC   PO435232  11.269  32.243   9.164
 2626POPC   GL135233  11.336  32.216   8.864
 2626POPC   GL235234  11.277  32.168   8.864
 2626POPC   C1A35235  11.272  32.291   8.564
 2626POPC   D2A35236  11.300  32.293   8.264
 2626POPC   C3A35237  11.327  32.283   7.964
 2626POPC   C4A35238  11.287  32.222   7.664
 2626POPC   C1B35239  11.355  32.009   8.564
 2626POPC   C2B35240  11.377  32.045   8.264
 2626POPC   C3B35241  11.374  31.972   7.964
 2626POPC   C4B35242  11.302  31.973   7.664
 2627POPC   NC335243  22.183  14.363   9.464
 2627POPC   PO435244  22.149  14.368   9.164
 2627POPC   GL135245  22.133  14.406   8.864
 2627POPC   GL235246  22.230  14.276   8.864
 2627POPC   C1A35247  22.143  14.375   8.564
 2627POPC   D2A35248  22.177  14.431   8.264
 2627POPC   C3A35249  22.187  14.362   7.964
 2627POPC   C4A35250  22.119  14.368   7.664
 2627POPC   C1B35251  22.156  14.168   8.564
 2627POPC   C2B35252  22.209  14.178   8.264
 2627POPC   C3B35253  22.190  14.159   7.964
 2627POPC   C4B35254  22.170  14.192   7.664
 2628POPC   NC335255  20.655  37.687   9.464
 2628POPC   PO435256  20.642  37.660   9.164
 2628POPC   GL135257  20.637  37.683   8.864
 2628POPC   GL235258  20.699  37.641   8.864
 2628POPC   C1A35259  20.622  37.700   8.564
 2628POPC   D2A35260  20.660  37.678   8.264
 2628POPC   C3A35261  20.579  37.673   7.964
 2628POPC   C4A35262  20.633  37.698   7.664
 2628POPC   C1B35263  20.879  37.611   8.564
 2628POPC   C2B35264  20.884  37.590   8.264
 2628POPC   C3B35265  20.828  37.572   7.964
 2628POPC   C4B35266  20.817  37.664   7.664
 2629POPC   NC335267  24.539  23.714   9.464
 2629POPC   PO435268  24.488  23.692   9.164
 2629POPC   GL135269  24.462  23.754   8.864
 2629POPC   GL235270  24.593  23.719   8.864
 2629POPC   C1A35271  24.453  23.672   8.564
 2629POPC   D2A35272  24.488  23.749   8.264
 2629POPC   C3A35273  24.529  23.664   7.964
 2629POPC   C4A35274  24.464  23.724   7.664
 2629POPC   C1B35275  24.733  23.808   8.564
 2629POPC   C2B35276  24.781  23.801   8.264
 2629POPC   C3B35277  24.729  23.775   7.964
 2629POPC   C4B35278  24.685  23.766   7.664
 2630POPC   NC335279  29.166  44.651   9.464
 2630POPC   PO435280  29.109  44.701   9.164
 2630POPC   GL135281  29.121  44.618   8.864
 2630POPC   GL235282  29.158  44.745   8.864
 2630POPC   C1A35283  29.114  44.633   8.564
 2630POPC   D2A35284  29.193  44.641   8.264
 2630POPC   C3A35285  29.165  44.681   7.964
 2630POPC   C4A35286  29.139  44.628   7.664
 2630POPC   C1B35287  29.181  44.885   8.564
 2630POPC   C2B35288  29.275  44.903   8.264
 2630POPC   C3B35289  29.222  44.871   7.964
 2630POPC   C4B35290  29.220  44.932   7.664
 2631POPC   NC335291  24.478  13.624   9.464
 2631POPC   PO435292  24.465  13.619   9.164
 2631POPC   GL135293  24.505  13.632   8.864
 2631POPC   GL235294  24.657  13.653   8.864
 2631POPC   C1A35295  24.503  13.602   8.564
 2631POPC   D2A35296  24.538  13.632   8.264
 2631POPC   C3A35297  24.525  13.649   7.964
 2631POPC   C4A35298  24.507  13.604   7.664
 2631POPC   C1B35299  24.715  13.634   8.564
 2631POPC   C2B35300  24.696  13.633   8.264
 2631POPC   C3B35301  24.692  13.568   7.964
 2631POPC   C4B35302  24.700  13.648   7.664
 2632POPC   NC335303  40.799  29.164   9.464
 2632POPC   PO435304  40.791  29.118   9.164
 2632POPC   GL135305  40.779  29.127   8.864
 2632POPC   GL235306  40.720  29.298   8.864
 2632POPC   C1A35307  40.766  29.127   8.564
 2632POPC   D2A35308  40.829  29.179   8.264
 2632POPC   C3A35309  40.808  29.096   7.964
 2632POPC   C4A35310  40.794  29.120   7.664
 2632POPC   C1B35311  40.676  29.399   8.564
 2632POPC   C2B35312  40.651  29.380   8.264
 2632POPC   C3B35313  40.690  29.400   7.964
 2632POPC   C4B35314  40.655  29.400   7.664
 2633POPC   NC335315  17.504   4.331   9.464
 2633POPC   PO435316  17.469   4.325   9.164
 2633POPC   GL135317  17.462   4.362   8.864
 2633POPC   GL235318  17.532   4.392   8.864
 2633POPC   C1A35319  17.498   4.352   8.564
 2633POPC   D2A35320  17.531   4.351   8.264
 2633POPC   C3A35321  17.513   4.272   7.964
 2633POPC   C4A35322  17.506   4.340   7.664
 2633POPC   C1B35323  17.665   4.508   8.564
 2633POPC   C2B35324  17.617   4.542   8.264
 2633POPC   C3B35325  17.592   4.521   7.964
 2633POPC   C4B35326  17.588   4.541   7.664
 2634POPC   NC335327  22.922  43.867   9.464
 2634POPC   PO435328  22.970  43.915   9.164
 2634POPC   GL135329  22.934  43.885   8.864
 2634POPC   GL235330  22.836  44.006   8.864
 2634POPC   C1A35331  22.966  43.901   8.564
 2634POPC   D2A35332  22.950  43.884   8.264
 2634POPC   C3A35333  22.922  43.864   7.964
 2634POPC   C4A35334  22.920  43.885   7.664
 2634POPC   C1B35335  22.768  44.013   8.564
 2634POPC   C2B35336  22.707  44.074   8.264
 2634POPC   C3B35337  22.761  44.036   7.964
 2634POPC   C4B35338  22.762  43.997   7.664
 2635POPC   NC335339  17.492  26.005   9.464
 2635POPC   PO435340  17.510  25.997   9.164
 2635POPC   GL135341  17.481  26.001   8.864
 2635POPC   GL235342  17.590  25.893   8.864
 2635POPC   C1A35343  17.490  26.074   8.564
 2635POPC   D2A35344  17.495  26.000   8.264
 2635POPC   C3A35345  17.524  26.004   7.964
 2635POPC   C4A35346  17.544  26.010   7.664
 2635POPC   C1B35347  17.559  25.807   8.564
 2635POPC   C2B35348  17.595  25.784   8.264
 2635POPC   C3B35349  17.562  25.847   7.964
 2635POPC   C4B35350  17.573  25.813   7.664
 2636POPC   NC335351  32.979  12.877   9.464
 2636POPC   PO435352  33.010  12.838   9.164
 2636POPC   GL135353  33.064  12.893   8.864
 2636POPC   GL235354  32.892  12.837   8.864
 2636POPC   C1A35355  33.003  12.871   8.564
 2636POPC   D2A35356  32.992  12.869   8.264
 2636POPC   C3A35357  33.037  12.885   7.964
 2636POPC   C4A35358  32.986  12.882   7.664
 2636POPC   C1B35359  32.806  12.873   8.564
 2636POPC   C2B35360  32.753  12.916   8.264
 2636POPC   C3B35361  32.738  12.916   7.964
 2636POPC   C4B35362  32.799  12.876   7.664
 2637POPC   NC335363  10.532   1.172   9.464
 2637POPC   PO435364  10.565   1.165   9.164
 2637POPC   GL135365  10.547   1.181   8.864
 2637POPC   GL235366  10.607   1.337   8.864
 2637POPC   C1A35367  10.514   1.216   8.564
 2637POPC   D2A35368  10.484   1.243   8.264
 2637POPC   C3A35369  10.487   1.220   7.964
 2637POPC   C4A35370  10.546   1.236   7.664
 2637POPC   C1B35371  10.690   1.347   8.564
 2637POPC   C2B35372  10.709   1.388   8.264
 2637POPC   C3B35373  10.702   1.416   7.964
 2637POPC   C4B35374  10.677   1.382   7.664
 2638POPC   NC335375  36.140  44.637   9.464
 2638POPC   PO435376  36.157  44.696   9.164
 2638POPC   GL135377  36.173  44.657   8.864
 2638POPC   GL235378  36.041  44.593   8.864
 2638POPC   C1A35379  36.092  44.641   8.564
 2638POPC   D2A35380  36.153  44.650   8.264
 2638POPC   C3A35381  36.145  44.661   7.964
 2638POPC   C4A35382  36.094  44.644   7.664
 2638POPC   C1B35383  35.872  44.580   8.564
 2638POPC   C2B35384  35.860  44.584   8.264
 2638POPC   C3B35385  35.875  44.592   7.964
 2638POPC   C4B35386  35.919  44.503   7.664
 2639POPC   NC335387  33.068  26.775   9.464
 2639POPC   PO435388  33.043  26.858   9.164
 2639POPC   GL135389  33.049  26.837   8.864
 2639POPC   GL235390  33.093  26.662   8.864
 2639POPC   C1A35391  33.039  26.803   8.564
 2639POPC   D2A35392  33.025  26.789   8.264
 2639POPC   C3A35393  33.008  26.794   7.964
 2639POPC   C4A35394  33.054  26.811   7.664
 2639POPC   C1B35395  33.051  26.527   8.564
 2639POPC   C2B35396  33.079  26.592   8.264
 2639POPC   C3B35397  33.129  26.542   7.964
 2639POPC   C4B35398  33.050  26.615   7.664
 2640POPC   NC335399  15.147  10.561   9.464
 2640POPC   PO435400  15.142  10.533   9.164
 2640POPC   GL135401  15.190  10.532   8.864
 2640POPC   GL235402  15.203  10.359   8.864
 2640POPC   C1A35403  15.217  10.503   8.564
 2640POPC   D2A35404  15.198  10.549   8.264
 2640POPC   C3A35405  15.227  10.538   7.964
 2640POPC   C4A35406  15.160  10.537   7.664
 2640POPC   C1B35407  15.213  10.297   8.564
 2640POPC   C2B35408  15.230  10.231   8.264
 2640POPC   C3B35409  15.207  10.275   7.964
 2640POPC   C4B35410  15.209  10.232   7.664
 2641POPC   NC335411   3.525  22.894   9.464
 2641POPC   PO435412   3.518  22.942   9.164
 2641POPC   GL135413   3.550  22.915   8.864
 2641POPC   GL235414   3.608  23.107   8.864
 2641POPC   C1A35415   3.566  22.967   8.564
 2641POPC   D2A35416   3.492  22.981   8.264
 2641POPC   C3A35417   3.532  22.984   7.964
 2641POPC   C4A35418   3.512  22.900   7.664
 2641POPC   C1B35419   3.601  23.179   8.564
 2641POPC   C2B35420   3.533  23.234   8.264
 2641POPC   C3B35421   3.575  23.229   7.964
 2641POPC   C4B35422   3.550  23.137   7.664
 2642POPC   NC335423  23.717  36.906   9.464
 2642POPC   PO435424  23.745  36.885   9.164
 2642POPC   GL135425  23.739  36.912   8.864
 2642POPC   GL235426  23.861  36.911   8.864
 2642POPC   C1A35427  23.716  36.898   8.564
 2642POPC   D2A35428  23.748  36.899   8.264
 2642POPC   C3A35429  23.757  36.864   7.964
 2642POPC   C4A35430  23.709  36.914   7.664
 2642POPC   C1B35431  23.911  36.877   8.564
 2642POPC   C2B35432  23.929  36.892   8.264
 2642POPC   C3B35433  23.989  36.887   7.964
 2642POPC   C4B35434  23.973  36.871   7.664
 2643POPC   NC335435  33.759  13.586   9.464
 2643POPC   PO435436  33.758  13.630   9.164
 2643POPC   GL135437  33.825  13.626   8.864
 2643POPC   GL235438  33.782  13.749   8.864
 2643POPC   C1A35439  33.841  13.647   8.564
 2643POPC   D2A35440  33.799  13.615   8.264
 2643POPC   C3A35441  33.836  13.658   7.964
 2643POPC   C4A35442  33.767  13.626   7.664
 2643POPC   C1B35443  33.868  13.882   8.564
 2643POPC   C2B35444  33.822  13.832   8.264
 2643POPC   C3B35445  33.904  13.896   7.964
 2643POPC   C4B35446  33.901  13.844   7.664
 2644POPC   NC335447  31.445  11.291   9.464
 2644POPC   PO435448  31.466  11.285   9.164
 2644POPC   GL135449  31.522  11.312   8.864
 2644POPC   GL235450  31.391  11.172   8.864
 2644POPC   C1A35451  31.483  11.338   8.564
 2644POPC   D2A35452  31.424  11.325   8.264
 2644POPC   C3A35453  31.481  11.350   7.964
 2644POPC   C4A35454  31.432  11.300   7.664
 2644POPC   C1B35455  31.316  11.128   8.564
 2644POPC   C2B35456  31.329  11.133   8.264
 2644POPC   C3B35457  31.282  11.170   7.964
 2644POPC   C4B35458  31.253  11.084   7.664
 2645POPC   NC335459  29.104  43.861   9.464
 2645POPC   PO435460  29.100  43.883   9.164
 2645POPC   GL135461  29.126  43.909   8.864
 2645POPC   GL235462  29.123  43.722   8.864
 2645POPC   C1A35463  29.129  43.844   8.564
 2645POPC   D2A35464  29.101  43.859   8.264
 2645POPC   C3A35465  29.183  43.879   7.964
 2645POPC   C4A35466  29.192  43.907   7.664
 2645POPC   C1B35467  29.215  43.640   8.564
 2645POPC   C2B35468  29.219  43.635   8.264
 2645POPC   C3B35469  29.148  43.623   7.964
 2645POPC   C4B35470  29.210  43.656   7.664
 2646POPC   NC335471  28.404  36.877   9.464
 2646POPC   PO435472  28.361  36.896   9.164
 2646POPC   GL135473  28.348  36.932   8.864
 2646POPC   GL235474  28.522  36.890   8.864
 2646POPC   C1A35475  28.402  36.872   8.564
 2646POPC   D2A35476  28.413  36.929   8.264
 2646POPC   C3A35477  28.363  36.865   7.964
 2646POPC   C4A35478  28.410  36.941   7.664
 2646POPC   C1B35479  28.591  36.978   8.564
 2646POPC   C2B35480  28.621  36.924   8.264
 2646POPC   C3B35481  28.615  36.897   7.964
 2646POPC   C4B35482  28.577  36.915   7.664
 2647POPC   NC335483   7.411   2.018   9.464
 2647POPC   PO435484   7.402   2.020   9.164
 2647POPC   GL135485   7.435   2.001   8.864
 2647POPC   GL235486   7.281   1.951   8.864
 2647POPC   C1A35487   7.429   1.982   8.564
 2647POPC   D2A35488   7.421   1.972   8.264
 2647POPC   C3A35489   7.397   2.029   7.964
 2647POPC   C4A35490   7.378   1.952   7.664
 2647POPC   C1B35491   7.192   1.953   8.564
 2647POPC   C2B35492   7.158   1.933   8.264
 2647POPC   C3B35493   7.189   1.940   7.964
 2647POPC   C4B35494   7.183   1.923   7.664
 2648POPC   NC335495  40.800  42.365   9.464
 2648POPC   PO435496  40.798  42.361   9.164
 2648POPC   GL135497  40.814  42.327   8.864
 2648POPC   GL235498  40.686  42.302   8.864
 2648POPC   C1A35499  40.775  42.304   8.564
 2648POPC   D2A35500  40.733  42.347   8.264
 2648POPC   C3A35501  40.808  42.291   7.964
 2648POPC   C4A35502  40.818  42.341   7.664
 2648POPC   C1B35503  40.529  42.296   8.564
 2648POPC   C2B35504  40.588  42.249   8.264
 2648POPC   C3B35505  40.492  42.297   7.964
 2648POPC   C4B35506  40.526  42.284   7.664
 2649POPC   NC335507   8.169   3.526   9.464
 2649POPC   PO435508   8.231   3.587   9.164
 2649POPC   GL135509   8.221   3.500   8.864
 2649POPC   GL235510   8.078   3.564   8.864
 2649POPC   C1A35511   8.236   3.546   8.564
 2649POPC   D2A35512   8.212   3.513   8.264
 2649POPC   C3A35513   8.235   3.509   7.964
 2649POPC   C4A35514   8.237   3.585   7.664
 2649POPC   C1B35515   7.926   3.533   8.564
 2649POPC   C2B35516   7.956   3.499   8.264
 2649POPC   C3B35517   7.911   3.465   7.964
 2649POPC   C4B35518   7.919   3.492   7.664
 2650POPC   NC335519   5.839  34.535   9.464
 2650POPC   PO435520   5.899  34.578   9.164
 2650POPC   GL135521   5.848  34.618   8.864
 2650POPC   GL235522   5.815  34.669   8.864
 2650POPC   C1A35523   5.821  34.607   8.564
 2650POPC   D2A35524   5.881  34.542   8.264
 2650POPC   C3A35525   5.910  34.570   7.964
 2650POPC   C4A35526   5.881  34.577   7.664
 2650POPC   C1B35527   5.744  34.844   8.564
 2650POPC   C2B35528   5.827  34.841   8.264
 2650POPC   C3B35529   5.738  34.791   7.964
 2650POPC   C4B35530   5.779  34.833   7.664
 2651POPC   NC335531   5.133  35.393   9.464
 2651POPC   PO435532   5.121  35.397   9.164
 2651POPC   GL135533   5.075  35.349   8.864
 2651POPC   GL235534   5.050  35.491   8.864
 2651POPC   C1A35535   5.084  35.400   8.564
 2651POPC   D2A35536   5.072  35.352   8.264
 2651POPC   C3A35537   5.140  35.338   7.964
 2651POPC   C4A35538   5.053  35.390   7.664
 2651POPC   C1B35539   4.938  35.538   8.564
 2651POPC   C2B35540   4.957  35.532   8.264
 2651POPC   C3B35541   4.902  35.563   7.964
 2651POPC   C4B35542   4.963  35.538   7.664
 2652POPC   NC335543  34.582  15.209   9.464
 2652POPC   PO435544  34.602  15.130   9.164
 2652POPC   GL135545  34.552  15.148   8.864
 2652POPC   GL235546  34.658  15.100   8.864
 2652POPC   C1A35547  34.549  15.146   8.564
 2652POPC   D2A35548  34.556  15.136   8.264
 2652POPC   C3A35549  34.531  15.215   7.964
 2652POPC   C4A35550  34.591  15.155   7.664
 2652POPC   C1B35551  34.610  14.901   8.564
 2652POPC   C2B35552  34.692  14.984   8.264
 2652POPC   C3B35553  34.612  14.896   7.964
 2652POPC   C4B35554  34.615  14.908   7.664
 2653POPC   NC335555  41.524  17.499   9.464
 2653POPC   PO435556  41.536  17.552   9.164
 2653POPC   GL135557  41.561  17.464   8.864
 2653POPC   GL235558  41.634  17.455   8.864
 2653POPC   C1A35559  41.577  17.494   8.564
 2653POPC   D2A35560  41.579  17.464   8.264
 2653POPC   C3A35561  41.571  17.544   7.964
 2653POPC   C4A35562  41.518  17.510   7.664
 2653POPC   C1B35563  41.815  17.375   8.564
 2653POPC   C2B35564  41.771  17.460   8.264
 2653POPC   C3B35565  41.769  17.381   7.964
 2653POPC   C4B35566  41.795  17.466   7.664
 2654POPC   NC335567  23.710  15.992   9.464
 2654POPC   PO435568  23.722  15.993   9.164
 2654POPC   GL135569  23.751  15.976   8.864
 2654POPC   GL235570  23.806  15.989   8.864
 2654POPC   C1A35571  23.762  15.965   8.564
 2654POPC   D2A35572  23.671  15.930   8.264
 2654POPC   C3A35573  23.714  15.973   7.964
 2654POPC   C4A35574  23.719  15.931   7.664
 2654POPC   C1B35575  23.965  16.026   8.564
 2654POPC   C2B35576  23.953  16.007   8.264
 2654POPC   C3B35577  23.981  16.046   7.964
 2654POPC   C4B35578  23.926  16.025   7.664
 2655POPC   NC335579  37.643  14.409   9.464
 2655POPC   PO435580  37.678  14.427   9.164
 2655POPC   GL135581  37.702  14.378   8.864
 2655POPC   GL235582  37.614  14.359   8.864
 2655POPC   C1A35583  37.712  14.438   8.564
 2655POPC   D2A35584  37.666  14.451   8.264
 2655POPC   C3A35585  37.688  14.388   7.964
 2655POPC   C4A35586  37.713  14.362   7.664
 2655POPC   C1B35587  37.486  14.228   8.564
 2655POPC   C2B35588  37.456  14.254   8.264
 2655POPC   C3B35589  37.514  14.258   7.964
 2655POPC   C4B35590  37.437  14.274   7.664
 2656POPC   NC335591  35.306  30.655   9.464
 2656POPC   PO435592  35.347  30.653   9.164
 2656POPC   GL135593  35.396  30.714   8.864
 2656POPC   GL235594  35.413  30.569   8.864
 2656POPC   C1A35595  35.357  30.681   8.564
 2656POPC   D2A35596  35.343  30.651   8.264
 2656POPC   C3A35597  35.345  30.722   7.964
 2656POPC   C4A35598  35.336  30.686   7.664
 2656POPC   C1B35599  35.383  30.495   8.564
 2656POPC   C2B35600  35.456  30.412   8.264
 2656POPC   C3B35601  35.418  30.457   7.964
 2656POPC   C4B35602  35.455  30.495   7.664
 2657POPC   NC335603  15.928  25.312   9.464
 2657POPC   PO435604  15.976  25.313   9.164
 2657POPC   GL135605  15.958  25.217   8.864
 2657POPC   GL235606  15.904  25.128   8.864
 2657POPC   C1A35607  15.915  25.243   8.564
 2657POPC   D2A35608  15.952  25.298   8.264
 2657POPC   C3A35609  15.922  25.264   7.964
 2657POPC   C4A35610  15.930  25.241   7.664
 2657POPC   C1B35611  15.850  25.037   8.564
 2657POPC   C2B35612  15.852  25.057   8.264
 2657POPC   C3B35613  15.882  25.035   7.964
 2657POPC   C4B35614  15.857  25.021   7.664
 2658POPC   NC335615  12.901  38.486   9.464
 2658POPC   PO435616  12.809  38.417   9.164
 2658POPC   GL135617  12.885  38.495   8.864
 2658POPC   GL235618  12.856  38.301   8.864
 2658POPC   C1A35619  12.874  38.456   8.564
 2658POPC   D2A35620  12.815  38.483   8.264
 2658POPC   C3A35621  12.822  38.448   7.964
 2658POPC   C4A35622  12.808  38.504   7.664
 2658POPC   C1B35623  12.760  38.261   8.564
 2658POPC   C2B35624  12.746  38.173   8.264
 2658POPC   C3B35625  12.748  38.249   7.964
 2658POPC   C4B35626  12.797  38.233   7.664
 2659POPC   NC335627  22.925  18.277   9.464
 2659POPC   PO435628  22.927  18.289   9.164
 2659POPC   GL135629  22.980  18.255   8.864
 2659POPC   GL235630  22.941  18.429   8.864
 2659POPC   C1A35631  22.925  18.323   8.564
 2659POPC   D2A35632  22.970  18.257   8.264
 2659POPC   C3A35633  22.969  18.325   7.964
 2659POPC   C4A35634  22.893  18.316   7.664
 2659POPC   C1B35635  22.974  18.564   8.564
 2659POPC   C2B35636  22.952  18.563   8.264
 2659POPC   C3B35637  23.008  18.522   7.964
 2659POPC   C4B35638  22.996  18.541   7.664
 2660POPC   NC335639  37.702  33.017   9.464
 2660POPC   PO435640  37.659  33.005   9.164
 2660POPC   GL135641  37.722  33.019   8.864
 2660POPC   GL235642  37.634  33.115   8.864
 2660POPC   C1A35643  37.703  32.983   8.564
 2660POPC   D2A35644  37.654  33.040   8.264
 2660POPC   C3A35645  37.673  33.001   7.964
 2660POPC   C4A35646  37.649  33.045   7.664
 2660POPC   C1B35647  37.685  33.289   8.564
 2660POPC   C2B35648  37.628  33.280   8.264
 2660POPC   C3B35649  37.689  33.282   7.964
 2660POPC   C4B35650  37.671  33.259   7.664
 2661POPC   NC335651  39.995  21.393   9.464
 2661POPC   PO435652  39.977  21.384   9.164
 2661POPC   GL135653  39.963  21.416   8.864
 2661POPC   GL235654  40.085  21.263   8.864
 2661POPC   C1A35655  39.971  21.357   8.564
 2661POPC   D2A35656  39.983  21.404   8.264
 2661POPC   C3A35657  39.995  21.380   7.964
 2661POPC   C4A35658  40.021  21.360   7.664
 2661POPC   C1B35659  40.138  21.130   8.564
 2661POPC   C2B35660  40.112  21.158   8.264
 2661POPC   C3B35661  40.144  21.142   7.964
 2661POPC   C4B35662  40.147  21.210   7.664
 2662POPC   NC335663   6.674  43.079   9.464
 2662POPC   PO435664   6.615  43.136   9.164
 2662POPC   GL135665   6.648  43.103   8.864
 2662POPC   GL235666   6.554  43.132   8.864
 2662POPC   C1A35667   6.669  43.070   8.564
 2662POPC   D2A35668   6.626  43.091   8.264
 2662POPC   C3A35669   6.622  43.081   7.964
 2662POPC   C4A35670   6.634  43.134   7.664
 2662POPC   C1B35671   6.408  43.122   8.564
 2662POPC   C2B35672   6.388  43.161   8.264
 2662POPC   C3B35673   6.421  43.121   7.964
 2662POPC   C4B35674   6.362  43.127   7.664
 2663POPC   NC335675  39.980  16.688   9.464
 2663POPC   PO435676  39.974  16.773   9.164
 2663POPC   GL135677  39.976  16.713   8.864
 2663POPC   GL235678  40.076  16.859   8.864
 2663POPC   C1A35679  40.028  16.740   8.564
 2663POPC   D2A35680  39.959  16.774   8.264
 2663POPC   C3A35681  40.038  16.757   7.964
 2663POPC   C4A35682  39.978  16.738   7.664
 2663POPC   C1B35683  40.160  16.888   8.564
 2663POPC   C2B35684  40.182  16.939   8.264
 2663POPC   C3B35685  40.208  16.923   7.964
 2663POPC   C4B35686  40.200  16.973   7.664
 2664POPC   NC335687  22.153  13.636   9.464
 2664POPC   PO435688  22.191  13.630   9.164
 2664POPC   GL135689  22.193  13.675   8.864
 2664POPC   GL235690  22.249  13.669   8.864
 2664POPC   C1A35691  22.196  13.659   8.564
 2664POPC   D2A35692  22.167  13.645   8.264
 2664POPC   C3A35693  22.147  13.661   7.964
 2664POPC   C4A35694  22.151  13.642   7.664
 2664POPC   C1B35695  22.395  13.564   8.564
 2664POPC   C2B35696  22.365  13.630   8.264
 2664POPC   C3B35697  22.431  13.628   7.964
 2664POPC   C4B35698  22.400  13.634   7.664
 2665POPC   NC335699  40.055  18.296   9.464
 2665POPC   PO435700  39.969  18.314   9.164
 2665POPC   GL135701  39.959  18.319   8.864
 2665POPC   GL235702  40.137  18.347   8.864
 2665POPC   C1A35703  40.028  18.256   8.564
 2665POPC   D2A35704  39.971  18.302   8.264
 2665POPC   C3A35705  39.971  18.277   7.964
 2665POPC   C4A35706  40.011  18.267   7.664
 2665POPC   C1B35707  40.251  18.372   8.564
 2665POPC   C2B35708  40.298  18.361   8.264
 2665POPC   C3B35709  40.224  18.343   7.964
 2665POPC   C4B35710  40.228  18.338   7.664
 2666POPC   NC335711  38.463  34.538   9.464
 2666POPC   PO435712  38.433  34.601   9.164
 2666POPC   GL135713  38.473  34.545   8.864
 2666POPC   GL235714  38.329  34.617   8.864
 2666POPC   C1A35715  38.423  34.588   8.564
 2666POPC   D2A35716  38.491  34.592   8.264
 2666POPC   C3A35717  38.448  34.592   7.964
 2666POPC   C4A35718  38.464  34.552   7.664
 2666POPC   C1B35719  38.218  34.677   8.564
 2666POPC   C2B35720  38.292  34.681   8.264
 2666POPC   C3B35721  38.256  34.710   7.964
 2666POPC   C4B35722  38.194  34.744   7.664
 2667POPC   NC335723  39.240  40.756   9.464
 2667POPC   PO435724  39.273  40.761   9.164
 2667POPC   GL135725  39.210  40.821   8.864
 2667POPC   GL235726  39.143  40.749   8.864
 2667POPC   C1A35727  39.271  40.830   8.564
 2667POPC   D2A35728  39.234  40.759   8.264
 2667POPC   C3A35729  39.204  40.741   7.964
 2667POPC   C4A35730  39.230  40.802   7.664
 2667POPC   C1B35731  38.950  40.779   8.564
 2667POPC   C2B35732  38.963  40.791   8.264
 2667POPC   C3B35733  38.996  40.730   7.964
 2667POPC   C4B35734  38.963  40.729   7.664
 2668POPC   NC335735  43.844   8.230   9.464
 2668POPC   PO435736  43.854   8.245   9.164
 2668POPC   GL135737  43.886   8.157   8.864
 2668POPC   GL235738  43.887   8.345   8.864
 2668POPC   C1A35739  43.934   8.158   8.564
 2668POPC   D2A35740  43.910   8.201   8.264
 2668POPC   C3A35741  43.863   8.149   7.964
 2668POPC   C4A35742  43.854   8.239   7.664
 2668POPC   C1B35743  43.767   8.409   8.564
 2668POPC   C2B35744  43.765   8.445   8.264
 2668POPC   C3B35745  43.804   8.454   7.964
 2668POPC   C4B35746  43.790   8.427   7.664
 2669POPC   NC335747  26.790   9.768   9.464
 2669POPC   PO435748  26.818   9.752   9.164
 2669POPC   GL135749  26.777   9.743   8.864
 2669POPC   GL235750  26.893   9.627   8.864
 2669POPC   C1A35751  26.846   9.707   8.564
 2669POPC   D2A35752  26.771   9.769   8.264
 2669POPC   C3A35753  26.811   9.773   7.964
 2669POPC   C4A35754  26.810   9.723   7.664
 2669POPC   C1B35755  27.032   9.580   8.564
 2669POPC   C2B35756  26.999   9.632   8.264
 2669POPC   C3B35757  27.019   9.603   7.964
 2669POPC   C4B35758  27.036   9.628   7.664
 2670POPC   NC335759  32.286  22.206   9.464
 2670POPC   PO435760  32.206  22.130   9.164
 2670POPC   GL135761  32.206  22.158   8.864
 2670POPC   GL235762  32.199  22.070   8.864
 2670POPC   C1A35763  32.290  22.201   8.564
 2670POPC   D2A35764  32.206  22.208   8.264
 2670POPC   C3A35765  32.282  22.186   7.964
 2670POPC   C4A35766  32.291  22.126   7.664
 2670POPC   C1B35767  32.175  21.884   8.564
 2670POPC   C2B35768  32.163  21.919   8.264
 2670POPC   C3B35769  32.120  21.966   7.964
 2670POPC   C4B35770  32.161  21.896   7.664
 2671POPC   NC335771  40.766  19.878   9.464
 2671POPC   PO435772  40.772  19.849   9.164
 2671POPC   GL135773  40.790  19.847   8.864
 2671POPC   GL235774  40.726  19.954   8.864
 2671POPC   C1A35775  40.804  19.807   8.564
 2671POPC   D2A35776  40.745  19.881   8.264
 2671POPC   C3A35777  40.785  19.846   7.964
 2671POPC   C4A35778  40.807  19.863   7.664
 2671POPC   C1B35779  40.586  20.051   8.564
 2671POPC   C2B35780  40.606  20.005   8.264
 2671POPC   C3B35781  40.655  20.039   7.964
 2671POPC   C4B35782  40.617  20.059   7.664
 2672POPC   NC335783  19.105   1.223   9.464
 2672POPC   PO435784  19.068   1.167   9.164
 2672POPC   GL135785  19.041   1.230   8.864
 2672POPC   GL235786  19.142   1.262   8.864
 2672POPC   C1A35787  19.102   1.193   8.564
 2672POPC   D2A35788  19.021   1.213   8.264
 2672POPC   C3A35789  19.048   1.260   7.964
 2672POPC   C4A35790  19.010   1.189   7.664
 2672POPC   C1B35791  19.330   1.289   8.564
 2672POPC   C2B35792  19.318   1.296   8.264
 2672POPC   C3B35793  19.278   1.222   7.964
 2672POPC   C4B35794  19.306   1.285   7.664
 2673POPC   NC335795  16.703  15.919   9.464
 2673POPC   PO435796  16.737  15.924   9.164
 2673POPC   GL135797  16.770  15.967   8.864
 2673POPC   GL235798  16.629  15.808   8.864
 2673POPC   C1A35799  16.715  15.913   8.564
 2673POPC   D2A35800  16.716  15.929   8.264
 2673POPC   C3A35801  16.689  16.001   7.964
 2673POPC   C4A35802  16.682  15.923   7.664
 2673POPC   C1B35803  16.590  15.704   8.564
 2673POPC   C2B35804  16.555  15.713   8.264
 2673POPC   C3B35805  16.581  15.697   7.964
 2673POPC   C4B35806  16.594  15.745   7.664
 2674POPC   NC335807   0.407  37.698   9.464
 2674POPC   PO435808   0.390  37.689   9.164
 2674POPC   GL135809   0.461  37.665   8.864
 2674POPC   GL235810   0.482  37.773   8.864
 2674POPC   C1A35811   0.454  37.683   8.564
 2674POPC   D2A35812   0.453  37.698   8.264
 2674POPC   C3A35813   0.404  37.636   7.964
 2674POPC   C4A35814   0.469  37.708   7.664
 2674POPC   C1B35815   0.639  37.823   8.564
 2674POPC   C2B35816   0.621  37.849   8.264
 2674POPC   C3B35817   0.578  37.840   7.964
 2674POPC   C4B35818   0.605  37.861   7.664
 2675POPC   NC335819   8.147  42.345   9.464
 2675POPC   PO435820   8.201  42.376   9.164
 2675POPC   GL135821   8.223  42.294   8.864
 2675POPC   GL235822   8.322  42.442   8.864
 2675POPC   C1A35823   8.233  42.315   8.564
 2675POPC   D2A35824   8.225  42.312   8.264
 2675POPC   C3A35825   8.168  42.368   7.964
 2675POPC   C4A35826   8.199  42.381   7.664
 2675POPC   C1B35827   8.420  42.525   8.564
 2675POPC   C2B35828   8.411  42.480   8.264
 2675POPC   C3B35829   8.368  42.501   7.964
 2675POPC   C4B35830   8.390  42.481   7.664
 2676POPC   NC335831  31.447  43.113   9.464
 2676POPC   PO435832  31.479  43.106   9.164
 2676POPC   GL135833  31.495  43.076   8.864
 2676POPC   GL235834  31.634  43.078   8.864
 2676POPC   C1A35835  31.490  43.107   8.564
 2676POPC   D2A35836  31.481  43.111   8.264
 2676POPC   C3A35837  31.433  43.114   7.964
 2676POPC   C4A35838  31.500  43.151   7.664
 2676POPC   C1B35839  31.702  42.997   8.564
 2676POPC   C2B35840  31.714  43.034   8.264
 2676POPC   C3B35841  31.721  42.964   7.964
 2676POPC   C4B35842  31.651  43.003   7.664
 2677POPC   NC335843  43.930  17.476   9.464
 2677POPC   PO435844  43.841  17.513   9.164
 2677POPC   GL135845  43.919  17.520   8.864
 2677POPC   GL235846  43.812  17.606   8.864
 2677POPC   C1A35847  43.842  17.503   8.564
 2677POPC   D2A35848  43.917  17.481   8.264
 2677POPC   C3A35849  43.930  17.500   7.964
 2677POPC   C4A35850  43.856  17.482   7.664
 2677POPC   C1B35851  43.859  17.784   8.564
 2677POPC   C2B35852  43.778  17.788   8.264
 2677POPC   C3B35853  43.810  17.746   7.964
 2677POPC   C4B35854  43.854  17.790   7.664
 2678POPC   NC335855  39.196  12.090   9.464
 2678POPC   PO435856  39.273  12.120   9.164
 2678POPC   GL135857  39.263  12.034   8.864
 2678POPC   GL235858  39.176  12.196   8.864
 2678POPC   C1A35859  39.277  12.047   8.564
 2678POPC   D2A35860  39.235  12.114   8.264
 2678POPC   C3A35861  39.236  12.110   7.964
 2678POPC   C4A35862  39.252  12.053   7.664
 2678POPC   C1B35863  39.052  12.260   8.564
 2678POPC   C2B35864  38.996  12.206   8.264
 2678POPC   C3B35865  39.083  12.215   7.964
 2678POPC   C4B35866  38.992  12.209   7.664
 2679POPC   NC335867  36.866  37.660   9.464
 2679POPC   PO435868  36.893  37.686   9.164
 2679POPC   GL135869  36.892  37.643   8.864
 2679POPC   GL235870  36.948  37.541   8.864
 2679POPC   C1A35871  36.909  37.711   8.564
 2679POPC   D2A35872  36.873  37.672   8.264
 2679POPC   C3A35873  36.861  37.648   7.964
 2679POPC   C4A35874  36.863  37.634   7.664
 2679POPC   C1B35875  37.042  37.467   8.564
 2679POPC   C2B35876  37.107  37.451   8.264
 2679POPC   C3B35877  37.022  37.512   7.964
 2679POPC   C4B35878  37.085  37.514   7.664
 2680POPC   NC335879  19.818  18.256   9.464
 2680POPC   PO435880  19.808  18.265   9.164
 2680POPC   GL135881  19.870  18.293   8.864
 2680POPC   GL235882  19.879  18.445   8.864
 2680POPC   C1A35883  19.822  18.290   8.564
 2680POPC   D2A35884  19.856  18.297   8.264
 2680POPC   C3A35885  19.844  18.316   7.964
 2680POPC   C4A35886  19.860  18.300   7.664
 2680POPC   C1B35887  19.836  18.535   8.564
 2680POPC   C2B35888  19.872  18.577   8.264
 2680POPC   C3B35889  19.840  18.513   7.964
 2680POPC   C4B35890  19.871  18.573   7.664
 2681POPC   NC335891  20.578  10.491   9.464
 2681POPC   PO435892  20.612  10.546   9.164
 2681POPC   GL135893  20.589  10.546   8.864
 2681POPC   GL235894  20.530  10.441   8.864
 2681POPC   C1A35895  20.660  10.506   8.564
 2681POPC   D2A35896  20.600  10.550   8.264
 2681POPC   C3A35897  20.652  10.523   7.964
 2681POPC   C4A35898  20.590  10.525   7.664
 2681POPC   C1B35899  20.525  10.364   8.564
 2681POPC   C2B35900  20.439  10.328   8.264
 2681POPC   C3B35901  20.427  10.294   7.964
 2681POPC   C4B35902  20.433  10.361   7.664
 2682POPC   NC335903  12.861  26.821   9.464
 2682POPC   PO435904  12.872  26.853   9.164
 2682POPC   GL135905  12.821  26.818   8.864
 2682POPC   GL235906  12.754  26.738   8.864
 2682POPC   C1A35907  12.877  26.850   8.564
 2682POPC   D2A35908  12.831  26.835   8.264
 2682POPC   C3A35909  12.812  26.814   7.964
 2682POPC   C4A35910  12.828  26.768   7.664
 2682POPC   C1B35911  12.691  26.651   8.564
 2682POPC   C2B35912  12.621  26.681   8.264
 2682POPC   C3B35913  12.608  26.670   7.964
 2682POPC   C4B35914  12.695  26.700   7.664
 2683POPC   NC335915  26.812   4.301   9.464
 2683POPC   PO435916  26.856   4.329   9.164
 2683POPC   GL135917  26.770   4.268   8.864
 2683POPC   GL235918  26.720   4.409   8.864
 2683POPC   C1A35919  26.812   4.359   8.564
 2683POPC   D2A35920  26.857   4.356   8.264
 2683POPC   C3A35921  26.814   4.345   7.964
 2683POPC   C4A35922  26.812   4.354   7.664
 2683POPC   C1B35923  26.691   4.491   8.564
 2683POPC   C2B35924  26.640   4.548   8.264
 2683POPC   C3B35925  26.672   4.492   7.964
 2683POPC   C4B35926  26.682   4.474   7.664
 2684POPC   NC335927  25.300  36.901   9.464
 2684POPC   PO435928  25.244  36.865   9.164
 2684POPC   GL135929  25.271  36.888   8.864
 2684POPC   GL235930  25.210  36.934   8.864
 2684POPC   C1A35931  25.288  36.947   8.564
 2684POPC   D2A35932  25.262  36.945   8.264
 2684POPC   C3A35933  25.249  36.930   7.964
 2684POPC   C4A35934  25.267  36.884   7.664
 2684POPC   C1B35935  25.079  37.059   8.564
 2684POPC   C2B35936  25.076  37.033   8.264
 2684POPC   C3B35937  25.093  37.040   7.964
 2684POPC   C4B35938  25.061  37.032   7.664
 2685POPC   NC335939   4.323  15.176   9.464
 2685POPC   PO435940   4.268  15.156   9.164
 2685POPC   GL135941   4.281  15.185   8.864
 2685POPC   GL235942   4.144  15.216   8.864
 2685POPC   C1A35943   4.359  15.218   8.564
 2685POPC   D2A35944   4.284  15.163   8.264
 2685POPC   C3A35945   4.278  15.136   7.964
 2685POPC   C4A35946   4.336  15.135   7.664
 2685POPC   C1B35947   4.028  15.163   8.564
 2685POPC   C2B35948   4.048  15.233   8.264
 2685POPC   C3B35949   4.111  15.173   7.964
 2685POPC   C4B35950   4.075  15.174   7.664
 2686POPC   NC335951  18.256  12.853   9.464
 2686POPC   PO435952  18.276  12.857   9.164
 2686POPC   GL135953  18.259  12.851   8.864
 2686POPC   GL235954  18.198  12.969   8.864
 2686POPC   C1A35955  18.316  12.880   8.564
 2686POPC   D2A35956  18.304  12.876   8.264
 2686POPC   C3A35957  18.304  12.851   7.964
 2686POPC   C4A35958  18.240  12.812   7.664
 2686POPC   C1B35959  18.140  13.097   8.564
 2686POPC   C2B35960  18.158  13.052   8.264
 2686POPC   C3B35961  18.221  13.069   7.964
 2686POPC   C4B35962  18.201  13.087   7.664
 2687POPC   NC335963  30.721  22.177   9.464
 2687POPC   PO435964  30.726  22.193   9.164
 2687POPC   GL135965  30.707  22.124   8.864
 2687POPC   GL235966  30.775  22.258   8.864
 2687POPC   C1A35967  30.657  22.157   8.564
 2687POPC   D2A35968  30.667  22.182   8.264
 2687POPC   C3A35969  30.647  22.120   7.964
 2687POPC   C4A35970  30.682  22.137   7.664
 2687POPC   C1B35971  30.816  22.335   8.564
 2687POPC   C2B35972  30.794  22.362   8.264
 2687POPC   C3B35973  30.837  22.364   7.964
 2687POPC   C4B35974  30.799  22.344   7.664
 2688POPC   NC335975   0.471  41.571   9.464
 2688POPC   PO435976   0.471  41.602   9.164
 2688POPC   GL135977   0.424  41.590   8.864
 2688POPC   GL235978   0.443  41.444   8.864
 2688POPC   C1A35979   0.456  41.519   8.564
 2688POPC   D2A35980   0.445  41.565   8.264
 2688POPC   C3A35981   0.437  41.545   7.964
 2688POPC   C4A35982   0.395  41.601   7.664
 2688POPC   C1B35983   0.497  41.266   8.564
 2688POPC   C2B35984   0.511  41.305   8.264
 2688POPC   C3B35985   0.485  41.296   7.964
 2688POPC   C4B35986   0.450  41.273   7.664
 2689POPC   NC335987  29.134   4.271   9.464
 2689POPC   PO435988  29.172   4.316   9.164
 2689POPC   GL135989  29.160   4.304   8.864
 2689POPC   GL235990  29.116   4.199   8.864
 2689POPC   C1A35991  29.178   4.292   8.564
 2689POPC   D2A35992  29.125   4.313   8.264
 2689POPC   C3A35993  29.191   4.321   7.964
 2689POPC   C4A35994  29.111   4.349   7.664
 2689POPC   C1B35995  29.005   4.138   8.564
 2689POPC   C2B35996  29.033   4.108   8.264
 2689POPC   C3B35997  29.001   4.059   7.964
 2689POPC   C4B35998  29.050   4.120   7.664
 2690POPC   NC335999  28.364  16.706   9.464
 2690POPC   PO436000  28.352  16.771   9.164
 2690POPC   GL136001  28.349  16.705   8.864
 2690POPC   GL236002  28.440  16.598   8.864
 2690POPC   C1A36003  28.384  16.717   8.564
 2690POPC   D2A36004  28.397  16.692   8.264
 2690POPC   C3A36005  28.399  16.686   7.964
 2690POPC   C4A36006  28.388  16.757   7.664
 2690POPC   C1B36007  28.437  16.484   8.564
 2690POPC   C2B36008  28.424  16.500   8.264
 2690POPC   C3B36009  28.422  16.444   7.964
 2690POPC   C4B36010  28.401  16.467   7.664
 2691POPC   NC336011   6.641   6.609   9.464
 2691POPC   PO436012   6.626   6.597   9.164
 2691POPC   GL136013   6.601   6.662   8.864
 2691POPC   GL236014   6.638   6.536   8.864
 2691POPC   C1A36015   6.625   6.629   8.564
 2691POPC   D2A36016   6.691   6.628   8.264
 2691POPC   C3A36017   6.683   6.678   7.964
 2691POPC   C4A36018   6.627   6.678   7.664
 2691POPC   C1B36019   6.753   6.366   8.564
 2691POPC   C2B36020   6.730   6.451   8.264
 2691POPC   C3B36021   6.714   6.403   7.964
 2691POPC   C4B36022   6.737   6.386   7.664
 2692POPC   NC336023   5.099  25.277   9.464
 2692POPC   PO436024   5.073  25.309   9.164
 2692POPC   GL136025   5.087  25.315   8.864
 2692POPC   GL236026   5.033  25.130   8.864
 2692POPC   C1A36027   5.113  25.302   8.564
 2692POPC   D2A36028   5.099  25.270   8.264
 2692POPC   C3A36029   5.054  25.276   7.964
 2692POPC   C4A36030   5.062  25.244   7.664
 2692POPC   C1B36031   5.072  25.025   8.564
 2692POPC   C2B36032   5.034  25.046   8.264
 2692POPC   C3B36033   5.030  24.987   7.964
 2692POPC   C4B36034   5.051  25.066   7.664
 2693POPC   NC336035  26.080  25.276   9.464
 2693POPC   PO436036  25.994  25.304   9.164
 2693POPC   GL136037  26.016  25.312   8.864
 2693POPC   GL236038  25.944  25.201   8.864
 2693POPC   C1A36039  25.991  25.286   8.564
 2693POPC   D2A36040  26.018  25.256   8.264
 2693POPC   C3A36041  25.994  25.298   7.964
 2693POPC   C4A36042  26.036  25.235   7.664
 2693POPC   C1B36043  25.883  25.159   8.564
 2693POPC   C2B36044  25.858  25.125   8.264
 2693POPC   C3B36045  25.844  25.145   7.964
 2693POPC   C4B36046  25.828  25.139   7.664
 2694POPC   NC336047  44.623   1.187   9.464
 2694POPC   PO436048  44.626   1.240   9.164
 2694POPC   GL136049  44.646   1.183   8.864
 2694POPC   GL236050  44.771   1.274   8.864
 2694POPC   C1A36051  44.694   1.201   8.564
 2694POPC   D2A36052  44.666   1.221   8.264
 2694POPC   C3A36053  44.629   1.187   7.964
 2694POPC   C4A36054  44.666   1.211   7.664
 2694POPC   C1B36055  44.800   1.364   8.564
 2694POPC   C2B36056  44.859   1.399   8.264
 2694POPC   C3B36057  44.851   1.439   7.964
 2694POPC   C4B36058  44.864   1.401   7.664
 2695POPC   NC336059  19.043   6.686   9.464
 2695POPC   PO436060  19.064   6.686   9.164
 2695POPC   GL136061  19.035   6.666   8.864
 2695POPC   GL236062  18.936   6.640   8.864
 2695POPC   C1A36063  19.077   6.686   8.564
 2695POPC   D2A36064  19.092   6.654   8.264
 2695POPC   C3A36065  19.040   6.666   7.964
 2695POPC   C4A36066  19.035   6.681   7.664
 2695POPC   C1B36067  18.841   6.624   8.564
 2695POPC   C2B36068  18.785   6.567   8.264
 2695POPC   C3B36069  18.774   6.562   7.964
 2695POPC   C4B36070  18.827   6.619   7.664
 2696POPC   NC336071  37.705  28.392   9.464
 2696POPC   PO436072  37.656  28.414   9.164
 2696POPC   GL136073  37.693  28.328   8.864
 2696POPC   GL236074  37.658  28.235   8.864
 2696POPC   C1A36075  37.639  28.417   8.564
 2696POPC   D2A36076  37.676  28.413   8.264
 2696POPC   C3A36077  37.649  28.345   7.964
 2696POPC   C4A36078  37.660  28.319   7.664
 2696POPC   C1B36079  37.632  28.143   8.564
 2696POPC   C2B36080  37.716  28.075   8.264
 2696POPC   C3B36081  37.715  28.129   7.964
 2696POPC   C4B36082  37.664  28.096   7.664
 2697POPC   NC336083  36.153  30.727   9.464
 2697POPC   PO436084  36.144  30.666   9.164
 2697POPC   GL136085  36.095  30.686   8.864
 2697POPC   GL236086  36.027  30.571   8.864
 2697POPC   C1A36087  36.133  30.686   8.564
 2697POPC   D2A36088  36.102  30.711   8.264
 2697POPC   C3A36089  36.164  30.679   7.964
 2697POPC   C4A36090  36.092  30.743   7.664
 2697POPC   C1B36091  35.953  30.536   8.564
 2697POPC   C2B36092  35.969  30.537   8.264
 2697POPC   C3B36093  35.953  30.490   7.964
 2697POPC   C4B36094  35.971  30.486   7.664
 2698POPC   NC336095   4.317   8.187   9.464
 2698POPC   PO436096   4.341   8.166   9.164
 2698POPC   GL136097   4.363   8.154   8.864
 2698POPC   GL236098   4.244   8.166   8.864
 2698POPC   C1A36099   4.349   8.194   8.564
 2698POPC   D2A36100   4.365   8.170   8.264
 2698POPC   C3A36101   4.277   8.232   7.964
 2698POPC   C4A36102   4.353   8.147   7.664
 2698POPC   C1B36103   4.083   8.131   8.564
 2698POPC   C2B36104   4.133   8.075   8.264
 2698POPC   C3B36105   4.102   8.117   7.964
 2698POPC   C4B36106   4.061   8.111   7.664
 2699POPC   NC336107  36.102  39.260   9.464
 2699POPC   PO436108  36.164  39.190   9.164
 2699POPC   GL136109  36.084  39.215   8.864
 2699POPC   GL236110  36.168  39.362   8.864
 2699POPC   C1A36111  36.173  39.222   8.564
 2699POPC   D2A36112  36.135  39.221   8.264
 2699POPC   C3A36113  36.159  39.281   7.964
 2699POPC   C4A36114  36.145  39.234   7.664
 2699POPC   C1B36115  36.086  39.484   8.564
 2699POPC   C2B36116  36.151  39.432   8.264
 2699POPC   C3B36117  36.140  39.487   7.964
 2699POPC   C4B36118  36.107  39.499   7.664
 2700POPC   NC336119  36.900  15.969   9.464
 2700POPC   PO436120  36.925  15.961   9.164
 2700POPC   GL136121  36.922  15.999   8.864
 2700POPC   GL236122  37.028  16.045   8.864
 2700POPC   C1A36123  36.944  15.991   8.564
 2700POPC   D2A36124  36.890  15.948   8.264
 2700POPC   C3A36125  36.926  15.990   7.964
 2700POPC   C4A36126  36.945  15.944   7.664
 2700POPC   C1B36127  37.048  16.128   8.564
 2700POPC   C2B36128  37.097  16.109   8.264
 2700POPC   C3B36129  37.076  16.110   7.964
 2700POPC   C4B36130  37.047  16.128   7.664
 2701POPC   NC336131   7.460  22.931   9.464
 2701POPC   PO436132   7.382  22.944   9.164
 2701POPC   GL136133   7.446  22.928   8.864
 2701POPC   GL236134   7.316  22.924   8.864
 2701POPC   C1A36135   7.444  22.911   8.564
 2701POPC   D2A36136   7.406  22.954   8.264
 2701POPC   C3A36137   7.375  22.897   7.964
 2701POPC   C4A36138   7.436  22.968   7.664
 2701POPC   C1B36139   7.177  22.933   8.564
 2701POPC   C2B36140   7.127  22.920   8.264
 2701POPC   C3B36141   7.151  22.941   7.964
 2701POPC   C4B36142   7.145  22.917   7.664
 2702POPC   NC336143  19.083  32.986   9.464
 2702POPC   PO436144  19.086  33.021   9.164
 2702POPC   GL136145  19.033  32.996   8.864
 2702POPC   GL236146  19.139  32.992   8.864
 2702POPC   C1A36147  19.033  33.024   8.564
 2702POPC   D2A36148  19.032  33.029   8.264
 2702POPC   C3A36149  19.076  33.068   7.964
 2702POPC   C4A36150  19.022  33.024   7.664
 2702POPC   C1B36151  19.332  33.020   8.564
 2702POPC   C2B36152  19.315  33.022   8.264
 2702POPC   C3B36153  19.331  32.941   7.964
 2702POPC   C4B36154  19.292  32.998   7.664
 2703POPC   NC336155  13.608  25.245   9.464
 2703POPC   PO436156  13.582  25.302   9.164
 2703POPC   GL136157  13.660  25.271   8.864
 2703POPC   GL236158  13.554  25.370   8.864
 2703POPC   C1A36159  13.595  25.274   8.564
 2703POPC   D2A36160  13.665  25.290   8.264
 2703POPC   C3A36161  13.597  25.255   7.964
 2703POPC   C4A36162  13.664  25.286   7.664
 2703POPC   C1B36163  13.500  25.460   8.564
 2703POPC   C2B36164  13.498  25.500   8.264
 2703POPC   C3B36165  13.423  25.494   7.964
 2703POPC   C4B36166  13.483  25.437   7.664
 2704POPC   NC336167  43.123   2.733   9.464
 2704POPC   PO436168  43.140   2.813   9.164
 2704POPC   GL136169  43.063   2.732   8.864
 2704POPC   GL236170  42.961   2.778   8.864
 2704POPC   C1A36171  43.141   2.792   8.564
 2704POPC   D2A36172  43.101   2.724   8.264
 2704POPC   C3A36173  43.137   2.717   7.964
 2704POPC   C4A36174  43.148   2.772   7.664
 2704POPC   C1B36175  42.929   2.936   8.564
 2704POPC   C2B36176  42.877   2.848   8.264
 2704POPC   C3B36177  42.845   2.911   7.964
 2704POPC   C4B36178  42.875   2.906   7.664
 2705POPC   NC336179   7.411  19.857   9.464
 2705POPC   PO436180   7.433  19.801   9.164
 2705POPC   GL136181   7.464  19.854   8.864
 2705POPC   GL236182   7.331  19.761   8.864
 2705POPC   C1A36183   7.455  19.881   8.564
 2705POPC   D2A36184   7.416  19.804   8.264
 2705POPC   C3A36185   7.378  19.827   7.964
 2705POPC   C4A36186   7.435  19.796   7.664
 2705POPC   C1B36187   7.265  19.617   8.564
 2705POPC   C2B36188   7.238  19.592   8.264
 2705POPC   C3B36189   7.249  19.610   7.964
 2705POPC   C4B36190   7.302  19.645   7.664
 2706POPC   NC336191   2.815   4.273   9.464
 2706POPC   PO436192   2.768   4.297   9.164
 2706POPC   GL136193   2.774   4.348   8.864
 2706POPC   GL236194   2.707   4.187   8.864
 2706POPC   C1A36195   2.806   4.297   8.564
 2706POPC   D2A36196   2.813   4.326   8.264
 2706POPC   C3A36197   2.759   4.323   7.964
 2706POPC   C4A36198   2.747   4.301   7.664
 2706POPC   C1B36199   2.594   4.140   8.564
 2706POPC   C2B36200   2.676   4.062   8.264
 2706POPC   C3B36201   2.613   4.119   7.964
 2706POPC   C4B36202   2.636   4.118   7.664
 2707POPC   NC336203  44.697  34.565   9.464
 2707POPC   PO436204  44.660  34.603   9.164
 2707POPC   GL136205  44.649  34.611   8.864
 2707POPC   GL236206  44.596  34.507   8.864
 2707POPC   C1A36207  44.686  34.541   8.564
 2707POPC   D2A36208  44.661  34.621   8.264
 2707POPC   C3A36209  44.670  34.601   7.964
 2707POPC   C4A36210  44.681  34.553   7.664
 2707POPC   C1B36211  44.466  34.348   8.564
 2707POPC   C2B36212  44.485  34.372   8.264
 2707POPC   C3B36213  44.475  34.434   7.964
 2707POPC   C4B36214  44.466  34.359   7.664
 2708POPC   NC336215  29.135  40.770   9.464
 2708POPC   PO436216  29.096  40.784   9.164
 2708POPC   GL136217  29.155  40.776   8.864
 2708POPC   GL236218  29.098  40.707   8.864
 2708POPC   C1A36219  29.134  40.825   8.564
 2708POPC   D2A36220  29.188  40.754   8.264
 2708POPC   C3A36221  29.099  40.830   7.964
 2708POPC   C4A36222  29.194  40.798   7.664
 2708POPC   C1B36223  28.978  40.640   8.564
 2708POPC   C2B36224  28.996  40.600   8.264
 2708POPC   C3B36225  28.985  40.590   7.964
 2708POPC   C4B36226  29.006  40.563   7.664
 2709POPC   NC336227  19.836  20.604   9.464
 2709POPC   PO436228  19.830  20.588   9.164
 2709POPC   GL136229  19.867  20.596   8.864
 2709POPC   GL236230  19.983  20.639   8.864
 2709POPC   C1A36231  19.879  20.650   8.564
 2709POPC   D2A36232  19.871  20.639   8.264
 2709POPC   C3A36233  19.841  20.635   7.964
 2709POPC   C4A36234  19.859  20.591   7.664
 2709POPC   C1B36235  20.037  20.679   8.564
 2709POPC   C2B36236  20.080  20.676   8.264
 2709POPC   C3B36237  20.068  20.696   7.964
 2709POPC   C4B36238  20.084  20.664   7.664
 2710POPC   NC336239  26.797  15.195   9.464
 2710POPC   PO436240  26.830  15.221   9.164
 2710POPC   GL136241  26.819  15.166   8.864
 2710POPC   GL236242  26.719  15.143   8.864
 2710POPC   C1A36243  26.856  15.219   8.564
 2710POPC   D2A36244  26.860  15.138   8.264
 2710POPC   C3A36245  26.849  15.211   7.964
 2710POPC   C4A36246  26.824  15.132   7.664
 2710POPC   C1B36247  26.628  15.100   8.564
 2710POPC   C2B36248  26.570  15.129   8.264
 2710POPC   C3B36249  26.561  15.097   7.964
 2710POPC   C4B36250  26.550  15.129   7.664
 2711POPC   NC336251  36.914  34.579   9.464
 2711POPC   PO436252  36.942  34.548   9.164
 2711POPC   GL136253  36.853  34.540   8.864
 2711POPC   GL236254  36.784  34.547   8.864
 2711POPC   C1A36255  36.898  34.590   8.564
 2711POPC   D2A36256  36.891  34.540   8.264
 2711POPC   C3A36257  36.952  34.536   7.964
 2711POPC   C4A36258  36.948  34.623   7.664
 2711POPC   C1B36259  36.646  34.448   8.564
 2711POPC   C2B36260  36.642  34.472   8.264
 2711POPC   C3B36261  36.660  34.489   7.964
 2711POPC   C4B36262  36.673  34.476   7.664
 2712POPC   NC336263  15.213  34.593   9.464
 2712POPC   PO436264  15.139  34.546   9.164
 2712POPC   GL136265  15.174  34.615   8.864
 2712POPC   GL236266  15.193  34.413   8.864
 2712POPC   C1A36267  15.227  34.582   8.564
 2712POPC   D2A36268  15.203  34.592   8.264
 2712POPC   C3A36269  15.142  34.538   7.964
 2712POPC   C4A36270  15.220  34.613   7.664
 2712POPC   C1B36271  15.129  34.329   8.564
 2712POPC   C2B36272  15.126  34.317   8.264
 2712POPC   C3B36273  15.189  34.322   7.964
 2712POPC   C4B36274  15.116  34.312   7.664
 2713POPC   NC336275  37.648  37.641   9.464
 2713POPC   PO436276  37.719  37.682   9.164
 2713POPC   GL136277  37.705  37.661   8.864
 2713POPC   GL236278  37.606  37.685   8.864
 2713POPC   C1A36279  37.669  37.659   8.564
 2713POPC   D2A36280  37.721  37.726   8.264
 2713POPC   C3A36281  37.638  37.655   7.964
 2713POPC   C4A36282  37.691  37.704   7.664
 2713POPC   C1B36283  37.453  37.730   8.564
 2713POPC   C2B36284  37.435  37.770   8.264
 2713POPC   C3B36285  37.463  37.771   7.964
 2713POPC   C4B36286  37.463  37.755   7.664
 2714POPC   NC336287  43.121  21.363   9.464
 2714POPC   PO436288  43.107  21.418   9.164
 2714POPC   GL136289  43.063  21.436   8.864
 2714POPC   GL236290  43.184  21.321   8.864
 2714POPC   C1A36291  43.150  21.385   8.564
 2714POPC   D2A36292  43.063  21.430   8.264
 2714POPC   C3A36293  43.088  21.375   7.964
 2714POPC   C4A36294  43.121  21.365   7.664
 2714POPC   C1B36295  43.373  21.353   8.564
 2714POPC   C2B36296  43.385  21.343   8.264
 2714POPC   C3B36297  43.363  21.349   7.964
 2714POPC   C4B36298  43.393  21.290   7.664
 2715POPC   NC336299  41.512  21.369   9.464
 2715POPC   PO436300  41.531  21.410   9.164
 2715POPC   GL136301  41.556  21.352   8.864
 2715POPC   GL236302  41.469  21.351   8.864
 2715POPC   C1A36303  41.554  21.426   8.564
 2715POPC   D2A36304  41.527  21.391   8.264
 2715POPC   C3A36305  41.576  21.430   7.964
 2715POPC   C4A36306  41.607  21.416   7.664
 2715POPC   C1B36307  41.344  21.246   8.564
 2715POPC   C2B36308  41.378  21.297   8.264
 2715POPC   C3B36309  41.375  21.286   7.964
 2715POPC   C4B36310  41.366  21.252   7.664
 2716POPC   NC336311   3.541  12.809   9.464
 2716POPC   PO436312   3.543  12.883   9.164
 2716POPC   GL136313   3.511  12.803   8.864
 2716POPC   GL236314   3.421  12.717   8.864
 2716POPC   C1A36315   3.577  12.857   8.564
 2716POPC   D2A36316   3.545  12.850   8.264
 2716POPC   C3A36317   3.551  12.890   7.964
 2716POPC   C4A36318   3.547  12.885   7.664
 2716POPC   C1B36319   3.364  12.698   8.564
 2716POPC   C2B36320   3.389  12.672   8.264
 2716POPC   C3B36321   3.409  12.687   7.964
 2716POPC   C4B36322   3.412  12.668   7.664
 2717POPC   NC336323  17.491  40.748   9.464
 2717POPC   PO436324  17.525  40.747   9.164
 2717POPC   GL136325  17.470  40.780   8.864
 2717POPC   GL236326  17.437  40.677   8.864
 2717POPC   C1A36327  17.555  40.780   8.564
 2717POPC   D2A36328  17.526  40.737   8.264
 2717POPC   C3A36329  17.493  40.749   7.964
 2717POPC   C4A36330  17.497  40.812   7.664
 2717POPC   C1B36331  17.391  40.626   8.564
 2717POPC   C2B36332  17.298  40.561   8.264
 2717POPC   C3B36333  17.316  40.639   7.964
 2717POPC   C4B36334  17.376  40.558   7.664
 2718POPC   NC336335  13.667  36.138   9.464
 2718POPC   PO436336  13.662  36.083   9.164
 2718POPC   GL136337  13.652  36.118   8.864
 2718POPC   GL236338  13.719  36.179   8.864
 2718POPC   C1A36339  13.644  36.146   8.564
 2718POPC   D2A36340  13.617  36.162   8.264
 2718POPC   C3A36341  13.637  36.092   7.964
 2718POPC   C4A36342  13.646  36.103   7.664
 2718POPC   C1B36343  13.875  36.193   8.564
 2718POPC   C2B36344  13.872  36.186   8.264
 2718POPC   C3B36345  13.900  36.264   7.964
 2718POPC   C4B36346  13.819  36.216   7.664
 2719POPC   NC336347  43.093  32.237   9.464
 2719POPC   PO436348  43.080  32.277   9.164
 2719POPC   GL136349  43.108  32.287   8.864
 2719POPC   GL236350  43.185  32.176   8.864
 2719POPC   C1A36351  43.101  32.285   8.564
 2719POPC   D2A36352  43.159  32.270   8.264
 2719POPC   C3A36353  43.115  32.230   7.964
 2719POPC   C4A36354  43.152  32.271   7.664
 2719POPC   C1B36355  43.158  32.013   8.564
 2719POPC   C2B36356  43.192  32.018   8.264
 2719POPC   C3B36357  43.240  31.999   7.964
 2719POPC   C4B36358  43.199  31.998   7.664
 2720POPC   NC336359  33.013  22.137   9.464
 2720POPC   PO436360  33.013  22.205   9.164
 2720POPC   GL136361  33.058  22.185   8.864
 2720POPC   GL236362  32.902  22.169   8.864
 2720POPC   C1A36363  33.053  22.168   8.564
 2720POPC   D2A36364  33.053  22.127   8.264
 2720POPC   C3A36365  33.068  22.191   7.964
 2720POPC   C4A36366  33.012  22.184   7.664
 2720POPC   C1B36367  32.736  22.110   8.564
 2720POPC   C2B36368  32.804  22.123   8.264
 2720POPC   C3B36369  32.785  22.158   7.964
 2720POPC   C4B36370  32.797  22.189   7.664
 2721POPC   NC336371   5.873   5.054   9.464
 2721POPC   PO436372   5.861   5.063   9.164
 2721POPC   GL136373   5.825   5.061   8.864
 2721POPC   GL236374   5.869   5.244   8.864
 2721POPC   C1A36375   5.836   5.083   8.564
 2721POPC   D2A36376   5.880   5.106   8.264
 2721POPC   C3A36377   5.822   5.085   7.964
 2721POPC   C4A36378   5.889   5.045   7.664
 2721POPC   C1B36379   5.989   5.313   8.564
 2721POPC   C2B36380   5.962   5.367   8.264
 2721POPC   C3B36381   5.945   5.296   7.964
 2721POPC   C4B36382   5.979   5.327   7.664
 2722POPC   NC336383   2.798  22.141   9.464
 2722POPC   PO436384   2.785  22.204   9.164
 2722POPC   GL136385   2.807  22.125   8.864
 2722POPC   GL236386   2.725  22.077   8.864
 2722POPC   C1A36387   2.737  22.196   8.564
 2722POPC   D2A36388   2.812  22.195   8.264
 2722POPC   C3A36389   2.749  22.150   7.964
 2722POPC   C4A36390   2.745  22.177   7.664
 2722POPC   C1B36391   2.777  21.888   8.564
 2722POPC   C2B36392   2.810  21.870   8.264
 2722POPC   C3B36393   2.795  21.943   7.964
 2722POPC   C4B36394   2.734  21.896   7.664
 2723POPC   NC336395  12.117  27.596   9.464
 2723POPC   PO436396  12.101  27.562   9.164
 2723POPC   GL136397  12.034  27.551   8.864
 2723POPC   GL236398  12.157  27.700   8.864
 2723POPC   C1A36399  12.077  27.547   8.564
 2723POPC   D2A36400  12.026  27.598   8.264
 2723POPC   C3A36401  12.052  27.602   7.964
 2723POPC   C4A36402  12.032  27.565   7.664
 2723POPC   C1B36403  12.215  27.839   8.564
 2723POPC   C2B36404  12.133  27.867   8.264
 2723POPC   C3B36405  12.220  27.792   7.964
 2723POPC   C4B36406  12.219  27.832   7.664
 2724POPC   NC336407  14.392   7.406   9.464
 2724POPC   PO436408  14.385   7.450   9.164
 2724POPC   GL136409  14.359   7.393   8.864
 2724POPC   GL236410  14.315   7.427   8.864
 2724POPC   C1A36411  14.446   7.371   8.564
 2724POPC   D2A36412  14.385   7.402   8.264
 2724POPC   C3A36413  14.376   7.438   7.964
 2724POPC   C4A36414  14.453   7.423   7.664
 2724POPC   C1B36415  14.190   7.320   8.564
 2724POPC   C2B36416  14.124   7.313   8.264
 2724POPC   C3B36417  14.190   7.305   7.964
 2724POPC   C4B36418  14.127   7.302   7.664
 2725POPC   NC336419  14.360  43.157   9.464
 2725POPC   PO436420  14.378  43.073   9.164
 2725POPC   GL136421  14.401  43.132   8.864
 2725POPC   GL236422  14.317  43.184   8.864
 2725POPC   C1A36423  14.435  43.115   8.564
 2725POPC   D2A36424  14.401  43.093   8.264
 2725POPC   C3A36425  14.397  43.110   7.964
 2725POPC   C4A36426  14.390  43.135   7.664
 2725POPC   C1B36427  14.255  43.291   8.564
 2725POPC   C2B36428  14.288  43.363   8.264
 2725POPC   C3B36429  14.257  43.330   7.964
 2725POPC   C4B36430  14.247  43.297   7.664
 2726POPC   NC336431  15.201  36.914   9.464
 2726POPC   PO436432  15.163  36.897   9.164
 2726POPC   GL136433  15.220  36.939   8.864
 2726POPC   GL236434  15.284  36.813   8.864
 2726POPC   C1A36435  15.159  36.929   8.564
 2726POPC   D2A36436  15.222  36.945   8.264
 2726POPC   C3A36437  15.158  36.894   7.964
 2726POPC   C4A36438  15.216  36.902   7.664
 2726POPC   C1B36439  15.395  36.854   8.564
 2726POPC   C2B36440  15.414  36.826   8.264
 2726POPC   C3B36441  15.438  36.837   7.964
 2726POPC   C4B36442  15.454  36.809   7.664
 2727POPC   NC336443  43.877  34.550   9.464
 2727POPC   PO436444  43.902  34.619   9.164
 2727POPC   GL136445  43.867  34.543   8.864
 2727POPC   GL236446  43.796  34.514   8.864
 2727POPC   C1A36447  43.919  34.618   8.564
 2727POPC   D2A36448  43.870  34.597   8.264
 2727POPC   C3A36449  43.929  34.611   7.964
 2727POPC   C4A36450  43.869  34.588   7.664
 2727POPC   C1B36451  43.667  34.421   8.564
 2727POPC   C2B36452  43.679  34.433   8.264
 2727POPC   C3B36453  43.655  34.433   7.964
 2727POPC   C4B36454  43.621  34.444   7.664
 2728POPC   NC336455  32.996  30.725   9.464
 2728POPC   PO436456  33.042  30.730   9.164
 2728POPC   GL136457  33.031  30.707   8.864
 2728POPC   GL236458  33.150  30.750   8.864
 2728POPC   C1A36459  33.002  30.723   8.564
 2728POPC   D2A36460  33.008  30.700   8.264
 2728POPC   C3A36461  33.067  30.712   7.964
 2728POPC   C4A36462  33.073  30.708   7.664
 2728POPC   C1B36463  33.245  30.826   8.564
 2728POPC   C2B36464  33.240  30.790   8.264
 2728POPC   C3B36465  33.300  30.765   7.964
 2728POPC   C4B36466  33.290  30.817   7.664
 2729POPC   NC336467  18.308  19.026   9.464
 2729POPC   PO436468  18.323  19.016   9.164
 2729POPC   GL136469  18.306  19.084   8.864
 2729POPC   GL236470  18.154  19.053   8.864
 2729POPC   C1A36471  18.249  19.102   8.564
 2729POPC   D2A36472  18.325  19.052   8.264
 2729POPC   C3A36473  18.256  19.056   7.964
 2729POPC   C4A36474  18.302  19.082   7.664
 2729POPC   C1B36475  18.018  18.952   8.564
 2729POPC   C2B36476  18.096  18.963   8.264
 2729POPC   C3B36477  18.018  18.943   7.964
 2729POPC   C4B36478  18.070  19.000   7.664
 2730POPC   NC336479   2.747  17.531   9.464
 2730POPC   PO436480   2.744  17.546   9.164
 2730POPC   GL136481   2.757  17.476   8.864
 2730POPC   GL236482   2.889  17.477   8.864
 2730POPC   C1A36483   2.762  17.461   8.564
 2730POPC   D2A36484   2.803  17.496   8.264
 2730POPC   C3A36485   2.731  17.533   7.964
 2730POPC   C4A36486   2.761  17.555   7.664
 2730POPC   C1B36487   2.958  17.366   8.564
 2730POPC   C2B36488   2.981  17.428   8.264
 2730POPC   C3B36489   3.030  17.416   7.964
 2730POPC   C4B36490   3.022  17.364   7.664
 2731POPC   NC336491  27.627  37.698   9.464
 2731POPC   PO436492  27.608  37.704   9.164
 2731POPC   GL136493  27.627  37.729   8.864
 2731POPC   GL236494  27.713  37.697   8.864
 2731POPC   C1A36495  27.582  37.684   8.564
 2731POPC   D2A36496  27.612  37.714   8.264
 2731POPC   C3A36497  27.562  37.650   7.964
 2731POPC   C4A36498  27.591  37.724   7.664
 2731POPC   C1B36499  27.881  37.667   8.564
 2731POPC   C2B36500  27.812  37.664   8.264
 2731POPC   C3B36501  27.869  37.577   7.964
 2731POPC   C4B36502  27.878  37.662   7.664
 2732POPC   NC336503   0.430  23.693   9.464
 2732POPC   PO436504   0.441  23.740   9.164
 2732POPC   GL136505   0.435  23.718   8.864
 2732POPC   GL236506   0.563  23.798   8.864
 2732POPC   C1A36507   0.469  23.727   8.564
 2732POPC   D2A36508   0.405  23.746   8.264
 2732POPC   C3A36509   0.407  23.672   7.964
 2732POPC   C4A36510   0.420  23.758   7.664
 2732POPC   C1B36511   0.609  23.952   8.564
 2732POPC   C2B36512   0.587  23.910   8.264
 2732POPC   C3B36513   0.572  23.863   7.964
 2732POPC   C4B36514   0.563  23.891   7.664
 2733POPC   NC336515  29.883  43.074   9.464
 2733POPC   PO436516  29.947  43.130   9.164
 2733POPC   GL136517  29.942  43.114   8.864
 2733POPC   GL236518  29.781  43.229   8.864
 2733POPC   C1A36519  29.970  43.131   8.564
 2733POPC   D2A36520  29.892  43.102   8.264
 2733POPC   C3A36521  29.887  43.148   7.964
 2733POPC   C4A36522  29.928  43.088   7.664
 2733POPC   C1B36523  29.730  43.260   8.564
 2733POPC   C2B36524  29.754  43.309   8.264
 2733POPC   C3B36525  29.769  43.278   7.964
 2733POPC   C4B36526  29.781  43.255   7.664
 2734POPC   NC336527  27.643  30.649   9.464
 2734POPC   PO436528  27.546  30.647   9.164
 2734POPC   GL136529  27.607  30.690   8.864
 2734POPC   GL236530  27.518  30.723   8.864
 2734POPC   C1A36531  27.611  30.714   8.564
 2734POPC   D2A36532  27.600  30.707   8.264
 2734POPC   C3A36533  27.552  30.721   7.964
 2734POPC   C4A36534  27.615  30.647   7.664
 2734POPC   C1B36535  27.413  30.873   8.564
 2734POPC   C2B36536  27.411  30.805   8.264
 2734POPC   C3B36537  27.427  30.807   7.964
 2734POPC   C4B36538  27.335  30.819   7.664
 2735POPC   NC336539  44.663   3.514   9.464
 2735POPC   PO436540  44.619   3.587   9.164
 2735POPC   GL136541  44.683   3.569   8.864
 2735POPC   GL236542  44.619   3.681   8.864
 2735POPC   C1A36543  44.635   3.564   8.564
 2735POPC   D2A36544  44.677   3.491   8.264
 2735POPC   C3A36545  44.694   3.493   7.964
 2735POPC   C4A36546  44.640   3.525   7.664
 2735POPC   C1B36547  44.521   3.774   8.564
 2735POPC   C2B36548  44.541   3.748   8.264
 2735POPC   C3B36549  44.533   3.793   7.964
 2735POPC   C4B36550  44.508   3.770   7.664
 2736POPC   NC336551  33.772  12.810   9.464
 2736POPC   PO436552  33.783  12.871   9.164
 2736POPC   GL136553  33.757  12.857   8.864
 2736POPC   GL236554  33.764  12.951   8.864
 2736POPC   C1A36555  33.839  12.840   8.564
 2736POPC   D2A36556  33.812  12.859   8.264
 2736POPC   C3A36557  33.806  12.832   7.964
 2736POPC   C4A36558  33.785  12.805   7.664
 2736POPC   C1B36559  33.646  13.077   8.564
 2736POPC   C2B36560  33.668  13.089   8.264
 2736POPC   C3B36561  33.718  13.030   7.964
 2736POPC   C4B36562  33.735  13.084   7.664
 2737POPC   NC336563  41.540  12.051   9.464
 2737POPC   PO436564  41.556  12.105   9.164
 2737POPC   GL136565  41.586  12.123   8.864
 2737POPC   GL236566  41.595  12.163   8.864
 2737POPC   C1A36567  41.535  12.115   8.564
 2737POPC   D2A36568  41.607  12.050   8.264
 2737POPC   C3A36569  41.517  12.114   7.964
 2737POPC   C4A36570  41.539  12.117   7.664
 2737POPC   C1B36571  41.653  12.356   8.564
 2737POPC   C2B36572  41.637  12.317   8.264
 2737POPC   C3B36573  41.590  12.338   7.964
 2737POPC   C4B36574  41.574  12.348   7.664
 2738POPC   NC336575  14.447  38.413   9.464
 2738POPC   PO436576  14.369  38.411   9.164
 2738POPC   GL136577  14.433  38.444   8.864
 2738POPC   GL236578  14.378  38.339   8.864
 2738POPC   C1A36579  14.410  38.474   8.564
 2738POPC   D2A36580  14.384  38.440   8.264
 2738POPC   C3A36581  14.426  38.422   7.964
 2738POPC   C4A36582  14.426  38.483   7.664
 2738POPC   C1B36583  14.330  38.190   8.564
 2738POPC   C2B36584  14.284  38.262   8.264
 2738POPC   C3B36585  14.337  38.227   7.964
 2738POPC   C4B36586  14.355  38.184   7.664
 2739POPC   NC336587  43.885  29.154   9.464
 2739POPC   PO436588  43.851  29.102   9.164
 2739POPC   GL136589  43.856  29.103   8.864
 2739POPC   GL236590  43.827  29.067   8.864
 2739POPC   C1A36591  43.890  29.160   8.564
 2739POPC   D2A36592  43.875  29.150   8.264
 2739POPC   C3A36593  43.889  29.187   7.964
 2739POPC   C4A36594  43.885  29.173   7.664
 2739POPC   C1B36595  43.744  28.978   8.564
 2739POPC   C2B36596  43.764  28.924   8.264
 2739POPC   C3B36597  43.737  28.937   7.964
 2739POPC   C4B36598  43.701  28.983   7.664
 2740POPC   NC336599   2.005   2.730   9.464
 2740POPC   PO436600   2.002   2.730   9.164
 2740POPC   GL136601   2.033   2.733   8.864
 2740POPC   GL236602   1.867   2.806   8.864
 2740POPC   C1A36603   2.013   2.789   8.564
 2740POPC   D2A36604   1.990   2.798   8.264
 2740POPC   C3A36605   2.032   2.725   7.964
 2740POPC   C4A36606   1.947   2.800   7.664
 2740POPC   C1B36607   1.783   2.858   8.564
 2740POPC   C2B36608   1.783   2.786   8.264
 2740POPC   C3B36609   1.763   2.850   7.964
 2740POPC   C4B36610   1.778   2.835   7.664
 2741POPC   NC336611  25.296  15.940   9.464
 2741POPC   PO436612  25.256  15.959   9.164
 2741POPC   GL136613  25.303  15.972   8.864
 2741POPC   GL236614  25.216  16.006   8.864
 2741POPC   C1A36615  25.295  15.978   8.564
 2741POPC   D2A36616  25.276  15.973   8.264
 2741POPC   C3A36617  25.273  15.939   7.964
 2741POPC   C4A36618  25.225  15.980   7.664
 2741POPC   C1B36619  25.098  16.158   8.564
 2741POPC   C2B36620  25.078  16.113   8.264
 2741POPC   C3B36621  25.060  16.166   7.964
 2741POPC   C4B36622  25.038  16.121   7.664
 2742POPC   NC336623  15.983  15.960   9.464
 2742POPC   PO436624  15.978  15.935   9.164
 2742POPC   GL136625  15.997  15.959   8.864
 2742POPC   GL236626  15.835  16.016   8.864
 2742POPC   C1A36627  15.919  15.946   8.564
 2742POPC   D2A36628  15.954  15.989   8.264
 2742POPC   C3A36629  15.991  15.963   7.964
 2742POPC   C4A36630  15.959  15.950   7.664
 2742POPC   C1B36631  15.819  16.117   8.564
 2742POPC   C2B36632  15.759  16.102   8.264
 2742POPC   C3B36633  15.792  16.108   7.964
 2742POPC   C4B36634  15.763  16.098   7.664
 2743POPC   NC336635   8.957  40.777   9.464
 2743POPC   PO436636   8.934  40.777   9.164
 2743POPC   GL136637   8.961  40.801   8.864
 2743POPC   GL236638   9.063  40.828   8.864
 2743POPC   C1A36639   9.015  40.766   8.564
 2743POPC   D2A36640   9.009  40.817   8.264
 2743POPC   C3A36641   8.990  40.792   7.964
 2743POPC   C4A36642   8.928  40.781   7.664
 2743POPC   C1B36643   9.170  40.837   8.564
 2743POPC   C2B36644   9.253  40.877   8.264
 2743POPC   C3B36645   9.217  40.864   7.964
 2743POPC   C4B36646   9.185  40.823   7.664
 2744POPC   NC336647   4.308  11.316   9.464
 2744POPC   PO436648   4.315  11.335   9.164
 2744POPC   GL136649   4.355  11.287   8.864
 2744POPC   GL236650   4.216  11.249   8.864
 2744POPC   C1A36651   4.303  11.298   8.564
 2744POPC   D2A36652   4.348  11.292   8.264
 2744POPC   C3A36653   4.352  11.327   7.964
 2744POPC   C4A36654   4.361  11.284   7.664
 2744POPC   C1B36655   4.048  11.149   8.564
 2744POPC   C2B36656   4.096  11.190   8.264
 2744POPC   C3B36657   4.107  11.173   7.964
 2744POPC   C4B36658   4.095  11.224   7.664
 2745POPC   NC336659  23.735  36.166   9.464
 2745POPC   PO436660  23.736  36.177   9.164
 2745POPC   GL136661  23.735  36.177   8.864
 2745POPC   GL236662  23.719  36.210   8.864
 2745POPC   C1A36663  23.753  36.124   8.564
 2745POPC   D2A36664  23.705  36.092   8.264
 2745POPC   C3A36665  23.749  36.117   7.964
 2745POPC   C4A36666  23.737  36.088   7.664
 2745POPC   C1B36667  23.668  36.325   8.564
 2745POPC   C2B36668  23.673  36.366   8.264
 2745POPC   C3B36669  23.588  36.394   7.964
 2745POPC   C4B36670  23.616  36.349   7.664
 2746POPC   NC336671   9.755  14.426   9.464
 2746POPC   PO436672   9.708  14.445   9.164
 2746POPC   GL136673   9.701  14.419   8.864
 2746POPC   GL236674   9.685  14.329   8.864
 2746POPC   C1A36675   9.722  14.440   8.564
 2746POPC   D2A36676   9.787  14.408   8.264
 2746POPC   C3A36677   9.734  14.429   7.964
 2746POPC   C4A36678   9.728  14.388   7.664
 2746POPC   C1B36679   9.633  14.169   8.564
 2746POPC   C2B36680   9.667  14.212   8.264
 2746POPC   C3B36681   9.631  14.205   7.964
 2746POPC   C4B36682   9.592  14.201   7.664
 2747POPC   NC336683  15.217  35.338   9.464
 2747POPC   PO436684  15.172  35.341   9.164
 2747POPC   GL136685  15.161  35.315   8.864
 2747POPC   GL236686  15.129  35.197   8.864
 2747POPC   C1A36687  15.140  35.329   8.564
 2747POPC   D2A36688  15.181  35.342   8.264
 2747POPC   C3A36689  15.210  35.400   7.964
 2747POPC   C4A36690  15.203  35.326   7.664
 2747POPC   C1B36691  15.181  35.099   8.564
 2747POPC   C2B36692  15.170  35.082   8.264
 2747POPC   C3B36693  15.127  35.138   7.964
 2747POPC   C4B36694  15.178  35.130   7.664
 2748POPC   NC336695  24.468  43.888   9.464
 2748POPC   PO436696  24.536  43.887   9.164
 2748POPC   GL136697  24.463  43.838   8.864
 2748POPC   GL236698  24.443  43.994   8.864
 2748POPC   C1A36699  24.470  43.878   8.564
 2748POPC   D2A36700  24.488  43.893   8.264
 2748POPC   C3A36701  24.442  43.889   7.964
 2748POPC   C4A36702  24.536  43.910   7.664
 2748POPC   C1B36703  24.365  44.142   8.564
 2748POPC   C2B36704  24.369  44.152   8.264
 2748POPC   C3B36705  24.438  44.126   7.964
 2748POPC   C4B36706  24.399  44.136   7.664
 2749POPC   NC336707  44.649  24.464   9.464
 2749POPC   PO436708  44.677  24.442   9.164
 2749POPC   GL136709  44.647  24.457   8.864
 2749POPC   GL236710  44.742  24.565   8.864
 2749POPC   C1A36711  44.703  24.486   8.564
 2749POPC   D2A36712  44.677  24.472   8.264
 2749POPC   C3A36713  44.703  24.463   7.964
 2749POPC   C4A36714  44.667  24.527   7.664
 2749POPC   C1B36715  44.890  24.589   8.564
 2749POPC   C2B36716  44.919  24.555   8.264
 2749POPC   C3B36717  44.915  24.517   7.964
 2749POPC   C4B36718  44.903  24.519   7.664
 2750POPC   NC336719   9.726  39.995   9.464
 2750POPC   PO436720   9.798  39.958   9.164
 2750POPC   GL136721   9.784  40.032   8.864
 2750POPC   GL236722   9.712  40.086   8.864
 2750POPC   C1A36723   9.758  39.999   8.564
 2750POPC   D2A36724   9.724  39.974   8.264
 2750POPC   C3A36725   9.751  40.000   7.964
 2750POPC   C4A36726   9.742  39.976   7.664
 2750POPC   C1B36727   9.641  40.254   8.564
 2750POPC   C2B36728   9.615  40.233   8.264
 2750POPC   C3B36729   9.664  40.222   7.964
 2750POPC   C4B36730   9.638  40.275   7.664
 2751POPC   NC336731  36.176  25.996   9.464
 2751POPC   PO436732  36.174  26.019   9.164
 2751POPC   GL136733  36.138  26.032   8.864
 2751POPC   GL236734  36.265  26.089   8.864
 2751POPC   C1A36735  36.142  26.055   8.564
 2751POPC   D2A36736  36.091  26.024   8.264
 2751POPC   C3A36737  36.173  26.084   7.964
 2751POPC   C4A36738  36.119  26.032   7.664
 2751POPC   C1B36739  36.334  26.107   8.564
 2751POPC   C2B36740  36.388  26.038   8.264
 2751POPC   C3B36741  36.337  26.117   7.964
 2751POPC   C4B36742  36.390  26.057   7.664
 2752POPC   NC336743   2.784  11.282   9.464
 2752POPC   PO436744   2.807  11.334   9.164
 2752POPC   GL136745   2.753  11.277   8.864
 2752POPC   GL236746   2.692  11.442   8.864
 2752POPC   C1A36747   2.758  11.302   8.564
 2752POPC   D2A36748   2.752  11.262   8.264
 2752POPC   C3A36749   2.804  11.263   7.964
 2752POPC   C4A36750   2.732  11.325   7.664
 2752POPC   C1B36751   2.713  11.511   8.564
 2752POPC   C2B36752   2.634  11.513   8.264
 2752POPC   C3B36753   2.667  11.523   7.964
 2752POPC   C4B36754   2.714  11.552   7.664
 2753POPC   NC336755   8.927  26.806   9.464
 2753POPC   PO436756   8.927  26.827   9.164
 2753POPC   GL136757   8.927  26.785   8.864
 2753POPC   GL236758   9.102  26.875   8.864
 2753POPC   C1A36759   8.939  26.774   8.564
 2753POPC   D2A36760   8.945  26.771   8.264
 2753POPC   C3A36761   8.940  26.800   7.964
 2753POPC   C4A36762   8.992  26.824   7.664
 2753POPC   C1B36763   9.192  26.923   8.564
 2753POPC   C2B36764   9.198  26.941   8.264
 2753POPC   C3B36765   9.160  26.929   7.964
 2753POPC   C4B36766   9.160  26.953   7.664
 2754POPC   NC336767  14.442  22.889   9.464
 2754POPC   PO436768  14.402  22.967   9.164
 2754POPC   GL136769  14.363  22.906   8.864
 2754POPC   GL236770  14.268  22.950   8.864
 2754POPC   C1A36771  14.445  22.947   8.564
 2754POPC   D2A36772  14.437  22.937   8.264
 2754POPC   C3A36773  14.443  22.964   7.964
 2754POPC   C4A36774  14.381  22.967   7.664
 2754POPC   C1B36775  14.109  22.941   8.564
 2754POPC   C2B36776  14.202  22.948   8.264
 2754POPC   C3B36777  14.111  23.001   7.964
 2754POPC   C4B36778  14.110  23.030   7.664
 2755POPC   NC336779  12.030  17.510   9.464
 2755POPC   PO436780  12.073  17.554   9.164
 2755POPC   GL136781  12.115  17.540   8.864
 2755POPC   GL236782  11.927  17.441   8.864
 2755POPC   C1A36783  12.060  17.552   8.564
 2755POPC   D2A36784  12.052  17.502   8.264
 2755POPC   C3A36785  12.047  17.526   7.964
 2755POPC   C4A36786  12.093  17.475   7.664
 2755POPC   C1B36787  11.852  17.439   8.564
 2755POPC   C2B36788  11.873  17.503   8.264
 2755POPC   C3B36789  11.850  17.502   7.964
 2755POPC   C4B36790  11.783  17.425   7.664
 2756POPC   NC336791  18.243   6.652   9.464
 2756POPC   PO436792  18.332   6.692   9.164
 2756POPC   GL136793  18.245   6.643   8.864
 2756POPC   GL236794  18.250   6.812   8.864
 2756POPC   C1A36795  18.315   6.607   8.564
 2756POPC   D2A36796  18.274   6.597   8.264
 2756POPC   C3A36797  18.292   6.649   7.964
 2756POPC   C4A36798  18.267   6.671   7.664
 2756POPC   C1B36799  18.230   6.906   8.564
 2756POPC   C2B36800  18.216   6.930   8.264
 2756POPC   C3B36801  18.194   6.905   7.964
 2756POPC   C4B36802  18.183   6.924   7.664
 2757POPC   NC336803  35.391  36.100   9.464
 2757POPC   PO436804  35.352  36.128   9.164
 2757POPC   GL136805  35.377  36.136   8.864
 2757POPC   GL236806  35.395  36.027   8.864
 2757POPC   C1A36807  35.392  36.155   8.564
 2757POPC   D2A36808  35.318  36.131   8.264
 2757POPC   C3A36809  35.345  36.105   7.964
 2757POPC   C4A36810  35.302  36.129   7.664
 2757POPC   C1B36811  35.501  35.928   8.564
 2757POPC   C2B36812  35.493  35.903   8.264
 2757POPC   C3B36813  35.515  35.922   7.964
 2757POPC   C4B36814  35.496  35.917   7.664
 2758POPC   NC336815   8.148  22.889   9.464
 2758POPC   PO436816   8.216  22.948   9.164
 2758POPC   GL136817   8.205  22.957   8.864
 2758POPC   GL236818   8.199  23.087   8.864
 2758POPC   C1A36819   8.168  22.978   8.564
 2758POPC   D2A36820   8.238  22.891   8.264
 2758POPC   C3A36821   8.235  22.932   7.964
 2758POPC   C4A36822   8.170  22.908   7.664
 2758POPC   C1B36823   8.220  23.215   8.564
 2758POPC   C2B36824   8.191  23.141   8.264
 2758POPC   C3B36825   8.178  23.202   7.964
 2758POPC   C4B36826   8.187  23.208   7.664
 2759POPC   NC336827   0.466  25.221   9.464
 2759POPC   PO436828   0.427  25.235   9.164
 2759POPC   GL136829   0.474  25.313   8.864
 2759POPC   GL236830   0.328  25.323   8.864
 2759POPC   C1A36831   0.425  25.305   8.564
 2759POPC   D2A36832   0.471  25.290   8.264
 2759POPC   C3A36833   0.392  25.216   7.964
 2759POPC   C4A36834   0.405  25.304   7.664
 2759POPC   C1B36835   0.201  25.311   8.564
 2759POPC   C2B36836   0.144  25.315   8.264
 2759POPC   C3B36837   0.148  25.336   7.964
 2759POPC   C4B36838   0.166  25.321   7.664
 2760POPC   NC336839  19.844  36.931   9.464
 2760POPC   PO436840  19.884  36.869   9.164
 2760POPC   GL136841  19.808  36.945   8.864
 2760POPC   GL236842  19.770  36.779   8.864
 2760POPC   C1A36843  19.844  36.883   8.564
 2760POPC   D2A36844  19.871  36.930   8.264
 2760POPC   C3A36845  19.790  36.913   7.964
 2760POPC   C4A36846  19.883  36.935   7.664
 2760POPC   C1B36847  19.672  36.754   8.564
 2760POPC   C2B36848  19.629  36.720   8.264
 2760POPC   C3B36849  19.659  36.722   7.964
 2760POPC   C4B36850  19.606  36.780   7.664
 2761POPC   NC336851  44.699  29.920   9.464
 2761POPC   PO436852  44.707  29.944   9.164
 2761POPC   GL136853  44.665  29.940   8.864
 2761POPC   GL236854  44.662  29.763   8.864
 2761POPC   C1A36855  44.635  29.887   8.564
 2761POPC   D2A36856  44.696  29.951   8.264
 2761POPC   C3A36857  44.635  29.911   7.964
 2761POPC   C4A36858  44.664  29.933   7.664
 2761POPC   C1B36859  44.770  29.721   8.564
 2761POPC   C2B36860  44.702  29.723   8.264
 2761POPC   C3B36861  44.742  29.633   7.964
 2761POPC   C4B36862  44.690  29.698   7.664
 2762POPC   NC336863  12.816  33.047   9.464
 2762POPC   PO436864  12.885  33.046   9.164
 2762POPC   GL136865  12.893  32.997   8.864
 2762POPC   GL236866  12.718  33.014   8.864
 2762POPC   C1A36867  12.886  33.020   8.564
 2762POPC   D2A36868  12.803  33.013   8.264
 2762POPC   C3A36869  12.882  32.998   7.964
 2762POPC   C4A36870  12.865  32.988   7.664
 2762POPC   C1B36871  12.586  33.015   8.564
 2762POPC   C2B36872  12.592  32.997   8.264
 2762POPC   C3B36873  12.598  33.084   7.964
 2762POPC   C4B36874  12.647  32.998   7.664
 2763POPC   NC336875  19.840  40.758   9.464
 2763POPC   PO436876  19.854  40.774   9.164
 2763POPC   GL136877  19.829  40.743   8.864
 2763POPC   GL236878  19.886  40.922   8.864
 2763POPC   C1A36879  19.786  40.823   8.564
 2763POPC   D2A36880  19.845  40.741   8.264
 2763POPC   C3A36881  19.850  40.760   7.964
 2763POPC   C4A36882  19.843  40.768   7.664
 2763POPC   C1B36883  19.927  40.983   8.564
 2763POPC   C2B36884  19.903  40.968   8.264
 2763POPC   C3B36885  19.916  41.004   7.964
 2763POPC   C4B36886  19.892  41.045   7.664
 2764POPC   NC336887   5.085  16.693   9.464
 2764POPC   PO436888   5.061  16.778   9.164
 2764POPC   GL136889   5.062  16.712   8.864
 2764POPC   GL236890   5.006  16.783   8.864
 2764POPC   C1A36891   5.080  16.727   8.564
 2764POPC   D2A36892   5.131  16.772   8.264
 2764POPC   C3A36893   5.070  16.776   7.964
 2764POPC   C4A36894   5.140  16.705   7.664
 2764POPC   C1B36895   4.840  16.767   8.564
 2764POPC   C2B36896   4.851  16.800   8.264
 2764POPC   C3B36897   4.900  16.745   7.964
 2764POPC   C4B36898   4.818  16.820   7.664
 2765POPC   NC336899  30.655  32.205   9.464
 2765POPC   PO436900  30.660  32.202   9.164
 2765POPC   GL136901  30.683  32.274   8.864
 2765POPC   GL236902  30.608  32.126   8.864
 2765POPC   C1A36903  30.669  32.243   8.564
 2765POPC   D2A36904  30.683  32.270   8.264
 2765POPC   C3A36905  30.716  32.255   7.964
 2765POPC   C4A36906  30.649  32.213   7.664
 2765POPC   C1B36907  30.608  31.971   8.564
 2765POPC   C2B36908  30.551  32.019   8.264
 2765POPC   C3B36909  30.551  31.978   7.964
 2765POPC   C4B36910  30.602  31.979   7.664
 2766POPC   NC336911  36.938  38.443   9.464
 2766POPC   PO436912  36.947  38.423   9.164
 2766POPC   GL136913  36.892  38.456   8.864
 2766POPC   GL236914  36.951  38.350   8.864
 2766POPC   C1A36915  36.906  38.444   8.564
 2766POPC   D2A36916  36.910  38.487   8.264
 2766POPC   C3A36917  36.949  38.484   7.964
 2766POPC   C4A36918  36.937  38.488   7.664
 2766POPC   C1B36919  36.957  38.252   8.564
 2766POPC   C2B36920  36.926  38.168   8.264
 2766POPC   C3B36921  36.969  38.206   7.964
 2766POPC   C4B36922  36.915  38.231   7.664
 2767POPC   NC336923  20.634  12.867   9.464
 2767POPC   PO436924  20.584  12.834   9.164
 2767POPC   GL136925  20.616  12.838   8.864
 2767POPC   GL236926  20.657  12.750   8.864
 2767POPC   C1A36927  20.628  12.879   8.564
 2767POPC   D2A36928  20.591  12.835   8.264
 2767POPC   C3A36929  20.627  12.834   7.964
 2767POPC   C4A36930  20.586  12.825   7.664
 2767POPC   C1B36931  20.746  12.631   8.564
 2767POPC   C2B36932  20.678  12.611   8.264
 2767POPC   C3B36933  20.685  12.612   7.964
 2767POPC   C4B36934  20.680  12.590   7.664
 2768POPC   NC336935  36.952  42.331   9.464
 2768POPC   PO436936  36.936  42.299   9.164
 2768POPC   GL136937  36.948  42.306   8.864
 2768POPC   GL236938  36.881  42.424   8.864
 2768POPC   C1A36939  36.855  42.299   8.564
 2768POPC   D2A36940  36.940  42.292   8.264
 2768POPC   C3A36941  36.902  42.329   7.964
 2768POPC   C4A36942  36.912  42.304   7.664
 2768POPC   C1B36943  36.909  42.597   8.564
 2768POPC   C2B36944  36.981  42.545   8.264
 2768POPC   C3B36945  36.964  42.589   7.964
 2768POPC   C4B36946  36.990  42.582   7.664
 2769POPC   NC336947  30.705  12.810   9.464
 2769POPC   PO436948  30.669  12.880   9.164
 2769POPC   GL136949  30.656  12.869   8.864
 2769POPC   GL236950  30.574  12.740   8.864
 2769POPC   C1A36951  30.679  12.806   8.564
 2769POPC   D2A36952  30.650  12.817   8.264
 2769POPC   C3A36953  30.726  12.853   7.964
 2769POPC   C4A36954  30.648  12.851   7.664
 2769POPC   C1B36955  30.534  12.760   8.564
 2769POPC   C2B36956  30.469  12.765   8.264
 2769POPC   C3B36957  30.473  12.692   7.964
 2769POPC   C4B36958  30.503  12.764   7.664
 2770POPC   NC336959  22.115  17.457   9.464
 2770POPC   PO436960  22.193  17.496   9.164
 2770POPC   GL136961  22.134  17.457   8.864
 2770POPC   GL236962  22.158  17.420   8.864
 2770POPC   C1A36963  22.183  17.536   8.564
 2770POPC   D2A36964  22.131  17.521   8.264
 2770POPC   C3A36965  22.143  17.509   7.964
 2770POPC   C4A36966  22.176  17.467   7.664
 2770POPC   C1B36967  22.036  17.253   8.564
 2770POPC   C2B36968  22.127  17.249   8.264
 2770POPC   C3B36969  22.103  17.321   7.964
 2770POPC   C4B36970  22.077  17.309   7.664
 2771POPC   NC336971   1.965  16.684   9.464
 2771POPC   PO436972   1.961  16.759   9.164
 2771POPC   GL136973   1.986  16.774   8.864
 2771POPC   GL236974   1.899  16.734   8.864
 2771POPC   C1A36975   1.963  16.775   8.564
 2771POPC   D2A36976   2.006  16.711   8.264
 2771POPC   C3A36977   1.993  16.766   7.964
 2771POPC   C4A36978   1.968  16.690   7.664
 2771POPC   C1B36979   1.791  16.762   8.564
 2771POPC   C2B36980   1.704  16.782   8.264
 2771POPC   C3B36981   1.699  16.794   7.964
 2771POPC   C4B36982   1.722  16.816   7.664
 2772POPC   NC336983   3.585  30.726   9.464
 2772POPC   PO436984   3.552  30.665   9.164
 2772POPC   GL136985   3.498  30.710   8.864
 2772POPC   GL236986   3.428  30.730   8.864
 2772POPC   C1A36987   3.533  30.700   8.564
 2772POPC   D2A36988   3.517  30.726   8.264
 2772POPC   C3A36989   3.531  30.680   7.964
 2772POPC   C4A36990   3.547  30.655   7.664
 2772POPC   C1B36991   3.268  30.708   8.564
 2772POPC   C2B36992   3.302  30.708   8.264
 2772POPC   C3B36993   3.336  30.753   7.964
 2772POPC   C4B36994   3.334  30.695   7.664
 2773POPC   NC336995  31.446  10.488   9.464
 2773POPC   PO436996  31.495  10.547   9.164
 2773POPC   GL136997  31.500  10.556   8.864
 2773POPC   GL236998  31.358  10.514   8.864
 2773POPC   C1A36999  31.505  10.483   8.564
 2773POPC   D2A37000  31.423  10.485   8.264
 2773POPC   C3A37001  31.479  10.565   7.964
 2773POPC   C4A37002  31.491  10.553   7.664
 2773POPC   C1B37003  31.214  10.494   8.564
 2773POPC   C2B37004  31.191  10.474   8.264
 2773POPC   C3B37005  31.190  10.512   7.964
 2773POPC   C4B37006  31.216  10.494   7.664
 2774POPC   NC337007  17.549  33.793   9.464
 2774POPC   PO437008  17.533  33.795   9.164
 2774POPC   GL137009  17.536  33.778   8.864
 2774POPC   GL237010  17.599  33.803   8.864
 2774POPC   C1A37011  17.542  33.756   8.564
 2774POPC   D2A37012  17.503  33.830   8.264
 2774POPC   C3A37013  17.531  33.804   7.964
 2774POPC   C4A37014  17.465  33.813   7.664
 2774POPC   C1B37015  17.779  33.837   8.564
 2774POPC   C2B37016  17.780  33.802   8.264
 2774POPC   C3B37017  17.783  33.844   7.964
 2774POPC   C4B37018  17.801  33.837   7.664
 2775POPC   NC337019   0.400  19.083   9.464
 2775POPC   PO437020   0.431  19.015   9.164
 2775POPC   GL137021   0.439  19.026   8.864
 2775POPC   GL237022   0.344  19.039   8.864
 2775POPC   C1A37023   0.434  19.098   8.564
 2775POPC   D2A37024   0.399  19.042   8.264
 2775POPC   C3A37025   0.481  19.021   7.964
 2775POPC   C4A37026   0.484  19.016   7.664
 2775POPC   C1B37027   0.237  19.001   8.564
 2775POPC   C2B37028   0.207  19.046   8.264
 2775POPC   C3B37029   0.191  19.060   7.964
 2775POPC   C4B37030   0.221  19.048   7.664
 2776POPC   NC337031  24.497  29.158   9.464
 2776POPC   PO437032  24.486  29.134   9.164
 2776POPC   GL137033  24.465  29.193   8.864
 2776POPC   GL237034  24.364  29.113   8.864
 2776POPC   C1A37035  24.512  29.122   8.564
 2776POPC   D2A37036  24.520  29.194   8.264
 2776POPC   C3A37037  24.509  29.168   7.964
 2776POPC   C4A37038  24.512  29.100   7.664
 2776POPC   C1B37039  24.302  28.959   8.564
 2776POPC   C2B37040  24.316  29.016   8.264
 2776POPC   C3B37041  24.246  29.019   7.964
 2776POPC   C4B37042  24.273  28.991   7.664
 2777POPC   NC337043  10.496  33.029   9.464
 2777POPC   PO437044  10.505  33.018   9.164
 2777POPC   GL137045  10.501  33.047   8.864
 2777POPC   GL237046  10.658  33.014   8.864
 2777POPC   C1A37047  10.526  33.025   8.564
 2777POPC   D2A37048  10.496  33.064   8.264
 2777POPC   C3A37049  10.492  33.040   7.964
 2777POPC   C4A37050  10.501  33.073   7.664
 2777POPC   C1B37051  10.761  33.027   8.564
 2777POPC   C2B37052  10.744  33.020   8.264
 2777POPC   C3B37053  10.726  33.098   7.964
 2777POPC   C4B37054  10.767  33.101   7.664
 2778POPC   NC337055  44.686  39.257   9.464
 2778POPC   PO437056  44.633  39.268   9.164
 2778POPC   GL137057  44.686  39.244   8.864
 2778POPC   GL237058  44.605  39.327   8.864
 2778POPC   C1A37059  44.657  39.210   8.564
 2778POPC   D2A37060  44.666  39.221   8.264
 2778POPC   C3A37061  44.653  39.195   7.964
 2778POPC   C4A37062  44.646  39.225   7.664
 2778POPC   C1B37063  44.611  39.444   8.564
 2778POPC   C2B37064  44.621  39.523   8.264
 2778POPC   C3B37065  44.630  39.472   7.964
 2778POPC   C4B37066  44.666  39.459   7.664
 2779POPC   NC337067  36.944  35.385   9.464
 2779POPC   PO437068  36.861  35.329   9.164
 2779POPC   GL137069  36.930  35.314   8.864
 2779POPC   GL237070  36.857  35.488   8.864
 2779POPC   C1A37071  36.877  35.397   8.564
 2779POPC   D2A37072  36.893  35.360   8.264
 2779POPC   C3A37073  36.891  35.303   7.964
 2779POPC   C4A37074  36.857  35.311   7.664
 2779POPC   C1B37075  36.803  35.611   8.564
 2779POPC   C2B37076  36.748  35.532   8.264
 2779POPC   C3B37077  36.769  35.602   7.964
 2779POPC   C4B37078  36.810  35.570   7.664
 2780POPC   NC337079  39.981  15.988   9.464
 2780POPC   PO437080  40.007  16.003   9.164
 2780POPC   GL137081  39.965  15.942   8.864
 2780POPC   GL237082  40.119  15.967   8.864
 2780POPC   C1A37083  40.055  15.957   8.564
 2780POPC   D2A37084  39.966  15.974   8.264
 2780POPC   C3A37085  39.970  15.999   7.964
 2780POPC   C4A37086  40.046  15.907   7.664
 2780POPC   C1B37087  40.194  16.057   8.564
 2780POPC   C2B37088  40.255  16.126   8.264
 2780POPC   C3B37089  40.185  16.047   7.964
 2780POPC   C4B37090  40.261  16.121   7.664
 2781POPC   NC337091  29.167  10.554   9.464
 2781POPC   PO437092  29.180  10.572   9.164
 2781POPC   GL137093  29.167  10.497   8.864
 2781POPC   GL237094  29.093  10.676   8.864
 2781POPC   C1A37095  29.101  10.504   8.564
 2781POPC   D2A37096  29.113  10.476   8.264
 2781POPC   C3A37097  29.100  10.573   7.964
 2781POPC   C4A37098  29.167  10.552   7.664
 2781POPC   C1B37099  28.999  10.766   8.564
 2781POPC   C2B37100  28.970  10.728   8.264
 2781POPC   C3B37101  28.991  10.705   7.964
 2781POPC   C4B37102  29.038  10.736   7.664
 2782POPC   NC337103  41.582  19.848   9.464
 2782POPC   PO437104  41.562  19.837   9.164
 2782POPC   GL137105  41.546  19.868   8.864
 2782POPC   GL237106  41.607  19.740   8.864
 2782POPC   C1A37107  41.530  19.786   8.564
 2782POPC   D2A37108  41.582  19.858   8.264
 2782POPC   C3A37109  41.606  19.803   7.964
 2782POPC   C4A37110  41.540  19.860   7.664
 2782POPC   C1B37111  41.753  19.688   8.564
 2782POPC   C2B37112  41.768  19.660   8.264
 2782POPC   C3B37113  41.751  19.690   7.964
 2782POPC   C4B37114  41.749  19.701   7.664
 2783POPC   NC337115  12.851   8.194   9.464
 2783POPC   PO437116  12.828   8.169   9.164
 2783POPC   GL137117  12.868   8.175   8.864
 2783POPC   GL237118  12.914   8.150   8.864
 2783POPC   C1A37119  12.821   8.172   8.564
 2783POPC   D2A37120  12.810   8.217   8.264
 2783POPC   C3A37121  12.896   8.161   7.964
 2783POPC   C4A37122  12.811   8.153   7.664
 2783POPC   C1B37123  13.018   8.071   8.564
 2783POPC   C2B37124  13.015   8.051   8.264
 2783POPC   C3B37125  13.081   8.073   7.964
 2783POPC   C4B37126  13.042   8.095   7.664
 2784POPC   NC337127   2.026  26.020   9.464
 2784POPC   PO437128   1.965  26.075   9.164
 2784POPC   GL137129   1.946  26.033   8.864
 2784POPC   GL237130   1.816  26.055   8.864
 2784POPC   C1A37131   1.983  25.995   8.564
 2784POPC   D2A37132   2.024  26.087   8.264
 2784POPC   C3A37133   1.989  26.037   7.964
 2784POPC   C4A37134   2.014  26.054   7.664
 2784POPC   C1B37135   1.774  26.047   8.564
 2784POPC   C2B37136   1.767  25.978   8.264
 2784POPC   C3B37137   1.707  26.027   7.964
 2784POPC   C4B37138   1.706  26.040   7.664
 2785POPC   NC337139   2.802  14.448   9.464
 2785POPC   PO437140   2.748  14.440   9.164
 2785POPC   GL137141   2.785  14.447   8.864
 2785POPC   GL237142   2.882  14.276   8.864
 2785POPC   C1A37143   2.740  14.413   8.564
 2785POPC   D2A37144   2.751  14.441   8.264
 2785POPC   C3A37145   2.723  14.378   7.964
 2785POPC   C4A37146   2.731  14.372   7.664
 2785POPC   C1B37147   2.891  14.233   8.564
 2785POPC   C2B37148   2.916  14.259   8.264
 2785POPC   C3B37149   2.959  14.184   7.964
 2785POPC   C4B37150   2.937  14.247   7.664
 2786POPC   NC337151  12.888  25.300   9.464
 2786POPC   PO437152  12.806  25.263   9.164
 2786POPC   GL137153  12.868  25.291   8.864
 2786POPC   GL237154  12.770  25.345   8.864
 2786POPC   C1A37155  12.855  25.286   8.564
 2786POPC   D2A37156  12.803  25.230   8.264
 2786POPC   C3A37157  12.829  25.247   7.964
 2786POPC   C4A37158  12.817  25.264   7.664
 2786POPC   C1B37159  12.605  25.314   8.564
 2786POPC   C2B37160  12.634  25.317   8.264
 2786POPC   C3B37161  12.626  25.321   7.964
 2786POPC   C4B37162  12.610  25.330   7.664
 2787POPC   NC337163  37.703  44.671   9.464
 2787POPC   PO437164  37.671  44.687   9.164
 2787POPC   GL137165  37.677  44.651   8.864
 2787POPC   GL237166  37.700  44.829   8.864
 2787POPC   C1A37167  37.689  44.612   8.564
 2787POPC   D2A37168  37.707  44.694   8.264
 2787POPC   C3A37169  37.679  44.641   7.964
 2787POPC   C4A37170  37.712  44.664   7.664
 2787POPC   C1B37171  37.631  44.872   8.564
 2787POPC   C2B37172  37.646  44.888   8.264
 2787POPC   C3B37173  37.700  44.916   7.964
 2787POPC   C4B37174  37.669  44.904   7.664
 2788POPC   NC337175  39.966  14.399   9.464
 2788POPC   PO437176  39.971  14.430   9.164
 2788POPC   GL137177  39.998  14.397   8.864
 2788POPC   GL237178  40.077  14.527   8.864
 2788POPC   C1A37179  39.995  14.359   8.564
 2788POPC   D2A37180  39.980  14.374   8.264
 2788POPC   C3A37181  39.997  14.382   7.964
 2788POPC   C4A37182  40.026  14.427   7.664
 2788POPC   C1B37183  40.185  14.512   8.564
 2788POPC   C2B37184  40.250  14.567   8.264
 2788POPC   C3B37185  40.174  14.525   7.964
 2788POPC   C4B37186  40.249  14.533   7.664
 2789POPC   NC337187  41.589  12.853   9.464
 2789POPC   PO437188  41.540  12.873   9.164
 2789POPC   GL137189  41.533  12.867   8.864
 2789POPC   GL237190  41.489  12.694   8.864
 2789POPC   C1A37191  41.568  12.851   8.564
 2789POPC   D2A37192  41.522  12.899   8.264
 2789POPC   C3A37193  41.520  12.881   7.964
 2789POPC   C4A37194  41.586  12.841   7.664
 2789POPC   C1B37195  41.490  12.563   8.564
 2789POPC   C2B37196  41.537  12.585   8.264
 2789POPC   C3B37197  41.479  12.638   7.964
 2789POPC   C4B37198  41.499  12.634   7.664
 2790POPC   NC337199  30.686  14.436   9.464
 2790POPC   PO437200  30.716  14.365   9.164
 2790POPC   GL137201  30.686  14.437   8.864
 2790POPC   GL237202  30.595  14.504   8.864
 2790POPC   C1A37203  30.684  14.440   8.564
 2790POPC   D2A37204  30.705  14.447   8.264
 2790POPC   C3A37205  30.704  14.407   7.964
 2790POPC   C4A37206  30.741  14.406   7.664
 2790POPC   C1B37207  30.477  14.493   8.564
 2790POPC   C2B37208  30.471  14.541   8.264
 2790POPC   C3B37209  30.470  14.555   7.964
 2790POPC   C4B37210  30.481  14.515   7.664
 2791POPC   NC337211  34.571  10.479   9.464
 2791POPC   PO437212  34.561  10.520   9.164
 2791POPC   GL137213  34.530  10.492   8.864
 2791POPC   GL237214  34.685  10.629   8.864
 2791POPC   C1A37215  34.601  10.553   8.564
 2791POPC   D2A37216  34.540  10.508   8.264
 2791POPC   C3A37217  34.597  10.563   7.964
 2791POPC   C4A37218  34.615  10.549   7.664
 2791POPC   C1B37219  34.758  10.728   8.564
 2791POPC   C2B37220  34.793  10.634   8.264
 2791POPC   C3B37221  34.804  10.657   7.964
 2791POPC   C4B37222  34.742  10.651   7.664
 2792POPC   NC337223  30.682  18.290   9.464
 2792POPC   PO437224  30.735  18.317   9.164
 2792POPC   GL137225  30.745  18.260   8.864
 2792POPC   GL237226  30.583  18.278   8.864
 2792POPC   C1A37227  30.702  18.326   8.564
 2792POPC   D2A37228  30.718  18.317   8.264
 2792POPC   C3A37229  30.654  18.331   7.964
 2792POPC   C4A37230  30.740  18.322   7.664
 2792POPC   C1B37231  30.446  18.190   8.564
 2792POPC   C2B37232  30.437  18.230   8.264
 2792POPC   C3B37233  30.503  18.173   7.964
 2792POPC   C4B37234  30.489  18.182   7.664
 2793POPC   NC337235  28.352  40.786   9.464
 2793POPC   PO437236  28.362  40.815   9.164
 2793POPC   GL137237  28.407  40.751   8.864
 2793POPC   GL237238  28.274  40.816   8.864
 2793POPC   C1A37239  28.346  40.825   8.564
 2793POPC   D2A37240  28.387  40.797   8.264
 2793POPC   C3A37241  28.329  40.743   7.964
 2793POPC   C4A37242  28.399  40.802   7.664
 2793POPC   C1B37243  28.187  40.869   8.564
 2793POPC   C2B37244  28.170  40.862   8.264
 2793POPC   C3B37245  28.101  40.904   7.964
 2793POPC   C4B37246  28.141  40.876   7.664
 2794POPC   NC337247   3.578  34.580   9.464
 2794POPC   PO437248   3.540  34.545   9.164
 2794POPC   GL137249   3.531  34.530   8.864
 2794POPC   GL237250   3.378  34.557   8.864
 2794POPC   C1A37251   3.526  34.549   8.564
 2794POPC   D2A37252   3.540  34.534   8.264
 2794POPC   C3A37253   3.584  34.607   7.964
 2794POPC   C4A37254   3.571  34.576   7.664
 2794POPC   C1B37255   3.294  34.475   8.564
 2794POPC   C2B37256   3.275  34.517   8.264
 2794POPC   C3B37257   3.338  34.512   7.964
 2794POPC   C4B37258   3.277  34.565   7.664
 2795POPC   NC337259  37.643  10.555   9.464
 2795POPC   PO437260  37.708  10.510   9.164
 2795POPC   GL137261  37.668  10.543   8.864
 2795POPC   GL237262  37.702  10.408   8.864
 2795POPC   C1A37263  37.729  10.537   8.564
 2795POPC   D2A37264  37.668  10.542   8.264
 2795POPC   C3A37265  37.725  10.517   7.964
 2795POPC   C4A37266  37.668  10.513   7.664
 2795POPC   C1B37267  37.689  10.238   8.564
 2795POPC   C2B37268  37.721  10.299   8.264
 2795POPC   C3B37269  37.724  10.277   7.964
 2795POPC   C4B37270  37.672  10.242   7.664
 2796POPC   NC337271  29.878   2.763   9.464
 2796POPC   PO437272  29.952   2.780   9.164
 2796POPC   GL137273  29.886   2.795   8.864
 2796POPC   GL237274  29.993   2.816   8.864
 2796POPC   C1A37275  29.969   2.724   8.564
 2796POPC   D2A37276  29.873   2.722   8.264
 2796POPC   C3A37277  29.950   2.798   7.964
 2796POPC   C4A37278  29.878   2.723   7.664
 2796POPC   C1B37279  30.169   2.907   8.564
 2796POPC   C2B37280  30.104   2.896   8.264
 2796POPC   C3B37281  30.125   2.918   7.964
 2796POPC   C4B37282  30.181   2.847   7.664
 2797POPC   NC337283  26.019  22.148   9.464
 2797POPC   PO437284  26.020  22.156   9.164
 2797POPC   GL137285  26.019  22.137   8.864
 2797POPC   GL237286  26.105  22.050   8.864
 2797POPC   C1A37287  26.018  22.165   8.564
 2797POPC   D2A37288  26.055  22.141   8.264
 2797POPC   C3A37289  26.012  22.159   7.964
 2797POPC   C4A37290  26.015  22.180   7.664
 2797POPC   C1B37291  26.148  21.945   8.564
 2797POPC   C2B37292  26.116  21.907   8.264
 2797POPC   C3B37293  26.140  21.926   7.964
 2797POPC   C4B37294  26.176  21.941   7.664
 2798POPC   NC337295  19.051  14.392   9.464
 2798POPC   PO437296  19.090  14.398   9.164
 2798POPC   GL137297  19.082  14.413   8.864
 2798POPC   GL237298  19.202  14.497   8.864
 2798POPC   C1A37299  19.021  14.372   8.564
 2798POPC   D2A37300  19.050  14.400   8.264
 2798POPC   C3A37301  19.094  14.389   7.964
 2798POPC   C4A37302  19.068  14.364   7.664
 2798POPC   C1B37303  19.270  14.587   8.564
 2798POPC   C2B37304  19.253  14.568   8.264
 2798POPC   C3B37305  19.200  14.540   7.964
 2798POPC   C4B37306  19.202  14.558   7.664
 2799POPC   NC337307   5.050  29.946   9.464
 2799POPC   PO437308   5.133  29.957   9.164
 2799POPC   GL137309   5.049  29.929   8.864
 2799POPC   GL237310   4.969  29.930   8.864
 2799POPC   C1A37311   5.136  29.952   8.564
 2799POPC   D2A37312   5.131  29.938   8.264
 2799POPC   C3A37313   5.066  29.969   7.964
 2799POPC   C4A37314   5.106  29.927   7.664
 2799POPC   C1B37315   4.845  29.949   8.564
 2799POPC   C2B37316   4.854  29.936   8.264
 2799POPC   C3B37317   4.810  29.900   7.964
 2799POPC   C4B37318   4.863  29.942   7.664
 2800POPC   NC337319  26.043  36.102   9.464
 2800POPC   PO437320  26.089  36.122   9.164
 2800POPC   GL137321  25.999  36.106   8.864
 2800POPC   GL237322  25.968  36.161   8.864
 2800POPC   C1A37323  26.071  36.150   8.564
 2800POPC   D2A37324  26.028  36.151   8.264
 2800POPC   C3A37325  26.012  36.126   7.964
 2800POPC   C4A37326  26.073  36.110   7.664
 2800POPC   C1B37327  25.784  36.215   8.564
 2800POPC   C2B37328  25.803  36.211   8.264
 2800POPC   C3B37329  25.794  36.252   7.964
 2800POPC   C4B37330  25.771  36.232   7.664
 2801POPC   NC337331  19.883   3.583   9.464
 2801POPC   PO437332  19.864   3.523   9.164
 2801POPC   GL137333  19.864   3.582   8.864
 2801POPC   GL237334  19.860   3.620   8.864
 2801POPC   C1A37335  19.785   3.537   8.564
 2801POPC   D2A37336  19.864   3.492   8.264
 2801POPC   C3A37337  19.808   3.507   7.964
 2801POPC   C4A37338  19.839   3.498   7.664
 2801POPC   C1B37339  19.787   3.743   8.564
 2801POPC   C2B37340  19.802   3.753   8.264
 2801POPC   C3B37341  19.747   3.739   7.964
 2801POPC   C4B37342  19.809   3.798   7.664
 2802POPC   NC337343   4.340  42.321   9.464
 2802POPC   PO437344   4.322  42.384   9.164
 2802POPC   GL137345   4.278  42.372   8.864
 2802POPC   GL237346   4.230  42.415   8.864
 2802POPC   C1A37347   4.327  42.334   8.564
 2802POPC   D2A37348   4.289  42.375   8.264
 2802POPC   C3A37349   4.328  42.353   7.964
 2802POPC   C4A37350   4.317  42.348   7.664
 2802POPC   C1B37351   4.198  42.542   8.564
 2802POPC   C2B37352   4.242  42.615   8.264
 2802POPC   C3B37353   4.245  42.609   7.964
 2802POPC   C4B37354   4.190  42.578   7.664
 2803POPC   NC337355  15.943  16.682   9.464
 2803POPC   PO437356  15.976  16.694   9.164
 2803POPC   GL137357  15.941  16.769   8.864
 2803POPC   GL237358  16.113  16.790   8.864
 2803POPC   C1A37359  15.935  16.686   8.564
 2803POPC   D2A37360  15.960  16.727   8.264
 2803POPC   C3A37361  15.921  16.699   7.964
 2803POPC   C4A37362  15.923  16.779   7.664
 2803POPC   C1B37363  16.182  16.820   8.564
 2803POPC   C2B37364  16.157  16.760   8.264
 2803POPC   C3B37365  16.217  16.828   7.964
 2803POPC   C4B37366  16.200  16.781   7.664
 2804POPC   NC337367  37.667  26.071   9.464
 2804POPC   PO437368  37.721  26.029   9.164
 2804POPC   GL137369  37.703  26.044   8.864
 2804POPC   GL237370  37.832  26.031   8.864
 2804POPC   C1A37371  37.668  26.042   8.564
 2804POPC   D2A37372  37.668  26.076   8.264
 2804POPC   C3A37373  37.675  26.075   7.964
 2804POPC   C4A37374  37.658  26.037   7.664
 2804POPC   C1B37375  37.901  26.088   8.564
 2804POPC   C2B37376  37.884  26.067   8.264
 2804POPC   C3B37377  37.965  26.105   7.964
 2804POPC   C4B37378  37.936  26.044   7.664
 2805POPC   NC337379   7.461  16.722   9.464
 2805POPC   PO437380   7.458  16.699   9.164
 2805POPC   GL137381   7.394  16.683   8.864
 2805POPC   GL237382   7.331  16.855   8.864
 2805POPC   C1A37383   7.461  16.752   8.564
 2805POPC   D2A37384   7.394  16.706   8.264
 2805POPC   C3A37385   7.466  16.705   7.964
 2805POPC   C4A37386   7.382  16.765   7.664
 2805POPC   C1B37387   7.235  16.880   8.564
 2805POPC   C2B37388   7.205  16.915   8.264
 2805POPC   C3B37389   7.198  16.856   7.964
 2805POPC   C4B37390   7.196  16.887   7.664
 2806POPC   NC337391   1.234   3.586   9.464
 2806POPC   PO437392   1.244   3.543   9.164
 2806POPC   GL137393   1.240   3.553   8.864
 2806POPC   GL237394   1.126   3.536   8.864
 2806POPC   C1A37395   1.170   3.516   8.564
 2806POPC   D2A37396   1.203   3.574   8.264
 2806POPC   C3A37397   1.260   3.493   7.964
 2806POPC   C4A37398   1.246   3.525   7.664
 2806POPC   C1B37399   0.975   3.495   8.564
 2806POPC   C2B37400   1.015   3.519   8.264
 2806POPC   C3B37401   0.966   3.505   7.964
 2806POPC   C4B37402   0.954   3.542   7.664
 2807POPC   NC337403  33.847  21.367   9.464
 2807POPC   PO437404  33.777  21.340   9.164
 2807POPC   GL137405  33.815  21.381   8.864
 2807POPC   GL237406  33.963  21.390   8.864
 2807POPC   C1A37407  33.823  21.384   8.564
 2807POPC   D2A37408  33.780  21.352   8.264
 2807POPC   C3A37409  33.802  21.422   7.964
 2807POPC   C4A37410  33.828  21.396   7.664
 2807POPC   C1B37411  34.036  21.332   8.564
 2807POPC   C2B37412  34.068  21.313   8.264
 2807POPC   C3B37413  34.084  21.351   7.964
 2807POPC   C4B37414  34.014  21.276   7.664
 2808POPC   NC337415  21.412  43.089   9.464
 2808POPC   PO437416  21.355  43.116   9.164
 2808POPC   GL137417  21.404  43.130   8.864
 2808POPC   GL237418  21.390  42.938   8.864
 2808POPC   C1A37419  21.426  43.089   8.564
 2808POPC   D2A37420  21.404  43.117   8.264
 2808POPC   C3A37421  21.412  43.087   7.964
 2808POPC   C4A37422  21.385  43.123   7.664
 2808POPC   C1B37423  21.385  42.832   8.564
 2808POPC   C2B37424  21.328  42.851   8.264
 2808POPC   C3B37425  21.393  42.841   7.964
 2808POPC   C4B37426  21.318  42.813   7.664
 2809POPC   NC337427  33.003  15.914   9.464
 2809POPC   PO437428  33.017  15.959   9.164
 2809POPC   GL137429  33.069  15.964   8.864
 2809POPC   GL237430  32.995  15.843   8.864
 2809POPC   C1A37431  33.063  15.960   8.564
 2809POPC   D2A37432  32.989  15.948   8.264
 2809POPC   C3A37433  32.995  15.929   7.964
 2809POPC   C4A37434  33.025  15.927   7.664
 2809POPC   C1B37435  32.976  15.725   8.564
 2809POPC   C2B37436  33.012  15.661   8.264
 2809POPC   C3B37437  32.964  15.750   7.964
 2809POPC   C4B37438  33.024  15.739   7.664
 2810POPC   NC337439   0.410   1.973   9.464
 2810POPC   PO437440   0.407   1.984   9.164
 2810POPC   GL137441   0.425   1.971   8.864
 2810POPC   GL237442   0.396   2.110   8.864
 2810POPC   C1A37443   0.459   1.989   8.564
 2810POPC   D2A37444   0.465   2.008   8.264
 2810POPC   C3A37445   0.436   1.942   7.964
 2810POPC   C4A37446   0.402   2.004   7.664
 2810POPC   C1B37447   0.360   2.159   8.564
 2810POPC   C2B37448   0.270   2.179   8.264
 2810POPC   C3B37449   0.290   2.203   7.964
 2810POPC   C4B37450   0.299   2.244   7.664
 2811POPC   NC337451  17.511   2.716   9.464
 2811POPC   PO437452  17.509   2.794   9.164
 2811POPC   GL137453  17.536   2.746   8.864
 2811POPC   GL237454  17.400   2.849   8.864
 2811POPC   C1A37455  17.493   2.719   8.564
 2811POPC   D2A37456  17.553   2.779   8.264
 2811POPC   C3A37457  17.541   2.800   7.964
 2811POPC   C4A37458  17.512   2.801   7.664
 2811POPC   C1B37459  17.399   2.954   8.564
 2811POPC   C2B37460  17.314   2.984   8.264
 2811POPC   C3B37461  17.301   2.984   7.964
 2811POPC   C4B37462  17.378   2.954   7.664
 2812POPC   NC337463  29.143  25.289   9.464
 2812POPC   PO437464  29.118  25.265   9.164
 2812POPC   GL137465  29.138  25.243   8.864
 2812POPC   GL237466  29.246  25.215   8.864
 2812POPC   C1A37467  29.159  25.290   8.564
 2812POPC   D2A37468  29.149  25.225   8.264
 2812POPC   C3A37469  29.124  25.303   7.964
 2812POPC   C4A37470  29.172  25.281   7.664
 2812POPC   C1B37471  29.366  25.170   8.564
 2812POPC   C2B37472  29.390  25.089   8.264
 2812POPC   C3B37473  29.333  25.131   7.964
 2812POPC   C4B37474  29.373  25.134   7.664
 2813POPC   NC337475  27.612  12.073   9.464
 2813POPC   PO437476  27.564  12.102   9.164
 2813POPC   GL137477  27.557  12.094   8.864
 2813POPC   GL237478  27.555  12.190   8.864
 2813POPC   C1A37479  27.634  12.058   8.564
 2813POPC   D2A37480  27.563  12.050   8.264
 2813POPC   C3A37481  27.628  12.033   7.964
 2813POPC   C4A37482  27.619  12.064   7.664
 2813POPC   C1B37483  27.382  12.255   8.564
 2813POPC   C2B37484  27.409  12.218   8.264
 2813POPC   C3B37485  27.443  12.248   7.964
 2813POPC   C4B37486  27.438  12.263   7.664
 2814POPC   NC337487  39.203  14.358   9.464
 2814POPC   PO437488  39.213  14.377   9.164
 2814POPC   GL137489  39.183  14.424   8.864
 2814POPC   GL237490  39.357  14.482   8.864
 2814POPC   C1A37491  39.195  14.430   8.564
 2814POPC   D2A37492  39.260  14.423   8.264
 2814POPC   C3A37493  39.203  14.425   7.964
 2814POPC   C4A37494  39.216  14.361   7.664
 2814POPC   C1B37495  39.439  14.459   8.564
 2814POPC   C2B37496  39.478  14.502   8.264
 2814POPC   C3B37497  39.459  14.460   7.964
 2814POPC   C4B37498  39.510  14.456   7.664
 2815POPC   NC337499  21.394   0.409   9.464
 2815POPC   PO437500  21.412   0.398   9.164
 2815POPC   GL137501  21.433   0.421   8.864
 2815POPC   GL237502  21.213   0.431   8.864
 2815POPC   C1A37503  21.360   0.475   8.564
 2815POPC   D2A37504  21.344   0.480   8.264
 2815POPC   C3A37505  21.384   0.396   7.964
 2815POPC   C4A37506  21.429   0.449   7.664
 2815POPC   C1B37507  21.135   0.429   8.564
 2815POPC   C2B37508  21.098   0.478   8.264
 2815POPC   C3B37509  21.131   0.478   7.964
 2815POPC   C4B37510  21.172   0.440   7.664
 2816POPC   NC337511  14.356  43.893   9.464
 2816POPC   PO437512  14.408  43.935   9.164
 2816POPC   GL137513  14.404  43.873   8.864
 2816POPC   GL237514  14.500  44.028   8.864
 2816POPC   C1A37515  14.363  43.846   8.564
 2816POPC   D2A37516  14.392  43.930   8.264
 2816POPC   C3A37517  14.374  43.912   7.964
 2816POPC   C4A37518  14.372  43.887   7.664
 2816POPC   C1B37519  14.567  44.089   8.564
 2816POPC   C2B37520  14.474  44.114   8.264
 2816POPC   C3B37521  14.521  44.089   7.964
 2816POPC   C4B37522  14.535  44.147   7.664
 2817POPC   NC337523  38.490  42.326   9.464
 2817POPC   PO437524  38.421  42.366   9.164
 2817POPC   GL137525  38.418  42.358   8.864
 2817POPC   GL237526  38.385  42.300   8.864
 2817POPC   C1A37527  38.435  42.326   8.564
 2817POPC   D2A37528  38.486  42.341   8.264
 2817POPC   C3A37529  38.430  42.338   7.964
 2817POPC   C4A37530  38.494  42.293   7.664
 2817POPC   C1B37531  38.255  42.292   8.564
 2817POPC   C2B37532  38.174  42.214   8.264
 2817POPC   C3B37533  38.248  42.260   7.964
 2817POPC   C4B37534  38.232  42.210   7.664
 2818POPC   NC337535  28.369  26.830   9.464
 2818POPC   PO437536  28.395  26.853   9.164
 2818POPC   GL137537  28.373  26.862   8.864
 2818POPC   GL237538  28.202  26.801   8.864
 2818POPC   C1A37539  28.353  26.820   8.564
 2818POPC   D2A37540  28.371  26.823   8.264
 2818POPC   C3A37541  28.351  26.788   7.964
 2818POPC   C4A37542  28.391  26.794   7.664
 2818POPC   C1B37543  28.111  26.814   8.564
 2818POPC   C2B37544  28.124  26.802   8.264
 2818POPC   C3B37545  28.075  26.746   7.964
 2818POPC   C4B37546  28.129  26.768   7.664
 2819POPC   NC337547  43.868  44.687   9.464
 2819POPC   PO437548  43.885  44.633   9.164
 2819POPC   GL137549  43.914  44.637   8.864
 2819POPC   GL237550  43.896  44.561   8.864
 2819POPC   C1A37551  43.880  44.705   8.564
 2819POPC   D2A37552  43.849  44.621   8.264
 2819POPC   C3A37553  43.846  44.668   7.964
 2819POPC   C4A37554  43.928  44.706   7.664
 2819POPC   C1B37555  43.961  44.382   8.564
 2819POPC   C2B37556  43.954  44.443   8.264
 2819POPC   C3B37557  43.994  44.470   7.964
 2819POPC   C4B37558  43.961  44.436   7.664
 2820POPC   NC337559  42.297  31.463   9.464
 2820POPC   PO437560  42.301  31.456   9.164
 2820POPC   GL137561  42.313  31.482   8.864
 2820POPC   GL237562  42.225  31.560   8.864
 2820POPC   C1A37563  42.336  31.426   8.564
 2820POPC   D2A37564  42.360  31.475   8.264
 2820POPC   C3A37565  42.314  31.488   7.964
 2820POPC   C4A37566  42.286  31.507   7.664
 2820POPC   C1B37567  42.171  31.682   8.564
 2820POPC   C2B37568  42.176  31.672   8.264
 2820POPC   C3B37569  42.180  31.662   7.964
 2820POPC   C4B37570  42.229  31.696   7.664
 2821POPC   NC337571  20.565  26.779   9.464
 2821POPC   PO437572  20.656  26.792   9.164
 2821POPC   GL137573  20.572  26.775   8.864
 2821POPC   GL237574  20.682  26.667   8.864
 2821POPC   C1A37575  20.611  26.843   8.564
 2821POPC   D2A37576  20.611  26.831   8.264
 2821POPC   C3A37577  20.611  26.849   7.964
 2821POPC   C4A37578  20.583  26.837   7.664
 2821POPC   C1B37579  20.715  26.574   8.564
 2821POPC   C2B37580  20.745  26.612   8.264
 2821POPC   C3B37581  20.713  26.588   7.964
 2821POPC   C4B37582  20.762  26.653   7.664
 2822POPC   NC337583  36.863  11.259   9.464
 2822POPC   PO437584  36.948  11.281   9.164
 2822POPC   GL137585  36.950  11.305   8.864
 2822POPC   GL237586  37.060  11.356   8.864
 2822POPC   C1A37587  36.861  11.329   8.564
 2822POPC   D2A37588  36.922  11.261   8.264
 2822POPC   C3A37589  36.862  11.320   7.964
 2822POPC   C4A37590  36.949  11.292   7.664
 2822POPC   C1B37591  37.178  11.337   8.564
 2822POPC   C2B37592  37.167  11.315   8.264
 2822POPC   C3B37593  37.121  11.349   7.964
 2822POPC   C4B37594  37.148  11.324   7.664
 2823POPC   NC337595  38.436  44.680   9.464
 2823POPC   PO437596  38.454  44.686   9.164
 2823POPC   GL137597  38.428  44.636   8.864
 2823POPC   GL237598  38.502  44.571   8.864
 2823POPC   C1A37599  38.452  44.677   8.564
 2823POPC   D2A37600  38.503  44.688   8.264
 2823POPC   C3A37601  38.486  44.703   7.964
 2823POPC   C4A37602  38.481  44.673   7.664
 2823POPC   C1B37603  38.588  44.495   8.564
 2823POPC   C2B37604  38.570  44.418   8.264
 2823POPC   C3B37605  38.653  44.459   7.964
 2823POPC   C4B37606  38.595  44.498   7.664
 2824POPC   NC337607  40.014  23.721   9.464
 2824POPC   PO437608  40.003  23.758   9.164
 2824POPC   GL137609  40.007  23.699   8.864
 2824POPC   GL237610  40.053  23.789   8.864
 2824POPC   C1A37611  40.054  23.738   8.564
 2824POPC   D2A37612  40.048  23.734   8.264
 2824POPC   C3A37613  39.963  23.738   7.964
 2824POPC   C4A37614  39.965  23.692   7.664
 2824POPC   C1B37615  40.032  23.935   8.564
 2824POPC   C2B37616  40.079  23.985   8.264
 2824POPC   C3B37617  40.017  23.985   7.964
 2824POPC   C4B37618  40.027  23.940   7.664
 2825POPC   NC337619  13.585   9.703   9.464
 2825POPC   PO437620  13.592   9.787   9.164
 2825POPC   GL137621  13.601   9.760   8.864
 2825POPC   GL237622  13.715   9.694   8.864
 2825POPC   C1A37623  13.580   9.749   8.564
 2825POPC   D2A37624  13.597   9.767   8.264
 2825POPC   C3A37625  13.667   9.721   7.964
 2825POPC   C4A37626  13.662   9.772   7.664
 2825POPC   C1B37627  13.912   9.677   8.564
 2825POPC   C2B37628  13.894   9.715   8.264
 2825POPC   C3B37629  13.834   9.698   7.964
 2825POPC   C4B37630  13.822   9.718   7.664
 2826POPC   NC337631   0.445   5.096   9.464
 2826POPC   PO437632   0.474   5.106   9.164
 2826POPC   GL137633   0.388   5.045   8.864
 2826POPC   GL237634   0.534   5.168   8.864
 2826POPC   C1A37635   0.406   5.100   8.564
 2826POPC   D2A37636   0.464   5.116   8.264
 2826POPC   C3A37637   0.431   5.067   7.964
 2826POPC   C4A37638   0.442   5.048   7.664
 2826POPC   C1B37639   0.602   5.278   8.564
 2826POPC   C2B37640   0.636   5.290   8.264
 2826POPC   C3B37641   0.640   5.236   7.964
 2826POPC   C4B37642   0.610   5.291   7.664
 2827POPC   NC337643   5.045  22.964   9.464
 2827POPC   PO437644   5.133  22.966   9.164
 2827POPC   GL137645   5.129  22.902   8.864
 2827POPC   GL237646   5.118  22.852   8.864
 2827POPC   C1A37647   5.112  22.945   8.564
 2827POPC   D2A37648   5.129  22.915   8.264
 2827POPC   C3A37649   5.071  22.969   7.964
 2827POPC   C4A37650   5.076  22.893   7.664
 2827POPC   C1B37651   5.209  22.750   8.564
 2827POPC   C2B37652   5.167  22.742   8.264
 2827POPC   C3B37653   5.157  22.695   7.964
 2827POPC   C4B37654   5.137  22.698   7.664
 2828POPC   NC337655  21.402  41.536   9.464
 2828POPC   PO437656  21.414  41.590   9.164
 2828POPC   GL137657  21.380  41.589   8.864
 2828POPC   GL237658  21.470  41.482   8.864
 2828POPC   C1A37659  21.389  41.586   8.564
 2828POPC   D2A37660  21.433  41.566   8.264
 2828POPC   C3A37661  21.360  41.581   7.964
 2828POPC   C4A37662  21.428  41.608   7.664
 2828POPC   C1B37663  21.451  41.303   8.564
 2828POPC   C2B37664  21.510  41.308   8.264
 2828POPC   C3B37665  21.523  41.315   7.964
 2828POPC   C4B37666  21.455  41.341   7.664
 2829POPC   NC337667  16.696  39.198   9.464
 2829POPC   PO437668  16.724  39.266   9.164
 2829POPC   GL137669  16.762  39.194   8.864
 2829POPC   GL237670  16.831  39.203   8.864
 2829POPC   C1A37671  16.769  39.237   8.564
 2829POPC   D2A37672  16.684  39.233   8.264
 2829POPC   C3A37673  16.751  39.248   7.964
 2829POPC   C4A37674  16.759  39.228   7.664
 2829POPC   C1B37675  16.941  39.298   8.564
 2829POPC   C2B37676  16.955  39.227   8.264
 2829POPC   C3B37677  17.008  39.281   7.964
 2829POPC   C4B37678  16.995  39.313   7.664
 2830POPC   NC337679  13.630  26.080   9.464
 2830POPC   PO437680  13.654  26.019   9.164
 2830POPC   GL137681  13.623  26.010   8.864
 2830POPC   GL237682  13.712  25.924   8.864
 2830POPC   C1A37683  13.675  26.044   8.564
 2830POPC   D2A37684  13.598  26.071   8.264
 2830POPC   C3A37685  13.617  26.013   7.964
 2830POPC   C4A37686  13.648  25.998   7.664
 2830POPC   C1B37687  13.828  25.794   8.564
 2830POPC   C2B37688  13.736  25.829   8.264
 2830POPC   C3B37689  13.816  25.822   7.964
 2830POPC   C4B37690  13.824  25.816   7.664
 2831POPC   NC337691  27.591  15.134   9.464
 2831POPC   PO437692  27.570  15.192   9.164
 2831POPC   GL137693  27.603  15.218   8.864
 2831POPC   GL237694  27.741  15.149   8.864
 2831POPC   C1A37695  27.582  15.148   8.564
 2831POPC   D2A37696  27.584  15.220   8.264
 2831POPC   C3A37697  27.577  15.193   7.964
 2831POPC   C4A37698  27.630  15.199   7.664
 2831POPC   C1B37699  27.783  15.071   8.564
 2831POPC   C2B37700  27.840  15.080   8.264
 2831POPC   C3B37701  27.761  15.073   7.964
 2831POPC   C4B37702  27.819  15.048   7.664
 2832POPC   NC337703  34.605  44.612   9.464
 2832POPC   PO437704  34.610  44.618   9.164
 2832POPC   GL137705  34.600  44.672   8.864
 2832POPC   GL237706  34.475  44.645   8.864
 2832POPC   C1A37707  34.540  44.701   8.564
 2832POPC   D2A37708  34.578  44.615   8.264
 2832POPC   C3A37709  34.541  44.663   7.964
 2832POPC   C4A37710  34.577  44.645   7.664
 2832POPC   C1B37711  34.380  44.727   8.564
 2832POPC   C2B37712  34.380  44.756   8.264
 2832POPC   C3B37713  34.348  44.711   7.964
 2832POPC   C4B37714  34.311  44.743   7.664
 2833POPC   NC337715   2.014  19.795   9.464
 2833POPC   PO437716   1.996  19.807   9.164
 2833POPC   GL137717   1.945  19.828   8.864
 2833POPC   GL237718   2.064  19.895   8.864
 2833POPC   C1A37719   1.968  19.812   8.564
 2833POPC   D2A37720   2.027  19.850   8.264
 2833POPC   C3A37721   1.996  19.805   7.964
 2833POPC   C4A37722   1.977  19.800   7.664
 2833POPC   C1B37723   2.129  20.034   8.564
 2833POPC   C2B37724   2.090  20.037   8.264
 2833POPC   C3B37725   2.089  20.063   7.964
 2833POPC   C4B37726   2.164  20.084   7.664
 2834POPC   NC337727   6.681  15.132   9.464
 2834POPC   PO437728   6.664  15.201   9.164
 2834POPC   GL137729   6.694  15.141   8.864
 2834POPC   GL237730   6.686  15.078   8.864
 2834POPC   C1A37731   6.660  15.222   8.564
 2834POPC   D2A37732   6.607  15.134   8.264
 2834POPC   C3A37733   6.605  15.162   7.964
 2834POPC   C4A37734   6.603  15.139   7.664
 2834POPC   C1B37735   6.751  14.935   8.564
 2834POPC   C2B37736   6.683  14.983   8.264
 2834POPC   C3B37737   6.773  14.898   7.964
 2834POPC   C4B37738   6.760  14.989   7.664
 2835POPC   NC337739  29.906  41.598   9.464
 2835POPC   PO437740  29.873  41.534   9.164
 2835POPC   GL137741  29.905  41.528   8.864
 2835POPC   GL237742  29.776  41.543   8.864
 2835POPC   C1A37743  29.894  41.571   8.564
 2835POPC   D2A37744  29.887  41.517   8.264
 2835POPC   C3A37745  29.942  41.560   7.964
 2835POPC   C4A37746  29.932  41.554   7.664
 2835POPC   C1B37747  29.647  41.549   8.564
 2835POPC   C2B37748  29.723  41.532   8.264
 2835POPC   C3B37749  29.666  41.502   7.964
 2835POPC   C4B37750  29.693  41.530   7.664
 2836POPC   NC337751   3.530   1.209   9.464
 2836POPC   PO437752   3.588   1.195   9.164
 2836POPC   GL137753   3.550   1.191   8.864
 2836POPC   GL237754   3.446   1.311   8.864
 2836POPC   C1A37755   3.538   1.233   8.564
 2836POPC   D2A37756   3.562   1.171   8.264
 2836POPC   C3A37757   3.566   1.197   7.964
 2836POPC   C4A37758   3.529   1.258   7.664
 2836POPC   C1B37759   3.346   1.450   8.564
 2836POPC   C2B37760   3.403   1.451   8.264
 2836POPC   C3B37761   3.414   1.463   7.964
 2836POPC   C4B37762   3.395   1.399   7.664
 2837POPC   NC337763   7.468   9.719   9.464
 2837POPC   PO437764   7.468   9.739   9.164
 2837POPC   GL137765   7.395   9.751   8.864
 2837POPC   GL237766   7.509   9.666   8.864
 2837POPC   C1A37767   7.433   9.774   8.564
 2837POPC   D2A37768   7.402   9.783   8.264
 2837POPC   C3A37769   7.373   9.796   7.964
 2837POPC   C4A37770   7.409   9.703   7.664
 2837POPC   C1B37771   7.620   9.670   8.564
 2837POPC   C2B37772   7.610   9.665   8.264
 2837POPC   C3B37773   7.701   9.691   7.964
 2837POPC   C4B37774   7.673   9.696   7.664
 2838POPC   NC337775  22.118   4.357   9.464
 2838POPC   PO437776  22.196   4.328   9.164
 2838POPC   GL137777  22.206   4.269   8.864
 2838POPC   GL237778  22.037   4.282   8.864
 2838POPC   C1A37779  22.203   4.279   8.564
 2838POPC   D2A37780  22.178   4.270   8.264
 2838POPC   C3A37781  22.120   4.289   7.964
 2838POPC   C4A37782  22.114   4.287   7.664
 2838POPC   C1B37783  21.929   4.161   8.564
 2838POPC   C2B37784  21.932   4.122   8.264
 2838POPC   C3B37785  21.973   4.117   7.964
 2838POPC   C4B37786  21.942   4.171   7.664
 2839POPC   NC337787  14.355   1.233   9.464
 2839POPC   PO437788  14.431   1.202   9.164
 2839POPC   GL137789  14.451   1.248   8.864
 2839POPC   GL237790  14.486   1.193   8.864
 2839POPC   C1A37791  14.404   1.260   8.564
 2839POPC   D2A37792  14.386   1.227   8.264
 2839POPC   C3A37793  14.411   1.252   7.964
 2839POPC   C4A37794  14.440   1.224   7.664
 2839POPC   C1B37795  14.596   1.061   8.564
 2839POPC   C2B37796  14.584   1.073   8.264
 2839POPC   C3B37797  14.641   1.109   7.964
 2839POPC   C4B37798  14.594   1.136   7.664
 2840POPC   NC337799   5.094   5.886   9.464
 2840POPC   PO437800   5.112   5.910   9.164
 2840POPC   GL137801   5.111   5.886   8.864
 2840POPC   GL237802   4.997   5.908   8.864
 2840POPC   C1A37803   5.103   5.917   8.564
 2840POPC   D2A37804   5.095   5.903   8.264
 2840POPC   C3A37805   5.054   5.894   7.964
 2840POPC   C4A37806   5.114   5.898   7.664
 2840POPC   C1B37807   4.924   5.993   8.564
 2840POPC   C2B37808   4.883   6.063   8.264
 2840POPC   C3B37809   4.899   6.006   7.964
 2840POPC   C4B37810   4.869   5.982   7.664
 2841POPC   NC337811  40.032  12.058   9.464
 2841POPC   PO437812  40.052  12.099   9.164
 2841POPC   GL137813  39.971  12.115   8.864
 2841POPC   GL237814  39.965  12.119   8.864
 2841POPC   C1A37815  40.004  12.098   8.564
 2841POPC   D2A37816  39.961  12.044   8.264
 2841POPC   C3A37817  39.986  12.098   7.964
 2841POPC   C4A37818  40.027  12.051   7.664
 2841POPC   C1B37819  39.797  12.218   8.564
 2841POPC   C2B37820  39.807  12.265   8.264
 2841POPC   C3B37821  39.824  12.216   7.964
 2841POPC   C4B37822  39.823  12.237   7.664
 2842POPC   NC337823  27.593  21.409   9.464
 2842POPC   PO437824  27.557  21.436   9.164
 2842POPC   GL137825  27.642  21.413   8.864
 2842POPC   GL237826  27.707  21.402   8.864
 2842POPC   C1A37827  27.642  21.360   8.564
 2842POPC   D2A37828  27.572  21.336   8.264
 2842POPC   C3A37829  27.643  21.405   7.964
 2842POPC   C4A37830  27.622  21.425   7.664
 2842POPC   C1B37831  27.831  21.437   8.564
 2842POPC   C2B37832  27.791  21.515   8.264
 2842POPC   C3B37833  27.861  21.517   7.964
 2842POPC   C4B37834  27.806  21.485   7.664
 2843POPC   NC337835   5.905  42.300   9.464
 2843POPC   PO437836   5.834  42.323   9.164
 2843POPC   GL137837   5.875  42.355   8.864
 2843POPC   GL237838   5.900  42.220   8.864
 2843POPC   C1A37839   5.893  42.373   8.564
 2843POPC   D2A37840   5.864  42.290   8.264
 2843POPC   C3A37841   5.913  42.361   7.964
 2843POPC   C4A37842   5.840  42.364   7.664
 2843POPC   C1B37843   6.012  42.161   8.564
 2843POPC   C2B37844   6.033  42.139   8.264
 2843POPC   C3B37845   5.971  42.113   7.964
 2843POPC   C4B37846   6.027  42.102   7.664
 2844POPC   NC337847   5.141  28.355   9.464
 2844POPC   PO437848   5.061  28.330   9.164
 2844POPC   GL137849   5.068  28.335   8.864
 2844POPC   GL237850   5.186  28.409   8.864
 2844POPC   C1A37851   5.076  28.368   8.564
 2844POPC   D2A37852   5.083  28.339   8.264
 2844POPC   C3A37853   5.116  28.418   7.964
 2844POPC   C4A37854   5.093  28.342   7.664
 2844POPC   C1B37855   5.326  28.542   8.564
 2844POPC   C2B37856   5.247  28.525   8.264
 2844POPC   C3B37857   5.291  28.498   7.964
 2844POPC   C4B37858   5.268  28.528   7.664
 2845POPC   NC337859  33.799  22.889   9.464
 2845POPC   PO437860  33.801  22.907   9.164
 2845POPC   GL137861  33.758  22.959   8.864
 2845POPC   GL237862  33.886  22.893   8.864
 2845POPC   C1A37863  33.763  22.905   8.564
 2845POPC   D2A37864  33.761  22.956   8.264
 2845POPC   C3A37865  33.844  22.949   7.964
 2845POPC   C4A37866  33.798  22.967   7.664
 2845POPC   C1B37867  34.030  22.841   8.564
 2845POPC   C2B37868  34.046  22.904   8.264
 2845POPC   C3B37869  34.012  22.833   7.964
 2845POPC   C4B37870  34.050  22.890   7.664
 2846POPC   NC337871   0.478  43.114   9.464
 2846POPC   PO437872   0.433  43.076   9.164
 2846POPC   GL137873   0.448  43.079   8.864
 2846POPC   GL237874   0.398  43.026   8.864
 2846POPC   C1A37875   0.438  43.087   8.564
 2846POPC   D2A37876   0.397  43.144   8.264
 2846POPC   C3A37877   0.485  43.063   7.964
 2846POPC   C4A37878   0.447  43.130   7.664
 2846POPC   C1B37879   0.436  42.817   8.564
 2846POPC   C2B37880   0.439  42.837   8.264
 2846POPC   C3B37881   0.440  42.877   7.964
 2846POPC   C4B37882   0.453  42.839   7.664
 2847POPC   NC337883  30.695  37.714   9.464
 2847POPC   PO437884  30.685  37.664   9.164
 2847POPC   GL137885  30.660  37.640   8.864
 2847POPC   GL237886  30.572  37.735   8.864
 2847POPC   C1A37887  30.720  37.636   8.564
 2847POPC   D2A37888  30.706  37.660   8.264
 2847POPC   C3A37889  30.743  37.651   7.964
 2847POPC   C4A37890  30.676  37.640   7.664
 2847POPC   C1B37891  30.442  37.673   8.564
 2847POPC   C2B37892  30.496  37.665   8.264
 2847POPC   C3B37893  30.486  37.753   7.964
 2847POPC   C4B37894  30.493  37.724   7.664
 2848POPC   NC337895  12.096   0.435   9.464
 2848POPC   PO437896  12.044   0.463   9.164
 2848POPC   GL137897  12.053   0.460   8.864
 2848POPC   GL237898  12.007   0.319   8.864
 2848POPC   C1A37899  12.063   0.441   8.564
 2848POPC   D2A37900  12.033   0.421   8.264
 2848POPC   C3A37901  12.051   0.391   7.964
 2848POPC   C4A37902  12.048   0.432   7.664
 2848POPC   C1B37903  11.898   0.283   8.564
 2848POPC   C2B37904  11.880   0.228   8.264
 2848POPC   C3B37905  11.931   0.247   7.964
 2848POPC   C4B37906  11.919   0.310   7.664
 2849POPC   NC337907  43.870   2.794   9.464
 2849POPC   PO437908  43.900   2.727   9.164
 2849POPC   GL137909  43.876   2.792   8.864
 2849POPC   GL237910  43.780   2.803   8.864
 2849POPC   C1A37911  43.862   2.806   8.564
 2849POPC   D2A37912  43.840   2.768   8.264
 2849POPC   C3A37913  43.929   2.801   7.964
 2849POPC   C4A37914  43.917   2.778   7.664
 2849POPC   C1B37915  43.688   2.949   8.564
 2849POPC   C2B37916  43.701   2.945   8.264
 2849POPC   C3B37917  43.732   2.957   7.964
 2849POPC   C4B37918  43.675   2.954   7.664
 2850POPC   NC337919   7.449  37.676   9.464
 2850POPC   PO437920   7.419  37.715   9.164
 2850POPC   GL137921   7.382  37.687   8.864
 2850POPC   GL237922   7.414  37.762   8.864
 2850POPC   C1A37923   7.466  37.663   8.564
 2850POPC   D2A37924   7.461  37.660   8.264
 2850POPC   C3A37925   7.415  37.644   7.964
 2850POPC   C4A37926   7.448  37.635   7.664
 2850POPC   C1B37927   7.433  37.881   8.564
 2850POPC   C2B37928   7.410  37.953   8.264
 2850POPC   C3B37929   7.412  37.961   7.964
 2850POPC   C4B37930   7.408  37.904   7.664
 2851POPC   NC337931  26.026  15.960   9.464
 2851POPC   PO437932  26.026  15.945   9.164
 2851POPC   GL137933  26.077  15.976   8.864
 2851POPC   GL237934  26.015  16.103   8.864
 2851POPC   C1A37935  26.041  15.941   8.564
 2851POPC   D2A37936  26.070  15.930   8.264
 2851POPC   C3A37937  26.090  15.996   7.964
 2851POPC   C4A37938  26.000  15.950   7.664
 2851POPC   C1B37939  26.071  16.170   8.564
 2851POPC   C2B37940  26.087  16.228   8.264
 2851POPC   C3B37941  26.069  16.182   7.964
 2851POPC   C4B37942  26.102  16.174   7.664
 2852POPC   NC337943  42.377  28.368   9.464
 2852POPC   PO437944  42.355  28.386   9.164
 2852POPC   GL137945  42.331  28.333   8.864
 2852POPC   GL237946  42.240  28.401   8.864
 2852POPC   C1A37947  42.326  28.367   8.564
 2852POPC   D2A37948  42.368  28.359   8.264
 2852POPC   C3A37949  42.361  28.331   7.964
 2852POPC   C4A37950  42.343  28.411   7.664
 2852POPC   C1B37951  42.055  28.466   8.564
 2852POPC   C2B37952  42.059  28.442   8.264
 2852POPC   C3B37953  42.063  28.479   7.964
 2852POPC   C4B37954  42.140  28.485   7.664
 2853POPC   NC337955  22.196  40.783   9.464
 2853POPC   PO437956  22.121  40.749   9.164
 2853POPC   GL137957  22.166  40.800   8.864
 2853POPC   GL237958  22.258  40.763   8.864
 2853POPC   C1A37959  22.132  40.756   8.564
 2853POPC   D2A37960  22.163  40.740   8.264
 2853POPC   C3A37961  22.138  40.810   7.964
 2853POPC   C4A37962  22.166  40.759   7.664
 2853POPC   C1B37963  22.386  40.795   8.564
 2853POPC   C2B37964  22.440  40.751   8.264
 2853POPC   C3B37965  22.453  40.830   7.964
 2853POPC   C4B37966  22.388  40.776   7.664
 2854POPC   NC337967   1.216  15.977   9.464
 2854POPC   PO437968   1.228  15.999   9.164
 2854POPC   GL137969   1.192  16.005   8.864
 2854POPC   GL237970   1.320  15.927   8.864
 2854POPC   C1A37971   1.232  15.937   8.564
 2854POPC   D2A37972   1.217  15.906   8.264
 2854POPC   C3A37973   1.221  15.927   7.964
 2854POPC   C4A37974   1.240  15.950   7.664
 2854POPC   C1B37975   1.487  15.937   8.564
 2854POPC   C2B37976   1.447  15.944   8.264
 2854POPC   C3B37977   1.460  15.978   7.964
 2854POPC   C4B37978   1.452  15.952   7.664
 2855POPC   NC337979  15.162  19.832   9.464
 2855POPC   PO437980  15.190  19.805   9.164
 2855POPC   GL137981  15.216  19.798   8.864
 2855POPC   GL237982  15.074  19.953   8.864
 2855POPC   C1A37983  15.209  19.821   8.564
 2855POPC   D2A37984  15.209  19.831   8.264
 2855POPC   C3A37985  15.130  19.841   7.964
 2855POPC   C4A37986  15.192  19.793   7.664
 2855POPC   C1B37987  15.045  20.023   8.564
 2855POPC   C2B37988  14.953  19.981   8.264
 2855POPC   C3B37989  15.033  20.015   7.964
 2855POPC   C4B37990  15.022  20.049   7.664
 2856POPC   NC337991  39.968  43.919   9.464
 2856POPC   PO437992  40.048  43.852   9.164
 2856POPC   GL137993  40.053  43.842   8.864
 2856POPC   GL237994  40.048  43.731   8.864
 2856POPC   C1A37995  40.015  43.912   8.564
 2856POPC   D2A37996  40.016  43.914   8.264
 2856POPC   C3A37997  39.998  43.933   7.964
 2856POPC   C4A37998  40.041  43.892   7.664
 2856POPC   C1B37999  40.103  43.640   8.564
 2856POPC   C2B38000  40.036  43.597   8.264
 2856POPC   C3B38001  40.036  43.646   7.964
 2856POPC   C4B38002  40.038  43.664   7.664
 2857POPC   NC338003   2.768  25.308   9.464
 2857POPC   PO438004   2.763  25.312   9.164
 2857POPC   GL138005   2.803  25.247   8.864
 2857POPC   GL238006   2.699  25.181   8.864
 2857POPC   C1A38007   2.782  25.278   8.564
 2857POPC   D2A38008   2.743  25.285   8.264
 2857POPC   C3A38009   2.722  25.305   7.964
 2857POPC   C4A38010   2.749  25.285   7.664
 2857POPC   C1B38011   2.540  25.101   8.564
 2857POPC   C2B38012   2.508  25.147   8.264
 2857POPC   C3B38013   2.548  25.189   7.964
 2857POPC   C4B38014   2.582  25.113   7.664
 2858POPC   NC338015   8.943  40.053   9.464
 2858POPC   PO438016   8.926  39.981   9.164
 2858POPC   GL138017   8.994  40.004   8.864
 2858POPC   GL238018   9.008  40.144   8.864
 2858POPC   C1A38019   9.009  39.976   8.564
 2858POPC   D2A38020   8.923  39.964   8.264
 2858POPC   C3A38021   8.952  39.979   7.964
 2858POPC   C4A38022   9.000  40.050   7.664
 2858POPC   C1B38023   9.097  40.253   8.564
 2858POPC   C2B38024   9.120  40.253   8.264
 2858POPC   C3B38025   9.117  40.260   7.964
 2858POPC   C4B38026   9.061  40.205   7.664
 2859POPC   NC338027  17.489  42.348   9.464
 2859POPC   PO438028  17.517  42.357   9.164
 2859POPC   GL138029  17.520  42.384   8.864
 2859POPC   GL238030  17.479  42.504   8.864
 2859POPC   C1A38031  17.536  42.330   8.564
 2859POPC   D2A38032  17.457  42.300   8.264
 2859POPC   C3A38033  17.513  42.372   7.964
 2859POPC   C4A38034  17.541  42.365   7.664
 2859POPC   C1B38035  17.515  42.541   8.564
 2859POPC   C2B38036  17.496  42.600   8.264
 2859POPC   C3B38037  17.496  42.571   7.964
 2859POPC   C4B38038  17.535  42.539   7.664
 2860POPC   NC338039  15.202   8.163   9.464
 2860POPC   PO438040  15.199   8.161   9.164
 2860POPC   GL138041  15.154   8.222   8.864
 2860POPC   GL238042  15.113   8.160   8.864
 2860POPC   C1A38043  15.182   8.193   8.564
 2860POPC   D2A38044  15.169   8.170   8.264
 2860POPC   C3A38045  15.188   8.239   7.964
 2860POPC   C4A38046  15.185   8.180   7.664
 2860POPC   C1B38047  14.987   7.999   8.564
 2860POPC   C2B38048  14.953   7.985   8.264
 2860POPC   C3B38049  15.032   8.049   7.964
 2860POPC   C4B38050  15.010   7.992   7.664
 2861POPC   NC338051  13.631  24.469   9.464
 2861POPC   PO438052  13.648  24.501   9.164
 2861POPC   GL138053  13.640  24.459   8.864
 2861POPC   GL238054  13.770  24.537   8.864
 2861POPC   C1A38055  13.585  24.522   8.564
 2861POPC   D2A38056  13.671  24.510   8.264
 2861POPC   C3A38057  13.622  24.481   7.964
 2861POPC   C4A38058  13.617  24.534   7.664
 2861POPC   C1B38059  13.836  24.595   8.564
 2861POPC   C2B38060  13.815  24.617   8.264
 2861POPC   C3B38061  13.885  24.636   7.964
 2861POPC   C4B38062  13.822  24.571   7.664
 2862POPC   NC338063  39.191  32.264   9.464
 2862POPC   PO438064  39.188  32.211   9.164
 2862POPC   GL138065  39.191  32.223   8.864
 2862POPC   GL238066  39.068  32.280   8.864
 2862POPC   C1A38067  39.225  32.220   8.564
 2862POPC   D2A38068  39.199  32.263   8.264
 2862POPC   C3A38069  39.228  32.239   7.964
 2862POPC   C4A38070  39.198  32.262   7.664
 2862POPC   C1B38071  38.983  32.344   8.564
 2862POPC   C2B38072  39.004  32.291   8.264
 2862POPC   C3B38073  39.035  32.353   7.964
 2862POPC   C4B38074  38.944  32.320   7.664
 2863POPC   NC338075  42.297  17.490   9.464
 2863POPC   PO438076  42.328  17.458   9.164
 2863POPC   GL138077  42.344  17.523   8.864
 2863POPC   GL238078  42.414  17.473   8.864
 2863POPC   C1A38079  42.296  17.551   8.564
 2863POPC   D2A38080  42.301  17.478   8.264
 2863POPC   C3A38081  42.367  17.492   7.964
 2863POPC   C4A38082  42.367  17.554   7.664
 2863POPC   C1B38083  42.560  17.430   8.564
 2863POPC   C2B38084  42.567  17.453   8.264
 2863POPC   C3B38085  42.551  17.412   7.964
 2863POPC   C4B38086  42.582  17.507   7.664
 2864POPC   NC338087  12.807   1.948   9.464
 2864POPC   PO438088  12.895   2.025   9.164
 2864POPC   GL138089  12.899   1.943   8.864
 2864POPC   GL238090  12.762   2.029   8.864
 2864POPC   C1A38091  12.862   1.955   8.564
 2864POPC   D2A38092  12.803   1.969   8.264
 2864POPC   C3A38093  12.843   1.959   7.964
 2864POPC   C4A38094  12.876   1.993   7.664
 2864POPC   C1B38095  12.622   2.101   8.564
 2864POPC   C2B38096  12.602   2.046   8.264
 2864POPC   C3B38097  12.606   2.085   7.964
 2864POPC   C4B38098  12.644   2.107   7.664
 2865POPC   NC338099  44.677  40.051   9.464
 2865POPC   PO438100  44.672  40.022   9.164
 2865POPC   GL138101  44.615  39.986   8.864
 2865POPC   GL238102  44.559  40.109   8.864
 2865POPC   C1A38103  44.705  39.960   8.564
 2865POPC   D2A38104  44.618  39.980   8.264
 2865POPC   C3A38105  44.662  40.022   7.964
 2865POPC   C4A38106  44.657  39.958   7.664
 2865POPC   C1B38107  44.567  40.262   8.564
 2865POPC   C2B38108  44.540  40.260   8.264
 2865POPC   C3B38109  44.510  40.185   7.964
 2865POPC   C4B38110  44.477  40.199   7.664
 2866POPC   NC338111   4.321   5.869   9.464
 2866POPC   PO438112   4.268   5.864   9.164
 2866POPC   GL138113   4.344   5.820   8.864
 2866POPC   GL238114   4.231   5.827   8.864
 2866POPC   C1A38115   4.276   5.910   8.564
 2866POPC   D2A38116   4.330   5.835   8.264
 2866POPC   C3A38117   4.294   5.820   7.964
 2866POPC   C4A38118   4.306   5.904   7.664
 2866POPC   C1B38119   4.068   5.840   8.564
 2866POPC   C2B38120   4.103   5.820   8.264
 2866POPC   C3B38121   4.065   5.827   7.964
 2866POPC   C4B38122   4.046   5.814   7.664
 2867POPC   NC338123  26.056   9.747   9.464
 2867POPC   PO438124  26.004   9.740   9.164
 2867POPC   GL138125  26.027   9.743   8.864
 2867POPC   GL238126  26.003   9.599   8.864
 2867POPC   C1A38127  26.006   9.760   8.564
 2867POPC   D2A38128  26.018   9.698   8.264
 2867POPC   C3A38129  26.034   9.758   7.964
 2867POPC   C4A38130  26.052   9.780   7.664
 2867POPC   C1B38131  25.955   9.522   8.564
 2867POPC   C2B38132  26.025   9.479   8.264
 2867POPC   C3B38133  25.947   9.470   7.964
 2867POPC   C4B38134  26.015   9.479   7.664
 2868POPC   NC338135  13.598  39.986   9.464
 2868POPC   PO438136  13.601  40.028   9.164
 2868POPC   GL138137  13.619  40.026   8.864
 2868POPC   GL238138  13.567  39.956   8.864
 2868POPC   C1A38139  13.583  40.027   8.564
 2868POPC   D2A38140  13.663  39.998   8.264
 2868POPC   C3A38141  13.640  40.012   7.964
 2868POPC   C4A38142  13.581  39.986   7.664
 2868POPC   C1B38143  13.459  39.778   8.564
 2868POPC   C2B38144  13.499  39.776   8.264
 2868POPC   C3B38145  13.471  39.806   7.964
 2868POPC   C4B38146  13.495  39.815   7.664
 2869POPC   NC338147   3.505  21.360   9.464
 2869POPC   PO438148   3.522  21.373   9.164
 2869POPC   GL138149   3.562  21.387   8.864
 2869POPC   GL238150   3.564  21.522   8.864
 2869POPC   C1A38151   3.505  21.381   8.564
 2869POPC   D2A38152   3.526  21.365   8.264
 2869POPC   C3A38153   3.506  21.368   7.964
 2869POPC   C4A38154   3.529  21.395   7.664
 2869POPC   C1B38155   3.528  21.615   8.564
 2869POPC   C2B38156   3.526  21.590   8.264
 2869POPC   C3B38157   3.542  21.623   7.964
 2869POPC   C4B38158   3.601  21.659   7.664
 2870POPC   NC338159  10.493  24.512   9.464
 2870POPC   PO438160  10.498  24.536   9.164
 2870POPC   GL138161  10.542  24.495   8.864
 2870POPC   GL238162  10.468  24.456   8.864
 2870POPC   C1A38163  10.482  24.520   8.564
 2870POPC   D2A38164  10.499  24.509   8.264
 2870POPC   C3A38165  10.495  24.498   7.964
 2870POPC   C4A38166  10.532  24.532   7.664
 2870POPC   C1B38167  10.333  24.310   8.564
 2870POPC   C2B38168  10.373  24.341   8.264
 2870POPC   C3B38169  10.313  24.300   7.964
 2870POPC   C4B38170  10.318  24.348   7.664
 2871POPC   NC338171  15.174  28.358   9.464
 2871POPC   PO438172  15.183  28.416   9.164
 2871POPC   GL138173  15.215  28.351   8.864
 2871POPC   GL238174  15.185  28.274   8.864
 2871POPC   C1A38175  15.152  28.415   8.564
 2871POPC   D2A38176  15.200  28.369   8.264
 2871POPC   C3A38177  15.185  28.388   7.964
 2871POPC   C4A38178  15.181  28.384   7.664
 2871POPC   C1B38179  15.084  28.147   8.564
 2871POPC   C2B38180  15.141  28.096   8.264
 2871POPC   C3B38181  15.110  28.150   7.964
 2871POPC   C4B38182  15.168  28.113   7.664
 2872POPC   NC338183  17.506   1.975   9.464
 2872POPC   PO438184  17.494   2.028   9.164
 2872POPC   GL138185  17.485   2.009   8.864
 2872POPC   GL238186  17.390   1.888   8.864
 2872POPC   C1A38187  17.487   1.975   8.564
 2872POPC   D2A38188  17.478   1.987   8.264
 2872POPC   C3A38189  17.543   1.946   7.964
 2872POPC   C4A38190  17.544   1.949   7.664
 2872POPC   C1B38191  17.397   1.819   8.564
 2872POPC   C2B38192  17.336   1.794   8.264
 2872POPC   C3B38193  17.335   1.739   7.964
 2872POPC   C4B38194  17.372   1.823   7.664
 2873POPC   NC338195  19.862  38.482   9.464
 2873POPC   PO438196  19.850  38.429   9.164
 2873POPC   GL138197  19.867  38.408   8.864
 2873POPC   GL238198  19.925  38.376   8.864
 2873POPC   C1A38199  19.881  38.441   8.564
 2873POPC   D2A38200  19.848  38.450   8.264
 2873POPC   C3A38201  19.884  38.471   7.964
 2873POPC   C4A38202  19.818  38.434   7.664
 2873POPC   C1B38203  19.962  38.296   8.564
 2873POPC   C2B38204  20.022  38.291   8.264
 2873POPC   C3B38205  19.999  38.273   7.964
 2873POPC   C4B38206  20.016  38.257   7.664
 2874POPC   NC338207  10.502  15.165   9.464
 2874POPC   PO438208  10.501  15.218   9.164
 2874POPC   GL138209  10.568  15.187   8.864
 2874POPC   GL238210  10.593  15.340   8.864
 2874POPC   C1A38211  10.513  15.177   8.564
 2874POPC   D2A38212  10.494  15.143   8.264
 2874POPC   C3A38213  10.525  15.129   7.964
 2874POPC   C4A38214  10.490  15.221   7.664
 2874POPC   C1B38215  10.656  15.412   8.564
 2874POPC   C2B38216  10.590  15.413   8.264
 2874POPC   C3B38217  10.604  15.451   7.964
 2874POPC   C4B38218  10.644  15.412   7.664
 2875POPC   NC338219   1.207  25.292   9.464
 2875POPC   PO438220   1.251  25.250   9.164
 2875POPC   GL138221   1.216  25.260   8.864
 2875POPC   GL238222   1.298  25.294   8.864
 2875POPC   C1A38223   1.262  25.264   8.564
 2875POPC   D2A38224   1.170  25.292   8.264
 2875POPC   C3A38225   1.257  25.258   7.964
 2875POPC   C4A38226   1.256  25.234   7.664
 2875POPC   C1B38227   1.457  25.416   8.564
 2875POPC   C2B38228   1.411  25.331   8.264
 2875POPC   C3B38229   1.397  25.351   7.964
 2875POPC   C4B38230   1.444  25.399   7.664
 2876POPC   NC338231  13.637  37.641   9.464
 2876POPC   PO438232  13.641  37.632   9.164
 2876POPC   GL138233  13.578  37.665   8.864
 2876POPC   GL238234  13.754  37.709   8.864
 2876POPC   C1A38235  13.601  37.700   8.564
 2876POPC   D2A38236  13.652  37.659   8.264
 2876POPC   C3A38237  13.606  37.673   7.964
 2876POPC   C4A38238  13.670  37.667   7.664
 2876POPC   C1B38239  13.875  37.661   8.564
 2876POPC   C2B38240  13.844  37.641   8.264
 2876POPC   C3B38241  13.885  37.600   7.964
 2876POPC   C4B38242  13.855  37.660   7.664
 2877POPC   NC338243  13.668  40.799   9.464
 2877POPC   PO438244  13.602  40.740   9.164
 2877POPC   GL138245  13.642  40.764   8.864
 2877POPC   GL238246  13.727  40.790   8.864
 2877POPC   C1A38247  13.666  40.826   8.564
 2877POPC   D2A38248  13.603  40.804   8.264
 2877POPC   C3A38249  13.656  40.769   7.964
 2877POPC   C4A38250  13.636  40.812   7.664
 2877POPC   C1B38251  13.830  40.850   8.564
 2877POPC   C2B38252  13.865  40.845   8.264
 2877POPC   C3B38253  13.827  40.875   7.964
 2877POPC   C4B38254  13.915  40.869   7.664
 2878POPC   NC338255   6.626  24.443   9.464
 2878POPC   PO438256   6.637  24.468   9.164
 2878POPC   GL138257   6.625  24.471   8.864
 2878POPC   GL238258   6.625  24.318   8.864
 2878POPC   C1A38259   6.653  24.538   8.564
 2878POPC   D2A38260   6.643  24.514   8.264
 2878POPC   C3A38261   6.682  24.484   7.964
 2878POPC   C4A38262   6.668  24.525   7.664
 2878POPC   C1B38263   6.642  24.235   8.564
 2878POPC   C2B38264   6.619  24.196   8.264
 2878POPC   C3B38265   6.698  24.192   7.964
 2878POPC   C4B38266   6.627  24.198   7.664
 2879POPC   NC338267  11.299  19.851   9.464
 2879POPC   PO438268  11.288  19.785   9.164
 2879POPC   GL138269  11.326  19.850   8.864
 2879POPC   GL238270  11.376  19.792   8.864
 2879POPC   C1A38271  11.350  19.850   8.564
 2879POPC   D2A38272  11.258  19.842   8.264
 2879POPC   C3A38273  11.265  19.797   7.964
 2879POPC   C4A38274  11.299  19.798   7.664
 2879POPC   C1B38275  11.503  19.757   8.564
 2879POPC   C2B38276  11.537  19.734   8.264
 2879POPC   C3B38277  11.554  19.729   7.964
 2879POPC   C4B38278  11.514  19.773   7.664
 2880POPC   NC338279   8.213  23.695   9.464
 2880POPC   PO438280   8.216  23.756   9.164
 2880POPC   GL138281   8.157  23.680   8.864
 2880POPC   GL238282   8.243  23.768   8.864
 2880POPC   C1A38283   8.239  23.732   8.564
 2880POPC   D2A38284   8.183  23.708   8.264
 2880POPC   C3A38285   8.182  23.708   7.964
 2880POPC   C4A38286   8.223  23.717   7.664
 2880POPC   C1B38287   8.409  23.848   8.564
 2880POPC   C2B38288   8.337  23.854   8.264
 2880POPC   C3B38289   8.348  23.885   7.964
 2880POPC   C4B38290   8.422  23.868   7.664
 2881POPC   NC338291  25.220  28.320   9.464
 2881POPC   PO438292  25.268  28.348   9.164
 2881POPC   GL138293  25.280  28.371   8.864
 2881POPC   GL238294  25.411  28.463   8.864
 2881POPC   C1A38295  25.298  28.387   8.564
 2881POPC   D2A38296  25.262  28.346   8.264
 2881POPC   C3A38297  25.295  28.329   7.964
 2881POPC   C4A38298  25.239  28.331   7.664
 2881POPC   C1B38299  25.415  28.540   8.564
 2881POPC   C2B38300  25.414  28.496   8.264
 2881POPC   C3B38301  25.450  28.515   7.964
 2881POPC   C4B38302  25.443  28.544   7.664
 2882POPC   NC338303  41.602   8.225   9.464
 2882POPC   PO438304  41.535   8.201   9.164
 2882POPC   GL138305  41.561   8.218   8.864
 2882POPC   GL238306  41.471   8.170   8.864
 2882POPC   C1A38307  41.551   8.202   8.564
 2882POPC   D2A38308  41.524   8.162   8.264
 2882POPC   C3A38309  41.549   8.245   7.964
 2882POPC   C4A38310  41.576   8.240   7.664
 2882POPC   C1B38311  41.283   8.195   8.564
 2882POPC   C2B38312  41.283   8.275   8.264
 2882POPC   C3B38313  41.287   8.192   7.964
 2882POPC   C4B38314  41.265   8.259   7.664
 2883POPC   NC338315  25.294   6.647   9.464
 2883POPC   PO438316  25.303   6.654   9.164
 2883POPC   GL138317  25.258   6.615   8.864
 2883POPC   GL238318  25.299   6.759   8.864
 2883POPC   C1A38319  25.258   6.611   8.564
 2883POPC   D2A38320  25.216   6.667   8.264
 2883POPC   C3A38321  25.245   6.650   7.964
 2883POPC   C4A38322  25.312   6.598   7.664
 2883POPC   C1B38323  25.426   6.851   8.564
 2883POPC   C2B38324  25.443   6.873   8.264
 2883POPC   C3B38325  25.406   6.831   7.964
 2883POPC   C4B38326  25.402   6.810   7.664
 2884POPC   NC338327  17.553   7.442   9.464
 2884POPC   PO438328  17.515   7.415   9.164
 2884POPC   GL138329  17.517   7.371   8.864
 2884POPC   GL238330  17.541   7.492   8.864
 2884POPC   C1A38331  17.514   7.384   8.564
 2884POPC   D2A38332  17.527   7.456   8.264
 2884POPC   C3A38333  17.467   7.436   7.964
 2884POPC   C4A38334  17.546   7.406   7.664
 2884POPC   C1B38335  17.657   7.646   8.564
 2884POPC   C2B38336  17.717   7.607   8.264
 2884POPC   C3B38337  17.691   7.639   7.964
 2884POPC   C4B38338  17.687   7.645   7.664
 2885POPC   NC338339  26.780  28.388   9.464
 2885POPC   PO438340  26.790  28.326   9.164
 2885POPC   GL138341  26.777  28.414   8.864
 2885POPC   GL238342  26.718  28.467   8.864
 2885POPC   C1A38343  26.773  28.412   8.564
 2885POPC   D2A38344  26.845  28.416   8.264
 2885POPC   C3A38345  26.831  28.336   7.964
 2885POPC   C4A38346  26.820  28.375   7.664
 2885POPC   C1B38347  26.650  28.579   8.564
 2885POPC   C2B38348  26.614  28.581   8.264
 2885POPC   C3B38349  26.681  28.504   7.964
 2885POPC   C4B38350  26.663  28.586   7.664
 2886POPC   NC338351   5.132  13.586   9.464
 2886POPC   PO438352   5.079  13.669   9.164
 2886POPC   GL138353   5.126  13.647   8.864
 2886POPC   GL238354   5.219  13.613   8.864
 2886POPC   C1A38355   5.091  13.667   8.564
 2886POPC   D2A38356   5.088  13.590   8.264
 2886POPC   C3A38357   5.106  13.673   7.964
 2886POPC   C4A38358   5.048  13.647   7.664
 2886POPC   C1B38359   5.352  13.648   8.564
 2886POPC   C2B38360   5.365  13.676   8.264
 2886POPC   C3B38361   5.343  13.649   7.964
 2886POPC   C4B38362   5.299  13.664   7.664
 2887POPC   NC338363  30.707  30.720   9.464
 2887POPC   PO438364  30.670  30.653   9.164
 2887POPC   GL138365  30.744  30.698   8.864
 2887POPC   GL238366  30.617  30.749   8.864
 2887POPC   C1A38367  30.669  30.720   8.564
 2887POPC   D2A38368  30.696  30.669   8.264
 2887POPC   C3A38369  30.649  30.733   7.964
 2887POPC   C4A38370  30.718  30.664   7.664
 2887POPC   C1B38371  30.537  30.828   8.564
 2887POPC   C2B38372  30.524  30.911   8.264
 2887POPC   C3B38373  30.547  30.923   7.964
 2887POPC   C4B38374  30.494  30.887   7.664
 2888POPC   NC338375   4.336  38.438   9.464
 2888POPC   PO438376   4.296  38.433   9.164
 2888POPC   GL138377   4.271  38.411   8.864
 2888POPC   GL238378   4.326  38.375   8.864
 2888POPC   C1A38379   4.343  38.491   8.564
 2888POPC   D2A38380   4.324  38.434   8.264
 2888POPC   C3A38381   4.282  38.488   7.964
 2888POPC   C4A38382   4.322  38.417   7.664
 2888POPC   C1B38383   4.212  38.172   8.564
 2888POPC   C2B38384   4.209  38.244   8.264
 2888POPC   C3B38385   4.284  38.209   7.964
 2888POPC   C4B38386   4.225  38.258   7.664
 2889POPC   NC338387   3.587  31.484   9.464
 2889POPC   PO438388   3.529  31.476   9.164
 2889POPC   GL138389   3.566  31.439   8.864
 2889POPC   GL238390   3.497  31.624   8.864
 2889POPC   C1A38391   3.541  31.453   8.564
 2889POPC   D2A38392   3.540  31.492   8.264
 2889POPC   C3A38393   3.503  31.456   7.964
 2889POPC   C4A38394   3.497  31.457   7.664
 2889POPC   C1B38395   3.582  31.733   8.564
 2889POPC   C2B38396   3.567  31.679   8.264
 2889POPC   C3B38397   3.529  31.675   7.964
 2889POPC   C4B38398   3.583  31.707   7.664
 2890POPC   NC338399  42.304  43.877   9.464
 2890POPC   PO438400  42.324  43.849   9.164
 2890POPC   GL138401  42.344  43.885   8.864
 2890POPC   GL238402  42.279  43.957   8.864
 2890POPC   C1A38403  42.362  43.865   8.564
 2890POPC   D2A38404  42.323  43.922   8.264
 2890POPC   C3A38405  42.332  43.842   7.964
 2890POPC   C4A38406  42.326  43.896   7.664
 2890POPC   C1B38407  42.190  44.059   8.564
 2890POPC   C2B38408  42.150  44.079   8.264
 2890POPC   C3B38409  42.132  44.060   7.964
 2890POPC   C4B38410  42.190  44.124   7.664
 2891POPC   NC338411  26.830  21.380   9.464
 2891POPC   PO438412  26.867  21.409   9.164
 2891POPC   GL138413  26.847  21.360   8.864
 2891POPC   GL238414  26.683  21.443   8.864
 2891POPC   C1A38415  26.849  21.409   8.564
 2891POPC   D2A38416  26.864  21.348   8.264
 2891POPC   C3A38417  26.769  21.420   7.964
 2891POPC   C4A38418  26.847  21.374   7.664
 2891POPC   C1B38419  26.611  21.489   8.564
 2891POPC   C2B38420  26.565  21.493   8.264
 2891POPC   C3B38421  26.560  21.551   7.964
 2891POPC   C4B38422  26.577  21.532   7.664
 2892POPC   NC338423  19.837  27.610   9.464
 2892POPC   PO438424  19.812  27.594   9.164
 2892POPC   GL138425  19.834  27.599   8.864
 2892POPC   GL238426  19.750  27.673   8.864
 2892POPC   C1A38427  19.825  27.548   8.564
 2892POPC   D2A38428  19.855  27.558   8.264
 2892POPC   C3A38429  19.865  27.603   7.964
 2892POPC   C4A38430  19.882  27.572   7.664
 2892POPC   C1B38431  19.594  27.760   8.564
 2892POPC   C2B38432  19.597  27.715   8.264
 2892POPC   C3B38433  19.627  27.709   7.964
 2892POPC   C4B38434  19.570  27.678   7.664
 2893POPC   NC338435  36.856   2.731   9.464
 2893POPC   PO438436  36.953   2.804   9.164
 2893POPC   GL138437  36.860   2.802   8.864
 2893POPC   GL238438  36.741   2.810   8.864
 2893POPC   C1A38439  36.920   2.808   8.564
 2893POPC   D2A38440  36.881   2.801   8.264
 2893POPC   C3A38441  36.867   2.730   7.964
 2893POPC   C4A38442  36.917   2.804   7.664
 2893POPC   C1B38443  36.714   2.822   8.564
 2893POPC   C2B38444  36.643   2.846   8.264
 2893POPC   C3B38445  36.627   2.807   7.964
 2893POPC   C4B38446  36.673   2.818   7.664
 2894POPC   NC338447  30.713   1.945   9.464
 2894POPC   PO438448  30.695   1.966   9.164
 2894POPC   GL138449  30.733   1.980   8.864
 2894POPC   GL238450  30.743   2.094   8.864
 2894POPC   C1A38451  30.687   1.995   8.564
 2894POPC   D2A38452  30.648   2.003   8.264
 2894POPC   C3A38453  30.690   1.942   7.964
 2894POPC   C4A38454  30.684   2.003   7.664
 2894POPC   C1B38455  30.699   2.217   8.564
 2894POPC   C2B38456  30.716   2.211   8.264
 2894POPC   C3B38457  30.723   2.205   7.964
 2894POPC   C4B38458  30.770   2.195   7.664
 2895POPC   NC338459  40.828   5.090   9.464
 2895POPC   PO438460  40.746   5.103   9.164
 2895POPC   GL138461  40.784   5.099   8.864
 2895POPC   GL238462  40.857   5.023   8.864
 2895POPC   C1A38463  40.788   5.084   8.564
 2895POPC   D2A38464  40.824   5.061   8.264
 2895POPC   C3A38465  40.792   5.138   7.964
 2895POPC   C4A38466  40.809   5.043   7.664
 2895POPC   C1B38467  40.863   4.892   8.564
 2895POPC   C2B38468  40.824   4.825   8.264
 2895POPC   C3B38469  40.897   4.851   7.964
 2895POPC   C4B38470  40.837   4.809   7.664
 2896POPC   NC338471  39.207  29.171   9.464
 2896POPC   PO438472  39.259  29.164   9.164
 2896POPC   GL138473  39.245  29.153   8.864
 2896POPC   GL238474  39.337  29.299   8.864
 2896POPC   C1A38475  39.237  29.194   8.564
 2896POPC   D2A38476  39.217  29.141   8.264
 2896POPC   C3A38477  39.189  29.124   7.964
 2896POPC   C4A38478  39.201  29.164   7.664
 2896POPC   C1B38479  39.359  29.376   8.564
 2896POPC   C2B38480  39.374  29.340   8.264
 2896POPC   C3B38481  39.392  29.324   7.964
 2896POPC   C4B38482  39.314  29.387   7.664
 2897POPC   NC338483  22.948  41.561   9.464
 2897POPC   PO438484  22.913  41.566   9.164
 2897POPC   GL138485  22.987  41.511   8.864
 2897POPC   GL238486  22.941  41.452   8.864
 2897POPC   C1A38487  22.971  41.514   8.564
 2897POPC   D2A38488  22.917  41.599   8.264
 2897POPC   C3A38489  22.935  41.531   7.964
 2897POPC   C4A38490  22.889  41.547   7.664
 2897POPC   C1B38491  22.821  41.360   8.564
 2897POPC   C2B38492  22.891  41.343   8.264
 2897POPC   C3B38493  22.874  41.361   7.964
 2897POPC   C4B38494  22.827  41.335   7.664
 2898POPC   NC338495  22.135  18.266   9.464
 2898POPC   PO438496  22.141  18.272   9.164
 2898POPC   GL138497  22.180  18.242   8.864
 2898POPC   GL238498  22.104  18.402   8.864
 2898POPC   C1A38499  22.182  18.310   8.564
 2898POPC   D2A38500  22.157  18.263   8.264
 2898POPC   C3A38501  22.151  18.284   7.964
 2898POPC   C4A38502  22.138  18.281   7.664
 2898POPC   C1B38503  22.095  18.514   8.564
 2898POPC   C2B38504  22.155  18.500   8.264
 2898POPC   C3B38505  22.151  18.481   7.964
 2898POPC   C4B38506  22.104  18.484   7.664
 2899POPC   NC338507  32.285  29.965   9.464
 2899POPC   PO438508  32.269  29.968   9.164
 2899POPC   GL138509  32.230  29.961   8.864
 2899POPC   GL238510  32.358  29.928   8.864
 2899POPC   C1A38511  32.209  29.968   8.564
 2899POPC   D2A38512  32.294  29.930   8.264
 2899POPC   C3A38513  32.237  29.884   7.964
 2899POPC   C4A38514  32.204  29.959   7.664
 2899POPC   C1B38515  32.532  29.958   8.564
 2899POPC   C2B38516  32.545  29.876   8.264
 2899POPC   C3B38517  32.509  29.915   7.964
 2899POPC   C4B38518  32.464  29.907   7.664
 2900POPC   NC338519   0.398  20.570   9.464
 2900POPC   PO438520   0.432  20.620   9.164
 2900POPC   GL138521   0.409  20.616   8.864
 2900POPC   GL238522   0.415  20.523   8.864
 2900POPC   C1A38523   0.486  20.585   8.564
 2900POPC   D2A38524   0.448  20.631   8.264
 2900POPC   C3A38525   0.420  20.574   7.964
 2900POPC   C4A38526   0.423  20.573   7.664
 2900POPC   C1B38527   0.477  20.376   8.564
 2900POPC   C2B38528   0.470  20.386   8.264
 2900POPC   C3B38529   0.426  20.370   7.964
 2900POPC   C4B38530   0.463  20.353   7.664
 2901POPC   NC338531  29.135  22.906   9.464
 2901POPC   PO438532  29.106  22.974   9.164
 2901POPC   GL138533  29.098  22.980   8.864
 2901POPC   GL238534  29.013  23.068   8.864
 2901POPC   C1A38535  29.146  22.924   8.564
 2901POPC   D2A38536  29.179  22.956   8.264
 2901POPC   C3A38537  29.183  22.943   7.964
 2901POPC   C4A38538  29.181  22.964   7.664
 2901POPC   C1B38539  28.990  23.086   8.564
 2901POPC   C2B38540  28.929  23.086   8.264
 2901POPC   C3B38541  28.985  23.075   7.964
 2901POPC   C4B38542  28.984  23.141   7.664
 2902POPC   NC338543  19.044  34.564   9.464
 2902POPC   PO438544  19.096  34.579   9.164
 2902POPC   GL138545  19.024  34.562   8.864
 2902POPC   GL238546  19.100  34.484   8.864
 2902POPC   C1A38547  19.031  34.579   8.564
 2902POPC   D2A38548  19.029  34.604   8.264
 2902POPC   C3A38549  19.069  34.580   7.964
 2902POPC   C4A38550  19.050  34.569   7.664
 2902POPC   C1B38551  19.167  34.379   8.564
 2902POPC   C2B38552  19.165  34.389   8.264
 2902POPC   C3B38553  19.193  34.395   7.964
 2902POPC   C4B38554  19.188  34.349   7.664
 2903POPC   NC338555  12.873  19.820   9.464
 2903POPC   PO438556  12.846  19.837   9.164
 2903POPC   GL138557  12.896  19.866   8.864
 2903POPC   GL238558  12.770  19.914   8.864
 2903POPC   C1A38559  12.881  19.793   8.564
 2903POPC   D2A38560  12.866  19.799   8.264
 2903POPC   C3A38561  12.889  19.822   7.964
 2903POPC   C4A38562  12.876  19.824   7.664
 2903POPC   C1B38563  12.620  20.007   8.564
 2903POPC   C2B38564  12.614  20.025   8.264
 2903POPC   C3B38565  12.639  19.971   7.964
 2903POPC   C4B38566  12.670  19.936   7.664
 2904POPC   NC338567  22.196  22.892   9.464
 2904POPC   PO438568  22.180  22.952   9.164
 2904POPC   GL138569  22.189  22.913   8.864
 2904POPC   GL238570  22.276  22.994   8.864
 2904POPC   C1A38571  22.167  22.969   8.564
 2904POPC   D2A38572  22.149  22.931   8.264
 2904POPC   C3A38573  22.191  22.889   7.964
 2904POPC   C4A38574  22.192  22.926   7.664
 2904POPC   C1B38575  22.347  23.179   8.564
 2904POPC   C2B38576  22.282  23.142   8.264
 2904POPC   C3B38577  22.288  23.104   7.964
 2904POPC   C4B38578  22.262  23.135   7.664
 2905POPC   NC338579  30.707   3.499   9.464
 2905POPC   PO438580  30.692   3.578   9.164
 2905POPC   GL138581  30.688   3.582   8.864
 2905POPC   GL238582  30.613   3.618   8.864
 2905POPC   C1A38583  30.653   3.536   8.564
 2905POPC   D2A38584  30.660   3.588   8.264
 2905POPC   C3A38585  30.649   3.532   7.964
 2905POPC   C4A38586  30.695   3.525   7.664
 2905POPC   C1B38587  30.567   3.730   8.564
 2905POPC   C2B38588  30.611   3.801   8.264
 2905POPC   C3B38589  30.613   3.760   7.964
 2905POPC   C4B38590  30.610   3.799   7.664
 2906POPC   NC338591  15.980  33.818   9.464
 2906POPC   PO438592  15.984  33.824   9.164
 2906POPC   GL138593  16.001  33.797   8.864
 2906POPC   GL238594  16.049  33.837   8.864
 2906POPC   C1A38595  16.004  33.830   8.564
 2906POPC   D2A38596  15.986  33.829   8.264
 2906POPC   C3A38597  16.002  33.775   7.964
 2906POPC   C4A38598  15.975  33.804   7.664
 2906POPC   C1B38599  16.224  33.821   8.564
 2906POPC   C2B38600  16.186  33.795   8.264
 2906POPC   C3B38601  16.216  33.757   7.964
 2906POPC   C4B38602  16.187  33.825   7.664
 2907POPC   NC338603   1.954  31.483   9.464
 2907POPC   PO438604   2.015  31.443   9.164
 2907POPC   GL138605   2.016  31.519   8.864
 2907POPC   GL238606   1.900  31.360   8.864
 2907POPC   C1A38607   2.003  31.512   8.564
 2907POPC   D2A38608   1.944  31.427   8.264
 2907POPC   C3A38609   1.963  31.472   7.964
 2907POPC   C4A38610   1.977  31.515   7.664
 2907POPC   C1B38611   1.801  31.344   8.564
 2907POPC   C2B38612   1.820  31.318   8.264
 2907POPC   C3B38613   1.824  31.263   7.964
 2907POPC   C4B38614   1.750  31.324   7.664
 2908POPC   NC338615  32.205  17.526   9.464
 2908POPC   PO438616  32.268  17.514   9.164
 2908POPC   GL138617  32.244  17.516   8.864
 2908POPC   GL238618  32.233  17.623   8.864
 2908POPC   C1A38619  32.296  17.541   8.564
 2908POPC   D2A38620  32.240  17.531   8.264
 2908POPC   C3A38621  32.242  17.491   7.964
 2908POPC   C4A38622  32.262  17.507   7.664
 2908POPC   C1B38623  32.223  17.735   8.564
 2908POPC   C2B38624  32.230  17.761   8.264
 2908POPC   C3B38625  32.172  17.776   7.964
 2908POPC   C4B38626  32.204  17.763   7.664
 2909POPC   NC338627  15.960   2.787   9.464
 2909POPC   PO438628  15.975   2.783   9.164
 2909POPC   GL138629  15.996   2.747   8.864
 2909POPC   GL238630  15.850   2.686   8.864
 2909POPC   C1A38631  15.963   2.790   8.564
 2909POPC   D2A38632  15.928   2.780   8.264
 2909POPC   C3A38633  15.955   2.716   7.964
 2909POPC   C4A38634  15.928   2.807   7.664
 2909POPC   C1B38635  15.769   2.595   8.564
 2909POPC   C2B38636  15.788   2.608   8.264
 2909POPC   C3B38637  15.795   2.598   7.964
 2909POPC   C4B38638  15.746   2.632   7.664
 2910POPC   NC338639  43.160  16.770   9.464
 2910POPC   PO438640  43.076  16.768   9.164
 2910POPC   GL138641  43.141  16.703   8.864
 2910POPC   GL238642  43.071  16.860   8.864
 2910POPC   C1A38643  43.062  16.765   8.564
 2910POPC   D2A38644  43.123  16.727   8.264
 2910POPC   C3A38645  43.152  16.718   7.964
 2910POPC   C4A38646  43.112  16.722   7.664
 2910POPC   C1B38647  43.059  16.936   8.564
 2910POPC   C2B38648  43.006  16.949   8.264
 2910POPC   C3B38649  43.038  16.997   7.964
 2910POPC   C4B38650  43.018  16.963   7.664
 2911POPC   NC338651   2.770  26.029   9.464
 2911POPC   PO438652   2.762  26.078   9.164
 2911POPC   GL138653   2.787  26.040   8.864
 2911POPC   GL238654   2.723  25.939   8.864
 2911POPC   C1A38655   2.768  26.025   8.564
 2911POPC   D2A38656   2.762  26.091   8.264
 2911POPC   C3A38657   2.773  26.057   7.964
 2911POPC   C4A38658   2.757  26.085   7.664
 2911POPC   C1B38659   2.640  25.799   8.564
 2911POPC   C2B38660   2.723  25.806   8.264
 2911POPC   C3B38661   2.638  25.781   7.964
 2911POPC   C4B38662   2.732  25.800   7.664
 2912POPC   NC338663  18.313  41.559   9.464
 2912POPC   PO438664  18.291  41.596   9.164
 2912POPC   GL138665  18.329  41.606   8.864
 2912POPC   GL238666  18.344  41.435   8.864
 2912POPC   C1A38667  18.236  41.596   8.564
 2912POPC   D2A38668  18.279  41.586   8.264
 2912POPC   C3A38669  18.242  41.524   7.964
 2912POPC   C4A38670  18.321  41.575   7.664
 2912POPC   C1B38671  18.439  41.380   8.564
 2912POPC   C2B38672  18.481  41.381   8.264
 2912POPC   C3B38673  18.426  41.350   7.964
 2912POPC   C4B38674  18.482  41.378   7.664
 2913POPC   NC338675  32.201  13.644   9.464
 2913POPC   PO438676  32.202  13.593   9.164
 2913POPC   GL138677  32.218  13.591   8.864
 2913POPC   GL238678  32.366  13.722   8.864
 2913POPC   C1A38679  32.236  13.634   8.564
 2913POPC   D2A38680  32.208  13.638   8.264
 2913POPC   C3A38681  32.297  13.676   7.964
 2913POPC   C4A38682  32.239  13.617   7.664
 2913POPC   C1B38683  32.407  13.795   8.564
 2913POPC   C2B38684  32.414  13.830   8.264
 2913POPC   C3B38685  32.459  13.754   7.964
 2913POPC   C4B38686  32.449  13.805   7.664
 2914POPC   NC338687  30.686  19.811   9.464
 2914POPC   PO438688  30.737  19.814   9.164
 2914POPC   GL138689  30.683  19.875   8.864
 2914POPC   GL238690  30.681  19.732   8.864
 2914POPC   C1A38691  30.651  19.872   8.564
 2914POPC   D2A38692  30.744  19.869   8.264
 2914POPC   C3A38693  30.733  19.867   7.964
 2914POPC   C4A38694  30.673  19.845   7.664
 2914POPC   C1B38695  30.755  19.634   8.564
 2914POPC   C2B38696  30.712  19.594   8.264
 2914POPC   C3B38697  30.688  19.633   7.964
 2914POPC   C4B38698  30.752  19.563   7.664
 2915POPC   NC338699  12.892  43.921   9.464
 2915POPC   PO438700  12.849  43.900   9.164
 2915POPC   GL138701  12.886  43.861   8.864
 2915POPC   GL238702  12.938  43.984   8.864
 2915POPC   C1A38703  12.896  43.869   8.564
 2915POPC   D2A38704  12.825  43.877   8.264
 2915POPC   C3A38705  12.880  43.882   7.964
 2915POPC   C4A38706  12.824  43.841   7.664
 2915POPC   C1B38707  13.080  43.982   8.564
 2915POPC   C2B38708  13.111  43.979   8.264
 2915POPC   C3B38709  13.075  43.940   7.964
 2915POPC   C4B38710  13.122  43.975   7.664
 2916POPC   NC338711  35.393  14.405   9.464
 2916POPC   PO438712  35.386  14.370   9.164
 2916POPC   GL138713  35.388  14.407   8.864
 2916POPC   GL238714  35.419  14.408   8.864
 2916POPC   C1A38715  35.308  14.418   8.564
 2916POPC   D2A38716  35.346  14.395   8.264
 2916POPC   C3A38717  35.315  14.383   7.964
 2916POPC   C4A38718  35.400  14.359   7.664
 2916POPC   C1B38719  35.571  14.515   8.564
 2916POPC   C2B38720  35.567  14.528   8.264
 2916POPC   C3B38721  35.554  14.529   7.964
 2916POPC   C4B38722  35.560  14.533   7.664
 2917POPC   NC338723  41.586  42.356   9.464
 2917POPC   PO438724  41.607  42.383   9.164
 2917POPC   GL138725  41.537  42.340   8.864
 2917POPC   GL238726  41.476  42.192   8.864
 2917POPC   C1A38727  41.539  42.316   8.564
 2917POPC   D2A38728  41.553  42.297   8.264
 2917POPC   C3A38729  41.542  42.351   7.964
 2917POPC   C4A38730  41.583  42.347   7.664
 2917POPC   C1B38731  41.374  42.166   8.564
 2917POPC   C2B38732  41.402  42.180   8.264
 2917POPC   C3B38733  41.358  42.181   7.964
 2917POPC   C4B38734  41.421  42.126   7.664
 2918POPC   NC338735  30.653  40.743   9.464
 2918POPC   PO438736  30.745  40.753   9.164
 2918POPC   GL138737  30.700  40.757   8.864
 2918POPC   GL238738  30.833  40.895   8.864
 2918POPC   C1A38739  30.731  40.805   8.564
 2918POPC   D2A38740  30.666  40.781   8.264
 2918POPC   C3A38741  30.707  40.790   7.964
 2918POPC   C4A38742  30.739  40.752   7.664
 2918POPC   C1B38743  30.880  40.907   8.564
 2918POPC   C2B38744  30.864  40.945   8.264
 2918POPC   C3B38745  30.922  40.947   7.964
 2918POPC   C4B38746  30.902  40.977   7.664
 2919POPC   NC338747  27.630  22.138   9.464
 2919POPC   PO438748  27.638  22.170   9.164
 2919POPC   GL138749  27.600  22.149   8.864
 2919POPC   GL238750  27.619  22.049   8.864
 2919POPC   C1A38751  27.550  22.206   8.564
 2919POPC   D2A38752  27.619  22.149   8.264
 2919POPC   C3A38753  27.550  22.121   7.964
 2919POPC   C4A38754  27.555  22.208   7.664
 2919POPC   C1B38755  27.608  21.870   8.564
 2919POPC   C2B38756  27.584  21.949   8.264
 2919POPC   C3B38757  27.533  21.931   7.964
 2919POPC   C4B38758  27.550  21.908   7.664
 2920POPC   NC338759  42.331  37.687   9.464
 2920POPC   PO438760  42.287  37.713   9.164
 2920POPC   GL138761  42.352  37.672   8.864
 2920POPC   GL238762  42.266  37.540   8.864
 2920POPC   C1A38763  42.292  37.694   8.564
 2920POPC   D2A38764  42.344  37.729   8.264
 2920POPC   C3A38765  42.300  37.688   7.964
 2920POPC   C4A38766  42.347  37.729   7.664
 2920POPC   C1B38767  42.244  37.448   8.564
 2920POPC   C2B38768  42.205  37.430   8.264
 2920POPC   C3B38769  42.161  37.449   7.964
 2920POPC   C4B38770  42.215  37.494   7.664
 2921POPC   NC338771  11.333  11.255   9.464
 2921POPC   PO438772  11.257  11.324   9.164
 2921POPC   GL138773  11.310  11.295   8.864
 2921POPC   GL238774  11.447  11.327   8.864
 2921POPC   C1A38775  11.269  11.278   8.564
 2921POPC   D2A38776  11.297  11.254   8.264
 2921POPC   C3A38777  11.339  11.333   7.964
 2921POPC   C4A38778  11.250  11.264   7.664
 2921POPC   C1B38779  11.508  11.407   8.564
 2921POPC   C2B38780  11.491  11.407   8.264
 2921POPC   C3B38781  11.487  11.426   7.964
 2921POPC   C4B38782  11.465  11.412   7.664
 2922POPC   NC338783  36.915  29.118   9.464
 2922POPC   PO438784  36.912  29.144   9.164
 2922POPC   GL138785  36.914  29.102   8.864
 2922POPC   GL238786  36.752  29.145   8.864
 2922POPC   C1A38787  36.919  29.099   8.564
 2922POPC   D2A38788  36.913  29.177   8.264
 2922POPC   C3A38789  36.948  29.154   7.964
 2922POPC   C4A38790  36.925  29.152   7.664
 2922POPC   C1B38791  36.681  29.233   8.564
 2922POPC   C2B38792  36.691  29.235   8.264
 2922POPC   C3B38793  36.661  29.205   7.964
 2922POPC   C4B38794  36.683  29.180   7.664
 2923POPC   NC338795  39.183  34.626   9.464
 2923POPC   PO438796  39.217  34.537   9.164
 2923POPC   GL138797  39.237  34.547   8.864
 2923POPC   GL238798  39.391  34.562   8.864
 2923POPC   C1A38799  39.230  34.543   8.564
 2923POPC   D2A38800  39.251  34.559   8.264
 2923POPC   C3A38801  39.225  34.593   7.964
 2923POPC   C4A38802  39.216  34.579   7.664
 2923POPC   C1B38803  39.468  34.513   8.564
 2923POPC   C2B38804  39.492  34.517   8.264
 2923POPC   C3B38805  39.509  34.438   7.964
 2923POPC   C4B38806  39.467  34.452   7.664
 2924POPC   NC338807  43.105  40.021   9.464
 2924POPC   PO438808  43.133  40.048   9.164
 2924POPC   GL138809  43.078  40.025   8.864
 2924POPC   GL238810  43.018  40.029   8.864
 2924POPC   C1A38811  43.095  39.981   8.564
 2924POPC   D2A38812  43.080  40.037   8.264
 2924POPC   C3A38813  43.099  39.973   7.964
 2924POPC   C4A38814  43.077  40.005   7.664
 2924POPC   C1B38815  42.835  40.094   8.564
 2924POPC   C2B38816  42.916  40.109   8.264
 2924POPC   C3B38817  42.830  40.073   7.964
 2924POPC   C4B38818  42.892  40.121   7.664
 2925POPC   NC338819   1.210  13.591   9.464
 2925POPC   PO438820   1.257  13.664   9.164
 2925POPC   GL138821   1.223  13.627   8.864
 2925POPC   GL238822   1.274  13.551   8.864
 2925POPC   C1A38823   1.200  13.669   8.564
 2925POPC   D2A38824   1.171  13.670   8.264
 2925POPC   C3A38825   1.178  13.665   7.964
 2925POPC   C4A38826   1.170  13.624   7.664
 2925POPC   C1B38827   1.218  13.392   8.564
 2925POPC   C2B38828   1.258  13.337   8.264
 2925POPC   C3B38829   1.231  13.407   7.964
 2925POPC   C4B38830   1.232  13.404   7.664
 2926POPC   NC338831  32.232  39.234   9.464
 2926POPC   PO438832  32.230  39.193   9.164
 2926POPC   GL138833  32.207  39.188   8.864
 2926POPC   GL238834  32.260  39.379   8.864
 2926POPC   C1A38835  32.256  39.242   8.564
 2926POPC   D2A38836  32.222  39.189   8.264
 2926POPC   C3A38837  32.297  39.223   7.964
 2926POPC   C4A38838  32.296  39.207   7.664
 2926POPC   C1B38839  32.374  39.446   8.564
 2926POPC   C2B38840  32.337  39.462   8.264
 2926POPC   C3B38841  32.369  39.483   7.964
 2926POPC   C4B38842  32.383  39.443   7.664
 2927POPC   NC338843   1.976   3.525   9.464
 2927POPC   PO438844   2.019   3.502   9.164
 2927POPC   GL138845   1.980   3.541   8.864
 2927POPC   GL238846   1.872   3.564   8.864
 2927POPC   C1A38847   2.005   3.577   8.564
 2927POPC   D2A38848   1.982   3.528   8.264
 2927POPC   C3A38849   1.975   3.548   7.964
 2927POPC   C4A38850   1.993   3.541   7.664
 2927POPC   C1B38851   1.824   3.645   8.564
 2927POPC   C2B38852   1.761   3.690   8.264
 2927POPC   C3B38853   1.761   3.684   7.964
 2927POPC   C4B38854   1.818   3.645   7.664
 2928POPC   NC338855  19.879  33.764   9.464
 2928POPC   PO438856  19.862  33.762   9.164
 2928POPC   GL138857  19.796  33.777   8.864
 2928POPC   GL238858  19.684  33.857   8.864
 2928POPC   C1A38859  19.877  33.799   8.564
 2928POPC   D2A38860  19.864  33.778   8.264
 2928POPC   C3A38861  19.836  33.823   7.964
 2928POPC   C4A38862  19.848  33.777   7.664
 2928POPC   C1B38863  19.619  33.840   8.564
 2928POPC   C2B38864  19.613  33.803   8.264
 2928POPC   C3B38865  19.612  33.870   7.964
 2928POPC   C4B38866  19.543  33.844   7.664
 2929POPC   NC338867   7.446   0.485   9.464
 2929POPC   PO438868   7.420   0.393   9.164
 2929POPC   GL138869   7.384   0.448   8.864
 2929POPC   GL238870   7.497   0.381   8.864
 2929POPC   C1A38871   7.454   0.427   8.564
 2929POPC   D2A38872   7.453   0.407   8.264
 2929POPC   C3A38873   7.449   0.409   7.964
 2929POPC   C4A38874   7.453   0.413   7.664
 2929POPC   C1B38875   7.626   0.387   8.564
 2929POPC   C2B38876   7.608   0.374   8.264
 2929POPC   C3B38877   7.684   0.299   7.964
 2929POPC   C4B38878   7.635   0.319   7.664
 2930POPC   NC338879  18.249  32.244   9.464
 2930POPC   PO438880  18.252  32.292   9.164
 2930POPC   GL138881  18.276  32.212   8.864
 2930POPC   GL238882  18.337  32.163   8.864
 2930POPC   C1A38883  18.260  32.289   8.564
 2930POPC   D2A38884  18.303  32.234   8.264
 2930POPC   C3A38885  18.236  32.234   7.964
 2930POPC   C4A38886  18.268  32.262   7.664
 2930POPC   C1B38887  18.453  32.114   8.564
 2930POPC   C2B38888  18.516  32.052   8.264
 2930POPC   C3B38889  18.452  32.085   7.964
 2930POPC   C4B38890  18.498  32.085   7.664
 2931POPC   NC338891  15.993  34.622   9.464
 2931POPC   PO438892  15.936  34.580   9.164
 2931POPC   GL138893  15.923  34.621   8.864
 2931POPC   GL238894  15.975  34.695   8.864
 2931POPC   C1A38895  15.933  34.578   8.564
 2931POPC   D2A38896  15.953  34.568   8.264
 2931POPC   C3A38897  15.950  34.615   7.964
 2931POPC   C4A38898  15.950  34.577   7.664
 2931POPC   C1B38899  16.071  34.764   8.564
 2931POPC   C2B38900  16.097  34.779   8.264
 2931POPC   C3B38901  16.043  34.828   7.964
 2931POPC   C4B38902  16.041  34.817   7.664
 2932POPC   NC338903  39.958  26.024   9.464
 2932POPC   PO438904  39.991  26.036   9.164
 2932POPC   GL138905  39.997  25.994   8.864
 2932POPC   GL238906  40.016  26.143   8.864
 2932POPC   C1A38907  40.005  26.006   8.564
 2932POPC   D2A38908  40.050  26.039   8.264
 2932POPC   C3A38909  40.023  26.010   7.964
 2932POPC   C4A38910  39.992  26.033   7.664
 2932POPC   C1B38911  40.060  26.242   8.564
 2932POPC   C2B38912  40.000  26.261   8.264
 2932POPC   C3B38913  40.036  26.278   7.964
 2932POPC   C4B38914  40.050  26.265   7.664
 2933POPC   NC338915   6.687  27.573   9.464
 2933POPC   PO438916   6.609  27.586   9.164
 2933POPC   GL138917   6.610  27.630   8.864
 2933POPC   GL238918   6.540  27.454   8.864
 2933POPC   C1A38919   6.595  27.578   8.564
 2933POPC   D2A38920   6.659  27.597   8.264
 2933POPC   C3A38921   6.641  27.617   7.964
 2933POPC   C4A38922   6.677  27.558   7.664
 2933POPC   C1B38923   6.453  27.402   8.564
 2933POPC   C2B38924   6.470  27.362   8.264
 2933POPC   C3B38925   6.454  27.344   7.964
 2933POPC   C4B38926   6.527  27.387   7.664
 2934POPC   NC338927  18.315  36.872   9.464
 2934POPC   PO438928  18.323  36.901   9.164
 2934POPC   GL138929  18.300  36.903   8.864
 2934POPC   GL238930  18.217  36.799   8.864
 2934POPC   C1A38931  18.325  36.905   8.564
 2934POPC   D2A38932  18.274  36.912   8.264
 2934POPC   C3A38933  18.273  36.894   7.964
 2934POPC   C4A38934  18.259  36.874   7.664
 2934POPC   C1B38935  18.227  36.674   8.564
 2934POPC   C2B38936  18.261  36.632   8.264
 2934POPC   C3B38937  18.218  36.617   7.964
 2934POPC   C4B38938  18.271  36.655   7.664
 2935POPC   NC338939  39.273  20.584   9.464
 2935POPC   PO438940  39.227  20.621   9.164
 2935POPC   GL138941  39.263  20.581   8.864
 2935POPC   GL238942  39.088  20.621   8.864
 2935POPC   C1A38943  39.228  20.621   8.564
 2935POPC   D2A38944  39.253  20.574   8.264
 2935POPC   C3A38945  39.222  20.602   7.964
 2935POPC   C4A38946  39.199  20.631   7.664
 2935POPC   C1B38947  38.963  20.671   8.564
 2935POPC   C2B38948  39.014  20.650   8.264
 2935POPC   C3B38949  39.012  20.687   7.964
 2935POPC   C4B38950  38.960  20.642   7.664
 2936POPC   NC338951  16.764   2.790   9.464
 2936POPC   PO438952  16.768   2.742   9.164
 2936POPC   GL138953  16.710   2.776   8.864
 2936POPC   GL238954  16.614   2.681   8.864
 2936POPC   C1A38955  16.718   2.741   8.564
 2936POPC   D2A38956  16.757   2.738   8.264
 2936POPC   C3A38957  16.732   2.770   7.964
 2936POPC   C4A38958  16.715   2.815   7.664
 2936POPC   C1B38959  16.555   2.632   8.564
 2936POPC   C2B38960  16.524   2.614   8.264
 2936POPC   C3B38961  16.478   2.613   7.964
 2936POPC   C4B38962  16.566   2.666   7.664
 2937POPC   NC338963  43.137  34.625   9.464
 2937POPC   PO438964  43.102  34.572   9.164
 2937POPC   GL138965  43.154  34.545   8.864
 2937POPC   GL238966  43.015  34.511   8.864
 2937POPC   C1A38967  43.100  34.587   8.564
 2937POPC   D2A38968  43.113  34.534   8.264
 2937POPC   C3A38969  43.133  34.565   7.964
 2937POPC   C4A38970  43.118  34.595   7.664
 2937POPC   C1B38971  42.889  34.398   8.564
 2937POPC   C2B38972  42.952  34.440   8.264
 2937POPC   C3B38973  42.957  34.409   7.964
 2937POPC   C4B38974  42.967  34.448   7.664
 2938POPC   NC338975   3.559  40.785   9.464
 2938POPC   PO438976   3.541  40.738   9.164
 2938POPC   GL138977   3.575  40.823   8.864
 2938POPC   GL238978   3.583  40.862   8.864
 2938POPC   C1A38979   3.565  40.747   8.564
 2938POPC   D2A38980   3.513  40.814   8.264
 2938POPC   C3A38981   3.560  40.778   7.964
 2938POPC   C4A38982   3.539  40.813   7.664
 2938POPC   C1B38983   3.738  40.936   8.564
 2938POPC   C2B38984   3.695  40.945   8.264
 2938POPC   C3B38985   3.677  40.992   7.964
 2938POPC   C4B38986   3.738  40.985   7.664
 2939POPC   NC338987  43.912  23.700   9.464
 2939POPC   PO438988  43.932  23.740   9.164
 2939POPC   GL138989  43.838  23.723   8.864
 2939POPC   GL238990  43.850  23.636   8.864
 2939POPC   C1A38991  43.852  23.676   8.564
 2939POPC   D2A38992  43.901  23.703   8.264
 2939POPC   C3A38993  43.844  23.705   7.964
 2939POPC   C4A38994  43.857  23.664   7.664
 2939POPC   C1B38995  43.734  23.551   8.564
 2939POPC   C2B38996  43.737  23.494   8.264
 2939POPC   C3B38997  43.725  23.508   7.964
 2939POPC   C4B38998  43.693  23.511   7.664
 2940POPC   NC338999  26.081   5.851   9.464
 2940POPC   PO439000  26.001   5.855   9.164
 2940POPC   GL139001  26.033   5.847   8.864
 2940POPC   GL239002  26.138   5.898   8.864
 2940POPC   C1A39003  26.083   5.894   8.564
 2940POPC   D2A39004  26.056   5.906   8.264
 2940POPC   C3A39005  26.009   5.854   7.964
 2940POPC   C4A39006  26.025   5.825   7.664
 2940POPC   C1B39007  26.203   6.007   8.564
 2940POPC   C2B39008  26.237   6.035   8.264
 2940POPC   C3B39009  26.284   6.040   7.964
 2940POPC   C4B39010  26.276   6.012   7.664
 2941POPC   NC339011  43.903   9.773   9.464
 2941POPC   PO439012  43.911   9.776   9.164
 2941POPC   GL139013  43.886   9.740   8.864
 2941POPC   GL239014  44.046   9.679   8.864
 2941POPC   C1A39015  43.922   9.740   8.564
 2941POPC   D2A39016  43.905   9.792   8.264
 2941POPC   C3A39017  43.840   9.782   7.964
 2941POPC   C4A39018  43.894   9.714   7.664
 2941POPC   C1B39019  44.085   9.669   8.564
 2941POPC   C2B39020  44.122   9.685   8.264
 2941POPC   C3B39021  44.181   9.695   7.964
 2941POPC   C4B39022  44.159   9.675   7.664
 2942POPC   NC339023  22.913  23.673   9.464
 2942POPC   PO439024  22.954  23.719   9.164
 2942POPC   GL139025  22.976  23.720   8.864
 2942POPC   GL239026  23.035  23.805   8.864
 2942POPC   C1A39027  22.889  23.720   8.564
 2942POPC   D2A39028  22.978  23.699   8.264
 2942POPC   C3A39029  22.909  23.690   7.964
 2942POPC   C4A39030  22.947  23.716   7.664
 2942POPC   C1B39031  23.134  23.888   8.564
 2942POPC   C2B39032  23.092  23.893   8.264
 2942POPC   C3B39033  23.070  23.894   7.964
 2942POPC   C4B39034  23.097  23.940   7.664
 2943POPC   NC339035  41.561  29.128   9.464
 2943POPC   PO439036  41.603  29.183   9.164
 2943POPC   GL139037  41.593  29.184   8.864
 2943POPC   GL239038  41.640  29.115   8.864
 2943POPC   C1A39039  41.516  29.102   8.564
 2943POPC   D2A39040  41.598  29.139   8.264
 2943POPC   C3A39041  41.535  29.174   7.964
 2943POPC   C4A39042  41.606  29.103   7.664
 2943POPC   C1B39043  41.850  29.172   8.564
 2943POPC   C2B39044  41.769  29.106   8.264
 2943POPC   C3B39045  41.826  29.087   7.964
 2943POPC   C4B39046  41.849  29.146   7.664
 2944POPC   NC339047  27.600  43.091   9.464
 2944POPC   PO439048  27.594  43.114   9.164
 2944POPC   GL139049  27.625  43.086   8.864
 2944POPC   GL239050  27.609  43.241   8.864
 2944POPC   C1A39051  27.599  43.103   8.564
 2944POPC   D2A39052  27.596  43.132   8.264
 2944POPC   C3A39053  27.642  43.128   7.964
 2944POPC   C4A39054  27.582  43.085   7.664
 2944POPC   C1B39055  27.638  43.399   8.564
 2944POPC   C2B39056  27.604  43.344   8.264
 2944POPC   C3B39057  27.582  43.356   7.964
 2944POPC   C4B39058  27.573  43.385   7.664
 2945POPC   NC339059  15.168   7.452   9.464
 2945POPC   PO439060  15.197   7.415   9.164
 2945POPC   GL139061  15.148   7.409   8.864
 2945POPC   GL239062  15.022   7.462   8.864
 2945POPC   C1A39063  15.168   7.467   8.564
 2945POPC   D2A39064  15.176   7.459   8.264
 2945POPC   C3A39065  15.194   7.417   7.964
 2945POPC   C4A39066  15.169   7.388   7.664
 2945POPC   C1B39067  14.966   7.497   8.564
 2945POPC   C2B39068  14.928   7.429   8.264
 2945POPC   C3B39069  14.965   7.422   7.964
 2945POPC   C4B39070  14.933   7.473   7.664
 2946POPC   NC339071  14.427   9.717   9.464
 2946POPC   PO439072  14.421   9.769   9.164
 2946POPC   GL139073  14.376   9.699   8.864
 2946POPC   GL239074  14.238   9.738   8.864
 2946POPC   C1A39075  14.433   9.699   8.564
 2946POPC   D2A39076  14.354   9.769   8.264
 2946POPC   C3A39077  14.390   9.786   7.964
 2946POPC   C4A39078  14.363   9.785   7.664
 2946POPC   C1B39079  14.135   9.670   8.564
 2946POPC   C2B39080  14.165   9.674   8.264
 2946POPC   C3B39081  14.134   9.671   7.964
 2946POPC   C4B39082  14.151   9.642   7.664
 2947POPC   NC339083  10.561  40.752   9.464
 2947POPC   PO439084  10.485  40.786   9.164
 2947POPC   GL139085  10.500  40.734   8.864
 2947POPC   GL239086  10.645  40.689   8.864
 2947POPC   C1A39087  10.513  40.805   8.564
 2947POPC   D2A39088  10.517  40.790   8.264
 2947POPC   C3A39089  10.574  40.811   7.964
 2947POPC   C4A39090  10.480  40.823   7.664
 2947POPC   C1B39091  10.733  40.649   8.564
 2947POPC   C2B39092  10.739  40.600   8.264
 2947POPC   C3B39093  10.726  40.684   7.964
 2947POPC   C4B39094  10.688  40.633   7.664
 2948POPC   NC339095  14.433  42.366   9.464
 2948POPC   PO439096  14.417  42.306   9.164
 2948POPC   GL139097  14.402  42.382   8.864
 2948POPC   GL239098  14.257  42.355   8.864
 2948POPC   C1A39099  14.405  42.369   8.564
 2948POPC   D2A39100  14.393  42.366   8.264
 2948POPC   C3A39101  14.450  42.351   7.964
 2948POPC   C4A39102  14.372  42.369   7.664
 2948POPC   C1B39103  14.155  42.295   8.564
 2948POPC   C2B39104  14.177  42.332   8.264
 2948POPC   C3B39105  14.119  42.301   7.964
 2948POPC   C4B39106  14.108  42.334   7.664
 2949POPC   NC339107  19.884  11.251   9.464
 2949POPC   PO439108  19.882  11.285   9.164
 2949POPC   GL139109  19.853  11.260   8.864
 2949POPC   GL239110  19.897  11.456   8.864
 2949POPC   C1A39111  19.871  11.284   8.564
 2949POPC   D2A39112  19.871  11.251   8.264
 2949POPC   C3A39113  19.854  11.287   7.964
 2949POPC   C4A39114  19.849  11.270   7.664
 2949POPC   C1B39115  19.848  11.499   8.564
 2949POPC   C2B39116  19.871  11.557   8.264
 2949POPC   C3B39117  19.835  11.568   7.964
 2949POPC   C4B39118  19.871  11.510   7.664
 2950POPC   NC339119  30.737   9.763   9.464
 2950POPC   PO439120  30.674   9.744   9.164
 2950POPC   GL139121  30.698   9.750   8.864
 2950POPC   GL239122  30.567   9.704   8.864
 2950POPC   C1A39123  30.674   9.705   8.564
 2950POPC   D2A39124  30.676   9.742   8.264
 2950POPC   C3A39125  30.656   9.768   7.964
 2950POPC   C4A39126  30.718   9.775   7.664
 2950POPC   C1B39127  30.474   9.696   8.564
 2950POPC   C2B39128  30.440   9.689   8.264
 2950POPC   C3B39129  30.456   9.639   7.964
 2950POPC   C4B39130  30.486   9.659   7.664
 2951POPC   NC339131  12.118  10.524   9.464
 2951POPC   PO439132  12.079  10.501   9.164
 2951POPC   GL139133  12.109  10.511   8.864
 2951POPC   GL239134  12.162  10.596   8.864
 2951POPC   C1A39135  12.095  10.489   8.564
 2951POPC   D2A39136  12.100  10.567   8.264
 2951POPC   C3A39137  12.035  10.531   7.964
 2951POPC   C4A39138  12.043  10.505   7.664
 2951POPC   C1B39139  12.237  10.694   8.564
 2951POPC   C2B39140  12.226  10.665   8.264
 2951POPC   C3B39141  12.209  10.716   7.964
 2951POPC   C4B39142  12.225  10.709   7.664
 2952POPC   NC339143  13.651   1.231   9.464
 2952POPC   PO439144  13.651   1.187   9.164
 2952POPC   GL139145  13.632   1.178   8.864
 2952POPC   GL239146  13.631   1.111   8.864
 2952POPC   C1A39147  13.581   1.167   8.564
 2952POPC   D2A39148  13.635   1.232   8.264
 2952POPC   C3A39149  13.673   1.183   7.964
 2952POPC   C4A39150  13.671   1.224   7.664
 2952POPC   C1B39151  13.619   0.933   8.564
 2952POPC   C2B39152  13.665   0.959   8.264
 2952POPC   C3B39153  13.629   0.995   7.964
 2952POPC   C4B39154  13.590   1.005   7.664
 2953POPC   NC339155  40.038   2.751   9.464
 2953POPC   PO439156  40.014   2.739   9.164
 2953POPC   GL139157  39.960   2.783   8.864
 2953POPC   GL239158  40.069   2.865   8.864
 2953POPC   C1A39159  39.987   2.752   8.564
 2953POPC   D2A39160  39.964   2.798   8.264
 2953POPC   C3A39161  39.997   2.751   7.964
 2953POPC   C4A39162  39.999   2.775   7.664
 2953POPC   C1B39163  40.098   2.960   8.564
 2953POPC   C2B39164  40.129   3.025   8.264
 2953POPC   C3B39165  40.143   3.002   7.964
 2953POPC   C4B39166  40.108   3.027   7.664
 2954POPC   NC339167  15.139  26.031   9.464
 2954POPC   PO439168  15.153  26.074   9.164
 2954POPC   GL139169  15.220  26.071   8.864
 2954POPC   GL239170  15.234  26.175   8.864
 2954POPC   C1A39171  15.178  26.053   8.564
 2954POPC   D2A39172  15.140  26.040   8.264
 2954POPC   C3A39173  15.225  25.998   7.964
 2954POPC   C4A39174  15.160  26.030   7.664
 2954POPC   C1B39175  15.244  26.282   8.564
 2954POPC   C2B39176  15.188  26.320   8.264
 2954POPC   C3B39177  15.174  26.277   7.964
 2954POPC   C4B39178  15.206  26.312   7.664
 2955POPC   NC339179  22.166   2.008   9.464
 2955POPC   PO439180  22.196   2.028   9.164
 2955POPC   GL139181  22.169   1.989   8.864
 2955POPC   GL239182  22.251   2.098   8.864
 2955POPC   C1A39183  22.171   2.017   8.564
 2955POPC   D2A39184  22.153   2.005   8.264
 2955POPC   C3A39185  22.151   2.040   7.964
 2955POPC   C4A39186  22.122   2.004   7.664
 2955POPC   C1B39187  22.355   2.165   8.564
 2955POPC   C2B39188  22.392   2.120   8.264
 2955POPC   C3B39189  22.380   2.148   7.964
 2955POPC   C4B39190  22.419   2.117   7.664
 2956POPC   NC339191  37.645  12.864   9.464
 2956POPC   PO439192  37.702  12.832   9.164
 2956POPC   GL139193  37.640  12.807   8.864
 2956POPC   GL239194  37.788  12.732   8.864
 2956POPC   C1A39195  37.632  12.810   8.564
 2956POPC   D2A39196  37.664  12.852   8.264
 2956POPC   C3A39197  37.725  12.902   7.964
 2956POPC   C4A39198  37.654  12.846   7.664
 2956POPC   C1B39199  37.814  12.706   8.564
 2956POPC   C2B39200  37.832  12.710   8.264
 2956POPC   C3B39201  37.888  12.672   7.964
 2956POPC   C4B39202  37.881  12.700   7.664
 2957POPC   NC339203   8.208  25.291   9.464
 2957POPC   PO439204   8.233  25.285   9.164
 2957POPC   GL139205   8.198  25.291   8.864
 2957POPC   GL239206   8.131  25.116   8.864
 2957POPC   C1A39207   8.182  25.281   8.564
 2957POPC   D2A39208   8.178  25.246   8.264
 2957POPC   C3A39209   8.196  25.235   7.964
 2957POPC   C4A39210   8.182  25.303   7.664
 2957POPC   C1B39211   8.176  24.987   8.564
 2957POPC   C2B39212   8.137  24.994   8.264
 2957POPC   C3B39213   8.202  24.990   7.964
 2957POPC   C4B39214   8.146  24.976   7.664
 2958POPC   NC339215  25.242  10.549   9.464
 2958POPC   PO439216  25.288  10.480   9.164
 2958POPC   GL139217  25.307  10.533   8.864
 2958POPC   GL239218  25.278  10.449   8.864
 2958POPC   C1A39219  25.304  10.494   8.564
 2958POPC   D2A39220  25.288  10.529   8.264
 2958POPC   C3A39221  25.216  10.520   7.964
 2958POPC   C4A39222  25.269  10.557   7.664
 2958POPC   C1B39223  25.242  10.298   8.564
 2958POPC   C2B39224  25.311  10.281   8.264
 2958POPC   C3B39225  25.277  10.275   7.964
 2958POPC   C4B39226  25.300  10.314   7.664
 2959POPC   NC339227   4.341  14.362   9.464
 2959POPC   PO439228   4.367  14.365   9.164
 2959POPC   GL139229   4.290  14.393   8.864
 2959POPC   GL239230   4.476  14.379   8.864
 2959POPC   C1A39231   4.269  14.372   8.564
 2959POPC   D2A39232   4.309  14.388   8.264
 2959POPC   C3A39233   4.361  14.449   7.964
 2959POPC   C4A39234   4.267  14.443   7.664
 2959POPC   C1B39235   4.487  14.309   8.564
 2959POPC   C2B39236   4.524  14.299   8.264
 2959POPC   C3B39237   4.569  14.324   7.964
 2959POPC   C4B39238   4.546  14.250   7.664
 2960POPC   NC339239  18.240   3.501   9.464
 2960POPC   PO439240  18.260   3.587   9.164
 2960POPC   GL139241  18.309   3.590   8.864
 2960POPC   GL239242  18.257   3.377   8.864
 2960POPC   C1A39243  18.240   3.573   8.564
 2960POPC   D2A39244  18.247   3.585   8.264
 2960POPC   C3A39245  18.259   3.567   7.964
 2960POPC   C4A39246  18.274   3.512   7.664
 2960POPC   C1B39247  18.274   3.322   8.564
 2960POPC   C2B39248  18.302   3.311   8.264
 2960POPC   C3B39249  18.221   3.313   7.964
 2960POPC   C4B39250  18.296   3.282   7.664
 2961POPC   NC339251  44.652  29.177   9.464
 2961POPC   PO439252  44.685  29.182   9.164
 2961POPC   GL139253  44.654  29.157   8.864
 2961POPC   GL239254  44.798  29.140   8.864
 2961POPC   C1A39255  44.655  29.142   8.564
 2961POPC   D2A39256  44.653  29.150   8.264
 2961POPC   C3A39257  44.666  29.181   7.964
 2961POPC   C4A39258  44.694  29.192   7.664
 2961POPC   C1B39259  44.915  29.005   8.564
 2961POPC   C2B39260  44.846  29.103   8.264
 2961POPC   C3B39261  44.899  29.030   7.964
 2961POPC   C4B39262  44.893  29.080   7.664
 2962POPC   NC339263  10.482  15.982   9.464
 2962POPC   PO439264  10.507  15.957   9.164
 2962POPC   GL139265  10.560  15.954   8.864
 2962POPC   GL239266  10.408  16.006   8.864
 2962POPC   C1A39267  10.503  15.906   8.564
 2962POPC   D2A39268  10.498  15.911   8.264
 2962POPC   C3A39269  10.509  16.002   7.964
 2962POPC   C4A39270  10.531  15.929   7.664
 2962POPC   C1B39271  10.258  16.029   8.564
 2962POPC   C2B39272  10.342  16.064   8.264
 2962POPC   C3B39273  10.314  16.008   7.964
 2962POPC   C4B39274  10.277  16.027   7.664
 2963POPC   NC339275  13.675  31.476   9.464
 2963POPC   PO439276  13.608  31.456   9.164
 2963POPC   GL139277  13.648  31.516   8.864
 2963POPC   GL239278  13.557  31.552   8.864
 2963POPC   C1A39279  13.630  31.485   8.564
 2963POPC   D2A39280  13.639  31.464   8.264
 2963POPC   C3A39281  13.587  31.442   7.964
 2963POPC   C4A39282  13.628  31.499   7.664
 2963POPC   C1B39283  13.434  31.561   8.564
 2963POPC   C2B39284  13.389  31.564   8.264
 2963POPC   C3B39285  13.366  31.504   7.964
 2963POPC   C4B39286  13.388  31.537   7.664
 2964POPC   NC339287  31.475  19.834   9.464
 2964POPC   PO439288  31.495  19.843   9.164
 2964POPC   GL139289  31.504  19.835   8.864
 2964POPC   GL239290  31.444  19.973   8.864
 2964POPC   C1A39291  31.480  19.790   8.564
 2964POPC   D2A39292  31.507  19.795   8.264
 2964POPC   C3A39293  31.447  19.798   7.964
 2964POPC   C4A39294  31.492  19.823   7.664
 2964POPC   C1B39295  31.504  20.128   8.564
 2964POPC   C2B39296  31.461  20.068   8.264
 2964POPC   C3B39297  31.532  20.070   7.964
 2964POPC   C4B39298  31.489  20.105   7.664
 2965POPC   NC339299  16.714  36.088   9.464
 2965POPC   PO439300  16.704  36.122   9.164
 2965POPC   GL139301  16.714  36.093   8.864
 2965POPC   GL239302  16.840  36.192   8.864
 2965POPC   C1A39303  16.723  36.147   8.564
 2965POPC   D2A39304  16.768  36.091   8.264
 2965POPC   C3A39305  16.683  36.159   7.964
 2965POPC   C4A39306  16.770  36.108   7.664
 2965POPC   C1B39307  16.909  36.286   8.564
 2965POPC   C2B39308  16.911  36.267   8.264
 2965POPC   C3B39309  16.955  36.258   7.964
 2965POPC   C4B39310  16.940  36.216   7.664
 2966POPC   NC339311   1.238  43.132   9.464
 2966POPC   PO439312   1.183  43.133   9.164
 2966POPC   GL139313   1.261  43.125   8.864
 2966POPC   GL239314   1.287  43.224   8.864
 2966POPC   C1A39315   1.221  43.149   8.564
 2966POPC   D2A39316   1.186  43.070   8.264
 2966POPC   C3A39317   1.223  43.080   7.964
 2966POPC   C4A39318   1.252  43.145   7.664
 2966POPC   C1B39319   1.329  43.337   8.564
 2966POPC   C2B39320   1.321  43.337   8.264
 2966POPC   C3B39321   1.272  43.386   7.964
 2966POPC   C4B39322   1.274  43.330   7.664
 2967POPC   NC339323   1.258  33.048   9.464
 2967POPC   PO439324   1.250  33.019   9.164
 2967POPC   GL139325   1.165  33.016   8.864
 2967POPC   GL239326   1.184  33.154   8.864
 2967POPC   C1A39327   1.206  33.041   8.564
 2967POPC   D2A39328   1.248  33.072   8.264
 2967POPC   C3A39329   1.224  33.030   7.964
 2967POPC   C4A39330   1.245  32.989   7.664
 2967POPC   C1B39331   1.026  33.175   8.564
 2967POPC   C2B39332   1.084  33.237   8.264
 2967POPC   C3B39333   1.072  33.195   7.964
 2967POPC   C4B39334   1.062  33.229   7.664
 2968POPC   NC339335  18.325   4.307   9.464
 2968POPC   PO439336  18.298   4.335   9.164
 2968POPC   GL139337  18.267   4.309   8.864
 2968POPC   GL239338  18.455   4.318   8.864
 2968POPC   C1A39339  18.248   4.272   8.564
 2968POPC   D2A39340  18.302   4.346   8.264
 2968POPC   C3A39341  18.234   4.292   7.964
 2968POPC   C4A39342  18.266   4.269   7.664
 2968POPC   C1B39343  18.576   4.257   8.564
 2968POPC   C2B39344  18.486   4.288   8.264
 2968POPC   C3B39345  18.483   4.266   7.964
 2968POPC   C4B39346  18.564   4.266   7.664
 2969POPC   NC339347  11.297  43.860   9.464
 2969POPC   PO439348  11.297  43.902   9.164
 2969POPC   GL139349  11.296  43.916   8.864
 2969POPC   GL239350  11.339  43.776   8.864
 2969POPC   C1A39351  11.276  43.920   8.564
 2969POPC   D2A39352  11.339  43.837   8.264
 2969POPC   C3A39353  11.305  43.908   7.964
 2969POPC   C4A39354  11.344  43.862   7.664
 2969POPC   C1B39355  11.425  43.654   8.564
 2969POPC   C2B39356  11.455  43.735   8.264
 2969POPC   C3B39357  11.457  43.662   7.964
 2969POPC   C4B39358  11.408  43.704   7.664
 2970POPC   NC339359  29.922  11.316   9.464
 2970POPC   PO439360  29.873  11.302   9.164
 2970POPC   GL139361  29.912  11.311   8.864
 2970POPC   GL239362  29.790  11.328   8.864
 2970POPC   C1A39363  29.876  11.310   8.564
 2970POPC   D2A39364  29.881  11.262   8.264
 2970POPC   C3A39365  29.953  11.261   7.964
 2970POPC   C4A39366  29.885  11.325   7.664
 2970POPC   C1B39367  29.687  11.351   8.564
 2970POPC   C2B39368  29.644  11.341   8.264
 2970POPC   C3B39369  29.633  11.309   7.964
 2970POPC   C4B39370  29.634  11.352   7.664
 2971POPC   NC339371   6.645  26.866   9.464
 2971POPC   PO439372   6.600  26.854   9.164
 2971POPC   GL139373   6.610  26.802   8.864
 2971POPC   GL239374   6.753  26.968   8.864
 2971POPC   C1A39375   6.637  26.825   8.564
 2971POPC   D2A39376   6.681  26.793   8.264
 2971POPC   C3A39377   6.661  26.821   7.964
 2971POPC   C4A39378   6.654  26.790   7.664
 2971POPC   C1B39379   6.789  27.000   8.564
 2971POPC   C2B39380   6.791  26.985   8.264
 2971POPC   C3B39381   6.760  27.049   7.964
 2971POPC   C4B39382   6.754  27.060   7.664
 2972POPC   NC339383  29.106  36.103   9.464
 2972POPC   PO439384  29.128  36.165   9.164
 2972POPC   GL139385  29.157  36.081   8.864
 2972POPC   GL239386  29.075  36.001   8.864
 2972POPC   C1A39387  29.124  36.169   8.564
 2972POPC   D2A39388  29.186  36.115   8.264
 2972POPC   C3A39389  29.191  36.169   7.964
 2972POPC   C4A39390  29.152  36.160   7.664
 2972POPC   C1B39391  29.083  35.845   8.564
 2972POPC   C2B39392  29.114  35.904   8.264
 2972POPC   C3B39393  29.065  35.931   7.964
 2972POPC   C4B39394  29.066  35.893   7.664
 2973POPC   NC339395  29.962  26.051   9.464
 2973POPC   PO439396  29.899  26.003   9.164
 2973POPC   GL139397  29.908  25.995   8.864
 2973POPC   GL239398  29.878  25.942   8.864
 2973POPC   C1A39399  29.910  26.015   8.564
 2973POPC   D2A39400  29.943  26.082   8.264
 2973POPC   C3A39401  29.909  26.025   7.964
 2973POPC   C4A39402  29.940  26.029   7.664
 2973POPC   C1B39403  29.862  25.823   8.564
 2973POPC   C2B39404  29.940  25.821   8.264
 2973POPC   C3B39405  29.907  25.820   7.964
 2973POPC   C4B39406  29.890  25.793   7.664
 2974POPC   NC339407  39.979  10.532   9.464
 2974POPC   PO439408  40.014  10.500   9.164
 2974POPC   GL139409  39.985  10.514   8.864
 2974POPC   GL239410  40.081  10.445   8.864
 2974POPC   C1A39411  39.961  10.560   8.564
 2974POPC   D2A39412  39.986  10.537   8.264
 2974POPC   C3A39413  39.975  10.478   7.964
 2974POPC   C4A39414  39.958  10.487   7.664
 2974POPC   C1B39415  40.283  10.429   8.564
 2974POPC   C2B39416  40.265  10.423   8.264
 2974POPC   C3B39417  40.255  10.404   7.964
 2974POPC   C4B39418  40.238  10.393   7.664
 2975POPC   NC339419  10.525  18.310   9.464
 2975POPC   PO439420  10.556  18.313   9.164
 2975POPC   GL139421  10.492  18.248   8.864
 2975POPC   GL239422  10.530  18.394   8.864
 2975POPC   C1A39423  10.572  18.298   8.564
 2975POPC   D2A39424  10.543  18.268   8.264
 2975POPC   C3A39425  10.570  18.244   7.964
 2975POPC   C4A39426  10.556  18.262   7.664
 2975POPC   C1B39427  10.497  18.555   8.564
 2975POPC   C2B39428  10.453  18.514   8.264
 2975POPC   C3B39429  10.440  18.527   7.964
 2975POPC   C4B39430  10.460  18.549   7.664
 2976POPC   NC339431   2.761  15.940   9.464
 2976POPC   PO439432   2.760  15.977   9.164
 2976POPC   GL139433   2.788  15.934   8.864
 2976POPC   GL239434   2.819  16.091   8.864
 2976POPC   C1A39435   2.767  15.926   8.564
 2976POPC   D2A39436   2.735  15.979   8.264
 2976POPC   C3A39437   2.812  15.907   7.964
 2976POPC   C4A39438   2.761  15.996   7.664
 2976POPC   C1B39439   2.879  16.152   8.564
 2976POPC   C2B39440   2.907  16.170   8.264
 2976POPC   C3B39441   2.926  16.189   7.964
 2976POPC   C4B39442   2.931  16.120   7.664
 2977POPC   NC339443  12.822  43.085   9.464
 2977POPC   PO439444  12.858  43.138   9.164
 2977POPC   GL139445  12.807  43.081   8.864
 2977POPC   GL239446  12.805  43.017   8.864
 2977POPC   C1A39447  12.814  43.071   8.564
 2977POPC   D2A39448  12.815  43.157   8.264
 2977POPC   C3A39449  12.811  43.062   7.964
 2977POPC   C4A39450  12.867  43.121   7.664
 2977POPC   C1B39451  12.836  42.873   8.564
 2977POPC   C2B39452  12.876  42.821   8.264
 2977POPC   C3B39453  12.865  42.859   7.964
 2977POPC   C4B39454  12.786  42.866   7.664
 2978POPC   NC339455  42.365  36.082   9.464
 2978POPC   PO439456  42.350  36.085   9.164
 2978POPC   GL139457  42.316  36.082   8.864
 2978POPC   GL239458  42.420  36.244   8.864
 2978POPC   C1A39459  42.299  36.167   8.564
 2978POPC   D2A39460  42.320  36.159   8.264
 2978POPC   C3A39461  42.312  36.167   7.964
 2978POPC   C4A39462  42.302  36.108   7.664
 2978POPC   C1B39463  42.502  36.285   8.564
 2978POPC   C2B39464  42.431  36.307   8.264
 2978POPC   C3B39465  42.486  36.294   7.964
 2978POPC   C4B39466  42.487  36.314   7.664
 2979POPC   NC339467   3.588  28.343   9.464
 2979POPC   PO439468   3.554  28.320   9.164
 2979POPC   GL139469   3.571  28.340   8.864
 2979POPC   GL239470   3.550  28.217   8.864
 2979POPC   C1A39471   3.510  28.387   8.564
 2979POPC   D2A39472   3.531  28.320   8.264
 2979POPC   C3A39473   3.565  28.352   7.964
 2979POPC   C4A39474   3.529  28.320   7.664
 2979POPC   C1B39475   3.532  28.159   8.564
 2979POPC   C2B39476   3.616  28.150   8.264
 2979POPC   C3B39477   3.556  28.163   7.964
 2979POPC   C4B39478   3.599  28.112   7.664
 2980POPC   NC339479   1.959  43.093   9.464
 2980POPC   PO439480   2.008  43.105   9.164
 2980POPC   GL139481   1.979  43.135   8.864
 2980POPC   GL239482   1.939  43.212   8.864
 2980POPC   C1A39483   1.971  43.100   8.564
 2980POPC   D2A39484   2.010  43.088   8.264
 2980POPC   C3A39485   1.954  43.133   7.964
 2980POPC   C4A39486   1.960  43.154   7.664
 2980POPC   C1B39487   1.808  43.274   8.564
 2980POPC   C2B39488   1.831  43.282   8.264
 2980POPC   C3B39489   1.860  43.275   7.964
 2980POPC   C4B39490   1.818  43.299   7.664
 2981POPC   NC339491   2.765  42.297   9.464
 2981POPC   PO439492   2.797  42.382   9.164
 2981POPC   GL139493   2.779  42.374   8.864
 2981POPC   GL239494   2.664  42.322   8.864
 2981POPC   C1A39495   2.720  42.305   8.564
 2981POPC   D2A39496   2.766  42.290   8.264
 2981POPC   C3A39497   2.733  42.384   7.964
 2981POPC   C4A39498   2.759  42.327   7.664
 2981POPC   C1B39499   2.502  42.303   8.564
 2981POPC   C2B39500   2.556  42.286   8.264
 2981POPC   C3B39501   2.539  42.245   7.964
 2981POPC   C4B39502   2.494  42.315   7.664
 2982POPC   NC339503   3.537   0.400   9.464
 2982POPC   PO439504   3.583   0.403   9.164
 2982POPC   GL139505   3.523   0.450   8.864
 2982POPC   GL239506   3.697   0.401   8.864
 2982POPC   C1A39507   3.580   0.482   8.564
 2982POPC   D2A39508   3.545   0.412   8.264
 2982POPC   C3A39509   3.558   0.432   7.964
 2982POPC   C4A39510   3.560   0.399   7.664
 2982POPC   C1B39511   3.806   0.363   8.564
 2982POPC   C2B39512   3.817   0.408   8.264
 2982POPC   C3B39513   3.808   0.343   7.964
 2982POPC   C4B39514   3.742   0.412   7.664
 2983POPC   NC339515   5.109  36.126   9.464
 2983POPC   PO439516   5.088  36.140   9.164
 2983POPC   GL139517   5.076  36.154   8.864
 2983POPC   GL239518   5.008  35.979   8.864
 2983POPC   C1A39519   5.118  36.166   8.564
 2983POPC   D2A39520   5.049  36.169   8.264
 2983POPC   C3A39521   5.100  36.094   7.964
 2983POPC   C4A39522   5.111  36.110   7.664
 2983POPC   C1B39523   5.026  35.918   8.564
 2983POPC   C2B39524   5.034  35.893   8.264
 2983POPC   C3B39525   5.042  35.888   7.964
 2983POPC   C4B39526   5.032  35.927   7.664
 2984POPC   NC339527  13.676  43.886   9.464
 2984POPC   PO439528  13.655  43.902   9.164
 2984POPC   GL139529  13.626  43.855   8.864
 2984POPC   GL239530  13.527  43.957   8.864
 2984POPC   C1A39531  13.627  43.842   8.564
 2984POPC   D2A39532  13.629  43.867   8.264
 2984POPC   C3A39533  13.623  43.877   7.964
 2984POPC   C4A39534  13.653  43.925   7.664
 2984POPC   C1B39535  13.461  44.077   8.564
 2984POPC   C2B39536  13.529  44.081   8.264
 2984POPC   C3B39537  13.529  44.111   7.964
 2984POPC   C4B39538  13.544  44.078   7.664
 2985POPC   NC339539  22.190   0.395   9.464
 2985POPC   PO439540  22.146   0.403   9.164
 2985POPC   GL139541  22.152   0.393   8.864
 2985POPC   GL239542  22.046   0.526   8.864
 2985POPC   C1A39543  22.145   0.419   8.564
 2985POPC   D2A39544  22.212   0.388   8.264
 2985POPC   C3A39545  22.177   0.403   7.964
 2985POPC   C4A39546  22.151   0.449   7.664
 2985POPC   C1B39547  21.966   0.577   8.564
 2985POPC   C2B39548  21.914   0.582   8.264
 2985POPC   C3B39549  21.899   0.504   7.964
 2985POPC   C4B39550  21.921   0.533   7.664
 2986POPC   NC339551  23.712  30.664   9.464
 2986POPC   PO439552  23.705  30.658   9.164
 2986POPC   GL139553  23.684  30.694   8.864
 2986POPC   GL239554  23.884  30.710   8.864
 2986POPC   C1A39555  23.666  30.686   8.564
 2986POPC   D2A39556  23.752  30.657   8.264
 2986POPC   C3A39557  23.750  30.702   7.964
 2986POPC   C4A39558  23.716  30.716   7.664
 2986POPC   C1B39559  23.992  30.671   8.564
 2986POPC   C2B39560  23.979  30.621   8.264
 2986POPC   C3B39561  23.940  30.661   7.964
 2986POPC   C4B39562  23.988  30.618   7.664
 2987POPC   NC339563  37.667  31.470   9.464
 2987POPC   PO439564  37.654  31.489   9.164
 2987POPC   GL139565  37.662  31.475   8.864
 2987POPC   GL239566  37.822  31.518   8.864
 2987POPC   C1A39567  37.639  31.426   8.564
 2987POPC   D2A39568  37.703  31.504   8.264
 2987POPC   C3A39569  37.630  31.429   7.964
 2987POPC   C4A39570  37.677  31.437   7.664
 2987POPC   C1B39571  37.896  31.526   8.564
 2987POPC   C2B39572  37.915  31.548   8.264
 2987POPC   C3B39573  37.962  31.455   7.964
 2987POPC   C4B39574  37.903  31.497   7.664
 2988POPC   NC339575   8.204   8.982   9.464
 2988POPC   PO439576   8.167   8.946   9.164
 2988POPC   GL139577   8.197   8.995   8.864
 2988POPC   GL239578   8.106   9.057   8.864
 2988POPC   C1A39579   8.149   8.977   8.564
 2988POPC   D2A39580   8.206   9.002   8.264
 2988POPC   C3A39581   8.159   9.007   7.964
 2988POPC   C4A39582   8.205   8.974   7.664
 2988POPC   C1B39583   8.055   9.129   8.564
 2988POPC   C2B39584   8.025   9.139   8.264
 2988POPC   C3B39585   8.002   9.099   7.964
 2988POPC   C4B39586   8.053   9.123   7.664
 2989POPC   NC339587  32.975   2.783   9.464
 2989POPC   PO439588  33.063   2.760   9.164
 2989POPC   GL139589  33.025   2.773   8.864
 2989POPC   GL239590  32.911   2.713   8.864
 2989POPC   C1A39591  33.053   2.744   8.564
 2989POPC   D2A39592  32.980   2.773   8.264
 2989POPC   C3A39593  33.057   2.795   7.964
 2989POPC   C4A39594  33.065   2.796   7.664
 2989POPC   C1B39595  32.804   2.636   8.564
 2989POPC   C2B39596  32.870   2.566   8.264
 2989POPC   C3B39597  32.838   2.584   7.964
 2989POPC   C4B39598  32.819   2.636   7.664
 2990POPC   NC339599  11.309  26.090   9.464
 2990POPC   PO439600  11.346  26.057   9.164
 2990POPC   GL139601  11.307  26.077   8.864
 2990POPC   GL239602  11.444  25.974   8.864
 2990POPC   C1A39603  11.305  26.009   8.564
 2990POPC   D2A39604  11.272  26.072   8.264
 2990POPC   C3A39605  11.328  26.029   7.964
 2990POPC   C4A39606  11.295  26.028   7.664
 2990POPC   C1B39607  11.532  26.033   8.564
 2990POPC   C2B39608  11.502  25.942   8.264
 2990POPC   C3B39609  11.535  26.016   7.964
 2990POPC   C4B39610  11.579  26.030   7.664
 2991POPC   NC339611  24.539   5.820   9.464
 2991POPC   PO439612  24.457   5.902   9.164
 2991POPC   GL139613  24.488   5.858   8.864
 2991POPC   GL239614  24.617   5.851   8.864
 2991POPC   C1A39615  24.522   5.860   8.564
 2991POPC   D2A39616  24.505   5.827   8.264
 2991POPC   C3A39617  24.525   5.867   7.964
 2991POPC   C4A39618  24.487   5.891   7.664
 2991POPC   C1B39619  24.703   5.791   8.564
 2991POPC   C2B39620  24.748   5.802   8.264
 2991POPC   C3B39621  24.666   5.769   7.964
 2991POPC   C4B39622  24.742   5.726   7.664
 2992POPC   NC339623  28.326  29.128   9.464
 2992POPC   PO439624  28.380  29.176   9.164
 2992POPC   GL139625  28.321  29.111   8.864
 2992POPC   GL239626  28.435  29.182   8.864
 2992POPC   C1A39627  28.395  29.108   8.564
 2992POPC   D2A39628  28.383  29.134   8.264
 2992POPC   C3A39629  28.365  29.103   7.964
 2992POPC   C4A39630  28.365  29.142   7.664
 2992POPC   C1B39631  28.571  29.336   8.564
 2992POPC   C2B39632  28.555  29.294   8.264
 2992POPC   C3B39633  28.531  29.267   7.964
 2992POPC   C4B39634  28.556  29.337   7.664
 2993POPC   NC339635   8.233  41.573   9.464
 2993POPC   PO439636   8.173  41.596   9.164
 2993POPC   GL139637   8.245  41.550   8.864
 2993POPC   GL239638   8.152  41.467   8.864
 2993POPC   C1A39639   8.199  41.526   8.564
 2993POPC   D2A39640   8.180  41.539   8.264
 2993POPC   C3A39641   8.198  41.585   7.964
 2993POPC   C4A39642   8.206  41.532   7.664
 2993POPC   C1B39643   8.162  41.328   8.564
 2993POPC   C2B39644   8.168  41.290   8.264
 2993POPC   C3B39645   8.085  41.269   7.964
 2993POPC   C4B39646   8.158  41.306   7.664
 2994POPC   NC339647   3.502  29.125   9.464
 2994POPC   PO439648   3.558  29.102   9.164
 2994POPC   GL139649   3.533  29.152   8.864
 2994POPC   GL239650   3.424  29.077   8.864
 2994POPC   C1A39651   3.515  29.152   8.564
 2994POPC   D2A39652   3.492  29.164   8.264
 2994POPC   C3A39653   3.574  29.100   7.964
 2994POPC   C4A39654   3.557  29.128   7.664
 2994POPC   C1B39655   3.403  28.916   8.564
 2994POPC   C2B39656   3.423  28.919   8.264
 2994POPC   C3B39657   3.391  28.944   7.964
 2994POPC   C4B39658   3.434  28.904   7.664
 2995POPC   NC339659   6.659  13.630   9.464
 2995POPC   PO439660   6.600  13.641   9.164
 2995POPC   GL139661   6.646  13.607   8.864
 2995POPC   GL239662   6.650  13.531   8.864
 2995POPC   C1A39663   6.682  13.657   8.564
 2995POPC   D2A39664   6.620  13.589   8.264
 2995POPC   C3A39665   6.646  13.654   7.964
 2995POPC   C4A39666   6.603  13.623   7.664
 2995POPC   C1B39667   6.568  13.426   8.564
 2995POPC   C2B39668   6.620  13.400   8.264
 2995POPC   C3B39669   6.566  13.362   7.964
 2995POPC   C4B39670   6.592  13.346   7.664
 2996POPC   NC339671  36.086  29.129   9.464
 2996POPC   PO439672  36.128  29.105   9.164
 2996POPC   GL139673  36.108  29.122   8.864
 2996POPC   GL239674  36.007  29.073   8.864
 2996POPC   C1A39675  36.158  29.109   8.564
 2996POPC   D2A39676  36.104  29.139   8.264
 2996POPC   C3A39677  36.152  29.143   7.964
 2996POPC   C4A39678  36.096  29.185   7.664
 2996POPC   C1B39679  35.874  29.003   8.564
 2996POPC   C2B39680  35.958  29.045   8.264
 2996POPC   C3B39681  35.923  29.023   7.964
 2996POPC   C4B39682  35.895  29.022   7.664
 2997POPC   NC339683   1.184  11.311   9.464
 2997POPC   PO439684   1.227  11.316   9.164
 2997POPC   GL139685   1.232  11.328   8.864
 2997POPC   GL239686   1.213  11.382   8.864
 2997POPC   C1A39687   1.217  11.319   8.564
 2997POPC   D2A39688   1.197  11.283   8.264
 2997POPC   C3A39689   1.200  11.261   7.964
 2997POPC   C4A39690   1.221  11.253   7.664
 2997POPC   C1B39691   1.285  11.516   8.564
 2997POPC   C2B39692   1.227  11.519   8.264
 2997POPC   C3B39693   1.216  11.550   7.964
 2997POPC   C4B39694   1.293  11.522   7.664
 2998POPC   NC339695   7.404  42.314   9.464
 2998POPC   PO439696   7.411  42.366   9.164
 2998POPC   GL139697   7.444  42.370   8.864
 2998POPC   GL239698   7.537  42.322   8.864
 2998POPC   C1A39699   7.376  42.288   8.564
 2998POPC   D2A39700   7.463  42.320   8.264
 2998POPC   C3A39701   7.399  42.332   7.964
 2998POPC   C4A39702   7.438  42.357   7.664
 2998POPC   C1B39703   7.625  42.281   8.564
 2998POPC   C2B39704   7.708  42.307   8.264
 2998POPC   C3B39705   7.622  42.262   7.964
 2998POPC   C4B39706   7.661  42.331   7.664
 2999POPC   NC339707  26.015   4.328   9.464
 2999POPC   PO439708  26.024   4.303   9.164
 2999POPC   GL139709  26.056   4.269   8.864
 2999POPC   GL239710  25.999   4.249   8.864
 2999POPC   C1A39711  26.054   4.303   8.564
 2999POPC   D2A39712  26.010   4.309   8.264
 2999POPC   C3A39713  25.996   4.301   7.964
 2999POPC   C4A39714  26.086   4.310   7.664
 2999POPC   C1B39715  25.920   4.082   8.564
 2999POPC   C2B39716  25.880   4.145   8.264
 2999POPC   C3B39717  25.891   4.072   7.964
 2999POPC   C4B39718  25.883   4.111   7.664
 3000POPC   NC339719  14.405  29.161   9.464
 3000POPC   PO439720  14.420  29.168   9.164
 3000POPC   GL139721  14.364  29.151   8.864
 3000POPC   GL239722  14.257  29.106   8.864
 3000POPC   C1A39723  14.434  29.104   8.564
 3000POPC   D2A39724  14.354  29.120   8.264
 3000POPC   C3A39725  14.405  29.187   7.964
 3000POPC   C4A39726  14.374  29.136   7.664
 3000POPC   C1B39727  14.203  29.074   8.564
 3000POPC   C2B39728  14.198  29.133   8.264
 3000POPC   C3B39729  14.177  29.130   7.964
 3000POPC   C4B39730  14.181  29.115   7.664
 3001POPC   NC339731   1.940  15.203   9.464
 3001POPC   PO439732   2.019  15.182   9.164
 3001POPC   GL139733   2.016  15.202   8.864
 3001POPC   GL239734   1.910  15.298   8.864
 3001POPC   C1A39735   1.964  15.182   8.564
 3001POPC   D2A39736   1.974  15.164   8.264
 3001POPC   C3A39737   2.020  15.132   7.964
 3001POPC   C4A39738   1.976  15.191   7.664
 3001POPC   C1B39739   1.843  15.444   8.564
 3001POPC   C2B39740   1.859  15.445   8.264
 3001POPC   C3B39741   1.865  15.358   7.964
 3001POPC   C4B39742   1.848  15.425   7.664
 3002POPC   NC339743   4.345  32.258   9.464
 3002POPC   PO439744   4.270  32.220   9.164
 3002POPC   GL139745   4.267  32.223   8.864
 3002POPC   GL239746   4.208  32.176   8.864
 3002POPC   C1A39747   4.304  32.295   8.564
 3002POPC   D2A39748   4.340  32.290   8.264
 3002POPC   C3A39749   4.313  32.238   7.964
 3002POPC   C4A39750   4.304  32.270   7.664
 3002POPC   C1B39751   4.052  32.159   8.564
 3002POPC   C2B39752   4.099  32.203   8.264
 3002POPC   C3B39753   4.098  32.130   7.964
 3002POPC   C4B39754   4.040  32.155   7.664
 3003POPC   NC339755  40.741  39.209   9.464
 3003POPC   PO439756  40.739  39.270   9.164
 3003POPC   GL139757  40.811  39.205   8.864
 3003POPC   GL239758  40.921  39.267   8.864
 3003POPC   C1A39759  40.824  39.277   8.564
 3003POPC   D2A39760  40.818  39.269   8.264
 3003POPC   C3A39761  40.745  39.269   7.964
 3003POPC   C4A39762  40.789  39.213   7.664
 3003POPC   C1B39763  40.998  39.338   8.564
 3003POPC   C2B39764  41.026  39.354   8.264
 3003POPC   C3B39765  41.040  39.275   7.964
 3003POPC   C4B39766  41.026  39.274   7.664
 3004POPC   NC339767   9.702  37.663   9.464
 3004POPC   PO439768   9.787  37.710   9.164
 3004POPC   GL139769   9.789  37.685   8.864
 3004POPC   GL239770   9.847  37.553   8.864
 3004POPC   C1A39771   9.795  37.695   8.564
 3004POPC   D2A39772   9.738  37.673   8.264
 3004POPC   C3A39773   9.762  37.667   7.964
 3004POPC   C4A39774   9.717  37.655   7.664
 3004POPC   C1B39775   9.951  37.481   8.564
 3004POPC   C2B39776   9.957  37.525   8.264
 3004POPC   C3B39777   9.878  37.494   7.964
 3004POPC   C4B39778   9.887  37.550   7.664
 3005POPC   NC339779   5.074  12.060   9.464
 3005POPC   PO439780   5.095  12.102   9.164
 3005POPC   GL139781   5.123  12.116   8.864
 3005POPC   GL239782   5.196  11.966   8.864
 3005POPC   C1A39783   5.108  12.052   8.564
 3005POPC   D2A39784   5.073  12.111   8.264
 3005POPC   C3A39785   5.129  12.097   7.964
 3005POPC   C4A39786   5.062  12.080   7.664
 3005POPC   C1B39787   5.172  11.822   8.564
 3005POPC   C2B39788   5.176  11.883   8.264
 3005POPC   C3B39789   5.225  11.893   7.964
 3005POPC   C4B39790   5.194  11.887   7.664
 3006POPC   NC339791  32.199  14.384   9.464
 3006POPC   PO439792  32.255  14.443   9.164
 3006POPC   GL139793  32.263  14.369   8.864
 3006POPC   GL239794  32.370  14.403   8.864
 3006POPC   C1A39795  32.249  14.442   8.564
 3006POPC   D2A39796  32.258  14.370   8.264
 3006POPC   C3A39797  32.238  14.357   7.964
 3006POPC   C4A39798  32.240  14.358   7.664
 3006POPC   C1B39799  32.472  14.354   8.564
 3006POPC   C2B39800  32.503  14.415   8.264
 3006POPC   C3B39801  32.489  14.414   7.964
 3006POPC   C4B39802  32.455  14.391   7.664
 3007POPC   NC339803  27.595   5.883   9.464
 3007POPC   PO439804  27.588   5.885   9.164
 3007POPC   GL139805  27.605   5.888   8.864
 3007POPC   GL239806  27.543   6.011   8.864
 3007POPC   C1A39807  27.635   5.893   8.564
 3007POPC   D2A39808  27.567   5.883   8.264
 3007POPC   C3A39809  27.624   5.838   7.964
 3007POPC   C4A39810  27.627   5.849   7.664
 3007POPC   C1B39811  27.495   6.118   8.564
 3007POPC   C2B39812  27.406   6.118   8.264
 3007POPC   C3B39813  27.469   6.097   7.964
 3007POPC   C4B39814  27.414   6.121   7.664
 3008POPC   NC339815  14.452  33.011   9.464
 3008POPC   PO439816  14.373  32.993   9.164
 3008POPC   GL139817  14.426  33.036   8.864
 3008POPC   GL239818  14.456  32.922   8.864
 3008POPC   C1A39819  14.436  33.037   8.564
 3008POPC   D2A39820  14.385  32.976   8.264
 3008POPC   C3A39821  14.368  33.008   7.964
 3008POPC   C4A39822  14.355  33.016   7.664
 3008POPC   C1B39823  14.511  32.862   8.564
 3008POPC   C2B39824  14.562  32.800   8.264
 3008POPC   C3B39825  14.579  32.843   7.964
 3008POPC   C4B39826  14.504  32.819   7.664
 3009POPC   NC339827  17.551  15.225   9.464
 3009POPC   PO439828  17.523  15.161   9.164
 3009POPC   GL139829  17.517  15.217   8.864
 3009POPC   GL239830  17.663  15.097   8.864
 3009POPC   C1A39831  17.457  15.140   8.564
 3009POPC   D2A39832  17.511  15.180   8.264
 3009POPC   C3A39833  17.556  15.211   7.964
 3009POPC   C4A39834  17.506  15.144   7.664
 3009POPC   C1B39835  17.729  15.089   8.564
 3009POPC   C2B39836  17.743  15.077   8.264
 3009POPC   C3B39837  17.738  15.081   7.964
 3009POPC   C4B39838  17.764  15.075   7.664
 3010POPC   NC339839  36.920  29.932   9.464
 3010POPC   PO439840  36.947  29.941   9.164
 3010POPC   GL139841  36.913  29.909   8.864
 3010POPC   GL239842  36.795  30.031   8.864
 3010POPC   C1A39843  36.901  29.920   8.564
 3010POPC   D2A39844  36.941  29.883   8.264
 3010POPC   C3A39845  36.937  29.887   7.964
 3010POPC   C4A39846  36.875  29.904   7.664
 3010POPC   C1B39847  36.693  30.083   8.564
 3010POPC   C2B39848  36.758  30.072   8.264
 3010POPC   C3B39849  36.701  30.081   7.964
 3010POPC   C4B39850  36.737  30.124   7.664
 3011POPC   NC339851  19.069   7.386   9.464
 3011POPC   PO439852  19.091   7.415   9.164
 3011POPC   GL139853  19.051   7.403   8.864
 3011POPC   GL239854  19.004   7.506   8.864
 3011POPC   C1A39855  19.104   7.390   8.564
 3011POPC   D2A39856  19.009   7.412   8.264
 3011POPC   C3A39857  19.061   7.403   7.964
 3011POPC   C4A39858  19.059   7.459   7.664
 3011POPC   C1B39859  19.006   7.664   8.564
 3011POPC   C2B39860  19.010   7.630   8.264
 3011POPC   C3B39861  19.027   7.660   7.964
 3011POPC   C4B39862  19.059   7.632   7.664
 3012POPC   NC339863  29.153  30.719   9.464
 3012POPC   PO439864  29.161  30.657   9.164
 3012POPC   GL139865  29.177  30.731   8.864
 3012POPC   GL239866  29.109  30.772   8.864
 3012POPC   C1A39867  29.194  30.708   8.564
 3012POPC   D2A39868  29.108  30.747   8.264
 3012POPC   C3A39869  29.175  30.698   7.964
 3012POPC   C4A39870  29.104  30.663   7.664
 3012POPC   C1B39871  28.975  30.881   8.564
 3012POPC   C2B39872  28.963  30.928   8.264
 3012POPC   C3B39873  29.021  30.895   7.964
 3012POPC   C4B39874  28.978  30.881   7.664
 3013POPC   NC339875   3.560   8.158   9.464
 3013POPC   PO439876   3.493   8.149   9.164
 3013POPC   GL139877   3.507   8.176   8.864
 3013POPC   GL239878   3.582   8.367   8.864
 3013POPC   C1A39879   3.560   8.220   8.564
 3013POPC   D2A39880   3.539   8.172   8.264
 3013POPC   C3A39881   3.491   8.229   7.964
 3013POPC   C4A39882   3.529   8.186   7.664
 3013POPC   C1B39883   3.600   8.397   8.564
 3013POPC   C2B39884   3.593   8.400   8.264
 3013POPC   C3B39885   3.606   8.432   7.964
 3013POPC   C4B39886   3.555   8.407   7.664
 3014POPC   NC339887   1.258  34.532   9.464
 3014POPC   PO439888   1.174  34.564   9.164
 3014POPC   GL139889   1.208  34.615   8.864
 3014POPC   GL239890   1.376  34.573   8.864
 3014POPC   C1A39891   1.208  34.591   8.564
 3014POPC   D2A39892   1.231  34.578   8.264
 3014POPC   C3A39893   1.208  34.554   7.964
 3014POPC   C4A39894   1.258  34.592   7.664
 3014POPC   C1B39895   1.414  34.586   8.564
 3014POPC   C2B39896   1.440  34.634   8.264
 3014POPC   C3B39897   1.425  34.678   7.964
 3014POPC   C4B39898   1.427  34.670   7.664
 3015POPC   NC339899   5.137  37.690   9.464
 3015POPC   PO439900   5.052  37.653   9.164
 3015POPC   GL139901   5.058  37.656   8.864
 3015POPC   GL239902   4.944  37.677   8.864
 3015POPC   C1A39903   5.118  37.658   8.564
 3015POPC   D2A39904   5.071  37.720   8.264
 3015POPC   C3A39905   5.136  37.729   7.964
 3015POPC   C4A39906   5.122  37.645   7.664
 3015POPC   C1B39907   4.810  37.669   8.564
 3015POPC   C2B39908   4.845  37.676   8.264
 3015POPC   C3B39909   4.806  37.679   7.964
 3015POPC   C4B39910   4.801  37.732   7.664
 3016POPC   NC339911  36.102   7.449   9.464
 3016POPC   PO439912  36.084   7.444   9.164
 3016POPC   GL139913  36.127   7.432   8.864
 3016POPC   GL239914  36.194   7.543   8.864
 3016POPC   C1A39915  36.175   7.426   8.564
 3016POPC   D2A39916  36.098   7.388   8.264
 3016POPC   C3A39917  36.108   7.399   7.964
 3016POPC   C4A39918  36.160   7.377   7.664
 3016POPC   C1B39919  36.311   7.631   8.564
 3016POPC   C2B39920  36.295   7.610   8.264
 3016POPC   C3B39921  36.290   7.560   7.964
 3016POPC   C4B39922  36.359   7.581   7.664
 3017POPC   NC339923  15.158   6.601   9.464
 3017POPC   PO439924  15.131   6.603   9.164
 3017POPC   GL139925  15.149   6.601   8.864
 3017POPC   GL239926  15.030   6.657   8.864
 3017POPC   C1A39927  15.138   6.643   8.564
 3017POPC   D2A39928  15.152   6.630   8.264
 3017POPC   C3A39929  15.227   6.660   7.964
 3017POPC   C4A39930  15.194   6.627   7.664
 3017POPC   C1B39931  14.968   6.595   8.564
 3017POPC   C2B39932  14.884   6.639   8.264
 3017POPC   C3B39933  14.958   6.590   7.964
 3017POPC   C4B39934  14.975   6.584   7.664
 3018POPC   NC339935  19.090  27.604   9.464
 3018POPC   PO439936  19.034  27.568   9.164
 3018POPC   GL139937  19.041  27.628   8.864
 3018POPC   GL239938  19.062  27.687   8.864
 3018POPC   C1A39939  19.059  27.627   8.564
 3018POPC   D2A39940  19.106  27.617   8.264
 3018POPC   C3A39941  19.078  27.639   7.964
 3018POPC   C4A39942  19.038  27.572   7.664
 3018POPC   C1B39943  19.042  27.880   8.564
 3018POPC   C2B39944  19.131  27.876   8.264
 3018POPC   C3B39945  19.083  27.821   7.964
 3018POPC   C4B39946  19.097  27.842   7.664
 3019POPC   NC339947  28.383   3.569   9.464
 3019POPC   PO439948  28.397   3.537   9.164
 3019POPC   GL139949  28.378   3.495   8.864
 3019POPC   GL239950  28.474   3.504   8.864
 3019POPC   C1A39951  28.345   3.530   8.564
 3019POPC   D2A39952  28.410   3.492   8.264
 3019POPC   C3A39953  28.412   3.527   7.964
 3019POPC   C4A39954  28.388   3.591   7.664
 3019POPC   C1B39955  28.623   3.446   8.564
 3019POPC   C2B39956  28.617   3.490   8.264
 3019POPC   C3B39957  28.570   3.534   7.964
 3019POPC   C4B39958  28.594   3.436   7.664
 3020POPC   NC339959  26.816  36.914   9.464
 3020POPC   PO439960  26.848  36.867   9.164
 3020POPC   GL139961  26.777  36.940   8.864
 3020POPC   GL239962  26.700  36.942   8.864
 3020POPC   C1A39963  26.842  36.883   8.564
 3020POPC   D2A39964  26.824  36.929   8.264
 3020POPC   C3A39965  26.829  36.934   7.964
 3020POPC   C4A39966  26.855  36.869   7.664
 3020POPC   C1B39967  26.611  36.978   8.564
 3020POPC   C2B39968  26.576  36.978   8.264
 3020POPC   C3B39969  26.551  37.001   7.964
 3020POPC   C4B39970  26.600  36.958   7.664
 3021POPC   NC339971   6.645  40.791   9.464
 3021POPC   PO439972   6.671  40.739   9.164
 3021POPC   GL139973   6.672  40.757   8.864
 3021POPC   GL239974   6.567  40.765   8.864
 3021POPC   C1A39975   6.614  40.748   8.564
 3021POPC   D2A39976   6.634  40.788   8.264
 3021POPC   C3A39977   6.634  40.765   7.964
 3021POPC   C4A39978   6.671  40.825   7.664
 3021POPC   C1B39979   6.389  40.765   8.564
 3021POPC   C2B39980   6.426  40.797   8.264
 3021POPC   C3B39981   6.358  40.743   7.964
 3021POPC   C4B39982   6.381  40.823   7.664
 3022POPC   NC339983  43.879  12.891   9.464
 3022POPC   PO439984  43.851  12.841   9.164
 3022POPC   GL139985  43.911  12.851   8.864
 3022POPC   GL239986  43.977  12.716   8.864
 3022POPC   C1A39987  43.915  12.844   8.564
 3022POPC   D2A39988  43.846  12.879   8.264
 3022POPC   C3A39989  43.859  12.820   7.964
 3022POPC   C4A39990  43.919  12.818   7.664
 3022POPC   C1B39991  44.068  12.673   8.564
 3022POPC   C2B39992  44.016  12.600   8.264
 3022POPC   C3B39993  43.993  12.647   7.964
 3022POPC   C4B39994  44.013  12.636   7.664
 3023POPC   NC339995  32.260  40.830   9.464
 3023POPC   PO439996  32.242  40.814   9.164
 3023POPC   GL139997  32.266  40.824   8.864
 3023POPC   GL239998  32.416  40.763   8.864
 3023POPC   C1A39999  32.288  40.746   8.564
 3023POPC   D2A40000  32.206  40.771   8.264
 3023POPC   C3A40001  32.217  40.828   7.964
 3023POPC   C4A40002  32.288  40.786   7.664
 3023POPC   C1B40003  32.497  40.786   8.564
 3023POPC   C2B40004  32.478  40.744   8.264
 3023POPC   C3B40005  32.468  40.764   7.964
 3023POPC   C4B40006  32.478  40.732   7.664
 3024POPC   NC340007  41.574  10.519   9.464
 3024POPC   PO440008  41.608  10.503   9.164
 3024POPC   GL140009  41.509  10.568   8.864
 3024POPC   GL240010  41.494  10.651   8.864
 3024POPC   C1A40011  41.536  10.537   8.564
 3024POPC   D2A40012  41.559  10.481   8.264
 3024POPC   C3A40013  41.535  10.495   7.964
 3024POPC   C4A40014  41.606  10.500   7.664
 3024POPC   C1B40015  41.428  10.688   8.564
 3024POPC   C2B40016  41.346  10.661   8.264
 3024POPC   C3B40017  41.372  10.704   7.964
 3024POPC   C4B40018  41.416  10.674   7.664
 3025POPC   NC340019  20.641  14.359   9.464
 3025POPC   PO440020  20.591  14.397   9.164
 3025POPC   GL140021  20.584  14.397   8.864
 3025POPC   GL240022  20.691  14.472   8.864
 3025POPC   C1A40023  20.615  14.368   8.564
 3025POPC   D2A40024  20.623  14.391   8.264
 3025POPC   C3A40025  20.645  14.443   7.964
 3025POPC   C4A40026  20.625  14.387   7.664
 3025POPC   C1B40027  20.832  14.493   8.564
 3025POPC   C2B40028  20.771  14.528   8.264
 3025POPC   C3B40029  20.806  14.578   7.964
 3025POPC   C4B40030  20.838  14.550   7.664
 3026POPC   NC340031  32.225  20.626   9.464
 3026POPC   PO440032  32.274  20.596   9.164
 3026POPC   GL140033  32.239  20.594   8.864
 3026POPC   GL240034  32.367  20.498   8.864
 3026POPC   C1A40035  32.231  20.632   8.564
 3026POPC   D2A40036  32.231  20.633   8.264
 3026POPC   C3A40037  32.286  20.569   7.964
 3026POPC   C4A40038  32.253  20.572   7.664
 3026POPC   C1B40039  32.438  20.395   8.564
 3026POPC   C2B40040  32.364  20.378   8.264
 3026POPC   C3B40041  32.365  20.456   7.964
 3026POPC   C4B40042  32.446  20.395   7.664
 3027POPC   NC340043  25.230  13.646   9.464
 3027POPC   PO440044  25.299  13.602   9.164
 3027POPC   GL140045  25.220  13.652   8.864
 3027POPC   GL240046  25.433  13.696   8.864
 3027POPC   C1A40047  25.232  13.596   8.564
 3027POPC   D2A40048  25.285  13.604   8.264
 3027POPC   C3A40049  25.291  13.625   7.964
 3027POPC   C4A40050  25.275  13.598   7.664
 3027POPC   C1B40051  25.529  13.699   8.564
 3027POPC   C2B40052  25.462  13.696   8.264
 3027POPC   C3B40053  25.488  13.685   7.964
 3027POPC   C4B40054  25.515  13.667   7.664
 3028POPC   NC340055  18.276  22.896   9.464
 3028POPC   PO440056  18.263  22.904   9.164
 3028POPC   GL140057  18.285  22.968   8.864
 3028POPC   GL240058  18.333  22.821   8.864
 3028POPC   C1A40059  18.310  22.943   8.564
 3028POPC   D2A40060  18.257  22.978   8.264
 3028POPC   C3A40061  18.308  22.929   7.964
 3028POPC   C4A40062  18.305  22.947   7.664
 3028POPC   C1B40063  18.525  22.739   8.564
 3028POPC   C2B40064  18.516  22.766   8.264
 3028POPC   C3B40065  18.519  22.740   7.964
 3028POPC   C4B40066  18.489  22.783   7.664
 3029POPC   NC340067   0.434  17.473   9.464
 3029POPC   PO440068   0.481  17.542   9.164
 3029POPC   GL140069   0.474  17.467   8.864
 3029POPC   GL240070   0.377  17.571   8.864
 3029POPC   C1A40071   0.480  17.509   8.564
 3029POPC   D2A40072   0.411  17.496   8.264
 3029POPC   C3A40073   0.458  17.521   7.964
 3029POPC   C4A40074   0.401  17.476   7.664
 3029POPC   C1B40075   0.305  17.763   8.564
 3029POPC   C2B40076   0.312  17.766   8.264
 3029POPC   C3B40077   0.343  17.723   7.964
 3029POPC   C4B40078   0.357  17.766   7.664
 3030POPC   NC340079  10.521  34.622   9.464
 3030POPC   PO440080  10.564  34.575   9.164
 3030POPC   GL140081  10.524  34.563   8.864
 3030POPC   GL240082  10.637  34.661   8.864
 3030POPC   C1A40083  10.542  34.533   8.564
 3030POPC   D2A40084  10.561  34.617   8.264
 3030POPC   C3A40085  10.567  34.530   7.964
 3030POPC   C4A40086  10.533  34.536   7.664
 3030POPC   C1B40087  10.768  34.654   8.564
 3030POPC   C2B40088  10.723  34.683   8.264
 3030POPC   C3B40089  10.744  34.632   7.964
 3030POPC   C4B40090  10.735  34.644   7.664
 3031POPC   NC340091  16.686  18.256   9.464
 3031POPC   PO440092  16.699  18.248   9.164
 3031POPC   GL140093  16.750  18.245   8.864
 3031POPC   GL240094  16.786  18.403   8.864
 3031POPC   C1A40095  16.769  18.332   8.564
 3031POPC   D2A40096  16.719  18.240   8.264
 3031POPC   C3A40097  16.755  18.330   7.964
 3031POPC   C4A40098  16.728  18.316   7.664
 3031POPC   C1B40099  16.893  18.537   8.564
 3031POPC   C2B40100  16.834  18.548   8.264
 3031POPC   C3B40101  16.862  18.464   7.964
 3031POPC   C4B40102  16.895  18.456   7.664
 3032POPC   NC340103  28.412  44.643   9.464
 3032POPC   PO440104  28.358  44.624   9.164
 3032POPC   GL140105  28.338  44.683   8.864
 3032POPC   GL240106  28.454  44.659   8.864
 3032POPC   C1A40107  28.342  44.641   8.564
 3032POPC   D2A40108  28.397  44.708   8.264
 3032POPC   C3A40109  28.393  44.646   7.964
 3032POPC   C4A40110  28.336  44.643   7.664
 3032POPC   C1B40111  28.556  44.547   8.564
 3032POPC   C2B40112  28.579  44.574   8.264
 3032POPC   C3B40113  28.602  44.535   7.964
 3032POPC   C4B40114  28.612  44.550   7.664
 3033POPC   NC340115   0.481  19.807   9.464
 3033POPC   PO440116   0.420  19.799   9.164
 3033POPC   GL140117   0.409  19.879   8.864
 3033POPC   GL240118   0.395  19.926   8.864
 3033POPC   C1A40119   0.456  19.802   8.564
 3033POPC   D2A40120   0.468  19.841   8.264
 3033POPC   C3A40121   0.463  19.835   7.964
 3033POPC   C4A40122   0.404  19.837   7.664
 3033POPC   C1B40123   0.405  20.094   8.564
 3033POPC   C2B40124   0.453  20.127   8.264
 3033POPC   C3B40125   0.405  20.075   7.964
 3033POPC   C4B40126   0.441  20.081   7.664
 3034POPC   NC340127  32.228  22.981   9.464
 3034POPC   PO440128  32.263  22.913   9.164
 3034POPC   GL140129  32.206  22.893   8.864
 3034POPC   GL240130  32.244  23.090   8.864
 3034POPC   C1A40131  32.225  22.907   8.564
 3034POPC   D2A40132  32.221  22.944   8.264
 3034POPC   C3A40133  32.245  22.957   7.964
 3034POPC   C4A40134  32.223  22.968   7.664
 3034POPC   C1B40135  32.177  23.149   8.564
 3034POPC   C2B40136  32.156  23.146   8.264
 3034POPC   C3B40137  32.154  23.197   7.964
 3034POPC   C4B40138  32.224  23.177   7.664
 3035POPC   NC340139  15.994   1.183   9.464
 3035POPC   PO440140  15.926   1.168   9.164
 3035POPC   GL140141  15.944   1.199   8.864
 3035POPC   GL240142  15.833   1.329   8.864
 3035POPC   C1A40143  15.953   1.239   8.564
 3035POPC   D2A40144  15.989   1.205   8.264
 3035POPC   C3A40145  15.943   1.180   7.964
 3035POPC   C4A40146  15.970   1.208   7.664
 3035POPC   C1B40147  15.820   1.418   8.564
 3035POPC   C2B40148  15.761   1.380   8.264
 3035POPC   C3B40149  15.802   1.441   7.964
 3035POPC   C4B40150  15.847   1.432   7.664
 3036POPC   NC340151   2.026  36.088   9.464
 3036POPC   PO440152   1.955  36.139   9.164
 3036POPC   GL140153   1.964  36.157   8.864
 3036POPC   GL240154   1.818  36.122   8.864
 3036POPC   C1A40155   1.946  36.130   8.564
 3036POPC   D2A40156   2.019  36.155   8.264
 3036POPC   C3A40157   2.007  36.151   7.964
 3036POPC   C4A40158   1.947  36.165   7.664
 3036POPC   C1B40159   1.787  36.144   8.564
 3036POPC   C2B40160   1.770  36.168   8.264
 3036POPC   C3B40161   1.774  36.195   7.964
 3036POPC   C4B40162   1.730  36.108   7.664
 3037POPC   NC340163   6.626  39.239   9.464
 3037POPC   PO440164   6.657  39.206   9.164
 3037POPC   GL140165   6.599  39.200   8.864
 3037POPC   GL240166   6.811  39.193   8.864
 3037POPC   C1A40167   6.599  39.188   8.564
 3037POPC   D2A40168   6.677  39.274   8.264
 3037POPC   C3A40169   6.621  39.186   7.964
 3037POPC   C4A40170   6.686  39.201   7.664
 3037POPC   C1B40171   6.888  39.282   8.564
 3037POPC   C2B40172   6.911  39.272   8.264
 3037POPC   C3B40173   6.915  39.205   7.964
 3037POPC   C4B40174   6.855  39.256   7.664
 3038POPC   NC340175  15.131  33.816   9.464
 3038POPC   PO440176  15.168  33.776   9.164
 3038POPC   GL140177  15.160  33.830   8.864
 3038POPC   GL240178  15.221  33.649   8.864
 3038POPC   C1A40179  15.130  33.786   8.564
 3038POPC   D2A40180  15.145  33.768   8.264
 3038POPC   C3A40181  15.175  33.782   7.964
 3038POPC   C4A40182  15.212  33.842   7.664
 3038POPC   C1B40183  15.261  33.574   8.564
 3038POPC   C2B40184  15.317  33.586   8.264
 3038POPC   C3B40185  15.267  33.601   7.964
 3038POPC   C4B40186  15.318  33.540   7.664
 3039POPC   NC340187  26.801  33.816   9.464
 3039POPC   PO440188  26.791  33.839   9.164
 3039POPC   GL140189  26.824  33.809   8.864
 3039POPC   GL240190  26.965  33.732   8.864
 3039POPC   C1A40191  26.812  33.817   8.564
 3039POPC   D2A40192  26.846  33.769   8.264
 3039POPC   C3A40193  26.854  33.826   7.964
 3039POPC   C4A40194  26.866  33.782   7.664
 3039POPC   C1B40195  27.051  33.720   8.564
 3039POPC   C2B40196  27.066  33.690   8.264
 3039POPC   C3B40197  27.001  33.672   7.964
 3039POPC   C4B40198  27.034  33.715   7.664
 3040POPC   NC340199  40.014  39.261   9.464
 3040POPC   PO440200  40.024  39.249   9.164
 3040POPC   GL140201  39.964  39.263   8.864
 3040POPC   GL240202  40.120  39.243   8.864
 3040POPC   C1A40203  40.021  39.217   8.564
 3040POPC   D2A40204  39.958  39.241   8.264
 3040POPC   C3A40205  40.016  39.266   7.964
 3040POPC   C4A40206  39.982  39.219   7.664
 3040POPC   C1B40207  40.289  39.310   8.564
 3040POPC   C2B40208  40.272  39.296   8.264
 3040POPC   C3B40209  40.300  39.265   7.964
 3040POPC   C4B40210  40.257  39.278   7.664
 3041POPC   NC340211  36.167   2.792   9.464
 3041POPC   PO440212  36.090   2.780   9.164
 3041POPC   GL140213  36.138   2.756   8.864
 3041POPC   GL240214  36.190   2.685   8.864
 3041POPC   C1A40215  36.101   2.801   8.564
 3041POPC   D2A40216  36.168   2.746   8.264
 3041POPC   C3A40217  36.172   2.735   7.964
 3041POPC   C4A40218  36.093   2.754   7.664
 3041POPC   C1B40219  36.368   2.654   8.564
 3041POPC   C2B40220  36.302   2.695   8.264
 3041POPC   C3B40221  36.307   2.623   7.964
 3041POPC   C4B40222  36.396   2.634   7.664
 3042POPC   NC340223  33.837  19.797   9.464
 3042POPC   PO440224  33.763  19.819   9.164
 3042POPC   GL140225  33.838  19.787   8.864
 3042POPC   GL240226  33.841  19.668   8.864
 3042POPC   C1A40227  33.810  19.791   8.564
 3042POPC   D2A40228  33.830  19.798   8.264
 3042POPC   C3A40229  33.750  19.862   7.964
 3042POPC   C4A40230  33.849  19.818   7.664
 3042POPC   C1B40231  33.816  19.601   8.564
 3042POPC   C2B40232  33.747  19.590   8.264
 3042POPC   C3B40233  33.768  19.548   7.964
 3042POPC   C4B40234  33.824  19.597   7.664
 3043POPC   NC340235  41.539  43.150   9.464
 3043POPC   PO440236  41.517  43.120   9.164
 3043POPC   GL140237  41.538  43.104   8.864
 3043POPC   GL240238  41.543  43.228   8.864
 3043POPC   C1A40239  41.602  43.088   8.564
 3043POPC   D2A40240  41.578  43.124   8.264
 3043POPC   C3A40241  41.546  43.145   7.964
 3043POPC   C4A40242  41.583  43.103   7.664
 3043POPC   C1B40243  41.463  43.332   8.564
 3043POPC   C2B40244  41.510  43.324   8.264
 3043POPC   C3B40245  41.466  43.399   7.964
 3043POPC   C4B40246  41.496  43.367   7.664
 3044POPC   NC340247  20.613  35.347   9.464
 3044POPC   PO440248  20.599  35.302   9.164
 3044POPC   GL140249  20.657  35.382   8.864
 3044POPC   GL240250  20.544  35.421   8.864
 3044POPC   C1A40251  20.598  35.376   8.564
 3044POPC   D2A40252  20.575  35.365   8.264
 3044POPC   C3A40253  20.591  35.351   7.964
 3044POPC   C4A40254  20.646  35.350   7.664
 3044POPC   C1B40255  20.472  35.530   8.564
 3044POPC   C2B40256  20.519  35.551   8.264
 3044POPC   C3B40257  20.486  35.614   7.964
 3044POPC   C4B40258  20.467  35.568   7.664
 3045POPC   NC340259  26.028  29.149   9.464
 3045POPC   PO440260  26.073  29.148   9.164
 3045POPC   GL140261  26.031  29.182   8.864
 3045POPC   GL240262  26.095  29.038   8.864
 3045POPC   C1A40263  26.025  29.131   8.564
 3045POPC   D2A40264  26.020  29.173   8.264
 3045POPC   C3A40265  26.089  29.133   7.964
 3045POPC   C4A40266  26.071  29.194   7.664
 3045POPC   C1B40267  26.051  28.899   8.564
 3045POPC   C2B40268  26.037  28.897   8.264
 3045POPC   C3B40269  26.068  28.923   7.964
 3045POPC   C4B40270  26.058  28.922   7.664
 3046POPC   NC340271  36.087  35.328   9.464
 3046POPC   PO440272  36.144  35.388   9.164
 3046POPC   GL140273  36.079  35.309   8.864
 3046POPC   GL240274  36.272  35.361   8.864
 3046POPC   C1A40275  36.163  35.378   8.564
 3046POPC   D2A40276  36.114  35.333   8.264
 3046POPC   C3A40277  36.130  35.357   7.964
 3046POPC   C4A40278  36.126  35.308   7.664
 3046POPC   C1B40279  36.423  35.384   8.564
 3046POPC   C2B40280  36.373  35.427   8.264
 3046POPC   C3B40281  36.340  35.372   7.964
 3046POPC   C4B40282  36.422  35.400   7.664
 3047POPC   NC340283  36.933  10.476   9.464
 3047POPC   PO440284  36.861  10.554   9.164
 3047POPC   GL140285  36.929  10.493   8.864
 3047POPC   GL240286  36.789  10.597   8.864
 3047POPC   C1A40287  36.879  10.550   8.564
 3047POPC   D2A40288  36.902  10.547   8.264
 3047POPC   C3A40289  36.923  10.566   7.964
 3047POPC   C4A40290  36.907  10.556   7.664
 3047POPC   C1B40291  36.724  10.704   8.564
 3047POPC   C2B40292  36.773  10.778   8.264
 3047POPC   C3B40293  36.777  10.728   7.964
 3047POPC   C4B40294  36.804  10.698   7.664
 3048POPC   NC340295   6.692  34.610   9.464
 3048POPC   PO440296   6.604  34.604   9.164
 3048POPC   GL140297   6.627  34.612   8.864
 3048POPC   GL240298   6.689  34.731   8.864
 3048POPC   C1A40299   6.656  34.589   8.564
 3048POPC   D2A40300   6.690  34.532   8.264
 3048POPC   C3A40301   6.656  34.529   7.964
 3048POPC   C4A40302   6.661  34.527   7.664
 3048POPC   C1B40303   6.649  34.812   8.564
 3048POPC   C2B40304   6.691  34.863   8.264
 3048POPC   C3B40305   6.644  34.784   7.964
 3048POPC   C4B40306   6.615  34.848   7.664
 3049POPC   NC340307  39.982  36.159   9.464
 3049POPC   PO440308  40.024  36.105   9.164
 3049POPC   GL140309  39.988  36.177   8.864
 3049POPC   GL240310  40.089  36.092   8.864
 3049POPC   C1A40311  39.981  36.148   8.564
 3049POPC   D2A40312  40.039  36.137   8.264
 3049POPC   C3A40313  40.032  36.096   7.964
 3049POPC   C4A40314  39.998  36.142   7.664
 3049POPC   C1B40315  40.161  36.014   8.564
 3049POPC   C2B40316  40.233  35.954   8.264
 3049POPC   C3B40317  40.183  35.925   7.964
 3049POPC   C4B40318  40.184  35.924   7.664
 3050POPC   NC340319  15.180  19.076   9.464
 3050POPC   PO440320  15.136  19.065   9.164
 3050POPC   GL140321  15.197  19.058   8.864
 3050POPC   GL240322  15.069  19.075   8.864
 3050POPC   C1A40323  15.131  19.103   8.564
 3050POPC   D2A40324  15.165  19.095   8.264
 3050POPC   C3A40325  15.185  19.107   7.964
 3050POPC   C4A40326  15.222  19.021   7.664
 3050POPC   C1B40327  14.920  18.988   8.564
 3050POPC   C2B40328  14.977  18.984   8.264
 3050POPC   C3B40329  14.977  19.073   7.964
 3050POPC   C4B40330  14.911  19.067   7.664
 3051POPC   NC340331  15.968  30.744   9.464
 3051POPC   PO440332  15.912  30.708   9.164
 3051POPC   GL140333  15.985  30.655   8.864
 3051POPC   GL240334  15.936  30.548   8.864
 3051POPC   C1A40335  15.969  30.670   8.564
 3051POPC   D2A40336  15.927  30.709   8.264
 3051POPC   C3A40337  15.955  30.655   7.964
 3051POPC   C4A40338  15.939  30.718   7.664
 3051POPC   C1B40339  15.946  30.466   8.564
 3051POPC   C2B40340  15.987  30.402   8.264
 3051POPC   C3B40341  16.026  30.493   7.964
 3051POPC   C4B40342  15.966  30.470   7.664
 3052POPC   NC340343  26.780  26.055   9.464
 3052POPC   PO440344  26.816  26.011   9.164
 3052POPC   GL140345  26.834  26.041   8.864
 3052POPC   GL240346  26.860  26.149   8.864
 3052POPC   C1A40347  26.802  26.025   8.564
 3052POPC   D2A40348  26.832  26.010   8.264
 3052POPC   C3A40349  26.809  26.072   7.964
 3052POPC   C4A40350  26.790  26.029   7.664
 3052POPC   C1B40351  26.899  26.285   8.564
 3052POPC   C2B40352  26.876  26.317   8.264
 3052POPC   C3B40353  26.881  26.264   7.964
 3052POPC   C4B40354  26.899  26.295   7.664
 3053POPC   NC340355  18.303  10.529   9.464
 3053POPC   PO440356  18.240  10.495   9.164
 3053POPC   GL140357  18.235  10.530   8.864
 3053POPC   GL240358  18.195  10.572   8.864
 3053POPC   C1A40359  18.273  10.533   8.564
 3053POPC   D2A40360  18.285  10.568   8.264
 3053POPC   C3A40361  18.279  10.536   7.964
 3053POPC   C4A40362  18.313  10.503   7.664
 3053POPC   C1B40363  18.004  10.575   8.564
 3053POPC   C2B40364  18.045  10.521   8.264
 3053POPC   C3B40365  18.043  10.546   7.964
 3053POPC   C4B40366  18.046  10.587   7.664
 3054POPC   NC340367  36.094  34.562   9.464
 3054POPC   PO440368  36.148  34.578   9.164
 3054POPC   GL140369  36.107  34.565   8.864
 3054POPC   GL240370  36.084  34.669   8.864
 3054POPC   C1A40371  36.102  34.620   8.564
 3054POPC   D2A40372  36.094  34.549   8.264
 3054POPC   C3A40373  36.104  34.621   7.964
 3054POPC   C4A40374  36.101  34.537   7.664
 3054POPC   C1B40375  36.079  34.789   8.564
 3054POPC   C2B40376  36.104  34.856   8.264
 3054POPC   C3B40377  36.059  34.862   7.964
 3054POPC   C4B40378  36.060  34.858   7.664
 3055POPC   NC340379   9.702  15.955   9.464
 3055POPC   PO440380   9.710  15.908   9.164
 3055POPC   GL140381   9.791  15.916   8.864
 3055POPC   GL240382   9.891  16.027   8.864
 3055POPC   C1A40383   9.763  15.936   8.564
 3055POPC   D2A40384   9.753  16.003   8.264
 3055POPC   C3A40385   9.706  15.962   7.964
 3055POPC   C4A40386   9.778  15.996   7.664
 3055POPC   C1B40387  10.012  16.081   8.564
 3055POPC   C2B40388   9.929  16.066   8.264
 3055POPC   C3B40389   9.958  16.056   7.964
 3055POPC   C4B40390   9.947  16.031   7.664
 3056POPC   NC340391  43.854  32.272   9.464
 3056POPC   PO440392  43.924  32.244   9.164
 3056POPC   GL140393  43.897  32.264   8.864
 3056POPC   GL240394  43.754  32.203   8.864
 3056POPC   C1A40395  43.899  32.279   8.564
 3056POPC   D2A40396  43.907  32.224   8.264
 3056POPC   C3A40397  43.854  32.261   7.964
 3056POPC   C4A40398  43.887  32.264   7.664
 3056POPC   C1B40399  43.665  32.137   8.564
 3056POPC   C2B40400  43.633  32.187   8.264
 3056POPC   C3B40401  43.666  32.123   7.964
 3056POPC   C4B40402  43.605  32.166   7.664
 3057POPC   NC340403  41.587  41.582   9.464
 3057POPC   PO440404  41.577  41.567   9.164
 3057POPC   GL140405  41.578  41.520   8.864
 3057POPC   GL240406  41.676  41.493   8.864
 3057POPC   C1A40407  41.546  41.555   8.564
 3057POPC   D2A40408  41.518  41.598   8.264
 3057POPC   C3A40409  41.591  41.518   7.964
 3057POPC   C4A40410  41.568  41.529   7.664
 3057POPC   C1B40411  41.814  41.435   8.564
 3057POPC   C2B40412  41.763  41.490   8.264
 3057POPC   C3B40413  41.789  41.501   7.964
 3057POPC   C4B40414  41.750  41.447   7.664
 3058POPC   NC340415  32.282  39.995   9.464
 3058POPC   PO440416  32.220  39.963   9.164
 3058POPC   GL140417  32.257  39.983   8.864
 3058POPC   GL240418  32.195  40.090   8.864
 3058POPC   C1A40419  32.210  39.958   8.564
 3058POPC   D2A40420  32.264  39.996   8.264
 3058POPC   C3A40421  32.229  40.016   7.964
 3058POPC   C4A40422  32.289  40.049   7.664
 3058POPC   C1B40423  32.095  40.230   8.564
 3058POPC   C2B40424  32.117  40.227   8.264
 3058POPC   C3B40425  32.102  40.179   7.964
 3058POPC   C4B40426  32.079  40.160   7.664
 3059POPC   NC340427  37.700  22.944   9.464
 3059POPC   PO440428  37.632  22.956   9.164
 3059POPC   GL140429  37.636  22.963   8.864
 3059POPC   GL240430  37.592  22.980   8.864
 3059POPC   C1A40431  37.672  22.983   8.564
 3059POPC   D2A40432  37.685  22.909   8.264
 3059POPC   C3A40433  37.631  22.960   7.964
 3059POPC   C4A40434  37.651  22.896   7.664
 3059POPC   C1B40435  37.422  23.048   8.564
 3059POPC   C2B40436  37.497  23.019   8.264
 3059POPC   C3B40437  37.408  23.063   7.964
 3059POPC   C4B40438  37.472  23.066   7.664
 3060POPC   NC340439   7.402  11.298   9.464
 3060POPC   PO440440   7.428  11.338   9.164
 3060POPC   GL140441   7.435  11.307   8.864
 3060POPC   GL240442   7.266  11.353   8.864
 3060POPC   C1A40443   7.427  11.261   8.564
 3060POPC   D2A40444   7.432  11.310   8.264
 3060POPC   C3A40445   7.397  11.252   7.964
 3060POPC   C4A40446   7.454  11.258   7.664
 3060POPC   C1B40447   7.201  11.429   8.564
 3060POPC   C2B40448   7.146  11.418   8.264
 3060POPC   C3B40449   7.146  11.368   7.964
 3060POPC   C4B40450   7.208  11.332   7.664
 3061POPC   NC340451  26.867  36.117   9.464
 3061POPC   PO440452  26.844  36.167   9.164
 3061POPC   GL140453  26.861  36.078   8.864
 3061POPC   GL240454  26.769  36.246   8.864
 3061POPC   C1A40455  26.814  36.082   8.564
 3061POPC   D2A40456  26.846  36.111   8.264
 3061POPC   C3A40457  26.828  36.172   7.964
 3061POPC   C4A40458  26.792  36.169   7.664
 3061POPC   C1B40459  26.685  36.387   8.564
 3061POPC   C2B40460  26.722  36.361   8.264
 3061POPC   C3B40461  26.652  36.329   7.964
 3061POPC   C4B40462  26.675  36.310   7.664
 3062POPC   NC340463  10.506   7.424   9.464
 3062POPC   PO440464  10.482   7.443   9.164
 3062POPC   GL140465  10.532   7.371   8.864
 3062POPC   GL240466  10.626   7.482   8.864
 3062POPC   C1A40467  10.483   7.378   8.564
 3062POPC   D2A40468  10.553   7.396   8.264
 3062POPC   C3A40469  10.514   7.376   7.964
 3062POPC   C4A40470  10.565   7.395   7.664
 3062POPC   C1B40471  10.708   7.500   8.564
 3062POPC   C2B40472  10.771   7.500   8.264
 3062POPC   C3B40473  10.715   7.567   7.964
 3062POPC   C4B40474  10.783   7.503   7.664
 3063POPC   NC340475  11.301  37.694   9.464
 3063POPC   PO440476  11.328  37.659   9.164
 3063POPC   GL140477  11.350  37.653   8.864
 3063POPC   GL240478  11.385  37.682   8.864
 3063POPC   C1A40479  11.311  37.719   8.564
 3063POPC   D2A40480  11.283  37.707   8.264
 3063POPC   C3A40481  11.271  37.656   7.964
 3063POPC   C4A40482  11.259  37.716   7.664
 3063POPC   C1B40483  11.522  37.716   8.564
 3063POPC   C2B40484  11.515  37.756   8.264
 3063POPC   C3B40485  11.499  37.720   7.964
 3063POPC   C4B40486  11.496  37.798   7.664
 3064POPC   NC340487  24.479  30.671   9.464
 3064POPC   PO440488  24.508  30.674   9.164
 3064POPC   GL140489  24.535  30.743   8.864
 3064POPC   GL240490  24.358  30.686   8.864
 3064POPC   C1A40491  24.496  30.741   8.564
 3064POPC   D2A40492  24.503  30.673   8.264
 3064POPC   C3A40493  24.525  30.715   7.964
 3064POPC   C4A40494  24.526  30.718   7.664
 3064POPC   C1B40495  24.221  30.668   8.564
 3064POPC   C2B40496  24.209  30.605   8.264
 3064POPC   C3B40497  24.222  30.680   7.964
 3064POPC   C4B40498  24.255  30.637   7.664
 3065POPC   NC340499  29.906  12.852   9.464
 3065POPC   PO440500  29.960  12.874   9.164
 3065POPC   GL140501  29.890  12.853   8.864
 3065POPC   GL240502  29.786  12.841   8.864
 3065POPC   C1A40503  29.871  12.879   8.564
 3065POPC   D2A40504  29.969  12.824   8.264
 3065POPC   C3A40505  29.894  12.805   7.964
 3065POPC   C4A40506  29.926  12.830   7.664
 3065POPC   C1B40507  29.707  12.757   8.564
 3065POPC   C2B40508  29.692  12.773   8.264
 3065POPC   C3B40509  29.717  12.768   7.964
 3065POPC   C4B40510  29.705  12.805   7.664
 3066POPC   NC340511   0.402  40.756   9.464
 3066POPC   PO440512   0.454  40.799   9.164
 3066POPC   GL140513   0.395  40.756   8.864
 3066POPC   GL240514   0.389  40.699   8.864
 3066POPC   C1A40515   0.475  40.775   8.564
 3066POPC   D2A40516   0.436  40.755   8.264
 3066POPC   C3A40517   0.438  40.745   7.964
 3066POPC   C4A40518   0.465  40.803   7.664
 3066POPC   C1B40519   0.359  40.590   8.564
 3066POPC   C2B40520   0.356  40.503   8.264
 3066POPC   C3B40521   0.396  40.540   7.964
 3066POPC   C4B40522   0.368  40.506   7.664
 3067POPC   NC340523  40.829   2.781   9.464
 3067POPC   PO440524  40.775   2.758   9.164
 3067POPC   GL140525  40.745   2.745   8.864
 3067POPC   GL240526  40.709   2.783   8.864
 3067POPC   C1A40527  40.811   2.779   8.564
 3067POPC   D2A40528  40.758   2.806   8.264
 3067POPC   C3A40529  40.802   2.776   7.964
 3067POPC   C4A40530  40.808   2.770   7.664
 3067POPC   C1B40531  40.513   2.780   8.564
 3067POPC   C2B40532  40.573   2.816   8.264
 3067POPC   C3B40533  40.570   2.864   7.964
 3067POPC   C4B40534  40.551   2.780   7.664
 3068POPC   NC340535  35.325  27.607   9.464
 3068POPC   PO440536  35.363  27.588   9.164
 3068POPC   GL140537  35.355  27.624   8.864
 3068POPC   GL240538  35.359  27.682   8.864
 3068POPC   C1A40539  35.367  27.643   8.564
 3068POPC   D2A40540  35.401  27.602   8.264
 3068POPC   C3A40541  35.386  27.607   7.964
 3068POPC   C4A40542  35.393  27.547   7.664
 3068POPC   C1B40543  35.306  27.796   8.564
 3068POPC   C2B40544  35.371  27.824   8.264
 3068POPC   C3B40545  35.301  27.831   7.964
 3068POPC   C4B40546  35.332  27.838   7.664
 3069POPC   NC340547   6.675  18.309   9.464
 3069POPC   PO440548   6.649  18.275   9.164
 3069POPC   GL140549   6.688  18.239   8.864
 3069POPC   GL240550   6.753  18.218   8.864
 3069POPC   C1A40551   6.678  18.296   8.564
 3069POPC   D2A40552   6.657  18.319   8.264
 3069POPC   C3A40553   6.657  18.301   7.964
 3069POPC   C4A40554   6.684  18.264   7.664
 3069POPC   C1B40555   6.853  18.158   8.564
 3069POPC   C2B40556   6.871  18.248   8.264
 3069POPC   C3B40557   6.893  18.237   7.964
 3069POPC   C4B40558   6.874  18.246   7.664
 3070POPC   NC340559  27.640  19.822   9.464
 3070POPC   PO440560  27.591  19.835   9.164
 3070POPC   GL140561  27.564  19.806   8.864
 3070POPC   GL240562  27.485  19.897   8.864
 3070POPC   C1A40563  27.639  19.863   8.564
 3070POPC   D2A40564  27.580  19.830   8.264
 3070POPC   C3A40565  27.638  19.799   7.964
 3070POPC   C4A40566  27.609  19.827   7.664
 3070POPC   C1B40567  27.428  20.087   8.564
 3070POPC   C2B40568  27.474  20.084   8.264
 3070POPC   C3B40569  27.502  20.005   7.964
 3070POPC   C4B40570  27.458  20.055   7.664
 3071POPC   NC340571  16.763  24.464   9.464
 3071POPC   PO440572  16.734  24.477   9.164
 3071POPC   GL140573  16.684  24.464   8.864
 3071POPC   GL240574  16.642  24.456   8.864
 3071POPC   C1A40575  16.701  24.467   8.564
 3071POPC   D2A40576  16.748  24.535   8.264
 3071POPC   C3A40577  16.745  24.449   7.964
 3071POPC   C4A40578  16.760  24.496   7.664
 3071POPC   C1B40579  16.479  24.400   8.564
 3071POPC   C2B40580  16.534  24.401   8.264
 3071POPC   C3B40581  16.519  24.313   7.964
 3071POPC   C4B40582  16.553  24.307   7.664
 3072POPC   NC340583  25.261  11.294   9.464
 3072POPC   PO440584  25.258  11.305   9.164
 3072POPC   GL140585  25.299  11.297   8.864
 3072POPC   GL240586  25.143  11.243   8.864
 3072POPC   C1A40587  25.276  11.301   8.564
 3072POPC   D2A40588  25.312  11.268   8.264
 3072POPC   C3A40589  25.225  11.298   7.964
 3072POPC   C4A40590  25.284  11.339   7.664
 3072POPC   C1B40591  25.084  11.098   8.564
 3072POPC   C2B40592  25.097  11.100   8.264
 3072POPC   C3B40593  25.116  11.111   7.964
 3072POPC   C4B40594  25.071  11.163   7.664
 3073POPC   NC340595  25.279   5.915   9.464
 3073POPC   PO440596  25.269   5.843   9.164
 3073POPC   GL140597  25.262   5.819   8.864
 3073POPC   GL240598  25.299   5.959   8.864
 3073POPC   C1A40599  25.258   5.877   8.564
 3073POPC   D2A40600  25.225   5.843   8.264
 3073POPC   C3A40601  25.218   5.916   7.964
 3073POPC   C4A40602  25.293   5.899   7.664
 3073POPC   C1B40603  25.345   6.146   8.564
 3073POPC   C2B40604  25.314   6.152   8.264
 3073POPC   C3B40605  25.312   6.087   7.964
 3073POPC   C4B40606  25.334   6.141   7.664
 3074POPC   NC340607  42.307  14.400   9.464
 3074POPC   PO440608  42.368  14.443   9.164
 3074POPC   GL140609  42.321  14.395   8.864
 3074POPC   GL240610  42.478  14.378   8.864
 3074POPC   C1A40611  42.331  14.409   8.564
 3074POPC   D2A40612  42.325  14.434   8.264
 3074POPC   C3A40613  42.318  14.400   7.964
 3074POPC   C4A40614  42.285  14.396   7.664
 3074POPC   C1B40615  42.555  14.384   8.564
 3074POPC   C2B40616  42.540  14.358   8.264
 3074POPC   C3B40617  42.532  14.336   7.964
 3074POPC   C4B40618  42.537  14.390   7.664
 3075POPC   NC340619  19.039  17.531   9.464
 3075POPC   PO440620  19.018  17.506   9.164
 3075POPC   GL140621  19.013  17.507   8.864
 3075POPC   GL240622  19.168  17.610   8.864
 3075POPC   C1A40623  19.035  17.458   8.564
 3075POPC   D2A40624  19.058  17.515   8.264
 3075POPC   C3A40625  19.014  17.498   7.964
 3075POPC   C4A40626  19.074  17.482   7.664
 3075POPC   C1B40627  19.289  17.582   8.564
 3075POPC   C2B40628  19.307  17.631   8.264
 3075POPC   C3B40629  19.278  17.640   7.964
 3075POPC   C4B40630  19.288  17.668   7.664
 3076POPC   NC340631  29.905  35.350   9.464
 3076POPC   PO440632  29.964  35.305   9.164
 3076POPC   GL140633  29.921  35.387   8.864
 3076POPC   GL240634  29.997  35.423   8.864
 3076POPC   C1A40635  29.964  35.392   8.564
 3076POPC   D2A40636  29.915  35.336   8.264
 3076POPC   C3A40637  29.901  35.308   7.964
 3076POPC   C4A40638  29.901  35.326   7.664
 3076POPC   C1B40639  30.100  35.515   8.564
 3076POPC   C2B40640  30.160  35.433   8.264
 3076POPC   C3B40641  30.105  35.494   7.964
 3076POPC   C4B40642  30.124  35.490   7.664
 3077POPC   NC340643  16.749  23.715   9.464
 3077POPC   PO440644  16.689  23.737   9.164
 3077POPC   GL140645  16.740  23.672   8.864
 3077POPC   GL240646  16.708  23.547   8.864
 3077POPC   C1A40647  16.770  23.667   8.564
 3077POPC   D2A40648  16.682  23.681   8.264
 3077POPC   C3A40649  16.776  23.681   7.964
 3077POPC   C4A40650  16.754  23.668   7.664
 3077POPC   C1B40651  16.764  23.431   8.564
 3077POPC   C2B40652  16.770  23.507   8.264
 3077POPC   C3B40653  16.752  23.479   7.964
 3077POPC   C4B40654  16.736  23.497   7.664
 3078POPC   NC340655   6.647  29.103   9.464
 3078POPC   PO440656   6.644  29.175   9.164
 3078POPC   GL140657   6.688  29.096   8.864
 3078POPC   GL240658   6.533  29.207   8.864
 3078POPC   C1A40659   6.653  29.124   8.564
 3078POPC   D2A40660   6.614  29.109   8.264
 3078POPC   C3A40661   6.622  29.119   7.964
 3078POPC   C4A40662   6.601  29.187   7.664
 3078POPC   C1B40663   6.472  29.390   8.564
 3078POPC   C2B40664   6.519  29.335   8.264
 3078POPC   C3B40665   6.483  29.379   7.964
 3078POPC   C4B40666   6.487  29.372   7.664
 3079POPC   NC340667  22.151  26.053   9.464
 3079POPC   PO440668  22.169  26.058   9.164
 3079POPC   GL140669  22.173  26.009   8.864
 3079POPC   GL240670  22.320  26.048   8.864
 3079POPC   C1A40671  22.195  26.065   8.564
 3079POPC   D2A40672  22.174  26.036   8.264
 3079POPC   C3A40673  22.121  26.048   7.964
 3079POPC   C4A40674  22.197  26.076   7.664
 3079POPC   C1B40675  22.394  26.044   8.564
 3079POPC   C2B40676  22.397  26.033   8.264
 3079POPC   C3B40677  22.441  26.028   7.964
 3079POPC   C4B40678  22.430  26.064   7.664
 3080POPC   NC340679  31.430  39.223   9.464
 3080POPC   PO440680  31.429  39.277   9.164
 3080POPC   GL140681  31.454  39.227   8.864
 3080POPC   GL240682  31.436  39.344   8.864
 3080POPC   C1A40683  31.467  39.262   8.564
 3080POPC   D2A40684  31.478  39.230   8.264
 3080POPC   C3A40685  31.510  39.261   7.964
 3080POPC   C4A40686  31.432  39.258   7.664
 3080POPC   C1B40687  31.338  39.397   8.564
 3080POPC   C2B40688  31.351  39.407   8.264
 3080POPC   C3B40689  31.378  39.469   7.964
 3080POPC   C4B40690  31.324  39.410   7.664
 3081POPC   NC340691   4.318   6.673   9.464
 3081POPC   PO440692   4.312   6.690   9.164
 3081POPC   GL140693   4.362   6.649   8.864
 3081POPC   GL240694   4.458   6.667   8.864
 3081POPC   C1A40695   4.288   6.624   8.564
 3081POPC   D2A40696   4.326   6.621   8.264
 3081POPC   C3A40697   4.359   6.615   7.964
 3081POPC   C4A40698   4.273   6.634   7.664
 3081POPC   C1B40699   4.574   6.712   8.564
 3081POPC   C2B40700   4.522   6.765   8.264
 3081POPC   C3B40701   4.506   6.771   7.964
 3081POPC   C4B40702   4.572   6.778   7.664
 3082POPC   NC340703  35.398   7.417   9.464
 3082POPC   PO440704  35.312   7.434   9.164
 3082POPC   GL140705  35.315   7.433   8.864
 3082POPC   GL240706  35.406   7.578   8.864
 3082POPC   C1A40707  35.380   7.446   8.564
 3082POPC   D2A40708  35.351   7.403   8.264
 3082POPC   C3A40709  35.357   7.423   7.964
 3082POPC   C4A40710  35.374   7.468   7.664
 3082POPC   C1B40711  35.348   7.635   8.564
 3082POPC   C2B40712  35.358   7.670   8.264
 3082POPC   C3B40713  35.382   7.707   7.964
 3082POPC   C4B40714  35.362   7.640   7.664
 3083POPC   NC340715  22.192  12.046   9.464
 3083POPC   PO440716  22.199  12.093   9.164
 3083POPC   GL140717  22.177  12.121   8.864
 3083POPC   GL240718  22.297  12.019   8.864
 3083POPC   C1A40719  22.193  12.049   8.564
 3083POPC   D2A40720  22.146  12.033   8.264
 3083POPC   C3A40721  22.209  12.080   7.964
 3083POPC   C4A40722  22.141  12.042   7.664
 3083POPC   C1B40723  22.390  11.942   8.564
 3083POPC   C2B40724  22.361  11.982   8.264
 3083POPC   C3B40725  22.373  11.964   7.964
 3083POPC   C4B40726  22.403  11.953   7.664
 3084POPC   NC340727  22.961  14.421   9.464
 3084POPC   PO440728  22.900  14.434   9.164
 3084POPC   GL140729  22.964  14.424   8.864
 3084POPC   GL240730  22.793  14.395   8.864
 3084POPC   C1A40731  22.985  14.377   8.564
 3084POPC   D2A40732  22.933  14.375   8.264
 3084POPC   C3A40733  22.952  14.449   7.964
 3084POPC   C4A40734  22.914  14.393   7.664
 3084POPC   C1B40735  22.666  14.459   8.564
 3084POPC   C2B40736  22.738  14.443   8.264
 3084POPC   C3B40737  22.734  14.421   7.964
 3084POPC   C4B40738  22.718  14.465   7.664
 3085POPC   NC340739  20.596  38.473   9.464
 3085POPC   PO440740  20.571  38.479   9.164
 3085POPC   GL140741  20.658  38.410   8.864
 3085POPC   GL240742  20.644  38.353   8.864
 3085POPC   C1A40743  20.654  38.477   8.564
 3085POPC   D2A40744  20.638  38.475   8.264
 3085POPC   C3A40745  20.611  38.443   7.964
 3085POPC   C4A40746  20.595  38.430   7.664
 3085POPC   C1B40747  20.761  38.204   8.564
 3085POPC   C2B40748  20.724  38.191   8.264
 3085POPC   C3B40749  20.721  38.211   7.964
 3085POPC   C4B40750  20.744  38.227   7.664
 3086POPC   NC340751  22.203   6.641   9.464
 3086POPC   PO440752  22.134   6.656   9.164
 3086POPC   GL140753  22.172   6.608   8.864
 3086POPC   GL240754  22.100   6.766   8.864
 3086POPC   C1A40755  22.134   6.656   8.564
 3086POPC   D2A40756  22.204   6.684   8.264
 3086POPC   C3A40757  22.167   6.688   7.964
 3086POPC   C4A40758  22.153   6.599   7.664
 3086POPC   C1B40759  22.073   6.883   8.564
 3086POPC   C2B40760  22.044   6.848   8.264
 3086POPC   C3B40761  22.056   6.893   7.964
 3086POPC   C4B40762  22.041   6.865   7.664
 3087POPC   NC340763  33.059  27.561   9.464
 3087POPC   PO440764  32.996  27.596   9.164
 3087POPC   GL140765  33.029  27.572   8.864
 3087POPC   GL240766  33.103  27.455   8.864
 3087POPC   C1A40767  33.013  27.609   8.564
 3087POPC   D2A40768  33.035  27.594   8.264
 3087POPC   C3A40769  33.030  27.561   7.964
 3087POPC   C4A40770  33.065  27.546   7.664
 3087POPC   C1B40771  33.194  27.342   8.564
 3087POPC   C2B40772  33.140  27.341   8.264
 3087POPC   C3B40773  33.183  27.358   7.964
 3087POPC   C4B40774  33.142  27.356   7.664
 3088POPC   NC340775  37.652  23.673   9.464
 3088POPC   PO440776  37.649  23.716   9.164
 3088POPC   GL140777  37.641  23.670   8.864
 3088POPC   GL240778  37.604  23.826   8.864
 3088POPC   C1A40779  37.634  23.758   8.564
 3088POPC   D2A40780  37.645  23.736   8.264
 3088POPC   C3A40781  37.656  23.676   7.964
 3088POPC   C4A40782  37.631  23.677   7.664
 3088POPC   C1B40783  37.500  23.945   8.564
 3088POPC   C2B40784  37.590  23.936   8.264
 3088POPC   C3B40785  37.545  23.911   7.964
 3088POPC   C4B40786  37.552  23.876   7.664
 3089POPC   NC340787  28.397   1.175   9.464
 3089POPC   PO440788  28.390   1.188   9.164
 3089POPC   GL140789  28.391   1.209   8.864
 3089POPC   GL240790  28.328   1.136   8.864
 3089POPC   C1A40791  28.324   1.200   8.564
 3089POPC   D2A40792  28.320   1.207   8.264
 3089POPC   C3A40793  28.321   1.186   7.964
 3089POPC   C4A40794  28.406   1.211   7.664
 3089POPC   C1B40795  28.308   1.021   8.564
 3089POPC   C2B40796  28.305   0.949   8.264
 3089POPC   C3B40797  28.249   0.972   7.964
 3089POPC   C4B40798  28.290   0.941   7.664
 3090POPC   NC340799   3.495   5.052   9.464
 3090POPC   PO440800   3.535   5.111   9.164
 3090POPC   GL140801   3.536   5.115   8.864
 3090POPC   GL240802   3.572   5.013   8.864
 3090POPC   C1A40803   3.492   5.063   8.564
 3090POPC   D2A40804   3.576   5.082   8.264
 3090POPC   C3A40805   3.527   5.092   7.964
 3090POPC   C4A40806   3.515   5.065   7.664
 3090POPC   C1B40807   3.586   4.893   8.564
 3090POPC   C2B40808   3.570   4.807   8.264
 3090POPC   C3B40809   3.588   4.871   7.964
 3090POPC   C4B40810   3.545   4.829   7.664
 3091POPC   NC340811   4.362  13.668   9.464
 3091POPC   PO440812   4.322  13.603   9.164
 3091POPC   GL140813   4.356  13.670   8.864
 3091POPC   GL240814   4.166  13.712   8.864
 3091POPC   C1A40815   4.314  13.630   8.564
 3091POPC   D2A40816   4.352  13.649   8.264
 3091POPC   C3A40817   4.355  13.659   7.964
 3091POPC   C4A40818   4.334  13.597   7.664
 3091POPC   C1B40819   4.066  13.786   8.564
 3091POPC   C2B40820   4.081  13.735   8.264
 3091POPC   C3B40821   4.078  13.762   7.964
 3091POPC   C4B40822   4.078  13.820   7.664
 3092POPC   NC340823  35.305  33.804   9.464
 3092POPC   PO440824  35.358  33.775   9.164
 3092POPC   GL140825  35.371  33.834   8.864
 3092POPC   GL240826  35.477  33.724   8.864
 3092POPC   C1A40827  35.366  33.821   8.564
 3092POPC   D2A40828  35.312  33.832   8.264
 3092POPC   C3A40829  35.308  33.766   7.964
 3092POPC   C4A40830  35.339  33.815   7.664
 3092POPC   C1B40831  35.535  33.621   8.564
 3092POPC   C2B40832  35.489  33.646   8.264
 3092POPC   C3B40833  35.534  33.625   7.964
 3092POPC   C4B40834  35.500  33.674   7.664
 3093POPC   NC340835  19.099  26.077   9.464
 3093POPC   PO440836  19.036  26.026   9.164
 3093POPC   GL140837  19.064  26.074   8.864
 3093POPC   GL240838  18.912  25.971   8.864
 3093POPC   C1A40839  19.030  26.046   8.564
 3093POPC   D2A40840  19.058  25.993   8.264
 3093POPC   C3A40841  19.082  26.030   7.964
 3093POPC   C4A40842  19.063  26.032   7.664
 3093POPC   C1B40843  18.879  25.899   8.564
 3093POPC   C2B40844  18.872  25.932   8.264
 3093POPC   C3B40845  18.813  25.887   7.964
 3093POPC   C4B40846  18.855  25.868   7.664
 3094POPC   NC340847  39.996  40.026   9.464
 3094POPC   PO440848  40.023  40.026   9.164
 3094POPC   GL140849  39.990  40.037   8.864
 3094POPC   GL240850  39.978  40.113   8.864
 3094POPC   C1A40851  40.035  39.987   8.564
 3094POPC   D2A40852  39.960  40.055   8.264
 3094POPC   C3A40853  39.985  39.990   7.964
 3094POPC   C4A40854  39.984  40.017   7.664
 3094POPC   C1B40855  39.886  40.189   8.564
 3094POPC   C2B40856  39.828  40.227   8.264
 3094POPC   C3B40857  39.878  40.264   7.964
 3094POPC   C4B40858  39.828  40.169   7.664
 3095POPC   NC340859  29.943   1.216   9.464
 3095POPC   PO440860  29.911   1.204   9.164
 3095POPC   GL140861  29.946   1.231   8.864
 3095POPC   GL240862  29.902   1.103   8.864
 3095POPC   C1A40863  29.944   1.220   8.564
 3095POPC   D2A40864  29.891   1.212   8.264
 3095POPC   C3A40865  29.890   1.195   7.964
 3095POPC   C4A40866  29.890   1.208   7.664
 3095POPC   C1B40867  29.909   1.001   8.564
 3095POPC   C2B40868  29.881   0.984   8.264
 3095POPC   C3B40869  29.851   0.955   7.964
 3095POPC   C4B40870  29.854   0.996   7.664
 3096POPC   NC340871   1.993  32.289   9.464
 3096POPC   PO440872   1.992  32.204   9.164
 3096POPC   GL140873   1.980  32.254   8.864
 3096POPC   GL240874   2.105  32.204   8.864
 3096POPC   C1A40875   2.035  32.246   8.564
 3096POPC   D2A40876   1.981  32.276   8.264
 3096POPC   C3A40877   2.016  32.202   7.964
 3096POPC   C4A40878   1.995  32.211   7.664
 3096POPC   C1B40879   2.160  32.121   8.564
 3096POPC   C2B40880   2.172  32.087   8.264
 3096POPC   C3B40881   2.188  32.064   7.964
 3096POPC   C4B40882   2.151  32.036   7.664
 3097POPC   NC340883  32.990  12.066   9.464
 3097POPC   PO440884  32.997  12.110   9.164
 3097POPC   GL140885  33.054  12.050   8.864
 3097POPC   GL240886  32.932  11.950   8.864
 3097POPC   C1A40887  33.053  12.076   8.564
 3097POPC   D2A40888  33.007  12.052   8.264
 3097POPC   C3A40889  33.016  12.065   7.964
 3097POPC   C4A40890  33.073  12.081   7.664
 3097POPC   C1B40891  32.943  11.895   8.564
 3097POPC   C2B40892  32.876  11.884   8.264
 3097POPC   C3B40893  32.873  11.902   7.964
 3097POPC   C4B40894  32.884  11.862   7.664
 3098POPC   NC340895   1.228  12.034   9.464
 3098POPC   PO440896   1.196  12.084   9.164
 3098POPC   GL140897   1.171  12.080   8.864
 3098POPC   GL240898   1.189  12.195   8.864
 3098POPC   C1A40899   1.185  12.070   8.564
 3098POPC   D2A40900   1.182  12.106   8.264
 3098POPC   C3A40901   1.217  12.027   7.964
 3098POPC   C4A40902   1.175  12.123   7.664
 3098POPC   C1B40903   1.121  12.320   8.564
 3098POPC   C2B40904   1.103  12.338   8.264
 3098POPC   C3B40905   1.089  12.305   7.964
 3098POPC   C4B40906   1.122  12.251   7.664
 3099POPC   NC340907  28.351  36.106   9.464
 3099POPC   PO440908  28.350  36.114   9.164
 3099POPC   GL140909  28.324  36.153   8.864
 3099POPC   GL240910  28.448  36.161   8.864
 3099POPC   C1A40911  28.359  36.101   8.564
 3099POPC   D2A40912  28.411  36.106   8.264
 3099POPC   C3A40913  28.408  36.111   7.964
 3099POPC   C4A40914  28.326  36.160   7.664
 3099POPC   C1B40915  28.583  36.169   8.564
 3099POPC   C2B40916  28.634  36.252   8.264
 3099POPC   C3B40917  28.598  36.265   7.964
 3099POPC   C4B40918  28.567  36.256   7.664
 3100POPC   NC340919  12.840  36.101   9.464
 3100POPC   PO440920  12.849  36.174   9.164
 3100POPC   GL140921  12.858  36.098   8.864
 3100POPC   GL240922  12.980  36.148   8.864
 3100POPC   C1A40923  12.882  36.081   8.564
 3100POPC   D2A40924  12.831  36.157   8.264
 3100POPC   C3A40925  12.814  36.177   7.964
 3100POPC   C4A40926  12.901  36.097   7.664
 3100POPC   C1B40927  13.063  36.152   8.564
 3100POPC   C2B40928  13.060  36.168   8.264
 3100POPC   C3B40929  13.108  36.178   7.964
 3100POPC   C4B40930  13.069  36.128   7.664
 3101POPC   NC340931  22.174  27.563   9.464
 3101POPC   PO440932  22.207  27.577   9.164
 3101POPC   GL140933  22.206  27.601   8.864
 3101POPC   GL240934  22.011  27.592   8.864
 3101POPC   C1A40935  22.122  27.625   8.564
 3101POPC   D2A40936  22.113  27.626   8.264
 3101POPC   C3A40937  22.194  27.546   7.964
 3101POPC   C4A40938  22.183  27.570   7.664
 3101POPC   C1B40939  21.867  27.581   8.564
 3101POPC   C2B40940  21.938  27.548   8.264
 3101POPC   C3B40941  21.960  27.588   7.964
 3101POPC   C4B40942  21.879  27.556   7.664
 3102POPC   NC340943  36.117  31.438   9.464
 3102POPC   PO440944  36.081  31.496   9.164
 3102POPC   GL140945  36.176  31.439   8.864
 3102POPC   GL240946  36.009  31.469   8.864
 3102POPC   C1A40947  36.084  31.448   8.564
 3102POPC   D2A40948  36.107  31.504   8.264
 3102POPC   C3A40949  36.104  31.485   7.964
 3102POPC   C4A40950  36.114  31.512   7.664
 3102POPC   C1B40951  35.884  31.505   8.564
 3102POPC   C2B40952  35.840  31.512   8.264
 3102POPC   C3B40953  35.878  31.532   7.964
 3102POPC   C4B40954  35.876  31.474   7.664
 3103POPC   NC340955  16.758  26.029   9.464
 3103POPC   PO440956  16.683  26.034   9.164
 3103POPC   GL140957  16.714  26.061   8.864
 3103POPC   GL240958  16.631  26.004   8.864
 3103POPC   C1A40959  16.777  26.039   8.564
 3103POPC   D2A40960  16.684  26.068   8.264
 3103POPC   C3A40961  16.706  25.999   7.964
 3103POPC   C4A40962  16.707  26.012   7.664
 3103POPC   C1B40963  16.551  25.838   8.564
 3103POPC   C2B40964  16.520  25.886   8.264
 3103POPC   C3B40965  16.579  25.863   7.964
 3103POPC   C4B40966  16.530  25.887   7.664
 3104POPC   NC340967  32.980  29.165   9.464
 3104POPC   PO440968  32.991  29.184   9.164
 3104POPC   GL140969  33.047  29.133   8.864
 3104POPC   GL240970  33.093  29.027   8.864
 3104POPC   C1A40971  33.043  29.121   8.564
 3104POPC   D2A40972  33.001  29.134   8.264
 3104POPC   C3A40973  33.053  29.161   7.964
 3104POPC   C4A40974  32.982  29.183   7.664
 3104POPC   C1B40975  33.058  28.878   8.564
 3104POPC   C2B40976  33.066  28.855   8.264
 3104POPC   C3B40977  33.083  28.863   7.964
 3104POPC   C4B40978  33.101  28.895   7.664
 3105POPC   NC340979  41.596  44.684   9.464
 3105POPC   PO440980  41.608  44.613   9.164
 3105POPC   GL140981  41.564  44.632   8.864
 3105POPC   GL240982  41.527  44.753   8.864
 3105POPC   C1A40983  41.606  44.706   8.564
 3105POPC   D2A40984  41.529  44.667   8.264
 3105POPC   C3A40985  41.550  44.690   7.964
 3105POPC   C4A40986  41.527  44.624   7.664
 3105POPC   C1B40987  41.547  44.956   8.564
 3105POPC   C2B40988  41.588  44.896   8.264
 3105POPC   C3B40989  41.575  44.918   7.964
 3105POPC   C4B40990  41.639  44.920   7.664
 3106POPC   NC340991  37.724  16.777   9.464
 3106POPC   PO440992  37.693  16.699   9.164
 3106POPC   GL140993  37.638  16.727   8.864
 3106POPC   GL240994  37.555  16.598   8.864
 3106POPC   C1A40995  37.643  16.703   8.564
 3106POPC   D2A40996  37.689  16.721   8.264
 3106POPC   C3A40997  37.717  16.698   7.964
 3106POPC   C4A40998  37.694  16.721   7.664
 3106POPC   C1B40999  37.497  16.555   8.564
 3106POPC   C2B41000  37.456  16.603   8.264
 3106POPC   C3B41001  37.458  16.515   7.964
 3106POPC   C4B41002  37.465  16.517   7.664
 3107POPC   NC341003  19.104  19.879   9.464
 3107POPC   PO441004  19.091  19.816   9.164
 3107POPC   GL141005  19.099  19.841   8.864
 3107POPC   GL241006  19.024  19.748   8.864
 3107POPC   C1A41007  19.072  19.801   8.564
 3107POPC   D2A41008  19.013  19.856   8.264
 3107POPC   C3A41009  19.040  19.844   7.964
 3107POPC   C4A41010  19.090  19.796   7.664
 3107POPC   C1B41011  18.952  19.626   8.564
 3107POPC   C2B41012  18.886  19.673   8.264
 3107POPC   C3B41013  18.873  19.672   7.964
 3107POPC   C4B41014  18.889  19.637   7.664
 3108POPC   NC341015  30.648  39.220   9.464
 3108POPC   PO441016  30.718  39.226   9.164
 3108POPC   GL141017  30.709  39.267   8.864
 3108POPC   GL241018  30.566  39.331   8.864
 3108POPC   C1A41019  30.743  39.248   8.564
 3108POPC   D2A41020  30.722  39.249   8.264
 3108POPC   C3A41021  30.648  39.261   7.964
 3108POPC   C4A41022  30.728  39.247   7.664
 3108POPC   C1B41023  30.519  39.415   8.564
 3108POPC   C2B41024  30.497  39.412   8.264
 3108POPC   C3B41025  30.537  39.411   7.964
 3108POPC   C4B41026  30.554  39.436   7.664
 3109POPC   NC341027  19.788  13.607   9.464
 3109POPC   PO441028  19.830  13.635   9.164
 3109POPC   GL141029  19.792  13.640   8.864
 3109POPC   GL241030  19.971  13.616   8.864
 3109POPC   C1A41031  19.802  13.594   8.564
 3109POPC   D2A41032  19.800  13.585   8.264
 3109POPC   C3A41033  19.820  13.620   7.964
 3109POPC   C4A41034  19.807  13.658   7.664
 3109POPC   C1B41035  20.046  13.591   8.564
 3109POPC   C2B41036  20.062  13.661   8.264
 3109POPC   C3B41037  20.120  13.629   7.964
 3109POPC   C4B41038  20.113  13.588   7.664
 3110POPC   NC341039  13.658  22.133   9.464
 3110POPC   PO441040  13.641  22.163   9.164
 3110POPC   GL141041  13.622  22.164   8.864
 3110POPC   GL241042  13.482  22.134   8.864
 3110POPC   C1A41043  13.649  22.158   8.564
 3110POPC   D2A41044  13.621  22.161   8.264
 3110POPC   C3A41045  13.667  22.164   7.964
 3110POPC   C4A41046  13.645  22.200   7.664
 3110POPC   C1B41047  13.379  22.194   8.564
 3110POPC   C2B41048  13.332  22.234   8.264
 3110POPC   C3B41049  13.377  22.244   7.964
 3110POPC   C4B41050  13.353  22.202   7.664
 3111POPC   NC341051  15.910  35.384   9.464
 3111POPC   PO441052  15.998  35.386   9.164
 3111POPC   GL141053  15.942  35.350   8.864
 3111POPC   GL241054  16.085  35.412   8.864
 3111POPC   C1A41055  15.923  35.335   8.564
 3111POPC   D2A41056  15.957  35.327   8.264
 3111POPC   C3A41057  15.964  35.371   7.964
 3111POPC   C4A41058  15.923  35.392   7.664
 3111POPC   C1B41059  16.137  35.503   8.564
 3111POPC   C2B41060  16.094  35.509   8.264
 3111POPC   C3B41061  16.155  35.584   7.964
 3111POPC   C4B41062  16.101  35.535   7.664
 3112POPC   NC341063  28.337  18.298   9.464
 3112POPC   PO441064  28.411  18.262   9.164
 3112POPC   GL141065  28.416  18.307   8.864
 3112POPC   GL241066  28.265  18.382   8.864
 3112POPC   C1A41067  28.335  18.238   8.564
 3112POPC   D2A41068  28.376  18.263   8.264
 3112POPC   C3A41069  28.344  18.233   7.964
 3112POPC   C4A41070  28.324  18.276   7.664
 3112POPC   C1B41071  28.271  18.522   8.564
 3112POPC   C2B41072  28.231  18.488   8.264
 3112POPC   C3B41073  28.268  18.493   7.964
 3112POPC   C4B41074  28.233  18.456   7.664
 3113POPC   NC341075  30.737  33.783   9.464
 3113POPC   PO441076  30.670  33.814   9.164
 3113POPC   GL141077  30.657  33.799   8.864
 3113POPC   GL241078  30.689  33.947   8.864
 3113POPC   C1A41079  30.647  33.831   8.564
 3113POPC   D2A41080  30.661  33.791   8.264
 3113POPC   C3A41081  30.659  33.790   7.964
 3113POPC   C4A41082  30.701  33.847   7.664
 3113POPC   C1B41083  30.583  34.007   8.564
 3113POPC   C2B41084  30.623  34.017   8.264
 3113POPC   C3B41085  30.581  34.048   7.964
 3113POPC   C4B41086  30.604  34.055   7.664
 3114POPC   NC341087  35.372  23.729   9.464
 3114POPC   PO441088  35.378  23.715   9.164
 3114POPC   GL141089  35.392  23.759   8.864
 3114POPC   GL241090  35.430  23.581   8.864
 3114POPC   C1A41091  35.302  23.691   8.564
 3114POPC   D2A41092  35.374  23.713   8.264
 3114POPC   C3A41093  35.364  23.758   7.964
 3114POPC   C4A41094  35.306  23.673   7.664
 3114POPC   C1B41095  35.436  23.437   8.564
 3114POPC   C2B41096  35.447  23.458   8.264
 3114POPC   C3B41097  35.469  23.463   7.964
 3114POPC   C4B41098  35.469  23.471   7.664
 3115POPC   NC341099  19.080   5.066   9.464
 3115POPC   PO441100  19.064   5.068   9.164
 3115POPC   GL141101  19.080   5.050   8.864
 3115POPC   GL241102  19.165   5.203   8.864
 3115POPC   C1A41103  19.089   5.063   8.564
 3115POPC   D2A41104  19.078   5.121   8.264
 3115POPC   C3A41105  19.034   5.109   7.964
 3115POPC   C4A41106  19.086   5.073   7.664
 3115POPC   C1B41107  19.235   5.273   8.564
 3115POPC   C2B41108  19.244   5.331   8.264
 3115POPC   C3B41109  19.271   5.295   7.964
 3115POPC   C4B41110  19.228   5.286   7.664
 3116POPC   NC341111  42.346  33.026   9.464
 3116POPC   PO441112  42.363  33.036   9.164
 3116POPC   GL141113  42.354  32.986   8.864
 3116POPC   GL241114  42.304  32.909   8.864
 3116POPC   C1A41115  42.356  32.985   8.564
 3116POPC   D2A41116  42.359  33.003   8.264
 3116POPC   C3A41117  42.349  33.057   7.964
 3116POPC   C4A41118  42.311  33.015   7.664
 3116POPC   C1B41119  42.209  32.822   8.564
 3116POPC   C2B41120  42.243  32.833   8.264
 3116POPC   C3B41121  42.293  32.833   7.964
 3116POPC   C4B41122  42.272  32.761   7.664
 3117POPC   NC341123  29.142  41.579   9.464
 3117POPC   PO441124  29.116  41.597   9.164
 3117POPC   GL141125  29.120  41.533   8.864
 3117POPC   GL241126  29.172  41.690   8.864
 3117POPC   C1A41127  29.128  41.587   8.564
 3117POPC   D2A41128  29.181  41.597   8.264
 3117POPC   C3A41129  29.186  41.510   7.964
 3117POPC   C4A41130  29.120  41.573   7.664
 3117POPC   C1B41131  29.205  41.801   8.564
 3117POPC   C2B41132  29.132  41.798   8.264
 3117POPC   C3B41133  29.200  41.768   7.964
 3117POPC   C4B41134  29.170  41.839   7.664
 3118POPC   NC341135   1.237  20.616   9.464
 3118POPC   PO441136   1.206  20.584   9.164
 3118POPC   GL141137   1.253  20.659   8.864
 3118POPC   GL241138   1.358  20.629   8.864
 3118POPC   C1A41139   1.250  20.579   8.564
 3118POPC   D2A41140   1.206  20.598   8.264
 3118POPC   C3A41141   1.229  20.599   7.964
 3118POPC   C4A41142   1.206  20.577   7.664
 3118POPC   C1B41143   1.471  20.632   8.564
 3118POPC   C2B41144   1.492  20.617   8.264
 3118POPC   C3B41145   1.429  20.606   7.964
 3118POPC   C4B41146   1.417  20.679   7.664
 3119POPC   NC341147  26.769  22.127   9.464
 3119POPC   PO441148  26.770  22.126   9.164
 3119POPC   GL141149  26.769  22.160   8.864
 3119POPC   GL241150  26.945  22.066   8.864
 3119POPC   C1A41151  26.814  22.177   8.564
 3119POPC   D2A41152  26.787  22.179   8.264
 3119POPC   C3A41153  26.773  22.151   7.964
 3119POPC   C4A41154  26.865  22.120   7.664
 3119POPC   C1B41155  27.009  22.042   8.564
 3119POPC   C2B41156  26.972  22.059   8.264
 3119POPC   C3B41157  27.040  21.995   7.964
 3119POPC   C4B41158  27.002  21.963   7.664
 3120POPC   NC341159  43.090   8.187   9.464
 3120POPC   PO441160  43.097   8.196   9.164
 3120POPC   GL141161  43.145   8.162   8.864
 3120POPC   GL241162  42.970   8.229   8.864
 3120POPC   C1A41163  43.113   8.147   8.564
 3120POPC   D2A41164  43.075   8.231   8.264
 3120POPC   C3A41165  43.133   8.170   7.964
 3120POPC   C4A41166  43.084   8.239   7.664
 3120POPC   C1B41167  42.819   8.128   8.564
 3120POPC   C2B41168  42.837   8.173   8.264
 3120POPC   C3B41169  42.902   8.144   7.964
 3120POPC   C4B41170  42.888   8.175   7.664
 3121POPC   NC341171  41.514  23.754   9.464
 3121POPC   PO441172  41.572  23.703   9.164
 3121POPC   GL141173  41.580  23.729   8.864
 3121POPC   GL241174  41.493  23.558   8.864
 3121POPC   C1A41175  41.584  23.705   8.564
 3121POPC   D2A41176  41.564  23.688   8.264
 3121POPC   C3A41177  41.601  23.752   7.964
 3121POPC   C4A41178  41.572  23.668   7.664
 3121POPC   C1B41179  41.461  23.448   8.564
 3121POPC   C2B41180  41.503  23.456   8.264
 3121POPC   C3B41181  41.467  23.446   7.964
 3121POPC   C4B41182  41.472  23.427   7.664
 3122POPC   NC341183  28.367  19.050   9.464
 3122POPC   PO441184  28.330  19.054   9.164
 3122POPC   GL141185  28.402  19.079   8.864
 3122POPC   GL241186  28.359  18.900   8.864
 3122POPC   C1A41187  28.353  19.062   8.564
 3122POPC   D2A41188  28.375  19.039   8.264
 3122POPC   C3A41189  28.328  19.071   7.964
 3122POPC   C4A41190  28.335  19.033   7.664
 3122POPC   C1B41191  28.386  18.846   8.564
 3122POPC   C2B41192  28.387  18.783   8.264
 3122POPC   C3B41193  28.426  18.855   7.964
 3122POPC   C4B41194  28.382  18.779   7.664
 3123POPC   NC341195  24.479  11.307   9.464
 3123POPC   PO441196  24.514  11.311   9.164
 3123POPC   GL141197  24.503  11.317   8.864
 3123POPC   GL241198  24.394  11.267   8.864
 3123POPC   C1A41199  24.514  11.274   8.564
 3123POPC   D2A41200  24.530  11.315   8.264
 3123POPC   C3A41201  24.519  11.261   7.964
 3123POPC   C4A41202  24.492  11.316   7.664
 3123POPC   C1B41203  24.312  11.228   8.564
 3123POPC   C2B41204  24.301  11.156   8.264
 3123POPC   C3B41205  24.273  11.209   7.964
 3123POPC   C4B41206  24.292  11.156   7.664
 3124POPC   NC341207  14.449  26.012   9.464
 3124POPC   PO441208  14.373  26.063   9.164
 3124POPC   GL141209  14.419  26.038   8.864
 3124POPC   GL241210  14.430  25.954   8.864
 3124POPC   C1A41211  14.384  26.025   8.564
 3124POPC   D2A41212  14.377  26.035   8.264
 3124POPC   C3A41213  14.389  26.003   7.964
 3124POPC   C4A41214  14.450  26.052   7.664
 3124POPC   C1B41215  14.390  25.785   8.564
 3124POPC   C2B41216  14.412  25.774   8.264
 3124POPC   C3B41217  14.339  25.788   7.964
 3124POPC   C4B41218  14.386  25.799   7.664
 3125POPC   NC341219  44.615  44.691   5.564
 3125POPC   PO441220  44.643  44.678   5.864
 3125POPC   GL141221  44.647  44.676   6.164
 3125POPC   GL241222  44.743  44.728   6.164
 3125POPC   C1A41223  44.687  44.677   6.464
 3125POPC   D2A41224  44.697  44.707   6.764
 3125POPC   C3A41225  44.700  44.631   7.064
 3125POPC   C4A41226  44.633  44.649   7.364
 3125POPC   C1B41227  44.813  44.824   6.464
 3125POPC   C2B41228  44.805  44.874   6.764
 3125POPC   C3B41229  44.821  44.833   7.064
 3125POPC   C4B41230  44.828  44.815   7.364
 3126POPC   NC341231  20.620  42.339   5.564
 3126POPC   PO441232  20.596  42.346   5.864
 3126POPC   GL141233  20.567  42.341   6.164
 3126POPC   GL241234  20.496  42.266   6.164
 3126POPC   C1A41235  20.582  42.310   6.464
 3126POPC   D2A41236  20.569  42.345   6.764
 3126POPC   C3A41237  20.598  42.296   7.064
 3126POPC   C4A41238  20.588  42.287   7.364
 3126POPC   C1B41239  20.355  42.247   6.464
 3126POPC   C2B41240  20.405  42.224   6.764
 3126POPC   C3B41241  20.391  42.275   7.064
 3126POPC   C4B41242  20.419  42.240   7.364
 3127POPC   NC341243  19.049  22.181   5.564
 3127POPC   PO441244  19.039  22.187   5.864
 3127POPC   GL141245  19.053  22.123   6.164
 3127POPC   GL241246  19.101  22.302   6.164
 3127POPC   C1A41247  19.038  22.166   6.464
 3127POPC   D2A41248  19.040  22.194   6.764
 3127POPC   C3A41249  19.056  22.188   7.064
 3127POPC   C4A41250  19.041  22.158   7.364
 3127POPC   C1B41251  19.144  22.386   6.464
 3127POPC   C2B41252  19.101  22.433   6.764
 3127POPC   C3B41253  19.150  22.390   7.064
 3127POPC   C4B41254  19.145  22.353   7.364
 3128POPC   NC341255  32.981   1.185   5.564
 3128POPC   PO441256  33.037   1.179   5.864
 3128POPC   GL141257  33.043   1.235   6.164
 3128POPC   GL241258  33.047   1.367   6.164
 3128POPC   C1A41259  33.042   1.187   6.464
 3128POPC   D2A41260  33.009   1.262   6.764
 3128POPC   C3A41261  32.987   1.255   7.064
 3128POPC   C4A41262  33.029   1.184   7.364
 3128POPC   C1B41263  33.032   1.448   6.464
 3128POPC   C2B41264  32.941   1.475   6.764
 3128POPC   C3B41265  32.935   1.411   7.064
 3128POPC   C4B41266  33.019   1.505   7.364
 3129POPC   NC341267  43.878  17.470   5.564
 3129POPC   PO441268  43.847  17.490   5.864
 3129POPC   GL141269  43.885  17.546   6.164
 3129POPC   GL241270  43.821  17.399   6.164
 3129POPC   C1A41271  43.877  17.514   6.464
 3129POPC   D2A41272  43.849  17.545   6.764
 3129POPC   C3A41273  43.862  17.467   7.064
 3129POPC   C4A41274  43.925  17.518   7.364
 3129POPC   C1B41275  43.693  17.336   6.464
 3129POPC   C2B41276  43.666  17.381   6.764
 3129POPC   C3B41277  43.649  17.348   7.064
 3129POPC   C4B41278  43.674  17.375   7.364
 3130POPC   NC341279  39.241  33.026   5.564
 3130POPC   PO441280  39.254  33.065   5.864
 3130POPC   GL141281  39.269  32.992   6.164
 3130POPC   GL241282  39.318  32.974   6.164
 3130POPC   C1A41283  39.260  33.044   6.464
 3130POPC   D2A41284  39.197  33.068   6.764
 3130POPC   C3A41285  39.260  33.051   7.064
 3130POPC   C4A41286  39.188  33.058   7.364
 3130POPC   C1B41287  39.478  32.899   6.464
 3130POPC   C2B41288  39.442  32.922   6.764
 3130POPC   C3B41289  39.477  32.904   7.064
 3130POPC   C4B41290  39.480  32.914   7.364
 3131POPC   NC341291  29.156  33.808   5.564
 3131POPC   PO441292  29.122  33.828   5.864
 3131POPC   GL141293  29.129  33.765   6.164
 3131POPC   GL241294  29.079  33.767   6.164
 3131POPC   C1A41295  29.181  33.829   6.464
 3131POPC   D2A41296  29.095  33.847   6.764
 3131POPC   C3A41297  29.117  33.829   7.064
 3131POPC   C4A41298  29.124  33.759   7.364
 3131POPC   C1B41299  28.976  33.625   6.464
 3131POPC   C2B41300  28.996  33.650   6.764
 3131POPC   C3B41301  28.941  33.622   7.064
 3131POPC   C4B41302  28.898  33.693   7.364
 3132POPC   NC341303   8.236   5.045   5.564
 3132POPC   PO441304   8.173   5.083   5.864
 3132POPC   GL141305   8.202   5.120   6.164
 3132POPC   GL241306   8.123   5.020   6.164
 3132POPC   C1A41307   8.204   5.091   6.464
 3132POPC   D2A41308   8.149   5.097   6.764
 3132POPC   C3A41309   8.185   5.099   7.064
 3132POPC   C4A41310   8.214   5.093   7.364
 3132POPC   C1B41311   8.046   4.895   6.464
 3132POPC   C2B41312   8.031   4.908   6.764
 3132POPC   C3B41313   8.008   4.970   7.064
 3132POPC   C4B41314   8.026   4.942   7.364
 3133POPC   NC341315  26.027   5.889   5.564
 3133POPC   PO441316  26.022   5.838   5.864
 3133POPC   GL141317  26.065   5.874   6.164
 3133POPC   GL241318  25.996   5.756   6.164
 3133POPC   C1A41319  26.048   5.899   6.464
 3133POPC   D2A41320  25.996   5.833   6.764
 3133POPC   C3A41321  26.003   5.854   7.064
 3133POPC   C4A41322  26.031   5.918   7.364
 3133POPC   C1B41323  25.950   5.695   6.464
 3133POPC   C2B41324  25.851   5.671   6.764
 3133POPC   C3B41325  25.929   5.700   7.064
 3133POPC   C4B41326  25.907   5.689   7.364
 3134POPC   NC341327   9.767  36.864   5.564
 3134POPC   PO441328   9.735  36.887   5.864
 3134POPC   GL141329   9.771  36.900   6.164
 3134POPC   GL241330   9.641  36.861   6.164
 3134POPC   C1A41331   9.770  36.872   6.464
 3134POPC   D2A41332   9.788  36.885   6.764
 3134POPC   C3A41333   9.794  36.953   7.064
 3134POPC   C4A41334   9.713  36.893   7.364
 3134POPC   C1B41335   9.513  36.788   6.464
 3134POPC   C2B41336   9.485  36.798   6.764
 3134POPC   C3B41337   9.487  36.794   7.064
 3134POPC   C4B41338   9.576  36.728   7.364
 3135POPC   NC341339  33.773  24.506   5.564
 3135POPC   PO441340  33.839  24.490   5.864
 3135POPC   GL141341  33.788  24.512   6.164
 3135POPC   GL241342  33.765  24.596   6.164
 3135POPC   C1A41343  33.837  24.487   6.464
 3135POPC   D2A41344  33.778  24.456   6.764
 3135POPC   C3A41345  33.765  24.520   7.064
 3135POPC   C4A41346  33.810  24.461   7.364
 3135POPC   C1B41347  33.773  24.709   6.464
 3135POPC   C2B41348  33.693  24.772   6.764
 3135POPC   C3B41349  33.744  24.727   7.064
 3135POPC   C4B41350  33.726  24.777   7.364
 3136POPC   NC341351  29.191  19.880   5.564
 3136POPC   PO441352  29.164  19.808   5.864
 3136POPC   GL141353  29.149  19.854   6.164
 3136POPC   GL241354  29.049  19.752   6.164
 3136POPC   C1A41355  29.102  19.837   6.464
 3136POPC   D2A41356  29.173  19.808   6.764
 3136POPC   C3A41357  29.174  19.828   7.064
 3136POPC   C4A41358  29.101  19.787   7.364
 3136POPC   C1B41359  29.006  19.607   6.464
 3136POPC   C2B41360  28.945  19.650   6.764
 3136POPC   C3B41361  28.985  19.669   7.064
 3136POPC   C4B41362  28.963  19.606   7.364
 3137POPC   NC341363  19.841   8.962   5.564
 3137POPC   PO441364  19.851   8.934   5.864
 3137POPC   GL141365  19.881   8.991   6.164
 3137POPC   GL241366  19.818   8.896   6.164
 3137POPC   C1A41367  19.881   8.954   6.464
 3137POPC   D2A41368  19.845   9.005   6.764
 3137POPC   C3A41369  19.808   8.979   7.064
 3137POPC   C4A41370  19.813   9.021   7.364
 3137POPC   C1B41371  19.768   8.774   6.464
 3137POPC   C2B41372  19.830   8.761   6.764
 3137POPC   C3B41373  19.793   8.728   7.064
 3137POPC   C4B41374  19.772   8.701   7.364
 3138POPC   NC341375   5.866  37.724   5.564
 3138POPC   PO441376   5.880  37.703   5.864
 3138POPC   GL141377   5.833  37.676   6.164
 3138POPC   GL241378   5.944  37.750   6.164
 3138POPC   C1A41379   5.914  37.696   6.464
 3138POPC   D2A41380   5.909  37.719   6.764
 3138POPC   C3A41381   5.851  37.697   7.064
 3138POPC   C4A41382   5.835  37.636   7.364
 3138POPC   C1B41383   6.041  37.782   6.464
 3138POPC   C2B41384   6.098  37.823   6.764
 3138POPC   C3B41385   6.105  37.776   7.064
 3138POPC   C4B41386   6.097  37.769   7.364
 3139POPC   NC341387  41.581   2.018   5.564
 3139POPC   PO441388  41.581   2.016   5.864
 3139POPC   GL141389  41.608   1.985   6.164
 3139POPC   GL241390  41.529   2.084   6.164
 3139POPC   C1A41391  41.530   1.949   6.464
 3139POPC   D2A41392  41.574   2.005   6.764
 3139POPC   C3A41393  41.530   1.947   7.064
 3139POPC   C4A41394  41.519   2.004   7.364
 3139POPC   C1B41395  41.461   2.202   6.464
 3139POPC   C2B41396  41.485   2.216   6.764
 3139POPC   C3B41397  41.442   2.229   7.064
 3139POPC   C4B41398  41.441   2.229   7.364
 3140POPC   NC341399   4.279   2.796   5.564
 3140POPC   PO441400   4.335   2.802   5.864
 3140POPC   GL141401   4.318   2.728   6.164
 3140POPC   GL241402   4.337   2.847   6.164
 3140POPC   C1A41403   4.361   2.740   6.464
 3140POPC   D2A41404   4.286   2.739   6.764
 3140POPC   C3A41405   4.343   2.735   7.064
 3140POPC   C4A41406   4.349   2.814   7.364
 3140POPC   C1B41407   4.444   2.934   6.464
 3140POPC   C2B41408   4.424   3.002   6.764
 3140POPC   C3B41409   4.488   3.014   7.064
 3140POPC   C4B41410   4.466   2.940   7.364
 3141POPC   NC341411  36.875  13.597   5.564
 3141POPC   PO441412  36.913  13.619   5.864
 3141POPC   GL141413  36.939  13.597   6.164
 3141POPC   GL241414  36.847  13.704   6.164
 3141POPC   C1A41415  36.924  13.661   6.464
 3141POPC   D2A41416  36.946  13.631   6.764
 3141POPC   C3A41417  36.924  13.640   7.064
 3141POPC   C4A41418  36.921  13.646   7.364
 3141POPC   C1B41419  36.758  13.821   6.464
 3141POPC   C2B41420  36.770  13.849   6.764
 3141POPC   C3B41421  36.790  13.835   7.064
 3141POPC   C4B41422  36.764  13.904   7.364
 3142POPC   NC341423  43.908  44.676   5.564
 3142POPC   PO441424  43.931  44.695   5.864
 3142POPC   GL141425  43.872  44.662   6.164
 3142POPC   GL241426  43.898  44.591   6.164
 3142POPC   C1A41427  43.863  44.694   6.464
 3142POPC   D2A41428  43.865  44.703   6.764
 3142POPC   C3A41429  43.879  44.636   7.064
 3142POPC   C4A41430  43.869  44.657   7.364
 3142POPC   C1B41431  43.983  44.463   6.464
 3142POPC   C2B41432  43.928  44.441   6.764
 3142POPC   C3B41433  43.928  44.378   7.064
 3142POPC   C4B41434  43.958  44.437   7.364
 3143POPC   NC341435   1.990  39.958   5.564
 3143POPC   PO441436   2.012  40.033   5.864
 3143POPC   GL141437   1.950  40.036   6.164
 3143POPC   GL241438   2.074  39.939   6.164
 3143POPC   C1A41439   1.982  39.979   6.464
 3143POPC   D2A41440   1.957  39.999   6.764
 3143POPC   C3A41441   1.995  39.980   7.064
 3143POPC   C4A41442   1.981  39.989   7.364
 3143POPC   C1B41443   2.110  39.803   6.464
 3143POPC   C2B41444   2.165  39.794   6.764
 3143POPC   C3B41445   2.112  39.781   7.064
 3143POPC   C4B41446   2.163  39.806   7.364
 3144POPC   NC341447  43.869   8.209   5.564
 3144POPC   PO441448  43.873   8.175   5.864
 3144POPC   GL141449  43.906   8.220   6.164
 3144POPC   GL241450  43.756   8.187   6.164
 3144POPC   C1A41451  43.906   8.221   6.464
 3144POPC   D2A41452  43.853   8.162   6.764
 3144POPC   C3A41453  43.893   8.160   7.064
 3144POPC   C4A41454  43.861   8.148   7.364
 3144POPC   C1B41455  43.672   8.237   6.464
 3144POPC   C2B41456  43.666   8.209   6.764
 3144POPC   C3B41457  43.606   8.208   7.064
 3144POPC   C4B41458  43.644   8.251   7.364
 3145POPC   NC341459   6.611  22.909   5.564
 3145POPC   PO441460   6.626  22.968   5.864
 3145POPC   GL141461   6.596  22.969   6.164
 3145POPC   GL241462   6.683  22.849   6.164
 3145POPC   C1A41463   6.679  22.912   6.464
 3145POPC   D2A41464   6.660  22.901   6.764
 3145POPC   C3A41465   6.693  22.977   7.064
 3145POPC   C4A41466   6.600  22.980   7.364
 3145POPC   C1B41467   6.809  22.727   6.464
 3145POPC   C2B41468   6.822  22.728   6.764
 3145POPC   C3B41469   6.788  22.706   7.064
 3145POPC   C4B41470   6.810  22.707   7.364
 3146POPC   NC341471  25.226  15.175   5.564
 3146POPC   PO441472  25.262  15.144   5.864
 3146POPC   GL141473  25.258  15.183   6.164
 3146POPC   GL241474  25.216  15.268   6.164
 3146POPC   C1A41475  25.250  15.184   6.464
 3146POPC   D2A41476  25.264  15.151   6.764
 3146POPC   C3A41477  25.234  15.150   7.064
 3146POPC   C4A41478  25.282  15.140   7.364
 3146POPC   C1B41479  25.265  15.427   6.464
 3146POPC   C2B41480  25.241  15.453   6.764
 3146POPC   C3B41481  25.208  15.404   7.064
 3146POPC   C4B41482  25.240  15.379   7.364
 3147POPC   NC341483  15.913  15.929   5.564
 3147POPC   PO441484  15.961  15.959   5.864
 3147POPC   GL141485  15.951  15.915   6.164
 3147POPC   GL241486  15.871  15.815   6.164
 3147POPC   C1A41487  15.949  15.996   6.464
 3147POPC   D2A41488  15.915  15.992   6.764
 3147POPC   C3A41489  15.924  15.960   7.064
 3147POPC   C4A41490  15.911  15.972   7.364
 3147POPC   C1B41491  15.815  15.766   6.464
 3147POPC   C2B41492  15.884  15.705   6.764
 3147POPC   C3B41493  15.835  15.753   7.064
 3147POPC   C4B41494  15.835  15.738   7.364
 3148POPC   NC341495  35.395  24.526   5.564
 3148POPC   PO441496  35.326  24.462   5.864
 3148POPC   GL141497  35.388  24.454   6.164
 3148POPC   GL241498  35.425  24.433   6.164
 3148POPC   C1A41499  35.310  24.475   6.464
 3148POPC   D2A41500  35.353  24.460   6.764
 3148POPC   C3A41501  35.365  24.518   7.064
 3148POPC   C4A41502  35.378  24.508   7.364
 3148POPC   C1B41503  35.599  24.379   6.464
 3148POPC   C2B41504  35.554  24.382   6.764
 3148POPC   C3B41505  35.570  24.393   7.064
 3148POPC   C4B41506  35.616  24.450   7.364
 3149POPC   NC341507  23.682  32.243   5.564
 3149POPC   PO441508  23.694  32.268   5.864
 3149POPC   GL141509  23.727  32.237   6.164
 3149POPC   GL241510  23.804  32.168   6.164
 3149POPC   C1A41511  23.731  32.249   6.464
 3149POPC   D2A41512  23.717  32.282   6.764
 3149POPC   C3A41513  23.752  32.250   7.064
 3149POPC   C4A41514  23.755  32.256   7.364
 3149POPC   C1B41515  23.954  32.198   6.464
 3149POPC   C2B41516  23.958  32.152   6.764
 3149POPC   C3B41517  23.952  32.150   7.064
 3149POPC   C4B41518  23.991  32.235   7.364
 3150POPC   NC341519   8.999   2.758   5.564
 3150POPC   PO441520   8.929   2.716   5.864
 3150POPC   GL141521   8.943   2.759   6.164
 3150POPC   GL241522   8.964   2.648   6.164
 3150POPC   C1A41523   9.002   2.741   6.464
 3150POPC   D2A41524   8.973   2.803   6.764
 3150POPC   C3A41525   9.007   2.794   7.064
 3150POPC   C4A41526   8.969   2.781   7.364
 3150POPC   C1B41527   9.033   2.550   6.464
 3150POPC   C2B41528   9.057   2.549   6.764
 3150POPC   C3B41529   9.045   2.562   7.064
 3150POPC   C4B41530   9.038   2.529   7.364
 3151POPC   NC341531  13.635  41.513   5.564
 3151POPC   PO441532  13.608  41.603   5.864
 3151POPC   GL141533  13.626  41.597   6.164
 3151POPC   GL241534  13.704  41.607   6.164
 3151POPC   C1A41535  13.668  41.600   6.464
 3151POPC   D2A41536  13.583  41.582   6.764
 3151POPC   C3A41537  13.663  41.516   7.064
 3151POPC   C4A41538  13.608  41.538   7.364
 3151POPC   C1B41539  13.888  41.648   6.464
 3151POPC   C2B41540  13.852  41.620   6.764
 3151POPC   C3B41541  13.881  41.657   7.064
 3151POPC   C4B41542  13.869  41.645   7.364
 3152POPC   NC341543  25.233  36.106   5.564
 3152POPC   PO441544  25.311  36.167   5.864
 3152POPC   GL141545  25.243  36.151   6.164
 3152POPC   GL241546  25.334  36.278   6.164
 3152POPC   C1A41547  25.236  36.108   6.464
 3152POPC   D2A41548  25.293  36.153   6.764
 3152POPC   C3A41549  25.296  36.168   7.064
 3152POPC   C4A41550  25.292  36.090   7.364
 3152POPC   C1B41551  25.307  36.343   6.464
 3152POPC   C2B41552  25.326  36.373   6.764
 3152POPC   C3B41553  25.333  36.371   7.064
 3152POPC   C4B41554  25.290  36.402   7.364
 3153POPC   NC341555  23.713  36.121   5.564
 3153POPC   PO441556  23.711  36.140   5.864
 3153POPC   GL141557  23.684  36.123   6.164
 3153POPC   GL241558  23.602  36.049   6.164
 3153POPC   C1A41559  23.755  36.116   6.464
 3153POPC   D2A41560  23.747  36.138   6.764
 3153POPC   C3A41561  23.715  36.109   7.064
 3153POPC   C4A41562  23.731  36.147   7.364
 3153POPC   C1B41563  23.582  35.880   6.464
 3153POPC   C2B41564  23.598  35.958   6.764
 3153POPC   C3B41565  23.568  35.912   7.064
 3153POPC   C4B41566  23.588  35.961   7.364
 3154POPC   NC341567  31.448  23.758   5.564
 3154POPC   PO441568  31.506  23.717   5.864
 3154POPC   GL141569  31.504  23.725   6.164
 3154POPC   GL241570  31.404  23.589   6.164
 3154POPC   C1A41571  31.520  23.742   6.464
 3154POPC   D2A41572  31.473  23.762   6.764
 3154POPC   C3A41573  31.480  23.689   7.064
 3154POPC   C4A41574  31.493  23.720   7.364
 3154POPC   C1B41575  31.328  23.509   6.464
 3154POPC   C2B41576  31.350  23.452   6.764
 3154POPC   C3B41577  31.402  23.461   7.064
 3154POPC   C4B41578  31.400  23.495   7.364
 3155POPC   NC341579  29.943   2.735   5.564
 3155POPC   PO441580  29.876   2.763   5.864
 3155POPC   GL141581  29.968   2.734   6.164
 3155POPC   GL241582  29.890   2.885   6.164
 3155POPC   C1A41583  29.896   2.778   6.464
 3155POPC   D2A41584  29.953   2.782   6.764
 3155POPC   C3A41585  29.909   2.806   7.064
 3155POPC   C4A41586  29.969   2.806   7.364
 3155POPC   C1B41587  29.823   2.988   6.464
 3155POPC   C2B41588  29.802   3.034   6.764
 3155POPC   C3B41589  29.854   3.014   7.064
 3155POPC   C4B41590  29.829   3.037   7.364
 3156POPC   NC341591   4.305  26.050   5.564
 3156POPC   PO441592   4.335  26.004   5.864
 3156POPC   GL141593   4.355  26.071   6.164
 3156POPC   GL241594   4.460  26.093   6.164
 3156POPC   C1A41595   4.339  26.035   6.464
 3156POPC   D2A41596   4.344  26.057   6.764
 3156POPC   C3A41597   4.329  26.019   7.064
 3156POPC   C4A41598   4.319  26.069   7.364
 3156POPC   C1B41599   4.479  26.227   6.464
 3156POPC   C2B41600   4.543  26.194   6.764
 3156POPC   C3B41601   4.556  26.188   7.064
 3156POPC   C4B41602   4.549  26.218   7.364
 3157POPC   NC341603  16.776  26.060   5.564
 3157POPC   PO441604  16.721  26.003   5.864
 3157POPC   GL141605  16.760  26.074   6.164
 3157POPC   GL241606  16.631  26.131   6.164
 3157POPC   C1A41607  16.745  26.040   6.464
 3157POPC   D2A41608  16.766  26.012   6.764
 3157POPC   C3A41609  16.753  26.008   7.064
 3157POPC   C4A41610  16.738  26.041   7.364
 3157POPC   C1B41611  16.609  26.299   6.464
 3157POPC   C2B41612  16.554  26.289   6.764
 3157POPC   C3B41613  16.631  26.221   7.064
 3157POPC   C4B41614  16.586  26.296   7.364
 3158POPC   NC341615  21.390  39.976   5.564
 3158POPC   PO441616  21.409  39.992   5.864
 3158POPC   GL141617  21.350  40.050   6.164
 3158POPC   GL241618  21.464  39.966   6.164
 3158POPC   C1A41619  21.428  40.007   6.464
 3158POPC   D2A41620  21.349  39.986   6.764
 3158POPC   C3A41621  21.420  39.983   7.064
 3158POPC   C4A41622  21.424  39.967   7.364
 3158POPC   C1B41623  21.531  39.857   6.464
 3158POPC   C2B41624  21.528  39.803   6.764
 3158POPC   C3B41625  21.562  39.834   7.064
 3158POPC   C4B41626  21.605  39.798   7.364
 3159POPC   NC341627  26.034   8.998   5.564
 3159POPC   PO441628  26.047   8.940   5.864
 3159POPC   GL141629  26.063   8.956   6.164
 3159POPC   GL241630  26.173   9.004   6.164
 3159POPC   C1A41631  25.992   8.925   6.464
 3159POPC   D2A41632  26.038   9.022   6.764
 3159POPC   C3A41633  25.996   8.990   7.064
 3159POPC   C4A41634  25.993   8.976   7.364
 3159POPC   C1B41635  26.241   9.093   6.464
 3159POPC   C2B41636  26.311   9.037   6.764
 3159POPC   C3B41637  26.284   9.076   7.064
 3159POPC   C4B41638  26.298   9.070   7.364
 3160POPC   NC341639  31.477  22.935   5.564
 3160POPC   PO441640  31.441  22.957   5.864
 3160POPC   GL141641  31.521  22.891   6.164
 3160POPC   GL241642  31.519  23.087   6.164
 3160POPC   C1A41643  31.474  22.948   6.464
 3160POPC   D2A41644  31.466  22.940   6.764
 3160POPC   C3A41645  31.501  22.918   7.064
 3160POPC   C4A41646  31.495  22.906   7.364
 3160POPC   C1B41647  31.576  23.222   6.464
 3160POPC   C2B41648  31.518  23.148   6.764
 3160POPC   C3B41649  31.557  23.229   7.064
 3160POPC   C4B41650  31.519  23.211   7.364
 3161POPC   NC341651  40.816  25.229   5.564
 3161POPC   PO441652  40.756  25.280   5.864
 3161POPC   GL141653  40.735  25.264   6.164
 3161POPC   GL241654  40.689  25.211   6.164
 3161POPC   C1A41655  40.794  25.255   6.464
 3161POPC   D2A41656  40.758  25.277   6.764
 3161POPC   C3A41657  40.830  25.252   7.064
 3161POPC   C4A41658  40.797  25.226   7.364
 3161POPC   C1B41659  40.505  25.223   6.464
 3161POPC   C2B41660  40.554  25.193   6.764
 3161POPC   C3B41661  40.510  25.215   7.064
 3161POPC   C4B41662  40.580  25.171   7.364
 3162POPC   NC341663  33.010   8.963   5.564
 3162POPC   PO441664  33.006   8.960   5.864
 3162POPC   GL141665  33.054   8.980   6.164
 3162POPC   GL241666  33.051   8.865   6.164
 3162POPC   C1A41667  33.014   8.932   6.464
 3162POPC   D2A41668  33.011   8.989   6.764
 3162POPC   C3A41669  33.053   9.014   7.064
 3162POPC   C4A41670  33.037   8.962   7.364
 3162POPC   C1B41671  33.023   8.696   6.464
 3162POPC   C2B41672  33.111   8.737   6.764
 3162POPC   C3B41673  33.050   8.727   7.064
 3162POPC   C4B41674  33.081   8.690   7.364
 3163POPC   NC341675  36.891  11.328   5.564
 3163POPC   PO441676  36.908  11.281   5.864
 3163POPC   GL141677  36.862  11.318   6.164
 3163POPC   GL241678  37.072  11.337   6.164
 3163POPC   C1A41679  36.861  11.294   6.464
 3163POPC   D2A41680  36.858  11.312   6.764
 3163POPC   C3A41681  36.941  11.274   7.064
 3163POPC   C4A41682  36.908  11.298   7.364
 3163POPC   C1B41683  37.179  11.345   6.464
 3163POPC   C2B41684  37.120  11.364   6.764
 3163POPC   C3B41685  37.179  11.410   7.064
 3163POPC   C4B41686  37.099  11.376   7.364
 3164POPC   NC341687  41.543   1.177   5.564
 3164POPC   PO441688  41.578   1.208   5.864
 3164POPC   GL141689  41.593   1.178   6.164
 3164POPC   GL241690  41.454   1.159   6.164
 3164POPC   C1A41691  41.581   1.223   6.464
 3164POPC   D2A41692  41.564   1.220   6.764
 3164POPC   C3A41693  41.602   1.191   7.064
 3164POPC   C4A41694  41.528   1.259   7.364
 3164POPC   C1B41695  41.361   0.984   6.464
 3164POPC   C2B41696  41.432   1.046   6.764
 3164POPC   C3B41697  41.401   1.049   7.064
 3164POPC   C4B41698  41.406   1.033   7.364
 3165POPC   NC341699   4.271   3.537   5.564
 3165POPC   PO441700   4.292   3.578   5.864
 3165POPC   GL141701   4.344   3.514   6.164
 3165POPC   GL241702   4.402   3.511   6.164
 3165POPC   C1A41703   4.357   3.526   6.464
 3165POPC   D2A41704   4.309   3.577   6.764
 3165POPC   C3A41705   4.315   3.582   7.064
 3165POPC   C4A41706   4.327   3.547   7.364
 3165POPC   C1B41707   4.518   3.444   6.464
 3165POPC   C2B41708   4.587   3.466   6.764
 3165POPC   C3B41709   4.581   3.406   7.064
 3165POPC   C4B41710   4.517   3.395   7.364
 3166POPC   NC341711  18.303  19.835   5.564
 3166POPC   PO441712  18.255  19.862   5.864
 3166POPC   GL141713  18.276  19.845   6.164
 3166POPC   GL241714  18.318  19.936   6.164
 3166POPC   C1A41715  18.311  19.846   6.464
 3166POPC   D2A41716  18.296  19.833   6.764
 3166POPC   C3A41717  18.294  19.864   7.064
 3166POPC   C4A41718  18.294  19.818   7.364
 3166POPC   C1B41719  18.408  20.004   6.464
 3166POPC   C2B41720  18.473  20.064   6.764
 3166POPC   C3B41721  18.426  20.058   7.064
 3166POPC   C4B41722  18.409  20.006   7.364
 3167POPC   NC341723  13.610  40.002   5.564
 3167POPC   PO441724  13.660  39.989   5.864
 3167POPC   GL141725  13.671  40.004   6.164
 3167POPC   GL241726  13.688  40.161   6.164
 3167POPC   C1A41727  13.626  39.970   6.464
 3167POPC   D2A41728  13.636  39.997   6.764
 3167POPC   C3A41729  13.654  39.980   7.064
 3167POPC   C4A41730  13.622  39.973   7.364
 3167POPC   C1B41731  13.690  40.239   6.464
 3167POPC   C2B41732  13.765  40.214   6.764
 3167POPC   C3B41733  13.701  40.188   7.064
 3167POPC   C4B41734  13.731  40.229   7.364
 3168POPC   NC341735  31.507  19.010   5.564
 3168POPC   PO441736  31.491  19.055   5.864
 3168POPC   GL141737  31.463  19.104   6.164
 3168POPC   GL241738  31.626  19.104   6.164
 3168POPC   C1A41739  31.438  19.032   6.464
 3168POPC   D2A41740  31.514  19.012   6.764
 3168POPC   C3A41741  31.510  19.042   7.064
 3168POPC   C4A41742  31.459  19.103   7.364
 3168POPC   C1B41743  31.720  19.137   6.464
 3168POPC   C2B41744  31.734  19.115   6.764
 3168POPC   C3B41745  31.753  19.137   7.064
 3168POPC   C4B41746  31.680  19.104   7.364
 3169POPC   NC341747  24.529  30.722   5.564
 3169POPC   PO441748  24.475  30.670   5.864
 3169POPC   GL141749  24.452  30.649   6.164
 3169POPC   GL241750  24.487  30.582   6.164
 3169POPC   C1A41751  24.494  30.668   6.464
 3169POPC   D2A41752  24.529  30.707   6.764
 3169POPC   C3A41753  24.462  30.680   7.064
 3169POPC   C4A41754  24.499  30.690   7.364
 3169POPC   C1B41755  24.422  30.467   6.464
 3169POPC   C2B41756  24.410  30.407   6.764
 3169POPC   C3B41757  24.419  30.469   7.064
 3169POPC   C4B41758  24.389  30.426   7.364
 3170POPC   NC341759   3.573  28.394   5.564
 3170POPC   PO441760   3.575  28.387   5.864
 3170POPC   GL141761   3.512  28.395   6.164
 3170POPC   GL241762   3.401  28.367   6.164
 3170POPC   C1A41763   3.581  28.396   6.464
 3170POPC   D2A41764   3.552  28.397   6.764
 3170POPC   C3A41765   3.559  28.384   7.064
 3170POPC   C4A41766   3.532  28.383   7.364
 3170POPC   C1B41767   3.337  28.311   6.464
 3170POPC   C2B41768   3.325  28.336   6.764
 3170POPC   C3B41769   3.336  28.329   7.064
 3170POPC   C4B41770   3.342  28.322   7.364
 3171POPC   NC341771  19.787  18.285   5.564
 3171POPC   PO441772  19.796  18.317   5.864
 3171POPC   GL141773  19.800  18.304   6.164
 3171POPC   GL241774  19.865  18.183   6.164
 3171POPC   C1A41775  19.808  18.305   6.464
 3171POPC   D2A41776  19.849  18.291   6.764
 3171POPC   C3A41777  19.836  18.302   7.064
 3171POPC   C4A41778  19.796  18.309   7.364
 3171POPC   C1B41779  19.814  18.057   6.464
 3171POPC   C2B41780  19.833  18.036   6.764
 3171POPC   C3B41781  19.864  18.055   7.064
 3171POPC   C4B41782  19.775  18.019   7.364
 3172POPC   NC341783  29.930  26.779   5.564
 3172POPC   PO441784  29.949  26.817   5.864
 3172POPC   GL141785  29.899  26.854   6.164
 3172POPC   GL241786  30.055  26.849   6.164
 3172POPC   C1A41787  29.945  26.854   6.464
 3172POPC   D2A41788  29.926  26.791   6.764
 3172POPC   C3A41789  29.953  26.791   7.064
 3172POPC   C4A41790  29.906  26.782   7.364
 3172POPC   C1B41791  30.138  26.992   6.464
 3172POPC   C2B41792  30.161  26.982   6.764
 3172POPC   C3B41793  30.078  27.008   7.064
 3172POPC   C4B41794  30.124  26.936   7.364
 3173POPC   NC341795  44.615  36.083   5.564
 3173POPC   PO441796  44.663  36.169   5.864
 3173POPC   GL141797  44.700  36.105   6.164
 3173POPC   GL241798  44.518  36.051   6.164
 3173POPC   C1A41799  44.645  36.127   6.464
 3173POPC   D2A41800  44.647  36.140   6.764
 3173POPC   C3A41801  44.616  36.105   7.064
 3173POPC   C4A41802  44.655  36.118   7.364
 3173POPC   C1B41803  44.467  35.946   6.464
 3173POPC   C2B41804  44.460  35.998   6.764
 3173POPC   C3B41805  44.429  35.953   7.064
 3173POPC   C4B41806  44.483  35.989   7.364
 3174POPC   NC341807  39.190   0.457   5.564
 3174POPC   PO441808  39.241   0.483   5.864
 3174POPC   GL141809  39.220   0.455   6.164
 3174POPC   GL241810  39.060   0.468   6.164
 3174POPC   C1A41811  39.273   0.464   6.464
 3174POPC   D2A41812  39.228   0.438   6.764
 3174POPC   C3A41813  39.276   0.451   7.064
 3174POPC   C4A41814  39.207   0.423   7.364
 3174POPC   C1B41815  38.967   0.492   6.464
 3174POPC   C2B41816  38.946   0.537   6.764
 3174POPC   C3B41817  38.944   0.447   7.064
 3174POPC   C4B41818  38.958   0.514   7.364
 3175POPC   NC341819  28.405  11.292   5.564
 3175POPC   PO441820  28.400  11.324   5.864
 3175POPC   GL141821  28.383  11.281   6.164
 3175POPC   GL241822  28.461  11.214   6.164
 3175POPC   C1A41823  28.345  11.254   6.464
 3175POPC   D2A41824  28.343  11.272   6.764
 3175POPC   C3A41825  28.405  11.275   7.064
 3175POPC   C4A41826  28.369  11.312   7.364
 3175POPC   C1B41827  28.525  11.094   6.464
 3175POPC   C2B41828  28.494  11.099   6.764
 3175POPC   C3B41829  28.495  11.058   7.064
 3175POPC   C4B41830  28.489  11.051   7.364
 3176POPC   NC341831  43.845  20.580   5.564
 3176POPC   PO441832  43.852  20.564   5.864
 3176POPC   GL141833  43.909  20.634   6.164
 3176POPC   GL241834  43.805  20.685   6.164
 3176POPC   C1A41835  43.919  20.654   6.464
 3176POPC   D2A41836  43.842  20.587   6.764
 3176POPC   C3A41837  43.905  20.653   7.064
 3176POPC   C4A41838  43.880  20.590   7.364
 3176POPC   C1B41839  43.649  20.700   6.464
 3176POPC   C2B41840  43.694  20.691   6.764
 3176POPC   C3B41841  43.683  20.770   7.064
 3176POPC   C4B41842  43.696  20.686   7.364
 3177POPC   NC341843  24.486   6.680   5.564
 3177POPC   PO441844  24.477   6.614   5.864
 3177POPC   GL141845  24.454   6.645   6.164
 3177POPC   GL241846  24.576   6.721   6.164
 3177POPC   C1A41847  24.500   6.626   6.464
 3177POPC   D2A41848  24.488   6.642   6.764
 3177POPC   C3A41849  24.468   6.599   7.064
 3177POPC   C4A41850  24.524   6.663   7.364
 3177POPC   C1B41851  24.709   6.782   6.464
 3177POPC   C2B41852  24.675   6.770   6.764
 3177POPC   C3B41853  24.695   6.757   7.064
 3177POPC   C4B41854  24.749   6.786   7.364
 3178POPC   NC341855  43.136   1.182   5.564
 3178POPC   PO441856  43.068   1.248   5.864
 3178POPC   GL141857  43.063   1.237   6.164
 3178POPC   GL241858  43.199   1.173   6.164
 3178POPC   C1A41859  43.158   1.257   6.464
 3178POPC   D2A41860  43.128   1.168   6.764
 3178POPC   C3A41861  43.150   1.250   7.064
 3178POPC   C4A41862  43.134   1.227   7.364
 3178POPC   C1B41863  43.270   1.070   6.464
 3178POPC   C2B41864  43.268   1.027   6.764
 3178POPC   C3B41865  43.256   1.027   7.064
 3178POPC   C4B41866  43.291   1.050   7.364
 3179POPC   NC341867   8.212  11.340   5.564
 3179POPC   PO441868   8.242  11.284   5.864
 3179POPC   GL141869   8.149  11.293   6.164
 3179POPC   GL241870   8.302  11.349   6.164
 3179POPC   C1A41871   8.239  11.319   6.464
 3179POPC   D2A41872   8.177  11.331   6.764
 3179POPC   C3A41873   8.217  11.329   7.064
 3179POPC   C4A41874   8.222  11.293   7.364
 3179POPC   C1B41875   8.422  11.358   6.464
 3179POPC   C2B41876   8.493  11.290   6.764
 3179POPC   C3B41877   8.414  11.316   7.064
 3179POPC   C4B41878   8.422  11.299   7.364
 3180POPC   NC341879  44.636  22.976   5.564
 3180POPC   PO441880  44.617  22.980   5.864
 3180POPC   GL141881  44.678  22.899   6.164
 3180POPC   GL241882  44.524  22.928   6.164
 3180POPC   C1A41883  44.616  22.929   6.464
 3180POPC   D2A41884  44.614  22.950   6.764
 3180POPC   C3A41885  44.639  22.894   7.064
 3180POPC   C4A41886  44.617  22.967   7.364
 3180POPC   C1B41887  44.467  22.887   6.464
 3180POPC   C2B41888  44.426  22.809   6.764
 3180POPC   C3B41889  44.377  22.863   7.064
 3180POPC   C4B41890  44.407  22.838   7.364
 3181POPC   NC341891  15.985  21.435   5.564
 3181POPC   PO441892  15.919  21.429   5.864
 3181POPC   GL141893  15.940  21.382   6.164
 3181POPC   GL241894  16.033  21.524   6.164
 3181POPC   C1A41895  15.927  21.419   6.464
 3181POPC   D2A41896  15.930  21.413   6.764
 3181POPC   C3A41897  15.970  21.409   7.064
 3181POPC   C4A41898  15.952  21.338   7.364
 3181POPC   C1B41899  16.125  21.572   6.464
 3181POPC   C2B41900  16.132  21.604   6.764
 3181POPC   C3B41901  16.130  21.617   7.064
 3181POPC   C4B41902  16.076  21.602   7.364
 3182POPC   NC341903  30.702  36.909   5.564
 3182POPC   PO441904  30.724  36.949   5.864
 3182POPC   GL141905  30.691  36.930   6.164
 3182POPC   GL241906  30.679  36.799   6.164
 3182POPC   C1A41907  30.664  36.916   6.464
 3182POPC   D2A41908  30.659  36.871   6.764
 3182POPC   C3A41909  30.657  36.865   7.064
 3182POPC   C4A41910  30.649  36.907   7.364
 3182POPC   C1B41911  30.592  36.684   6.464
 3182POPC   C2B41912  30.598  36.673   6.764
 3182POPC   C3B41913  30.577  36.631   7.064
 3182POPC   C4B41914  30.637  36.716   7.364
 3183POPC   NC341915  12.896  29.938   5.564
 3183POPC   PO441916  12.828  29.926   5.864
 3183POPC   GL141917  12.816  29.888   6.164
 3183POPC   GL241918  12.920  29.842   6.164
 3183POPC   C1A41919  12.826  29.887   6.464
 3183POPC   D2A41920  12.815  29.953   6.764
 3183POPC   C3A41921  12.893  29.880   7.064
 3183POPC   C4A41922  12.843  29.946   7.364
 3183POPC   C1B41923  13.039  29.758   6.464
 3183POPC   C2B41924  12.995  29.702   6.764
 3183POPC   C3B41925  13.051  29.755   7.064
 3183POPC   C4B41926  12.969  29.700   7.364
 3184POPC   NC341927  32.277  32.240   5.564
 3184POPC   PO441928  32.221  32.232   5.864
 3184POPC   GL141929  32.207  32.292   6.164
 3184POPC   GL241930  32.225  32.140   6.164
 3184POPC   C1A41931  32.285  32.249   6.464
 3184POPC   D2A41932  32.203  32.261   6.764
 3184POPC   C3A41933  32.263  32.210   7.064
 3184POPC   C4A41934  32.270  32.272   7.364
 3184POPC   C1B41935  32.108  32.042   6.464
 3184POPC   C2B41936  32.178  31.987   6.764
 3184POPC   C3B41937  32.187  32.030   7.064
 3184POPC   C4B41938  32.161  32.063   7.364
 3185POPC   NC341939  28.379  32.208   5.564
 3185POPC   PO441940  28.399  32.216   5.864
 3185POPC   GL141941  28.360  32.223   6.164
 3185POPC   GL241942  28.435  32.177   6.164
 3185POPC   C1A41943  28.407  32.265   6.464
 3185POPC   D2A41944  28.374  32.212   6.764
 3185POPC   C3A41945  28.351  32.268   7.064
 3185POPC   C4A41946  28.349  32.274   7.364
 3185POPC   C1B41947  28.621  32.152   6.464
 3185POPC   C2B41948  28.558  32.164   6.764
 3185POPC   C3B41949  28.578  32.087   7.064
 3185POPC   C4B41950  28.641  32.120   7.364
 3186POPC   NC341951  23.706  14.443   5.564
 3186POPC   PO441952  23.687  14.407   5.864
 3186POPC   GL141953  23.744  14.360   6.164
 3186POPC   GL241954  23.557  14.438   6.164
 3186POPC   C1A41955  23.741  14.375   6.464
 3186POPC   D2A41956  23.740  14.359   6.764
 3186POPC   C3A41957  23.733  14.392   7.064
 3186POPC   C4A41958  23.727  14.394   7.364
 3186POPC   C1B41959  23.492  14.495   6.464
 3186POPC   C2B41960  23.536  14.522   6.764
 3186POPC   C3B41961  23.518  14.562   7.064
 3186POPC   C4B41962  23.467  14.536   7.364
 3187POPC   NC341963  11.288  17.537   5.564
 3187POPC   PO441964  11.287  17.554   5.864
 3187POPC   GL141965  11.276  17.483   6.164
 3187POPC   GL241966  11.185  17.585   6.164
 3187POPC   C1A41967  11.299  17.481   6.464
 3187POPC   D2A41968  11.295  17.503   6.764
 3187POPC   C3A41969  11.316  17.471   7.064
 3187POPC   C4A41970  11.300  17.504   7.364
 3187POPC   C1B41971  11.147  17.714   6.464
 3187POPC   C2B41972  11.144  17.711   6.764
 3187POPC   C3B41973  11.142  17.667   7.064
 3187POPC   C4B41974  11.128  17.721   7.364
 3188POPC   NC341975  18.314  20.616   5.564
 3188POPC   PO441976  18.304  20.617   5.864
 3188POPC   GL141977  18.329  20.615   6.164
 3188POPC   GL241978  18.219  20.649   6.164
 3188POPC   C1A41979  18.258  20.577   6.464
 3188POPC   D2A41980  18.305  20.587   6.764
 3188POPC   C3A41981  18.273  20.577   7.064
 3188POPC   C4A41982  18.242  20.641   7.364
 3188POPC   C1B41983  18.114  20.755   6.464
 3188POPC   C2B41984  18.052  20.784   6.764
 3188POPC   C3B41985  18.072  20.759   7.064
 3188POPC   C4B41986  18.092  20.801   7.364
 3189POPC   NC341987  26.801  12.038   5.564
 3189POPC   PO441988  26.799  12.070   5.864
 3189POPC   GL141989  26.840  12.041   6.164
 3189POPC   GL241990  26.904  11.994   6.164
 3189POPC   C1A41991  26.840  12.113   6.464
 3189POPC   D2A41992  26.774  12.073   6.764
 3189POPC   C3A41993  26.834  12.041   7.064
 3189POPC   C4A41994  26.865  12.113   7.364
 3189POPC   C1B41995  27.032  11.897   6.464
 3189POPC   C2B41996  27.047  11.952   6.764
 3189POPC   C3B41997  26.961  11.866   7.064
 3189POPC   C4B41998  26.981  11.948   7.364
 3190POPC   NC341999  35.397   5.877   5.564
 3190POPC   PO442000  35.380   5.839   5.864
 3190POPC   GL142001  35.327   5.862   6.164
 3190POPC   GL242002  35.200   5.932   6.164
 3190POPC   C1A42003  35.377   5.835   6.464
 3190POPC   D2A42004  35.310   5.907   6.764
 3190POPC   C3A42005  35.308   5.846   7.064
 3190POPC   C4A42006  35.400   5.861   7.364
 3190POPC   C1B42007  35.134   5.945   6.464
 3190POPC   C2B42008  35.114   5.956   6.764
 3190POPC   C3B42009  35.121   5.915   7.064
 3190POPC   C4B42010  35.132   5.870   7.364
 3191POPC   NC342011   1.223  39.208   5.564
 3191POPC   PO442012   1.263  39.263   5.864
 3191POPC   GL142013   1.206  39.270   6.164
 3191POPC   GL242014   1.141  39.391   6.164
 3191POPC   C1A42015   1.176  39.220   6.464
 3191POPC   D2A42016   1.214  39.186   6.764
 3191POPC   C3A42017   1.171  39.252   7.064
 3191POPC   C4A42018   1.195  39.206   7.364
 3191POPC   C1B42019   1.162  39.506   6.464
 3191POPC   C2B42020   1.095  39.511   6.764
 3191POPC   C3B42021   1.130  39.502   7.064
 3191POPC   C4B42022   1.149  39.453   7.364
 3192POPC   NC342023   5.096  38.439   5.564
 3192POPC   PO442024   5.052  38.412   5.864
 3192POPC   GL142025   5.082  38.477   6.164
 3192POPC   GL242026   5.177  38.409   6.164
 3192POPC   C1A42027   5.052  38.499   6.464
 3192POPC   D2A42028   5.121  38.458   6.764
 3192POPC   C3A42029   5.123  38.452   7.064
 3192POPC   C4A42030   5.076  38.471   7.364
 3192POPC   C1B42031   5.347  38.350   6.464
 3192POPC   C2B42032   5.278  38.380   6.764
 3192POPC   C3B42033   5.281  38.345   7.064
 3192POPC   C4B42034   5.296  38.412   7.364
 3193POPC   NC342035  10.493  29.878   5.564
 3193POPC   PO442036  10.503  29.939   5.864
 3193POPC   GL142037  10.531  29.904   6.164
 3193POPC   GL242038  10.470  29.826   6.164
 3193POPC   C1A42039  10.504  29.881   6.464
 3193POPC   D2A42040  10.572  29.872   6.764
 3193POPC   C3A42041  10.556  29.872   7.064
 3193POPC   C4A42042  10.526  29.892   7.364
 3193POPC   C1B42043  10.271  29.773   6.464
 3193POPC   C2B42044  10.340  29.783   6.764
 3193POPC   C3B42045  10.340  29.815   7.064
 3193POPC   C4B42046  10.339  29.818   7.364
 3194POPC   NC342047  15.924   7.435   5.564
 3194POPC   PO442048  15.953   7.410   5.864
 3194POPC   GL142049  15.992   7.426   6.164
 3194POPC   GL242050  16.027   7.515   6.164
 3194POPC   C1A42051  15.995   7.413   6.464
 3194POPC   D2A42052  15.993   7.465   6.764
 3194POPC   C3A42053  16.005   7.411   7.064
 3194POPC   C4A42054  15.937   7.377   7.364
 3194POPC   C1B42055  16.155   7.622   6.464
 3194POPC   C2B42056  16.184   7.543   6.764
 3194POPC   C3B42057  16.167   7.568   7.064
 3194POPC   C4B42058  16.150   7.628   7.364
 3195POPC   NC342059  29.895   3.497   5.564
 3195POPC   PO442060  29.934   3.492   5.864
 3195POPC   GL142061  29.883   3.535   6.164
 3195POPC   GL242062  29.996   3.568   6.164
 3195POPC   C1A42063  29.884   3.541   6.464
 3195POPC   D2A42064  29.936   3.585   6.764
 3195POPC   C3A42065  29.928   3.505   7.064
 3195POPC   C4A42066  29.881   3.556   7.364
 3195POPC   C1B42067  30.127   3.593   6.464
 3195POPC   C2B42068  30.161   3.684   6.764
 3195POPC   C3B42069  30.142   3.647   7.064
 3195POPC   C4B42070  30.132   3.667   7.364
 3196POPC   NC342071  16.721   6.680   5.564
 3196POPC   PO442072  16.720   6.654   5.864
 3196POPC   GL142073  16.724   6.670   6.164
 3196POPC   GL242074  16.810   6.535   6.164
 3196POPC   C1A42075  16.761   6.616   6.464
 3196POPC   D2A42076  16.740   6.655   6.764
 3196POPC   C3A42077  16.755   6.611   7.064
 3196POPC   C4A42078  16.776   6.644   7.364
 3196POPC   C1B42079  16.881   6.494   6.464
 3196POPC   C2B42080  16.926   6.461   6.764
 3196POPC   C3B42081  16.945   6.469   7.064
 3196POPC   C4B42082  16.913   6.509   7.364
 3197POPC   NC342083   3.538   2.005   5.564
 3197POPC   PO442084   3.580   2.023   5.864
 3197POPC   GL142085   3.497   1.972   6.164
 3197POPC   GL242086   3.445   1.999   6.164
 3197POPC   C1A42087   3.513   2.007   6.464
 3197POPC   D2A42088   3.504   2.022   6.764
 3197POPC   C3A42089   3.552   2.013   7.064
 3197POPC   C4A42090   3.499   1.996   7.364
 3197POPC   C1B42091   3.344   1.969   6.464
 3197POPC   C2B42092   3.323   1.926   6.764
 3197POPC   C3B42093   3.316   1.955   7.064
 3197POPC   C4B42094   3.335   1.913   7.364
 3198POPC   NC342095  14.367  15.924   5.564
 3198POPC   PO442096  14.432  15.928   5.864
 3198POPC   GL142097  14.365  15.956   6.164
 3198POPC   GL242098  14.344  15.812   6.164
 3198POPC   C1A42099  14.424  15.996   6.464
 3198POPC   D2A42100  14.376  15.946   6.764
 3198POPC   C3A42101  14.371  15.969   7.064
 3198POPC   C4A42102  14.436  15.919   7.364
 3198POPC   C1B42103  14.280  15.733   6.464
 3198POPC   C2B42104  14.232  15.800   6.764
 3198POPC   C3B42105  14.269  15.774   7.064
 3198POPC   C4B42106  14.259  15.719   7.364
 3199POPC   NC342107  26.000  20.562   5.564
 3199POPC   PO442108  26.086  20.632   5.864
 3199POPC   GL142109  26.086  20.594   6.164
 3199POPC   GL242110  25.917  20.552   6.164
 3199POPC   C1A42111  25.994  20.606   6.464
 3199POPC   D2A42112  26.037  20.579   6.764
 3199POPC   C3A42113  25.997  20.581   7.064
 3199POPC   C4A42114  26.000  20.597   7.364
 3199POPC   C1B42115  25.838  20.471   6.464
 3199POPC   C2B42116  25.820  20.434   6.764
 3199POPC   C3B42117  25.857  20.466   7.064
 3199POPC   C4B42118  25.898  20.424   7.364
 3200POPC   NC342119   6.672   8.211   5.564
 3200POPC   PO442120   6.639   8.226   5.864
 3200POPC   GL142121   6.625   8.198   6.164
 3200POPC   GL242122   6.774   8.233   6.164
 3200POPC   C1A42123   6.609   8.234   6.464
 3200POPC   D2A42124   6.660   8.220   6.764
 3200POPC   C3A42125   6.598   8.192   7.064
 3200POPC   C4A42126   6.624   8.150   7.364
 3200POPC   C1B42127   6.867   8.203   6.464
 3200POPC   C2B42128   6.929   8.170   6.764
 3200POPC   C3B42129   6.932   8.177   7.064
 3200POPC   C4B42130   6.882   8.145   7.364
 3201POPC   NC342131   7.375   3.527   5.564
 3201POPC   PO442132   7.462   3.557   5.864
 3201POPC   GL142133   7.387   3.522   6.164
 3201POPC   GL242134   7.371   3.622   6.164
 3201POPC   C1A42135   7.452   3.559   6.464
 3201POPC   D2A42136   7.378   3.522   6.764
 3201POPC   C3A42137   7.379   3.591   7.064
 3201POPC   C4A42138   7.393   3.572   7.364
 3201POPC   C1B42139   7.313   3.742   6.464
 3201POPC   C2B42140   7.248   3.715   6.764
 3201POPC   C3B42141   7.231   3.700   7.064
 3201POPC   C4B42142   7.297   3.754   7.364
 3202POPC   NC342143  43.854  26.828   5.564
 3202POPC   PO442144  43.856  26.826   5.864
 3202POPC   GL142145  43.839  26.840   6.164
 3202POPC   GL242146  43.843  26.737   6.164
 3202POPC   C1A42147  43.883  26.810   6.464
 3202POPC   D2A42148  43.922  26.777   6.764
 3202POPC   C3A42149  43.923  26.816   7.064
 3202POPC   C4A42150  43.913  26.830   7.364
 3202POPC   C1B42151  43.816  26.630   6.464
 3202POPC   C2B42152  43.783  26.621   6.764
 3202POPC   C3B42153  43.779  26.579   7.064
 3202POPC   C4B42154  43.839  26.550   7.364
 3203POPC   NC342155  40.750  38.466   5.564
 3203POPC   PO442156  40.733  38.484   5.864
 3203POPC   GL142157  40.760  38.465   6.164
 3203POPC   GL242158  40.833  38.539   6.164
 3203POPC   C1A42159  40.819  38.437   6.464
 3203POPC   D2A42160  40.803  38.450   6.764
 3203POPC   C3A42161  40.785  38.450   7.064
 3203POPC   C4A42162  40.810  38.455   7.364
 3203POPC   C1B42163  40.915  38.681   6.464
 3203POPC   C2B42164  40.884  38.686   6.764
 3203POPC   C3B42165  40.896  38.668   7.064
 3203POPC   C4B42166  40.922  38.698   7.364
 3204POPC   NC342167  20.591   7.455   5.564
 3204POPC   PO442168  20.655   7.461   5.864
 3204POPC   GL142169  20.562   7.445   6.164
 3204POPC   GL242170  20.750   7.505   6.164
 3204POPC   C1A42171  20.582   7.402   6.464
 3204POPC   D2A42172  20.650   7.410   6.764
 3204POPC   C3A42173  20.568   7.443   7.064
 3204POPC   C4A42174  20.653   7.412   7.364
 3204POPC   C1B42175  20.810   7.554   6.464
 3204POPC   C2B42176  20.796   7.516   6.764
 3204POPC   C3B42177  20.835   7.558   7.064
 3204POPC   C4B42178  20.803   7.598   7.364
 3205POPC   NC342179   7.407  24.503   5.564
 3205POPC   PO442180   7.405  24.512   5.864
 3205POPC   GL142181   7.431  24.459   6.164
 3205POPC   GL242182   7.473  24.407   6.164
 3205POPC   C1A42183   7.422  24.451   6.464
 3205POPC   D2A42184   7.426  24.529   6.764
 3205POPC   C3A42185   7.448  24.472   7.064
 3205POPC   C4A42186   7.442  24.455   7.364
 3205POPC   C1B42187   7.533  24.300   6.464
 3205POPC   C2B42188   7.506  24.234   6.764
 3205POPC   C3B42189   7.510  24.285   7.064
 3205POPC   C4B42190   7.542  24.299   7.364
 3206POPC   NC342191  39.195  24.494   5.564
 3206POPC   PO442192  39.256  24.494   5.864
 3206POPC   GL142193  39.227  24.461   6.164
 3206POPC   GL242194  39.116  24.587   6.164
 3206POPC   C1A42195  39.238  24.497   6.464
 3206POPC   D2A42196  39.246  24.456   6.764
 3206POPC   C3A42197  39.233  24.505   7.064
 3206POPC   C4A42198  39.249  24.509   7.364
 3206POPC   C1B42199  39.025  24.705   6.464
 3206POPC   C2B42200  39.085  24.667   6.764
 3206POPC   C3B42201  39.121  24.639   7.064
 3206POPC   C4B42202  39.060  24.690   7.364
 3207POPC   NC342203  15.915   6.651   5.564
 3207POPC   PO442204  15.940   6.639   5.864
 3207POPC   GL142205  16.004   6.610   6.164
 3207POPC   GL242206  15.992   6.717   6.164
 3207POPC   C1A42207  15.975   6.598   6.464
 3207POPC   D2A42208  15.940   6.645   6.764
 3207POPC   C3A42209  15.922   6.640   7.064
 3207POPC   C4A42210  15.912   6.617   7.364
 3207POPC   C1B42211  16.064   6.831   6.464
 3207POPC   C2B42212  16.149   6.822   6.764
 3207POPC   C3B42213  16.124   6.815   7.064
 3207POPC   C4B42214  16.088   6.867   7.364
 3208POPC   NC342215   3.560  17.504   5.564
 3208POPC   PO442216   3.499  17.524   5.864
 3208POPC   GL142217   3.551  17.470   6.164
 3208POPC   GL242218   3.440  17.428   6.164
 3208POPC   C1A42219   3.529  17.512   6.464
 3208POPC   D2A42220   3.517  17.499   6.764
 3208POPC   C3A42221   3.570  17.503   7.064
 3208POPC   C4A42222   3.570  17.462   7.364
 3208POPC   C1B42223   3.304  17.439   6.464
 3208POPC   C2B42224   3.299  17.366   6.764
 3208POPC   C3B42225   3.286  17.402   7.064
 3208POPC   C4B42226   3.302  17.382   7.364
 3209POPC   NC342227  16.725  15.200   5.564
 3209POPC   PO442228  16.731  15.157   5.864
 3209POPC   GL142229  16.757  15.219   6.164
 3209POPC   GL242230  16.781  15.352   6.164
 3209POPC   C1A42231  16.760  15.221   6.464
 3209POPC   D2A42232  16.738  15.137   6.764
 3209POPC   C3A42233  16.730  15.164   7.064
 3209POPC   C4A42234  16.757  15.131   7.364
 3209POPC   C1B42235  16.693  15.429   6.464
 3209POPC   C2B42236  16.709  15.447   6.764
 3209POPC   C3B42237  16.758  15.476   7.064
 3209POPC   C4B42238  16.778  15.415   7.364
 3210POPC   NC342239  14.453  31.504   5.564
 3210POPC   PO442240  14.383  31.499   5.864
 3210POPC   GL142241  14.423  31.511   6.164
 3210POPC   GL242242  14.479  31.377   6.164
 3210POPC   C1A42243  14.392  31.438   6.464
 3210POPC   D2A42244  14.442  31.521   6.764
 3210POPC   C3A42245  14.353  31.467   7.064
 3210POPC   C4A42246  14.400  31.492   7.364
 3210POPC   C1B42247  14.567  31.235   6.464
 3210POPC   C2B42248  14.556  31.332   6.764
 3210POPC   C3B42249  14.585  31.273   7.064
 3210POPC   C4B42250  14.538  31.237   7.364
 3211POPC   NC342251  41.593   3.513   5.564
 3211POPC   PO442252  41.540   3.569   5.864
 3211POPC   GL142253  41.553   3.586   6.164
 3211POPC   GL242254  41.506   3.623   6.164
 3211POPC   C1A42255  41.541   3.569   6.464
 3211POPC   D2A42256  41.604   3.577   6.764
 3211POPC   C3A42257  41.534   3.587   7.064
 3211POPC   C4A42258  41.545   3.519   7.364
 3211POPC   C1B42259  41.438   3.704   6.464
 3211POPC   C2B42260  41.372   3.747   6.764
 3211POPC   C3B42261  41.454   3.750   7.064
 3211POPC   C4B42262  41.449   3.798   7.364
 3212POPC   NC342263  41.595  43.078   5.564
 3212POPC   PO442264  41.600  43.065   5.864
 3212POPC   GL142265  41.555  43.123   6.164
 3212POPC   GL242266  41.582  42.950   6.164
 3212POPC   C1A42267  41.559  43.118   6.464
 3212POPC   D2A42268  41.582  43.136   6.764
 3212POPC   C3A42269  41.564  43.126   7.064
 3212POPC   C4A42270  41.603  43.088   7.364
 3212POPC   C1B42271  41.509  42.891   6.464
 3212POPC   C2B42272  41.512  42.887   6.764
 3212POPC   C3B42273  41.511  42.896   7.064
 3212POPC   C4B42274  41.540  42.831   7.364
 3213POPC   NC342275  22.152  29.172   5.564
 3213POPC   PO442276  22.173  29.149   5.864
 3213POPC   GL142277  22.180  29.129   6.164
 3213POPC   GL242278  22.100  29.117   6.164
 3213POPC   C1A42279  22.140  29.133   6.464
 3213POPC   D2A42280  22.203  29.120   6.764
 3213POPC   C3A42281  22.178  29.158   7.064
 3213POPC   C4A42282  22.161  29.161   7.364
 3213POPC   C1B42283  21.991  28.980   6.464
 3213POPC   C2B42284  21.981  29.009   6.764
 3213POPC   C3B42285  21.939  29.020   7.064
 3213POPC   C4B42286  21.982  29.002   7.364
 3214POPC   NC342287  42.318  33.791   5.564
 3214POPC   PO442288  42.380  33.751   5.864
 3214POPC   GL142289  42.374  33.823   6.164
 3214POPC   GL242290  42.365  33.886   6.164
 3214POPC   C1A42291  42.306  33.777   6.464
 3214POPC   D2A42292  42.356  33.814   6.764
 3214POPC   C3A42293  42.325  33.756   7.064
 3214POPC   C4A42294  42.343  33.820   7.364
 3214POPC   C1B42295  42.385  34.083   6.464
 3214POPC   C2B42296  42.406  34.065   6.764
 3214POPC   C3B42297  42.443  33.991   7.064
 3214POPC   C4B42298  42.466  34.021   7.364
 3215POPC   NC342299  44.700  42.302   5.564
 3215POPC   PO442300  44.658  42.292   5.864
 3215POPC   GL142301  44.639  42.285   6.164
 3215POPC   GL242302  44.802  42.380   6.164
 3215POPC   C1A42303  44.679  42.353   6.464
 3215POPC   D2A42304  44.677  42.290   6.764
 3215POPC   C3A42305  44.623  42.288   7.064
 3215POPC   C4A42306  44.618  42.325   7.364
 3215POPC   C1B42307  44.834  42.491   6.464
 3215POPC   C2B42308  44.854  42.470   6.764
 3215POPC   C3B42309  44.876  42.492   7.064
 3215POPC   C4B42310  44.859  42.440   7.364
 3216POPC   NC342311  25.280  22.117   5.564
 3216POPC   PO442312  25.225  22.158   5.864
 3216POPC   GL142313  25.307  22.183   6.164
 3216POPC   GL242314  25.227  22.047   6.164
 3216POPC   C1A42315  25.282  22.118   6.464
 3216POPC   D2A42316  25.282  22.144   6.764
 3216POPC   C3A42317  25.297  22.157   7.064
 3216POPC   C4A42318  25.222  22.183   7.364
 3216POPC   C1B42319  25.169  21.994   6.464
 3216POPC   C2B42320  25.139  21.937   6.764
 3216POPC   C3B42321  25.138  21.986   7.064
 3216POPC   C4B42322  25.162  21.962   7.364
 3217POPC   NC342323   7.461  40.830   5.564
 3217POPC   PO442324   7.452  40.827   5.864
 3217POPC   GL142325   7.467  40.792   6.164
 3217POPC   GL242326   7.409  40.613   6.164
 3217POPC   C1A42327   7.386  40.745   6.464
 3217POPC   D2A42328   7.373  40.734   6.764
 3217POPC   C3A42329   7.459  40.820   7.064
 3217POPC   C4A42330   7.408  40.744   7.364
 3217POPC   C1B42331   7.456  40.566   6.464
 3217POPC   C2B42332   7.467  40.496   6.764
 3217POPC   C3B42333   7.481  40.537   7.064
 3217POPC   C4B42334   7.444  40.559   7.364
 3218POPC   NC342335  36.127  18.309   5.564
 3218POPC   PO442336  36.100  18.308   5.864
 3218POPC   GL142337  36.172  18.301   6.164
 3218POPC   GL242338  36.153  18.179   6.164
 3218POPC   C1A42339  36.091  18.258   6.464
 3218POPC   D2A42340  36.102  18.240   6.764
 3218POPC   C3A42341  36.104  18.286   7.064
 3218POPC   C4A42342  36.148  18.285   7.364
 3218POPC   C1B42343  36.128  18.033   6.464
 3218POPC   C2B42344  36.066  18.047   6.764
 3218POPC   C3B42345  36.078  17.988   7.064
 3218POPC   C4B42346  36.121  18.025   7.364
 3219POPC   NC342347  28.413   2.741   5.564
 3219POPC   PO442348  28.367   2.736   5.864
 3219POPC   GL142349  28.369   2.744   6.164
 3219POPC   GL242350  28.227   2.882   6.164
 3219POPC   C1A42351  28.351   2.773   6.464
 3219POPC   D2A42352  28.376   2.785   6.764
 3219POPC   C3A42353  28.405   2.760   7.064
 3219POPC   C4A42354  28.395   2.754   7.364
 3219POPC   C1B42355  28.152   2.875   6.464
 3219POPC   C2B42356  28.177   2.885   6.764
 3219POPC   C3B42357  28.120   2.944   7.064
 3219POPC   C4B42358  28.172   2.860   7.364
 3220POPC   NC342359  44.711  35.342   5.564
 3220POPC   PO442360  44.614  35.379   5.864
 3220POPC   GL142361  44.699  35.397   6.164
 3220POPC   GL242362  44.615  35.179   6.164
 3220POPC   C1A42363  44.661  35.302   6.464
 3220POPC   D2A42364  44.678  35.326   6.764
 3220POPC   C3A42365  44.694  35.372   7.064
 3220POPC   C4A42366  44.657  35.361   7.364
 3220POPC   C1B42367  44.655  35.068   6.464
 3220POPC   C2B42368  44.655  35.058   6.764
 3220POPC   C3B42369  44.613  35.106   7.064
 3220POPC   C4B42370  44.667  35.123   7.364
 3221POPC   NC342371   2.034  20.618   5.564
 3221POPC   PO442372   1.996  20.582   5.864
 3221POPC   GL142373   1.974  20.587   6.164
 3221POPC   GL242374   2.127  20.649   6.164
 3221POPC   C1A42375   1.975  20.635   6.464
 3221POPC   D2A42376   2.000  20.609   6.764
 3221POPC   C3A42377   2.029  20.583   7.064
 3221POPC   C4A42378   2.022  20.658   7.364
 3221POPC   C1B42379   2.221  20.605   6.464
 3221POPC   C2B42380   2.213  20.615   6.764
 3221POPC   C3B42381   2.192  20.635   7.064
 3221POPC   C4B42382   2.212  20.682   7.364
 3222POPC   NC342383  15.920  19.800   5.564
 3222POPC   PO442384  15.910  19.829   5.864
 3222POPC   GL142385  15.969  19.817   6.164
 3222POPC   GL242386  15.802  19.777   6.164
 3222POPC   C1A42387  16.004  19.807   6.464
 3222POPC   D2A42388  15.963  19.868   6.764
 3222POPC   C3A42389  15.947  19.831   7.064
 3222POPC   C4A42390  15.951  19.811   7.364
 3222POPC   C1B42391  15.752  19.754   6.464
 3222POPC   C2B42392  15.714  19.738   6.764
 3222POPC   C3B42393  15.742  19.710   7.064
 3222POPC   C4B42394  15.727  19.740   7.364
 3223POPC   NC342395  15.987  33.008   5.564
 3223POPC   PO442396  15.974  32.997   5.864
 3223POPC   GL142397  15.919  32.993   6.164
 3223POPC   GL242398  15.858  32.944   6.164
 3223POPC   C1A42399  15.996  32.985   6.464
 3223POPC   D2A42400  15.997  33.047   6.764
 3223POPC   C3A42401  15.941  33.038   7.064
 3223POPC   C4A42402  15.955  33.019   7.364
 3223POPC   C1B42403  15.856  32.817   6.464
 3223POPC   C2B42404  15.857  32.771   6.764
 3223POPC   C3B42405  15.824  32.849   7.064
 3223POPC   C4B42406  15.873  32.774   7.364
 3224POPC   NC342407   5.916  20.578   5.564
 3224POPC   PO442408   5.885  20.603   5.864
 3224POPC   GL142409   5.865  20.651   6.164
 3224POPC   GL242410   5.907  20.547   6.164
 3224POPC   C1A42411   5.858  20.607   6.464
 3224POPC   D2A42412   5.890  20.566   6.764
 3224POPC   C3A42413   5.842  20.609   7.064
 3224POPC   C4A42414   5.908  20.600   7.364
 3224POPC   C1B42415   5.995  20.382   6.464
 3224POPC   C2B42416   6.027  20.395   6.764
 3224POPC   C3B42417   6.051  20.414   7.064
 3224POPC   C4B42418   6.091  20.431   7.364
 3225POPC   NC342419   2.733  35.348   5.564
 3225POPC   PO442420   2.767  35.393   5.864
 3225POPC   GL142421   2.757  35.351   6.164
 3225POPC   GL242422   2.680  35.431   6.164
 3225POPC   C1A42423   2.768  35.362   6.464
 3225POPC   D2A42424   2.802  35.317   6.764
 3225POPC   C3A42425   2.758  35.388   7.064
 3225POPC   C4A42426   2.785  35.367   7.364
 3225POPC   C1B42427   2.657  35.591   6.464
 3225POPC   C2B42428   2.696  35.558   6.764
 3225POPC   C3B42429   2.642  35.634   7.064
 3225POPC   C4B42430   2.735  35.615   7.364
 3226POPC   NC342431  37.663  26.773   5.564
 3226POPC   PO442432  37.696  26.802   5.864
 3226POPC   GL142433  37.692  26.825   6.164
 3226POPC   GL242434  37.768  26.772   6.164
 3226POPC   C1A42435  37.670  26.841   6.464
 3226POPC   D2A42436  37.712  26.853   6.764
 3226POPC   C3A42437  37.678  26.814   7.064
 3226POPC   C4A42438  37.669  26.855   7.364
 3226POPC   C1B42439  37.933  26.695   6.464
 3226POPC   C2B42440  37.940  26.724   6.764
 3226POPC   C3B42441  37.919  26.718   7.064
 3226POPC   C4B42442  37.932  26.715   7.364
 3227POPC   NC342443  15.130  35.370   5.564
 3227POPC   PO442444  15.133  35.343   5.864
 3227POPC   GL142445  15.155  35.329   6.164
 3227POPC   GL242446  15.175  35.425   6.164
 3227POPC   C1A42447  15.137  35.372   6.464
 3227POPC   D2A42448  15.192  35.356   6.764
 3227POPC   C3A42449  15.206  35.382   7.064
 3227POPC   C4A42450  15.153  35.401   7.364
 3227POPC   C1B42451  15.085  35.619   6.464
 3227POPC   C2B42452  15.115  35.540   6.764
 3227POPC   C3B42453  15.115  35.587   7.064
 3227POPC   C4B42454  15.112  35.611   7.364
 3228POPC   NC342455  23.727  31.517   5.564
 3228POPC   PO442456  23.676  31.442   5.864
 3228POPC   GL142457  23.714  31.434   6.164
 3228POPC   GL242458  23.712  31.385   6.164
 3228POPC   C1A42459  23.699  31.513   6.464
 3228POPC   D2A42460  23.691  31.425   6.764
 3228POPC   C3A42461  23.750  31.503   7.064
 3228POPC   C4A42462  23.757  31.439   7.364
 3228POPC   C1B42463  23.816  31.240   6.464
 3228POPC   C2B42464  23.833  31.198   6.764
 3228POPC   C3B42465  23.794  31.214   7.064
 3228POPC   C4B42466  23.827  31.267   7.364
 3229POPC   NC342467  31.437  31.458   5.564
 3229POPC   PO442468  31.502  31.492   5.864
 3229POPC   GL142469  31.436  31.507   6.164
 3229POPC   GL242470  31.495  31.398   6.164
 3229POPC   C1A42471  31.424  31.496   6.464
 3229POPC   D2A42472  31.439  31.449   6.764
 3229POPC   C3A42473  31.502  31.452   7.064
 3229POPC   C4A42474  31.497  31.492   7.364
 3229POPC   C1B42475  31.498  31.190   6.464
 3229POPC   C2B42476  31.529  31.181   6.764
 3229POPC   C3B42477  31.522  31.276   7.064
 3229POPC   C4B42478  31.533  31.200   7.364
 3230POPC   NC342479  43.905  22.923   5.564
 3230POPC   PO442480  43.904  22.941   5.864
 3230POPC   GL142481  43.864  22.916   6.164
 3230POPC   GL242482  44.003  23.011   6.164
 3230POPC   C1A42483  43.845  22.889   6.464
 3230POPC   D2A42484  43.889  22.906   6.764
 3230POPC   C3A42485  43.909  22.933   7.064
 3230POPC   C4A42486  43.900  22.974   7.364
 3230POPC   C1B42487  44.116  23.032   6.464
 3230POPC   C2B42488  44.162  23.042   6.764
 3230POPC   C3B42489  44.173  22.999   7.064
 3230POPC   C4B42490  44.176  23.032   7.364
 3231POPC   NC342491  15.991   8.962   5.564
 3231POPC   PO442492  15.967   8.929   5.864
 3231POPC   GL142493  15.965   8.965   6.164
 3231POPC   GL242494  15.846   9.066   6.164
 3231POPC   C1A42495  15.967   8.952   6.464
 3231POPC   D2A42496  15.931   8.946   6.764
 3231POPC   C3A42497  15.979   8.930   7.064
 3231POPC   C4A42498  15.962   9.017   7.364
 3231POPC   C1B42499  15.822   9.165   6.464
 3231POPC   C2B42500  15.856   9.206   6.764
 3231POPC   C3B42501  15.811   9.176   7.064
 3231POPC   C4B42502  15.875   9.214   7.364
 3232POPC   NC342503  15.980   8.177   5.564
 3232POPC   PO442504  15.989   8.188   5.864
 3232POPC   GL142505  15.955   8.224   6.164
 3232POPC   GL242506  16.019   8.166   6.164
 3232POPC   C1A42507  15.950   8.244   6.464
 3232POPC   D2A42508  15.977   8.154   6.764
 3232POPC   C3A42509  15.966   8.232   7.064
 3232POPC   C4A42510  15.993   8.177   7.364
 3232POPC   C1B42511  16.215   8.109   6.464
 3232POPC   C2B42512  16.167   8.081   6.764
 3232POPC   C3B42513  16.189   8.032   7.064
 3232POPC   C4B42514  16.121   8.060   7.364
 3233POPC   NC342515  43.893   8.990   5.564
 3233POPC   PO442516  43.845   8.989   5.864
 3233POPC   GL142517  43.932   8.947   6.164
 3233POPC   GL242518  44.005   9.061   6.164
 3233POPC   C1A42519  43.925   8.962   6.464
 3233POPC   D2A42520  43.881   9.003   6.764
 3233POPC   C3A42521  43.876   8.950   7.064
 3233POPC   C4A42522  43.904   8.952   7.364
 3233POPC   C1B42523  44.084   9.157   6.464
 3233POPC   C2B42524  44.072   9.103   6.764
 3233POPC   C3B42525  44.144   9.097   7.064
 3233POPC   C4B42526  44.095   9.099   7.364
 3234POPC   NC342527  17.471   3.588   5.564
 3234POPC   PO442528  17.465   3.540   5.864
 3234POPC   GL142529  17.486   3.510   6.164
 3234POPC   GL242530  17.400   3.630   6.164
 3234POPC   C1A42531  17.480   3.532   6.464
 3234POPC   D2A42532  17.496   3.558   6.764
 3234POPC   C3A42533  17.554   3.508   7.064
 3234POPC   C4A42534  17.499   3.558   7.364
 3234POPC   C1B42535  17.258   3.639   6.464
 3234POPC   C2B42536  17.298   3.684   6.764
 3234POPC   C3B42537  17.264   3.611   7.064
 3234POPC   C4B42538  17.298   3.629   7.364
 3235POPC   NC342539  32.255  21.412   5.564
 3235POPC   PO442540  32.291  21.363   5.864
 3235POPC   GL142541  32.254  21.433   6.164
 3235POPC   GL242542  32.156  21.507   6.164
 3235POPC   C1A42543  32.296  21.351   6.464
 3235POPC   D2A42544  32.232  21.345   6.764
 3235POPC   C3A42545  32.199  21.349   7.064
 3235POPC   C4A42546  32.238  21.344   7.364
 3235POPC   C1B42547  32.175  21.578   6.464
 3235POPC   C2B42548  32.101  21.604   6.764
 3235POPC   C3B42549  32.118  21.591   7.064
 3235POPC   C4B42550  32.110  21.591   7.364
 3236POPC   NC342551   9.739  10.529   5.564
 3236POPC   PO442552   9.784  10.570   5.864
 3236POPC   GL142553   9.770  10.519   6.164
 3236POPC   GL242554   9.842  10.445   6.164
 3236POPC   C1A42555   9.731  10.505   6.464
 3236POPC   D2A42556   9.766  10.516   6.764
 3236POPC   C3A42557   9.721  10.504   7.064
 3236POPC   C4A42558   9.702  10.500   7.364
 3236POPC   C1B42559  10.023  10.447   6.464
 3236POPC   C2B42560   9.955  10.428   6.764
 3236POPC   C3B42561  10.006  10.412   7.064
 3236POPC   C4B42562   9.945  10.402   7.364
 3237POPC   NC342563  12.888  40.030   5.564
 3237POPC   PO442564  12.877  40.016   5.864
 3237POPC   GL142565  12.852  40.017   6.164
 3237POPC   GL242566  12.940  39.957   6.164
 3237POPC   C1A42567  12.836  39.977   6.464
 3237POPC   D2A42568  12.806  40.028   6.764
 3237POPC   C3A42569  12.824  39.995   7.064
 3237POPC   C4A42570  12.890  39.993   7.364
 3237POPC   C1B42571  13.096  39.924   6.464
 3237POPC   C2B42572  13.079  39.910   6.764
 3237POPC   C3B42573  13.075  39.959   7.064
 3237POPC   C4B42574  13.117  39.885   7.364
 3238POPC   NC342575  15.924  20.580   5.564
 3238POPC   PO442576  15.907  20.573   5.864
 3238POPC   GL142577  15.940  20.642   6.164
 3238POPC   GL242578  15.836  20.679   6.164
 3238POPC   C1A42579  15.981  20.638   6.464
 3238POPC   D2A42580  15.937  20.630   6.764
 3238POPC   C3A42581  15.925  20.620   7.064
 3238POPC   C4A42582  15.976  20.561   7.364
 3238POPC   C1B42583  15.779  20.788   6.464
 3238POPC   C2B42584  15.751  20.832   6.764
 3238POPC   C3B42585  15.771  20.816   7.064
 3238POPC   C4B42586  15.750  20.801   7.364
 3239POPC   NC342587   1.954  34.619   5.564
 3239POPC   PO442588   1.947  34.585   5.864
 3239POPC   GL142589   1.978  34.535   6.164
 3239POPC   GL242590   1.946  34.715   6.164
 3239POPC   C1A42591   2.035  34.590   6.464
 3239POPC   D2A42592   1.978  34.616   6.764
 3239POPC   C3A42593   2.038  34.600   7.064
 3239POPC   C4A42594   1.968  34.535   7.364
 3239POPC   C1B42595   1.905  34.775   6.464
 3239POPC   C2B42596   1.902  34.820   6.764
 3239POPC   C3B42597   1.893  34.825   7.064
 3239POPC   C4B42598   1.854  34.845   7.364
 3240POPC   NC342599   6.600   2.759   5.564
 3240POPC   PO442600   6.608   2.768   5.864
 3240POPC   GL142601   6.610   2.813   6.164
 3240POPC   GL242602   6.609   2.921   6.164
 3240POPC   C1A42603   6.630   2.773   6.464
 3240POPC   D2A42604   6.622   2.746   6.764
 3240POPC   C3A42605   6.676   2.810   7.064
 3240POPC   C4A42606   6.634   2.799   7.364
 3240POPC   C1B42607   6.637   2.991   6.464
 3240POPC   C2B42608   6.630   3.011   6.764
 3240POPC   C3B42609   6.657   2.991   7.064
 3240POPC   C4B42610   6.670   2.997   7.364
 3241POPC   NC342611   0.438  15.912   5.564
 3241POPC   PO442612   0.402  15.922   5.864
 3241POPC   GL142613   0.475  15.962   6.164
 3241POPC   GL242614   0.467  16.084   6.164
 3241POPC   C1A42615   0.409  15.951   6.464
 3241POPC   D2A42616   0.421  15.950   6.764
 3241POPC   C3A42617   0.447  15.920   7.064
 3241POPC   C4A42618   0.412  15.963   7.364
 3241POPC   C1B42619   0.626  16.200   6.464
 3241POPC   C2B42620   0.562  16.176   6.764
 3241POPC   C3B42621   0.584  16.140   7.064
 3241POPC   C4B42622   0.623  16.182   7.364
 3242POPC   NC342623  12.810  39.266   5.564
 3242POPC   PO442624  12.891  39.200   5.864
 3242POPC   GL142625  12.832  39.243   6.164
 3242POPC   GL242626  12.835  39.152   6.164
 3242POPC   C1A42627  12.866  39.232   6.464
 3242POPC   D2A42628  12.813  39.228   6.764
 3242POPC   C3A42629  12.827  39.186   7.064
 3242POPC   C4A42630  12.887  39.242   7.364
 3242POPC   C1B42631  12.760  38.944   6.464
 3242POPC   C2B42632  12.824  38.980   6.764
 3242POPC   C3B42633  12.782  38.948   7.064
 3242POPC   C4B42634  12.746  38.995   7.364
 3243POPC   NC342635  20.654  28.340   5.564
 3243POPC   PO442636  20.589  28.330   5.864
 3243POPC   GL142637  20.575  28.349   6.164
 3243POPC   GL242638  20.587  28.288   6.164
 3243POPC   C1A42639  20.654  28.321   6.464
 3243POPC   D2A42640  20.641  28.395   6.764
 3243POPC   C3A42641  20.648  28.383   7.064
 3243POPC   C4A42642  20.607  28.319   7.364
 3243POPC   C1B42643  20.698  28.077   6.464
 3243POPC   C2B42644  20.632  28.119   6.764
 3243POPC   C3B42645  20.618  28.083   7.064
 3243POPC   C4B42646  20.687  28.160   7.364
 3244POPC   NC342647  32.994  18.318   5.564
 3244POPC   PO442648  33.045  18.284   5.864
 3244POPC   GL142649  33.039  18.257   6.164
 3244POPC   GL242650  32.942  18.311   6.164
 3244POPC   C1A42651  32.980  18.235   6.464
 3244POPC   D2A42652  33.059  18.247   6.764
 3244POPC   C3A42653  32.979  18.274   7.064
 3244POPC   C4A42654  32.994  18.296   7.364
 3244POPC   C1B42655  32.816  18.359   6.464
 3244POPC   C2B42656  32.806  18.421   6.764
 3244POPC   C3B42657  32.822  18.414   7.064
 3244POPC   C4B42658  32.777  18.371   7.364
 3245POPC   NC342659   1.240   8.990   5.564
 3245POPC   PO442660   1.188   8.973   5.864
 3245POPC   GL142661   1.245   8.981   6.164
 3245POPC   GL242662   1.108   8.939   6.164
 3245POPC   C1A42663   1.255   8.966   6.464
 3245POPC   D2A42664   1.248   8.985   6.764
 3245POPC   C3A42665   1.232   8.974   7.064
 3245POPC   C4A42666   1.203   9.004   7.364
 3245POPC   C1B42667   0.964   8.867   6.464
 3245POPC   C2B42668   1.045   8.828   6.764
 3245POPC   C3B42669   0.975   8.857   7.064
 3245POPC   C4B42670   0.999   8.817   7.364
 3246POPC   NC342671  42.296   1.198   5.564
 3246POPC   PO442672  42.322   1.248   5.864
 3246POPC   GL142673  42.335   1.242   6.164
 3246POPC   GL242674  42.405   1.163   6.164
 3246POPC   C1A42675  42.331   1.188   6.464
 3246POPC   D2A42676  42.296   1.222   6.764
 3246POPC   C3A42677  42.377   1.253   7.064
 3246POPC   C4A42678  42.336   1.208   7.364
 3246POPC   C1B42679  42.561   1.111   6.464
 3246POPC   C2B42680  42.576   1.107   6.764
 3246POPC   C3B42681  42.569   1.118   7.064
 3246POPC   C4B42682  42.536   1.110   7.364
 3247POPC   NC342683  12.092  33.843   5.564
 3247POPC   PO442684  12.106  33.757   5.864
 3247POPC   GL142685  12.075  33.787   6.164
 3247POPC   GL242686  11.967  33.835   6.164
 3247POPC   C1A42687  12.050  33.846   6.464
 3247POPC   D2A42688  12.035  33.817   6.764
 3247POPC   C3A42689  12.037  33.783   7.064
 3247POPC   C4A42690  12.043  33.769   7.364
 3247POPC   C1B42691  11.833  33.971   6.464
 3247POPC   C2B42692  11.877  33.999   6.764
 3247POPC   C3B42693  11.922  33.980   7.064
 3247POPC   C4B42694  11.837  34.002   7.364
 3248POPC   NC342695  33.783  37.694   5.564
 3248POPC   PO442696  33.840  37.695   5.864
 3248POPC   GL142697  33.759  37.716   6.164
 3248POPC   GL242698  33.751  37.604   6.164
 3248POPC   C1A42699  33.810  37.689   6.464
 3248POPC   D2A42700  33.758  37.725   6.764
 3248POPC   C3A42701  33.785  37.663   7.064
 3248POPC   C4A42702  33.794  37.725   7.364
 3248POPC   C1B42703  33.798  37.468   6.464
 3248POPC   C2B42704  33.797  37.476   6.764
 3248POPC   C3B42705  33.777  37.392   7.064
 3248POPC   C4B42706  33.766  37.478   7.364
 3249POPC   NC342707  29.124   0.419   5.564
 3249POPC   PO442708  29.148   0.476   5.864
 3249POPC   GL142709  29.153   0.414   6.164
 3249POPC   GL242710  29.247   0.462   6.164
 3249POPC   C1A42711  29.170   0.407   6.464
 3249POPC   D2A42712  29.106   0.450   6.764
 3249POPC   C3A42713  29.105   0.476   7.064
 3249POPC   C4A42714  29.130   0.423   7.364
 3249POPC   C1B42715  29.358   0.491   6.464
 3249POPC   C2B42716  29.385   0.469   6.764
 3249POPC   C3B42717  29.414   0.498   7.064
 3249POPC   C4B42718  29.395   0.543   7.364
 3250POPC   NC342719  18.307  40.825   5.564
 3250POPC   PO442720  18.321  40.784   5.864
 3250POPC   GL142721  18.283  40.783   6.164
 3250POPC   GL242722  18.140  40.900   6.164
 3250POPC   C1A42723  18.244  40.816   6.464
 3250POPC   D2A42724  18.235  40.831   6.764
 3250POPC   C3A42725  18.306  40.815   7.064
 3250POPC   C4A42726  18.262  40.783   7.364
 3250POPC   C1B42727  18.049  40.935   6.464
 3250POPC   C2B42728  18.081  40.901   6.764
 3250POPC   C3B42729  18.125  40.944   7.064
 3250POPC   C4B42730  18.041  40.895   7.364
 3251POPC   NC342731  43.068  19.064   5.564
 3251POPC   PO442732  43.119  19.020   5.864
 3251POPC   GL142733  43.069  19.042   6.164
 3251POPC   GL242734  43.133  19.200   6.164
 3251POPC   C1A42735  43.149  19.018   6.464
 3251POPC   D2A42736  43.079  19.032   6.764
 3251POPC   C3A42737  43.105  19.026   7.064
 3251POPC   C4A42738  43.141  19.063   7.364
 3251POPC   C1B42739  43.106  19.262   6.464
 3251POPC   C2B42740  43.158  19.320   6.764
 3251POPC   C3B42741  43.141  19.353   7.064
 3251POPC   C4B42742  43.169  19.325   7.364
 3252POPC   NC342743  33.802  23.715   5.564
 3252POPC   PO442744  33.786  23.671   5.864
 3252POPC   GL142745  33.782  23.684   6.164
 3252POPC   GL242746  33.787  23.851   6.164
 3252POPC   C1A42747  33.812  23.673   6.464
 3252POPC   D2A42748  33.830  23.683   6.764
 3252POPC   C3A42749  33.818  23.713   7.064
 3252POPC   C4A42750  33.847  23.733   7.364
 3252POPC   C1B42751  33.728  23.963   6.464
 3252POPC   C2B42752  33.714  23.902   6.764
 3252POPC   C3B42753  33.768  23.992   7.064
 3252POPC   C4B42754  33.709  23.922   7.364
 3253POPC   NC342755  21.374   5.070   5.564
 3253POPC   PO442756  21.415   5.103   5.864
 3253POPC   GL142757  21.435   5.052   6.164
 3253POPC   GL242758  21.416   4.933   6.164
 3253POPC   C1A42759  21.429   5.049   6.464
 3253POPC   D2A42760  21.356   5.111   6.764
 3253POPC   C3A42761  21.337   5.094   7.064
 3253POPC   C4A42762  21.435   5.086   7.364
 3253POPC   C1B42763  21.375   4.875   6.464
 3253POPC   C2B42764  21.328   4.861   6.764
 3253POPC   C3B42765  21.342   4.817   7.064
 3253POPC   C4B42766  21.344   4.795   7.364
 3254POPC   NC342767  40.825  43.152   5.564
 3254POPC   PO442768  40.800  43.154   5.864
 3254POPC   GL142769  40.806  43.143   6.164
 3254POPC   GL242770  40.873  42.967   6.164
 3254POPC   C1A42771  40.798  43.108   6.464
 3254POPC   D2A42772  40.813  43.154   6.764
 3254POPC   C3A42773  40.828  43.121   7.064
 3254POPC   C4A42774  40.753  43.156   7.364
 3254POPC   C1B42775  40.916  42.836   6.464
 3254POPC   C2B42776  40.879  42.889   6.764
 3254POPC   C3B42777  40.905  42.873   7.064
 3254POPC   C4B42778  40.883  42.914   7.364
 3255POPC   NC342779   8.962  35.398   5.564
 3255POPC   PO442780   8.987  35.314   5.864
 3255POPC   GL142781   8.989  35.338   6.164
 3255POPC   GL242782   8.913  35.457   6.164
 3255POPC   C1A42783   9.017  35.335   6.464
 3255POPC   D2A42784   8.986  35.338   6.764
 3255POPC   C3A42785   8.959  35.364   7.064
 3255POPC   C4A42786   9.016  35.382   7.364
 3255POPC   C1B42787   8.921  35.624   6.464
 3255POPC   C2B42788   8.882  35.584   6.764
 3255POPC   C3B42789   8.909  35.551   7.064
 3255POPC   C4B42790   8.919  35.639   7.364
 3256POPC   NC342791  30.732  31.474   5.564
 3256POPC   PO442792  30.683  31.469   5.864
 3256POPC   GL142793  30.743  31.473   6.164
 3256POPC   GL242794  30.594  31.391   6.164
 3256POPC   C1A42795  30.672  31.456   6.464
 3256POPC   D2A42796  30.672  31.482   6.764
 3256POPC   C3A42797  30.744  31.488   7.064
 3256POPC   C4A42798  30.655  31.493   7.364
 3256POPC   C1B42799  30.490  31.314   6.464
 3256POPC   C2B42800  30.513  31.244   6.764
 3256POPC   C3B42801  30.568  31.235   7.064
 3256POPC   C4B42802  30.535  31.263   7.364
 3257POPC   NC342803  39.279  12.106   5.564
 3257POPC   PO442804  39.191  12.056   5.864
 3257POPC   GL142805  39.186  12.089   6.164
 3257POPC   GL242806  39.271  12.163   6.164
 3257POPC   C1A42807  39.234  12.123   6.464
 3257POPC   D2A42808  39.250  12.038   6.764
 3257POPC   C3A42809  39.206  12.102   7.064
 3257POPC   C4A42810  39.265  12.080   7.364
 3257POPC   C1B42811  39.307  12.298   6.464
 3257POPC   C2B42812  39.331  12.304   6.764
 3257POPC   C3B42813  39.391  12.248   7.064
 3257POPC   C4B42814  39.318  12.269   7.364
 3258POPC   NC342815  27.612  14.389   5.564
 3258POPC   PO442816  27.583  14.403   5.864
 3258POPC   GL142817  27.600  14.437   6.164
 3258POPC   GL242818  27.523  14.505   6.164
 3258POPC   C1A42819  27.584  14.425   6.464
 3258POPC   D2A42820  27.602  14.431   6.764
 3258POPC   C3A42821  27.558  14.376   7.064
 3258POPC   C4A42822  27.585  14.362   7.364
 3258POPC   C1B42823  27.442  14.575   6.464
 3258POPC   C2B42824  27.371  14.533   6.764
 3258POPC   C3B42825  27.367  14.546   7.064
 3258POPC   C4B42826  27.403  14.561   7.364
 3259POPC   NC342827  42.325  28.412   5.564
 3259POPC   PO442828  42.299  28.325   5.864
 3259POPC   GL142829  42.379  28.405   6.164
 3259POPC   GL242830  42.457  28.478   6.164
 3259POPC   C1A42831  42.379  28.376   6.464
 3259POPC   D2A42832  42.329  28.333   6.764
 3259POPC   C3A42833  42.372  28.350   7.064
 3259POPC   C4A42834  42.325  28.395   7.364
 3259POPC   C1B42835  42.506  28.521   6.464
 3259POPC   C2B42836  42.585  28.513   6.764
 3259POPC   C3B42837  42.512  28.491   7.064
 3259POPC   C4B42838  42.570  28.482   7.364
 3260POPC   NC342839  13.604  34.594   5.564
 3260POPC   PO442840  13.607  34.548   5.864
 3260POPC   GL142841  13.636  34.549   6.164
 3260POPC   GL242842  13.683  34.740   6.164
 3260POPC   C1A42843  13.611  34.582   6.464
 3260POPC   D2A42844  13.598  34.545   6.764
 3260POPC   C3A42845  13.590  34.604   7.064
 3260POPC   C4A42846  13.671  34.587   7.364
 3260POPC   C1B42847  13.625  34.834   6.464
 3260POPC   C2B42848  13.627  34.794   6.764
 3260POPC   C3B42849  13.683  34.777   7.064
 3260POPC   C4B42850  13.632  34.872   7.364
 3261POPC   NC342851  17.548  43.085   5.564
 3261POPC   PO442852  17.460  43.135   5.864
 3261POPC   GL142853  17.542  43.095   6.164
 3261POPC   GL242854  17.474  43.208   6.164
 3261POPC   C1A42855  17.489  43.149   6.464
 3261POPC   D2A42856  17.492  43.154   6.764
 3261POPC   C3A42857  17.475  43.065   7.064
 3261POPC   C4A42858  17.470  43.118   7.364
 3261POPC   C1B42859  17.372  43.311   6.464
 3261POPC   C2B42860  17.373  43.285   6.764
 3261POPC   C3B42861  17.394  43.342   7.064
 3261POPC   C4B42862  17.386  43.348   7.364
 3262POPC   NC342863  14.364  21.379   5.564
 3262POPC   PO442864  14.408  21.348   5.864
 3262POPC   GL142865  14.354  21.368   6.164
 3262POPC   GL242866  14.256  21.311   6.164
 3262POPC   C1A42867  14.445  21.388   6.464
 3262POPC   D2A42868  14.443  21.391   6.764
 3262POPC   C3A42869  14.355  21.405   7.064
 3262POPC   C4A42870  14.438  21.376   7.364
 3262POPC   C1B42871  14.206  21.255   6.464
 3262POPC   C2B42872  14.138  21.253   6.764
 3262POPC   C3B42873  14.162  21.311   7.064
 3262POPC   C4B42874  14.173  21.313   7.364
 3263POPC   NC342875  15.196  32.201   5.564
 3263POPC   PO442876  15.138  32.295   5.864
 3263POPC   GL142877  15.156  32.247   6.164
 3263POPC   GL242878  15.242  32.328   6.164
 3263POPC   C1A42879  15.187  32.279   6.464
 3263POPC   D2A42880  15.171  32.281   6.764
 3263POPC   C3A42881  15.224  32.213   7.064
 3263POPC   C4A42882  15.214  32.248   7.364
 3263POPC   C1B42883  15.225  32.526   6.464
 3263POPC   C2B42884  15.231  32.529   6.764
 3263POPC   C3B42885  15.191  32.478   7.064
 3263POPC   C4B42886  15.250  32.544   7.364
 3264POPC   NC342887  43.147  32.258   5.564
 3264POPC   PO442888  43.077  32.282   5.864
 3264POPC   GL142889  43.072  32.257   6.164
 3264POPC   GL242890  43.145  32.327   6.164
 3264POPC   C1A42891  43.074  32.292   6.464
 3264POPC   D2A42892  43.116  32.200   6.764
 3264POPC   C3A42893  43.101  32.212   7.064
 3264POPC   C4A42894  43.135  32.271   7.364
 3264POPC   C1B42895  43.216  32.411   6.464
 3264POPC   C2B42896  43.281  32.439   6.764
 3264POPC   C3B42897  43.227  32.463   7.064
 3264POPC   C4B42898  43.266  32.411   7.364
 3265POPC   NC342899  19.019   8.937   5.564
 3265POPC   PO442900  19.107   9.019   5.864
 3265POPC   GL142901  19.098   9.003   6.164
 3265POPC   GL242902  19.170   9.078   6.164
 3265POPC   C1A42903  19.067   8.928   6.464
 3265POPC   D2A42904  19.066   8.984   6.764
 3265POPC   C3A42905  19.041   8.990   7.064
 3265POPC   C4A42906  19.078   8.954   7.364
 3265POPC   C1B42907  19.322   9.088   6.464
 3265POPC   C2B42908  19.317   9.079   6.764
 3265POPC   C3B42909  19.243   9.124   7.064
 3265POPC   C4B42910  19.273   9.095   7.364
 3266POPC   NC342911  39.209  36.131   5.564
 3266POPC   PO442912  39.256  36.133   5.864
 3266POPC   GL142913  39.223  36.080   6.164
 3266POPC   GL242914  39.170  36.034   6.164
 3266POPC   C1A42915  39.215  36.091   6.464
 3266POPC   D2A42916  39.223  36.106   6.764
 3266POPC   C3A42917  39.224  36.082   7.064
 3266POPC   C4A42918  39.260  36.079   7.364
 3266POPC   C1B42919  39.162  35.874   6.464
 3266POPC   C2B42920  39.167  35.852   6.764
 3266POPC   C3B42921  39.119  35.898   7.064
 3266POPC   C4B42922  39.112  35.909   7.364
 3267POPC   NC342923  29.173  40.012   5.564
 3267POPC   PO442924  29.112  39.991   5.864
 3267POPC   GL142925  29.100  40.019   6.164
 3267POPC   GL242926  29.297  40.061   6.164
 3267POPC   C1A42927  29.148  40.043   6.464
 3267POPC   D2A42928  29.180  40.000   6.764
 3267POPC   C3A42929  29.174  40.028   7.064
 3267POPC   C4A42930  29.117  39.974   7.364
 3267POPC   C1B42931  29.344  40.086   6.464
 3267POPC   C2B42932  29.419  40.090   6.764
 3267POPC   C3B42933  29.349  40.061   7.064
 3267POPC   C4B42934  29.413  40.092   7.364
 3268POPC   NC342935  19.847  38.488   5.564
 3268POPC   PO442936  19.878  38.452   5.864
 3268POPC   GL142937  19.832  38.430   6.164
 3268POPC   GL242938  19.721  38.384   6.164
 3268POPC   C1A42939  19.824  38.418   6.464
 3268POPC   D2A42940  19.867  38.429   6.764
 3268POPC   C3A42941  19.834  38.474   7.064
 3268POPC   C4A42942  19.856  38.465   7.364
 3268POPC   C1B42943  19.661  38.301   6.464
 3268POPC   C2B42944  19.606  38.267   6.764
 3268POPC   C3B42945  19.597  38.268   7.064
 3268POPC   C4B42946  19.663  38.346   7.364
 3269POPC   NC342947   3.571  25.278   5.564
 3269POPC   PO442948   3.575  25.272   5.864
 3269POPC   GL142949   3.492  25.314   6.164
 3269POPC   GL242950   3.541  25.182   6.164
 3269POPC   C1A42951   3.532  25.219   6.464
 3269POPC   D2A42952   3.509  25.252   6.764
 3269POPC   C3A42953   3.557  25.225   7.064
 3269POPC   C4A42954   3.527  25.286   7.364
 3269POPC   C1B42955   3.586  25.067   6.464
 3269POPC   C2B42956   3.630  25.073   6.764
 3269POPC   C3B42957   3.657  25.069   7.064
 3269POPC   C4B42958   3.641  25.067   7.364
 3270POPC   NC342959  21.381  43.884   5.564
 3270POPC   PO442960  21.427  43.918   5.864
 3270POPC   GL142961  21.359  43.926   6.164
 3270POPC   GL242962  21.500  43.898   6.164
 3270POPC   C1A42963  21.380  43.877   6.464
 3270POPC   D2A42964  21.355  43.885   6.764
 3270POPC   C3A42965  21.393  43.885   7.064
 3270POPC   C4A42966  21.398  43.876   7.364
 3270POPC   C1B42967  21.633  43.828   6.464
 3270POPC   C2B42968  21.649  43.851   6.764
 3270POPC   C3B42969  21.580  43.786   7.064
 3270POPC   C4B42970  21.589  43.764   7.364
 3271POPC   NC342971  37.665   9.022   5.564
 3271POPC   PO442972  37.640   8.948   5.864
 3271POPC   GL142973  37.644   9.003   6.164
 3271POPC   GL242974  37.600   9.114   6.164
 3271POPC   C1A42975  37.636   8.938   6.464
 3271POPC   D2A42976  37.683   8.952   6.764
 3271POPC   C3A42977  37.724   8.979   7.064
 3271POPC   C4A42978  37.666   8.942   7.364
 3271POPC   C1B42979  37.593   9.205   6.464
 3271POPC   C2B42980  37.567   9.168   6.764
 3271POPC   C3B42981  37.563   9.216   7.064
 3271POPC   C4B42982  37.592   9.174   7.364
 3272POPC   NC342983  31.521  10.488   5.564
 3272POPC   PO442984  31.456  10.529   5.864
 3272POPC   GL142985  31.427  10.551   6.164
 3272POPC   GL242986  31.395  10.636   6.164
 3272POPC   C1A42987  31.519  10.567   6.464
 3272POPC   D2A42988  31.487  10.493   6.764
 3272POPC   C3A42989  31.431  10.487   7.064
 3272POPC   C4A42990  31.456  10.491   7.364
 3272POPC   C1B42991  31.360  10.723   6.464
 3272POPC   C2B42992  31.321  10.729   6.764
 3272POPC   C3B42993  31.356  10.674   7.064
 3272POPC   C4B42994  31.356  10.754   7.364
 3273POPC   NC342995  42.308  32.253   5.564
 3273POPC   PO442996  42.332  32.229   5.864
 3273POPC   GL142997  42.375  32.215   6.164
 3273POPC   GL242998  42.187  32.214   6.164
 3273POPC   C1A42999  42.352  32.229   6.464
 3273POPC   D2A43000  42.338  32.259   6.764
 3273POPC   C3A43001  42.366  32.234   7.064
 3273POPC   C4A43002  42.383  32.250   7.364
 3273POPC   C1B43003  42.077  32.188   6.464
 3273POPC   C2B43004  42.123  32.179   6.764
 3273POPC   C3B43005  42.073  32.166   7.064
 3273POPC   C4B43006  42.098  32.188   7.364
 3274POPC   NC343007  22.201   2.804   5.564
 3274POPC   PO443008  22.194   2.728   5.864
 3274POPC   GL143009  22.182   2.777   6.164
 3274POPC   GL243010  22.186   2.912   6.164
 3274POPC   C1A43011  22.199   2.766   6.464
 3274POPC   D2A43012  22.138   2.799   6.764
 3274POPC   C3A43013  22.170   2.802   7.064
 3274POPC   C4A43014  22.154   2.781   7.364
 3274POPC   C1B43015  22.132   3.046   6.464
 3274POPC   C2B43016  22.148   3.034   6.764
 3274POPC   C3B43017  22.128   2.991   7.064
 3274POPC   C4B43018  22.107   3.036   7.364
 3275POPC   NC343019   9.713  15.143   5.564
 3275POPC   PO443020   9.797  15.164   5.864
 3275POPC   GL143021   9.785  15.190   6.164
 3275POPC   GL243022   9.694  15.144   6.164
 3275POPC   C1A43023   9.726  15.225   6.464
 3275POPC   D2A43024   9.791  15.155   6.764
 3275POPC   C3A43025   9.741  15.207   7.064
 3275POPC   C4A43026   9.779  15.202   7.364
 3275POPC   C1B43027   9.557  14.972   6.464
 3275POPC   C2B43028   9.582  15.023   6.764
 3275POPC   C3B43029   9.587  15.011   7.064
 3275POPC   C4B43030   9.601  15.001   7.364
 3276POPC   NC343031  32.245  15.172   5.564
 3276POPC   PO443032  32.211  15.169   5.864
 3276POPC   GL143033  32.266  15.213   6.164
 3276POPC   GL243034  32.220  15.033   6.164
 3276POPC   C1A43035  32.245  15.179   6.464
 3276POPC   D2A43036  32.256  15.229   6.764
 3276POPC   C3A43037  32.294  15.182   7.064
 3276POPC   C4A43038  32.243  15.158   7.364
 3276POPC   C1B43039  32.111  14.976   6.464
 3276POPC   C2B43040  32.093  14.931   6.764
 3276POPC   C3B43041  32.115  14.933   7.064
 3276POPC   C4B43042  32.090  15.014   7.364
 3277POPC   NC343043  15.140   1.986   5.564
 3277POPC   PO443044  15.193   2.025   5.864
 3277POPC   GL143045  15.132   1.952   6.164
 3277POPC   GL243046  15.249   2.102   6.164
 3277POPC   C1A43047  15.187   2.037   6.464
 3277POPC   D2A43048  15.212   1.950   6.764
 3277POPC   C3A43049  15.143   2.027   7.064
 3277POPC   C4A43050  15.150   1.978   7.364
 3277POPC   C1B43051  15.253   2.250   6.464
 3277POPC   C2B43052  15.263   2.205   6.764
 3277POPC   C3B43053  15.264   2.195   7.064
 3277POPC   C4B43054  15.289   2.268   7.364
 3278POPC   NC343055  13.604  21.398   5.564
 3278POPC   PO443056  13.634  21.348   5.864
 3278POPC   GL143057  13.594  21.418   6.164
 3278POPC   GL243058  13.606  21.464   6.164
 3278POPC   C1A43059  13.608  21.353   6.464
 3278POPC   D2A43060  13.585  21.428   6.764
 3278POPC   C3A43061  13.593  21.406   7.064
 3278POPC   C4A43062  13.610  21.356   7.364
 3278POPC   C1B43063  13.511  21.633   6.464
 3278POPC   C2B43064  13.497  21.627   6.764
 3278POPC   C3B43065  13.516  21.628   7.064
 3278POPC   C4B43066  13.508  21.637   7.364
 3279POPC   NC343067  23.690   5.854   5.564
 3279POPC   PO443068  23.717   5.820   5.864
 3279POPC   GL143069  23.706   5.840   6.164
 3279POPC   GL243070  23.867   5.861   6.164
 3279POPC   C1A43071  23.722   5.833   6.464
 3279POPC   D2A43072  23.743   5.884   6.764
 3279POPC   C3A43073  23.748   5.856   7.064
 3279POPC   C4A43074  23.680   5.829   7.364
 3279POPC   C1B43075  23.939   5.817   6.464
 3279POPC   C2B43076  23.987   5.793   6.764
 3279POPC   C3B43077  23.963   5.876   7.064
 3279POPC   C4B43078  23.916   5.871   7.364
 3280POPC   NC343079  12.874  15.214   5.564
 3280POPC   PO443080  12.804  15.229   5.864
 3280POPC   GL143081  12.817  15.182   6.164
 3280POPC   GL243082  12.957  15.157   6.164
 3280POPC   C1A43083  12.850  15.173   6.464
 3280POPC   D2A43084  12.874  15.177   6.764
 3280POPC   C3A43085  12.805  15.184   7.064
 3280POPC   C4A43086  12.807  15.134   7.364
 3280POPC   C1B43087  13.067  15.155   6.464
 3280POPC   C2B43088  13.124  15.092   6.764
 3280POPC   C3B43089  13.080  15.139   7.064
 3280POPC   C4B43090  13.095  15.140   7.364
 3281POPC   NC343091  37.688  32.220   5.564
 3281POPC   PO443092  37.640  32.243   5.864
 3281POPC   GL143093  37.663  32.249   6.164
 3281POPC   GL243094  37.758  32.390   6.164
 3281POPC   C1A43095  37.722  32.223   6.464
 3281POPC   D2A43096  37.644  32.204   6.764
 3281POPC   C3A43097  37.650  32.260   7.064
 3281POPC   C4A43098  37.656  32.296   7.364
 3281POPC   C1B43099  37.877  32.470   6.464
 3281POPC   C2B43100  37.851  32.487   6.764
 3281POPC   C3B43101  37.794  32.411   7.064
 3281POPC   C4B43102  37.839  32.477   7.364
 3282POPC   NC343103  43.900  29.182   5.564
 3282POPC   PO443104  43.924  29.174   5.864
 3282POPC   GL143105  43.900  29.119   6.164
 3282POPC   GL243106  44.016  29.195   6.164
 3282POPC   C1A43107  43.905  29.192   6.464
 3282POPC   D2A43108  43.848  29.167   6.764
 3282POPC   C3A43109  43.929  29.172   7.064
 3282POPC   C4A43110  43.892  29.141   7.364
 3282POPC   C1B43111  44.145  29.270   6.464
 3282POPC   C2B43112  44.091  29.253   6.764
 3282POPC   C3B43113  44.103  29.256   7.064
 3282POPC   C4B43114  44.112  29.273   7.364
 3283POPC   NC343115  25.268   7.388   5.564
 3283POPC   PO443116  25.261   7.450   5.864
 3283POPC   GL143117  25.303   7.371   6.164
 3283POPC   GL243118  25.209   7.460   6.164
 3283POPC   C1A43119  25.304   7.417   6.464
 3283POPC   D2A43120  25.265   7.462   6.764
 3283POPC   C3A43121  25.239   7.442   7.064
 3283POPC   C4A43122  25.243   7.451   7.364
 3283POPC   C1B43123  25.053   7.579   6.464
 3283POPC   C2B43124  25.071   7.509   6.764
 3283POPC   C3B43125  25.102   7.553   7.064
 3283POPC   C4B43126  25.012   7.590   7.364
 3284POPC   NC343127  34.527   8.209   5.564
 3284POPC   PO443128  34.581   8.218   5.864
 3284POPC   GL143129  34.603   8.243   6.164
 3284POPC   GL243130  34.658   8.082   6.164
 3284POPC   C1A43131  34.600   8.236   6.464
 3284POPC   D2A43132  34.529   8.156   6.764
 3284POPC   C3A43133  34.591   8.195   7.064
 3284POPC   C4A43134  34.567   8.147   7.364
 3284POPC   C1B43135  34.692   7.997   6.464
 3284POPC   C2B43136  34.671   7.957   6.764
 3284POPC   C3B43137  34.693   7.920   7.064
 3284POPC   C4B43138  34.694   7.988   7.364
 3285POPC   NC343139  16.714  40.830   5.564
 3285POPC   PO443140  16.763  40.793   5.864
 3285POPC   GL143141  16.703  40.792   6.164
 3285POPC   GL243142  16.834  40.780   6.164
 3285POPC   C1A43143  16.720  40.792   6.464
 3285POPC   D2A43144  16.715  40.760   6.764
 3285POPC   C3A43145  16.771  40.788   7.064
 3285POPC   C4A43146  16.777  40.770   7.364
 3285POPC   C1B43147  16.951  40.719   6.464
 3285POPC   C2B43148  16.961  40.786   6.764
 3285POPC   C3B43149  16.989  40.706   7.064
 3285POPC   C4B43150  16.956  40.699   7.364
 3286POPC   NC343151  36.861  23.685   5.564
 3286POPC   PO443152  36.896  23.676   5.864
 3286POPC   GL143153  36.879  23.760   6.164
 3286POPC   GL243154  36.844  23.591   6.164
 3286POPC   C1A43155  36.926  23.762   6.464
 3286POPC   D2A43156  36.920  23.691   6.764
 3286POPC   C3A43157  36.867  23.678   7.064
 3286POPC   C4A43158  36.922  23.733   7.364
 3286POPC   C1B43159  36.692  23.601   6.464
 3286POPC   C2B43160  36.722  23.521   6.764
 3286POPC   C3B43161  36.706  23.578   7.064
 3286POPC   C4B43162  36.678  23.525   7.364
 3287POPC   NC343163  11.281  12.032   5.564
 3287POPC   PO443164  11.281  12.042   5.864
 3287POPC   GL143165  11.259  12.059   6.164
 3287POPC   GL243166  11.378  12.046   6.164
 3287POPC   C1A43167  11.285  12.088   6.464
 3287POPC   D2A43168  11.345  12.064   6.764
 3287POPC   C3A43169  11.292  12.117   7.064
 3287POPC   C4A43170  11.270  12.097   7.364
 3287POPC   C1B43171  11.552  11.978   6.464
 3287POPC   C2B43172  11.534  11.931   6.764
 3287POPC   C3B43173  11.462  11.977   7.064
 3287POPC   C4B43174  11.474  11.890   7.364
 3288POPC   NC343175  41.535  37.678   5.564
 3288POPC   PO443176  41.523  37.728   5.864
 3288POPC   GL143177  41.522  37.699   6.164
 3288POPC   GL243178  41.671  37.591   6.164
 3288POPC   C1A43179  41.535  37.673   6.464
 3288POPC   D2A43180  41.541  37.662   6.764
 3288POPC   C3A43181  41.533  37.688   7.064
 3288POPC   C4A43182  41.575  37.711   7.364
 3288POPC   C1B43183  41.695  37.516   6.464
 3288POPC   C2B43184  41.730  37.492   6.764
 3288POPC   C3B43185  41.717  37.505   7.064
 3288POPC   C4B43186  41.731  37.445   7.364
 3289POPC   NC343187  40.820  41.590   5.564
 3289POPC   PO443188  40.772  41.535   5.864
 3289POPC   GL143189  40.751  41.584   6.164
 3289POPC   GL243190  40.660  41.553   6.164
 3289POPC   C1A43191  40.797  41.561   6.464
 3289POPC   D2A43192  40.827  41.519   6.764
 3289POPC   C3A43193  40.762  41.540   7.064
 3289POPC   C4A43194  40.815  41.509   7.364
 3289POPC   C1B43195  40.499  41.620   6.464
 3289POPC   C2B43196  40.520  41.637   6.764
 3289POPC   C3B43197  40.572  41.575   7.064
 3289POPC   C4B43198  40.496  41.568   7.364
 3290POPC   NC343199  17.479  18.267   5.564
 3290POPC   PO443200  17.498  18.234   5.864
 3290POPC   GL143201  17.484  18.275   6.164
 3290POPC   GL243202  17.550  18.186   6.164
 3290POPC   C1A43203  17.518  18.255   6.464
 3290POPC   D2A43204  17.525  18.295   6.764
 3290POPC   C3A43205  17.467  18.250   7.064
 3290POPC   C4A43206  17.548  18.269   7.364
 3290POPC   C1B43207  17.687  18.102   6.464
 3290POPC   C2B43208  17.627  18.116   6.764
 3290POPC   C3B43209  17.630  18.127   7.064
 3290POPC   C4B43210  17.636  18.082   7.364
 3291POPC   NC343211  31.480   2.035   5.564
 3291POPC   PO443212  31.516   1.976   5.864
 3291POPC   GL143213  31.516   2.036   6.164
 3291POPC   GL243214  31.554   1.940   6.164
 3291POPC   C1A43215  31.460   1.997   6.464
 3291POPC   D2A43216  31.512   2.023   6.764
 3291POPC   C3A43217  31.522   2.005   7.064
 3291POPC   C4A43218  31.441   2.031   7.364
 3291POPC   C1B43219  31.752   1.941   6.464
 3291POPC   C2B43220  31.738   1.893   6.764
 3291POPC   C3B43221  31.675   1.953   7.064
 3291POPC   C4B43222  31.660   1.924   7.364
 3292POPC   NC343223   5.100  17.541   5.564
 3292POPC   PO443224   5.065  17.542   5.864
 3292POPC   GL143225   5.054  17.524   6.164
 3292POPC   GL243226   5.161  17.390   6.164
 3292POPC   C1A43227   5.061  17.534   6.464
 3292POPC   D2A43228   5.078  17.516   6.764
 3292POPC   C3A43229   5.118  17.511   7.064
 3292POPC   C4A43230   5.081  17.468   7.364
 3292POPC   C1B43231   5.165  17.231   6.464
 3292POPC   C2B43232   5.168  17.236   6.764
 3292POPC   C3B43233   5.155  17.263   7.064
 3292POPC   C4B43234   5.228  17.327   7.364
 3293POPC   NC343235  16.726  32.975   5.564
 3293POPC   PO443236  16.762  32.985   5.864
 3293POPC   GL143237  16.697  33.030   6.164
 3293POPC   GL243238  16.649  33.157   6.164
 3293POPC   C1A43239  16.767  33.041   6.464
 3293POPC   D2A43240  16.694  33.064   6.764
 3293POPC   C3A43241  16.766  33.004   7.064
 3293POPC   C4A43242  16.744  33.023   7.364
 3293POPC   C1B43243  16.659  33.278   6.464
 3293POPC   C2B43244  16.609  33.236   6.764
 3293POPC   C3B43245  16.672  33.250   7.064
 3293POPC   C4B43246  16.696  33.281   7.364
 3294POPC   NC343247  22.153  44.652   5.564
 3294POPC   PO443248  22.127  44.702   5.864
 3294POPC   GL143249  22.154  44.626   6.164
 3294POPC   GL243250  22.146  44.799   6.164
 3294POPC   C1A43251  22.132  44.627   6.464
 3294POPC   D2A43252  22.121  44.618   6.764
 3294POPC   C3A43253  22.192  44.707   7.064
 3294POPC   C4A43254  22.162  44.707   7.364
 3294POPC   C1B43255  22.112  44.926   6.464
 3294POPC   C2B43256  22.111  44.931   6.764
 3294POPC   C3B43257  22.102  44.922   7.064
 3294POPC   C4B43258  22.174  44.958   7.364
 3295POPC   NC343259  39.963  21.399   5.564
 3295POPC   PO443260  40.046  21.388   5.864
 3295POPC   GL143261  40.006  21.421   6.164
 3295POPC   GL243262  39.969  21.216   6.164
 3295POPC   C1A43263  40.032  21.417   6.464
 3295POPC   D2A43264  39.992  21.365   6.764
 3295POPC   C3A43265  40.001  21.377   7.064
 3295POPC   C4A43266  40.054  21.351   7.364
 3295POPC   C1B43267  40.003  21.171   6.464
 3295POPC   C2B43268  39.980  21.169   6.764
 3295POPC   C3B43269  39.996  21.089   7.064
 3295POPC   C4B43270  40.039  21.097   7.364
 3296POPC   NC343271  44.706  37.694   5.564
 3296POPC   PO443272  44.612  37.689   5.864
 3296POPC   GL143273  44.626  37.642   6.164
 3296POPC   GL243274  44.583  37.731   6.164
 3296POPC   C1A43275  44.636  37.694   6.464
 3296POPC   D2A43276  44.682  37.688   6.764
 3296POPC   C3A43277  44.659  37.689   7.064
 3296POPC   C4A43278  44.684  37.702   7.364
 3296POPC   C1B43279  44.453  37.864   6.464
 3296POPC   C2B43280  44.461  37.825   6.764
 3296POPC   C3B43281  44.485  37.910   7.064
 3296POPC   C4B43282  44.547  37.857   7.364
 3297POPC   NC343283   8.932  38.492   5.564
 3297POPC   PO443284   8.930  38.461   5.864
 3297POPC   GL143285   9.006  38.485   6.164
 3297POPC   GL243286   8.960  38.529   6.164
 3297POPC   C1A43287   8.968  38.450   6.464
 3297POPC   D2A43288   8.966  38.504   6.764
 3297POPC   C3A43289   9.016  38.460   7.064
 3297POPC   C4A43290   8.939  38.478   7.364
 3297POPC   C1B43291   8.849  38.656   6.464
 3297POPC   C2B43292   8.846  38.687   6.764
 3297POPC   C3B43293   8.885  38.676   7.064
 3297POPC   C4B43294   8.897  38.629   7.364
 3298POPC   NC343295   2.815  29.111   5.564
 3298POPC   PO443296   2.771  29.098   5.864
 3298POPC   GL143297   2.746  29.152   6.164
 3298POPC   GL243298   2.665  29.007   6.164
 3298POPC   C1A43299   2.766  29.122   6.464
 3298POPC   D2A43300   2.804  29.165   6.764
 3298POPC   C3A43301   2.751  29.142   7.064
 3298POPC   C4A43302   2.805  29.110   7.364
 3298POPC   C1B43303   2.658  28.913   6.464
 3298POPC   C2B43304   2.645  28.944   6.764
 3298POPC   C3B43305   2.646  28.964   7.064
 3298POPC   C4B43306   2.620  28.953   7.364
 3299POPC   NC343307  20.633  11.255   5.564
 3299POPC   PO443308  20.618  11.328   5.864
 3299POPC   GL143309  20.626  11.314   6.164
 3299POPC   GL243310  20.469  11.282   6.164
 3299POPC   C1A43311  20.569  11.285   6.464
 3299POPC   D2A43312  20.609  11.298   6.764
 3299POPC   C3A43313  20.629  11.306   7.064
 3299POPC   C4A43314  20.642  11.343   7.364
 3299POPC   C1B43315  20.437  11.211   6.464
 3299POPC   C2B43316  20.366  11.133   6.764
 3299POPC   C3B43317  20.349  11.156   7.064
 3299POPC   C4B43318  20.431  11.163   7.364
 3300POPC   NC343319   7.455   1.977   5.564
 3300POPC   PO443320   7.379   1.965   5.864
 3300POPC   GL143321   7.409   1.966   6.164
 3300POPC   GL243322   7.339   1.915   6.164
 3300POPC   C1A43323   7.403   1.984   6.464
 3300POPC   D2A43324   7.415   1.980   6.764
 3300POPC   C3A43325   7.400   2.025   7.064
 3300POPC   C4A43326   7.376   2.021   7.364
 3300POPC   C1B43327   7.195   1.884   6.464
 3300POPC   C2B43328   7.266   1.858   6.764
 3300POPC   C3B43329   7.178   1.851   7.064
 3300POPC   C4B43330   7.260   1.882   7.364
 3301POPC   NC343331  10.481  39.968   5.564
 3301POPC   PO443332  10.564  39.993   5.864
 3301POPC   GL143333  10.553  40.008   6.164
 3301POPC   GL243334  10.483  40.153   6.164
 3301POPC   C1A43335  10.496  39.993   6.464
 3301POPC   D2A43336  10.486  40.015   6.764
 3301POPC   C3A43337  10.507  40.014   7.064
 3301POPC   C4A43338  10.566  39.968   7.364
 3301POPC   C1B43339  10.568  40.207   6.464
 3301POPC   C2B43340  10.570  40.240   6.764
 3301POPC   C3B43341  10.522  40.232   7.064
 3301POPC   C4B43342  10.521  40.237   7.364
 3302POPC   NC343343  43.897   6.602   5.564
 3302POPC   PO443344  43.881   6.677   5.864
 3302POPC   GL143345  43.852   6.602   6.164
 3302POPC   GL243346  43.990   6.547   6.164
 3302POPC   C1A43347  43.923   6.677   6.464
 3302POPC   D2A43348  43.837   6.692   6.764
 3302POPC   C3A43349  43.896   6.672   7.064
 3302POPC   C4A43350  43.846   6.654   7.364
 3302POPC   C1B43351  44.119   6.446   6.464
 3302POPC   C2B43352  44.119   6.440   6.764
 3302POPC   C3B43353  44.064   6.458   7.064
 3302POPC   C4B43354  44.066   6.466   7.364
 3303POPC   NC343355  26.852  22.199   5.564
 3303POPC   PO443356  26.818  22.177   5.864
 3303POPC   GL143357  26.855  22.155   6.164
 3303POPC   GL243358  26.902  22.186   6.164
 3303POPC   C1A43359  26.819  22.211   6.464
 3303POPC   D2A43360  26.862  22.162   6.764
 3303POPC   C3A43361  26.782  22.206   7.064
 3303POPC   C4A43362  26.776  22.185   7.364
 3303POPC   C1B43363  27.053  22.095   6.464
 3303POPC   C2B43364  27.033  22.110   6.764
 3303POPC   C3B43365  27.059  22.180   7.064
 3303POPC   C4B43366  27.074  22.095   7.364
 3304POPC   NC343367  31.517  20.577   5.564
 3304POPC   PO443368  31.508  20.639   5.864
 3304POPC   GL143369  31.519  20.562   6.164
 3304POPC   GL243370  31.370  20.721   6.164
 3304POPC   C1A43371  31.471  20.573   6.464
 3304POPC   D2A43372  31.473  20.637   6.764
 3304POPC   C3A43373  31.456  20.600   7.064
 3304POPC   C4A43374  31.437  20.606   7.364
 3304POPC   C1B43375  31.287  20.711   6.464
 3304POPC   C2B43376  31.250  20.799   6.764
 3304POPC   C3B43377  31.313  20.714   7.064
 3304POPC   C4B43378  31.304  20.771   7.364
 3305POPC   NC343379  27.563  12.849   5.564
 3305POPC   PO443380  27.545  12.858   5.864
 3305POPC   GL143381  27.551  12.860   6.164
 3305POPC   GL243382  27.450  12.898   6.164
 3305POPC   C1A43383  27.554  12.839   6.464
 3305POPC   D2A43384  27.573  12.856   6.764
 3305POPC   C3A43385  27.600  12.849   7.064
 3305POPC   C4A43386  27.599  12.842   7.364
 3305POPC   C1B43387  27.322  12.878   6.464
 3305POPC   C2B43388  27.365  12.875   6.764
 3305POPC   C3B43389  27.348  12.888   7.064
 3305POPC   C4B43390  27.332  12.822   7.364
 3306POPC   NC343391  40.789   1.172   5.564
 3306POPC   PO443392  40.760   1.234   5.864
 3306POPC   GL143393  40.773   1.252   6.164
 3306POPC   GL243394  40.727   1.138   6.164
 3306POPC   C1A43395  40.772   1.201   6.464
 3306POPC   D2A43396  40.832   1.200   6.764
 3306POPC   C3A43397  40.744   1.200   7.064
 3306POPC   C4A43398  40.784   1.263   7.364
 3306POPC   C1B43399  40.654   1.024   6.464
 3306POPC   C2B43400  40.657   0.982   6.764
 3306POPC   C3B43401  40.643   0.985   7.064
 3306POPC   C4B43402  40.610   0.981   7.364
 3307POPC   NC343403  38.461  20.591   5.564
 3307POPC   PO443404  38.493  20.595   5.864
 3307POPC   GL143405  38.461  20.584   6.164
 3307POPC   GL243406  38.590  20.535   6.164
 3307POPC   C1A43407  38.503  20.608   6.464
 3307POPC   D2A43408  38.500  20.575   6.764
 3307POPC   C3A43409  38.406  20.568   7.064
 3307POPC   C4A43410  38.504  20.563   7.364
 3307POPC   C1B43411  38.705  20.501   6.464
 3307POPC   C2B43412  38.669  20.595   6.764
 3307POPC   C3B43413  38.717  20.583   7.064
 3307POPC   C4B43414  38.709  20.502   7.364
 3308POPC   NC343415  13.677  14.359   5.564
 3308POPC   PO443416  13.607  14.429   5.864
 3308POPC   GL143417  13.649  14.442   6.164
 3308POPC   GL243418  13.653  14.501   6.164
 3308POPC   C1A43419  13.648  14.366   6.464
 3308POPC   D2A43420  13.604  14.422   6.764
 3308POPC   C3A43421  13.673  14.431   7.064
 3308POPC   C4A43422  13.608  14.428   7.364
 3308POPC   C1B43423  13.656  14.641   6.464
 3308POPC   C2B43424  13.626  14.699   6.764
 3308POPC   C3B43425  13.626  14.689   7.064
 3308POPC   C4B43426  13.658  14.625   7.364
 3309POPC   NC343427   2.721  10.516   5.564
 3309POPC   PO443428   2.783  10.549   5.864
 3309POPC   GL143429   2.744  10.574   6.164
 3309POPC   GL243430   2.723  10.670   6.164
 3309POPC   C1A43431   2.738  10.478   6.464
 3309POPC   D2A43432   2.740  10.536   6.764
 3309POPC   C3A43433   2.799  10.489   7.064
 3309POPC   C4A43434   2.790  10.509   7.364
 3309POPC   C1B43435   2.731  10.789   6.464
 3309POPC   C2B43436   2.767  10.744   6.764
 3309POPC   C3B43437   2.721  10.815   7.064
 3309POPC   C4B43438   2.760  10.792   7.364
 3310POPC   NC343439   1.194  37.719   5.564
 3310POPC   PO443440   1.260  37.651   5.864
 3310POPC   GL143441   1.198  37.726   6.164
 3310POPC   GL243442   1.126  37.762   6.164
 3310POPC   C1A43443   1.191  37.693   6.464
 3310POPC   D2A43444   1.237  37.643   6.764
 3310POPC   C3A43445   1.209  37.633   7.064
 3310POPC   C4A43446   1.206  37.679   7.364
 3310POPC   C1B43447   0.946  37.723   6.464
 3310POPC   C2B43448   0.953  37.793   6.764
 3310POPC   C3B43449   0.943  37.769   7.064
 3310POPC   C4B43450   0.946  37.799   7.364
 3311POPC   NC343451  15.174   9.767   5.564
 3311POPC   PO443452  15.203   9.791   5.864
 3311POPC   GL143453  15.190   9.730   6.164
 3311POPC   GL243454  15.107   9.782   6.164
 3311POPC   C1A43455  15.176   9.794   6.464
 3311POPC   D2A43456  15.194   9.715   6.764
 3311POPC   C3A43457  15.215   9.745   7.064
 3311POPC   C4A43458  15.228   9.794   7.364
 3311POPC   C1B43459  14.920   9.844   6.464
 3311POPC   C2B43460  14.903   9.812   6.764
 3311POPC   C3B43461  14.933   9.871   7.064
 3311POPC   C4B43462  14.922   9.844   7.364
 3312POPC   NC343463  30.707  12.867   5.564
 3312POPC   PO443464  30.683  12.817   5.864
 3312POPC   GL143465  30.669  12.894   6.164
 3312POPC   GL243466  30.567  12.828   6.164
 3312POPC   C1A43467  30.720  12.819   6.464
 3312POPC   D2A43468  30.745  12.814   6.764
 3312POPC   C3A43469  30.722  12.867   7.064
 3312POPC   C4A43470  30.717  12.805   7.364
 3312POPC   C1B43471  30.486  12.724   6.464
 3312POPC   C2B43472  30.493  12.744   6.764
 3312POPC   C3B43473  30.456  12.756   7.064
 3312POPC   C4B43474  30.447  12.723   7.364
 3313POPC   NC343475  41.595  33.847   5.564
 3313POPC   PO443476  41.576  33.754   5.864
 3313POPC   GL143477  41.522  33.772   6.164
 3313POPC   GL243478  41.644  33.719   6.164
 3313POPC   C1A43479  41.573  33.825   6.464
 3313POPC   D2A43480  41.589  33.790   6.764
 3313POPC   C3A43481  41.554  33.790   7.064
 3313POPC   C4A43482  41.546  33.827   7.364
 3313POPC   C1B43483  41.742  33.592   6.464
 3313POPC   C2B43484  41.719  33.579   6.764
 3313POPC   C3B43485  41.668  33.632   7.064
 3313POPC   C4B43486  41.705  33.575   7.364
 3314POPC   NC343487  12.894  26.012   5.564
 3314POPC   PO443488  12.823  26.057   5.864
 3314POPC   GL143489  12.841  26.055   6.164
 3314POPC   GL243490  12.718  26.012   6.164
 3314POPC   C1A43491  12.891  26.015   6.464
 3314POPC   D2A43492  12.890  26.039   6.764
 3314POPC   C3A43493  12.821  26.029   7.064
 3314POPC   C4A43494  12.894  26.044   7.364
 3314POPC   C1B43495  12.655  25.929   6.464
 3314POPC   C2B43496  12.642  25.917   6.764
 3314POPC   C3B43497  12.633  25.912   7.064
 3314POPC   C4B43498  12.642  25.966   7.364
 3315POPC   NC343499  36.170  25.238   5.564
 3315POPC   PO443500  36.174  25.220   5.864
 3315POPC   GL143501  36.097  25.298   6.164
 3315POPC   GL243502  35.996  25.376   6.164
 3315POPC   C1A43503  36.160  25.255   6.464
 3315POPC   D2A43504  36.088  25.290   6.764
 3315POPC   C3A43505  36.110  25.251   7.064
 3315POPC   C4A43506  36.125  25.233   7.364
 3315POPC   C1B43507  35.924  25.431   6.464
 3315POPC   C2B43508  35.885  25.419   6.764
 3315POPC   C3B43509  35.970  25.452   7.064
 3315POPC   C4B43510  35.936  25.441   7.364
 3316POPC   NC343511  28.410  23.749   5.564
 3316POPC   PO443512  28.393  23.751   5.864
 3316POPC   GL143513  28.404  23.679   6.164
 3316POPC   GL243514  28.364  23.626   6.164
 3316POPC   C1A43515  28.389  23.678   6.464
 3316POPC   D2A43516  28.328  23.699   6.764
 3316POPC   C3A43517  28.417  23.740   7.064
 3316POPC   C4A43518  28.412  23.717   7.364
 3316POPC   C1B43519  28.380  23.509   6.464
 3316POPC   C2B43520  28.417  23.479   6.764
 3316POPC   C3B43521  28.414  23.489   7.064
 3316POPC   C4B43522  28.343  23.505   7.364
 3317POPC   NC343523  11.328  24.510   5.564
 3317POPC   PO443524  11.316  24.517   5.864
 3317POPC   GL143525  11.332  24.477   6.164
 3317POPC   GL243526  11.404  24.473   6.164
 3317POPC   C1A43527  11.314  24.462   6.464
 3317POPC   D2A43528  11.292  24.536   6.764
 3317POPC   C3A43529  11.310  24.482   7.064
 3317POPC   C4A43530  11.288  24.470   7.364
 3317POPC   C1B43531  11.571  24.555   6.464
 3317POPC   C2B43532  11.499  24.543   6.764
 3317POPC   C3B43533  11.568  24.532   7.064
 3317POPC   C4B43534  11.596  24.553   7.364
 3318POPC   NC343535   6.679  11.303   5.564
 3318POPC   PO443536   6.601  11.272   5.864
 3318POPC   GL143537   6.614  11.325   6.164
 3318POPC   GL243538   6.618  11.449   6.164
 3318POPC   C1A43539   6.687  11.253   6.464
 3318POPC   D2A43540   6.637  11.254   6.764
 3318POPC   C3A43541   6.623  11.281   7.064
 3318POPC   C4A43542   6.607  11.317   7.364
 3318POPC   C1B43543   6.598  11.553   6.464
 3318POPC   C2B43544   6.569  11.525   6.764
 3318POPC   C3B43545   6.611  11.571   7.064
 3318POPC   C4B43546   6.659  11.591   7.364
 3319POPC   NC343547  31.443  12.825   5.564
 3319POPC   PO443548  31.441  12.836   5.864
 3319POPC   GL143549  31.512  12.846   6.164
 3319POPC   GL243550  31.376  12.912   6.164
 3319POPC   C1A43551  31.454  12.814   6.464
 3319POPC   D2A43552  31.479  12.901   6.764
 3319POPC   C3A43553  31.515  12.837   7.064
 3319POPC   C4A43554  31.521  12.882   7.364
 3319POPC   C1B43555  31.267  12.902   6.464
 3319POPC   C2B43556  31.268  12.878   6.764
 3319POPC   C3B43557  31.222  12.917   7.064
 3319POPC   C4B43558  31.203  12.912   7.364
 3320POPC   NC343559   1.245  33.026   5.564
 3320POPC   PO443560   1.216  33.030   5.864
 3320POPC   GL143561   1.167  32.989   6.164
 3320POPC   GL243562   1.217  33.182   6.164
 3320POPC   C1A43563   1.195  33.040   6.464
 3320POPC   D2A43564   1.206  32.992   6.764
 3320POPC   C3A43565   1.215  33.005   7.064
 3320POPC   C4A43566   1.239  32.990   7.364
 3320POPC   C1B43567   1.259  33.241   6.464
 3320POPC   C2B43568   1.260  33.254   6.764
 3320POPC   C3B43569   1.331  33.226   7.064
 3320POPC   C4B43570   1.301  33.220   7.364
 3321POPC   NC343571  36.894   1.973   5.564
 3321POPC   PO443572  36.924   1.970   5.864
 3321POPC   GL143573  36.856   2.017   6.164
 3321POPC   GL243574  36.813   2.064   6.164
 3321POPC   C1A43575  36.870   2.020   6.464
 3321POPC   D2A43576  36.928   2.018   6.764
 3321POPC   C3A43577  36.939   1.999   7.064
 3321POPC   C4A43578  36.920   1.967   7.364
 3321POPC   C1B43579  36.662   2.170   6.464
 3321POPC   C2B43580  36.666   2.098   6.764
 3321POPC   C3B43581  36.717   2.110   7.064
 3321POPC   C4B43582  36.652   2.104   7.364
 3322POPC   NC343583  44.613  10.491   5.564
 3322POPC   PO443584  44.629  10.507   5.864
 3322POPC   GL143585  44.679  10.543   6.164
 3322POPC   GL243586  44.629  10.635   6.164
 3322POPC   C1A43587  44.673  10.574   6.464
 3322POPC   D2A43588  44.690  10.560   6.764
 3322POPC   C3A43589  44.619  10.554   7.064
 3322POPC   C4A43590  44.657  10.562   7.364
 3322POPC   C1B43591  44.646  10.733   6.464
 3322POPC   C2B43592  44.621  10.823   6.764
 3322POPC   C3B43593  44.684  10.725   7.064
 3322POPC   C4B43594  44.677  10.772   7.364
 3323POPC   NC343595   2.779  11.300   5.564
 3323POPC   PO443596   2.809  11.330   5.864
 3323POPC   GL143597   2.736  11.256   6.164
 3323POPC   GL243598   2.663  11.218   6.164
 3323POPC   C1A43599   2.759  11.259   6.464
 3323POPC   D2A43600   2.791  11.308   6.764
 3323POPC   C3A43601   2.739  11.337   7.064
 3323POPC   C4A43602   2.739  11.338   7.364
 3323POPC   C1B43603   2.597  11.162   6.464
 3323POPC   C2B43604   2.616  11.117   6.764
 3323POPC   C3B43605   2.605  11.141   7.064
 3323POPC   C4B43606   2.618  11.165   7.364
 3324POPC   NC343607  33.825  32.244   5.564
 3324POPC   PO443608  33.843  32.275   5.864
 3324POPC   GL143609  33.836  32.249   6.164
 3324POPC   GL243610  33.729  32.174   6.164
 3324POPC   C1A43611  33.829  32.255   6.464
 3324POPC   D2A43612  33.772  32.272   6.764
 3324POPC   C3A43613  33.778  32.292   7.064
 3324POPC   C4A43614  33.771  32.257   7.364
 3324POPC   C1B43615  33.691  32.064   6.464
 3324POPC   C2B43616  33.648  31.975   6.764
 3324POPC   C3B43617  33.649  32.062   7.064
 3324POPC   C4B43618  33.721  32.064   7.364
 3325POPC   NC343619  23.756  27.616   5.564
 3325POPC   PO443620  23.697  27.593   5.864
 3325POPC   GL143621  23.761  27.581   6.164
 3325POPC   GL243622  23.777  27.669   6.164
 3325POPC   C1A43623  23.740  27.610   6.464
 3325POPC   D2A43624  23.758  27.627   6.764
 3325POPC   C3A43625  23.757  27.599   7.064
 3325POPC   C4A43626  23.742  27.616   7.364
 3325POPC   C1B43627  23.890  27.723   6.464
 3325POPC   C2B43628  23.928  27.763   6.764
 3325POPC   C3B43629  23.931  27.789   7.064
 3325POPC   C4B43630  23.926  27.719   7.364
 3326POPC   NC343631  33.013  29.182   5.564
 3326POPC   PO443632  33.017  29.171   5.864
 3326POPC   GL143633  33.049  29.112   6.164
 3326POPC   GL243634  33.102  29.119   6.164
 3326POPC   C1A43635  33.059  29.110   6.464
 3326POPC   D2A43636  32.975  29.161   6.764
 3326POPC   C3A43637  33.022  29.127   7.064
 3326POPC   C4A43638  32.974  29.162   7.364
 3326POPC   C1B43639  33.232  29.052   6.464
 3326POPC   C2B43640  33.272  29.073   6.764
 3326POPC   C3B43641  33.289  29.081   7.064
 3326POPC   C4B43642  33.288  29.048   7.364
 3327POPC   NC343643   1.262  35.329   5.564
 3327POPC   PO443644   1.197  35.350   5.864
 3327POPC   GL143645   1.214  35.384   6.164
 3327POPC   GL243646   1.254  35.514   6.164
 3327POPC   C1A43647   1.201  35.360   6.464
 3327POPC   D2A43648   1.254  35.311   6.764
 3327POPC   C3A43649   1.183  35.386   7.064
 3327POPC   C4A43650   1.211  35.316   7.364
 3327POPC   C1B43651   1.320  35.600   6.464
 3327POPC   C2B43652   1.274  35.613   6.764
 3327POPC   C3B43653   1.324  35.574   7.064
 3327POPC   C4B43654   1.318  35.542   7.364
 3328POPC   NC343655   6.628  12.049   5.564
 3328POPC   PO443656   6.615  12.049   5.864
 3328POPC   GL143657   6.638  12.069   6.164
 3328POPC   GL243658   6.533  11.997   6.164
 3328POPC   C1A43659   6.608  12.073   6.464
 3328POPC   D2A43660   6.636  12.126   6.764
 3328POPC   C3A43661   6.677  12.052   7.064
 3328POPC   C4A43662   6.609  12.049   7.364
 3328POPC   C1B43663   6.376  12.024   6.464
 3328POPC   C2B43664   6.425  12.004   6.764
 3328POPC   C3B43665   6.447  12.049   7.064
 3328POPC   C4B43666   6.428  11.993   7.364
 3329POPC   NC343667  24.480  29.906   5.564
 3329POPC   PO443668  24.440  29.886   5.864
 3329POPC   GL143669  24.458  29.901   6.164
 3329POPC   GL243670  24.577  29.991   6.164
 3329POPC   C1A43671  24.536  29.949   6.464
 3329POPC   D2A43672  24.468  29.942   6.764
 3329POPC   C3A43673  24.518  29.896   7.064
 3329POPC   C4A43674  24.458  29.925   7.364
 3329POPC   C1B43675  24.614  30.144   6.464
 3329POPC   C2B43676  24.588  30.114   6.764
 3329POPC   C3B43677  24.593  30.103   7.064
 3329POPC   C4B43678  24.629  30.170   7.364
 3330POPC   NC343679  22.192  19.791   5.564
 3330POPC   PO443680  22.147  19.843   5.864
 3330POPC   GL143681  22.166  19.809   6.164
 3330POPC   GL243682  22.126  19.742   6.164
 3330POPC   C1A43683  22.134  19.819   6.464
 3330POPC   D2A43684  22.166  19.881   6.764
 3330POPC   C3A43685  22.161  19.861   7.064
 3330POPC   C4A43686  22.202  19.876   7.364
 3330POPC   C1B43687  21.981  19.661   6.464
 3330POPC   C2B43688  22.035  19.663   6.764
 3330POPC   C3B43689  22.036  19.684   7.064
 3330POPC   C4B43690  21.967  19.621   7.364
 3331POPC   NC343691   5.845  35.331   5.564
 3331POPC   PO443692   5.843  35.376   5.864
 3331POPC   GL143693   5.875  35.362   6.164
 3331POPC   GL243694   5.989  35.399   6.164
 3331POPC   C1A43695   5.904  35.372   6.464
 3331POPC   D2A43696   5.837  35.388   6.764
 3331POPC   C3A43697   5.879  35.387   7.064
 3331POPC   C4A43698   5.821  35.353   7.364
 3331POPC   C1B43699   6.152  35.407   6.464
 3331POPC   C2B43700   6.086  35.425   6.764
 3331POPC   C3B43701   6.140  35.387   7.064
 3331POPC   C4B43702   6.138  35.380   7.364
 3332POPC   NC343703  11.283  41.552   5.564
 3332POPC   PO443704  11.299  41.539   5.864
 3332POPC   GL143705  11.319  41.519   6.164
 3332POPC   GL243706  11.372  41.445   6.164
 3332POPC   C1A43707  11.327  41.541   6.464
 3332POPC   D2A43708  11.292  41.568   6.764
 3332POPC   C3A43709  11.278  41.565   7.064
 3332POPC   C4A43710  11.291  41.528   7.364
 3332POPC   C1B43711  11.533  41.387   6.464
 3332POPC   C2B43712  11.485  41.385   6.764
 3332POPC   C3B43713  11.494  41.409   7.064
 3332POPC   C4B43714  11.501  41.380   7.364
 3333POPC   NC343715   0.439  19.009   5.564
 3333POPC   PO443716   0.409  19.071   5.864
 3333POPC   GL143717   0.395  19.037   6.164
 3333POPC   GL243718   0.411  19.197   6.164
 3333POPC   C1A43719   0.426  19.078   6.464
 3333POPC   D2A43720   0.427  19.022   6.764
 3333POPC   C3A43721   0.434  19.079   7.064
 3333POPC   C4A43722   0.461  19.023   7.364
 3333POPC   C1B43723   0.389  19.270   6.464
 3333POPC   C2B43724   0.354  19.293   6.764
 3333POPC   C3B43725   0.389  19.341   7.064
 3333POPC   C4B43726   0.344  19.313   7.364
 3334POPC   NC343727  36.884  15.206   5.564
 3334POPC   PO443728  36.908  15.185   5.864
 3334POPC   GL143729  36.935  15.176   6.164
 3334POPC   GL243730  36.771  15.264   6.164
 3334POPC   C1A43731  36.879  15.183   6.464
 3334POPC   D2A43732  36.899  15.224   6.764
 3334POPC   C3A43733  36.884  15.205   7.064
 3334POPC   C4A43734  36.902  15.218   7.364
 3334POPC   C1B43735  36.642  15.314   6.464
 3334POPC   C2B43736  36.653  15.295   6.764
 3334POPC   C3B43737  36.725  15.263   7.064
 3334POPC   C4B43738  36.694  15.292   7.364
 3335POPC   NC343739  23.688   1.235   5.564
 3335POPC   PO443740  23.751   1.184   5.864
 3335POPC   GL143741  23.745   1.165   6.164
 3335POPC   GL243742  23.842   1.227   6.164
 3335POPC   C1A43743  23.719   1.213   6.464
 3335POPC   D2A43744  23.711   1.166   6.764
 3335POPC   C3A43745  23.697   1.165   7.064
 3335POPC   C4A43746  23.762   1.258   7.364
 3335POPC   C1B43747  23.987   1.223   6.464
 3335POPC   C2B43748  23.988   1.200   6.764
 3335POPC   C3B43749  24.005   1.162   7.064
 3335POPC   C4B43750  23.989   1.184   7.364
 3336POPC   NC343751  33.035  12.046   5.564
 3336POPC   PO443752  33.035  12.086   5.864
 3336POPC   GL143753  33.068  12.088   6.164
 3336POPC   GL243754  33.036  11.940   6.164
 3336POPC   C1A43755  32.982  12.103   6.464
 3336POPC   D2A43756  33.033  12.123   6.764
 3336POPC   C3A43757  33.025  12.100   7.064
 3336POPC   C4A43758  33.027  12.062   7.364
 3336POPC   C1B43759  33.096  11.827   6.464
 3336POPC   C2B43760  33.133  11.867   6.764
 3336POPC   C3B43761  33.082  11.811   7.064
 3336POPC   C4B43762  33.076  11.873   7.364
 3337POPC   NC343763  14.448  32.287   5.564
 3337POPC   PO443764  14.403  32.251   5.864
 3337POPC   GL143765  14.440  32.279   6.164
 3337POPC   GL243766  14.491  32.325   6.164
 3337POPC   C1A43767  14.452  32.282   6.464
 3337POPC   D2A43768  14.375  32.266   6.764
 3337POPC   C3A43769  14.423  32.282   7.064
 3337POPC   C4A43770  14.394  32.235   7.364
 3337POPC   C1B43771  14.515  32.471   6.464
 3337POPC   C2B43772  14.519  32.492   6.764
 3337POPC   C3B43773  14.532  32.414   7.064
 3337POPC   C4B43774  14.543  32.441   7.364
 3338POPC   NC343775   3.516   2.740   5.564
 3338POPC   PO443776   3.588   2.789   5.864
 3338POPC   GL143777   3.507   2.743   6.164
 3338POPC   GL243778   3.665   2.728   6.164
 3338POPC   C1A43779   3.581   2.719   6.464
 3338POPC   D2A43780   3.536   2.790   6.764
 3338POPC   C3A43781   3.585   2.765   7.064
 3338POPC   C4A43782   3.505   2.793   7.364
 3338POPC   C1B43783   3.727   2.676   6.464
 3338POPC   C2B43784   3.786   2.702   6.764
 3338POPC   C3B43785   3.792   2.669   7.064
 3338POPC   C4B43786   3.764   2.611   7.364
 3339POPC   NC343787   0.484   1.191   5.564
 3339POPC   PO443788   0.447   1.245   5.864
 3339POPC   GL143789   0.423   1.216   6.164
 3339POPC   GL243790   0.365   1.121   6.164
 3339POPC   C1A43791   0.462   1.258   6.464
 3339POPC   D2A43792   0.477   1.195   6.764
 3339POPC   C3A43793   0.402   1.239   7.064
 3339POPC   C4A43794   0.476   1.235   7.364
 3339POPC   C1B43795   0.345   0.940   6.464
 3339POPC   C2B43796   0.364   0.929   6.764
 3339POPC   C3B43797   0.395   1.001   7.064
 3339POPC   C4B43798   0.348   0.986   7.364
 3340POPC   NC343799  23.713  43.903   5.564
 3340POPC   PO443800  23.696  43.884   5.864
 3340POPC   GL143801  23.746  43.877   6.164
 3340POPC   GL243802  23.741  43.737   6.164
 3340POPC   C1A43803  23.667  43.861   6.464
 3340POPC   D2A43804  23.729  43.904   6.764
 3340POPC   C3A43805  23.702  43.852   7.064
 3340POPC   C4A43806  23.762  43.919   7.364
 3340POPC   C1B43807  23.723  43.639   6.464
 3340POPC   C2B43808  23.765  43.630   6.764
 3340POPC   C3B43809  23.778  43.657   7.064
 3340POPC   C4B43810  23.773  43.644   7.364
 3341POPC   NC343811  30.673   8.989   5.564
 3341POPC   PO443812  30.732   9.022   5.864
 3341POPC   GL143813  30.673   8.991   6.164
 3341POPC   GL243814  30.742   8.878   6.164
 3341POPC   C1A43815  30.742   8.934   6.464
 3341POPC   D2A43816  30.700   8.991   6.764
 3341POPC   C3A43817  30.683   8.970   7.064
 3341POPC   C4A43818  30.666   9.001   7.364
 3341POPC   C1B43819  30.845   8.749   6.464
 3341POPC   C2B43820  30.864   8.789   6.764
 3341POPC   C3B43821  30.888   8.775   7.064
 3341POPC   C4B43822  30.848   8.782   7.364
 3342POPC   NC343823  33.017  43.861   5.564
 3342POPC   PO443824  33.028  43.925   5.864
 3342POPC   GL143825  33.001  43.929   6.164
 3342POPC   GL243826  32.954  43.916   6.164
 3342POPC   C1A43827  33.066  43.869   6.464
 3342POPC   D2A43828  33.057  43.926   6.764
 3342POPC   C3A43829  32.993  43.856   7.064
 3342POPC   C4A43830  33.072  43.868   7.364
 3342POPC   C1B43831  32.828  43.988   6.464
 3342POPC   C2B43832  32.801  44.021   6.764
 3342POPC   C3B43833  32.751  44.022   7.064
 3342POPC   C4B43834  32.818  44.034   7.364
 3343POPC   NC343835  43.080  41.553   5.564
 3343POPC   PO443836  43.149  41.567   5.864
 3343POPC   GL143837  43.132  41.529   6.164
 3343POPC   GL243838  42.941  41.574   6.164
 3343POPC   C1A43839  43.077  41.521   6.464
 3343POPC   D2A43840  43.071  41.566   6.764
 3343POPC   C3A43841  43.117  41.554   7.064
 3343POPC   C4A43842  43.091  41.565   7.364
 3343POPC   C1B43843  42.824  41.558   6.464
 3343POPC   C2B43844  42.874  41.577   6.764
 3343POPC   C3B43845  42.819  41.595   7.064
 3343POPC   C4B43846  42.813  41.580   7.364
 3344POPC   NC343847  26.787  27.560   5.564
 3344POPC   PO443848  26.818  27.617   5.864
 3344POPC   GL143849  26.778  27.567   6.164
 3344POPC   GL243850  26.784  27.724   6.164
 3344POPC   C1A43851  26.826  27.621   6.464
 3344POPC   D2A43852  26.852  27.549   6.764
 3344POPC   C3A43853  26.845  27.558   7.064
 3344POPC   C4A43854  26.770  27.591   7.364
 3344POPC   C1B43855  26.663  27.808   6.464
 3344POPC   C2B43856  26.659  27.849   6.764
 3344POPC   C3B43857  26.686  27.783   7.064
 3344POPC   C4B43858  26.724  27.767   7.364
 3345POPC   NC343859  43.915  34.578   5.564
 3345POPC   PO443860  43.847  34.606   5.864
 3345POPC   GL143861  43.859  34.604   6.164
 3345POPC   GL243862  43.786  34.555   6.164
 3345POPC   C1A43863  43.895  34.597   6.464
 3345POPC   D2A43864  43.915  34.570   6.764
 3345POPC   C3A43865  43.855  34.580   7.064
 3345POPC   C4A43866  43.854  34.609   7.364
 3345POPC   C1B43867  43.636  34.497   6.464
 3345POPC   C2B43868  43.628  34.451   6.764
 3345POPC   C3B43869  43.695  34.497   7.064
 3345POPC   C4B43870  43.715  34.445   7.364
 3346POPC   NC343871  17.493  27.584   5.564
 3346POPC   PO443872  17.491  27.577   5.864
 3346POPC   GL143873  17.524  27.544   6.164
 3346POPC   GL243874  17.575  27.494   6.164
 3346POPC   C1A43875  17.537  27.626   6.464
 3346POPC   D2A43876  17.550  27.580   6.764
 3346POPC   C3A43877  17.555  27.633   7.064
 3346POPC   C4A43878  17.484  27.616   7.364
 3346POPC   C1B43879  17.595  27.322   6.464
 3346POPC   C2B43880  17.602  27.365   6.764
 3346POPC   C3B43881  17.535  27.330   7.064
 3346POPC   C4B43882  17.536  27.379   7.364
 3347POPC   NC343883  30.669  17.465   5.564
 3347POPC   PO443884  30.717  17.535   5.864
 3347POPC   GL143885  30.663  17.529   6.164
 3347POPC   GL243886  30.677  17.601   6.164
 3347POPC   C1A43887  30.701  17.535   6.464
 3347POPC   D2A43888  30.648  17.515   6.764
 3347POPC   C3A43889  30.667  17.485   7.064
 3347POPC   C4A43890  30.740  17.460   7.364
 3347POPC   C1B43891  30.554  17.714   6.464
 3347POPC   C2B43892  30.541  17.773   6.764
 3347POPC   C3B43893  30.622  17.712   7.064
 3347POPC   C4B43894  30.558  17.769   7.364
 3348POPC   NC343895   3.550  20.595   5.564
 3348POPC   PO443896   3.526  20.641   5.864
 3348POPC   GL143897   3.557  20.561   6.164
 3348POPC   GL243898   3.454  20.727   6.164
 3348POPC   C1A43899   3.494  20.589   6.464
 3348POPC   D2A43900   3.560  20.613   6.764
 3348POPC   C3A43901   3.591  20.616   7.064
 3348POPC   C4A43902   3.504  20.638   7.364
 3348POPC   C1B43903   3.444  20.848   6.464
 3348POPC   C2B43904   3.457  20.806   6.764
 3348POPC   C3B43905   3.461  20.857   7.064
 3348POPC   C4B43906   3.450  20.886   7.364
 3349POPC   NC343907  14.438  27.577   5.564
 3349POPC   PO443908  14.369  27.569   5.864
 3349POPC   GL143909  14.430  27.584   6.164
 3349POPC   GL243910  14.259  27.580   6.164
 3349POPC   C1A43911  14.433  27.620   6.464
 3349POPC   D2A43912  14.414  27.625   6.764
 3349POPC   C3A43913  14.414  27.583   7.064
 3349POPC   C4A43914  14.436  27.637   7.364
 3349POPC   C1B43915  14.188  27.625   6.464
 3349POPC   C2B43916  14.141  27.615   6.764
 3349POPC   C3B43917  14.141  27.570   7.064
 3349POPC   C4B43918  14.188  27.571   7.364
 3350POPC   NC343919   4.317  14.394   5.564
 3350POPC   PO443920   4.363  14.448   5.864
 3350POPC   GL143921   4.325  14.422   6.164
 3350POPC   GL243922   4.344  14.296   6.164
 3350POPC   C1A43923   4.287  14.368   6.464
 3350POPC   D2A43924   4.328  14.354   6.764
 3350POPC   C3A43925   4.299  14.447   7.064
 3350POPC   C4A43926   4.329  14.440   7.364
 3350POPC   C1B43927   4.479  14.153   6.464
 3350POPC   C2B43928   4.464  14.224   6.764
 3350POPC   C3B43929   4.484  14.161   7.064
 3350POPC   C4B43930   4.411  14.247   7.364
 3351POPC   NC343931   1.967  32.294   5.564
 3351POPC   PO443932   1.986  32.280   5.864
 3351POPC   GL143933   1.972  32.218   6.164
 3351POPC   GL243934   2.076  32.160   6.164
 3351POPC   C1A43935   2.006  32.261   6.464
 3351POPC   D2A43936   1.994  32.269   6.764
 3351POPC   C3A43937   1.957  32.219   7.064
 3351POPC   C4A43938   1.961  32.244   7.364
 3351POPC   C1B43939   2.177  32.121   6.464
 3351POPC   C2B43940   2.200  32.143   6.764
 3351POPC   C3B43941   2.228  32.194   7.064
 3351POPC   C4B43942   2.211  32.162   7.364
 3352POPC   NC343943  19.873   1.238   5.564
 3352POPC   PO443944  19.817   1.241   5.864
 3352POPC   GL143945  19.796   1.232   6.164
 3352POPC   GL243946  19.714   1.211   6.164
 3352POPC   C1A43947  19.857   1.167   6.464
 3352POPC   D2A43948  19.831   1.247   6.764
 3352POPC   C3A43949  19.853   1.171   7.064
 3352POPC   C4A43950  19.815   1.182   7.364
 3352POPC   C1B43951  19.558   1.140   6.464
 3352POPC   C2B43952  19.561   1.216   6.764
 3352POPC   C3B43953  19.551   1.200   7.064
 3352POPC   C4B43954  19.561   1.196   7.364
 3353POPC   NC343955  40.051  16.746   5.564
 3353POPC   PO443956  39.966  16.705   5.864
 3353POPC   GL143957  39.969  16.750   6.164
 3353POPC   GL243958  40.125  16.712   6.164
 3353POPC   C1A43959  39.980  16.700   6.464
 3353POPC   D2A43960  39.992  16.772   6.764
 3353POPC   C3A43961  40.056  16.775   7.064
 3353POPC   C4A43962  39.985  16.704   7.364
 3353POPC   C1B43963  40.248  16.725   6.464
 3353POPC   C2B43964  40.224  16.640   6.764
 3353POPC   C3B43965  40.230  16.663   7.064
 3353POPC   C4B43966  40.299  16.731   7.364
 3354POPC   NC343967  12.848  34.584   5.564
 3354POPC   PO443968  12.852  34.596   5.864
 3354POPC   GL143969  12.824  34.593   6.164
 3354POPC   GL243970  12.843  34.488   6.164
 3354POPC   C1A43971  12.887  34.614   6.464
 3354POPC   D2A43972  12.810  34.622   6.764
 3354POPC   C3A43973  12.900  34.543   7.064
 3354POPC   C4A43974  12.803  34.587   7.364
 3354POPC   C1B43975  12.864  34.358   6.464
 3354POPC   C2B43976  12.838  34.374   6.764
 3354POPC   C3B43977  12.829  34.311   7.064
 3354POPC   C4B43978  12.795  34.324   7.364
 3355POPC   NC343979   1.195  38.496   5.564
 3355POPC   PO443980   1.227  38.426   5.864
 3355POPC   GL143981   1.234  38.481   6.164
 3355POPC   GL243982   1.323  38.538   6.164
 3355POPC   C1A43983   1.255  38.413   6.464
 3355POPC   D2A43984   1.234  38.492   6.764
 3355POPC   C3A43985   1.203  38.460   7.064
 3355POPC   C4A43986   1.193  38.462   7.364
 3355POPC   C1B43987   1.328  38.652   6.464
 3355POPC   C2B43988   1.379  38.671   6.764
 3355POPC   C3B43989   1.320  38.686   7.064
 3355POPC   C4B43990   1.318  38.638   7.364
 3356POPC   NC343991  33.783  29.187   5.564
 3356POPC   PO443992  33.817  29.179   5.864
 3356POPC   GL143993  33.823  29.167   6.164
 3356POPC   GL243994  33.872  29.016   6.164
 3356POPC   C1A43995  33.839  29.165   6.464
 3356POPC   D2A43996  33.764  29.161   6.764
 3356POPC   C3A43997  33.762  29.096   7.064
 3356POPC   C4A43998  33.802  29.188   7.364
 3356POPC   C1B43999  33.898  28.967   6.464
 3356POPC   C2B44000  33.896  28.969   6.764
 3356POPC   C3B44001  33.977  28.900   7.064
 3356POPC   C4B44002  33.899  28.971   7.364
 3357POPC   NC344003  44.699   9.787   5.564
 3357POPC   PO444004  44.618   9.745   5.864
 3357POPC   GL144005  44.626   9.708   6.164
 3357POPC   GL244006  44.769   9.818   6.164
 3357POPC   C1A44007  44.694   9.771   6.464
 3357POPC   D2A44008  44.645   9.792   6.764
 3357POPC   C3A44009  44.645   9.792   7.064
 3357POPC   C4A44010  44.650   9.772   7.364
 3357POPC   C1B44011  44.878   9.890   6.464
 3357POPC   C2B44012  44.837   9.898   6.764
 3357POPC   C3B44013  44.849   9.870   7.064
 3357POPC   C4B44014  44.825   9.929   7.364
 3358POPC   NC344015   8.950   5.854   5.564
 3358POPC   PO444016   9.005   5.916   5.864
 3358POPC   GL144017   8.993   5.855   6.164
 3358POPC   GL244018   9.097   5.919   6.164
 3358POPC   C1A44019   8.953   5.874   6.464
 3358POPC   D2A44020   8.952   5.892   6.764
 3358POPC   C3A44021   8.962   5.887   7.064
 3358POPC   C4A44022   9.019   5.829   7.364
 3358POPC   C1B44023   9.122   6.066   6.464
 3358POPC   C2B44024   9.173   6.017   6.764
 3358POPC   C3B44025   9.208   6.007   7.064
 3358POPC   C4B44026   9.209   6.023   7.364
 3359POPC   NC344027  32.210  14.447   5.564
 3359POPC   PO444028  32.248  14.448   5.864
 3359POPC   GL144029  32.285  14.409   6.164
 3359POPC   GL244030  32.316  14.269   6.164
 3359POPC   C1A44031  32.254  14.366   6.464
 3359POPC   D2A44032  32.234  14.398   6.764
 3359POPC   C3A44033  32.243  14.436   7.064
 3359POPC   C4A44034  32.228  14.443   7.364
 3359POPC   C1B44035  32.389  14.252   6.464
 3359POPC   C2B44036  32.374  14.184   6.764
 3359POPC   C3B44037  32.365  14.257   7.064
 3359POPC   C4B44038  32.396  14.232   7.364
 3360POPC   NC344039  25.261  10.556   5.564
 3360POPC   PO444040  25.224  10.498   5.864
 3360POPC   GL144041  25.245  10.480   6.164
 3360POPC   GL244042  25.235  10.669   6.164
 3360POPC   C1A44043  25.290  10.484   6.464
 3360POPC   D2A44044  25.264  10.534   6.764
 3360POPC   C3A44045  25.239  10.536   7.064
 3360POPC   C4A44046  25.315  10.551   7.364
 3360POPC   C1B44047  25.069  10.693   6.464
 3360POPC   C2B44048  25.124  10.733   6.764
 3360POPC   C3B44049  25.155  10.680   7.064
 3360POPC   C4B44050  25.102  10.675   7.364
 3361POPC   NC344051   6.664  29.169   5.564
 3361POPC   PO444052   6.601  29.103   5.864
 3361POPC   GL144053   6.604  29.117   6.164
 3361POPC   GL244054   6.564  29.225   6.164
 3361POPC   C1A44055   6.628  29.193   6.464
 3361POPC   D2A44056   6.683  29.194   6.764
 3361POPC   C3A44057   6.597  29.183   7.064
 3361POPC   C4A44058   6.681  29.173   7.364
 3361POPC   C1B44059   6.537  29.337   6.464
 3361POPC   C2B44060   6.527  29.356   6.764
 3361POPC   C3B44061   6.601  29.342   7.064
 3361POPC   C4B44062   6.537  29.367   7.364
 3362POPC   NC344063  35.370  40.040   5.564
 3362POPC   PO444064  35.360  40.005   5.864
 3362POPC   GL144065  35.340  39.961   6.164
 3362POPC   GL244066  35.315  40.166   6.164
 3362POPC   C1A44067  35.375  40.005   6.464
 3362POPC   D2A44068  35.317  40.041   6.764
 3362POPC   C3A44069  35.360  40.027   7.064
 3362POPC   C4A44070  35.306  40.030   7.364
 3362POPC   C1B44071  35.307  40.201   6.464
 3362POPC   C2B44072  35.236  40.211   6.764
 3362POPC   C3B44073  35.320  40.289   7.064
 3362POPC   C4B44074  35.305  40.197   7.364
 3363POPC   NC344075  17.555  43.845   5.564
 3363POPC   PO444076  17.469  43.842   5.864
 3363POPC   GL144077  17.554  43.858   6.164
 3363POPC   GL244078  17.639  43.854   6.164
 3363POPC   C1A44079  17.480  43.883   6.464
 3363POPC   D2A44080  17.487  43.840   6.764
 3363POPC   C3A44081  17.500  43.838   7.064
 3363POPC   C4A44082  17.550  43.888   7.364
 3363POPC   C1B44083  17.743  43.781   6.464
 3363POPC   C2B44084  17.767  43.758   6.764
 3363POPC   C3B44085  17.732  43.803   7.064
 3363POPC   C4B44086  17.756  43.814   7.364
 3364POPC   NC344087   0.446  12.880   5.564
 3364POPC   PO444088   0.418  12.852   5.864
 3364POPC   GL144089   0.411  12.829   6.164
 3364POPC   GL244090   0.584  12.809   6.164
 3364POPC   C1A44091   0.394  12.827   6.464
 3364POPC   D2A44092   0.453  12.901   6.764
 3364POPC   C3A44093   0.464  12.821   7.064
 3364POPC   C4A44094   0.422  12.883   7.364
 3364POPC   C1B44095   0.681  12.737   6.464
 3364POPC   C2B44096   0.704  12.795   6.764
 3364POPC   C3B44097   0.648  12.774   7.064
 3364POPC   C4B44098   0.630  12.817   7.364
 3365POPC   NC344099  28.410  18.302   5.564
 3365POPC   PO444100  28.371  18.310   5.864
 3365POPC   GL144101  28.415  18.285   6.164
 3365POPC   GL244102  28.302  18.223   6.164
 3365POPC   C1A44103  28.381  18.257   6.464
 3365POPC   D2A44104  28.327  18.262   6.764
 3365POPC   C3A44105  28.363  18.283   7.064
 3365POPC   C4A44106  28.402  18.235   7.364
 3365POPC   C1B44107  28.200  18.104   6.464
 3365POPC   C2B44108  28.227  18.144   6.764
 3365POPC   C3B44109  28.195  18.070   7.064
 3365POPC   C4B44110  28.199  18.097   7.364
 3366POPC   NC344111   9.782   8.938   5.564
 3366POPC   PO444112   9.768   8.928   5.864
 3366POPC   GL144113   9.770   8.993   6.164
 3366POPC   GL244114   9.827   9.117   6.164
 3366POPC   C1A44115   9.728   8.959   6.464
 3366POPC   D2A44116   9.730   8.988   6.764
 3366POPC   C3A44117   9.774   8.956   7.064
 3366POPC   C4A44118   9.773   8.965   7.364
 3366POPC   C1B44119   9.832   9.175   6.464
 3366POPC   C2B44120   9.853   9.244   6.764
 3366POPC   C3B44121   9.832   9.223   7.064
 3366POPC   C4B44122   9.828   9.241   7.364
 3367POPC   NC344123  31.435  32.214   5.564
 3367POPC   PO444124  31.450  32.285   5.864
 3367POPC   GL144125  31.481  32.281   6.164
 3367POPC   GL244126  31.543  32.346   6.164
 3367POPC   C1A44127  31.426  32.278   6.464
 3367POPC   D2A44128  31.489  32.226   6.764
 3367POPC   C3A44129  31.459  32.201   7.064
 3367POPC   C4A44130  31.459  32.220   7.364
 3367POPC   C1B44131  31.474  32.452   6.464
 3367POPC   C2B44132  31.501  32.484   6.764
 3367POPC   C3B44133  31.478  32.485   7.064
 3367POPC   C4B44134  31.519  32.496   7.364
 3368POPC   NC344135  21.404   9.784   5.564
 3368POPC   PO444136  21.380   9.722   5.864
 3368POPC   GL144137  21.425   9.749   6.164
 3368POPC   GL244138  21.296   9.761   6.164
 3368POPC   C1A44139  21.427   9.720   6.464
 3368POPC   D2A44140  21.394   9.734   6.764
 3368POPC   C3A44141  21.403   9.727   7.064
 3368POPC   C4A44142  21.337   9.741   7.364
 3368POPC   C1B44143  21.106   9.812   6.464
 3368POPC   C2B44144  21.126   9.872   6.764
 3368POPC   C3B44145  21.126   9.874   7.064
 3368POPC   C4B44146  21.201   9.878   7.364
 3369POPC   NC344147  26.053   9.722   5.564
 3369POPC   PO444148  26.027   9.781   5.864
 3369POPC   GL144149  26.040   9.713   6.164
 3369POPC   GL244150  25.920   9.765   6.164
 3369POPC   C1A44151  26.025   9.717   6.464
 3369POPC   D2A44152  26.038   9.780   6.764
 3369POPC   C3A44153  26.018   9.752   7.064
 3369POPC   C4A44154  26.041   9.761   7.364
 3369POPC   C1B44155  25.826   9.704   6.464
 3369POPC   C2B44156  25.780   9.714   6.764
 3369POPC   C3B44157  25.787   9.735   7.064
 3369POPC   C4B44158  25.829   9.771   7.364
 3370POPC   NC344159  14.398  33.783   5.564
 3370POPC   PO444160  14.426  33.772   5.864
 3370POPC   GL144161  14.374  33.804   6.164
 3370POPC   GL244162  14.261  33.744   6.164
 3370POPC   C1A44163  14.372  33.838   6.464
 3370POPC   D2A44164  14.384  33.833   6.764
 3370POPC   C3A44165  14.383  33.764   7.064
 3370POPC   C4A44166  14.449  33.756   7.364
 3370POPC   C1B44167  14.161  33.785   6.464
 3370POPC   C2B44168  14.203  33.789   6.764
 3370POPC   C3B44169  14.198  33.825   7.064
 3370POPC   C4B44170  14.140  33.805   7.364
 3371POPC   NC344171  42.302  14.391   5.564
 3371POPC   PO444172  42.318  14.406   5.864
 3371POPC   GL144173  42.379  14.439   6.164
 3371POPC   GL244174  42.463  14.528   6.164
 3371POPC   C1A44175  42.374  14.397   6.464
 3371POPC   D2A44176  42.289  14.409   6.764
 3371POPC   C3A44177  42.307  14.387   7.064
 3371POPC   C4A44178  42.336  14.404   7.364
 3371POPC   C1B44179  42.475  14.567   6.464
 3371POPC   C2B44180  42.514  14.577   6.764
 3371POPC   C3B44181  42.499  14.593   7.064
 3371POPC   C4B44182  42.495  14.533   7.364
 3372POPC   NC344183   8.200  12.108   5.564
 3372POPC   PO444184   8.175  12.108   5.864
 3372POPC   GL144185   8.155  12.114   6.164
 3372POPC   GL244186   8.202  12.214   6.164
 3372POPC   C1A44187   8.179  12.102   6.464
 3372POPC   D2A44188   8.221  12.113   6.764
 3372POPC   C3A44189   8.232  12.119   7.064
 3372POPC   C4A44190   8.229  12.029   7.364
 3372POPC   C1B44191   8.077  12.335   6.464
 3372POPC   C2B44192   8.147  12.300   6.764
 3372POPC   C3B44193   8.126  12.310   7.064
 3372POPC   C4B44194   8.137  12.299   7.364
 3373POPC   NC344195  38.439  33.761   5.564
 3373POPC   PO444196  38.444  33.788   5.864
 3373POPC   GL144197  38.483  33.836   6.164
 3373POPC   GL244198  38.537  33.857   6.164
 3373POPC   C1A44199  38.417  33.828   6.464
 3373POPC   D2A44200  38.424  33.845   6.764
 3373POPC   C3A44201  38.412  33.788   7.064
 3373POPC   C4A44202  38.454  33.780   7.364
 3373POPC   C1B44203  38.595  33.968   6.464
 3373POPC   C2B44204  38.621  33.981   6.764
 3373POPC   C3B44205  38.632  33.981   7.064
 3373POPC   C4B44206  38.654  33.993   7.364
 3374POPC   NC344207  43.897  10.495   5.564
 3374POPC   PO444208  43.860  10.482   5.864
 3374POPC   GL144209  43.858  10.535   6.164
 3374POPC   GL244210  43.974  10.450   6.164
 3374POPC   C1A44211  43.864  10.487   6.464
 3374POPC   D2A44212  43.874  10.546   6.764
 3374POPC   C3A44213  43.914  10.503   7.064
 3374POPC   C4A44214  43.866  10.574   7.364
 3374POPC   C1B44215  44.010  10.282   6.464
 3374POPC   C2B44216  44.016  10.303   6.764
 3374POPC   C3B44217  44.061  10.317   7.064
 3374POPC   C4B44218  44.045  10.352   7.364
 3375POPC   NC344219  41.509  10.491   5.564
 3375POPC   PO444220  41.565  10.475   5.864
 3375POPC   GL144221  41.608  10.484   6.164
 3375POPC   GL244222  41.443  10.523   6.164
 3375POPC   C1A44223  41.588  10.543   6.464
 3375POPC   D2A44224  41.536  10.516   6.764
 3375POPC   C3A44225  41.603  10.527   7.064
 3375POPC   C4A44226  41.557  10.504   7.364
 3375POPC   C1B44227  41.293  10.408   6.464
 3375POPC   C2B44228  41.311  10.425   6.764
 3375POPC   C3B44229  41.281  10.411   7.064
 3375POPC   C4B44230  41.276  10.412   7.364
 3376POPC   NC344231  20.565  22.943   5.564
 3376POPC   PO444232  20.620  22.981   5.864
 3376POPC   GL144233  20.645  22.952   6.164
 3376POPC   GL244234  20.545  23.006   6.164
 3376POPC   C1A44235  20.584  22.973   6.464
 3376POPC   D2A44236  20.627  22.893   6.764
 3376POPC   C3A44237  20.564  22.943   7.064
 3376POPC   C4A44238  20.582  22.937   7.364
 3376POPC   C1B44239  20.480  23.190   6.464
 3376POPC   C2B44240  20.523  23.148   6.764
 3376POPC   C3B44241  20.556  23.170   7.064
 3376POPC   C4B44242  20.479  23.170   7.364
 3377POPC   NC344243  19.871  32.273   5.564
 3377POPC   PO444244  19.792  32.223   5.864
 3377POPC   GL144245  19.800  32.259   6.164
 3377POPC   GL244246  19.665  32.267   6.164
 3377POPC   C1A44247  19.861  32.263   6.464
 3377POPC   D2A44248  19.882  32.285   6.764
 3377POPC   C3A44249  19.864  32.250   7.064
 3377POPC   C4A44250  19.787  32.290   7.364
 3377POPC   C1B44251  19.573  32.260   6.464
 3377POPC   C2B44252  19.549  32.280   6.764
 3377POPC   C3B44253  19.630  32.270   7.064
 3377POPC   C4B44254  19.548  32.300   7.364
 3378POPC   NC344255  29.156   4.296   5.564
 3378POPC   PO444256  29.185   4.315   5.864
 3378POPC   GL144257  29.105   4.270   6.164
 3378POPC   GL244258  29.201   4.413   6.164
 3378POPC   C1A44259  29.173   4.313   6.464
 3378POPC   D2A44260  29.176   4.351   6.764
 3378POPC   C3A44261  29.123   4.274   7.064
 3378POPC   C4A44262  29.113   4.330   7.364
 3378POPC   C1B44263  29.138   4.534   6.464
 3378POPC   C2B44264  29.174   4.552   6.764
 3378POPC   C3B44265  29.197   4.552   7.064
 3378POPC   C4B44266  29.146   4.603   7.364
 3379POPC   NC344267   1.948  27.607   5.564
 3379POPC   PO444268   1.955  27.608   5.864
 3379POPC   GL144269   1.997  27.589   6.164
 3379POPC   GL244270   2.044  27.654   6.164
 3379POPC   C1A44271   1.983  27.544   6.464
 3379POPC   D2A44272   1.983  27.629   6.764
 3379POPC   C3A44273   2.016  27.588   7.064
 3379POPC   C4A44274   1.950  27.559   7.364
 3379POPC   C1B44275   2.148  27.758   6.464
 3379POPC   C2B44276   2.131  27.778   6.764
 3379POPC   C3B44277   2.187  27.738   7.064
 3379POPC   C4B44278   2.202  27.764   7.364
 3380POPC   NC344279  35.350  15.204   5.564
 3380POPC   PO444280  35.318  15.211   5.864
 3380POPC   GL144281  35.331  15.156   6.164
 3380POPC   GL244282  35.250  15.280   6.164
 3380POPC   C1A44283  35.306  15.200   6.464
 3380POPC   D2A44284  35.304  15.165   6.764
 3380POPC   C3A44285  35.394  15.177   7.064
 3380POPC   C4A44286  35.390  15.213   7.364
 3380POPC   C1B44287  35.151  15.334   6.464
 3380POPC   C2B44288  35.107  15.372   6.764
 3380POPC   C3B44289  35.114  15.304   7.064
 3380POPC   C4B44290  35.141  15.352   7.364
 3381POPC   NC344291  16.751  21.417   5.564
 3381POPC   PO444292  16.707  21.412   5.864
 3381POPC   GL144293  16.690  21.413   6.164
 3381POPC   GL244294  16.811  21.330   6.164
 3381POPC   C1A44295  16.764  21.402   6.464
 3381POPC   D2A44296  16.709  21.435   6.764
 3381POPC   C3A44297  16.722  21.355   7.064
 3381POPC   C4A44298  16.682  21.423   7.364
 3381POPC   C1B44299  16.948  21.193   6.464
 3381POPC   C2B44300  16.955  21.171   6.764
 3381POPC   C3B44301  16.926  21.233   7.064
 3381POPC   C4B44302  16.884  21.197   7.364
 3382POPC   NC344303  40.749  13.617   5.564
 3382POPC   PO444304  40.745  13.578   5.864
 3382POPC   GL144305  40.817  13.592   6.164
 3382POPC   GL244306  40.706  13.564   6.164
 3382POPC   C1A44307  40.807  13.642   6.464
 3382POPC   D2A44308  40.816  13.659   6.764
 3382POPC   C3A44309  40.806  13.636   7.064
 3382POPC   C4A44310  40.779  13.621   7.364
 3382POPC   C1B44311  40.560  13.493   6.464
 3382POPC   C2B44312  40.521  13.508   6.764
 3382POPC   C3B44313  40.538  13.497   7.064
 3382POPC   C4B44314  40.571  13.559   7.364
 3383POPC   NC344315  37.664  25.279   5.564
 3383POPC   PO444316  37.700  25.279   5.864
 3383POPC   GL144317  37.723  25.254   6.164
 3383POPC   GL244318  37.661  25.386   6.164
 3383POPC   C1A44319  37.690  25.236   6.464
 3383POPC   D2A44320  37.633  25.227   6.764
 3383POPC   C3A44321  37.675  25.278   7.064
 3383POPC   C4A44322  37.700  25.287   7.364
 3383POPC   C1B44323  37.680  25.518   6.464
 3383POPC   C2B44324  37.693  25.530   6.764
 3383POPC   C3B44325  37.681  25.499   7.064
 3383POPC   C4B44326  37.745  25.468   7.364
 3384POPC   NC344327   5.869  41.586   5.564
 3384POPC   PO444328   5.910  41.528   5.864
 3384POPC   GL144329   5.866  41.537   6.164
 3384POPC   GL244330   5.959  41.670   6.164
 3384POPC   C1A44331   5.863  41.546   6.464
 3384POPC   D2A44332   5.908  41.562   6.764
 3384POPC   C3A44333   5.830  41.511   7.064
 3384POPC   C4A44334   5.823  41.550   7.364
 3384POPC   C1B44335   6.018  41.732   6.464
 3384POPC   C2B44336   6.085  41.699   6.764
 3384POPC   C3B44337   6.017  41.735   7.064
 3384POPC   C4B44338   6.051  41.677   7.364
 3385POPC   NC344339  31.475  15.142   5.564
 3385POPC   PO444340  31.466  15.197   5.864
 3385POPC   GL144341  31.462  15.208   6.164
 3385POPC   GL244342  31.568  15.189   6.164
 3385POPC   C1A44343  31.458  15.204   6.464
 3385POPC   D2A44344  31.431  15.193   6.764
 3385POPC   C3A44345  31.444  15.160   7.064
 3385POPC   C4A44346  31.481  15.156   7.364
 3385POPC   C1B44347  31.701  15.254   6.464
 3385POPC   C2B44348  31.748  15.224   6.764
 3385POPC   C3B44349  31.744  15.299   7.064
 3385POPC   C4B44350  31.707  15.263   7.364
 3386POPC   NC344351  40.030   6.621   5.564
 3386POPC   PO444352  40.014   6.614   5.864
 3386POPC   GL144353  40.000   6.693   6.164
 3386POPC   GL244354  40.159   6.590   6.164
 3386POPC   C1A44355  39.973   6.650   6.464
 3386POPC   D2A44356  40.030   6.654   6.764
 3386POPC   C3A44357  40.046   6.645   7.064
 3386POPC   C4A44358  39.996   6.669   7.364
 3386POPC   C1B44359  40.180   6.525   6.464
 3386POPC   C2B44360  40.206   6.574   6.764
 3386POPC   C3B44361  40.232   6.522   7.064
 3386POPC   C4B44362  40.225   6.528   7.364
 3387POPC   NC344363  42.310  19.065   5.564
 3387POPC   PO444364  42.355  19.013   5.864
 3387POPC   GL144365  42.296  19.108   6.164
 3387POPC   GL244366  42.267  19.185   6.164
 3387POPC   C1A44367  42.359  19.060   6.464
 3387POPC   D2A44368  42.339  19.052   6.764
 3387POPC   C3A44369  42.381  19.046   7.064
 3387POPC   C4A44370  42.296  19.077   7.364
 3387POPC   C1B44371  42.212  19.303   6.464
 3387POPC   C2B44372  42.236  19.265   6.764
 3387POPC   C3B44373  42.222  19.315   7.064
 3387POPC   C4B44374  42.262  19.308   7.364
 3388POPC   NC344375  43.923  39.262   5.564
 3388POPC   PO444376  43.929  39.209   5.864
 3388POPC   GL144377  43.931  39.274   6.164
 3388POPC   GL244378  43.778  39.110   6.164
 3388POPC   C1A44379  43.855  39.250   6.464
 3388POPC   D2A44380  43.870  39.274   6.764
 3388POPC   C3A44381  43.870  39.238   7.064
 3388POPC   C4A44382  43.883  39.192   7.364
 3388POPC   C1B44383  43.756  39.058   6.464
 3388POPC   C2B44384  43.706  39.021   6.764
 3388POPC   C3B44385  43.779  39.028   7.064
 3388POPC   C4B44386  43.787  38.980   7.364
 3389POPC   NC344387   7.450  29.138   5.564
 3389POPC   PO444388   7.419  29.106   5.864
 3389POPC   GL144389   7.421  29.136   6.164
 3389POPC   GL244390   7.456  29.228   6.164
 3389POPC   C1A44391   7.408  29.129   6.464
 3389POPC   D2A44392   7.385  29.137   6.764
 3389POPC   C3A44393   7.397  29.147   7.064
 3389POPC   C4A44394   7.432  29.176   7.364
 3389POPC   C1B44395   7.439  29.384   6.464
 3389POPC   C2B44396   7.422  29.414   6.764
 3389POPC   C3B44397   7.507  29.426   7.064
 3389POPC   C4B44398   7.490  29.355   7.364
 3390POPC   NC344399   3.496  34.599   5.564
 3390POPC   PO444400   3.527  34.588   5.864
 3390POPC   GL144401   3.548  34.623   6.164
 3390POPC   GL244402   3.590  34.714   6.164
 3390POPC   C1A44403   3.581  34.546   6.464
 3390POPC   D2A44404   3.506  34.615   6.764
 3390POPC   C3A44405   3.560  34.569   7.064
 3390POPC   C4A44406   3.543  34.530   7.364
 3390POPC   C1B44407   3.625  34.749   6.464
 3390POPC   C2B44408   3.643  34.779   6.764
 3390POPC   C3B44409   3.668  34.805   7.064
 3390POPC   C4B44410   3.702  34.834   7.364
 3391POPC   NC344411  15.976  26.838   5.564
 3391POPC   PO444412  15.993  26.807   5.864
 3391POPC   GL144413  15.976  26.779   6.164
 3391POPC   GL244414  16.048  26.911   6.164
 3391POPC   C1A44415  15.970  26.838   6.464
 3391POPC   D2A44416  15.957  26.820   6.764
 3391POPC   C3A44417  15.919  26.840   7.064
 3391POPC   C4A44418  15.941  26.859   7.364
 3391POPC   C1B44419  16.121  26.950   6.464
 3391POPC   C2B44420  16.191  26.991   6.764
 3391POPC   C3B44421  16.147  27.011   7.064
 3391POPC   C4B44422  16.125  26.994   7.364
 3392POPC   NC344423  12.090  14.379   5.564
 3392POPC   PO444424  12.102  14.423   5.864
 3392POPC   GL144425  12.109  14.397   6.164
 3392POPC   GL244426  12.061  14.310   6.164
 3392POPC   C1A44427  12.108  14.364   6.464
 3392POPC   D2A44428  12.104  14.422   6.764
 3392POPC   C3A44429  12.114  14.365   7.064
 3392POPC   C4A44430  12.066  14.429   7.364
 3392POPC   C1B44431  12.056  14.122   6.464
 3392POPC   C2B44432  12.060  14.148   6.764
 3392POPC   C3B44433  12.044  14.194   7.064
 3392POPC   C4B44434  12.029  14.124   7.364
 3393POPC   NC344435   3.576  22.902   5.564
 3393POPC   PO444436   3.570  22.920   5.864
 3393POPC   GL144437   3.564  22.933   6.164
 3393POPC   GL244438   3.697  22.933   6.164
 3393POPC   C1A44439   3.514  22.962   6.464
 3393POPC   D2A44440   3.534  22.963   6.764
 3393POPC   C3A44441   3.561  22.942   7.064
 3393POPC   C4A44442   3.589  22.912   7.364
 3393POPC   C1B44443   3.825  22.848   6.464
 3393POPC   C2B44444   3.756  22.831   6.764
 3393POPC   C3B44445   3.802  22.867   7.064
 3393POPC   C4B44446   3.808  22.847   7.364
 3394POPC   NC344447  15.961  10.525   5.564
 3394POPC   PO444448  15.948  10.552   5.864
 3394POPC   GL144449  15.948  10.503   6.164
 3394POPC   GL244450  16.101  10.595   6.164
 3394POPC   C1A44451  15.918  10.488   6.464
 3394POPC   D2A44452  15.958  10.491   6.764
 3394POPC   C3A44453  15.945  10.504   7.064
 3394POPC   C4A44454  15.990  10.538   7.364
 3394POPC   C1B44455  16.139  10.642   6.464
 3394POPC   C2B44456  16.173  10.670   6.764
 3394POPC   C3B44457  16.150  10.601   7.064
 3394POPC   C4B44458  16.146  10.654   7.364
 3395POPC   NC344459   8.974   7.375   5.564
 3395POPC   PO444460   8.988   7.439   5.864
 3395POPC   GL144461   8.986   7.394   6.164
 3395POPC   GL244462   8.984   7.572   6.164
 3395POPC   C1A44463   9.004   7.398   6.464
 3395POPC   D2A44464   9.012   7.382   6.764
 3395POPC   C3A44465   9.002   7.418   7.064
 3395POPC   C4A44466   8.973   7.392   7.364
 3395POPC   C1B44467   8.982   7.663   6.464
 3395POPC   C2B44468   9.021   7.683   6.764
 3395POPC   C3B44469   8.937   7.665   7.064
 3395POPC   C4B44470   8.960   7.690   7.364
 3396POPC   NC344471  19.074  21.428   5.564
 3396POPC   PO444472  19.082  21.426   5.864
 3396POPC   GL144473  19.085  21.385   6.164
 3396POPC   GL244474  19.159  21.300   6.164
 3396POPC   C1A44475  19.041  21.377   6.464
 3396POPC   D2A44476  19.100  21.356   6.764
 3396POPC   C3A44477  19.090  21.381   7.064
 3396POPC   C4A44478  19.009  21.345   7.364
 3396POPC   C1B44479  19.233  21.203   6.464
 3396POPC   C2B44480  19.270  21.205   6.764
 3396POPC   C3B44481  19.267  21.284   7.064
 3396POPC   C4B44482  19.262  21.284   7.364
 3397POPC   NC344483  31.448  13.651   5.564
 3397POPC   PO444484  31.514  13.648   5.864
 3397POPC   GL144485  31.486  13.641   6.164
 3397POPC   GL244486  31.467  13.772   6.164
 3397POPC   C1A44487  31.454  13.618   6.464
 3397POPC   D2A44488  31.456  13.645   6.764
 3397POPC   C3A44489  31.502  13.636   7.064
 3397POPC   C4A44490  31.449  13.610   7.364
 3397POPC   C1B44491  31.422  13.895   6.464
 3397POPC   C2B44492  31.416  13.827   6.764
 3397POPC   C3B44493  31.412  13.911   7.064
 3397POPC   C4B44494  31.458  13.866   7.364
 3398POPC   NC344495  18.327  43.932   5.564
 3398POPC   PO444496  18.320  43.836   5.864
 3398POPC   GL144497  18.320  43.924   6.164
 3398POPC   GL244498  18.318  44.016   6.164
 3398POPC   C1A44499  18.291  43.836   6.464
 3398POPC   D2A44500  18.290  43.837   6.764
 3398POPC   C3A44501  18.292  43.863   7.064
 3398POPC   C4A44502  18.278  43.876   7.364
 3398POPC   C1B44503  18.287  44.141   6.464
 3398POPC   C2B44504  18.253  44.112   6.764
 3398POPC   C3B44505  18.292  44.107   7.064
 3398POPC   C4B44506  18.222  44.098   7.364
 3399POPC   NC344507  12.086  17.510   5.564
 3399POPC   PO444508  12.051  17.542   5.864
 3399POPC   GL144509  12.055  17.516   6.164
 3399POPC   GL244510  11.960  17.532   6.164
 3399POPC   C1A44511  12.075  17.465   6.464
 3399POPC   D2A44512  12.104  17.550   6.764
 3399POPC   C3A44513  12.079  17.473   7.064
 3399POPC   C4A44514  12.056  17.515   7.364
 3399POPC   C1B44515  11.790  17.486   6.464
 3399POPC   C2B44516  11.777  17.527   6.764
 3399POPC   C3B44517  11.808  17.526   7.064
 3399POPC   C4B44518  11.792  17.568   7.364
 3400POPC   NC344519  34.531  33.038   5.564
 3400POPC   PO444520  34.532  33.070   5.864
 3400POPC   GL144521  34.602  33.063   6.164
 3400POPC   GL244522  34.508  33.091   6.164
 3400POPC   C1A44523  34.592  33.053   6.464
 3400POPC   D2A44524  34.589  32.990   6.764
 3400POPC   C3A44525  34.601  32.977   7.064
 3400POPC   C4A44526  34.592  32.982   7.364
 3400POPC   C1B44527  34.396  33.213   6.464
 3400POPC   C2B44528  34.386  33.205   6.764
 3400POPC   C3B44529  34.378  33.139   7.064
 3400POPC   C4B44530  34.406  33.162   7.364
 3401POPC   NC344531  39.264  28.336   5.564
 3401POPC   PO444532  39.278  28.413   5.864
 3401POPC   GL144533  39.184  28.396   6.164
 3401POPC   GL244534  39.197  28.263   6.164
 3401POPC   C1A44535  39.183  28.395   6.464
 3401POPC   D2A44536  39.248  28.349   6.764
 3401POPC   C3A44537  39.224  28.339   7.064
 3401POPC   C4A44538  39.258  28.355   7.364
 3401POPC   C1B44539  39.138  28.119   6.464
 3401POPC   C2B44540  39.068  28.113   6.764
 3401POPC   C3B44541  39.082  28.147   7.064
 3401POPC   C4B44542  39.144  28.153   7.364
 3402POPC   NC344543  42.333  10.554   5.564
 3402POPC   PO444544  42.381  10.564   5.864
 3402POPC   GL144545  42.361  10.570   6.164
 3402POPC   GL244546  42.413  10.479   6.164
 3402POPC   C1A44547  42.347  10.482   6.464
 3402POPC   D2A44548  42.288  10.508   6.764
 3402POPC   C3A44549  42.337  10.500   7.064
 3402POPC   C4A44550  42.381  10.549   7.364
 3402POPC   C1B44551  42.553  10.557   6.464
 3402POPC   C2B44552  42.606  10.528   6.764
 3402POPC   C3B44553  42.586  10.509   7.064
 3402POPC   C4B44554  42.631  10.531   7.364
 3403POPC   NC344555  26.785  36.084   5.564
 3403POPC   PO444556  26.787  36.158   5.864
 3403POPC   GL144557  26.805  36.084   6.164
 3403POPC   GL244558  26.784  36.018   6.164
 3403POPC   C1A44559  26.815  36.173   6.464
 3403POPC   D2A44560  26.775  36.147   6.764
 3403POPC   C3A44561  26.780  36.108   7.064
 3403POPC   C4A44562  26.789  36.110   7.364
 3403POPC   C1B44563  26.707  35.863   6.464
 3403POPC   C2B44564  26.675  35.874   6.764
 3403POPC   C3B44565  26.712  35.901   7.064
 3403POPC   C4B44566  26.652  35.885   7.364
 3404POPC   NC344567   1.982  25.230   5.564
 3404POPC   PO444568   1.997  25.232   5.864
 3404POPC   GL144569   2.011  25.311   6.164
 3404POPC   GL244570   2.109  25.221   6.164
 3404POPC   C1A44571   1.989  25.315   6.464
 3404POPC   D2A44572   2.006  25.273   6.764
 3404POPC   C3A44573   1.968  25.255   7.064
 3404POPC   C4A44574   1.982  25.294   7.364
 3404POPC   C1B44575   2.160  25.115   6.464
 3404POPC   C2B44576   2.138  25.112   6.764
 3404POPC   C3B44577   2.142  25.067   7.064
 3404POPC   C4B44578   2.192  25.051   7.364
 3405POPC   NC344579  40.024  29.963   5.564
 3405POPC   PO444580  40.051  29.909   5.864
 3405POPC   GL144581  39.975  29.939   6.164
 3405POPC   GL244582  39.883  29.955   6.164
 3405POPC   C1A44583  39.979  29.916   6.464
 3405POPC   D2A44584  40.007  29.953   6.764
 3405POPC   C3A44585  39.964  29.939   7.064
 3405POPC   C4A44586  39.961  29.902   7.364
 3405POPC   C1B44587  39.727  29.978   6.464
 3405POPC   C2B44588  39.813  30.028   6.764
 3405POPC   C3B44589  39.804  30.026   7.064
 3405POPC   C4B44590  39.716  30.019   7.364
 3406POPC   NC344591   5.844   9.726   5.564
 3406POPC   PO444592   5.886   9.777   5.864
 3406POPC   GL144593   5.847   9.766   6.164
 3406POPC   GL244594   5.989   9.715   6.164
 3406POPC   C1A44595   5.905   9.765   6.464
 3406POPC   D2A44596   5.869   9.704   6.764
 3406POPC   C3A44597   5.914   9.729   7.064
 3406POPC   C4A44598   5.913   9.713   7.364
 3406POPC   C1B44599   6.118   9.678   6.464
 3406POPC   C2B44600   6.075   9.689   6.764
 3406POPC   C3B44601   6.131   9.682   7.064
 3406POPC   C4B44602   6.105   9.664   7.364
 3407POPC   NC344603  29.125   1.232   5.564
 3407POPC   PO444604  29.116   1.194   5.864
 3407POPC   GL144605  29.164   1.210   6.164
 3407POPC   GL244606  29.214   1.372   6.164
 3407POPC   C1A44607  29.100   1.240   6.464
 3407POPC   D2A44608  29.184   1.167   6.764
 3407POPC   C3A44609  29.150   1.219   7.064
 3407POPC   C4A44610  29.110   1.226   7.364
 3407POPC   C1B44611  29.288   1.425   6.464
 3407POPC   C2B44612  29.215   1.476   6.764
 3407POPC   C3B44613  29.274   1.448   7.064
 3407POPC   C4B44614  29.248   1.401   7.364
 3408POPC   NC344615   5.141  13.668   5.564
 3408POPC   PO444616   5.102  13.654   5.864
 3408POPC   GL144617   5.089  13.650   6.164
 3408POPC   GL244618   5.160  13.558   6.164
 3408POPC   C1A44619   5.109  13.635   6.464
 3408POPC   D2A44620   5.068  13.661   6.764
 3408POPC   C3A44621   5.104  13.655   7.064
 3408POPC   C4A44622   5.045  13.595   7.364
 3408POPC   C1B44623   5.319  13.458   6.464
 3408POPC   C2B44624   5.265  13.480   6.764
 3408POPC   C3B44625   5.296  13.427   7.064
 3408POPC   C4B44626   5.253  13.489   7.364
 3409POPC   NC344627  21.365  36.896   5.564
 3409POPC   PO444628  21.368  36.923   5.864
 3409POPC   GL144629  21.431  36.943   6.164
 3409POPC   GL244630  21.526  36.944   6.164
 3409POPC   C1A44631  21.402  36.886   6.464
 3409POPC   D2A44632  21.413  36.887   6.764
 3409POPC   C3A44633  21.414  36.924   7.064
 3409POPC   C4A44634  21.380  36.926   7.364
 3409POPC   C1B44635  21.603  37.016   6.464
 3409POPC   C2B44636  21.648  36.990   6.764
 3409POPC   C3B44637  21.636  36.971   7.064
 3409POPC   C4B44638  21.569  37.055   7.364
 3410POPC   NC344639  32.269  22.929   5.564
 3410POPC   PO444640  32.227  22.979   5.864
 3410POPC   GL144641  32.227  22.955   6.164
 3410POPC   GL244642  32.176  22.840   6.164
 3410POPC   C1A44643  32.206  22.914   6.464
 3410POPC   D2A44644  32.277  22.962   6.764
 3410POPC   C3A44645  32.259  22.950   7.064
 3410POPC   C4A44646  32.281  22.905   7.364
 3410POPC   C1B44647  32.178  22.703   6.464
 3410POPC   C2B44648  32.206  22.684   6.764
 3410POPC   C3B44649  32.197  22.658   7.064
 3410POPC   C4B44650  32.176  22.673   7.364
 3411POPC   NC344651  33.045  31.428   5.564
 3411POPC   PO444652  33.060  31.511   5.864
 3411POPC   GL144653  32.991  31.461   6.164
 3411POPC   GL244654  33.149  31.432   6.164
 3411POPC   C1A44655  33.061  31.437   6.464
 3411POPC   D2A44656  33.050  31.427   6.764
 3411POPC   C3A44657  32.984  31.520   7.064
 3411POPC   C4A44658  32.993  31.506   7.364
 3411POPC   C1B44659  33.211  31.353   6.464
 3411POPC   C2B44660  33.245  31.367   6.764
 3411POPC   C3B44661  33.213  31.399   7.064
 3411POPC   C4B44662  33.275  31.415   7.364
 3412POPC   NC344663  37.691  33.841   5.564
 3412POPC   PO444664  37.653  33.785   5.864
 3412POPC   GL144665  37.720  33.786   6.164
 3412POPC   GL244666  37.746  33.883   6.164
 3412POPC   C1A44667  37.695  33.773   6.464
 3412POPC   D2A44668  37.630  33.823   6.764
 3412POPC   C3A44669  37.705  33.783   7.064
 3412POPC   C4A44670  37.708  33.838   7.364
 3412POPC   C1B44671  37.911  33.933   6.464
 3412POPC   C2B44672  37.906  33.913   6.764
 3412POPC   C3B44673  37.888  33.972   7.064
 3412POPC   C4B44674  37.908  33.911   7.364
 3413POPC   NC344675   3.494  44.657   5.564
 3413POPC   PO444676   3.503  44.694   5.864
 3413POPC   GL144677   3.536  44.613   6.164
 3413POPC   GL244678   3.538  44.541   6.164
 3413POPC   C1A44679   3.531  44.701   6.464
 3413POPC   D2A44680   3.494  44.674   6.764
 3413POPC   C3A44681   3.521  44.663   7.064
 3413POPC   C4A44682   3.523  44.619   7.364
 3413POPC   C1B44683   3.465  44.384   6.464
 3413POPC   C2B44684   3.429  44.390   6.764
 3413POPC   C3B44685   3.451  44.389   7.064
 3413POPC   C4B44686   3.514  44.422   7.364
 3414POPC   NC344687   7.397  27.582   5.564
 3414POPC   PO444688   7.407  27.576   5.864
 3414POPC   GL144689   7.436  27.635   6.164
 3414POPC   GL244690   7.316  27.709   6.164
 3414POPC   C1A44691   7.428  27.558   6.464
 3414POPC   D2A44692   7.427  27.575   6.764
 3414POPC   C3A44693   7.412  27.617   7.064
 3414POPC   C4A44694   7.432  27.624   7.364
 3414POPC   C1B44695   7.268  27.796   6.464
 3414POPC   C2B44696   7.315  27.801   6.764
 3414POPC   C3B44697   7.338  27.841   7.064
 3414POPC   C4B44698   7.335  27.782   7.364
 3415POPC   NC344699  15.146  29.940   5.564
 3415POPC   PO444700  15.190  29.967   5.864
 3415POPC   GL144701  15.157  29.930   6.164
 3415POPC   GL244702  15.115  29.843   6.164
 3415POPC   C1A44703  15.144  29.888   6.464
 3415POPC   D2A44704  15.216  29.905   6.764
 3415POPC   C3A44705  15.135  29.873   7.064
 3415POPC   C4A44706  15.219  29.929   7.364
 3415POPC   C1B44707  15.038  29.689   6.464
 3415POPC   C2B44708  15.029  29.677   6.764
 3415POPC   C3B44709  15.068  29.692   7.064
 3415POPC   C4B44710  15.005  29.739   7.364
 3416POPC   NC344711  27.585   1.221   5.564
 3416POPC   PO444712  27.596   1.206   5.864
 3416POPC   GL144713  27.561   1.214   6.164
 3416POPC   GL244714  27.704   1.164   6.164
 3416POPC   C1A44715  27.587   1.191   6.464
 3416POPC   D2A44716  27.614   1.164   6.764
 3416POPC   C3A44717  27.549   1.173   7.064
 3416POPC   C4A44718  27.624   1.257   7.364
 3416POPC   C1B44719  27.783   1.067   6.464
 3416POPC   C2B44720  27.828   1.087   6.764
 3416POPC   C3B44721  27.805   1.115   7.064
 3416POPC   C4B44722  27.843   1.094   7.364
 3417POPC   NC344723  31.471  42.359   5.564
 3417POPC   PO444724  31.505  42.298   5.864
 3417POPC   GL144725  31.494  42.302   6.164
 3417POPC   GL244726  31.361  42.228   6.164
 3417POPC   C1A44727  31.471  42.341   6.464
 3417POPC   D2A44728  31.443  42.334   6.764
 3417POPC   C3A44729  31.452  42.352   7.064
 3417POPC   C4A44730  31.469  42.338   7.364
 3417POPC   C1B44731  31.369  42.142   6.464
 3417POPC   C2B44732  31.325  42.178   6.764
 3417POPC   C3B44733  31.348  42.173   7.064
 3417POPC   C4B44734  31.374  42.081   7.364
 3418POPC   NC344735  39.962   4.304   5.564
 3418POPC   PO444736  39.999   4.358   5.864
 3418POPC   GL144737  39.995   4.269   6.164
 3418POPC   GL244738  39.995   4.451   6.164
 3418POPC   C1A44739  40.005   4.343   6.464
 3418POPC   D2A44740  40.053   4.324   6.764
 3418POPC   C3A44741  39.998   4.305   7.064
 3418POPC   C4A44742  40.015   4.338   7.364
 3418POPC   C1B44743  40.028   4.600   6.464
 3418POPC   C2B44744  40.018   4.599   6.764
 3418POPC   C3B44745  40.044   4.562   7.064
 3418POPC   C4B44746  40.020   4.601   7.364
 3419POPC   NC344747  12.807  33.786   5.564
 3419POPC   PO444748  12.847  33.785   5.864
 3419POPC   GL144749  12.854  33.781   6.164
 3419POPC   GL244750  12.699  33.754   6.164
 3419POPC   C1A44751  12.841  33.797   6.464
 3419POPC   D2A44752  12.854  33.808   6.764
 3419POPC   C3A44753  12.823  33.754   7.064
 3419POPC   C4A44754  12.829  33.816   7.364
 3419POPC   C1B44755  12.665  33.700   6.464
 3419POPC   C2B44756  12.588  33.665   6.764
 3419POPC   C3B44757  12.592  33.714   7.064
 3419POPC   C4B44758  12.587  33.709   7.364
 3420POPC   NC344759  36.150  35.314   5.564
 3420POPC   PO444760  36.079  35.349   5.864
 3420POPC   GL144761  36.169  35.364   6.164
 3420POPC   GL244762  36.223  35.465   6.164
 3420POPC   C1A44763  36.117  35.354   6.464
 3420POPC   D2A44764  36.168  35.324   6.764
 3420POPC   C3A44765  36.142  35.335   7.064
 3420POPC   C4A44766  36.135  35.381   7.364
 3420POPC   C1B44767  36.327  35.464   6.464
 3420POPC   C2B44768  36.339  35.537   6.764
 3420POPC   C3B44769  36.335  35.515   7.064
 3420POPC   C4B44770  36.351  35.460   7.364
 3421POPC   NC344771  20.585   1.960   5.564
 3421POPC   PO444772  20.640   1.981   5.864
 3421POPC   GL144773  20.578   1.944   6.164
 3421POPC   GL244774  20.443   1.994   6.164
 3421POPC   C1A44775  20.624   1.942   6.464
 3421POPC   D2A44776  20.614   1.942   6.764
 3421POPC   C3A44777  20.578   1.981   7.064
 3421POPC   C4A44778  20.588   1.947   7.364
 3421POPC   C1B44779  20.350   1.938   6.464
 3421POPC   C2B44780  20.347   1.878   6.764
 3421POPC   C3B44781  20.404   1.872   7.064
 3421POPC   C4B44782  20.396   1.884   7.364
 3422POPC   NC344783   6.687  44.650   5.564
 3422POPC   PO444784   6.624  44.616   5.864
 3422POPC   GL144785   6.609  44.701   6.164
 3422POPC   GL244786   6.702  44.761   6.164
 3422POPC   C1A44787   6.659  44.681   6.464
 3422POPC   D2A44788   6.663  44.662   6.764
 3422POPC   C3A44789   6.638  44.688   7.064
 3422POPC   C4A44790   6.684  44.626   7.364
 3422POPC   C1B44791   6.751  44.875   6.464
 3422POPC   C2B44792   6.730  44.892   6.764
 3422POPC   C3B44793   6.739  44.874   7.064
 3422POPC   C4B44794   6.770  44.880   7.364
 3423POPC   NC344795   1.964  22.899   5.564
 3423POPC   PO444796   2.020  22.979   5.864
 3423POPC   GL144797   1.959  22.923   6.164
 3423POPC   GL244798   1.912  22.974   6.164
 3423POPC   C1A44799   1.960  22.966   6.464
 3423POPC   D2A44800   1.995  22.967   6.764
 3423POPC   C3A44801   1.954  22.930   7.064
 3423POPC   C4A44802   2.017  22.924   7.364
 3423POPC   C1B44803   1.760  22.961   6.464
 3423POPC   C2B44804   1.753  23.008   6.764
 3423POPC   C3B44805   1.739  22.971   7.064
 3423POPC   C4B44806   1.716  23.029   7.364
 3424POPC   NC344807   3.563  35.374   5.564
 3424POPC   PO444808   3.499  35.349   5.864
 3424POPC   GL144809   3.521  35.386   6.164
 3424POPC   GL244810   3.429  35.359   6.164
 3424POPC   C1A44811   3.581  35.338   6.464
 3424POPC   D2A44812   3.539  35.356   6.764
 3424POPC   C3A44813   3.494  35.344   7.064
 3424POPC   C4A44814   3.534  35.320   7.364
 3424POPC   C1B44815   3.358  35.462   6.464
 3424POPC   C2B44816   3.294  35.440   6.764
 3424POPC   C3B44817   3.327  35.405   7.064
 3424POPC   C4B44818   3.316  35.437   7.364
 3425POPC   NC344819   8.955  12.075   5.564
 3425POPC   PO444820   8.933  12.109   5.864
 3425POPC   GL144821   9.011  12.090   6.164
 3425POPC   GL244822   9.109  12.064   6.164
 3425POPC   C1A44823   8.937  12.109   6.464
 3425POPC   D2A44824   8.947  12.101   6.764
 3425POPC   C3A44825   9.016  12.102   7.064
 3425POPC   C4A44826   8.995  12.083   7.364
 3425POPC   C1B44827   9.216  12.054   6.464
 3425POPC   C2B44828   9.262  12.102   6.764
 3425POPC   C3B44829   9.207  12.033   7.064
 3425POPC   C4B44830   9.240  12.051   7.364
 3426POPC   NC344831  38.441   8.983   5.564
 3426POPC   PO444832  38.503   8.940   5.864
 3426POPC   GL144833  38.427   8.936   6.164
 3426POPC   GL244834  38.615   8.966   6.164
 3426POPC   C1A44835  38.497   9.004   6.464
 3426POPC   D2A44836  38.485   9.021   6.764
 3426POPC   C3A44837  38.421   8.938   7.064
 3426POPC   C4A44838  38.431   8.940   7.364
 3426POPC   C1B44839  38.735   8.963   6.464
 3426POPC   C2B44840  38.740   8.978   6.764
 3426POPC   C3B44841  38.659   9.010   7.064
 3426POPC   C4B44842  38.746   9.004   7.364
 3427POPC   NC344843  41.553  16.761   5.564
 3427POPC   PO444844  41.599  16.771   5.864
 3427POPC   GL144845  41.552  16.712   6.164
 3427POPC   GL244846  41.714  16.825   6.164
 3427POPC   C1A44847  41.536  16.750   6.464
 3427POPC   D2A44848  41.583  16.688   6.764
 3427POPC   C3A44849  41.520  16.719   7.064
 3427POPC   C4A44850  41.533  16.751   7.364
 3427POPC   C1B44851  41.784  16.874   6.464
 3427POPC   C2B44852  41.827  16.820   6.764
 3427POPC   C3B44853  41.778  16.829   7.064
 3427POPC   C4B44854  41.768  16.782   7.364
 3428POPC   NC344855  17.512  20.630   5.564
 3428POPC   PO444856  17.502  20.576   5.864
 3428POPC   GL144857  17.503  20.647   6.164
 3428POPC   GL244858  17.391  20.664   6.164
 3428POPC   C1A44859  17.534  20.583   6.464
 3428POPC   D2A44860  17.555  20.611   6.764
 3428POPC   C3A44861  17.512  20.628   7.064
 3428POPC   C4A44862  17.543  20.656   7.364
 3428POPC   C1B44863  17.306  20.722   6.464
 3428POPC   C2B44864  17.289  20.767   6.764
 3428POPC   C3B44865  17.346  20.745   7.064
 3428POPC   C4B44866  17.290  20.791   7.364
 3429POPC   NC344867  37.666  11.304   5.564
 3429POPC   PO444868  37.702  11.316   5.864
 3429POPC   GL144869  37.680  11.326   6.164
 3429POPC   GL244870  37.624  11.222   6.164
 3429POPC   C1A44871  37.660  11.304   6.464
 3429POPC   D2A44872  37.725  11.330   6.764
 3429POPC   C3A44873  37.726  11.326   7.064
 3429POPC   C4A44874  37.659  11.298   7.364
 3429POPC   C1B44875  37.541  11.104   6.464
 3429POPC   C2B44876  37.511  11.076   6.764
 3429POPC   C3B44877  37.475  11.141   7.064
 3429POPC   C4B44878  37.554  11.162   7.364
 3430POPC   NC344879  26.778  11.319   5.564
 3430POPC   PO444880  26.841  11.348   5.864
 3430POPC   GL144881  26.838  11.282   6.164
 3430POPC   GL244882  26.715  11.255   6.164
 3430POPC   C1A44883  26.838  11.315   6.464
 3430POPC   D2A44884  26.819  11.290   6.764
 3430POPC   C3A44885  26.772  11.345   7.064
 3430POPC   C4A44886  26.810  11.257   7.364
 3430POPC   C1B44887  26.542  11.181   6.464
 3430POPC   C2B44888  26.530  11.174   6.764
 3430POPC   C3B44889  26.628  11.188   7.064
 3430POPC   C4B44890  26.535  11.255   7.364
 3431POPC   NC344891  41.559  43.933   5.564
 3431POPC   PO444892  41.567  43.849   5.864
 3431POPC   GL144893  41.538  43.842   6.164
 3431POPC   GL244894  41.635  43.918   6.164
 3431POPC   C1A44895  41.532  43.865   6.464
 3431POPC   D2A44896  41.605  43.877   6.764
 3431POPC   C3A44897  41.555  43.921   7.064
 3431POPC   C4A44898  41.576  43.887   7.364
 3431POPC   C1B44899  41.787  43.909   6.464
 3431POPC   C2B44900  41.787  43.966   6.764
 3431POPC   C3B44901  41.778  43.936   7.064
 3431POPC   C4B44902  41.843  43.907   7.364
 3432POPC   NC344903  41.527  39.237   5.564
 3432POPC   PO444904  41.535  39.263   5.864
 3432POPC   GL144905  41.518  39.195   6.164
 3432POPC   GL244906  41.534  39.146   6.164
 3432POPC   C1A44907  41.598  39.248   6.464
 3432POPC   D2A44908  41.545  39.233   6.764
 3432POPC   C3A44909  41.535  39.273   7.064
 3432POPC   C4A44910  41.511  39.272   7.364
 3432POPC   C1B44911  41.482  38.979   6.464
 3432POPC   C2B44912  41.474  38.973   6.764
 3432POPC   C3B44913  41.497  39.040   7.064
 3432POPC   C4B44914  41.421  39.038   7.364
 3433POPC   NC344915  19.847  43.148   5.564
 3433POPC   PO444916  19.802  43.159   5.864
 3433POPC   GL144917  19.877  43.069   6.164
 3433POPC   GL244918  19.726  43.012   6.164
 3433POPC   C1A44919  19.854  43.128   6.464
 3433POPC   D2A44920  19.866  43.119   6.764
 3433POPC   C3A44921  19.827  43.090   7.064
 3433POPC   C4A44922  19.800  43.107   7.364
 3433POPC   C1B44923  19.670  42.939   6.464
 3433POPC   C2B44924  19.613  42.950   6.764
 3433POPC   C3B44925  19.679  42.975   7.064
 3433POPC   C4B44926  19.637  43.004   7.364
 3434POPC   NC344927   3.528  27.594   5.564
 3434POPC   PO444928   3.570  27.598   5.864
 3434POPC   GL144929   3.589  27.546   6.164
 3434POPC   GL244930   3.399  27.620   6.164
 3434POPC   C1A44931   3.556  27.592   6.464
 3434POPC   D2A44932   3.498  27.624   6.764
 3434POPC   C3A44933   3.492  27.598   7.064
 3434POPC   C4A44934   3.493  27.629   7.364
 3434POPC   C1B44935   3.321  27.602   6.464
 3434POPC   C2B44936   3.302  27.600   6.764
 3434POPC   C3B44937   3.336  27.574   7.064
 3434POPC   C4B44938   3.276  27.590   7.364
 3435POPC   NC344939  43.108  16.682   5.564
 3435POPC   PO444940  43.110  16.706   5.864
 3435POPC   GL144941  43.145  16.683   6.164
 3435POPC   GL244942  43.240  16.848   6.164
 3435POPC   C1A44943  43.091  16.749   6.464
 3435POPC   D2A44944  43.149  16.751   6.764
 3435POPC   C3A44945  43.099  16.743   7.064
 3435POPC   C4A44946  43.108  16.766   7.364
 3435POPC   C1B44947  43.292  16.858   6.464
 3435POPC   C2B44948  43.311  16.882   6.764
 3435POPC   C3B44949  43.279  16.928   7.064
 3435POPC   C4B44950  43.251  16.869   7.364
 3436POPC   NC344951  18.319  27.598   5.564
 3436POPC   PO444952  18.309  27.593   5.864
 3436POPC   GL144953  18.233  27.640   6.164
 3436POPC   GL244954  18.151  27.682   6.164
 3436POPC   C1A44955  18.327  27.636   6.464
 3436POPC   D2A44956  18.286  27.638   6.764
 3436POPC   C3A44957  18.274  27.641   7.064
 3436POPC   C4A44958  18.237  27.569   7.364
 3436POPC   C1B44959  18.132  27.770   6.464
 3436POPC   C2B44960  18.156  27.741   6.764
 3436POPC   C3B44961  18.094  27.761   7.064
 3436POPC   C4B44962  18.094  27.829   7.364
 3437POPC   NC344963  42.339  17.489   5.564
 3437POPC   PO444964  42.348  17.491   5.864
 3437POPC   GL144965  42.355  17.540   6.164
 3437POPC   GL244966  42.411  17.428   6.164
 3437POPC   C1A44967  42.306  17.542   6.464
 3437POPC   D2A44968  42.363  17.474   6.764
 3437POPC   C3A44969  42.353  17.485   7.064
 3437POPC   C4A44970  42.372  17.458   7.364
 3437POPC   C1B44971  42.485  17.243   6.464
 3437POPC   C2B44972  42.448  17.266   6.764
 3437POPC   C3B44973  42.420  17.309   7.064
 3437POPC   C4B44974  42.482  17.274   7.364
 3438POPC   NC344975  27.581  19.065   5.564
 3438POPC   PO444976  27.601  19.021   5.864
 3438POPC   GL144977  27.576  19.087   6.164
 3438POPC   GL244978  27.664  18.965   6.164
 3438POPC   C1A44979  27.618  19.087   6.464
 3438POPC   D2A44980  27.641  19.095   6.764
 3438POPC   C3A44981  27.629  19.010   7.064
 3438POPC   C4A44982  27.596  19.011   7.364
 3438POPC   C1B44983  27.763  18.929   6.464
 3438POPC   C2B44984  27.800  18.886   6.764
 3438POPC   C3B44985  27.735  18.933   7.064
 3438POPC   C4B44986  27.749  18.856   7.364
 3439POPC   NC344987  13.654  37.712   5.564
 3439POPC   PO444988  13.674  37.699   5.864
 3439POPC   GL144989  13.610  37.694   6.164
 3439POPC   GL244990  13.796  37.669   6.164
 3439POPC   C1A44991  13.640  37.648   6.464
 3439POPC   D2A44992  13.645  37.640   6.764
 3439POPC   C3A44993  13.594  37.721   7.064
 3439POPC   C4A44994  13.644  37.724   7.364
 3439POPC   C1B44995  13.864  37.656   6.464
 3439POPC   C2B44996  13.904  37.666   6.764
 3439POPC   C3B44997  13.850  37.662   7.064
 3439POPC   C4B44998  13.919  37.621   7.364
 3440POPC   NC344999  43.105  18.321   5.564
 3440POPC   PO445000  43.122  18.273   5.864
 3440POPC   GL145001  43.072  18.259   6.164
 3440POPC   GL245002  43.099  18.156   6.164
 3440POPC   C1A45003  43.110  18.256   6.464
 3440POPC   D2A45004  43.134  18.263   6.764
 3440POPC   C3A45005  43.127  18.259   7.064
 3440POPC   C4A45006  43.151  18.267   7.364
 3440POPC   C1B45007  43.155  18.061   6.464
 3440POPC   C2B45008  43.141  18.018   6.764
 3440POPC   C3B45009  43.103  18.049   7.064
 3440POPC   C4B45010  43.074  18.007   7.364
 3441POPC   NC345011  39.258  14.400   5.564
 3441POPC   PO445012  39.207  14.374   5.864
 3441POPC   GL145013  39.264  14.414   6.164
 3441POPC   GL245014  39.347  14.464   6.164
 3441POPC   C1A45015  39.240  14.417   6.464
 3441POPC   D2A45016  39.266  14.391   6.764
 3441POPC   C3A45017  39.218  14.380   7.064
 3441POPC   C4A45018  39.280  14.381   7.364
 3441POPC   C1B45019  39.410  14.566   6.464
 3441POPC   C2B45020  39.412  14.594   6.764
 3441POPC   C3B45021  39.377  14.517   7.064
 3441POPC   C4B45022  39.442  14.596   7.364
 3442POPC   NC345023  30.709   2.015   5.564
 3442POPC   PO445024  30.685   1.982   5.864
 3442POPC   GL145025  30.697   1.970   6.164
 3442POPC   GL245026  30.710   2.096   6.164
 3442POPC   C1A45027  30.697   2.005   6.464
 3442POPC   D2A45028  30.682   1.966   6.764
 3442POPC   C3A45029  30.655   1.983   7.064
 3442POPC   C4A45030  30.735   1.957   7.364
 3442POPC   C1B45031  30.691   2.241   6.464
 3442POPC   C2B45032  30.616   2.229   6.764
 3442POPC   C3B45033  30.627   2.192   7.064
 3442POPC   C4B45034  30.670   2.229   7.364
 3443POPC   NC345035  41.589   5.133   5.564
 3443POPC   PO445036  41.524   5.076   5.864
 3443POPC   GL145037  41.546   5.046   6.164
 3443POPC   GL245038  41.656   5.009   6.164
 3443POPC   C1A45039  41.602   5.058   6.464
 3443POPC   D2A45040  41.527   5.098   6.764
 3443POPC   C3A45041  41.517   5.079   7.064
 3443POPC   C4A45042  41.521   5.088   7.364
 3443POPC   C1B45043  41.711   4.879   6.464
 3443POPC   C2B45044  41.714   4.951   6.764
 3443POPC   C3B45045  41.689   4.946   7.064
 3443POPC   C4B45046  41.710   4.957   7.364
 3444POPC   NC345047  16.733  11.320   5.564
 3444POPC   PO445048  16.776  11.267   5.864
 3444POPC   GL145049  16.765  11.279   6.164
 3444POPC   GL245050  16.631  11.207   6.164
 3444POPC   C1A45051  16.723  11.284   6.464
 3444POPC   D2A45052  16.722  11.288   6.764
 3444POPC   C3A45053  16.775  11.299   7.064
 3444POPC   C4A45054  16.688  11.273   7.364
 3444POPC   C1B45055  16.511  11.118   6.464
 3444POPC   C2B45056  16.580  11.085   6.764
 3444POPC   C3B45057  16.587  11.077   7.064
 3444POPC   C4B45058  16.555  11.158   7.364
 3445POPC   NC345059  41.528   2.799   5.564
 3445POPC   PO445060  41.515   2.741   5.864
 3445POPC   GL145061  41.557   2.811   6.164
 3445POPC   GL245062  41.552   2.892   6.164
 3445POPC   C1A45063  41.578   2.798   6.464
 3445POPC   D2A45064  41.521   2.809   6.764
 3445POPC   C3A45065  41.568   2.812   7.064
 3445POPC   C4A45066  41.569   2.798   7.364
 3445POPC   C1B45067  41.590   3.028   6.464
 3445POPC   C2B45068  41.564   3.034   6.764
 3445POPC   C3B45069  41.608   2.982   7.064
 3445POPC   C4B45070  41.620   2.975   7.364
 3446POPC   NC345071  12.895  29.181   5.564
 3446POPC   PO445072  12.899  29.189   5.864
 3446POPC   GL145073  12.819  29.139   6.164
 3446POPC   GL245074  12.924  29.021   6.164
 3446POPC   C1A45075  12.899  29.171   6.464
 3446POPC   D2A45076  12.827  29.100   6.764
 3446POPC   C3A45077  12.870  29.176   7.064
 3446POPC   C4A45078  12.828  29.187   7.364
 3446POPC   C1B45079  12.963  28.927   6.464
 3446POPC   C2B45080  12.944  28.901   6.764
 3446POPC   C3B45081  12.932  28.879   7.064
 3446POPC   C4B45082  12.906  28.863   7.364
 3447POPC   NC345083  36.922  10.491   5.564
 3447POPC   PO445084  36.864  10.527   5.864
 3447POPC   GL145085  36.945  10.487   6.164
 3447POPC   GL245086  36.742  10.567   6.164
 3447POPC   C1A45087  36.937  10.522   6.464
 3447POPC   D2A45088  36.881  10.485   6.764
 3447POPC   C3A45089  36.905  10.498   7.064
 3447POPC   C4A45090  36.899  10.526   7.364
 3447POPC   C1B45091  36.692  10.541   6.464
 3447POPC   C2B45092  36.664  10.572   6.764
 3447POPC   C3B45093  36.666  10.568   7.064
 3447POPC   C4B45094  36.624  10.485   7.364
 3448POPC   NC345095  22.931  13.603   5.564
 3448POPC   PO445096  22.946  13.613   5.864
 3448POPC   GL145097  22.919  13.613   6.164
 3448POPC   GL245098  22.998  13.724   6.164
 3448POPC   C1A45099  22.905  13.645   6.464
 3448POPC   D2A45100  22.911  13.670   6.764
 3448POPC   C3A45101  22.960  13.658   7.064
 3448POPC   C4A45102  22.943  13.617   7.364
 3448POPC   C1B45103  23.095  13.832   6.464
 3448POPC   C2B45104  23.069  13.858   6.764
 3448POPC   C3B45105  23.115  13.847   7.064
 3448POPC   C4B45106  23.119  13.789   7.364
 3449POPC   NC345107  39.183  44.703   5.564
 3449POPC   PO445108  39.240  44.671   5.864
 3449POPC   GL145109  39.217  44.615   6.164
 3449POPC   GL245110  39.111  44.753   6.164
 3449POPC   C1A45111  39.259  44.694   6.464
 3449POPC   D2A45112  39.200  44.688   6.764
 3449POPC   C3A45113  39.235  44.665   7.064
 3449POPC   C4A45114  39.221  44.646   7.364
 3449POPC   C1B45115  38.973  44.835   6.464
 3449POPC   C2B45116  38.975  44.762   6.764
 3449POPC   C3B45117  39.041  44.817   7.064
 3449POPC   C4B45118  39.047  44.767   7.364
 3450POPC   NC345119  22.142  43.110   5.564
 3450POPC   PO445120  22.169  43.076   5.864
 3450POPC   GL145121  22.132  43.102   6.164
 3450POPC   GL245122  22.305  43.067   6.164
 3450POPC   C1A45123  22.205  43.065   6.464
 3450POPC   D2A45124  22.179  43.075   6.764
 3450POPC   C3A45125  22.184  43.148   7.064
 3450POPC   C4A45126  22.164  43.122   7.364
 3450POPC   C1B45127  22.425  43.080   6.464
 3450POPC   C2B45128  22.374  43.054   6.764
 3450POPC   C3B45129  22.396  43.020   7.064
 3450POPC   C4B45130  22.448  43.026   7.364
 3451POPC   NC345131   7.424   0.442   5.564
 3451POPC   PO445132   7.455   0.413   5.864
 3451POPC   GL145133   7.384   0.411   6.164
 3451POPC   GL245134   7.500   0.459   6.164
 3451POPC   C1A45135   7.465   0.421   6.464
 3451POPC   D2A45136   7.382   0.399   6.764
 3451POPC   C3A45137   7.426   0.456   7.064
 3451POPC   C4A45138   7.468   0.395   7.364
 3451POPC   C1B45139   7.635   0.384   6.464
 3451POPC   C2B45140   7.647   0.424   6.764
 3451POPC   C3B45141   7.670   0.409   7.064
 3451POPC   C4B45142   7.676   0.367   7.364
 3452POPC   NC345143  26.033  24.522   5.564
 3452POPC   PO445144  26.081  24.440   5.864
 3452POPC   GL145145  26.090  24.452   6.164
 3452POPC   GL245146  26.122  24.409   6.164
 3452POPC   C1A45147  26.043  24.489   6.464
 3452POPC   D2A45148  26.004  24.452   6.764
 3452POPC   C3A45149  26.021  24.484   7.064
 3452POPC   C4A45150  26.034  24.470   7.364
 3452POPC   C1B45151  26.145  24.266   6.464
 3452POPC   C2B45152  26.166  24.234   6.764
 3452POPC   C3B45153  26.159  24.233   7.064
 3452POPC   C4B45154  26.186  24.307   7.364
 3453POPC   NC345155  23.728  38.479   5.564
 3453POPC   PO445156  23.750  38.408   5.864
 3453POPC   GL145157  23.710  38.425   6.164
 3453POPC   GL245158  23.825  38.513   6.164
 3453POPC   C1A45159  23.692  38.451   6.464
 3453POPC   D2A45160  23.712  38.406   6.764
 3453POPC   C3A45161  23.734  38.428   7.064
 3453POPC   C4A45162  23.695  38.407   7.364
 3453POPC   C1B45163  23.989  38.474   6.464
 3453POPC   C2B45164  23.939  38.449   6.764
 3453POPC   C3B45165  23.934  38.516   7.064
 3453POPC   C4B45166  23.913  38.508   7.364
 3454POPC   NC345167  19.833  42.357   5.564
 3454POPC   PO445168  19.860  42.379   5.864
 3454POPC   GL145169  19.849  42.327   6.164
 3454POPC   GL245170  19.781  42.198   6.164
 3454POPC   C1A45171  19.837  42.352   6.464
 3454POPC   D2A45172  19.802  42.324   6.764
 3454POPC   C3A45173  19.801  42.302   7.064
 3454POPC   C4A45174  19.880  42.342   7.364
 3454POPC   C1B45175  19.748  42.084   6.464
 3454POPC   C2B45176  19.713  42.108   6.764
 3454POPC   C3B45177  19.757  42.057   7.064
 3454POPC   C4B45178  19.724  42.083   7.364
 3455POPC   NC345179  36.909   2.716   5.564
 3455POPC   PO445180  36.855   2.803   5.864
 3455POPC   GL145181  36.861   2.807   6.164
 3455POPC   GL245182  36.916   2.692   6.164
 3455POPC   C1A45183  36.935   2.791   6.464
 3455POPC   D2A45184  36.942   2.797   6.764
 3455POPC   C3A45185  36.877   2.729   7.064
 3455POPC   C4A45186  36.878   2.722   7.364
 3455POPC   C1B45187  37.000   2.579   6.464
 3455POPC   C2B45188  37.058   2.517   6.764
 3455POPC   C3B45189  37.030   2.532   7.064
 3455POPC   C4B45190  37.033   2.533   7.364
 3456POPC   NC345191   2.000  29.965   5.564
 3456POPC   PO445192   1.953  29.968   5.864
 3456POPC   GL145193   2.023  29.933   6.164
 3456POPC   GL245194   2.127  29.961   6.164
 3456POPC   C1A45195   2.008  29.880   6.464
 3456POPC   D2A45196   1.943  29.926   6.764
 3456POPC   C3A45197   2.035  29.933   7.064
 3456POPC   C4A45198   1.946  29.912   7.364
 3456POPC   C1B45199   2.210  30.011   6.464
 3456POPC   C2B45200   2.247  30.011   6.764
 3456POPC   C3B45201   2.218  29.951   7.064
 3456POPC   C4B45202   2.267  29.994   7.364
 3457POPC   NC345203   8.940  24.535   5.564
 3457POPC   PO445204   9.015  24.448   5.864
 3457POPC   GL145205   8.983  24.539   6.164
 3457POPC   GL245206   9.096  24.553   6.164
 3457POPC   C1A45207   8.925  24.493   6.464
 3457POPC   D2A45208   9.016  24.535   6.764
 3457POPC   C3A45209   8.927  24.538   7.064
 3457POPC   C4A45210   8.925  24.503   7.364
 3457POPC   C1B45211   9.168  24.633   6.464
 3457POPC   C2B45212   9.124  24.676   6.764
 3457POPC   C3B45213   9.151  24.707   7.064
 3457POPC   C4B45214   9.177  24.670   7.364
 3458POPC   NC345215   5.859   5.102   5.564
 3458POPC   PO445216   5.868   5.048   5.864
 3458POPC   GL145217   5.914   5.137   6.164
 3458POPC   GL245218   5.804   5.027   6.164
 3458POPC   C1A45219   5.918   5.093   6.464
 3458POPC   D2A45220   5.874   5.139   6.764
 3458POPC   C3A45221   5.872   5.077   7.064
 3458POPC   C4A45222   5.820   5.068   7.364
 3458POPC   C1B45223   5.684   4.926   6.464
 3458POPC   C2B45224   5.694   4.902   6.764
 3458POPC   C3B45225   5.675   4.911   7.064
 3458POPC   C4B45226   5.658   4.859   7.364
 3459POPC   NC345227  17.549  34.563   5.564
 3459POPC   PO445228  17.460  34.543   5.864
 3459POPC   GL145229  17.464  34.549   6.164
 3459POPC   GL245230  17.368  34.535   6.164
 3459POPC   C1A45231  17.483  34.564   6.464
 3459POPC   D2A45232  17.512  34.621   6.764
 3459POPC   C3A45233  17.474  34.556   7.064
 3459POPC   C4A45234  17.506  34.551   7.364
 3459POPC   C1B45235  17.256  34.437   6.464
 3459POPC   C2B45236  17.267  34.520   6.764
 3459POPC   C3B45237  17.306  34.466   7.064
 3459POPC   C4B45238  17.313  34.517   7.364
 3460POPC   NC345239  40.759  37.722   5.564
 3460POPC   PO445240  40.826  37.673   5.864
 3460POPC   GL145241  40.765  37.677   6.164
 3460POPC   GL245242  40.782  37.814   6.164
 3460POPC   C1A45243  40.750  37.671   6.464
 3460POPC   D2A45244  40.755  37.667   6.764
 3460POPC   C3A45245  40.760  37.722   7.064
 3460POPC   C4A45246  40.800  37.668   7.364
 3460POPC   C1B45247  40.864  37.881   6.464
 3460POPC   C2B45248  40.818  37.910   6.764
 3460POPC   C3B45249  40.907  37.894   7.064
 3460POPC   C4B45250  40.866  37.961   7.364
 3461POPC   NC345251  29.154  15.139   5.564
 3461POPC   PO445252  29.152  15.178   5.864
 3461POPC   GL145253  29.119  15.177   6.164
 3461POPC   GL245254  29.236  15.281   6.164
 3461POPC   C1A45255  29.111  15.207   6.464
 3461POPC   D2A45256  29.107  15.153   6.764
 3461POPC   C3A45257  29.142  15.191   7.064
 3461POPC   C4A45258  29.102  15.217   7.364
 3461POPC   C1B45259  29.279  15.409   6.464
 3461POPC   C2B45260  29.285  15.327   6.764
 3461POPC   C3B45261  29.320  15.389   7.064
 3461POPC   C4B45262  29.258  15.389   7.364
 3462POPC   NC345263  42.354  19.817   5.564
 3462POPC   PO445264  42.352  19.837   5.864
 3462POPC   GL145265  42.329  19.810   6.164
 3462POPC   GL245266  42.273  19.721   6.164
 3462POPC   C1A45267  42.370  19.811   6.464
 3462POPC   D2A45268  42.313  19.794   6.764
 3462POPC   C3A45269  42.291  19.826   7.064
 3462POPC   C4A45270  42.313  19.793   7.364
 3462POPC   C1B45271  42.196  19.672   6.464
 3462POPC   C2B45272  42.151  19.645   6.764
 3462POPC   C3B45273  42.124  19.660   7.064
 3462POPC   C4B45274  42.187  19.687   7.364
 3463POPC   NC345275  25.313  14.396   5.564
 3463POPC   PO445276  25.227  14.413   5.864
 3463POPC   GL145277  25.307  14.398   6.164
 3463POPC   GL245278  25.187  14.401   6.164
 3463POPC   C1A45279  25.219  14.375   6.464
 3463POPC   D2A45280  25.313  14.420   6.764
 3463POPC   C3A45281  25.310  14.366   7.064
 3463POPC   C4A45282  25.260  14.417   7.364
 3463POPC   C1B45283  25.035  14.517   6.464
 3463POPC   C2B45284  25.007  14.459   6.764
 3463POPC   C3B45285  25.051  14.536   7.064
 3463POPC   C4B45286  25.000  14.480   7.364
 3464POPC   NC345287  24.538  43.911   5.564
 3464POPC   PO445288  24.472  43.839   5.864
 3464POPC   GL145289  24.441  43.899   6.164
 3464POPC   GL245290  24.581  44.006   6.164
 3464POPC   C1A45291  24.507  43.850   6.464
 3464POPC   D2A45292  24.443  43.869   6.764
 3464POPC   C3A45293  24.520  43.859   7.064
 3464POPC   C4A45294  24.516  43.867   7.364
 3464POPC   C1B45295  24.669  44.085   6.464
 3464POPC   C2B45296  24.678  44.030   6.764
 3464POPC   C3B45297  24.640  43.998   7.064
 3464POPC   C4B45298  24.693  44.066   7.364
 3465POPC   NC345299  24.498   3.559   5.564
 3465POPC   PO445300  24.460   3.498   5.864
 3465POPC   GL145301  24.491   3.575   6.164
 3465POPC   GL245302  24.577   3.449   6.164
 3465POPC   C1A45303  24.493   3.532   6.464
 3465POPC   D2A45304  24.502   3.530   6.764
 3465POPC   C3A45305  24.537   3.541   7.064
 3465POPC   C4A45306  24.453   3.517   7.364
 3465POPC   C1B45307  24.578   3.336   6.464
 3465POPC   C2B45308  24.597   3.334   6.764
 3465POPC   C3B45309  24.602   3.360   7.064
 3465POPC   C4B45310  24.616   3.372   7.364
 3466POPC   NC345311  22.988  32.243   5.564
 3466POPC   PO445312  22.944  32.279   5.864
 3466POPC   GL145313  22.889  32.271   6.164
 3466POPC   GL245314  22.940  32.128   6.164
 3466POPC   C1A45315  22.913  32.288   6.464
 3466POPC   D2A45316  22.927  32.251   6.764
 3466POPC   C3A45317  22.897  32.216   7.064
 3466POPC   C4A45318  22.898  32.233   7.364
 3466POPC   C1B45319  23.002  31.995   6.464
 3466POPC   C2B45320  22.937  31.999   6.764
 3466POPC   C3B45321  22.980  32.017   7.064
 3466POPC   C4B45322  22.918  32.042   7.364
 3467POPC   NC345323  28.410   5.069   5.564
 3467POPC   PO445324  28.399   5.058   5.864
 3467POPC   GL145325  28.344   5.082   6.164
 3467POPC   GL245326  28.412   4.961   6.164
 3467POPC   C1A45327  28.321   5.121   6.464
 3467POPC   D2A45328  28.332   5.053   6.764
 3467POPC   C3A45329  28.351   5.129   7.064
 3467POPC   C4A45330  28.324   5.140   7.364
 3467POPC   C1B45331  28.514   4.888   6.464
 3467POPC   C2B45332  28.498   4.877   6.764
 3467POPC   C3B45333  28.507   4.855   7.064
 3467POPC   C4B45334  28.504   4.906   7.364
 3468POPC   NC345335  29.935  32.294   5.564
 3468POPC   PO445336  29.949  32.205   5.864
 3468POPC   GL145337  29.942  32.219   6.164
 3468POPC   GL245338  29.967  32.322   6.164
 3468POPC   C1A45339  29.954  32.265   6.464
 3468POPC   D2A45340  29.935  32.259   6.764
 3468POPC   C3A45341  29.895  32.252   7.064
 3468POPC   C4A45342  29.916  32.233   7.364
 3468POPC   C1B45343  30.159  32.408   6.464
 3468POPC   C2B45344  30.073  32.396   6.764
 3468POPC   C3B45345  30.112  32.401   7.064
 3468POPC   C4B45346  30.141  32.365   7.364
 3469POPC   NC345347  29.906  44.642   5.564
 3469POPC   PO445348  29.947  44.677   5.864
 3469POPC   GL145349  29.902  44.626   6.164
 3469POPC   GL245350  29.772  44.776   6.164
 3469POPC   C1A45351  29.886  44.680   6.464
 3469POPC   D2A45352  29.902  44.686   6.764
 3469POPC   C3A45353  29.959  44.711   7.064
 3469POPC   C4A45354  29.913  44.670   7.364
 3469POPC   C1B45355  29.718  44.769   6.464
 3469POPC   C2B45356  29.720  44.780   6.764
 3469POPC   C3B45357  29.704  44.815   7.064
 3469POPC   C4B45358  29.705  44.803   7.364
 3470POPC   NC345359  35.338  29.103   5.564
 3470POPC   PO445360  35.376  29.102   5.864
 3470POPC   GL145361  35.386  29.126   6.164
 3470POPC   GL245362  35.425  29.036   6.164
 3470POPC   C1A45363  35.336  29.096   6.464
 3470POPC   D2A45364  35.312  29.113   6.764
 3470POPC   C3A45365  35.346  29.099   7.064
 3470POPC   C4A45366  35.387  29.112   7.364
 3470POPC   C1B45367  35.509  28.978   6.464
 3470POPC   C2B45368  35.496  28.911   6.764
 3470POPC   C3B45369  35.489  28.911   7.064
 3470POPC   C4B45370  35.499  28.915   7.364
 3471POPC   NC345371  15.957  43.890   5.564
 3471POPC   PO445372  15.974  43.896   5.864
 3471POPC   GL145373  15.967  43.844   6.164
 3471POPC   GL245374  15.877  43.827   6.164
 3471POPC   C1A45375  15.942  43.847   6.464
 3471POPC   D2A45376  15.980  43.847   6.764
 3471POPC   C3A45377  15.988  43.884   7.064
 3471POPC   C4A45378  15.960  43.870   7.364
 3471POPC   C1B45379  15.731  43.711   6.464
 3471POPC   C2B45380  15.743  43.728   6.764
 3471POPC   C3B45381  15.791  43.697   7.064
 3471POPC   C4B45382  15.775  43.680   7.364
 3472POPC   NC345383  14.424  10.508   5.564
 3472POPC   PO445384  14.450  10.570   5.864
 3472POPC   GL145385  14.407  10.568   6.164
 3472POPC   GL245386  14.452  10.664   6.164
 3472POPC   C1A45387  14.423  10.549   6.464
 3472POPC   D2A45388  14.399  10.512   6.764
 3472POPC   C3A45389  14.427  10.503   7.064
 3472POPC   C4A45390  14.364  10.566   7.364
 3472POPC   C1B45391  14.490  10.773   6.464
 3472POPC   C2B45392  14.519  10.733   6.764
 3472POPC   C3B45393  14.512  10.731   7.064
 3472POPC   C4B45394  14.505  10.739   7.364
 3473POPC   NC345395   0.424   2.807   5.564
 3473POPC   PO445396   0.442   2.756   5.864
 3473POPC   GL145397   0.427   2.747   6.164
 3473POPC   GL245398   0.536   2.712   6.164
 3473POPC   C1A45399   0.388   2.815   6.464
 3473POPC   D2A45400   0.414   2.742   6.764
 3473POPC   C3A45401   0.488   2.791   7.064
 3473POPC   C4A45402   0.439   2.765   7.364
 3473POPC   C1B45403   0.576   2.528   6.464
 3473POPC   C2B45404   0.630   2.519   6.764
 3473POPC   C3B45405   0.600   2.546   7.064
 3473POPC   C4B45406   0.625   2.545   7.364
 3474POPC   NC345407  11.340  38.504   5.564
 3474POPC   PO445408  11.316  38.469   5.864
 3474POPC   GL145409  11.252  38.426   6.164
 3474POPC   GL245410  11.390  38.384   6.164
 3474POPC   C1A45411  11.261  38.413   6.464
 3474POPC   D2A45412  11.258  38.479   6.764
 3474POPC   C3A45413  11.337  38.442   7.064
 3474POPC   C4A45414  11.306  38.443   7.364
 3474POPC   C1B45415  11.527  38.367   6.464
 3474POPC   C2B45416  11.570  38.415   6.764
 3474POPC   C3B45417  11.589  38.385   7.064
 3474POPC   C4B45418  11.559  38.368   7.364
 3475POPC   NC345419  26.013  23.730   5.564
 3475POPC   PO445420  26.065  23.737   5.864
 3475POPC   GL145421  26.046  23.731   6.164
 3475POPC   GL245422  25.986  23.803   6.164
 3475POPC   C1A45423  25.999  23.702   6.464
 3475POPC   D2A45424  26.065  23.667   6.764
 3475POPC   C3A45425  26.049  23.688   7.064
 3475POPC   C4A45426  26.037  23.724   7.364
 3475POPC   C1B45427  25.978  23.991   6.464
 3475POPC   C2B45428  25.972  23.960   6.764
 3475POPC   C3B45429  26.014  23.953   7.064
 3475POPC   C4B45430  26.000  23.946   7.364
 3476POPC   NC345431  14.450  39.973   5.564
 3476POPC   PO445432  14.396  39.959   5.864
 3476POPC   GL145433  14.374  40.057   6.164
 3476POPC   GL245434  14.406  40.123   6.164
 3476POPC   C1A45435  14.445  40.016   6.464
 3476POPC   D2A45436  14.438  39.973   6.764
 3476POPC   C3A45437  14.412  40.025   7.064
 3476POPC   C4A45438  14.448  40.038   7.364
 3476POPC   C1B45439  14.389  40.304   6.464
 3476POPC   C2B45440  14.387  40.276   6.764
 3476POPC   C3B45441  14.400  40.259   7.064
 3476POPC   C4B45442  14.397  40.252   7.364
 3477POPC   NC345443   9.714  12.088   5.564
 3477POPC   PO445444   9.771  12.096   5.864
 3477POPC   GL145445   9.784  12.109   6.164
 3477POPC   GL245446   9.674  12.107   6.164
 3477POPC   C1A45447   9.727  12.109   6.464
 3477POPC   D2A45448   9.720  12.111   6.764
 3477POPC   C3A45449   9.765  12.108   7.064
 3477POPC   C4A45450   9.763  12.065   7.364
 3477POPC   C1B45451   9.526  12.155   6.464
 3477POPC   C2B45452   9.466  12.098   6.764
 3477POPC   C3B45453   9.496  12.087   7.064
 3477POPC   C4B45454   9.530  12.072   7.364
 3478POPC   NC345455  42.362   3.525   5.564
 3478POPC   PO445456  42.364   3.525   5.864
 3478POPC   GL145457  42.302   3.506   6.164
 3478POPC   GL245458  42.371   3.467   6.164
 3478POPC   C1A45459  42.286   3.529   6.464
 3478POPC   D2A45460  42.343   3.522   6.764
 3478POPC   C3A45461  42.288   3.589   7.064
 3478POPC   C4A45462  42.330   3.545   7.364
 3478POPC   C1B45463  42.513   3.326   6.464
 3478POPC   C2B45464  42.480   3.314   6.764
 3478POPC   C3B45465  42.482   3.360   7.064
 3478POPC   C4B45466  42.512   3.356   7.364
 3479POPC   NC345467  39.225  43.159   5.564
 3479POPC   PO445468  39.241  43.073   5.864
 3479POPC   GL145469  39.200  43.146   6.164
 3479POPC   GL245470  39.335  43.066   6.164
 3479POPC   C1A45471  39.214  43.086   6.464
 3479POPC   D2A45472  39.273  43.094   6.764
 3479POPC   C3A45473  39.264  43.153   7.064
 3479POPC   C4A45474  39.224  43.062   7.364
 3479POPC   C1B45475  39.501  43.120   6.464
 3479POPC   C2B45476  39.473  43.047   6.764
 3479POPC   C3B45477  39.445  43.102   7.064
 3479POPC   C4B45478  39.458  43.080   7.364
 3480POPC   NC345479   1.962  28.385   5.564
 3480POPC   PO445480   1.957  28.379   5.864
 3480POPC   GL145481   1.942  28.346   6.164
 3480POPC   GL245482   2.077  28.241   6.164
 3480POPC   C1A45483   1.964  28.360   6.464
 3480POPC   D2A45484   2.021  28.321   6.764
 3480POPC   C3A45485   1.992  28.397   7.064
 3480POPC   C4A45486   2.021  28.363   7.364
 3480POPC   C1B45487   2.052  28.123   6.464
 3480POPC   C2B45488   2.110  28.151   6.764
 3480POPC   C3B45489   2.128  28.183   7.064
 3480POPC   C4B45490   2.048  28.090   7.364
 3481POPC   NC345491   6.638  26.816   5.564
 3481POPC   PO445492   6.613  26.863   5.864
 3481POPC   GL145493   6.690  26.784   6.164
 3481POPC   GL245494   6.499  26.803   6.164
 3481POPC   C1A45495   6.664  26.843   6.464
 3481POPC   D2A45496   6.644  26.793   6.764
 3481POPC   C3A45497   6.693  26.821   7.064
 3481POPC   C4A45498   6.603  26.767   7.364
 3481POPC   C1B45499   6.437  26.733   6.464
 3481POPC   C2B45500   6.374  26.761   6.764
 3481POPC   C3B45501   6.443  26.764   7.064
 3481POPC   C4B45502   6.424  26.739   7.364
 3482POPC   NC345503  30.653  19.862   5.564
 3482POPC   PO445504  30.653  19.830   5.864
 3482POPC   GL145505  30.708  19.884   6.164
 3482POPC   GL245506  30.565  19.741   6.164
 3482POPC   C1A45507  30.684  19.862   6.464
 3482POPC   D2A45508  30.693  19.791   6.764
 3482POPC   C3A45509  30.706  19.806   7.064
 3482POPC   C4A45510  30.662  19.823   7.364
 3482POPC   C1B45511  30.443  19.731   6.464
 3482POPC   C2B45512  30.486  19.769   6.764
 3482POPC   C3B45513  30.469  19.763   7.064
 3482POPC   C4B45514  30.517  19.729   7.364
 3483POPC   NC345515   7.392  39.270   5.564
 3483POPC   PO445516   7.421  39.232   5.864
 3483POPC   GL145517   7.442  39.254   6.164
 3483POPC   GL245518   7.470  39.396   6.164
 3483POPC   C1A45519   7.450  39.263   6.464
 3483POPC   D2A45520   7.390  39.232   6.764
 3483POPC   C3A45521   7.413  39.190   7.064
 3483POPC   C4A45522   7.429  39.184   7.364
 3483POPC   C1B45523   7.427  39.454   6.464
 3483POPC   C2B45524   7.458  39.477   6.764
 3483POPC   C3B45525   7.457  39.436   7.064
 3483POPC   C4B45526   7.465  39.512   7.364
 3484POPC   NC345527  12.870  35.345   5.564
 3484POPC   PO445528  12.826  35.358   5.864
 3484POPC   GL145529  12.887  35.334   6.164
 3484POPC   GL245530  12.970  35.311   6.164
 3484POPC   C1A45531  12.846  35.308   6.464
 3484POPC   D2A45532  12.850  35.369   6.764
 3484POPC   C3A45533  12.897  35.401   7.064
 3484POPC   C4A45534  12.872  35.397   7.364
 3484POPC   C1B45535  13.050  35.236   6.464
 3484POPC   C2B45536  13.076  35.220   6.764
 3484POPC   C3B45537  13.101  35.252   7.064
 3484POPC   C4B45538  13.079  35.204   7.364
 3485POPC   NC345539   4.358  43.895   5.564
 3485POPC   PO445540   4.279  43.853   5.864
 3485POPC   GL145541   4.361  43.892   6.164
 3485POPC   GL245542   4.401  43.859   6.164
 3485POPC   C1A45543   4.300  43.911   6.464
 3485POPC   D2A45544   4.291  43.870   6.764
 3485POPC   C3A45545   4.359  43.868   7.064
 3485POPC   C4A45546   4.313  43.906   7.364
 3485POPC   C1B45547   4.545  43.952   6.464
 3485POPC   C2B45548   4.602  43.971   6.764
 3485POPC   C3B45549   4.565  43.928   7.064
 3485POPC   C4B45550   4.611  43.976   7.364
 3486POPC   NC345551  22.910   0.462   5.564
 3486POPC   PO445552  22.981   0.440   5.864
 3486POPC   GL145553  22.915   0.449   6.164
 3486POPC   GL245554  23.069   0.493   6.164
 3486POPC   C1A45555  22.902   0.432   6.464
 3486POPC   D2A45556  22.955   0.409   6.764
 3486POPC   C3A45557  22.962   0.442   7.064
 3486POPC   C4A45558  22.913   0.456   7.364
 3486POPC   C1B45559  23.176   0.487   6.464
 3486POPC   C2B45560  23.159   0.482   6.764
 3486POPC   C3B45561  23.202   0.464   7.064
 3486POPC   C4B45562  23.205   0.460   7.364
 3487POPC   NC345563  18.281  23.696   5.564
 3487POPC   PO445564  18.296  23.695   5.864
 3487POPC   GL145565  18.272  23.722   6.164
 3487POPC   GL245566  18.168  23.734   6.164
 3487POPC   C1A45567  18.292  23.759   6.464
 3487POPC   D2A45568  18.300  23.709   6.764
 3487POPC   C3A45569  18.302  23.673   7.064
 3487POPC   C4A45570  18.292  23.703   7.364
 3487POPC   C1B45571  18.083  23.744   6.464
 3487POPC   C2B45572  18.076  23.779   6.764
 3487POPC   C3B45573  18.005  23.806   7.064
 3487POPC   C4B45574  18.087  23.813   7.364
 3488POPC   NC345575  44.706   6.681   5.564
 3488POPC   PO445576  44.678   6.667   5.864
 3488POPC   GL145577  44.617   6.603   6.164
 3488POPC   GL245578  44.521   6.689   6.164
 3488POPC   C1A45579  44.631   6.608   6.464
 3488POPC   D2A45580  44.681   6.667   6.764
 3488POPC   C3A45581  44.685   6.634   7.064
 3488POPC   C4A45582  44.676   6.662   7.364
 3488POPC   C1B45583  44.403   6.733   6.464
 3488POPC   C2B45584  44.454   6.769   6.764
 3488POPC   C3B45585  44.477   6.774   7.064
 3488POPC   C4B45586  44.437   6.795   7.364
 3489POPC   NC345587  35.306   1.950   5.564
 3489POPC   PO445588  35.315   2.031   5.864
 3489POPC   GL145589  35.368   1.967   6.164
 3489POPC   GL245590  35.385   2.123   6.164
 3489POPC   C1A45591  35.400   1.962   6.464
 3489POPC   D2A45592  35.369   1.948   6.764
 3489POPC   C3A45593  35.305   1.953   7.064
 3489POPC   C4A45594  35.357   2.011   7.364
 3489POPC   C1B45595  35.463   2.219   6.464
 3489POPC   C2B45596  35.507   2.221   6.764
 3489POPC   C3B45597  35.449   2.153   7.064
 3489POPC   C4B45598  35.446   2.213   7.364
 3490POPC   NC345599   6.615  41.598   5.564
 3490POPC   PO445600   6.604  41.574   5.864
 3490POPC   GL145601   6.639  41.542   6.164
 3490POPC   GL245602   6.511  41.518   6.164
 3490POPC   C1A45603   6.610  41.512   6.464
 3490POPC   D2A45604   6.657  41.544   6.764
 3490POPC   C3A45605   6.655  41.519   7.064
 3490POPC   C4A45606   6.637  41.588   7.364
 3490POPC   C1B45607   6.435  41.405   6.464
 3490POPC   C2B45608   6.431  41.396   6.764
 3490POPC   C3B45609   6.469  41.402   7.064
 3490POPC   C4B45610   6.510  41.406   7.364
 3491POPC   NC345611  15.190   8.995   5.564
 3491POPC   PO445612  15.178   8.972   5.864
 3491POPC   GL145613  15.179   8.923   6.164
 3491POPC   GL245614  15.143   8.895   6.164
 3491POPC   C1A45615  15.209   8.968   6.464
 3491POPC   D2A45616  15.208   9.011   6.764
 3491POPC   C3A45617  15.190   8.925   7.064
 3491POPC   C4A45618  15.197   8.992   7.364
 3491POPC   C1B45619  15.151   8.697   6.464
 3491POPC   C2B45620  15.179   8.716   6.764
 3491POPC   C3B45621  15.206   8.686   7.064
 3491POPC   C4B45622  15.190   8.764   7.364
 3492POPC   NC345623  15.177  17.511   5.564
 3492POPC   PO445624  15.212  17.467   5.864
 3492POPC   GL145625  15.203  17.522   6.164
 3492POPC   GL245626  15.101  17.610   6.164
 3492POPC   C1A45627  15.147  17.503   6.464
 3492POPC   D2A45628  15.196  17.505   6.764
 3492POPC   C3A45629  15.211  17.497   7.064
 3492POPC   C4A45630  15.188  17.457   7.364
 3492POPC   C1B45631  15.121  17.776   6.464
 3492POPC   C2B45632  15.095  17.759   6.764
 3492POPC   C3B45633  15.069  17.744   7.064
 3492POPC   C4B45634  15.064  17.720   7.364
 3493POPC   NC345635  24.523  21.373   5.564
 3493POPC   PO445636  24.487  21.428   5.864
 3493POPC   GL145637  24.458  21.396   6.164
 3493POPC   GL245638  24.407  21.336   6.164
 3493POPC   C1A45639  24.513  21.413   6.464
 3493POPC   D2A45640  24.486  21.348   6.764
 3493POPC   C3A45641  24.538  21.384   7.064
 3493POPC   C4A45642  24.451  21.387   7.364
 3493POPC   C1B45643  24.258  21.367   6.464
 3493POPC   C2B45644  24.273  21.373   6.764
 3493POPC   C3B45645  24.250  21.418   7.064
 3493POPC   C4B45646  24.210  21.336   7.364
 3494POPC   NC345647  27.558  21.432   5.564
 3494POPC   PO445648  27.618  21.360   5.864
 3494POPC   GL145649  27.556  21.400   6.164
 3494POPC   GL245650  27.737  21.444   6.164
 3494POPC   C1A45651  27.584  21.431   6.464
 3494POPC   D2A45652  27.571  21.436   6.764
 3494POPC   C3A45653  27.584  21.350   7.064
 3494POPC   C4A45654  27.564  21.373   7.364
 3494POPC   C1B45655  27.821  21.460   6.464
 3494POPC   C2B45656  27.838  21.480   6.764
 3494POPC   C3B45657  27.793  21.426   7.064
 3494POPC   C4B45658  27.855  21.449   7.364
 3495POPC   NC345659  11.284  36.170   5.564
 3495POPC   PO445660  11.302  36.142   5.864
 3495POPC   GL145661  11.321  36.134   6.164
 3495POPC   GL245662  11.381  36.105   6.164
 3495POPC   C1A45663  11.333  36.107   6.464
 3495POPC   D2A45664  11.341  36.152   6.764
 3495POPC   C3A45665  11.297  36.161   7.064
 3495POPC   C4A45666  11.346  36.142   7.364
 3495POPC   C1B45667  11.587  36.131   6.464
 3495POPC   C2B45668  11.534  36.147   6.764
 3495POPC   C3B45669  11.532  36.180   7.064
 3495POPC   C4B45670  11.572  36.135   7.364
 3496POPC   NC345671  19.859  22.976   5.564
 3496POPC   PO445672  19.836  22.927   5.864
 3496POPC   GL145673  19.804  22.911   6.164
 3496POPC   GL245674  19.924  22.865   6.164
 3496POPC   C1A45675  19.826  22.970   6.464
 3496POPC   D2A45676  19.864  22.930   6.764
 3496POPC   C3A45677  19.874  22.912   7.064
 3496POPC   C4A45678  19.826  22.976   7.364
 3496POPC   C1B45679  19.976  22.714   6.464
 3496POPC   C2B45680  20.020  22.745   6.764
 3496POPC   C3B45681  20.008  22.766   7.064
 3496POPC   C4B45682  19.972  22.760   7.364
 3497POPC   NC345683   8.167  26.044   5.564
 3497POPC   PO445684   8.228  26.029   5.864
 3497POPC   GL145685   8.225  26.083   6.164
 3497POPC   GL245686   8.240  26.163   6.164
 3497POPC   C1A45687   8.221  26.074   6.464
 3497POPC   D2A45688   8.192  26.027   6.764
 3497POPC   C3A45689   8.223  26.073   7.064
 3497POPC   C4A45690   8.172  26.071   7.364
 3497POPC   C1B45691   8.338  26.239   6.464
 3497POPC   C2B45692   8.427  26.251   6.764
 3497POPC   C3B45693   8.417  26.197   7.064
 3497POPC   C4B45694   8.413  26.194   7.364
 3498POPC   NC345695  35.326   8.966   5.564
 3498POPC   PO445696  35.307   9.001   5.864
 3498POPC   GL145697  35.374   8.925   6.164
 3498POPC   GL245698  35.302   9.111   6.164
 3498POPC   C1A45699  35.375   8.961   6.464
 3498POPC   D2A45700  35.398   9.003   6.764
 3498POPC   C3A45701  35.386   8.968   7.064
 3498POPC   C4A45702  35.394   8.950   7.364
 3498POPC   C1B45703  35.370   9.240   6.464
 3498POPC   C2B45704  35.345   9.221   6.764
 3498POPC   C3B45705  35.374   9.187   7.064
 3498POPC   C4B45706  35.302   9.241   7.364
 3499POPC   NC345707  15.172  42.305   5.564
 3499POPC   PO445708  15.151  42.329   5.864
 3499POPC   GL145709  15.134  42.301   6.164
 3499POPC   GL245710  15.243  42.238   6.164
 3499POPC   C1A45711  15.180  42.295   6.464
 3499POPC   D2A45712  15.146  42.346   6.764
 3499POPC   C3A45713  15.135  42.361   7.064
 3499POPC   C4A45714  15.208  42.297   7.364
 3499POPC   C1B45715  15.299  42.054   6.464
 3499POPC   C2B45716  15.267  42.055   6.764
 3499POPC   C3B45717  15.272  42.132   7.064
 3499POPC   C4B45718  15.251  42.138   7.364
 3500POPC   NC345719  26.846   6.656   5.564
 3500POPC   PO445720  26.844   6.688   5.864
 3500POPC   GL145721  26.823   6.658   6.164
 3500POPC   GL245722  26.943   6.667   6.164
 3500POPC   C1A45723  26.831   6.624   6.464
 3500POPC   D2A45724  26.790   6.630   6.764
 3500POPC   C3A45725  26.798   6.687   7.064
 3500POPC   C4A45726  26.812   6.604   7.364
 3500POPC   C1B45727  27.086   6.635   6.464
 3500POPC   C2B45728  27.067   6.662   6.764
 3500POPC   C3B45729  27.078   6.651   7.064
 3500POPC   C4B45730  27.086   6.610   7.364
 3501POPC   NC345731  13.674  39.199   5.564
 3501POPC   PO445732  13.581  39.259   5.864
 3501POPC   GL145733  13.665  39.230   6.164
 3501POPC   GL245734  13.588  39.382   6.164
 3501POPC   C1A45735  13.626  39.279   6.464
 3501POPC   D2A45736  13.648  39.254   6.764
 3501POPC   C3A45737  13.668  39.265   7.064
 3501POPC   C4A45738  13.592  39.217   7.364
 3501POPC   C1B45739  13.605  39.500   6.464
 3501POPC   C2B45740  13.624  39.486   6.764
 3501POPC   C3B45741  13.564  39.462   7.064
 3501POPC   C4B45742  13.594  39.486   7.364
 3502POPC   NC345743  29.117  26.777   5.564
 3502POPC   PO445744  29.132  26.804   5.864
 3502POPC   GL145745  29.158  26.778   6.164
 3502POPC   GL245746  29.085  26.673   6.164
 3502POPC   C1A45747  29.138  26.842   6.464
 3502POPC   D2A45748  29.145  26.827   6.764
 3502POPC   C3A45749  29.183  26.835   7.064
 3502POPC   C4A45750  29.192  26.791   7.364
 3502POPC   C1B45751  29.069  26.618   6.464
 3502POPC   C2B45752  29.050  26.555   6.764
 3502POPC   C3B45753  29.070  26.575   7.064
 3502POPC   C4B45754  29.074  26.586   7.364
 3503POPC   NC345755  22.180  32.239   5.564
 3503POPC   PO445756  22.183  32.298   5.864
 3503POPC   GL145757  22.131  32.280   6.164
 3503POPC   GL245758  22.018  32.334   6.164
 3503POPC   C1A45759  22.173  32.219   6.464
 3503POPC   D2A45760  22.188  32.247   6.764
 3503POPC   C3A45761  22.202  32.218   7.064
 3503POPC   C4A45762  22.169  32.232   7.364
 3503POPC   C1B45763  21.880  32.368   6.464
 3503POPC   C2B45764  21.887  32.343   6.764
 3503POPC   C3B45765  21.879  32.304   7.064
 3503POPC   C4B45766  21.912  32.339   7.364
 3504POPC   NC345767  12.840  40.816   5.564
 3504POPC   PO445768  12.832  40.823   5.864
 3504POPC   GL145769  12.860  40.787   6.164
 3504POPC   GL245770  12.772  40.748   6.164
 3504POPC   C1A45771  12.864  40.742   6.464
 3504POPC   D2A45772  12.872  40.794   6.764
 3504POPC   C3A45773  12.846  40.810   7.064
 3504POPC   C4A45774  12.826  40.762   7.364
 3504POPC   C1B45775  12.566  40.806   6.464
 3504POPC   C2B45776  12.563  40.757   6.764
 3504POPC   C3B45777  12.604  40.765   7.064
 3504POPC   C4B45778  12.590  40.774   7.364
 3505POPC   NC345779  19.015   3.534   5.564
 3505POPC   PO445780  19.083   3.586   5.864
 3505POPC   GL145781  19.076   3.517   6.164
 3505POPC   GL245782  18.966   3.438   6.164
 3505POPC   C1A45783  19.100   3.518   6.464
 3505POPC   D2A45784  19.092   3.503   6.764
 3505POPC   C3A45785  19.081   3.541   7.064
 3505POPC   C4A45786  19.049   3.537   7.364
 3505POPC   C1B45787  18.954   3.336   6.464
 3505POPC   C2B45788  18.887   3.314   6.764
 3505POPC   C3B45789  18.933   3.315   7.064
 3505POPC   C4B45790  18.979   3.304   7.364
 3506POPC   NC345791  32.291   2.033   5.564
 3506POPC   PO445792  32.259   1.990   5.864
 3506POPC   GL145793  32.256   1.966   6.164
 3506POPC   GL245794  32.371   1.996   6.164
 3506POPC   C1A45795  32.288   1.952   6.464
 3506POPC   D2A45796  32.267   2.037   6.764
 3506POPC   C3A45797  32.269   1.981   7.064
 3506POPC   C4A45798  32.243   1.969   7.364
 3506POPC   C1B45799  32.495   1.913   6.464
 3506POPC   C2B45800  32.464   1.908   6.764
 3506POPC   C3B45801  32.531   1.945   7.064
 3506POPC   C4B45802  32.501   1.980   7.364
 3507POPC   NC345803  12.831  19.053   5.564
 3507POPC   PO445804  12.809  19.030   5.864
 3507POPC   GL145805  12.873  19.016   6.164
 3507POPC   GL245806  12.862  18.981   6.164
 3507POPC   C1A45807  12.849  19.012   6.464
 3507POPC   D2A45808  12.865  19.028   6.764
 3507POPC   C3A45809  12.878  19.059   7.064
 3507POPC   C4A45810  12.814  19.082   7.364
 3507POPC   C1B45811  12.877  18.831   6.464
 3507POPC   C2B45812  12.849  18.761   6.764
 3507POPC   C3B45813  12.876  18.836   7.064
 3507POPC   C4B45814  12.890  18.779   7.364
 3508POPC   NC345815   2.007  43.145   5.564
 3508POPC   PO445816   1.956  43.132   5.864
 3508POPC   GL145817   2.018  43.071   6.164
 3508POPC   GL245818   2.101  43.036   6.164
 3508POPC   C1A45819   2.007  43.145   6.464
 3508POPC   D2A45820   2.020  43.064   6.764
 3508POPC   C3A45821   1.978  43.062   7.064
 3508POPC   C4A45822   1.976  43.091   7.364
 3508POPC   C1B45823   2.162  43.034   6.464
 3508POPC   C2B45824   2.189  42.971   6.764
 3508POPC   C3B45825   2.168  43.006   7.064
 3508POPC   C4B45826   2.254  42.952   7.364
 3509POPC   NC345827  28.323  24.516   5.564
 3509POPC   PO445828  28.401  24.467   5.864
 3509POPC   GL145829  28.330  24.509   6.164
 3509POPC   GL245830  28.224  24.518   6.164
 3509POPC   C1A45831  28.379  24.440   6.464
 3509POPC   D2A45832  28.371  24.517   6.764
 3509POPC   C3A45833  28.417  24.526   7.064
 3509POPC   C4A45834  28.398  24.473   7.364
 3509POPC   C1B45835  28.172  24.407   6.464
 3509POPC   C2B45836  28.130  24.482   6.764
 3509POPC   C3B45837  28.120  24.477   7.064
 3509POPC   C4B45838  28.163  24.468   7.364
 3510POPC   NC345839  12.897  33.007   5.564
 3510POPC   PO445840  12.839  33.005   5.864
 3510POPC   GL145841  12.816  33.053   6.164
 3510POPC   GL245842  12.954  32.976   6.164
 3510POPC   C1A45843  12.880  33.006   6.464
 3510POPC   D2A45844  12.816  32.975   6.764
 3510POPC   C3A45845  12.881  33.074   7.064
 3510POPC   C4A45846  12.842  32.996   7.364
 3510POPC   C1B45847  13.062  33.041   6.464
 3510POPC   C2B45848  13.149  33.055   6.764
 3510POPC   C3B45849  13.148  32.979   7.064
 3510POPC   C4B45850  13.056  33.047   7.364
 3511POPC   NC345851  29.189  41.542   5.564
 3511POPC   PO445852  29.156  41.542   5.864
 3511POPC   GL145853  29.105  41.554   6.164
 3511POPC   GL245854  29.101  41.633   6.164
 3511POPC   C1A45855  29.130  41.517   6.464
 3511POPC   D2A45856  29.106  41.532   6.764
 3511POPC   C3A45857  29.156  41.591   7.064
 3511POPC   C4A45858  29.167  41.512   7.364
 3511POPC   C1B45859  29.100  41.782   6.464
 3511POPC   C2B45860  29.115  41.821   6.764
 3511POPC   C3B45861  29.058  41.755   7.064
 3511POPC   C4B45862  29.062  41.815   7.364
 3512POPC   NC345863  15.998   2.013   5.564
 3512POPC   PO445864  15.988   1.950   5.864
 3512POPC   GL145865  15.955   1.969   6.164
 3512POPC   GL245866  15.958   2.079   6.164
 3512POPC   C1A45867  15.967   1.959   6.464
 3512POPC   D2A45868  15.980   1.987   6.764
 3512POPC   C3A45869  15.934   2.000   7.064
 3512POPC   C4A45870  15.974   1.978   7.364
 3512POPC   C1B45871  15.944   2.260   6.464
 3512POPC   C2B45872  15.896   2.217   6.764
 3512POPC   C3B45873  15.938   2.188   7.064
 3512POPC   C4B45874  15.964   2.266   7.364
 3513POPC   NC345875  28.364  43.909   5.564
 3513POPC   PO445876  28.383  43.883   5.864
 3513POPC   GL145877  28.371  43.914   6.164
 3513POPC   GL245878  28.340  43.800   6.164
 3513POPC   C1A45879  28.386  43.926   6.464
 3513POPC   D2A45880  28.325  43.884   6.764
 3513POPC   C3A45881  28.379  43.893   7.064
 3513POPC   C4A45882  28.322  43.856   7.364
 3513POPC   C1B45883  28.235  43.642   6.464
 3513POPC   C2B45884  28.273  43.619   6.764
 3513POPC   C3B45885  28.270  43.699   7.064
 3513POPC   C4B45886  28.303  43.693   7.364
 3514POPC   NC345887  27.611  26.799   5.564
 3514POPC   PO445888  27.607  26.779   5.864
 3514POPC   GL145889  27.549  26.835   6.164
 3514POPC   GL245890  27.468  26.688   6.164
 3514POPC   C1A45891  27.608  26.799   6.464
 3514POPC   D2A45892  27.609  26.827   6.764
 3514POPC   C3A45893  27.544  26.854   7.064
 3514POPC   C4A45894  27.556  26.851   7.364
 3514POPC   C1B45895  27.442  26.668   6.464
 3514POPC   C2B45896  27.408  26.620   6.764
 3514POPC   C3B45897  27.431  26.705   7.064
 3514POPC   C4B45898  27.395  26.665   7.364
 3515POPC   NC345899  15.946  23.683   5.564
 3515POPC   PO445900  15.959  23.687   5.864
 3515POPC   GL145901  15.909  23.716   6.164
 3515POPC   GL245902  16.073  23.723   6.164
 3515POPC   C1A45903  15.932  23.703   6.464
 3515POPC   D2A45904  15.932  23.715   6.764
 3515POPC   C3A45905  15.997  23.714   7.064
 3515POPC   C4A45906  15.925  23.674   7.364
 3515POPC   C1B45907  16.210  23.690   6.464
 3515POPC   C2B45908  16.192  23.690   6.764
 3515POPC   C3B45909  16.227  23.712   7.064
 3515POPC   C4B45910  16.159  23.639   7.364
 3516POPC   NC345911   1.944  44.614   5.564
 3516POPC   PO445912   2.021  44.677   5.864
 3516POPC   GL145913   2.006  44.692   6.164
 3516POPC   GL245914   2.039  44.831   6.164
 3516POPC   C1A45915   1.991  44.653   6.464
 3516POPC   D2A45916   1.974  44.667   6.764
 3516POPC   C3A45917   1.984  44.690   7.064
 3516POPC   C4A45918   2.034  44.654   7.364
 3516POPC   C1B45919   2.099  44.883   6.464
 3516POPC   C2B45920   2.029  44.923   6.764
 3516POPC   C3B45921   2.075  44.918   7.064
 3516POPC   C4B45922   2.053  44.949   7.364
 3517POPC   NC345923  25.999  29.175   5.564
 3517POPC   PO445924  26.064  29.166   5.864
 3517POPC   GL145925  26.059  29.185   6.164
 3517POPC   GL245926  25.910  29.211   6.164
 3517POPC   C1A45927  26.004  29.125   6.464
 3517POPC   D2A45928  26.008  29.129   6.764
 3517POPC   C3A45929  26.038  29.144   7.064
 3517POPC   C4A45930  26.076  29.125   7.364
 3517POPC   C1B45931  25.819  29.233   6.464
 3517POPC   C2B45932  25.749  29.163   6.764
 3517POPC   C3B45933  25.790  29.228   7.064
 3517POPC   C4B45934  25.801  29.236   7.364
 3518POPC   NC345935  20.605  12.867   5.564
 3518POPC   PO445936  20.626  12.846   5.864
 3518POPC   GL145937  20.600  12.884   6.164
 3518POPC   GL245938  20.674  13.020   6.164
 3518POPC   C1A45939  20.621  12.844   6.464
 3518POPC   D2A45940  20.643  12.877   6.764
 3518POPC   C3A45941  20.596  12.841   7.064
 3518POPC   C4A45942  20.581  12.814   7.364
 3518POPC   C1B45943  20.706  13.063   6.464
 3518POPC   C2B45944  20.667  13.122   6.764
 3518POPC   C3B45945  20.668  13.073   7.064
 3518POPC   C4B45946  20.694  13.097   7.364
 3519POPC   NC345947  15.951  30.703   5.564
 3519POPC   PO445948  15.923  30.684   5.864
 3519POPC   GL145949  15.936  30.745   6.164
 3519POPC   GL245950  16.065  30.708   6.164
 3519POPC   C1A45951  15.977  30.729   6.464
 3519POPC   D2A45952  15.982  30.659   6.764
 3519POPC   C3A45953  15.994  30.698   7.064
 3519POPC   C4A45954  15.980  30.721   7.364
 3519POPC   C1B45955  16.253  30.652   6.464
 3519POPC   C2B45956  16.229  30.677   6.764
 3519POPC   C3B45957  16.200  30.655   7.064
 3519POPC   C4B45958  16.217  30.681   7.364
 3520POPC   NC345959   6.611  15.138   5.564
 3520POPC   PO445960   6.626  15.205   5.864
 3520POPC   GL145961   6.644  15.223   6.164
 3520POPC   GL245962   6.713  15.056   6.164
 3520POPC   C1A45963   6.644  15.200   6.464
 3520POPC   D2A45964   6.611  15.203   6.764
 3520POPC   C3A45965   6.681  15.227   7.064
 3520POPC   C4A45966   6.659  15.165   7.364
 3520POPC   C1B45967   6.765  14.947   6.464
 3520POPC   C2B45968   6.807  14.996   6.764
 3520POPC   C3B45969   6.779  14.977   7.064
 3520POPC   C4B45970   6.752  14.961   7.364
 3521POPC   NC345971  40.769  39.233   5.564
 3521POPC   PO445972  40.771  39.207   5.864
 3521POPC   GL145973  40.787  39.185   6.164
 3521POPC   GL245974  40.759  39.359   6.164
 3521POPC   C1A45975  40.832  39.228   6.464
 3521POPC   D2A45976  40.737  39.194   6.764
 3521POPC   C3A45977  40.747  39.183   7.064
 3521POPC   C4A45978  40.750  39.271   7.364
 3521POPC   C1B45979  40.866  39.481   6.464
 3521POPC   C2B45980  40.802  39.521   6.764
 3521POPC   C3B45981  40.838  39.516   7.064
 3521POPC   C4B45982  40.837  39.518   7.364
 3522POPC   NC345983  20.621   5.899   5.564
 3522POPC   PO445984  20.572   5.881   5.864
 3522POPC   GL145985  20.657   5.822   6.164
 3522POPC   GL245986  20.742   5.903   6.164
 3522POPC   C1A45987  20.594   5.910   6.464
 3522POPC   D2A45988  20.649   5.868   6.764
 3522POPC   C3A45989  20.591   5.832   7.064
 3522POPC   C4A45990  20.593   5.907   7.364
 3522POPC   C1B45991  20.821   6.024   6.464
 3522POPC   C2B45992  20.830   5.960   6.764
 3522POPC   C3B45993  20.825   5.978   7.064
 3522POPC   C4B45994  20.826   5.997   7.364
 3523POPC   NC345995  18.270  12.081   5.564
 3523POPC   PO445996  18.322  12.118   5.864
 3523POPC   GL145997  18.265  12.086   6.164
 3523POPC   GL245998  18.405  11.986   6.164
 3523POPC   C1A45999  18.271  12.122   6.464
 3523POPC   D2A46000  18.264  12.100   6.764
 3523POPC   C3A46001  18.252  12.113   7.064
 3523POPC   C4A46002  18.305  12.027   7.364
 3523POPC   C1B46003  18.489  11.940   6.464
 3523POPC   C2B46004  18.479  11.933   6.764
 3523POPC   C3B46005  18.527  11.953   7.064
 3523POPC   C4B46006  18.482  12.022   7.364
 3524POPC   NC346007  29.968   2.025   5.564
 3524POPC   PO446008  29.888   2.030   5.864
 3524POPC   GL146009  29.879   1.986   6.164
 3524POPC   GL246010  29.894   2.113   6.164
 3524POPC   C1A46011  29.891   1.959   6.464
 3524POPC   D2A46012  29.910   1.974   6.764
 3524POPC   C3A46013  29.964   1.959   7.064
 3524POPC   C4A46014  29.932   1.957   7.364
 3524POPC   C1B46015  29.864   2.239   6.464
 3524POPC   C2B46016  29.863   2.284   6.764
 3524POPC   C3B46017  29.890   2.238   7.064
 3524POPC   C4B46018  29.851   2.195   7.364
 3525POPC   NC346019   3.521  11.255   5.564
 3525POPC   PO446020   3.500  11.343   5.864
 3525POPC   GL146021   3.540  11.295   6.164
 3525POPC   GL246022   3.515  11.441   6.164
 3525POPC   C1A46023   3.495  11.342   6.464
 3525POPC   D2A46024   3.549  11.329   6.764
 3525POPC   C3A46025   3.520  11.258   7.064
 3525POPC   C4A46026   3.524  11.334   7.364
 3525POPC   C1B46027   3.471  11.564   6.464
 3525POPC   C2B46028   3.447  11.561   6.764
 3525POPC   C3B46029   3.453  11.569   7.064
 3525POPC   C4B46030   3.538  11.586   7.364
 3526POPC   NC346031  25.227   2.033   5.564
 3526POPC   PO446032  25.252   1.959   5.864
 3526POPC   GL146033  25.311   1.983   6.164
 3526POPC   GL246034  25.215   2.059   6.164
 3526POPC   C1A46035  25.217   1.953   6.464
 3526POPC   D2A46036  25.286   2.030   6.764
 3526POPC   C3A46037  25.301   1.955   7.064
 3526POPC   C4A46038  25.307   1.951   7.364
 3526POPC   C1B46039  25.125   2.174   6.464
 3526POPC   C2B46040  25.214   2.238   6.764
 3526POPC   C3B46041  25.133   2.241   7.064
 3526POPC   C4B46042  25.139   2.226   7.364
 3527POPC   NC346043  36.952  26.838   5.564
 3527POPC   PO446044  36.936  26.801   5.864
 3527POPC   GL146045  36.905  26.804   6.164
 3527POPC   GL246046  36.955  26.694   6.164
 3527POPC   C1A46047  36.942  26.853   6.464
 3527POPC   D2A46048  36.910  26.796   6.764
 3527POPC   C3A46049  36.893  26.794   7.064
 3527POPC   C4A46050  36.909  26.797   7.364
 3527POPC   C1B46051  36.994  26.596   6.464
 3527POPC   C2B46052  36.990  26.604   6.764
 3527POPC   C3B46053  37.030  26.582   7.064
 3527POPC   C4B46054  37.010  26.580   7.364
 3528POPC   NC346055  36.870  38.484   5.564
 3528POPC   PO446056  36.853  38.440   5.864
 3528POPC   GL146057  36.878  38.479   6.164
 3528POPC   GL246058  36.846  38.620   6.164
 3528POPC   C1A46059  36.897  38.443   6.464
 3528POPC   D2A46060  36.891  38.484   6.764
 3528POPC   C3A46061  36.870  38.499   7.064
 3528POPC   C4A46062  36.854  38.446   7.364
 3528POPC   C1B46063  36.795  38.701   6.464
 3528POPC   C2B46064  36.847  38.699   6.764
 3528POPC   C3B46065  36.841  38.663   7.064
 3528POPC   C4B46066  36.867  38.721   7.364
 3529POPC   NC346067  43.934  41.591   5.564
 3529POPC   PO446068  43.920  41.527   5.864
 3529POPC   GL146069  43.881  41.537   6.164
 3529POPC   GL246070  43.981  41.606   6.164
 3529POPC   C1A46071  43.894  41.539   6.464
 3529POPC   D2A46072  43.848  41.572   6.764
 3529POPC   C3A46073  43.868  41.602   7.064
 3529POPC   C4A46074  43.862  41.581   7.364
 3529POPC   C1B46075  44.137  41.566   6.464
 3529POPC   C2B46076  44.168  41.617   6.764
 3529POPC   C3B46077  44.136  41.663   7.064
 3529POPC   C4B46078  44.120  41.661   7.364
 3530POPC   NC346079  10.511  25.269   5.564
 3530POPC   PO446080  10.562  25.275   5.864
 3530POPC   GL146081  10.524  25.280   6.164
 3530POPC   GL246082  10.520  25.174   6.164
 3530POPC   C1A46083  10.542  25.278   6.464
 3530POPC   D2A46084  10.537  25.266   6.764
 3530POPC   C3A46085  10.488  25.295   7.064
 3530POPC   C4A46086  10.560  25.274   7.364
 3530POPC   C1B46087  10.470  24.975   6.464
 3530POPC   C2B46088  10.463  24.970   6.764
 3530POPC   C3B46089  10.482  24.987   7.064
 3530POPC   C4B46090  10.434  25.045   7.364
 3531POPC   NC346091  31.458  29.883   5.564
 3531POPC   PO446092  31.508  29.933   5.864
 3531POPC   GL146093  31.430  29.939   6.164
 3531POPC   GL246094  31.557  29.794   6.164
 3531POPC   C1A46095  31.474  29.876   6.464
 3531POPC   D2A46096  31.426  29.891   6.764
 3531POPC   C3A46097  31.514  29.878   7.064
 3531POPC   C4A46098  31.453  29.894   7.364
 3531POPC   C1B46099  31.580  29.749   6.464
 3531POPC   C2B46100  31.587  29.742   6.764
 3531POPC   C3B46101  31.626  29.703   7.064
 3531POPC   C4B46102  31.598  29.717   7.364
 3532POPC   NC346103  34.574  32.230   5.564
 3532POPC   PO446104  34.529  32.206   5.864
 3532POPC   GL146105  34.539  32.236   6.164
 3532POPC   GL246106  34.650  32.144   6.164
 3532POPC   C1A46107  34.621  32.265   6.464
 3532POPC   D2A46108  34.617  32.210   6.764
 3532POPC   C3A46109  34.625  32.238   7.064
 3532POPC   C4A46110  34.544  32.256   7.364
 3532POPC   C1B46111  34.729  32.054   6.464
 3532POPC   C2B46112  34.802  32.087   6.764
 3532POPC   C3B46113  34.755  32.085   7.064
 3532POPC   C4B46114  34.766  32.066   7.364
 3533POPC   NC346115   4.325   9.699   5.564
 3533POPC   PO446116   4.322   9.770   5.864
 3533POPC   GL146117   4.281   9.700   6.164
 3533POPC   GL246118   4.341   9.659   6.164
 3533POPC   C1A46119   4.283   9.793   6.464
 3533POPC   D2A46120   4.339   9.740   6.764
 3533POPC   C3A46121   4.364   9.779   7.064
 3533POPC   C4A46122   4.334   9.749   7.364
 3533POPC   C1B46123   4.265   9.508   6.464
 3533POPC   C2B46124   4.254   9.467   6.764
 3533POPC   C3B46125   4.283   9.483   7.064
 3533POPC   C4B46126   4.246   9.493   7.364
 3534POPC   NC346127  39.275  26.017   5.564
 3534POPC   PO446128  39.257  25.999   5.864
 3534POPC   GL146129  39.186  26.030   6.164
 3534POPC   GL246130  39.133  26.127   6.164
 3534POPC   C1A46131  39.217  26.053   6.464
 3534POPC   D2A46132  39.248  26.028   6.764
 3534POPC   C3A46133  39.193  26.038   7.064
 3534POPC   C4A46134  39.198  26.009   7.364
 3534POPC   C1B46135  39.042  26.171   6.464
 3534POPC   C2B46136  39.018  26.231   6.764
 3534POPC   C3B46137  39.023  26.265   7.064
 3534POPC   C4B46138  39.088  26.180   7.364
 3535POPC   NC346139   5.867   8.927   5.564
 3535POPC   PO446140   5.915   8.975   5.864
 3535POPC   GL146141   5.842   8.925   6.164
 3535POPC   GL246142   6.027   8.997   6.164
 3535POPC   C1A46143   5.843   8.990   6.464
 3535POPC   D2A46144   5.892   9.014   6.764
 3535POPC   C3A46145   5.873   8.932   7.064
 3535POPC   C4A46146   5.861   8.941   7.364
 3535POPC   C1B46147   6.138   9.066   6.464
 3535POPC   C2B46148   6.111   9.007   6.764
 3535POPC   C3B46149   6.128   8.998   7.064
 3535POPC   C4B46150   6.094   9.079   7.364
 3536POPC   NC346151   1.225  32.266   5.564
 3536POPC   PO446152   1.195  32.199   5.864
 3536POPC   GL146153   1.221  32.294   6.164
 3536POPC   GL246154   1.308  32.169   6.164
 3536POPC   C1A46155   1.193  32.221   6.464
 3536POPC   D2A46156   1.221  32.245   6.764
 3536POPC   C3A46157   1.184  32.236   7.064
 3536POPC   C4A46158   1.230  32.265   7.364
 3536POPC   C1B46159   1.396  32.063   6.464
 3536POPC   C2B46160   1.366  32.082   6.764
 3536POPC   C3B46161   1.409  32.021   7.064
 3536POPC   C4B46162   1.358  32.041   7.364
 3537POPC   NC346163  26.817   7.453   5.564
 3537POPC   PO446164  26.801   7.410   5.864
 3537POPC   GL146165  26.813   7.439   6.164
 3537POPC   GL246166  26.711   7.394   6.164
 3537POPC   C1A46167  26.770   7.449   6.464
 3537POPC   D2A46168  26.834   7.440   6.764
 3537POPC   C3A46169  26.855   7.387   7.064
 3537POPC   C4A46170  26.823   7.435   7.364
 3537POPC   C1B46171  26.565   7.462   6.464
 3537POPC   C2B46172  26.611   7.451   6.764
 3537POPC   C3B46173  26.575   7.448   7.064
 3537POPC   C4B46174  26.543   7.376   7.364
 3538POPC   NC346175  19.024   2.018   5.564
 3538POPC   PO446176  19.048   1.952   5.864
 3538POPC   GL146177  19.098   2.024   6.164
 3538POPC   GL246178  19.086   1.876   6.164
 3538POPC   C1A46179  19.098   1.964   6.464
 3538POPC   D2A46180  19.009   2.032   6.764
 3538POPC   C3A46181  19.044   1.980   7.064
 3538POPC   C4A46182  19.046   2.009   7.364
 3538POPC   C1B46183  19.003   1.695   6.464
 3538POPC   C2B46184  19.031   1.753   6.764
 3538POPC   C3B46185  19.073   1.723   7.064
 3538POPC   C4B46186  19.091   1.700   7.364
 3539POPC   NC346187   4.341  36.875   5.564
 3539POPC   PO446188   4.268  36.895   5.864
 3539POPC   GL146189   4.334  36.892   6.164
 3539POPC   GL246190   4.217  36.886   6.164
 3539POPC   C1A46191   4.285  36.947   6.464
 3539POPC   D2A46192   4.304  36.871   6.764
 3539POPC   C3A46193   4.363  36.892   7.064
 3539POPC   C4A46194   4.295  36.871   7.364
 3539POPC   C1B46195   4.084  36.792   6.464
 3539POPC   C2B46196   4.041  36.841   6.764
 3539POPC   C3B46197   4.056  36.848   7.064
 3539POPC   C4B46198   4.052  36.818   7.364
 3540POPC   NC346199  44.664  19.086   5.564
 3540POPC   PO446200  44.709  19.084   5.864
 3540POPC   GL146201  44.675  19.016   6.164
 3540POPC   GL246202  44.732  18.975   6.164
 3540POPC   C1A46203  44.643  19.092   6.464
 3540POPC   D2A46204  44.675  19.035   6.764
 3540POPC   C3A46205  44.649  19.051   7.064
 3540POPC   C4A46206  44.633  19.041   7.364
 3540POPC   C1B46207  44.853  18.928   6.464
 3540POPC   C2B46208  44.923  18.986   6.764
 3540POPC   C3B46209  44.867  18.906   7.064
 3540POPC   C4B46210  44.918  18.929   7.364
 3541POPC   NC346211  36.090  27.594   5.564
 3541POPC   PO446212  36.105  27.598   5.864
 3541POPC   GL146213  36.084  27.581   6.164
 3541POPC   GL246214  36.251  27.548   6.164
 3541POPC   C1A46215  36.083  27.628   6.464
 3541POPC   D2A46216  36.094  27.560   6.764
 3541POPC   C3A46217  36.122  27.611   7.064
 3541POPC   C4A46218  36.093  27.606   7.364
 3541POPC   C1B46219  36.418  27.548   6.464
 3541POPC   C2B46220  36.378  27.552   6.764
 3541POPC   C3B46221  36.382  27.566   7.064
 3541POPC   C4B46222  36.364  27.589   7.364
 3542POPC   NC346223  42.291  26.811   5.564
 3542POPC   PO446224  42.376  26.800   5.864
 3542POPC   GL146225  42.316  26.816   6.164
 3542POPC   GL246226  42.441  26.782   6.164
 3542POPC   C1A46227  42.366  26.850   6.464
 3542POPC   D2A46228  42.305  26.862   6.764
 3542POPC   C3A46229  42.355  26.854   7.064
 3542POPC   C4A46230  42.378  26.770   7.364
 3542POPC   C1B46231  42.580  26.745   6.464
 3542POPC   C2B46232  42.592  26.773   6.764
 3542POPC   C3B46233  42.607  26.788   7.064
 3542POPC   C4B46234  42.576  26.743   7.364
 3543POPC   NC346235   2.758  17.543   5.564
 3543POPC   PO446236   2.746  17.492   5.864
 3543POPC   GL146237   2.727  17.472   6.164
 3543POPC   GL246238   2.840  17.590   6.164
 3543POPC   C1A46239   2.739  17.550   6.464
 3543POPC   D2A46240   2.784  17.518   6.764
 3543POPC   C3A46241   2.793  17.545   7.064
 3543POPC   C4A46242   2.797  17.472   7.364
 3543POPC   C1B46243   2.985  17.666   6.464
 3543POPC   C2B46244   3.014  17.652   6.764
 3543POPC   C3B46245   2.991  17.640   7.064
 3543POPC   C4B46246   2.961  17.633   7.364
 3544POPC   NC346247   1.166  11.343   5.564
 3544POPC   PO446248   1.222  11.338   5.864
 3544POPC   GL146249   1.237  11.324   6.164
 3544POPC   GL246250   1.155  11.220   6.164
 3544POPC   C1A46251   1.222  11.265   6.464
 3544POPC   D2A46252   1.167  11.257   6.764
 3544POPC   C3A46253   1.219  11.322   7.064
 3544POPC   C4A46254   1.223  11.294   7.364
 3544POPC   C1B46255   1.062  11.148   6.464
 3544POPC   C2B46256   1.052  11.149   6.764
 3544POPC   C3B46257   1.051  11.153   7.064
 3544POPC   C4B46258   1.005  11.106   7.364
 3545POPC   NC346259   5.087  28.320   5.564
 3545POPC   PO446260   5.132  28.373   5.864
 3545POPC   GL146261   5.082  28.369   6.164
 3545POPC   GL246262   5.246  28.291   6.164
 3545POPC   C1A46263   5.086  28.366   6.464
 3545POPC   D2A46264   5.134  28.379   6.764
 3545POPC   C3A46265   5.101  28.345   7.064
 3545POPC   C4A46266   5.099  28.390   7.364
 3545POPC   C1B46267   5.352  28.239   6.464
 3545POPC   C2B46268   5.315  28.262   6.764
 3545POPC   C3B46269   5.368  28.239   7.064
 3545POPC   C4B46270   5.337  28.250   7.364
 3546POPC   NC346271  16.772   7.442   5.564
 3546POPC   PO446272  16.739   7.459   5.864
 3546POPC   GL146273  16.768   7.412   6.164
 3546POPC   GL246274  16.862   7.411   6.164
 3546POPC   C1A46275  16.699   7.467   6.464
 3546POPC   D2A46276  16.747   7.466   6.764
 3546POPC   C3A46277  16.736   7.414   7.064
 3546POPC   C4A46278  16.758   7.462   7.364
 3546POPC   C1B46279  16.950   7.453   6.464
 3546POPC   C2B46280  17.028   7.435   6.764
 3546POPC   C3B46281  17.021   7.392   7.064
 3546POPC   C4B46282  17.006   7.473   7.364
 3547POPC   NC346283   2.770  37.666   5.564
 3547POPC   PO446284   2.736  37.703   5.864
 3547POPC   GL146285   2.764  37.675   6.164
 3547POPC   GL246286   2.935  37.652   6.164
 3547POPC   C1A46287   2.787  37.682   6.464
 3547POPC   D2A46288   2.765  37.658   6.764
 3547POPC   C3A46289   2.807  37.667   7.064
 3547POPC   C4A46290   2.807  37.664   7.364
 3547POPC   C1B46291   2.975  37.661   6.464
 3547POPC   C2B46292   3.061  37.729   6.764
 3547POPC   C3B46293   3.059  37.686   7.064
 3547POPC   C4B46294   2.973  37.725   7.364
 3548POPC   NC346295  11.305  29.893   5.564
 3548POPC   PO446296  11.251  29.946   5.864
 3548POPC   GL146297  11.287  29.938   6.164
 3548POPC   GL246298  11.344  29.797   6.164
 3548POPC   C1A46299  11.325  29.916   6.464
 3548POPC   D2A46300  11.341  29.878   6.764
 3548POPC   C3A46301  11.313  29.922   7.064
 3548POPC   C4A46302  11.335  29.909   7.364
 3548POPC   C1B46303  11.326  29.678   6.464
 3548POPC   C2B46304  11.308  29.684   6.764
 3548POPC   C3B46305  11.336  29.623   7.064
 3548POPC   C4B46306  11.267  29.677   7.364
 3549POPC   NC346307   3.506  15.131   5.564
 3549POPC   PO446308   3.534  15.158   5.864
 3549POPC   GL146309   3.574  15.185   6.164
 3549POPC   GL246310   3.410  15.078   6.164
 3549POPC   C1A46311   3.582  15.161   6.464
 3549POPC   D2A46312   3.529  15.212   6.764
 3549POPC   C3A46313   3.519  15.207   7.064
 3549POPC   C4A46314   3.577  15.134   7.364
 3549POPC   C1B46315   3.337  15.011   6.464
 3549POPC   C2B46316   3.361  15.005   6.764
 3549POPC   C3B46317   3.397  15.013   7.064
 3549POPC   C4B46318   3.384  15.036   7.364
 3550POPC   NC346319   7.381  44.651   5.564
 3550POPC   PO446320   7.443  44.638   5.864
 3550POPC   GL146321   7.432  44.709   6.164
 3550POPC   GL246322   7.544  44.589   6.164
 3550POPC   C1A46323   7.389  44.699   6.464
 3550POPC   D2A46324   7.394  44.627   6.764
 3550POPC   C3A46325   7.391  44.678   7.064
 3550POPC   C4A46326   7.428  44.612   7.364
 3550POPC   C1B46327   7.638  44.575   6.464
 3550POPC   C2B46328   7.680  44.539   6.764
 3550POPC   C3B46329   7.652  44.548   7.064
 3550POPC   C4B46330   7.660  44.532   7.364
 3551POPC   NC346331  43.919  37.629   5.564
 3551POPC   PO446332  43.861  37.680   5.864
 3551POPC   GL146333  43.900  37.658   6.164
 3551POPC   GL246334  43.940  37.619   6.164
 3551POPC   C1A46335  43.847  37.666   6.464
 3551POPC   D2A46336  43.916  37.653   6.764
 3551POPC   C3A46337  43.868  37.675   7.064
 3551POPC   C4A46338  43.838  37.708   7.364
 3551POPC   C1B46339  43.992  37.430   6.464
 3551POPC   C2B46340  44.056  37.487   6.764
 3551POPC   C3B46341  44.062  37.482   7.064
 3551POPC   C4B46342  44.066  37.499   7.364
 3552POPC   NC346343  27.634  39.185   5.564
 3552POPC   PO446344  27.609  39.242   5.864
 3552POPC   GL146345  27.554  39.208   6.164
 3552POPC   GL246346  27.577  39.112   6.164
 3552POPC   C1A46347  27.544  39.265   6.464
 3552POPC   D2A46348  27.555  39.274   6.764
 3552POPC   C3A46349  27.595  39.247   7.064
 3552POPC   C4A46350  27.562  39.254   7.364
 3552POPC   C1B46351  27.702  38.941   6.464
 3552POPC   C2B46352  27.669  38.970   6.764
 3552POPC   C3B46353  27.667  39.020   7.064
 3552POPC   C4B46354  27.652  38.953   7.364
 3553POPC   NC346355  26.797   5.131   5.564
 3553POPC   PO446356  26.831   5.104   5.864
 3553POPC   GL146357  26.774   5.051   6.164
 3553POPC   GL246358  26.935   4.997   6.164
 3553POPC   C1A46359  26.860   5.126   6.464
 3553POPC   D2A46360  26.839   5.097   6.764
 3553POPC   C3A46361  26.818   5.103   7.064
 3553POPC   C4A46362  26.826   5.080   7.364
 3553POPC   C1B46363  26.999   4.841   6.464
 3553POPC   C2B46364  27.004   4.899   6.764
 3553POPC   C3B46365  26.915   4.926   7.064
 3553POPC   C4B46366  26.950   4.873   7.364
 3554POPC   NC346367  26.839  23.666   5.564
 3554POPC   PO446368  26.851  23.683   5.864
 3554POPC   GL146369  26.804  23.730   6.164
 3554POPC   GL246370  26.855  23.564   6.164
 3554POPC   C1A46371  26.788  23.708   6.464
 3554POPC   D2A46372  26.784  23.704   6.764
 3554POPC   C3A46373  26.865  23.751   7.064
 3554POPC   C4A46374  26.855  23.708   7.364
 3554POPC   C1B46375  26.807  23.497   6.464
 3554POPC   C2B46376  26.835  23.457   6.764
 3554POPC   C3B46377  26.751  23.506   7.064
 3554POPC   C4B46378  26.809  23.436   7.364
 3555POPC   NC346379  15.134  31.484   5.564
 3555POPC   PO446380  15.174  31.463   5.864
 3555POPC   GL146381  15.181  31.513   6.164
 3555POPC   GL246382  15.041  31.529   6.164
 3555POPC   C1A46383  15.228  31.513   6.464
 3555POPC   D2A46384  15.198  31.518   6.764
 3555POPC   C3A46385  15.162  31.468   7.064
 3555POPC   C4A46386  15.196  31.475   7.364
 3555POPC   C1B46387  14.993  31.662   6.464
 3555POPC   C2B46388  15.011  31.581   6.764
 3555POPC   C3B46389  14.943  31.586   7.064
 3555POPC   C4B46390  14.947  31.585   7.364
 3556POPC   NC346391  29.907   5.134   5.564
 3556POPC   PO446392  29.921   5.115   5.864
 3556POPC   GL146393  29.951   5.066   6.164
 3556POPC   GL246394  29.840   5.014   6.164
 3556POPC   C1A46395  29.967   5.057   6.464
 3556POPC   D2A46396  29.942   5.093   6.764
 3556POPC   C3A46397  29.929   5.081   7.064
 3556POPC   C4A46398  29.932   5.089   7.364
 3556POPC   C1B46399  29.782   4.892   6.464
 3556POPC   C2B46400  29.756   4.920   6.764
 3556POPC   C3B46401  29.733   4.873   7.064
 3556POPC   C4B46402  29.751   4.879   7.364
 3557POPC   NC346403  42.340  16.767   5.564
 3557POPC   PO446404  42.317  16.755   5.864
 3557POPC   GL146405  42.356  16.716   6.164
 3557POPC   GL246406  42.427  16.659   6.164
 3557POPC   C1A46407  42.341  16.743   6.464
 3557POPC   D2A46408  42.307  16.741   6.764
 3557POPC   C3A46409  42.370  16.766   7.064
 3557POPC   C4A46410  42.312  16.754   7.364
 3557POPC   C1B46411  42.530  16.630   6.464
 3557POPC   C2B46412  42.608  16.606   6.764
 3557POPC   C3B46413  42.547  16.657   7.064
 3557POPC   C4B46414  42.533  16.644   7.364
 3558POPC   NC346415  44.614  13.633   5.564
 3558POPC   PO446416  44.626  13.660   5.864
 3558POPC   GL146417  44.683  13.654   6.164
 3558POPC   GL246418  44.709  13.574   6.164
 3558POPC   C1A46419  44.662  13.667   6.464
 3558POPC   D2A46420  44.616  13.633   6.764
 3558POPC   C3A46421  44.642  13.622   7.064
 3558POPC   C4A46422  44.616  13.622   7.364
 3558POPC   C1B46423  44.853  13.411   6.464
 3558POPC   C2B46424  44.846  13.462   6.764
 3558POPC   C3B46425  44.785  13.477   7.064
 3558POPC   C4B46426  44.825  13.394   7.364
 3559POPC   NC346427  22.133   5.912   5.564
 3559POPC   PO446428  22.175   5.896   5.864
 3559POPC   GL146429  22.193   5.894   6.164
 3559POPC   GL246430  22.296   5.862   6.164
 3559POPC   C1A46431  22.153   5.874   6.464
 3559POPC   D2A46432  22.175   5.902   6.764
 3559POPC   C3A46433  22.175   5.913   7.064
 3559POPC   C4A46434  22.179   5.900   7.364
 3559POPC   C1B46435  22.390   5.916   6.464
 3559POPC   C2B46436  22.384   5.912   6.764
 3559POPC   C3B46437  22.413   5.893   7.064
 3559POPC   C4B46438  22.416   5.897   7.364
 3560POPC   NC346439  43.110  10.520   5.564
 3560POPC   PO446440  43.128  10.564   5.864
 3560POPC   GL146441  43.076  10.553   6.164
 3560POPC   GL246442  43.123  10.426   6.164
 3560POPC   C1A46443  43.110  10.541   6.464
 3560POPC   D2A46444  43.069  10.533   6.764
 3560POPC   C3A46445  43.120  10.522   7.064
 3560POPC   C4A46446  43.108  10.504   7.364
 3560POPC   C1B46447  43.190  10.304   6.464
 3560POPC   C2B46448  43.142  10.268   6.764
 3560POPC   C3B46449  43.181  10.246   7.064
 3560POPC   C4B46450  43.187  10.274   7.364
 3561POPC   NC346451  40.015   7.418   5.564
 3561POPC   PO446452  39.972   7.429   5.864
 3561POPC   GL146453  40.019   7.462   6.164
 3561POPC   GL246454  40.082   7.434   6.164
 3561POPC   C1A46455  40.047   7.391   6.464
 3561POPC   D2A46456  40.031   7.424   6.764
 3561POPC   C3A46457  40.029   7.464   7.064
 3561POPC   C4A46458  39.977   7.408   7.364
 3561POPC   C1B46459  40.260   7.544   6.464
 3561POPC   C2B46460  40.261   7.522   6.764
 3561POPC   C3B46461  40.210   7.446   7.064
 3561POPC   C4B46462  40.200   7.482   7.364
 3562POPC   NC346463  24.507  41.597   5.564
 3562POPC   PO446464  24.467  41.564   5.864
 3562POPC   GL146465  24.538  41.567   6.164
 3562POPC   GL246466  24.523  41.678   6.164
 3562POPC   C1A46467  24.498  41.534   6.464
 3562POPC   D2A46468  24.520  41.541   6.764
 3562POPC   C3A46469  24.476  41.582   7.064
 3562POPC   C4A46470  24.535  41.553   7.364
 3562POPC   C1B46471  24.463  41.805   6.464
 3562POPC   C2B46472  24.497  41.817   6.764
 3562POPC   C3B46473  24.464  41.797   7.064
 3562POPC   C4B46474  24.472  41.786   7.364
 3563POPC   NC346475   7.404  12.126   5.564
 3563POPC   PO446476   7.460  12.091   5.864
 3563POPC   GL146477   7.399  12.035   6.164
 3563POPC   GL246478   7.367  12.000   6.164
 3563POPC   C1A46479   7.400  12.033   6.464
 3563POPC   D2A46480   7.395  12.089   6.764
 3563POPC   C3A46481   7.399  12.060   7.064
 3563POPC   C4A46482   7.463  12.042   7.364
 3563POPC   C1B46483   7.205  11.960   6.464
 3563POPC   C2B46484   7.257  11.942   6.764
 3563POPC   C3B46485   7.230  11.896   7.064
 3563POPC   C4B46486   7.226  11.914   7.364
 3564POPC   NC346487   2.742  28.398   5.564
 3564POPC   PO446488   2.720  28.381   5.864
 3564POPC   GL146489   2.738  28.326   6.164
 3564POPC   GL246490   2.747  28.294   6.164
 3564POPC   C1A46491   2.803  28.347   6.464
 3564POPC   D2A46492   2.772  28.393   6.764
 3564POPC   C3A46493   2.797  28.341   7.064
 3564POPC   C4A46494   2.750  28.325   7.364
 3564POPC   C1B46495   2.838  28.158   6.464
 3564POPC   C2B46496   2.791  28.148   6.764
 3564POPC   C3B46497   2.797  28.165   7.064
 3564POPC   C4B46498   2.807  28.074   7.364
 3565POPC   NC346499  29.953  42.361   5.564
 3565POPC   PO446500  29.907  42.326   5.864
 3565POPC   GL146501  29.937  42.341   6.164
 3565POPC   GL246502  29.853  42.266   6.164
 3565POPC   C1A46503  29.899  42.316   6.464
 3565POPC   D2A46504  29.904  42.307   6.764
 3565POPC   C3A46505  29.946  42.326   7.064
 3565POPC   C4A46506  29.938  42.287   7.364
 3565POPC   C1B46507  29.845  42.131   6.464
 3565POPC   C2B46508  29.814  42.155   6.764
 3565POPC   C3B46509  29.768  42.119   7.064
 3565POPC   C4B46510  29.766  42.123   7.364
 3566POPC   NC346511   7.466   6.638   5.564
 3566POPC   PO446512   7.419   6.600   5.864
 3566POPC   GL146513   7.376   6.639   6.164
 3566POPC   GL246514   7.433   6.516   6.164
 3566POPC   C1A46515   7.418   6.680   6.464
 3566POPC   D2A46516   7.413   6.693   6.764
 3566POPC   C3A46517   7.464   6.657   7.064
 3566POPC   C4A46518   7.392   6.649   7.364
 3566POPC   C1B46519   7.534   6.397   6.464
 3566POPC   C2B46520   7.537   6.371   6.764
 3566POPC   C3B46521   7.487   6.456   7.064
 3566POPC   C4B46522   7.506   6.385   7.364
 3567POPC   NC346523   9.006  36.915   5.564
 3567POPC   PO446524   9.002  36.951   5.864
 3567POPC   GL146525   8.974  36.870   6.164
 3567POPC   GL246526   9.108  36.920   6.164
 3567POPC   C1A46527   8.949  36.855   6.464
 3567POPC   D2A46528   8.969  36.928   6.764
 3567POPC   C3A46529   8.993  36.937   7.064
 3567POPC   C4A46530   9.016  36.857   7.364
 3567POPC   C1B46531   9.235  36.948   6.464
 3567POPC   C2B46532   9.180  36.870   6.764
 3567POPC   C3B46533   9.185  36.860   7.064
 3567POPC   C4B46534   9.237  36.865   7.364
 3568POPC   NC346535   4.327  39.236   5.564
 3568POPC   PO446536   4.305  39.269   5.864
 3568POPC   GL146537   4.341  39.205   6.164
 3568POPC   GL246538   4.433  39.333   6.164
 3568POPC   C1A46539   4.325  39.264   6.464
 3568POPC   D2A46540   4.330  39.275   6.764
 3568POPC   C3A46541   4.342  39.189   7.064
 3568POPC   C4A46542   4.287  39.229   7.364
 3568POPC   C1B46543   4.466  39.468   6.464
 3568POPC   C2B46544   4.482  39.408   6.764
 3568POPC   C3B46545   4.471  39.390   7.064
 3568POPC   C4B46546   4.423  39.469   7.364
 3569POPC   NC346547   8.966  10.520   5.564
 3569POPC   PO446548   8.927  10.528   5.864
 3569POPC   GL146549   8.933  10.515   6.164
 3569POPC   GL246550   8.874  10.419   6.164
 3569POPC   C1A46551   8.975  10.528   6.464
 3569POPC   D2A46552   8.995  10.530   6.764
 3569POPC   C3A46553   8.932  10.556   7.064
 3569POPC   C4A46554   8.963  10.521   7.364
 3569POPC   C1B46555   8.735  10.356   6.464
 3569POPC   C2B46556   8.722  10.438   6.764
 3569POPC   C3B46557   8.742  10.425   7.064
 3569POPC   C4B46558   8.731  10.432   7.364
 3570POPC   NC346559  28.361   6.684   5.564
 3570POPC   PO446560  28.393   6.651   5.864
 3570POPC   GL146561  28.412   6.609   6.164
 3570POPC   GL246562  28.307   6.770   6.164
 3570POPC   C1A46563  28.379   6.595   6.464
 3570POPC   D2A46564  28.357   6.613   6.764
 3570POPC   C3A46565  28.379   6.627   7.064
 3570POPC   C4A46566  28.332   6.656   7.364
 3570POPC   C1B46567  28.300   6.920   6.464
 3570POPC   C2B46568  28.330   6.895   6.764
 3570POPC   C3B46569  28.345   6.937   7.064
 3570POPC   C4B46570  28.313   6.928   7.364
 3571POPC   NC346571  38.432  15.196   5.564
 3571POPC   PO446572  38.484  15.169   5.864
 3571POPC   GL146573  38.495  15.229   6.164
 3571POPC   GL246574  38.335  15.176   6.164
 3571POPC   C1A46575  38.423  15.167   6.464
 3571POPC   D2A46576  38.439  15.197   6.764
 3571POPC   C3A46577  38.473  15.195   7.064
 3571POPC   C4A46578  38.440  15.151   7.364
 3571POPC   C1B46579  38.223  15.239   6.464
 3571POPC   C2B46580  38.214  15.211   6.764
 3571POPC   C3B46581  38.234  15.235   7.064
 3571POPC   C4B46582  38.245  15.170   7.364
 3572POPC   NC346583  10.489  38.500   5.564
 3572POPC   PO446584  10.477  38.474   5.864
 3572POPC   GL146585  10.509  38.423   6.164
 3572POPC   GL246586  10.418  38.394   6.164
 3572POPC   C1A46587  10.516  38.472   6.464
 3572POPC   D2A46588  10.541  38.497   6.764
 3572POPC   C3A46589  10.533  38.447   7.064
 3572POPC   C4A46590  10.480  38.471   7.364
 3572POPC   C1B46591  10.406  38.257   6.464
 3572POPC   C2B46592  10.366  38.234   6.764
 3572POPC   C3B46593  10.386  38.201   7.064
 3572POPC   C4B46594  10.368  38.238   7.364
 3573POPC   NC346595  17.496  10.538   5.564
 3573POPC   PO446596  17.498  10.500   5.864
 3573POPC   GL146597  17.542  10.494   6.164
 3573POPC   GL246598  17.392  10.479   6.164
 3573POPC   C1A46599  17.486  10.478   6.464
 3573POPC   D2A46600  17.508  10.509   6.764
 3573POPC   C3A46601  17.503  10.523   7.064
 3573POPC   C4A46602  17.466  10.551   7.364
 3573POPC   C1B46603  17.304  10.509   6.464
 3573POPC   C2B46604  17.303  10.505   6.764
 3573POPC   C3B46605  17.253  10.467   7.064
 3573POPC   C4B46606  17.266  10.473   7.364
 3574POPC   NC346607  30.740   0.414   5.564
 3574POPC   PO446608  30.649   0.427   5.864
 3574POPC   GL146609  30.703   0.468   6.164
 3574POPC   GL246610  30.731   0.587   6.164
 3574POPC   C1A46611  30.664   0.461   6.464
 3574POPC   D2A46612  30.722   0.442   6.764
 3574POPC   C3A46613  30.664   0.467   7.064
 3574POPC   C4A46614  30.717   0.398   7.364
 3574POPC   C1B46615  30.740   0.680   6.464
 3574POPC   C2B46616  30.771   0.639   6.764
 3574POPC   C3B46617  30.802   0.646   7.064
 3574POPC   C4B46618  30.820   0.652   7.364
 3575POPC   NC346619  43.109   3.574   5.564
 3575POPC   PO446620  43.119   3.590   5.864
 3575POPC   GL146621  43.134   3.521   6.164
 3575POPC   GL246622  43.189   3.408   6.164
 3575POPC   C1A46623  43.103   3.501   6.464
 3575POPC   D2A46624  43.152   3.547   6.764
 3575POPC   C3A46625  43.083   3.500   7.064
 3575POPC   C4A46626  43.094   3.553   7.364
 3575POPC   C1B46627  43.178   3.329   6.464
 3575POPC   C2B46628  43.260   3.321   6.764
 3575POPC   C3B46629  43.248   3.294   7.064
 3575POPC   C4B46630  43.211   3.285   7.364
 3576POPC   NC346631   7.445  23.668   5.564
 3576POPC   PO446632   7.426  23.669   5.864
 3576POPC   GL146633   7.375  23.758   6.164
 3576POPC   GL246634   7.339  23.754   6.164
 3576POPC   C1A46635   7.448  23.757   6.464
 3576POPC   D2A46636   7.414  23.751   6.764
 3576POPC   C3A46637   7.379  23.703   7.064
 3576POPC   C4A46638   7.389  23.719   7.364
 3576POPC   C1B46639   7.186  23.761   6.464
 3576POPC   C2B46640   7.150  23.769   6.764
 3576POPC   C3B46641   7.184  23.834   7.064
 3576POPC   C4B46642   7.156  23.763   7.364
 3577POPC   NC346643  32.984  21.368   5.564
 3577POPC   PO446644  33.074  21.370   5.864
 3577POPC   GL146645  33.060  21.366   6.164
 3577POPC   GL246646  33.010  21.487   6.164
 3577POPC   C1A46647  33.018  21.395   6.464
 3577POPC   D2A46648  33.014  21.415   6.764
 3577POPC   C3A46649  33.022  21.433   7.064
 3577POPC   C4A46650  33.029  21.387   7.364
 3577POPC   C1B46651  33.002  21.596   6.464
 3577POPC   C2B46652  33.015  21.627   6.764
 3577POPC   C3B46653  32.965  21.667   7.064
 3577POPC   C4B46654  32.991  21.668   7.364
 3578POPC   NC346655   5.905  29.956   5.564
 3578POPC   PO446656   5.861  29.884   5.864
 3578POPC   GL146657   5.824  29.919   6.164
 3578POPC   GL246658   5.759  29.971   6.164
 3578POPC   C1A46659   5.821  29.888   6.464
 3578POPC   D2A46660   5.848  29.944   6.764
 3578POPC   C3A46661   5.891  29.884   7.064
 3578POPC   C4A46662   5.895  29.920   7.364
 3578POPC   C1B46663   5.660  30.134   6.464
 3578POPC   C2B46664   5.732  30.045   6.764
 3578POPC   C3B46665   5.681  30.086   7.064
 3578POPC   C4B46666   5.733  30.088   7.364
 3579POPC   NC346667  33.761  31.510   5.564
 3579POPC   PO446668  33.802  31.437   5.864
 3579POPC   GL146669  33.801  31.500   6.164
 3579POPC   GL246670  33.747  31.581   6.164
 3579POPC   C1A46671  33.785  31.518   6.464
 3579POPC   D2A46672  33.828  31.465   6.764
 3579POPC   C3A46673  33.770  31.428   7.064
 3579POPC   C4A46674  33.771  31.488   7.364
 3579POPC   C1B46675  33.642  31.684   6.464
 3579POPC   C2B46676  33.629  31.642   6.764
 3579POPC   C3B46677  33.685  31.652   7.064
 3579POPC   C4B46678  33.638  31.686   7.364
 3580POPC   NC346679  18.269  28.327   5.564
 3580POPC   PO446680  18.322  28.349   5.864
 3580POPC   GL146681  18.317  28.414   6.164
 3580POPC   GL246682  18.176  28.397   6.164
 3580POPC   C1A46683  18.249  28.394   6.464
 3580POPC   D2A46684  18.312  28.391   6.764
 3580POPC   C3A46685  18.326  28.418   7.064
 3580POPC   C4A46686  18.323  28.365   7.364
 3580POPC   C1B46687  18.025  28.408   6.464
 3580POPC   C2B46688  18.074  28.328   6.764
 3580POPC   C3B46689  18.007  28.341   7.064
 3580POPC   C4B46690  18.069  28.345   7.364
 3581POPC   NC346691   1.208  17.510   5.564
 3581POPC   PO446692   1.225  17.488   5.864
 3581POPC   GL146693   1.181  17.492   6.164
 3581POPC   GL246694   1.141  17.424   6.164
 3581POPC   C1A46695   1.174  17.473   6.464
 3581POPC   D2A46696   1.170  17.533   6.764
 3581POPC   C3A46697   1.181  17.554   7.064
 3581POPC   C4A46698   1.178  17.468   7.364
 3581POPC   C1B46699   1.008  17.338   6.464
 3581POPC   C2B46700   1.012  17.369   6.764
 3581POPC   C3B46701   1.020  17.430   7.064
 3581POPC   C4B46702   0.958  17.408   7.364
 3582POPC   NC346703  10.502  44.705   5.564
 3582POPC   PO446704  10.558  44.620   5.864
 3582POPC   GL146705  10.482  44.613   6.164
 3582POPC   GL246706  10.650  44.594   6.164
 3582POPC   C1A46707  10.530  44.615   6.464
 3582POPC   D2A46708  10.513  44.676   6.764
 3582POPC   C3A46709  10.488  44.675   7.064
 3582POPC   C4A46710  10.570  44.634   7.364
 3582POPC   C1B46711  10.724  44.529   6.464
 3582POPC   C2B46712  10.682  44.448   6.764
 3582POPC   C3B46713  10.667  44.531   7.064
 3582POPC   C4B46714  10.693  44.526   7.364
 3583POPC   NC346715  15.960  42.330   5.564
 3583POPC   PO446716  15.992  42.345   5.864
 3583POPC   GL146717  15.995  42.310   6.164
 3583POPC   GL246718  15.977  42.499   6.164
 3583POPC   C1A46719  15.959  42.285   6.464
 3583POPC   D2A46720  16.004  42.384   6.764
 3583POPC   C3A46721  15.908  42.293   7.064
 3583POPC   C4A46722  15.910  42.369   7.364
 3583POPC   C1B46723  15.951  42.629   6.464
 3583POPC   C2B46724  15.956  42.561   6.764
 3583POPC   C3B46725  15.985  42.540   7.064
 3583POPC   C4B46726  15.948  42.622   7.364
 3584POPC   NC346727  36.106  10.481   5.564
 3584POPC   PO446728  36.095  10.539   5.864
 3584POPC   GL146729  36.157  10.516   6.164
 3584POPC   GL246730  36.202  10.645   6.164
 3584POPC   C1A46731  36.116  10.513   6.464
 3584POPC   D2A46732  36.132  10.498   6.764
 3584POPC   C3A46733  36.091  10.478   7.064
 3584POPC   C4A46734  36.153  10.520   7.364
 3584POPC   C1B46735  36.321  10.650   6.464
 3584POPC   C2B46736  36.354  10.704   6.764
 3584POPC   C3B46737  36.320  10.684   7.064
 3584POPC   C4B46738  36.341  10.640   7.364
 3585POPC   NC346739   8.941  27.575   5.564
 3585POPC   PO446740   9.022  27.597   5.864
 3585POPC   GL146741   8.962  27.563   6.164
 3585POPC   GL246742   8.846  27.606   6.164
 3585POPC   C1A46743   8.967  27.623   6.464
 3585POPC   D2A46744   8.996  27.550   6.764
 3585POPC   C3A46745   8.951  27.569   7.064
 3585POPC   C4A46746   8.925  27.548   7.364
 3585POPC   C1B46747   8.771  27.566   6.464
 3585POPC   C2B46748   8.746  27.565   6.764
 3585POPC   C3B46749   8.705  27.568   7.064
 3585POPC   C4B46750   8.732  27.549   7.364
 3586POPC   NC346751  21.342  23.711   5.564
 3586POPC   PO446752  21.358  23.736   5.864
 3586POPC   GL146753  21.401  23.722   6.164
 3586POPC   GL246754  21.363  23.846   6.164
 3586POPC   C1A46755  21.408  23.705   6.464
 3586POPC   D2A46756  21.402  23.717   6.764
 3586POPC   C3A46757  21.422  23.733   7.064
 3586POPC   C4A46758  21.378  23.665   7.364
 3586POPC   C1B46759  21.379  23.953   6.464
 3586POPC   C2B46760  21.353  23.977   6.764
 3586POPC   C3B46761  21.391  23.926   7.064
 3586POPC   C4B46762  21.383  23.922   7.364
 3587POPC   NC346763  15.144  11.267   5.564
 3587POPC   PO446764  15.211  11.265   5.864
 3587POPC   GL146765  15.217  11.316   6.164
 3587POPC   GL246766  15.078  11.333   6.164
 3587POPC   C1A46767  15.171  11.269   6.464
 3587POPC   D2A46768  15.174  11.254   6.764
 3587POPC   C3A46769  15.223  11.324   7.064
 3587POPC   C4A46770  15.174  11.265   7.364
 3587POPC   C1B46771  14.948  11.284   6.464
 3587POPC   C2B46772  14.901  11.243   6.764
 3587POPC   C3B46773  14.888  11.299   7.064
 3587POPC   C4B46774  14.913  11.282   7.364
 3588POPC   NC346775  12.895  20.650   5.564
 3588POPC   PO446776  12.841  20.647   5.864
 3588POPC   GL146777  12.874  20.580   6.164
 3588POPC   GL246778  12.820  20.472   6.164
 3588POPC   C1A46779  12.894  20.572   6.464
 3588POPC   D2A46780  12.873  20.583   6.764
 3588POPC   C3A46781  12.810  20.621   7.064
 3588POPC   C4A46782  12.817  20.629   7.364
 3588POPC   C1B46783  12.797  20.347   6.464
 3588POPC   C2B46784  12.782  20.373   6.764
 3588POPC   C3B46785  12.862  20.329   7.064
 3588POPC   C4B46786  12.847  20.374   7.364
 3589POPC   NC346787   2.803  19.079   5.564
 3589POPC   PO446788   2.736  19.048   5.864
 3589POPC   GL146789   2.764  19.050   6.164
 3589POPC   GL246790   2.693  18.921   6.164
 3589POPC   C1A46791   2.752  19.080   6.464
 3589POPC   D2A46792   2.799  19.095   6.764
 3589POPC   C3A46793   2.790  19.104   7.064
 3589POPC   C4A46794   2.719  19.066   7.364
 3589POPC   C1B46795   2.639  18.871   6.464
 3589POPC   C2B46796   2.706  18.798   6.764
 3589POPC   C3B46797   2.693  18.868   7.064
 3589POPC   C4B46798   2.672  18.797   7.364
 3590POPC   NC346799   6.600  13.647   5.564
 3590POPC   PO446800   6.658  13.605   5.864
 3590POPC   GL146801   6.662  13.661   6.164
 3590POPC   GL246802   6.622  13.759   6.164
 3590POPC   C1A46803   6.636  13.582   6.464
 3590POPC   D2A46804   6.599  13.588   6.764
 3590POPC   C3A46805   6.670  13.664   7.064
 3590POPC   C4A46806   6.625  13.597   7.364
 3590POPC   C1B46807   6.641  13.831   6.464
 3590POPC   C2B46808   6.676  13.844   6.764
 3590POPC   C3B46809   6.679  13.839   7.064
 3590POPC   C4B46810   6.662  13.856   7.364
 3591POPC   NC346811  25.233  32.268   5.564
 3591POPC   PO446812  25.230  32.203   5.864
 3591POPC   GL146813  25.246  32.279   6.164
 3591POPC   GL246814  25.375  32.207   6.164
 3591POPC   C1A46815  25.284  32.237   6.464
 3591POPC   D2A46816  25.284  32.297   6.764
 3591POPC   C3A46817  25.231  32.280   7.064
 3591POPC   C4A46818  25.282  32.290   7.364
 3591POPC   C1B46819  25.455  32.150   6.464
 3591POPC   C2B46820  25.426  32.122   6.764
 3591POPC   C3B46821  25.438  32.141   7.064
 3591POPC   C4B46822  25.495  32.119   7.364
 3592POPC   NC346823  22.152   5.050   5.564
 3592POPC   PO446824  22.188   5.069   5.864
 3592POPC   GL146825  22.192   5.062   6.164
 3592POPC   GL246826  22.064   5.102   6.164
 3592POPC   C1A46827  22.196   5.067   6.464
 3592POPC   D2A46828  22.151   5.108   6.764
 3592POPC   C3A46829  22.122   5.069   7.064
 3592POPC   C4A46830  22.172   5.046   7.364
 3592POPC   C1B46831  21.872   5.027   6.464
 3592POPC   C2B46832  21.908   5.100   6.764
 3592POPC   C3B46833  21.910   5.049   7.064
 3592POPC   C4B46834  21.913   5.085   7.364
 3593POPC   NC346835   9.743  29.882   5.564
 3593POPC   PO446836   9.719  29.944   5.864
 3593POPC   GL146837   9.763  29.889   6.164
 3593POPC   GL246838   9.837  29.995   6.164
 3593POPC   C1A46839   9.717  29.943   6.464
 3593POPC   D2A46840   9.705  29.911   6.764
 3593POPC   C3A46841   9.746  29.895   7.064
 3593POPC   C4A46842   9.767  29.932   7.364
 3593POPC   C1B46843   9.952  30.117   6.464
 3593POPC   C2B46844   9.925  30.070   6.764
 3593POPC   C3B46845   9.903  30.066   7.064
 3593POPC   C4B46846   9.902  30.145   7.364
 3594POPC   NC346847  30.714  42.299   5.564
 3594POPC   PO446848  30.662  42.311   5.864
 3594POPC   GL146849  30.653  42.366   6.164
 3594POPC   GL246850  30.742  42.203   6.164
 3594POPC   C1A46851  30.702  42.342   6.464
 3594POPC   D2A46852  30.696  42.371   6.764
 3594POPC   C3A46853  30.745  42.348   7.064
 3594POPC   C4A46854  30.709  42.377   7.364
 3594POPC   C1B46855  30.752  42.121   6.464
 3594POPC   C2B46856  30.765  42.102   6.764
 3594POPC   C3B46857  30.809  42.097   7.064
 3594POPC   C4B46858  30.764  42.140   7.364
 3595POPC   NC346859  41.605  35.401   5.564
 3595POPC   PO446860  41.554  35.340   5.864
 3595POPC   GL146861  41.521  35.328   6.164
 3595POPC   GL246862  41.635  35.380   6.164
 3595POPC   C1A46863  41.525  35.339   6.464
 3595POPC   D2A46864  41.587  35.314   6.764
 3595POPC   C3A46865  41.580  35.376   7.064
 3595POPC   C4A46866  41.539  35.376   7.364
 3595POPC   C1B46867  41.748  35.408   6.464
 3595POPC   C2B46868  41.744  35.412   6.764
 3595POPC   C3B46869  41.763  35.439   7.064
 3595POPC   C4B46870  41.749  35.446   7.364
 3596POPC   NC346871  19.037  36.926   5.564
 3596POPC   PO446872  19.036  36.935   5.864
 3596POPC   GL146873  19.013  36.883   6.164
 3596POPC   GL246874  18.949  36.907   6.164
 3596POPC   C1A46875  19.086  36.891   6.464
 3596POPC   D2A46876  19.095  36.883   6.764
 3596POPC   C3A46877  19.082  36.897   7.064
 3596POPC   C4A46878  19.089  36.945   7.364
 3596POPC   C1B46879  18.798  36.929   6.464
 3596POPC   C2B46880  18.836  36.854   6.764
 3596POPC   C3B46881  18.836  36.859   7.064
 3596POPC   C4B46882  18.818  36.910   7.364
 3597POPC   NC346883   5.902   3.516   5.564
 3597POPC   PO446884   5.875   3.550   5.864
 3597POPC   GL146885   5.874   3.498   6.164
 3597POPC   GL246886   5.831   3.473   6.164
 3597POPC   C1A46887   5.912   3.511   6.464
 3597POPC   D2A46888   5.876   3.554   6.764
 3597POPC   C3A46889   5.909   3.549   7.064
 3597POPC   C4A46890   5.875   3.502   7.364
 3597POPC   C1B46891   5.718   3.380   6.464
 3597POPC   C2B46892   5.716   3.370   6.764
 3597POPC   C3B46893   5.759   3.345   7.064
 3597POPC   C4B46894   5.730   3.358   7.364
 3598POPC   NC346895   5.134  43.841   5.564
 3598POPC   PO446896   5.050  43.898   5.864
 3598POPC   GL146897   5.075  43.866   6.164
 3598POPC   GL246898   5.183  44.009   6.164
 3598POPC   C1A46899   5.090  43.837   6.464
 3598POPC   D2A46900   5.044  43.888   6.764
 3598POPC   C3A46901   5.111  43.851   7.064
 3598POPC   C4A46902   5.063  43.936   7.364
 3598POPC   C1B46903   5.216  44.101   6.464
 3598POPC   C2B46904   5.249  44.071   6.764
 3598POPC   C3B46905   5.245  44.093   7.064
 3598POPC   C4B46906   5.204  44.042   7.364
 3599POPC   NC346907  22.940   2.811   5.564
 3599POPC   PO446908  22.895   2.720   5.864
 3599POPC   GL146909  22.944   2.737   6.164
 3599POPC   GL246910  22.828   2.808   6.164
 3599POPC   C1A46911  22.970   2.717   6.464
 3599POPC   D2A46912  22.923   2.762   6.764
 3599POPC   C3A46913  22.889   2.719   7.064
 3599POPC   C4A46914  22.976   2.788   7.364
 3599POPC   C1B46915  22.730   2.871   6.464
 3599POPC   C2B46916  22.706   2.948   6.764
 3599POPC   C3B46917  22.712   2.952   7.064
 3599POPC   C4B46918  22.745   2.869   7.364
 3600POPC   NC346919   8.217   7.424   5.564
 3600POPC   PO446920   8.166   7.406   5.864
 3600POPC   GL146921   8.187   7.393   6.164
 3600POPC   GL246922   8.051   7.407   6.164
 3600POPC   C1A46923   8.224   7.395   6.464
 3600POPC   D2A46924   8.227   7.420   6.764
 3600POPC   C3A46925   8.199   7.387   7.064
 3600POPC   C4A46926   8.242   7.469   7.364
 3600POPC   C1B46927   7.927   7.335   6.464
 3600POPC   C2B46928   7.915   7.364   6.764
 3600POPC   C3B46929   7.987   7.378   7.064
 3600POPC   C4B46930   7.994   7.374   7.364
 3601POPC   NC346931  29.936   1.253   5.564
 3601POPC   PO446932  29.907   1.178   5.864
 3601POPC   GL146933  29.911   1.212   6.164
 3601POPC   GL246934  30.054   1.237   6.164
 3601POPC   C1A46935  29.886   1.210   6.464
 3601POPC   D2A46936  29.884   1.200   6.764
 3601POPC   C3A46937  29.896   1.241   7.064
 3601POPC   C4A46938  29.908   1.232   7.364
 3601POPC   C1B46939  30.120   1.173   6.464
 3601POPC   C2B46940  30.198   1.153   6.764
 3601POPC   C3B46941  30.128   1.179   7.064
 3601POPC   C4B46942  30.214   1.194   7.364
 3602POPC   NC346943   9.760  42.348   5.564
 3602POPC   PO446944   9.710  42.326   5.864
 3602POPC   GL146945   9.785  42.373   6.164
 3602POPC   GL246946   9.602  42.241   6.164
 3602POPC   C1A46947   9.709  42.355   6.464
 3602POPC   D2A46948   9.721  42.303   6.764
 3602POPC   C3A46949   9.718  42.292   7.064
 3602POPC   C4A46950   9.743  42.306   7.364
 3602POPC   C1B46951   9.493  42.182   6.464
 3602POPC   C2B46952   9.479  42.170   6.764
 3602POPC   C3B46953   9.539  42.250   7.064
 3602POPC   C4B46954   9.501  42.177   7.364
 3603POPC   NC346955   8.930  15.925   5.564
 3603POPC   PO446956   8.962  15.934   5.864
 3603POPC   GL146957   8.950  15.973   6.164
 3603POPC   GL246958   9.139  15.985   6.164
 3603POPC   C1A46959   9.010  15.913   6.464
 3603POPC   D2A46960   8.930  15.976   6.764
 3603POPC   C3A46961   8.964  15.961   7.064
 3603POPC   C4A46962   8.969  15.922   7.364
 3603POPC   C1B46963   9.185  16.053   6.464
 3603POPC   C2B46964   9.211  16.039   6.764
 3603POPC   C3B46965   9.257  16.020   7.064
 3603POPC   C4B46966   9.199  16.065   7.364
 3604POPC   NC346967   4.300  22.198   5.564
 3604POPC   PO446968   4.298  22.197   5.864
 3604POPC   GL146969   4.325  22.155   6.164
 3604POPC   GL246970   4.365  22.103   6.164
 3604POPC   C1A46971   4.336  22.120   6.464
 3604POPC   D2A46972   4.270  22.132   6.764
 3604POPC   C3A46973   4.336  22.198   7.064
 3604POPC   C4A46974   4.269  22.119   7.364
 3604POPC   C1B46975   4.516  22.019   6.464
 3604POPC   C2B46976   4.446  21.960   6.764
 3604POPC   C3B46977   4.500  21.997   7.064
 3604POPC   C4B46978   4.489  22.020   7.364
 3605POPC   NC346979  10.476  13.675   5.564
 3605POPC   PO446980  10.520  13.645   5.864
 3605POPC   GL146981  10.562  13.602   6.164
 3605POPC   GL246982  10.476  13.718   6.164
 3605POPC   C1A46983  10.543  13.593   6.464
 3605POPC   D2A46984  10.506  13.658   6.764
 3605POPC   C3A46985  10.561  13.653   7.064
 3605POPC   C4A46986  10.482  13.612   7.364
 3605POPC   C1B46987  10.528  13.860   6.464
 3605POPC   C2B46988  10.538  13.913   6.764
 3605POPC   C3B46989  10.498  13.922   7.064
 3605POPC   C4B46990  10.547  13.879   7.364
 3606POPC   NC346991  33.038  32.991   5.564
 3606POPC   PO446992  32.980  33.006   5.864
 3606POPC   GL146993  33.070  32.979   6.164
 3606POPC   GL246994  33.168  33.002   6.164
 3606POPC   C1A46995  32.997  33.036   6.464
 3606POPC   D2A46996  33.065  33.016   6.764
 3606POPC   C3A46997  33.016  33.009   7.064
 3606POPC   C4A46998  32.999  33.000   7.364
 3606POPC   C1B46999  33.292  32.979   6.464
 3606POPC   C2B47000  33.216  32.942   6.764
 3606POPC   C3B47001  33.229  32.902   7.064
 3606POPC   C4B47002  33.304  32.919   7.364
 3607POPC   NC347003  43.075  17.492   5.564
 3607POPC   PO447004  43.139  17.533   5.864
 3607POPC   GL147005  43.138  17.545   6.164
 3607POPC   GL247006  43.024  17.591   6.164
 3607POPC   C1A47007  43.061  17.544   6.464
 3607POPC   D2A47008  43.142  17.546   6.764
 3607POPC   C3A47009  43.085  17.503   7.064
 3607POPC   C4A47010  43.147  17.476   7.364
 3607POPC   C1B47011  42.997  17.765   6.464
 3607POPC   C2B47012  43.006  17.756   6.764
 3607POPC   C3B47013  42.988  17.754   7.064
 3607POPC   C4B47014  42.948  17.732   7.364
 3608POPC   NC347015  12.057  43.142   5.564
 3608POPC   PO447016  12.097  43.102   5.864
 3608POPC   GL147017  12.084  43.083   6.164
 3608POPC   GL247018  12.027  42.954   6.164
 3608POPC   C1A47019  12.106  43.121   6.464
 3608POPC   D2A47020  12.085  43.110   6.764
 3608POPC   C3A47021  12.064  43.111   7.064
 3608POPC   C4A47022  12.102  43.072   7.364
 3608POPC   C1B47023  12.043  42.894   6.464
 3608POPC   C2B47024  12.062  42.874   6.764
 3608POPC   C3B47025  12.047  42.816   7.064
 3608POPC   C4B47026  12.102  42.831   7.364
 3609POPC   NC347027  38.433  21.338   5.564
 3609POPC   PO447028  38.424  21.397   5.864
 3609POPC   GL147029  38.432  21.373   6.164
 3609POPC   GL247030  38.344  21.324   6.164
 3609POPC   C1A47031  38.465  21.388   6.464
 3609POPC   D2A47032  38.482  21.413   6.764
 3609POPC   C3A47033  38.449  21.340   7.064
 3609POPC   C4A47034  38.477  21.394   7.364
 3609POPC   C1B47035  38.261  21.223   6.464
 3609POPC   C2B47036  38.295  21.222   6.764
 3609POPC   C3B47037  38.288  21.235   7.064
 3609POPC   C4B47038  38.265  21.230   7.364
 3610POPC   NC347039   5.085  12.027   5.564
 3610POPC   PO447040   5.106  12.035   5.864
 3610POPC   GL147041   5.143  12.053   6.164
 3610POPC   GL247042   5.134  12.167   6.164
 3610POPC   C1A47043   5.082  12.120   6.464
 3610POPC   D2A47044   5.087  12.027   6.764
 3610POPC   C3A47045   5.066  12.059   7.064
 3610POPC   C4A47046   5.045  12.117   7.364
 3610POPC   C1B47047   5.290  12.274   6.464
 3610POPC   C2B47048   5.214  12.286   6.764
 3610POPC   C3B47049   5.245  12.315   7.064
 3610POPC   C4B47050   5.264  12.271   7.364
 3611POPC   NC347051  40.042  37.631   5.564
 3611POPC   PO447052  40.019  37.656   5.864
 3611POPC   GL147053  40.032  37.647   6.164
 3611POPC   GL247054  39.888  37.612   6.164
 3611POPC   C1A47055  40.026  37.665   6.464
 3611POPC   D2A47056  40.024  37.643   6.764
 3611POPC   C3A47057  40.029  37.682   7.064
 3611POPC   C4A47058  40.005  37.663   7.364
 3611POPC   C1B47059  39.783  37.583   6.464
 3611POPC   C2B47060  39.842  37.540   6.764
 3611POPC   C3B47061  39.816  37.563   7.064
 3611POPC   C4B47062  39.806  37.574   7.364
 3612POPC   NC347063  39.278  15.908   5.564
 3612POPC   PO447064  39.247  15.909   5.864
 3612POPC   GL147065  39.233  16.000   6.164
 3612POPC   GL247066  39.266  16.100   6.164
 3612POPC   C1A47067  39.218  15.944   6.464
 3612POPC   D2A47068  39.214  15.958   6.764
 3612POPC   C3A47069  39.197  15.955   7.064
 3612POPC   C4A47070  39.255  15.966   7.364
 3612POPC   C1B47071  39.366  16.155   6.464
 3612POPC   C2B47072  39.386  16.153   6.764
 3612POPC   C3B47073  39.359  16.133   7.064
 3612POPC   C4B47074  39.361  16.140   7.364
 3613POPC   NC347075  43.155   9.738   5.564
 3613POPC   PO447076  43.111   9.782   5.864
 3613POPC   GL147077  43.072   9.720   6.164
 3613POPC   GL247078  43.033   9.847   6.164
 3613POPC   C1A47079  43.068   9.790   6.464
 3613POPC   D2A47080  43.093   9.703   6.764
 3613POPC   C3A47081  43.081   9.715   7.064
 3613POPC   C4A47082  43.084   9.798   7.364
 3613POPC   C1B47083  42.883   9.879   6.464
 3613POPC   C2B47084  42.884   9.883   6.764
 3613POPC   C3B47085  42.860   9.856   7.064
 3613POPC   C4B47086  42.865   9.899   7.364
 3614POPC   NC347087  43.870   7.440   5.564
 3614POPC   PO447088  43.879   7.397   5.864
 3614POPC   GL147089  43.893   7.411   6.164
 3614POPC   GL247090  43.835   7.331   6.164
 3614POPC   C1A47091  43.928   7.450   6.464
 3614POPC   D2A47092  43.872   7.441   6.764
 3614POPC   C3A47093  43.840   7.378   7.064
 3614POPC   C4A47094  43.841   7.450   7.364
 3614POPC   C1B47095  43.741   7.288   6.464
 3614POPC   C2B47096  43.725   7.206   6.764
 3614POPC   C3B47097  43.722   7.241   7.064
 3614POPC   C4B47098  43.676   7.234   7.364
 3615POPC   NC347099   3.532  43.865   5.564
 3615POPC   PO447100   3.548  43.853   5.864
 3615POPC   GL147101   3.575  43.845   6.164
 3615POPC   GL247102   3.683  43.923   6.164
 3615POPC   C1A47103   3.537  43.905   6.464
 3615POPC   D2A47104   3.504  43.868   6.764
 3615POPC   C3A47105   3.571  43.864   7.064
 3615POPC   C4A47106   3.585  43.870   7.364
 3615POPC   C1B47107   3.724  44.028   6.464
 3615POPC   C2B47108   3.731  44.068   6.764
 3615POPC   C3B47109   3.725  43.997   7.064
 3615POPC   C4B47110   3.731  44.034   7.364
 3616POPC   NC347111  35.345  36.892   5.564
 3616POPC   PO447112  35.382  36.938   5.864
 3616POPC   GL147113  35.394  36.918   6.164
 3616POPC   GL247114  35.457  36.940   6.164
 3616POPC   C1A47115  35.332  36.943   6.464
 3616POPC   D2A47116  35.321  36.892   6.764
 3616POPC   C3A47117  35.344  36.911   7.064
 3616POPC   C4A47118  35.346  36.922   7.364
 3616POPC   C1B47119  35.608  36.973   6.464
 3616POPC   C2B47120  35.554  36.938   6.764
 3616POPC   C3B47121  35.560  36.948   7.064
 3616POPC   C4B47122  35.616  36.973   7.364
 3617POPC   NC347123  36.173  39.973   5.564
 3617POPC   PO447124  36.112  39.958   5.864
 3617POPC   GL147125  36.158  39.997   6.164
 3617POPC   GL247126  36.058  40.076   6.164
 3617POPC   C1A47127  36.086  40.052   6.464
 3617POPC   D2A47128  36.144  40.017   6.764
 3617POPC   C3A47129  36.109  40.024   7.064
 3617POPC   C4A47130  36.093  40.044   7.364
 3617POPC   C1B47131  36.019  40.207   6.464
 3617POPC   C2B47132  35.943  40.257   6.764
 3617POPC   C3B47133  35.963  40.205   7.064
 3617POPC   C4B47134  35.996  40.247   7.364
 3618POPC   NC347135   3.551  33.770   5.564
 3618POPC   PO447136   3.519  33.790   5.864
 3618POPC   GL147137   3.550  33.823   6.164
 3618POPC   GL247138   3.593  33.747   6.164
 3618POPC   C1A47139   3.561  33.825   6.464
 3618POPC   D2A47140   3.563  33.776   6.764
 3618POPC   C3A47141   3.534  33.750   7.064
 3618POPC   C4A47142   3.552  33.840   7.364
 3618POPC   C1B47143   3.676  33.601   6.464
 3618POPC   C2B47144   3.755  33.569   6.764
 3618POPC   C3B47145   3.748  33.610   7.064
 3618POPC   C4B47146   3.731  33.599   7.364
 3619POPC   NC347147  16.704   8.162   5.564
 3619POPC   PO447148  16.719   8.243   5.864
 3619POPC   GL147149  16.732   8.197   6.164
 3619POPC   GL247150  16.637   8.314   6.164
 3619POPC   C1A47151  16.751   8.200   6.464
 3619POPC   D2A47152  16.695   8.172   6.764
 3619POPC   C3A47153  16.714   8.221   7.064
 3619POPC   C4A47154  16.735   8.153   7.364
 3619POPC   C1B47155  16.607   8.456   6.464
 3619POPC   C2B47156  16.570   8.442   6.764
 3619POPC   C3B47157  16.599   8.432   7.064
 3619POPC   C4B47158  16.565   8.398   7.364
 3620POPC   NC347159  33.800  28.355   5.564
 3620POPC   PO447160  33.837  28.386   5.864
 3620POPC   GL147161  33.805  28.382   6.164
 3620POPC   GL247162  33.758  28.520   6.164
 3620POPC   C1A47163  33.795  28.323   6.464
 3620POPC   D2A47164  33.767  28.334   6.764
 3620POPC   C3A47165  33.752  28.414   7.064
 3620POPC   C4A47166  33.807  28.344   7.364
 3620POPC   C1B47167  33.714  28.600   6.464
 3620POPC   C2B47168  33.799  28.609   6.764
 3620POPC   C3B47169  33.794  28.576   7.064
 3620POPC   C4B47170  33.792  28.629   7.364
 3621POPC   NC347171  36.909  12.095   5.564
 3621POPC   PO447172  36.902  12.058   5.864
 3621POPC   GL147173  36.936  12.036   6.164
 3621POPC   GL247174  37.072  12.139   6.164
 3621POPC   C1A47175  36.929  12.089   6.464
 3621POPC   D2A47176  36.899  12.104   6.764
 3621POPC   C3A47177  36.933  12.055   7.064
 3621POPC   C4A47178  36.878  12.045   7.364
 3621POPC   C1B47179  37.121  12.097   6.464
 3621POPC   C2B47180  37.126  12.122   6.764
 3621POPC   C3B47181  37.147  12.146   7.064
 3621POPC   C4B47182  37.156  12.130   7.364
 3622POPC   NC347183   5.860  22.922   5.564
 3622POPC   PO447184   5.916  22.928   5.864
 3622POPC   GL147185   5.827  22.927   6.164
 3622POPC   GL247186   5.818  22.826   6.164
 3622POPC   C1A47187   5.901  22.889   6.464
 3622POPC   D2A47188   5.820  22.959   6.764
 3622POPC   C3A47189   5.859  22.954   7.064
 3622POPC   C4A47190   5.918  22.937   7.364
 3622POPC   C1B47191   5.689  22.786   6.464
 3622POPC   C2B47192   5.666  22.736   6.764
 3622POPC   C3B47193   5.673  22.821   7.064
 3622POPC   C4B47194   5.639  22.744   7.364
 3623POPC   NC347195   8.149  17.488   5.564
 3623POPC   PO447196   8.174  17.461   5.864
 3623POPC   GL147197   8.246  17.527   6.164
 3623POPC   GL247198   8.263  17.602   6.164
 3623POPC   C1A47199   8.152  17.473   6.464
 3623POPC   D2A47200   8.214  17.496   6.764
 3623POPC   C3A47201   8.211  17.524   7.064
 3623POPC   C4A47202   8.245  17.517   7.364
 3623POPC   C1B47203   8.248  17.720   6.464
 3623POPC   C2B47204   8.309  17.781   6.764
 3623POPC   C3B47205   8.266  17.715   7.064
 3623POPC   C4B47206   8.267  17.790   7.364
 3624POPC   NC347207  29.931  15.147   5.564
 3624POPC   PO447208  29.942  15.130   5.864
 3624POPC   GL147209  29.896  15.147   6.164
 3624POPC   GL247210  29.971  15.075   6.164
 3624POPC   C1A47211  29.874  15.130   6.464
 3624POPC   D2A47212  29.924  15.180   6.764
 3624POPC   C3A47213  29.968  15.176   7.064
 3624POPC   C4A47214  29.896  15.136   7.364
 3624POPC   C1B47215  29.995  14.950   6.464
 3624POPC   C2B47216  30.063  14.959   6.764
 3624POPC   C3B47217  30.066  14.929   7.064
 3624POPC   C4B47218  30.027  14.971   7.364
 3625POPC   NC347219   8.962   4.304   5.564
 3625POPC   PO447220   8.968   4.279   5.864
 3625POPC   GL147221   8.959   4.354   6.164
 3625POPC   GL247222   8.987   4.448   6.164
 3625POPC   C1A47223   9.021   4.289   6.464
 3625POPC   D2A47224   8.995   4.319   6.764
 3625POPC   C3A47225   9.000   4.292   7.064
 3625POPC   C4A47226   9.017   4.361   7.364
 3625POPC   C1B47227   9.038   4.595   6.464
 3625POPC   C2B47228   9.027   4.542   6.764
 3625POPC   C3B47229   9.033   4.559   7.064
 3625POPC   C4B47230   9.034   4.540   7.364
 3626POPC   NC347231  24.539  24.498   5.564
 3626POPC   PO447232  24.486  24.464   5.864
 3626POPC   GL147233  24.463  24.522   6.164
 3626POPC   GL247234  24.573  24.375   6.164
 3626POPC   C1A47235  24.534  24.527   6.464
 3626POPC   D2A47236  24.498  24.534   6.764
 3626POPC   C3A47237  24.451  24.465   7.064
 3626POPC   C4A47238  24.488  24.452   7.364
 3626POPC   C1B47239  24.680  24.333   6.464
 3626POPC   C2B47240  24.697  24.352   6.764
 3626POPC   C3B47241  24.687  24.370   7.064
 3626POPC   C4B47242  24.733  24.294   7.364
 3627POPC   NC347243   6.598  38.440   5.564
 3627POPC   PO447244   6.631  38.493   5.864
 3627POPC   GL147245   6.610  38.489   6.164
 3627POPC   GL247246   6.566  38.468   6.164
 3627POPC   C1A47247   6.661  38.491   6.464
 3627POPC   D2A47248   6.596  38.485   6.764
 3627POPC   C3A47249   6.690  38.453   7.064
 3627POPC   C4A47250   6.596  38.468   7.364
 3627POPC   C1B47251   6.401  38.407   6.464
 3627POPC   C2B47252   6.374  38.429   6.764
 3627POPC   C3B47253   6.411  38.386   7.064
 3627POPC   C4B47254   6.424  38.372   7.364
 3628POPC   NC347255  10.548  42.313   5.564
 3628POPC   PO447256  10.570  42.323   5.864
 3628POPC   GL147257  10.487  42.373   6.164
 3628POPC   GL247258  10.428  42.371   6.164
 3628POPC   C1A47259  10.529  42.378   6.464
 3628POPC   D2A47260  10.556  42.348   6.764
 3628POPC   C3A47261  10.500  42.364   7.064
 3628POPC   C4A47262  10.502  42.368   7.364
 3628POPC   C1B47263  10.361  42.507   6.464
 3628POPC   C2B47264  10.358  42.437   6.764
 3628POPC   C3B47265  10.326  42.518   7.064
 3628POPC   C4B47266  10.280  42.514   7.364
 3629POPC   NC347267   9.725  15.940   5.564
 3629POPC   PO447268   9.745  15.963   5.864
 3629POPC   GL147269   9.740  15.979   6.164
 3629POPC   GL247270   9.830  15.927   6.164
 3629POPC   C1A47271   9.707  15.908   6.464
 3629POPC   D2A47272   9.732  15.907   6.764
 3629POPC   C3A47273   9.796  15.975   7.064
 3629POPC   C4A47274   9.720  15.930   7.364
 3629POPC   C1B47275   9.979  15.822   6.464
 3629POPC   C2B47276   9.968  15.821   6.764
 3629POPC   C3B47277  10.016  15.791   7.064
 3629POPC   C4B47278   9.976  15.857   7.364
 3630POPC   NC347279  10.542  36.105   5.564
 3630POPC   PO447280  10.572  36.091   5.864
 3630POPC   GL147281  10.548  36.144   6.164
 3630POPC   GL247282  10.490  36.230   6.164
 3630POPC   C1A47283  10.501  36.160   6.464
 3630POPC   D2A47284  10.517  36.103   6.764
 3630POPC   C3A47285  10.513  36.169   7.064
 3630POPC   C4A47286  10.533  36.139   7.364
 3630POPC   C1B47287  10.371  36.292   6.464
 3630POPC   C2B47288  10.384  36.325   6.764
 3630POPC   C3B47289  10.392  36.366   7.064
 3630POPC   C4B47290  10.400  36.341   7.364
 3631POPC   NC347291  10.481  29.188   5.564
 3631POPC   PO447292  10.548  29.161   5.864
 3631POPC   GL147293  10.567  29.167   6.164
 3631POPC   GL247294  10.411  29.224   6.164
 3631POPC   C1A47295  10.523  29.181   6.464
 3631POPC   D2A47296  10.538  29.128   6.764
 3631POPC   C3A47297  10.540  29.162   7.064
 3631POPC   C4A47298  10.543  29.107   7.364
 3631POPC   C1B47299  10.252  29.279   6.464
 3631POPC   C2B47300  10.307  29.237   6.764
 3631POPC   C3B47301  10.289  29.253   7.064
 3631POPC   C4B47302  10.253  29.198   7.364
 3632POPC   NC347303  23.681  39.258   5.564
 3632POPC   PO447304  23.731  39.261   5.864
 3632POPC   GL147305  23.723  39.211   6.164
 3632POPC   GL247306  23.805  39.292   6.164
 3632POPC   C1A47307  23.755  39.260   6.464
 3632POPC   D2A47308  23.705  39.267   6.764
 3632POPC   C3A47309  23.759  39.257   7.064
 3632POPC   C4A47310  23.731  39.220   7.364
 3632POPC   C1B47311  23.950  39.312   6.464
 3632POPC   C2B47312  23.983  39.302   6.764
 3632POPC   C3B47313  23.899  39.323   7.064
 3632POPC   C4B47314  23.980  39.361   7.364
 3633POPC   NC347315  28.328  36.172   5.564
 3633POPC   PO447316  28.374  36.151   5.864
 3633POPC   GL147317  28.333  36.168   6.164
 3633POPC   GL247318  28.297  36.095   6.164
 3633POPC   C1A47319  28.366  36.141   6.464
 3633POPC   D2A47320  28.378  36.163   6.764
 3633POPC   C3A47321  28.391  36.141   7.064
 3633POPC   C4A47322  28.356  36.158   7.364
 3633POPC   C1B47323  28.117  36.018   6.464
 3633POPC   C2B47324  28.133  36.003   6.764
 3633POPC   C3B47325  28.183  35.954   7.064
 3633POPC   C4B47326  28.143  36.022   7.364
 3634POPC   NC347327  27.608  34.611   5.564
 3634POPC   PO447328  27.640  34.613   5.864
 3634POPC   GL147329  27.598  34.594   6.164
 3634POPC   GL247330  27.668  34.530   6.164
 3634POPC   C1A47331  27.640  34.587   6.464
 3634POPC   D2A47332  27.573  34.594   6.764
 3634POPC   C3A47333  27.611  34.590   7.064
 3634POPC   C4A47334  27.574  34.557   7.364
 3634POPC   C1B47335  27.798  34.354   6.464
 3634POPC   C2B47336  27.767  34.362   6.764
 3634POPC   C3B47337  27.721  34.349   7.064
 3634POPC   C4B47338  27.800  34.382   7.364
 3635POPC   NC347339  34.530   6.608   5.564
 3635POPC   PO447340  34.563   6.694   5.864
 3635POPC   GL147341  34.570   6.663   6.164
 3635POPC   GL247342  34.666   6.665   6.164
 3635POPC   C1A47343  34.561   6.617   6.464
 3635POPC   D2A47344  34.623   6.650   6.764
 3635POPC   C3A47345  34.601   6.626   7.064
 3635POPC   C4A47346  34.555   6.690   7.364
 3635POPC   C1B47347  34.828   6.752   6.464
 3635POPC   C2B47348  34.831   6.713   6.764
 3635POPC   C3B47349  34.789   6.727   7.064
 3635POPC   C4B47350  34.842   6.748   7.364
 3636POPC   NC347351  21.419   3.548   5.564
 3636POPC   PO447352  21.420   3.506   5.864
 3636POPC   GL147353  21.352   3.544   6.164
 3636POPC   GL247354  21.500   3.483   6.164
 3636POPC   C1A47355  21.372   3.515   6.464
 3636POPC   D2A47356  21.391   3.524   6.764
 3636POPC   C3A47357  21.381   3.533   7.064
 3636POPC   C4A47358  21.421   3.511   7.364
 3636POPC   C1B47359  21.683   3.556   6.464
 3636POPC   C2B47360  21.657   3.473   6.764
 3636POPC   C3B47361  21.634   3.499   7.064
 3636POPC   C4B47362  21.613   3.468   7.364
 3637POPC   NC347363  40.816  22.948   5.564
 3637POPC   PO447364  40.759  22.948   5.864
 3637POPC   GL147365  40.769  22.936   6.164
 3637POPC   GL247366  40.786  22.784   6.164
 3637POPC   C1A47367  40.811  22.942   6.464
 3637POPC   D2A47368  40.749  22.892   6.764
 3637POPC   C3A47369  40.746  22.921   7.064
 3637POPC   C4A47370  40.792  22.987   7.364
 3637POPC   C1B47371  40.705  22.742   6.464
 3637POPC   C2B47372  40.760  22.689   6.764
 3637POPC   C3B47373  40.720  22.660   7.064
 3637POPC   C4B47374  40.719  22.705   7.364
 3638POPC   NC347375  33.800   9.781   5.564
 3638POPC   PO447376  33.848   9.725   5.864
 3638POPC   GL147377  33.815   9.786   6.164
 3638POPC   GL247378  33.661   9.829   6.164
 3638POPC   C1A47379  33.784   9.758   6.464
 3638POPC   D2A47380  33.768   9.760   6.764
 3638POPC   C3A47381  33.818   9.723   7.064
 3638POPC   C4A47382  33.825   9.783   7.364
 3638POPC   C1B47383  33.573   9.931   6.464
 3638POPC   C2B47384  33.650   9.939   6.764
 3638POPC   C3B47385  33.626   9.872   7.064
 3638POPC   C4B47386  33.640   9.882   7.364
 3639POPC   NC347387  43.853  36.130   5.564
 3639POPC   PO447388  43.913  36.147   5.864
 3639POPC   GL147389  43.854  36.124   6.164
 3639POPC   GL247390  43.776  36.124   6.164
 3639POPC   C1A47391  43.850  36.155   6.464
 3639POPC   D2A47392  43.848  36.127   6.764
 3639POPC   C3A47393  43.896  36.162   7.064
 3639POPC   C4A47394  43.935  36.161   7.364
 3639POPC   C1B47395  43.615  36.025   6.464
 3639POPC   C2B47396  43.619  36.051   6.764
 3639POPC   C3B47397  43.688  36.073   7.064
 3639POPC   C4B47398  43.662  36.085   7.364
 3640POPC   NC347399  17.533  15.929   5.564
 3640POPC   PO447400  17.493  15.970   5.864
 3640POPC   GL147401  17.470  15.957   6.164
 3640POPC   GL247402  17.483  16.092   6.164
 3640POPC   C1A47403  17.549  15.911   6.464
 3640POPC   D2A47404  17.554  15.975   6.764
 3640POPC   C3A47405  17.534  15.905   7.064
 3640POPC   C4A47406  17.474  15.906   7.364
 3640POPC   C1B47407  17.423  16.165   6.464
 3640POPC   C2B47408  17.404  16.170   6.764
 3640POPC   C3B47409  17.395  16.192   7.064
 3640POPC   C4B47410  17.375  16.147   7.364
 3641POPC   NC347411  14.432  25.273   5.564
 3641POPC   PO447412  14.398  25.268   5.864
 3641POPC   GL147413  14.395  25.238   6.164
 3641POPC   GL247414  14.524  25.263   6.164
 3641POPC   C1A47415  14.426  25.312   6.464
 3641POPC   D2A47416  14.427  25.272   6.764
 3641POPC   C3A47417  14.381  25.285   7.064
 3641POPC   C4A47418  14.433  25.226   7.364
 3641POPC   C1B47419  14.598  25.376   6.464
 3641POPC   C2B47420  14.679  25.347   6.764
 3641POPC   C3B47421  14.607  25.397   7.064
 3641POPC   C4B47422  14.653  25.367   7.364
 3642POPC   NC347423  29.142  43.076   5.564
 3642POPC   PO447424  29.135  43.131   5.864
 3642POPC   GL147425  29.119  43.073   6.164
 3642POPC   GL247426  29.084  43.171   6.164
 3642POPC   C1A47427  29.119  43.119   6.464
 3642POPC   D2A47428  29.116  43.145   6.764
 3642POPC   C3A47429  29.128  43.074   7.064
 3642POPC   C4A47430  29.152  43.067   7.364
 3642POPC   C1B47431  28.952  43.247   6.464
 3642POPC   C2B47432  28.922  43.213   6.764
 3642POPC   C3B47433  28.920  43.217   7.064
 3642POPC   C4B47434  28.895  43.275   7.364
 3643POPC   NC347435  22.971  20.659   5.564
 3643POPC   PO447436  22.948  20.568   5.864
 3643POPC   GL147437  22.960  20.565   6.164
 3643POPC   GL247438  22.875  20.706   6.164
 3643POPC   C1A47439  22.935  20.628   6.464
 3643POPC   D2A47440  22.922  20.569   6.764
 3643POPC   C3A47441  22.900  20.623   7.064
 3643POPC   C4A47442  22.924  20.600   7.364
 3643POPC   C1B47443  22.841  20.866   6.464
 3643POPC   C2B47444  22.846  20.880   6.764
 3643POPC   C3B47445  22.810  20.800   7.064
 3643POPC   C4B47446  22.868  20.844   7.364
 3644POPC   NC347447  40.753  20.654   5.564
 3644POPC   PO447448  40.814  20.652   5.864
 3644POPC   GL147449  40.739  20.566   6.164
 3644POPC   GL247450  40.860  20.762   6.164
 3644POPC   C1A47451  40.802  20.602   6.464
 3644POPC   D2A47452  40.738  20.585   6.764
 3644POPC   C3A47453  40.780  20.638   7.064
 3644POPC   C4A47454  40.756  20.590   7.364
 3644POPC   C1B47455  40.832  20.864   6.464
 3644POPC   C2B47456  40.818  20.840   6.764
 3644POPC   C3B47457  40.802  20.817   7.064
 3644POPC   C4B47458  40.830  20.822   7.364
 3645POPC   NC347459  39.993  26.071   5.564
 3645POPC   PO447460  39.966  26.040   5.864
 3645POPC   GL147461  40.021  26.056   6.164
 3645POPC   GL247462  39.906  25.925   6.164
 3645POPC   C1A47463  39.966  26.043   6.464
 3645POPC   D2A47464  40.053  26.009   6.764
 3645POPC   C3A47465  39.970  26.001   7.064
 3645POPC   C4A47466  39.981  26.081   7.364
 3645POPC   C1B47467  39.856  25.850   6.464
 3645POPC   C2B47468  39.840  25.818   6.764
 3645POPC   C3B47469  39.848  25.831   7.064
 3645POPC   C4B47470  39.795  25.879   7.364
 3646POPC   NC347471   1.994  39.272   5.564
 3646POPC   PO447472   1.973  39.199   5.864
 3646POPC   GL147473   2.026  39.257   6.164
 3646POPC   GL247474   2.058  39.321   6.164
 3646POPC   C1A47475   1.957  39.197   6.464
 3646POPC   D2A47476   1.978  39.238   6.764
 3646POPC   C3A47477   1.940  39.183   7.064
 3646POPC   C4A47478   1.948  39.265   7.364
 3646POPC   C1B47479   2.105  39.454   6.464
 3646POPC   C2B47480   2.184  39.390   6.764
 3646POPC   C3B47481   2.162  39.423   7.064
 3646POPC   C4B47482   2.112  39.448   7.364
 3647POPC   NC347483  30.649  44.669   5.564
 3647POPC   PO447484  30.656  44.630   5.864
 3647POPC   GL147485  30.649  44.624   6.164
 3647POPC   GL247486  30.630  44.753   6.164
 3647POPC   C1A47487  30.649  44.623   6.464
 3647POPC   D2A47488  30.679  44.627   6.764
 3647POPC   C3A47489  30.705  44.698   7.064
 3647POPC   C4A47490  30.719  44.642   7.364
 3647POPC   C1B47491  30.534  44.853   6.464
 3647POPC   C2B47492  30.574  44.906   6.764
 3647POPC   C3B47493  30.617  44.919   7.064
 3647POPC   C4B47494  30.581  44.919   7.364
 3648POPC   NC347495  26.038  18.312   5.564
 3648POPC   PO447496  26.021  18.245   5.864
 3648POPC   GL147497  26.042  18.307   6.164
 3648POPC   GL247498  26.196  18.300   6.164
 3648POPC   C1A47499  26.009  18.300   6.464
 3648POPC   D2A47500  26.061  18.330   6.764
 3648POPC   C3A47501  26.006  18.253   7.064
 3648POPC   C4A47502  26.057  18.275   7.364
 3648POPC   C1B47503  26.307  18.309   6.464
 3648POPC   C2B47504  26.246  18.361   6.764
 3648POPC   C3B47505  26.277  18.396   7.064
 3648POPC   C4B47506  26.245  18.385   7.364
 3649POPC   NC347507  20.654   3.516   5.564
 3649POPC   PO447508  20.588   3.548   5.864
 3649POPC   GL147509  20.627   3.519   6.164
 3649POPC   GL247510  20.475   3.551   6.164
 3649POPC   C1A47511  20.606   3.519   6.464
 3649POPC   D2A47512  20.620   3.495   6.764
 3649POPC   C3A47513  20.639   3.589   7.064
 3649POPC   C4A47514  20.609   3.542   7.364
 3649POPC   C1B47515  20.343   3.610   6.464
 3649POPC   C2B47516  20.407   3.623   6.764
 3649POPC   C3B47517  20.384   3.592   7.064
 3649POPC   C4B47518  20.389   3.602   7.364
 3650POPC   NC347519  39.203  18.233   5.564
 3650POPC   PO447520  39.261  18.283   5.864
 3650POPC   GL147521  39.275  18.238   6.164
 3650POPC   GL247522  39.347  18.217   6.164
 3650POPC   C1A47523  39.236  18.290   6.464
 3650POPC   D2A47524  39.226  18.280   6.764
 3650POPC   C3A47525  39.221  18.263   7.064
 3650POPC   C4A47526  39.254  18.320   7.364
 3650POPC   C1B47527  39.471  18.287   6.464
 3650POPC   C2B47528  39.436  18.248   6.764
 3650POPC   C3B47529  39.488  18.287   7.064
 3650POPC   C4B47530  39.484  18.254   7.364
 3651POPC   NC347531  26.784  24.446   5.564
 3651POPC   PO447532  26.779  24.536   5.864
 3651POPC   GL147533  26.833  24.504   6.164
 3651POPC   GL247534  26.734  24.564   6.164
 3651POPC   C1A47535  26.815  24.507   6.464
 3651POPC   D2A47536  26.815  24.463   6.764
 3651POPC   C3A47537  26.812  24.469   7.064
 3651POPC   C4A47538  26.774  24.458   7.364
 3651POPC   C1B47539  26.662  24.700   6.464
 3651POPC   C2B47540  26.699  24.683   6.764
 3651POPC   C3B47541  26.694  24.732   7.064
 3651POPC   C4B47542  26.657  24.659   7.364
 3652POPC   NC347543   0.408  38.455   5.564
 3652POPC   PO447544   0.486  38.482   5.864
 3652POPC   GL147545   0.438  38.475   6.164
 3652POPC   GL247546   0.274  38.411   6.164
 3652POPC   C1A47547   0.473  38.421   6.464
 3652POPC   D2A47548   0.454  38.488   6.764
 3652POPC   C3A47549   0.420  38.457   7.064
 3652POPC   C4A47550   0.461  38.477   7.364
 3652POPC   C1B47551   0.186  38.429   6.464
 3652POPC   C2B47552   0.222  38.432   6.764
 3652POPC   C3B47553   0.221  38.443   7.064
 3652POPC   C4B47554   0.186  38.454   7.364
 3653POPC   NC347555  19.046  41.543   5.564
 3653POPC   PO447556  19.040  41.546   5.864
 3653POPC   GL147557  19.068  41.575   6.164
 3653POPC   GL247558  18.897  41.525   6.164
 3653POPC   C1A47559  19.044  41.589   6.464
 3653POPC   D2A47560  19.093  41.520   6.764
 3653POPC   C3A47561  19.057  41.546   7.064
 3653POPC   C4A47562  19.025  41.569   7.364
 3653POPC   C1B47563  18.818  41.503   6.464
 3653POPC   C2B47564  18.855  41.483   6.764
 3653POPC   C3B47565  18.793  41.534   7.064
 3653POPC   C4B47566  18.810  41.537   7.364
 3654POPC   NC347567  44.666   5.100   5.564
 3654POPC   PO447568  44.637   5.063   5.864
 3654POPC   GL147569  44.652   5.054   6.164
 3654POPC   GL247570  44.720   5.137   6.164
 3654POPC   C1A47571  44.698   5.051   6.464
 3654POPC   D2A47572  44.700   5.091   6.764
 3654POPC   C3A47573  44.637   5.051   7.064
 3654POPC   C4A47574  44.674   5.058   7.364
 3654POPC   C1B47575  44.863   5.240   6.464
 3654POPC   C2B47576  44.872   5.296   6.764
 3654POPC   C3B47577  44.848   5.316   7.064
 3654POPC   C4B47578  44.804   5.303   7.364
 3655POPC   NC347579  29.122  29.946   5.564
 3655POPC   PO447580  29.172  29.932   5.864
 3655POPC   GL147581  29.095  29.949   6.164
 3655POPC   GL247582  29.214  30.054   6.164
 3655POPC   C1A47583  29.176  29.921   6.464
 3655POPC   D2A47584  29.110  29.920   6.764
 3655POPC   C3A47585  29.095  29.928   7.064
 3655POPC   C4A47586  29.153  29.885   7.364
 3655POPC   C1B47587  29.300  30.170   6.464
 3655POPC   C2B47588  29.264  30.113   6.764
 3655POPC   C3B47589  29.281  30.168   7.064
 3655POPC   C4B47590  29.225  30.184   7.364
 3656POPC   NC347591  15.969  28.391   5.564
 3656POPC   PO447592  15.955  28.324   5.864
 3656POPC   GL147593  16.002  28.400   6.164
 3656POPC   GL247594  15.910  28.460   6.164
 3656POPC   C1A47595  15.973  28.358   6.464
 3656POPC   D2A47596  15.958  28.412   6.764
 3656POPC   C3A47597  15.915  28.323   7.064
 3656POPC   C4A47598  15.962  28.397   7.364
 3656POPC   C1B47599  15.759  28.570   6.464
 3656POPC   C2B47600  15.773  28.511   6.764
 3656POPC   C3B47601  15.834  28.535   7.064
 3656POPC   C4B47602  15.796  28.526   7.364
 3657POPC   NC347603   3.512   5.098   5.564
 3657POPC   PO447604   3.561   5.119   5.864
 3657POPC   GL147605   3.506   5.061   6.164
 3657POPC   GL247606   3.697   5.151   6.164
 3657POPC   C1A47607   3.558   5.130   6.464
 3657POPC   D2A47608   3.522   5.070   6.764
 3657POPC   C3A47609   3.513   5.128   7.064
 3657POPC   C4A47610   3.548   5.127   7.364
 3657POPC   C1B47611   3.728   5.248   6.464
 3657POPC   C2B47612   3.717   5.157   6.764
 3657POPC   C3B47613   3.811   5.252   7.064
 3657POPC   C4B47614   3.811   5.232   7.364
 3658POPC   NC347615  39.972  34.612   5.564
 3658POPC   PO447616  40.029  34.569   5.864
 3658POPC   GL147617  39.992  34.538   6.164
 3658POPC   GL247618  40.026  34.403   6.164
 3658POPC   C1A47619  40.043  34.605   6.464
 3658POPC   D2A47620  40.026  34.533   6.764
 3658POPC   C3A47621  40.044  34.598   7.064
 3658POPC   C4A47622  40.003  34.536   7.364
 3658POPC   C1B47623  40.033  34.300   6.464
 3658POPC   C2B47624  40.061  34.362   6.764
 3658POPC   C3B47625  40.010  34.376   7.064
 3658POPC   C4B47626  40.042  34.378   7.364
 3659POPC   NC347627  36.092  28.361   5.564
 3659POPC   PO447628  36.111  28.378   5.864
 3659POPC   GL147629  36.112  28.325   6.164
 3659POPC   GL247630  36.165  28.440   6.164
 3659POPC   C1A47631  36.115  28.342   6.464
 3659POPC   D2A47632  36.126  28.342   6.764
 3659POPC   C3A47633  36.105  28.358   7.064
 3659POPC   C4A47634  36.101  28.377   7.364
 3659POPC   C1B47635  36.226  28.631   6.464
 3659POPC   C2B47636  36.150  28.611   6.764
 3659POPC   C3B47637  36.232  28.600   7.064
 3659POPC   C4B47638  36.155  28.598   7.364
 3660POPC   NC347639  19.066  16.747   5.564
 3660POPC   PO447640  19.075  16.750   5.864
 3660POPC   GL147641  19.078  16.752   6.164
 3660POPC   GL247642  19.081  16.835   6.164
 3660POPC   C1A47643  19.105  16.781   6.464
 3660POPC   D2A47644  19.085  16.752   6.764
 3660POPC   C3A47645  19.034  16.763   7.064
 3660POPC   C4A47646  19.091  16.729   7.364
 3660POPC   C1B47647  19.146  17.025   6.464
 3660POPC   C2B47648  19.061  16.948   6.764
 3660POPC   C3B47649  19.103  17.005   7.064
 3660POPC   C4B47650  19.109  16.934   7.364
 3661POPC   NC347651  18.303  18.247   5.564
 3661POPC   PO447652  18.279  18.247   5.864
 3661POPC   GL147653  18.237  18.264   6.164
 3661POPC   GL247654  18.204  18.417   6.164
 3661POPC   C1A47655  18.293  18.294   6.464
 3661POPC   D2A47656  18.251  18.256   6.764
 3661POPC   C3A47657  18.252  18.279   7.064
 3661POPC   C4A47658  18.250  18.327   7.364
 3661POPC   C1B47659  18.107  18.449   6.464
 3661POPC   C2B47660  18.087  18.484   6.764
 3661POPC   C3B47661  18.155  18.512   7.064
 3661POPC   C4B47662  18.131  18.516   7.364
 3662POPC   NC347663  12.893  36.096   5.564
 3662POPC   PO447664  12.809  36.120   5.864
 3662POPC   GL147665  12.804  36.118   6.164
 3662POPC   GL247666  12.846  36.235   6.164
 3662POPC   C1A47667  12.814  36.113   6.464
 3662POPC   D2A47668  12.810  36.158   6.764
 3662POPC   C3A47669  12.818  36.166   7.064
 3662POPC   C4A47670  12.828  36.089   7.364
 3662POPC   C1B47671  12.864  36.396   6.464
 3662POPC   C2B47672  12.864  36.367   6.764
 3662POPC   C3B47673  12.880  36.391   7.064
 3662POPC   C4B47674  12.847  36.346   7.364
 3663POPC   NC347675  21.386  20.653   5.564
 3663POPC   PO447676  21.348  20.612   5.864
 3663POPC   GL147677  21.374  20.587   6.164
 3663POPC   GL247678  21.335  20.678   6.164
 3663POPC   C1A47679  21.349  20.660   6.464
 3663POPC   D2A47680  21.429  20.590   6.764
 3663POPC   C3A47681  21.429  20.594   7.064
 3663POPC   C4A47682  21.384  20.574   7.364
 3663POPC   C1B47683  21.298  20.887   6.464
 3663POPC   C2B47684  21.288  20.814   6.764
 3663POPC   C3B47685  21.311  20.826   7.064
 3663POPC   C4B47686  21.312  20.848   7.364
 3664POPC   NC347687   7.394  22.155   5.564
 3664POPC   PO447688   7.468  22.169   5.864
 3664POPC   GL147689   7.399  22.128   6.164
 3664POPC   GL247690   7.293  22.113   6.164
 3664POPC   C1A47691   7.432  22.208   6.464
 3664POPC   D2A47692   7.470  22.202   6.764
 3664POPC   C3A47693   7.402  22.144   7.064
 3664POPC   C4A47694   7.455  22.172   7.364
 3664POPC   C1B47695   7.145  22.096   6.464
 3664POPC   C2B47696   7.181  22.089   6.764
 3664POPC   C3B47697   7.229  22.048   7.064
 3664POPC   C4B47698   7.206  22.057   7.364
 3665POPC   NC347699  44.676  41.527   5.564
 3665POPC   PO447700  44.706  41.566   5.864
 3665POPC   GL147701  44.639  41.547   6.164
 3665POPC   GL247702  44.651  41.405   6.164
 3665POPC   C1A47703  44.634  41.585   6.464
 3665POPC   D2A47704  44.671  41.595   6.764
 3665POPC   C3A47705  44.673  41.606   7.064
 3665POPC   C4A47706  44.643  41.545   7.364
 3665POPC   C1B47707  44.727  41.304   6.464
 3665POPC   C2B47708  44.649  41.274   6.764
 3665POPC   C3B47709  44.676  41.305   7.064
 3665POPC   C4B47710  44.657  41.316   7.364
 3666POPC   NC347711  38.461  18.243   5.564
 3666POPC   PO447712  38.427  18.296   5.864
 3666POPC   GL147713  38.473  18.310   6.164
 3666POPC   GL247714  38.608  18.171   6.164
 3666POPC   C1A47715  38.472  18.244   6.464
 3666POPC   D2A47716  38.502  18.252   6.764
 3666POPC   C3A47717  38.474  18.303   7.064
 3666POPC   C4A47718  38.441  18.293   7.364
 3666POPC   C1B47719  38.661  18.148   6.464
 3666POPC   C2B47720  38.629  18.111   6.764
 3666POPC   C3B47721  38.702  18.151   7.064
 3666POPC   C4B47722  38.666  18.114   7.364
 3667POPC   NC347723  43.066   1.989   5.564
 3667POPC   PO447724  43.134   1.953   5.864
 3667POPC   GL147725  43.108   1.966   6.164
 3667POPC   GL247726  43.090   1.897   6.164
 3667POPC   C1A47727  43.125   2.001   6.464
 3667POPC   D2A47728  43.114   1.946   6.764
 3667POPC   C3A47729  43.061   2.013   7.064
 3667POPC   C4A47730  43.150   2.031   7.364
 3667POPC   C1B47731  43.016   1.789   6.464
 3667POPC   C2B47732  42.990   1.748   6.764
 3667POPC   C3B47733  43.014   1.747   7.064
 3667POPC   C4B47734  42.987   1.732   7.364
 3668POPC   NC347735  43.856  18.241   5.564
 3668POPC   PO447736  43.917  18.285   5.864
 3668POPC   GL147737  43.854  18.308   6.164
 3668POPC   GL247738  43.924  18.384   6.164
 3668POPC   C1A47739  43.858  18.300   6.464
 3668POPC   D2A47740  43.869  18.252   6.764
 3668POPC   C3A47741  43.920  18.314   7.064
 3668POPC   C4A47742  43.905  18.302   7.364
 3668POPC   C1B47743  43.875  18.561   6.464
 3668POPC   C2B47744  43.871  18.528   6.764
 3668POPC   C3B47745  43.896  18.542   7.064
 3668POPC   C4B47746  43.942  18.494   7.364
 3669POPC   NC347747   7.440   5.900   5.564
 3669POPC   PO447748   7.415   5.873   5.864
 3669POPC   GL147749   7.400   5.916   6.164
 3669POPC   GL247750   7.432   5.979   6.164
 3669POPC   C1A47751   7.467   5.846   6.464
 3669POPC   D2A47752   7.389   5.855   6.764
 3669POPC   C3A47753   7.443   5.892   7.064
 3669POPC   C4A47754   7.445   5.836   7.364
 3669POPC   C1B47755   7.388   6.071   6.464
 3669POPC   C2B47756   7.403   6.115   6.764
 3669POPC   C3B47757   7.362   6.119   7.064
 3669POPC   C4B47758   7.343   6.065   7.364
 3670POPC   NC347759  28.348   0.443   5.564
 3670POPC   PO447760  28.376   0.391   5.864
 3670POPC   GL147761  28.368   0.433   6.164
 3670POPC   GL247762  28.535   0.393   6.164
 3670POPC   C1A47763  28.326   0.452   6.464
 3670POPC   D2A47764  28.333   0.442   6.764
 3670POPC   C3A47765  28.390   0.449   7.064
 3670POPC   C4A47766  28.407   0.436   7.364
 3670POPC   C1B47767  28.614   0.429   6.464
 3670POPC   C2B47768  28.579   0.337   6.764
 3670POPC   C3B47769  28.659   0.339   7.064
 3670POPC   C4B47770  28.584   0.372   7.364
 3671POPC   NC347771  21.426  37.686   5.564
 3671POPC   PO447772  21.436  37.719   5.864
 3671POPC   GL147773  21.388  37.641   6.164
 3671POPC   GL247774  21.473  37.825   6.164
 3671POPC   C1A47775  21.435  37.729   6.464
 3671POPC   D2A47776  21.389  37.713   6.764
 3671POPC   C3A47777  21.377  37.629   7.064
 3671POPC   C4A47778  21.424  37.669   7.364
 3671POPC   C1B47779  21.562  37.899   6.464
 3671POPC   C2B47780  21.515  37.863   6.764
 3671POPC   C3B47781  21.569  37.905   7.064
 3671POPC   C4B47782  21.591  37.890   7.364
 3672POPC   NC347783  39.199  42.311   5.564
 3672POPC   PO447784  39.263  42.362   5.864
 3672POPC   GL147785  39.276  42.350   6.164
 3672POPC   GL247786  39.129  42.231   6.164
 3672POPC   C1A47787  39.198  42.327   6.464
 3672POPC   D2A47788  39.215  42.368   6.764
 3672POPC   C3A47789  39.209  42.312   7.064
 3672POPC   C4A47790  39.202  42.343   7.364
 3672POPC   C1B47791  39.078  42.129   6.464
 3672POPC   C2B47792  39.032  42.188   6.764
 3672POPC   C3B47793  39.082  42.153   7.064
 3672POPC   C4B47794  39.016  42.135   7.364
 3673POPC   NC347795  10.554  16.766   5.564
 3673POPC   PO447796  10.502  16.781   5.864
 3673POPC   GL147797  10.542  16.694   6.164
 3673POPC   GL247798  10.636  16.850   6.164
 3673POPC   C1A47799  10.484  16.692   6.464
 3673POPC   D2A47800  10.532  16.777   6.764
 3673POPC   C3A47801  10.572  16.721   7.064
 3673POPC   C4A47802  10.546  16.716   7.364
 3673POPC   C1B47803  10.616  16.989   6.464
 3673POPC   C2B47804  10.659  16.960   6.764
 3673POPC   C3B47805  10.638  16.984   7.064
 3673POPC   C4B47806  10.694  16.926   7.364
 3674POPC   NC347807  15.916  17.536   5.564
 3674POPC   PO447808  15.916  17.463   5.864
 3674POPC   GL147809  15.947  17.468   6.164
 3674POPC   GL247810  15.819  17.392   6.164
 3674POPC   C1A47811  15.911  17.499   6.464
 3674POPC   D2A47812  15.920  17.530   6.764
 3674POPC   C3A47813  15.935  17.467   7.064
 3674POPC   C4A47814  15.975  17.473   7.364
 3674POPC   C1B47815  15.722  17.418   6.464
 3674POPC   C2B47816  15.757  17.326   6.764
 3674POPC   C3B47817  15.769  17.321   7.064
 3674POPC   C4B47818  15.758  17.396   7.364
 3675POPC   NC347819  37.703  34.603   5.564
 3675POPC   PO447820  37.639  34.609   5.864
 3675POPC   GL147821  37.686  34.546   6.164
 3675POPC   GL247822  37.752  34.681   6.164
 3675POPC   C1A47823  37.695  34.568   6.464
 3675POPC   D2A47824  37.656  34.565   6.764
 3675POPC   C3A47825  37.690  34.532   7.064
 3675POPC   C4A47826  37.684  34.610   7.364
 3675POPC   C1B47827  37.914  34.717   6.464
 3675POPC   C2B47828  37.830  34.725   6.764
 3675POPC   C3B47829  37.849  34.787   7.064
 3675POPC   C4B47830  37.834  34.787   7.364
 3676POPC   NC347831  26.028   5.076   5.564
 3676POPC   PO447832  26.050   5.132   5.864
 3676POPC   GL147833  26.064   5.052   6.164
 3676POPC   GL247834  26.186   4.998   6.164
 3676POPC   C1A47835  26.051   5.125   6.464
 3676POPC   D2A47836  26.035   5.090   6.764
 3676POPC   C3A47837  26.065   5.086   7.064
 3676POPC   C4A47838  26.085   5.074   7.364
 3676POPC   C1B47839  26.293   5.020   6.464
 3676POPC   C2B47840  26.233   4.962   6.764
 3676POPC   C3B47841  26.300   4.983   7.064
 3676POPC   C4B47842  26.277   4.970   7.364
 3677POPC   NC347843   4.290   5.058   5.564
 3677POPC   PO447844   4.277   5.065   5.864
 3677POPC   GL147845   4.342   5.076   6.164
 3677POPC   GL247846   4.246   5.241   6.164
 3677POPC   C1A47847   4.284   5.063   6.464
 3677POPC   D2A47848   4.318   5.137   6.764
 3677POPC   C3A47849   4.353   5.089   7.064
 3677POPC   C4A47850   4.365   5.069   7.364
 3677POPC   C1B47851   4.222   5.351   6.464
 3677POPC   C2B47852   4.240   5.312   6.764
 3677POPC   C3B47853   4.254   5.299   7.064
 3677POPC   C4B47854   4.257   5.289   7.364
 3678POPC   NC347855  36.932  32.206   5.564
 3678POPC   PO447856  36.919  32.277   5.864
 3678POPC   GL147857  36.932  32.210   6.164
 3678POPC   GL247858  36.991  32.237   6.164
 3678POPC   C1A47859  36.888  32.284   6.464
 3678POPC   D2A47860  36.892  32.199   6.764
 3678POPC   C3A47861  36.861  32.243   7.064
 3678POPC   C4A47862  36.890  32.278   7.364
 3678POPC   C1B47863  37.117  32.149   6.464
 3678POPC   C2B47864  37.087  32.104   6.764
 3678POPC   C3B47865  37.163  32.123   7.064
 3678POPC   C4B47866  37.162  32.140   7.364
 3679POPC   NC347867  19.863  15.972   5.564
 3679POPC   PO447868  19.803  15.918   5.864
 3679POPC   GL147869  19.843  15.949   6.164
 3679POPC   GL247870  19.866  16.047   6.164
 3679POPC   C1A47871  19.817  15.937   6.464
 3679POPC   D2A47872  19.805  15.910   6.764
 3679POPC   C3A47873  19.863  15.963   7.064
 3679POPC   C4A47874  19.826  15.970   7.364
 3679POPC   C1B47875  19.879  16.181   6.464
 3679POPC   C2B47876  19.862  16.211   6.764
 3679POPC   C3B47877  19.930  16.217   7.064
 3679POPC   C4B47878  19.931  16.190   7.364
 3680POPC   NC347879  36.898   9.781   5.564
 3680POPC   PO447880  36.872   9.763   5.864
 3680POPC   GL147881  36.909   9.763   6.164
 3680POPC   GL247882  37.066   9.762   6.164
 3680POPC   C1A47883  36.885   9.744   6.464
 3680POPC   D2A47884  36.912   9.784   6.764
 3680POPC   C3A47885  36.905   9.709   7.064
 3680POPC   C4A47886  36.930   9.780   7.364
 3680POPC   C1B47887  37.126   9.778   6.464
 3680POPC   C2B47888  37.144   9.791   6.764
 3680POPC   C3B47889  37.125   9.763   7.064
 3680POPC   C4B47890  37.136   9.768   7.364
 3681POPC   NC347891  25.249  28.387   5.564
 3681POPC   PO447892  25.314  28.390   5.864
 3681POPC   GL147893  25.233  28.341   6.164
 3681POPC   GL247894  25.377  28.473   6.164
 3681POPC   C1A47895  25.254  28.399   6.464
 3681POPC   D2A47896  25.250  28.325   6.764
 3681POPC   C3A47897  25.228  28.409   7.064
 3681POPC   C4A47898  25.238  28.350   7.364
 3681POPC   C1B47899  25.376  28.597   6.464
 3681POPC   C2B47900  25.363  28.600   6.764
 3681POPC   C3B47901  25.354  28.582   7.064
 3681POPC   C4B47902  25.390  28.566   7.364
 3682POPC   NC347903   7.373  10.500   5.564
 3682POPC   PO447904   7.436  10.511   5.864
 3682POPC   GL147905   7.437  10.509   6.164
 3682POPC   GL247906   7.567  10.467   6.164
 3682POPC   C1A47907   7.397  10.545   6.464
 3682POPC   D2A47908   7.463  10.570   6.764
 3682POPC   C3A47909   7.453  10.476   7.064
 3682POPC   C4A47910   7.395  10.505   7.364
 3682POPC   C1B47911   7.663  10.397   6.464
 3682POPC   C2B47912   7.610  10.405   6.764
 3682POPC   C3B47913   7.642  10.438   7.064
 3682POPC   C4B47914   7.664  10.457   7.364
 3683POPC   NC347915  32.199  20.588   5.564
 3683POPC   PO447916  32.241  20.614   5.864
 3683POPC   GL147917  32.258  20.645   6.164
 3683POPC   GL247918  32.118  20.682   6.164
 3683POPC   C1A47919  32.229  20.595   6.464
 3683POPC   D2A47920  32.221  20.599   6.764
 3683POPC   C3A47921  32.238  20.601   7.064
 3683POPC   C4A47922  32.256  20.653   7.364
 3683POPC   C1B47923  32.032  20.820   6.464
 3683POPC   C2B47924  32.091  20.774   6.764
 3683POPC   C3B47925  32.084  20.764   7.064
 3683POPC   C4B47926  32.069  20.775   7.364
 3684POPC   NC347927  43.861  26.029   5.564
 3684POPC   PO447928  43.892  26.034   5.864
 3684POPC   GL147929  43.908  26.030   6.164
 3684POPC   GL247930  43.736  25.950   6.164
 3684POPC   C1A47931  43.872  26.067   6.464
 3684POPC   D2A47932  43.918  26.060   6.764
 3684POPC   C3A47933  43.847  26.005   7.064
 3684POPC   C4A47934  43.908  26.061   7.364
 3684POPC   C1B47935  43.678  25.918   6.464
 3684POPC   C2B47936  43.641  25.929   6.764
 3684POPC   C3B47937  43.683  25.872   7.064
 3684POPC   C4B47938  43.728  25.945   7.364
 3685POPC   NC347939   8.997   9.713   5.564
 3685POPC   PO447940   8.934   9.782   5.864
 3685POPC   GL147941   8.949   9.727   6.164
 3685POPC   GL247942   9.053   9.845   6.164
 3685POPC   C1A47943   8.948   9.705   6.464
 3685POPC   D2A47944   8.979   9.747   6.764
 3685POPC   C3A47945   9.005   9.776   7.064
 3685POPC   C4A47946   8.931   9.786   7.364
 3685POPC   C1B47947   9.175   9.856   6.464
 3685POPC   C2B47948   9.194   9.849   6.764
 3685POPC   C3B47949   9.220   9.924   7.064
 3685POPC   C4B47950   9.201   9.934   7.364
 3686POPC   NC347951  10.530  33.034   5.564
 3686POPC   PO447952  10.547  33.048   5.864
 3686POPC   GL147953  10.501  32.983   6.164
 3686POPC   GL247954  10.446  32.974   6.164
 3686POPC   C1A47955  10.513  33.018   6.464
 3686POPC   D2A47956  10.485  33.020   6.764
 3686POPC   C3A47957  10.526  33.059   7.064
 3686POPC   C4A47958  10.554  33.005   7.364
 3686POPC   C1B47959  10.253  32.941   6.464
 3686POPC   C2B47960  10.335  32.935   6.764
 3686POPC   C3B47961  10.262  32.933   7.064
 3686POPC   C4B47962  10.284  32.956   7.364
 3687POPC   NC347963  25.294  40.024   5.564
 3687POPC   PO447964  25.233  40.040   5.864
 3687POPC   GL147965  25.244  39.983   6.164
 3687POPC   GL247966  25.249  40.114   6.164
 3687POPC   C1A47967  25.220  40.016   6.464
 3687POPC   D2A47968  25.271  40.056   6.764
 3687POPC   C3A47969  25.274  39.960   7.064
 3687POPC   C4A47970  25.301  39.992   7.364
 3687POPC   C1B47971  25.327  40.268   6.464
 3687POPC   C2B47972  25.298  40.241   6.764
 3687POPC   C3B47973  25.281  40.299   7.064
 3687POPC   C4B47974  25.322  40.254   7.364
 3688POPC   NC347975  17.504   8.192   5.564
 3688POPC   PO447976  17.490   8.181   5.864
 3688POPC   GL147977  17.533   8.238   6.164
 3688POPC   GL247978  17.619   8.221   6.164
 3688POPC   C1A47979  17.478   8.169   6.464
 3688POPC   D2A47980  17.468   8.205   6.764
 3688POPC   C3A47981  17.552   8.185   7.064
 3688POPC   C4A47982  17.482   8.208   7.364
 3688POPC   C1B47983  17.692   8.300   6.464
 3688POPC   C2B47984  17.709   8.330   6.764
 3688POPC   C3B47985  17.703   8.303   7.064
 3688POPC   C4B47986  17.713   8.356   7.364
 3689POPC   NC347987   7.430  35.380   5.564
 3689POPC   PO447988   7.386  35.367   5.864
 3689POPC   GL147989   7.444  35.397   6.164
 3689POPC   GL247990   7.434  35.265   6.164
 3689POPC   C1A47991   7.374  35.384   6.464
 3689POPC   D2A47992   7.431  35.332   6.764
 3689POPC   C3A47993   7.435  35.330   7.064
 3689POPC   C4A47994   7.413  35.307   7.364
 3689POPC   C1B47995   7.422  35.096   6.464
 3689POPC   C2B47996   7.368  35.146   6.764
 3689POPC   C3B47997   7.407  35.077   7.064
 3689POPC   C4B47998   7.405  35.133   7.364
 3690POPC   NC347999   7.381  18.253   5.564
 3690POPC   PO448000   7.404  18.320   5.864
 3690POPC   GL148001   7.411  18.301   6.164
 3690POPC   GL248002   7.509  18.214   6.164
 3690POPC   C1A48003   7.455  18.258   6.464
 3690POPC   D2A48004   7.439  18.310   6.764
 3690POPC   C3A48005   7.398  18.289   7.064
 3690POPC   C4A48006   7.436  18.325   7.364
 3690POPC   C1B48007   7.703  18.229   6.464
 3690POPC   C2B48008   7.672  18.190   6.764
 3690POPC   C3B48009   7.610  18.256   7.064
 3690POPC   C4B48010   7.610  18.167   7.364
 3691POPC   NC348011  15.971   5.080   5.564
 3691POPC   PO448012  15.949   5.067   5.864
 3691POPC   GL148013  15.994   5.048   6.164
 3691POPC   GL248014  16.047   5.180   6.164
 3691POPC   C1A48015  15.987   5.094   6.464
 3691POPC   D2A48016  16.004   5.127   6.764
 3691POPC   C3A48017  15.986   5.138   7.064
 3691POPC   C4A48018  15.971   5.128   7.364
 3691POPC   C1B48019  16.157   5.291   6.464
 3691POPC   C2B48020  16.146   5.228   6.764
 3691POPC   C3B48021  16.170   5.304   7.064
 3691POPC   C4B48022  16.143   5.237   7.364
 3692POPC   NC348023  44.679  38.414   5.564
 3692POPC   PO448024  44.648  38.503   5.864
 3692POPC   GL148025  44.628  38.407   6.164
 3692POPC   GL248026  44.830  38.427   6.164
 3692POPC   C1A48027  44.680  38.424   6.464
 3692POPC   D2A48028  44.689  38.480   6.764
 3692POPC   C3A48029  44.635  38.408   7.064
 3692POPC   C4A48030  44.640  38.457   7.364
 3692POPC   C1B48031  44.934  38.416   6.464
 3692POPC   C2B48032  44.938  38.440   6.764
 3692POPC   C3B48033  44.869  38.413   7.064
 3692POPC   C4B48034  44.902  38.450   7.364
 3693POPC   NC348035  29.944  29.101   5.564
 3693POPC   PO448036  29.916  29.168   5.864
 3693POPC   GL148037  29.908  29.124   6.164
 3693POPC   GL248038  29.981  29.240   6.164
 3693POPC   C1A48039  29.948  29.104   6.464
 3693POPC   D2A48040  29.929  29.189   6.764
 3693POPC   C3A48041  29.880  29.192   7.064
 3693POPC   C4A48042  29.952  29.154   7.364
 3693POPC   C1B48043  30.114  29.316   6.464
 3693POPC   C2B48044  30.057  29.298   6.764
 3693POPC   C3B48045  30.098  29.327   7.064
 3693POPC   C4B48046  30.060  29.357   7.364
 3694POPC   NC348047  43.075  38.453   5.564
 3694POPC   PO448048  43.096  38.414   5.864
 3694POPC   GL148049  43.133  38.494   6.164
 3694POPC   GL248050  43.103  38.567   6.164
 3694POPC   C1A48051  43.096  38.435   6.464
 3694POPC   D2A48052  43.136  38.474   6.764
 3694POPC   C3A48053  43.129  38.485   7.064
 3694POPC   C4A48054  43.089  38.477   7.364
 3694POPC   C1B48055  43.052  38.651   6.464
 3694POPC   C2B48056  43.083  38.690   6.764
 3694POPC   C3B48057  43.087  38.738   7.064
 3694POPC   C4B48058  43.056  38.713   7.364
 3695POPC   NC348059  39.240   1.223   5.564
 3695POPC   PO448060  39.236   1.228   5.864
 3695POPC   GL148061  39.275   1.168   6.164
 3695POPC   GL248062  39.292   1.284   6.164
 3695POPC   C1A48063  39.193   1.227   6.464
 3695POPC   D2A48064  39.204   1.199   6.764
 3695POPC   C3A48065  39.221   1.229   7.064
 3695POPC   C4A48066  39.226   1.199   7.364
 3695POPC   C1B48067  39.420   1.374   6.464
 3695POPC   C2B48068  39.424   1.376   6.764
 3695POPC   C3B48069  39.360   1.384   7.064
 3695POPC   C4B48070  39.387   1.426   7.364
 3696POPC   NC348071   5.855  12.864   5.564
 3696POPC   PO448072   5.876  12.859   5.864
 3696POPC   GL148073   5.891  12.874   6.164
 3696POPC   GL248074   5.751  12.992   6.164
 3696POPC   C1A48075   5.886  12.813   6.464
 3696POPC   D2A48076   5.901  12.837   6.764
 3696POPC   C3A48077   5.831  12.810   7.064
 3696POPC   C4A48078   5.859  12.886   7.364
 3696POPC   C1B48079   5.733  13.068   6.464
 3696POPC   C2B48080   5.744  13.010   6.764
 3696POPC   C3B48081   5.658  12.999   7.064
 3696POPC   C4B48082   5.698  13.031   7.364
 3697POPC   NC348083  38.471  35.333   5.564
 3697POPC   PO448084  38.430  35.346   5.864
 3697POPC   GL148085  38.463  35.362   6.164
 3697POPC   GL248086  38.572  35.364   6.164
 3697POPC   C1A48087  38.436  35.321   6.464
 3697POPC   D2A48088  38.437  35.381   6.764
 3697POPC   C3A48089  38.440  35.334   7.064
 3697POPC   C4A48090  38.461  35.302   7.364
 3697POPC   C1B48091  38.678  35.421   6.464
 3697POPC   C2B48092  38.688  35.481   6.764
 3697POPC   C3B48093  38.712  35.432   7.064
 3697POPC   C4B48094  38.714  35.450   7.364
 3698POPC   NC348095  40.827  22.115   5.564
 3698POPC   PO448096  40.761  22.163   5.864
 3698POPC   GL148097  40.745  22.199   6.164
 3698POPC   GL248098  40.731  22.229   6.164
 3698POPC   C1A48099  40.774  22.117   6.464
 3698POPC   D2A48100  40.817  22.121   6.764
 3698POPC   C3A48101  40.811  22.149   7.064
 3698POPC   C4A48102  40.762  22.136   7.364
 3698POPC   C1B48103  40.693  22.343   6.464
 3698POPC   C2B48104  40.649  22.358   6.764
 3698POPC   C3B48105  40.716  22.342   7.064
 3698POPC   C4B48106  40.631  22.418   7.364
 3699POPC   NC348107  32.227  40.050   5.564
 3699POPC   PO448108  32.211  39.971   5.864
 3699POPC   GL148109  32.243  39.960   6.164
 3699POPC   GL248110  32.103  40.032   6.164
 3699POPC   C1A48111  32.211  40.037   6.464
 3699POPC   D2A48112  32.211  39.972   6.764
 3699POPC   C3A48113  32.253  40.005   7.064
 3699POPC   C4A48114  32.251  40.013   7.364
 3699POPC   C1B48115  32.019  40.136   6.464
 3699POPC   C2B48116  32.079  40.106   6.764
 3699POPC   C3B48117  32.023  40.101   7.064
 3699POPC   C4B48118  32.018  40.106   7.364
 3700POPC   NC348119  44.645  31.519   5.564
 3700POPC   PO448120  44.688  31.466   5.864
 3700POPC   GL148121  44.637  31.427   6.164
 3700POPC   GL248122  44.757  31.341   6.164
 3700POPC   C1A48123  44.644  31.503   6.464
 3700POPC   D2A48124  44.696  31.467   6.764
 3700POPC   C3A48125  44.638  31.487   7.064
 3700POPC   C4A48126  44.625  31.427   7.364
 3700POPC   C1B48127  44.765  31.272   6.464
 3700POPC   C2B48128  44.735  31.279   6.764
 3700POPC   C3B48129  44.805  31.249   7.064
 3700POPC   C4B48130  44.742  31.260   7.364
 3701POPC   NC348131  39.232  17.519   5.564
 3701POPC   PO448132  39.199  17.527   5.864
 3701POPC   GL148133  39.228  17.496   6.164
 3701POPC   GL248134  39.385  17.538   6.164
 3701POPC   C1A48135  39.244  17.554   6.464
 3701POPC   D2A48136  39.208  17.476   6.764
 3701POPC   C3A48137  39.235  17.543   7.064
 3701POPC   C4A48138  39.197  17.545   7.364
 3701POPC   C1B48139  39.445  17.623   6.464
 3701POPC   C2B48140  39.461  17.624   6.764
 3701POPC   C3B48141  39.488  17.656   7.064
 3701POPC   C4B48142  39.430  17.614   7.364
 3702POPC   NC348143  19.075  12.847   5.564
 3702POPC   PO448144  19.102  12.876   5.864
 3702POPC   GL148145  19.091  12.882   6.164
 3702POPC   GL248146  18.963  12.996   6.164
 3702POPC   C1A48147  19.040  12.863   6.464
 3702POPC   D2A48148  19.029  12.861   6.764
 3702POPC   C3A48149  19.077  12.840   7.064
 3702POPC   C4A48150  19.076  12.889   7.364
 3702POPC   C1B48151  18.893  13.032   6.464
 3702POPC   C2B48152  18.910  13.056   6.764
 3702POPC   C3B48153  18.941  13.115   7.064
 3702POPC   C4B48154  18.903  13.041   7.364
 3703POPC   NC348155  22.972   3.581   5.564
 3703POPC   PO448156  22.927   3.569   5.864
 3703POPC   GL148157  22.922   3.492   6.164
 3703POPC   GL248158  22.927   3.710   6.164
 3703POPC   C1A48159  22.920   3.537   6.464
 3703POPC   D2A48160  22.905   3.533   6.764
 3703POPC   C3A48161  22.952   3.515   7.064
 3703POPC   C4A48162  22.955   3.582   7.364
 3703POPC   C1B48163  22.899   3.806   6.464
 3703POPC   C2B48164  22.870   3.771   6.764
 3703POPC   C3B48165  22.953   3.782   7.064
 3703POPC   C4B48166  22.959   3.829   7.364
 3704POPC   NC348167  32.228  27.580   5.564
 3704POPC   PO448168  32.215  27.628   5.864
 3704POPC   GL148169  32.256  27.625   6.164
 3704POPC   GL248170  32.173  27.680   6.164
 3704POPC   C1A48171  32.296  27.626   6.464
 3704POPC   D2A48172  32.287  27.592   6.764
 3704POPC   C3A48173  32.201  27.587   7.064
 3704POPC   C4A48174  32.233  27.560   7.364
 3704POPC   C1B48175  32.205  27.799   6.464
 3704POPC   C2B48176  32.237  27.857   6.764
 3704POPC   C3B48177  32.241  27.884   7.064
 3704POPC   C4B48178  32.181  27.873   7.364
 3705POPC   NC348179  31.456  40.827   5.564
 3705POPC   PO448180  31.499  40.816   5.864
 3705POPC   GL148181  31.511  40.793   6.164
 3705POPC   GL248182  31.357  40.736   6.164
 3705POPC   C1A48183  31.507  40.795   6.464
 3705POPC   D2A48184  31.432  40.771   6.764
 3705POPC   C3A48185  31.464  40.821   7.064
 3705POPC   C4A48186  31.437  40.820   7.364
 3705POPC   C1B48187  31.266  40.726   6.464
 3705POPC   C2B48188  31.239  40.770   6.764
 3705POPC   C3B48189  31.276  40.688   7.064
 3705POPC   C4B48190  31.198  40.685   7.364
 3706POPC   NC348191   3.495  10.488   5.564
 3706POPC   PO448192   3.529  10.510   5.864
 3706POPC   GL148193   3.562  10.569   6.164
 3706POPC   GL248194   3.504  10.385   6.164
 3706POPC   C1A48195   3.494  10.566   6.464
 3706POPC   D2A48196   3.563  10.573   6.764
 3706POPC   C3A48197   3.495  10.513   7.064
 3706POPC   C4A48198   3.573  10.551   7.364
 3706POPC   C1B48199   3.452  10.298   6.464
 3706POPC   C2B48200   3.499  10.254   6.764
 3706POPC   C3B48201   3.466  10.263   7.064
 3706POPC   C4B48202   3.509  10.271   7.364
 3707POPC   NC348203  19.846  40.769   5.564
 3707POPC   PO448204  19.842  40.734   5.864
 3707POPC   GL148205  19.827  40.740   6.164
 3707POPC   GL248206  19.946  40.810   6.164
 3707POPC   C1A48207  19.800  40.795   6.464
 3707POPC   D2A48208  19.807  40.813   6.764
 3707POPC   C3A48209  19.811  40.804   7.064
 3707POPC   C4A48210  19.819  40.750   7.364
 3707POPC   C1B48211  20.072  40.853   6.464
 3707POPC   C2B48212  20.107  40.809   6.764
 3707POPC   C3B48213  20.102  40.838   7.064
 3707POPC   C4B48214  20.102  40.827   7.364
 3708POPC   NC348215  17.466  40.766   5.564
 3708POPC   PO448216  17.467  40.818   5.864
 3708POPC   GL148217  17.465  40.768   6.164
 3708POPC   GL248218  17.458  40.859   6.164
 3708POPC   C1A48219  17.528  40.743   6.464
 3708POPC   D2A48220  17.490  40.789   6.764
 3708POPC   C3A48221  17.513  40.805   7.064
 3708POPC   C4A48222  17.535  40.784   7.364
 3708POPC   C1B48223  17.363  40.987   6.464
 3708POPC   C2B48224  17.327  40.965   6.764
 3708POPC   C3B48225  17.366  40.976   7.064
 3708POPC   C4B48226  17.400  40.960   7.364
 3709POPC   NC348227  26.793  37.720   5.564
 3709POPC   PO448228  26.784  37.688   5.864
 3709POPC   GL148229  26.857  37.661   6.164
 3709POPC   GL248230  26.803  37.588   6.164
 3709POPC   C1A48231  26.821  37.684   6.464
 3709POPC   D2A48232  26.846  37.681   6.764
 3709POPC   C3A48233  26.792  37.697   7.064
 3709POPC   C4A48234  26.845  37.655   7.364
 3709POPC   C1B48235  26.752  37.447   6.464
 3709POPC   C2B48236  26.800  37.451   6.764
 3709POPC   C3B48237  26.763  37.400   7.064
 3709POPC   C4B48238  26.815  37.412   7.364
 3710POPC   NC348239   7.388   5.060   5.564
 3710POPC   PO448240   7.372   5.066   5.864
 3710POPC   GL148241   7.469   5.078   6.164
 3710POPC   GL248242   7.517   5.097   6.164
 3710POPC   C1A48243   7.440   5.097   6.464
 3710POPC   D2A48244   7.393   5.049   6.764
 3710POPC   C3A48245   7.464   5.113   7.064
 3710POPC   C4A48246   7.396   5.096   7.364
 3710POPC   C1B48247   7.711   5.103   6.464
 3710POPC   C2B48248   7.704   5.093   6.764
 3710POPC   C3B48249   7.720   5.085   7.064
 3710POPC   C4B48250   7.648   5.070   7.364
 3711POPC   NC348251  12.834  12.836   5.564
 3711POPC   PO448252  12.824  12.805   5.864
 3711POPC   GL148253  12.868  12.855   6.164
 3711POPC   GL248254  12.757  12.842   6.164
 3711POPC   C1A48255  12.845  12.834   6.464
 3711POPC   D2A48256  12.895  12.883   6.764
 3711POPC   C3A48257  12.817  12.809   7.064
 3711POPC   C4A48258  12.853  12.836   7.364
 3711POPC   C1B48259  12.588  12.867   6.464
 3711POPC   C2B48260  12.582  12.914   6.764
 3711POPC   C3B48261  12.645  12.929   7.064
 3711POPC   C4B48262  12.574  12.881   7.364
 3712POPC   NC348263  36.885  12.882   5.564
 3712POPC   PO448264  36.949  12.842   5.864
 3712POPC   GL148265  36.856  12.810   6.164
 3712POPC   GL248266  36.999  12.836   6.164
 3712POPC   C1A48267  36.888  12.806   6.464
 3712POPC   D2A48268  36.862  12.871   6.764
 3712POPC   C3A48269  36.931  12.864   7.064
 3712POPC   C4A48270  36.948  12.802   7.364
 3712POPC   C1B48271  37.123  12.887   6.464
 3712POPC   C2B48272  37.110  12.889   6.764
 3712POPC   C3B48273  37.117  12.832   7.064
 3712POPC   C4B48274  37.203  12.851   7.364
 3713POPC   NC348275  33.833  19.860   5.564
 3713POPC   PO448276  33.792  19.882   5.864
 3713POPC   GL148277  33.781  19.870   6.164
 3713POPC   GL248278  33.861  19.962   6.164
 3713POPC   C1A48279  33.754  19.824   6.464
 3713POPC   D2A48280  33.786  19.801   6.764
 3713POPC   C3A48281  33.846  19.814   7.064
 3713POPC   C4A48282  33.815  19.792   7.364
 3713POPC   C1B48283  33.869  20.079   6.464
 3713POPC   C2B48284  33.881  20.057   6.764
 3713POPC   C3B48285  33.918  20.037   7.064
 3713POPC   C4B48286  33.925  20.053   7.364
 3714POPC   NC348287  43.902   5.115   5.564
 3714POPC   PO448288  43.838   5.071   5.864
 3714POPC   GL148289  43.875   5.076   6.164
 3714POPC   GL248290  43.796   5.165   6.164
 3714POPC   C1A48291  43.845   5.077   6.464
 3714POPC   D2A48292  43.909   5.065   6.764
 3714POPC   C3A48293  43.868   5.122   7.064
 3714POPC   C4A48294  43.885   5.078   7.364
 3714POPC   C1B48295  43.697   5.274   6.464
 3714POPC   C2B48296  43.764   5.280   6.764
 3714POPC   C3B48297  43.778   5.309   7.064
 3714POPC   C4B48298  43.701   5.325   7.364
 3715POPC   NC348299  23.729  18.264   5.564
 3715POPC   PO448300  23.740  18.238   5.864
 3715POPC   GL148301  23.726  18.261   6.164
 3715POPC   GL248302  23.714  18.444   6.164
 3715POPC   C1A48303  23.697  18.272   6.464
 3715POPC   D2A48304  23.704  18.303   6.764
 3715POPC   C3A48305  23.669  18.323   7.064
 3715POPC   C4A48306  23.727  18.240   7.364
 3715POPC   C1B48307  23.743  18.562   6.464
 3715POPC   C2B48308  23.798  18.518   6.764
 3715POPC   C3B48309  23.741  18.483   7.064
 3715POPC   C4B48310  23.752  18.558   7.364
 3716POPC   NC348311  20.615  17.489   5.564
 3716POPC   PO448312  20.657  17.459   5.864
 3716POPC   GL148313  20.640  17.494   6.164
 3716POPC   GL248314  20.605  17.368   6.164
 3716POPC   C1A48315  20.597  17.484   6.464
 3716POPC   D2A48316  20.618  17.509   6.764
 3716POPC   C3A48317  20.641  17.536   7.064
 3716POPC   C4A48318  20.562  17.489   7.364
 3716POPC   C1B48319  20.668  17.282   6.464
 3716POPC   C2B48320  20.578  17.270   6.764
 3716POPC   C3B48321  20.650  17.262   7.064
 3716POPC   C4B48322  20.647  17.219   7.364
 3717POPC   NC348323  16.698   5.107   5.564
 3717POPC   PO448324  16.724   5.076   5.864
 3717POPC   GL148325  16.780   5.060   6.164
 3717POPC   GL248326  16.597   5.166   6.164
 3717POPC   C1A48327  16.737   5.124   6.464
 3717POPC   D2A48328  16.707   5.118   6.764
 3717POPC   C3A48329  16.695   5.081   7.064
 3717POPC   C4A48330  16.772   5.097   7.364
 3717POPC   C1B48331  16.485   5.245   6.464
 3717POPC   C2B48332  16.562   5.187   6.764
 3717POPC   C3B48333  16.536   5.254   7.064
 3717POPC   C4B48334  16.552   5.220   7.364
 3718POPC   NC348335   8.212   9.715   5.564
 3718POPC   PO448336   8.148   9.705   5.864
 3718POPC   GL148337   8.210   9.797   6.164
 3718POPC   GL248338   8.044   9.829   6.164
 3718POPC   C1A48339   8.199   9.716   6.464
 3718POPC   D2A48340   8.220   9.757   6.764
 3718POPC   C3A48341   8.223   9.735   7.064
 3718POPC   C4A48342   8.203   9.701   7.364
 3718POPC   C1B48343   7.942   9.885   6.464
 3718POPC   C2B48344   7.989   9.874   6.764
 3718POPC   C3B48345   7.971   9.843   7.064
 3718POPC   C4B48346   7.918   9.856   7.364
 3719POPC   NC348347   7.456  11.325   5.564
 3719POPC   PO448348   7.398  11.326   5.864
 3719POPC   GL148349   7.466  11.305   6.164
 3719POPC   GL248350   7.573  11.372   6.164
 3719POPC   C1A48351   7.374  11.292   6.464
 3719POPC   D2A48352   7.462  11.324   6.764
 3719POPC   C3A48353   7.442  11.326   7.064
 3719POPC   C4A48354   7.381  11.301   7.364
 3719POPC   C1B48355   7.622  11.383   6.464
 3719POPC   C2B48356   7.624  11.449   6.764
 3719POPC   C3B48357   7.661  11.430   7.064
 3719POPC   C4B48358   7.636  11.407   7.364
 3720POPC   NC348359  17.483  39.226   5.564
 3720POPC   PO448360  17.530  39.209   5.864
 3720POPC   GL148361  17.548  39.197   6.164
 3720POPC   GL248362  17.433  39.125   6.164
 3720POPC   C1A48363  17.538  39.255   6.464
 3720POPC   D2A48364  17.529  39.255   6.764
 3720POPC   C3A48365  17.493  39.280   7.064
 3720POPC   C4A48366  17.472  39.201   7.364
 3720POPC   C1B48367  17.433  39.007   6.464
 3720POPC   C2B48368  17.382  39.029   6.764
 3720POPC   C3B48369  17.427  39.022   7.064
 3720POPC   C4B48370  17.475  38.946   7.364
 3721POPC   NC348371  23.689  33.013   5.564
 3721POPC   PO448372  23.694  33.022   5.864
 3721POPC   GL148373  23.670  32.990   6.164
 3721POPC   GL248374  23.784  33.056   6.164
 3721POPC   C1A48375  23.759  33.058   6.464
 3721POPC   D2A48376  23.745  32.988   6.764
 3721POPC   C3A48377  23.716  33.047   7.064
 3721POPC   C4A48378  23.762  33.029   7.364
 3721POPC   C1B48379  23.906  33.155   6.464
 3721POPC   C2B48380  23.883  33.145   6.764
 3721POPC   C3B48381  23.952  33.125   7.064
 3721POPC   C4B48382  23.962  33.185   7.364
 3722POPC   NC348383  30.695  29.153   5.564
 3722POPC   PO448384  30.691  29.133   5.864
 3722POPC   GL148385  30.683  29.107   6.164
 3722POPC   GL248386  30.747  29.077   6.164
 3722POPC   C1A48387  30.674  29.143   6.464
 3722POPC   D2A48388  30.675  29.136   6.764
 3722POPC   C3A48389  30.708  29.193   7.064
 3722POPC   C4A48390  30.704  29.172   7.364
 3722POPC   C1B48391  30.812  28.918   6.464
 3722POPC   C2B48392  30.776  28.897   6.764
 3722POPC   C3B48393  30.814  28.884   7.064
 3722POPC   C4B48394  30.850  28.888   7.364
 3723POPC   NC348395  40.007  33.820   5.564
 3723POPC   PO448396  40.034  33.784   5.864
 3723POPC   GL148397  39.993  33.782   6.164
 3723POPC   GL248398  39.982  33.946   6.164
 3723POPC   C1A48399  40.001  33.846   6.464
 3723POPC   D2A48400  40.031  33.769   6.764
 3723POPC   C3A48401  39.961  33.811   7.064
 3723POPC   C4A48402  40.046  33.834   7.364
 3723POPC   C1B48403  40.092  34.015   6.464
 3723POPC   C2B48404  40.063  34.046   6.764
 3723POPC   C3B48405  40.056  34.070   7.064
 3723POPC   C4B48406  40.043  34.033   7.364
 3724POPC   NC348407  26.849  15.921   5.564
 3724POPC   PO448408  26.792  15.938   5.864
 3724POPC   GL148409  26.846  15.999   6.164
 3724POPC   GL248410  26.924  15.927   6.164
 3724POPC   C1A48411  26.836  15.942   6.464
 3724POPC   D2A48412  26.840  15.983   6.764
 3724POPC   C3A48413  26.821  15.966   7.064
 3724POPC   C4A48414  26.811  16.001   7.364
 3724POPC   C1B48415  27.071  15.832   6.464
 3724POPC   C2B48416  27.067  15.810   6.764
 3724POPC   C3B48417  27.071  15.844   7.064
 3724POPC   C4B48418  27.095  15.824   7.364
 3725POPC   NC348419  26.069  12.045   5.564
 3725POPC   PO448420  26.006  12.077   5.864
 3725POPC   GL148421  26.063  12.045   6.164
 3725POPC   GL248422  26.072  12.232   6.164
 3725POPC   C1A48423  26.026  12.034   6.464
 3725POPC   D2A48424  26.005  12.092   6.764
 3725POPC   C3A48425  26.068  12.088   7.064
 3725POPC   C4A48426  26.003  12.051   7.364
 3725POPC   C1B48427  26.155  12.271   6.464
 3725POPC   C2B48428  26.110  12.307   6.764
 3725POPC   C3B48429  26.176  12.275   7.064
 3725POPC   C4B48430  26.153  12.334   7.364
 3726POPC   NC348431  22.929  35.328   5.564
 3726POPC   PO448432  22.888  35.370   5.864
 3726POPC   GL148433  22.900  35.355   6.164
 3726POPC   GL248434  22.967  35.226   6.164
 3726POPC   C1A48435  22.904  35.370   6.464
 3726POPC   D2A48436  22.896  35.365   6.764
 3726POPC   C3A48437  22.911  35.363   7.064
 3726POPC   C4A48438  22.934  35.315   7.364
 3726POPC   C1B48439  23.053  35.154   6.464
 3726POPC   C2B48440  23.012  35.123   6.764
 3726POPC   C3B48441  23.082  35.114   7.064
 3726POPC   C4B48442  23.028  35.075   7.364
 3727POPC   NC348443  36.083  30.733   5.564
 3727POPC   PO448444  36.104  30.717   5.864
 3727POPC   GL148445  36.172  30.668   6.164
 3727POPC   GL248446  36.211  30.795   6.164
 3727POPC   C1A48447  36.168  30.702   6.464
 3727POPC   D2A48448  36.107  30.704   6.764
 3727POPC   C3A48449  36.128  30.653   7.064
 3727POPC   C4A48450  36.081  30.647   7.364
 3727POPC   C1B48451  36.327  30.886   6.464
 3727POPC   C2B48452  36.294  30.845   6.764
 3727POPC   C3B48453  36.262  30.895   7.064
 3727POPC   C4B48454  36.273  30.883   7.364
 3728POPC   NC348455  29.121  21.358   5.564
 3728POPC   PO448456  29.132  21.385   5.864
 3728POPC   GL148457  29.160  21.349   6.164
 3728POPC   GL248458  29.303  21.338   6.164
 3728POPC   C1A48459  29.122  21.390   6.464
 3728POPC   D2A48460  29.174  21.357   6.764
 3728POPC   C3A48461  29.180  21.412   7.064
 3728POPC   C4A48462  29.105  21.423   7.364
 3728POPC   C1B48463  29.347  21.229   6.464
 3728POPC   C2B48464  29.414  21.318   6.764
 3728POPC   C3B48465  29.387  21.317   7.064
 3728POPC   C4B48466  29.333  21.237   7.364
 3729POPC   NC348467  31.466   9.720   5.564
 3729POPC   PO448468  31.439   9.707   5.864
 3729POPC   GL148469  31.472   9.773   6.164
 3729POPC   GL248470  31.352   9.757   6.164
 3729POPC   C1A48471  31.439   9.715   6.464
 3729POPC   D2A48472  31.443   9.729   6.764
 3729POPC   C3A48473  31.440   9.700   7.064
 3729POPC   C4A48474  31.451   9.786   7.364
 3729POPC   C1B48475  31.252   9.804   6.464
 3729POPC   C2B48476  31.203   9.777   6.764
 3729POPC   C3B48477  31.250   9.814   7.064
 3729POPC   C4B48478  31.190   9.830   7.364
 3730POPC   NC348479  13.676   8.196   5.564
 3730POPC   PO448480  13.620   8.215   5.864
 3730POPC   GL148481  13.581   8.163   6.164
 3730POPC   GL248482  13.794   8.194   6.164
 3730POPC   C1A48483  13.657   8.188   6.464
 3730POPC   D2A48484  13.640   8.209   6.764
 3730POPC   C3A48485  13.580   8.218   7.064
 3730POPC   C4A48486  13.609   8.189   7.364
 3730POPC   C1B48487  13.845   8.242   6.464
 3730POPC   C2B48488  13.909   8.255   6.764
 3730POPC   C3B48489  13.883   8.259   7.064
 3730POPC   C4B48490  13.895   8.283   7.364
 3731POPC   NC348491  14.395  11.307   5.564
 3731POPC   PO448492  14.372  11.255   5.864
 3731POPC   GL148493  14.385  11.336   6.164
 3731POPC   GL248494  14.352  11.389   6.164
 3731POPC   C1A48495  14.407  11.304   6.464
 3731POPC   D2A48496  14.373  11.256   6.764
 3731POPC   C3A48497  14.438  11.318   7.064
 3731POPC   C4A48498  14.387  11.268   7.364
 3731POPC   C1B48499  14.368  11.512   6.464
 3731POPC   C2B48500  14.273  11.493   6.764
 3731POPC   C3B48501  14.280  11.567   7.064
 3731POPC   C4B48502  14.294  11.515   7.364
 3732POPC   NC348503  12.060  40.746   5.564
 3732POPC   PO448504  12.097  40.800   5.864
 3732POPC   GL148505  12.122  40.741   6.164
 3732POPC   GL248506  12.225  40.761   6.164
 3732POPC   C1A48507  12.108  40.829   6.464
 3732POPC   D2A48508  12.126  40.773   6.764
 3732POPC   C3A48509  12.026  40.765   7.064
 3732POPC   C4A48510  12.057  40.789   7.364
 3732POPC   C1B48511  12.310  40.707   6.464
 3732POPC   C2B48512  12.326  40.651   6.764
 3732POPC   C3B48513  12.342  40.710   7.064
 3732POPC   C4B48514  12.277  40.716   7.364
 3733POPC   NC348515  21.405  44.682   5.564
 3733POPC   PO448516  21.407  44.667   5.864
 3733POPC   GL148517  21.425  44.665   6.164
 3733POPC   GL248518  21.462  44.779   6.164
 3733POPC   C1A48519  21.366  44.706   6.464
 3733POPC   D2A48520  21.408  44.641   6.764
 3733POPC   C3A48521  21.399  44.689   7.064
 3733POPC   C4A48522  21.350  44.711   7.364
 3733POPC   C1B48523  21.522  44.937   6.464
 3733POPC   C2B48524  21.486  44.932   6.764
 3733POPC   C3B48525  21.460  44.933   7.064
 3733POPC   C4B48526  21.452  44.848   7.364
 3734POPC   NC348527  11.317  40.770   5.564
 3734POPC   PO448528  11.322  40.778   5.864
 3734POPC   GL148529  11.263  40.812   6.164
 3734POPC   GL248530  11.186  40.853   6.164
 3734POPC   C1A48531  11.291  40.801   6.464
 3734POPC   D2A48532  11.322  40.735   6.764
 3734POPC   C3A48533  11.271  40.773   7.064
 3734POPC   C4A48534  11.302  40.799   7.364
 3734POPC   C1B48535  11.025  40.898   6.464
 3734POPC   C2B48536  11.051  40.882   6.764
 3734POPC   C3B48537  11.073  40.886   7.064
 3734POPC   C4B48538  11.098  40.897   7.364
 3735POPC   NC348539   3.573  42.349   5.564
 3735POPC   PO448540   3.571  42.292   5.864
 3735POPC   GL148541   3.503  42.361   6.164
 3735POPC   GL248542   3.486  42.408   6.164
 3735POPC   C1A48543   3.587  42.297   6.464
 3735POPC   D2A48544   3.527  42.285   6.764
 3735POPC   C3A48545   3.524  42.341   7.064
 3735POPC   C4A48546   3.492  42.327   7.364
 3735POPC   C1B48547   3.338  42.503   6.464
 3735POPC   C2B48548   3.366  42.520   6.764
 3735POPC   C3B48549   3.336  42.455   7.064
 3735POPC   C4B48550   3.372  42.496   7.364
 3736POPC   NC348551  30.704  30.682   5.564
 3736POPC   PO448552  30.651  30.736   5.864
 3736POPC   GL148553  30.672  30.655   6.164
 3736POPC   GL248554  30.821  30.701   6.164
 3736POPC   C1A48555  30.736  30.730   6.464
 3736POPC   D2A48556  30.714  30.675   6.764
 3736POPC   C3A48557  30.663  30.677   7.064
 3736POPC   C4A48558  30.716  30.694   7.364
 3736POPC   C1B48559  30.974  30.608   6.464
 3736POPC   C2B48560  30.972  30.668   6.764
 3736POPC   C3B48561  30.981  30.653   7.064
 3736POPC   C4B48562  30.909  30.607   7.364
 3737POPC   NC348563  22.962  12.055   5.564
 3737POPC   PO448564  22.970  12.111   5.864
 3737POPC   GL148565  22.911  12.105   6.164
 3737POPC   GL248566  22.877  11.919   6.164
 3737POPC   C1A48567  22.950  12.085   6.464
 3737POPC   D2A48568  22.983  12.079   6.764
 3737POPC   C3A48569  22.898  12.087   7.064
 3737POPC   C4A48570  22.915  12.098   7.364
 3737POPC   C1B48571  22.899  11.872   6.464
 3737POPC   C2B48572  22.920  11.826   6.764
 3737POPC   C3B48573  22.850  11.834   7.064
 3737POPC   C4B48574  22.866  11.798   7.364
 3738POPC   NC348575  22.959  21.345   5.564
 3738POPC   PO448576  22.979  21.367   5.864
 3738POPC   GL148577  22.947  21.420   6.164
 3738POPC   GL248578  22.842  21.328   6.164
 3738POPC   C1A48579  22.890  21.362   6.464
 3738POPC   D2A48580  22.960  21.392   6.764
 3738POPC   C3A48581  22.977  21.404   7.064
 3738POPC   C4A48582  22.970  21.407   7.364
 3738POPC   C1B48583  22.744  21.180   6.464
 3738POPC   C2B48584  22.789  21.250   6.764
 3738POPC   C3B48585  22.736  21.248   7.064
 3738POPC   C4B48586  22.760  21.195   7.364
 3739POPC   NC348587  37.661  39.985   5.564
 3739POPC   PO448588  37.673  39.991   5.864
 3739POPC   GL148589  37.663  40.040   6.164
 3739POPC   GL248590  37.604  40.023   6.164
 3739POPC   C1A48591  37.712  40.049   6.464
 3739POPC   D2A48592  37.677  40.039   6.764
 3739POPC   C3A48593  37.666  40.056   7.064
 3739POPC   C4A48594  37.716  39.994   7.364
 3739POPC   C1B48595  37.504  40.124   6.464
 3739POPC   C2B48596  37.482  40.164   6.764
 3739POPC   C3B48597  37.464  40.128   7.064
 3739POPC   C4B48598  37.476  40.181   7.364
 3740POPC   NC348599   8.194   4.322   5.564
 3740POPC   PO448600   8.214   4.322   5.864
 3740POPC   GL148601   8.233   4.268   6.164
 3740POPC   GL248602   8.208   4.421   6.164
 3740POPC   C1A48603   8.210   4.279   6.464
 3740POPC   D2A48604   8.239   4.288   6.764
 3740POPC   C3A48605   8.171   4.270   7.064
 3740POPC   C4A48606   8.219   4.280   7.364
 3740POPC   C1B48607   8.287   4.515   6.464
 3740POPC   C2B48608   8.280   4.582   6.764
 3740POPC   C3B48609   8.209   4.568   7.064
 3740POPC   C4B48610   8.241   4.575   7.364
 3741POPC   NC348611  30.662  41.602   5.564
 3741POPC   PO448612  30.676  41.594   5.864
 3741POPC   GL148613  30.744  41.529   6.164
 3741POPC   GL248614  30.803  41.559   6.164
 3741POPC   C1A48615  30.724  41.554   6.464
 3741POPC   D2A48616  30.710  41.604   6.764
 3741POPC   C3A48617  30.677  41.542   7.064
 3741POPC   C4A48618  30.717  41.607   7.364
 3741POPC   C1B48619  30.941  41.591   6.464
 3741POPC   C2B48620  30.939  41.619   6.764
 3741POPC   C3B48621  30.948  41.616   7.064
 3741POPC   C4B48622  30.912  41.599   7.364
 3742POPC   NC348623  38.411  30.700   5.564
 3742POPC   PO448624  38.413  30.658   5.864
 3742POPC   GL148625  38.446  30.673   6.164
 3742POPC   GL248626  38.347  30.689   6.164
 3742POPC   C1A48627  38.489  30.668   6.464
 3742POPC   D2A48628  38.412  30.650   6.764
 3742POPC   C3A48629  38.476  30.679   7.064
 3742POPC   C4A48630  38.414  30.694   7.364
 3742POPC   C1B48631  38.220  30.768   6.464
 3742POPC   C2B48632  38.228  30.726   6.764
 3742POPC   C3B48633  38.168  30.709   7.064
 3742POPC   C4B48634  38.215  30.701   7.364
 3743POPC   NC348635  28.387  33.029   5.564
 3743POPC   PO448636  28.349  33.072   5.864
 3743POPC   GL148637  28.409  32.974   6.164
 3743POPC   GL248638  28.254  33.098   6.164
 3743POPC   C1A48639  28.322  33.064   6.464
 3743POPC   D2A48640  28.418  33.051   6.764
 3743POPC   C3A48641  28.381  33.065   7.064
 3743POPC   C4A48642  28.363  32.987   7.364
 3743POPC   C1B48643  28.198  33.154   6.464
 3743POPC   C2B48644  28.150  33.146   6.764
 3743POPC   C3B48645  28.184  33.156   7.064
 3743POPC   C4B48646  28.191  33.236   7.364
 3744POPC   NC348647  39.255  12.888   5.564
 3744POPC   PO448648  39.219  12.879   5.864
 3744POPC   GL148649  39.230  12.861   6.164
 3744POPC   GL248650  39.142  12.808   6.164
 3744POPC   C1A48651  39.240  12.831   6.464
 3744POPC   D2A48652  39.272  12.899   6.764
 3744POPC   C3A48653  39.198  12.841   7.064
 3744POPC   C4A48654  39.201  12.815   7.364
 3744POPC   C1B48655  39.062  12.668   6.464
 3744POPC   C2B48656  39.036  12.679   6.764
 3744POPC   C3B48657  39.005  12.705   7.064
 3744POPC   C4B48658  39.051  12.715   7.364
 3745POPC   NC348659  37.692  43.863   5.564
 3745POPC   PO448660  37.723  43.861   5.864
 3745POPC   GL148661  37.633  43.908   6.164
 3745POPC   GL248662  37.549  43.806   6.164
 3745POPC   C1A48663  37.654  43.915   6.464
 3745POPC   D2A48664  37.680  43.887   6.764
 3745POPC   C3A48665  37.694  43.883   7.064
 3745POPC   C4A48666  37.631  43.856   7.364
 3745POPC   C1B48667  37.510  43.750   6.464
 3745POPC   C2B48668  37.493  43.778   6.764
 3745POPC   C3B48669  37.426  43.707   7.064
 3745POPC   C4B48670  37.468  43.781   7.364
 3746POPC   NC348671   4.302  35.376   5.564
 3746POPC   PO448672   4.334  35.336   5.864
 3746POPC   GL148673   4.305  35.352   6.164
 3746POPC   GL248674   4.406  35.420   6.164
 3746POPC   C1A48675   4.339  35.395   6.464
 3746POPC   D2A48676   4.276  35.311   6.764
 3746POPC   C3A48677   4.358  35.335   7.064
 3746POPC   C4A48678   4.298  35.401   7.364
 3746POPC   C1B48679   4.395  35.565   6.464
 3746POPC   C2B48680   4.436  35.611   6.764
 3746POPC   C3B48681   4.459  35.541   7.064
 3746POPC   C4B48682   4.432  35.558   7.364
 3747POPC   NC348683  43.897  43.080   5.564
 3747POPC   PO448684  43.864  43.122   5.864
 3747POPC   GL148685  43.862  43.073   6.164
 3747POPC   GL248686  43.983  42.996   6.164
 3747POPC   C1A48687  43.918  43.115   6.464
 3747POPC   D2A48688  43.836  43.087   6.764
 3747POPC   C3A48689  43.878  43.129   7.064
 3747POPC   C4A48690  43.843  43.117   7.364
 3747POPC   C1B48691  43.995  42.930   6.464
 3747POPC   C2B48692  43.989  42.912   6.764
 3747POPC   C3B48693  43.980  42.856   7.064
 3747POPC   C4B48694  44.019  42.882   7.364
 3748POPC   NC348695  17.491   5.856   5.564
 3748POPC   PO448696  17.540   5.914   5.864
 3748POPC   GL148697  17.489   5.867   6.164
 3748POPC   GL248698  17.597   5.773   6.164
 3748POPC   C1A48699  17.496   5.887   6.464
 3748POPC   D2A48700  17.493   5.881   6.764
 3748POPC   C3A48701  17.510   5.861   7.064
 3748POPC   C4A48702  17.489   5.886   7.364
 3748POPC   C1B48703  17.721   5.734   6.464
 3748POPC   C2B48704  17.672   5.643   6.764
 3748POPC   C3B48705  17.675   5.670   7.064
 3748POPC   C4B48706  17.700   5.713   7.364
 3749POPC   NC348707   8.147  36.126   5.564
 3749POPC   PO448708   8.223  36.088   5.864
 3749POPC   GL148709   8.222  36.096   6.164
 3749POPC   GL248710   8.044  36.170   6.164
 3749POPC   C1A48711   8.214  36.168   6.464
 3749POPC   D2A48712   8.224  36.163   6.764
 3749POPC   C3A48713   8.234  36.162   7.064
 3749POPC   C4A48714   8.180  36.169   7.364
 3749POPC   C1B48715   7.993  36.109   6.464
 3749POPC   C2B48716   7.949  36.089   6.764
 3749POPC   C3B48717   7.962  36.097   7.064
 3749POPC   C4B48718   7.897  36.181   7.364
 3750POPC   NC348719  23.693  33.821   5.564
 3750POPC   PO448720  23.691  33.786   5.864
 3750POPC   GL148721  23.679  33.788   6.164
 3750POPC   GL248722  23.642  33.892   6.164
 3750POPC   C1A48723  23.756  33.846   6.464
 3750POPC   D2A48724  23.725  33.805   6.764
 3750POPC   C3A48725  23.680  33.835   7.064
 3750POPC   C4A48726  23.677  33.768   7.364
 3750POPC   C1B48727  23.515  33.918   6.464
 3750POPC   C2B48728  23.513  33.997   6.764
 3750POPC   C3B48729  23.545  33.991   7.064
 3750POPC   C4B48730  23.570  33.939   7.364
 3751POPC   NC348731   4.362   1.236   5.564
 3751POPC   PO448732   4.308   1.254   5.864
 3751POPC   GL148733   4.270   1.228   6.164
 3751POPC   GL248734   4.296   1.284   6.164
 3751POPC   C1A48735   4.283   1.249   6.464
 3751POPC   D2A48736   4.294   1.166   6.764
 3751POPC   C3A48737   4.345   1.218   7.064
 3751POPC   C4A48738   4.331   1.228   7.364
 3751POPC   C1B48739   4.225   1.419   6.464
 3751POPC   C2B48740   4.221   1.487   6.764
 3751POPC   C3B48741   4.234   1.421   7.064
 3751POPC   C4B48742   4.201   1.486   7.364
 3752POPC   NC348743  10.556   8.957   5.564
 3752POPC   PO448744  10.541   8.969   5.864
 3752POPC   GL148745  10.552   8.948   6.164
 3752POPC   GL248746  10.445   9.135   6.164
 3752POPC   C1A48747  10.520   9.022   6.464
 3752POPC   D2A48748  10.509   8.985   6.764
 3752POPC   C3A48749  10.482   8.948   7.064
 3752POPC   C4A48750  10.554   8.945   7.364
 3752POPC   C1B48751  10.463   9.208   6.464
 3752POPC   C2B48752  10.483   9.211   6.764
 3752POPC   C3B48753  10.398   9.237   7.064
 3752POPC   C4B48754  10.419   9.197   7.364
 3753POPC   NC348755  29.130  40.814   5.564
 3753POPC   PO448756  29.117  40.767   5.864
 3753POPC   GL148757  29.175  40.760   6.164
 3753POPC   GL248758  29.287  40.787   6.164
 3753POPC   C1A48759  29.115  40.811   6.464
 3753POPC   D2A48760  29.126  40.809   6.764
 3753POPC   C3A48761  29.188  40.756   7.064
 3753POPC   C4A48762  29.114  40.802   7.364
 3753POPC   C1B48763  29.365  40.728   6.464
 3753POPC   C2B48764  29.373  40.727   6.764
 3753POPC   C3B48765  29.396  40.752   7.064
 3753POPC   C4B48766  29.404  40.776   7.364
 3754POPC   NC348767  32.249  18.315   5.564
 3754POPC   PO448768  32.278  18.313   5.864
 3754POPC   GL148769  32.238  18.332   6.164
 3754POPC   GL248770  32.168  18.336   6.164
 3754POPC   C1A48771  32.294  18.278   6.464
 3754POPC   D2A48772  32.225  18.280   6.764
 3754POPC   C3A48773  32.210  18.270   7.064
 3754POPC   C4A48774  32.210  18.283   7.364
 3754POPC   C1B48775  32.076  18.475   6.464
 3754POPC   C2B48776  32.082  18.473   6.764
 3754POPC   C3B48777  32.061  18.430   7.064
 3754POPC   C4B48778  32.043  18.481   7.364
 3755POPC   NC348779  15.197   5.871   5.564
 3755POPC   PO448780  15.186   5.854   5.864
 3755POPC   GL148781  15.167   5.821   6.164
 3755POPC   GL248782  15.107   5.968   6.164
 3755POPC   C1A48783  15.138   5.861   6.464
 3755POPC   D2A48784  15.178   5.855   6.764
 3755POPC   C3A48785  15.220   5.826   7.064
 3755POPC   C4A48786  15.183   5.820   7.364
 3755POPC   C1B48787  15.106   6.086   6.464
 3755POPC   C2B48788  15.043   6.123   6.764
 3755POPC   C3B48789  15.051   6.067   7.064
 3755POPC   C4B48790  15.082   6.071   7.364
 3756POPC   NC348791  15.948  32.267   5.564
 3756POPC   PO448792  15.996  32.219   5.864
 3756POPC   GL148793  15.997  32.284   6.164
 3756POPC   GL248794  16.125  32.236   6.164
 3756POPC   C1A48795  15.926  32.236   6.464
 3756POPC   D2A48796  15.965  32.278   6.764
 3756POPC   C3A48797  15.964  32.224   7.064
 3756POPC   C4A48798  15.906  32.231   7.364
 3756POPC   C1B48799  16.209  32.264   6.464
 3756POPC   C2B48800  16.161  32.341   6.764
 3756POPC   C3B48801  16.225  32.304   7.064
 3756POPC   C4B48802  16.208  32.360   7.364
 3757POPC   NC348803   0.400  43.067   5.564
 3757POPC   PO448804   0.428  43.136   5.864
 3757POPC   GL148805   0.392  43.117   6.164
 3757POPC   GL248806   0.498  43.173   6.164
 3757POPC   C1A48807   0.435  43.115   6.464
 3757POPC   D2A48808   0.487  43.077   6.764
 3757POPC   C3A48809   0.477  43.079   7.064
 3757POPC   C4A48810   0.391  43.157   7.364
 3757POPC   C1B48811   0.600  43.322   6.464
 3757POPC   C2B48812   0.583  43.275   6.764
 3757POPC   C3B48813   0.615  43.308   7.064
 3757POPC   C4B48814   0.542  43.332   7.364
 3758POPC   NC348815   1.986  13.603   5.564
 3758POPC   PO448816   2.017  13.661   5.864
 3758POPC   GL148817   1.941  13.621   6.164
 3758POPC   GL248818   1.935  13.533   6.164
 3758POPC   C1A48819   1.970  13.621   6.464
 3758POPC   D2A48820   1.980  13.660   6.764
 3758POPC   C3A48821   1.989  13.608   7.064
 3758POPC   C4A48822   2.018  13.589   7.364
 3758POPC   C1B48823   1.799  13.423   6.464
 3758POPC   C2B48824   1.865  13.394   6.764
 3758POPC   C3B48825   1.802  13.432   7.064
 3758POPC   C4B48826   1.873  13.419   7.364
 3759POPC   NC348827  37.664  30.731   5.564
 3759POPC   PO448828  37.641  30.727   5.864
 3759POPC   GL148829  37.666  30.684   6.164
 3759POPC   GL248830  37.709  30.600   6.164
 3759POPC   C1A48831  37.633  30.663   6.464
 3759POPC   D2A48832  37.716  30.730   6.764
 3759POPC   C3A48833  37.722  30.678   7.064
 3759POPC   C4A48834  37.634  30.669   7.364
 3759POPC   C1B48835  37.716  30.439   6.464
 3759POPC   C2B48836  37.798  30.411   6.764
 3759POPC   C3B48837  37.777  30.437   7.064
 3759POPC   C4B48838  37.769  30.487   7.364
 3760POPC   NC348839  29.871  23.727   5.564
 3760POPC   PO448840  29.916  23.741   5.864
 3760POPC   GL148841  29.956  23.735   6.164
 3760POPC   GL248842  29.818  23.579   6.164
 3760POPC   C1A48843  29.874  23.717   6.464
 3760POPC   D2A48844  29.897  23.732   6.764
 3760POPC   C3A48845  29.952  23.741   7.064
 3760POPC   C4A48846  29.943  23.741   7.364
 3760POPC   C1B48847  29.736  23.472   6.464
 3760POPC   C2B48848  29.774  23.467   6.764
 3760POPC   C3B48849  29.813  23.523   7.064
 3760POPC   C4B48850  29.770  23.560   7.364
 3761POPC   NC348851  16.746  26.801   5.564
 3761POPC   PO448852  16.688  26.809   5.864
 3761POPC   GL148853  16.706  26.818   6.164
 3761POPC   GL248854  16.618  26.867   6.164
 3761POPC   C1A48855  16.711  26.790   6.464
 3761POPC   D2A48856  16.748  26.858   6.764
 3761POPC   C3A48857  16.736  26.804   7.064
 3761POPC   C4A48858  16.731  26.853   7.364
 3761POPC   C1B48859  16.500  26.821   6.464
 3761POPC   C2B48860  16.487  26.840   6.764
 3761POPC   C3B48861  16.533  26.895   7.064
 3761POPC   C4B48862  16.522  26.859   7.364
 3762POPC   NC348863  31.439  25.274   5.564
 3762POPC   PO448864  31.491  25.276   5.864
 3762POPC   GL148865  31.483  25.303   6.164
 3762POPC   GL248866  31.522  25.160   6.164
 3762POPC   C1A48867  31.490  25.296   6.464
 3762POPC   D2A48868  31.430  25.257   6.764
 3762POPC   C3A48869  31.463  25.233   7.064
 3762POPC   C4A48870  31.462  25.276   7.364
 3762POPC   C1B48871  31.584  25.092   6.464
 3762POPC   C2B48872  31.617  25.104   6.764
 3762POPC   C3B48873  31.636  25.013   7.064
 3762POPC   C4B48874  31.615  25.060   7.364
 3763POPC   NC348875  36.943  34.580   5.564
 3763POPC   PO448876  36.897  34.587   5.864
 3763POPC   GL148877  36.911  34.531   6.164
 3763POPC   GL248878  37.004  34.639   6.164
 3763POPC   C1A48879  36.859  34.555   6.464
 3763POPC   D2A48880  36.909  34.536   6.764
 3763POPC   C3A48881  36.922  34.571   7.064
 3763POPC   C4A48882  36.877  34.569   7.364
 3763POPC   C1B48883  37.038  34.755   6.464
 3763POPC   C2B48884  37.030  34.823   6.764
 3763POPC   C3B48885  36.971  34.839   7.064
 3763POPC   C4B48886  37.020  34.807   7.364
 3764POPC   NC348887  24.534  22.120   5.564
 3764POPC   PO448888  24.535  22.155   5.864
 3764POPC   GL148889  24.534  22.150   6.164
 3764POPC   GL248890  24.477  22.240   6.164
 3764POPC   C1A48891  24.535  22.118   6.464
 3764POPC   D2A48892  24.464  22.171   6.764
 3764POPC   C3A48893  24.511  22.119   7.064
 3764POPC   C4A48894  24.508  22.201   7.364
 3764POPC   C1B48895  24.476  22.447   6.464
 3764POPC   C2B48896  24.550  22.381   6.764
 3764POPC   C3B48897  24.506  22.417   7.064
 3764POPC   C4B48898  24.525  22.385   7.364
 3765POPC   NC348899   5.828   4.317   5.564
 3765POPC   PO448900   5.867   4.341   5.864
 3765POPC   GL148901   5.909   4.312   6.164
 3765POPC   GL248902   5.800   4.396   6.164
 3765POPC   C1A48903   5.881   4.309   6.464
 3765POPC   D2A48904   5.897   4.342   6.764
 3765POPC   C3A48905   5.917   4.363   7.064
 3765POPC   C4A48906   5.838   4.278   7.364
 3765POPC   C1B48907   5.723   4.578   6.464
 3765POPC   C2B48908   5.747   4.507   6.764
 3765POPC   C3B48909   5.781   4.546   7.064
 3765POPC   C4B48910   5.803   4.540   7.364
 3766POPC   NC348911   9.788  43.865   5.564
 3766POPC   PO448912   9.703  43.922   5.864
 3766POPC   GL148913   9.797  43.904   6.164
 3766POPC   GL248914   9.782  43.800   6.164
 3766POPC   C1A48915   9.753  43.899   6.464
 3766POPC   D2A48916   9.706  43.920   6.764
 3766POPC   C3A48917   9.729  43.923   7.064
 3766POPC   C4A48918   9.747  43.861   7.364
 3766POPC   C1B48919   9.845  43.601   6.464
 3766POPC   C2B48920   9.774  43.636   6.764
 3766POPC   C3B48921   9.773  43.613   7.064
 3766POPC   C4B48922   9.774  43.681   7.364
 3767POPC   NC348923  36.081   2.800   5.564
 3767POPC   PO448924  36.170   2.772   5.864
 3767POPC   GL148925  36.173   2.744   6.164
 3767POPC   GL248926  36.085   2.609   6.164
 3767POPC   C1A48927  36.109   2.747   6.464
 3767POPC   D2A48928  36.104   2.782   6.764
 3767POPC   C3A48929  36.172   2.753   7.064
 3767POPC   C4A48930  36.152   2.777   7.364
 3767POPC   C1B48931  36.010   2.568   6.464
 3767POPC   C2B48932  36.074   2.540   6.764
 3767POPC   C3B48933  36.045   2.484   7.064
 3767POPC   C4B48934  36.067   2.515   7.364
 3768POPC   NC348935  39.270  43.863   5.564
 3768POPC   PO448936  39.281  43.887   5.864
 3768POPC   GL148937  39.209  43.865   6.164
 3768POPC   GL248938  39.131  44.022   6.164
 3768POPC   C1A48939  39.238  43.929   6.464
 3768POPC   D2A48940  39.210  43.840   6.764
 3768POPC   C3A48941  39.259  43.886   7.064
 3768POPC   C4A48942  39.196  43.838   7.364
 3768POPC   C1B48943  39.092  44.059   6.464
 3768POPC   C2B48944  39.051  44.083   6.764
 3768POPC   C3B48945  39.017  44.102   7.064
 3768POPC   C4B48946  39.034  44.072   7.364
 3769POPC   NC348947  30.729  14.354   5.564
 3769POPC   PO448948  30.744  14.410   5.864
 3769POPC   GL148949  30.733  14.389   6.164
 3769POPC   GL248950  30.546  14.338   6.164
 3769POPC   C1A48951  30.680  14.415   6.464
 3769POPC   D2A48952  30.697  14.434   6.764
 3769POPC   C3A48953  30.668  14.411   7.064
 3769POPC   C4A48954  30.678  14.359   7.364
 3769POPC   C1B48955  30.417  14.355   6.464
 3769POPC   C2B48956  30.459  14.375   6.764
 3769POPC   C3B48957  30.459  14.330   7.064
 3769POPC   C4B48958  30.427  14.356   7.364
 3770POPC   NC348959  29.914  27.609   5.564
 3770POPC   PO448960  29.925  27.614   5.864
 3770POPC   GL148961  29.921  27.581   6.164
 3770POPC   GL248962  29.977  27.711   6.164
 3770POPC   C1A48963  29.910  27.556   6.464
 3770POPC   D2A48964  29.916  27.545   6.764
 3770POPC   C3A48965  29.878  27.570   7.064
 3770POPC   C4A48966  29.885  27.619   7.364
 3770POPC   C1B48967  30.067  27.814   6.464
 3770POPC   C2B48968  30.009  27.842   6.764
 3770POPC   C3B48969  30.033  27.811   7.064
 3770POPC   C4B48970  29.996  27.784   7.364
 3771POPC   NC348971  29.192   5.088   5.564
 3771POPC   PO448972  29.155   5.044   5.864
 3771POPC   GL148973  29.158   5.107   6.164
 3771POPC   GL248974  29.224   5.092   6.164
 3771POPC   C1A48975  29.131   5.050   6.464
 3771POPC   D2A48976  29.164   5.139   6.764
 3771POPC   C3A48977  29.161   5.069   7.064
 3771POPC   C4A48978  29.110   5.141   7.364
 3771POPC   C1B48979  29.410   5.066   6.464
 3771POPC   C2B48980  29.437   5.089   6.764
 3771POPC   C3B48981  29.443   5.074   7.064
 3771POPC   C4B48982  29.399   5.063   7.364
 3772POPC   NC348983   8.935  25.271   5.564
 3772POPC   PO448984   8.981  25.280   5.864
 3772POPC   GL148985   9.002  25.264   6.164
 3772POPC   GL248986   8.895  25.361   6.164
 3772POPC   C1A48987   9.015  25.225   6.464
 3772POPC   D2A48988   8.950  25.246   6.764
 3772POPC   C3A48989   8.967  25.247   7.064
 3772POPC   C4A48990   8.946  25.233   7.364
 3772POPC   C1B48991   8.870  25.458   6.464
 3772POPC   C2B48992   8.872  25.439   6.764
 3772POPC   C3B48993   8.852  25.527   7.064
 3772POPC   C4B48994   8.867  25.516   7.364
 3773POPC   NC348995  16.703  39.276   5.564
 3773POPC   PO448996  16.724  39.186   5.864
 3773POPC   GL148997  16.754  39.254   6.164
 3773POPC   GL248998  16.727  39.112   6.164
 3773POPC   C1A48999  16.707  39.261   6.464
 3773POPC   D2A49000  16.760  39.221   6.764
 3773POPC   C3A49001  16.751  39.235   7.064
 3773POPC   C4A49002  16.706  39.212   7.364
 3773POPC   C1B49003  16.760  39.017   6.464
 3773POPC   C2B49004  16.680  39.031   6.764
 3773POPC   C3B49005  16.673  39.014   7.064
 3773POPC   C4B49006  16.732  39.019   7.364
 3774POPC   NC349007  19.799  39.277   5.564
 3774POPC   PO449008  19.866  39.222   5.864
 3774POPC   GL149009  19.787  39.267   6.164
 3774POPC   GL249010  19.929  39.238   6.164
 3774POPC   C1A49011  19.840  39.272   6.464
 3774POPC   D2A49012  19.870  39.197   6.764
 3774POPC   C3A49013  19.848  39.242   7.064
 3774POPC   C4A49014  19.874  39.204   7.364
 3774POPC   C1B49015  20.069  39.200   6.464
 3774POPC   C2B49016  20.052  39.265   6.764
 3774POPC   C3B49017  20.109  39.229   7.064
 3774POPC   C4B49018  20.036  39.188   7.364
 3775POPC   NC349019  36.936  36.094   5.564
 3775POPC   PO449020  36.921  36.148   5.864
 3775POPC   GL149021  36.901  36.169   6.164
 3775POPC   GL249022  36.990  36.145   6.164
 3775POPC   C1A49023  36.859  36.091   6.464
 3775POPC   D2A49024  36.900  36.129   6.764
 3775POPC   C3A49025  36.916  36.143   7.064
 3775POPC   C4A49026  36.938  36.086   7.364
 3775POPC   C1B49027  37.137  36.149   6.464
 3775POPC   C2B49028  37.161  36.177   6.764
 3775POPC   C3B49029  37.119  36.142   7.064
 3775POPC   C4B49030  37.167  36.148   7.364
 3776POPC   NC349031  27.610   2.727   5.564
 3776POPC   PO449032  27.569   2.761   5.864
 3776POPC   GL149033  27.576   2.809   6.164
 3776POPC   GL249034  27.663   2.896   6.164
 3776POPC   C1A49035  27.594   2.754   6.464
 3776POPC   D2A49036  27.546   2.807   6.764
 3776POPC   C3A49037  27.606   2.791   7.064
 3776POPC   C4A49038  27.640   2.776   7.364
 3776POPC   C1B49039  27.768   2.950   6.464
 3776POPC   C2B49040  27.711   2.940   6.764
 3776POPC   C3B49041  27.713   2.961   7.064
 3776POPC   C4B49042  27.771   2.941   7.364
 3777POPC   NC349043  29.158  24.538   5.564
 3777POPC   PO449044  29.104  24.519   5.864
 3777POPC   GL149045  29.189  24.473   6.164
 3777POPC   GL249046  29.167  24.379   6.164
 3777POPC   C1A49047  29.131  24.495   6.464
 3777POPC   D2A49048  29.129  24.517   6.764
 3777POPC   C3A49049  29.165  24.471   7.064
 3777POPC   C4A49050  29.139  24.464   7.364
 3777POPC   C1B49051  29.231  24.321   6.464
 3777POPC   C2B49052  29.302  24.276   6.764
 3777POPC   C3B49053  29.310  24.284   7.064
 3777POPC   C4B49054  29.241  24.275   7.364
 3778POPC   NC349055   4.361  25.259   5.564
 3778POPC   PO449056   4.267  25.235   5.864
 3778POPC   GL149057   4.334  25.226   6.164
 3778POPC   GL249058   4.378  25.214   6.164
 3778POPC   C1A49059   4.273  25.234   6.464
 3778POPC   D2A49060   4.343  25.312   6.764
 3778POPC   C3A49061   4.272  25.245   7.064
 3778POPC   C4A49062   4.337  25.270   7.364
 3778POPC   C1B49063   4.524  25.089   6.464
 3778POPC   C2B49064   4.495  25.061   6.764
 3778POPC   C3B49065   4.500  25.079   7.064
 3778POPC   C4B49066   4.520  25.057   7.364
 3779POPC   NC349067  34.624  42.310   5.564
 3779POPC   PO449068  34.625  42.308   5.864
 3779POPC   GL149069  34.546  42.368   6.164
 3779POPC   GL249070  34.639  42.464   6.164
 3779POPC   C1A49071  34.532  42.293   6.464
 3779POPC   D2A49072  34.623  42.309   6.764
 3779POPC   C3A49073  34.559  42.368   7.064
 3779POPC   C4A49074  34.537  42.311   7.364
 3779POPC   C1B49075  34.710  42.581   6.464
 3779POPC   C2B49076  34.658  42.570   6.764
 3779POPC   C3B49077  34.706  42.545   7.064
 3779POPC   C4B49078  34.731  42.504   7.364
 3780POPC   NC349079  29.901   8.209   5.564
 3780POPC   PO449080  29.875   8.228   5.864
 3780POPC   GL149081  29.918   8.242   6.164
 3780POPC   GL249082  29.806   8.325   6.164
 3780POPC   C1A49083  29.959   8.221   6.464
 3780POPC   D2A49084  29.905   8.209   6.764
 3780POPC   C3A49085  29.910   8.195   7.064
 3780POPC   C4A49086  29.918   8.194   7.364
 3780POPC   C1B49087  29.774   8.346   6.464
 3780POPC   C2B49088  29.727   8.358   6.764
 3780POPC   C3B49089  29.725   8.394   7.064
 3780POPC   C4B49090  29.701   8.322   7.364
 3781POPC   NC349091  33.767   5.119   5.564
 3781POPC   PO449092  33.760   5.120   5.864
 3781POPC   GL149093  33.813   5.108   6.164
 3781POPC   GL249094  33.907   5.218   6.164
 3781POPC   C1A49095  33.754   5.099   6.464
 3781POPC   D2A49096  33.808   5.126   6.764
 3781POPC   C3A49097  33.793   5.134   7.064
 3781POPC   C4A49098  33.792   5.081   7.364
 3781POPC   C1B49099  33.897   5.336   6.464
 3781POPC   C2B49100  33.928   5.355   6.764
 3781POPC   C3B49101  33.939   5.354   7.064
 3781POPC   C4B49102  33.918   5.273   7.364
 3782POPC   NC349103   4.288  29.902   5.564
 3782POPC   PO449104   4.275  29.876   5.864
 3782POPC   GL149105   4.319  29.947   6.164
 3782POPC   GL249106   4.255  30.002   6.164
 3782POPC   C1A49107   4.365  29.879   6.464
 3782POPC   D2A49108   4.294  29.910   6.764
 3782POPC   C3A49109   4.328  29.875   7.064
 3782POPC   C4A49110   4.299  29.874   7.364
 3782POPC   C1B49111   4.272  30.154   6.464
 3782POPC   C2B49112   4.249  30.192   6.764
 3782POPC   C3B49113   4.293  30.147   7.064
 3782POPC   C4B49114   4.216  30.119   7.364
 3783POPC   NC349115  39.221   4.281   5.564
 3783POPC   PO449116  39.265   4.338   5.864
 3783POPC   GL149117  39.211   4.303   6.164
 3783POPC   GL249118  39.177   4.178   6.164
 3783POPC   C1A49119  39.260   4.311   6.464
 3783POPC   D2A49120  39.197   4.325   6.764
 3783POPC   C3A49121  39.227   4.335   7.064
 3783POPC   C4A49122  39.187   4.309   7.364
 3783POPC   C1B49123  39.163   4.088   6.464
 3783POPC   C2B49124  39.210   4.057   6.764
 3783POPC   C3B49125  39.185   4.081   7.064
 3783POPC   C4B49126  39.231   4.072   7.364
 3784POPC   NC349127  33.840  44.649   5.564
 3784POPC   PO449128  33.791  44.707   5.864
 3784POPC   GL149129  33.760  44.675   6.164
 3784POPC   GL249130  33.942  44.675   6.164
 3784POPC   C1A49131  33.754  44.640   6.464
 3784POPC   D2A49132  33.849  44.627   6.764
 3784POPC   C3A49133  33.762  44.626   7.064
 3784POPC   C4A49134  33.757  44.669   7.364
 3784POPC   C1B49135  34.067  44.581   6.464
 3784POPC   C2B49136  34.066  44.608   6.764
 3784POPC   C3B49137  33.995  44.643   7.064
 3784POPC   C4B49138  34.049  44.579   7.364
 3785POPC   NC349139  13.625  44.644   5.564
 3785POPC   PO449140  13.623  44.653   5.864
 3785POPC   GL149141  13.653  44.654   6.164
 3785POPC   GL249142  13.704  44.636   6.164
 3785POPC   C1A49143  13.635  44.669   6.464
 3785POPC   D2A49144  13.610  44.653   6.764
 3785POPC   C3A49145  13.659  44.622   7.064
 3785POPC   C4A49146  13.630  44.685   7.364
 3785POPC   C1B49147  13.879  44.545   6.464
 3785POPC   C2B49148  13.855  44.523   6.764
 3785POPC   C3B49149  13.866  44.507   7.064
 3785POPC   C4B49150  13.887  44.535   7.364
 3786POPC   NC349151  17.544   2.795   5.564
 3786POPC   PO449152  17.464   2.764   5.864
 3786POPC   GL149153  17.539   2.772   6.164
 3786POPC   GL249154  17.560   2.876   6.164
 3786POPC   C1A49155  17.495   2.721   6.464
 3786POPC   D2A49156  17.520   2.810   6.764
 3786POPC   C3A49157  17.493   2.741   7.064
 3786POPC   C4A49158  17.519   2.807   7.364
 3786POPC   C1B49159  17.706   2.942   6.464
 3786POPC   C2B49160  17.636   2.917   6.764
 3786POPC   C3B49161  17.626   2.965   7.064
 3786POPC   C4B49162  17.722   2.946   7.364
 3787POPC   NC349163  43.110   4.286   5.564
 3787POPC   PO449164  43.117   4.293   5.864
 3787POPC   GL149165  43.116   4.333   6.164
 3787POPC   GL249166  43.035   4.397   6.164
 3787POPC   C1A49167  43.112   4.269   6.464
 3787POPC   D2A49168  43.100   4.305   6.764
 3787POPC   C3A49169  43.156   4.300   7.064
 3787POPC   C4A49170  43.075   4.297   7.364
 3787POPC   C1B49171  42.935   4.474   6.464
 3787POPC   C2B49172  42.926   4.421   6.764
 3787POPC   C3B49173  42.864   4.430   7.064
 3787POPC   C4B49174  42.875   4.465   7.364
 3788POPC   NC349175  25.246  42.353   5.564
 3788POPC   PO449176  25.251  42.337   5.864
 3788POPC   GL149177  25.240  42.344   6.164
 3788POPC   GL249178  25.375  42.380   6.164
 3788POPC   C1A49179  25.259  42.292   6.464
 3788POPC   D2A49180  25.302  42.379   6.764
 3788POPC   C3A49181  25.286  42.303   7.064
 3788POPC   C4A49182  25.242  42.322   7.364
 3788POPC   C1B49183  25.487  42.444   6.464
 3788POPC   C2B49184  25.474  42.470   6.764
 3788POPC   C3B49185  25.467  42.433   7.064
 3788POPC   C4B49186  25.479  42.462   7.364
 3789POPC   NC349187  15.145  34.602   5.564
 3789POPC   PO449188  15.144  34.604   5.864
 3789POPC   GL149189  15.227  34.569   6.164
 3789POPC   GL249190  15.235  34.457   6.164
 3789POPC   C1A49191  15.150  34.575   6.464
 3789POPC   D2A49192  15.152  34.531   6.764
 3789POPC   C3A49193  15.201  34.608   7.064
 3789POPC   C4A49194  15.204  34.625   7.364
 3789POPC   C1B49195  15.351  34.353   6.464
 3789POPC   C2B49196  15.330  34.397   6.764
 3789POPC   C3B49197  15.350  34.386   7.064
 3789POPC   C4B49198  15.323  34.427   7.364
 3790POPC   NC349199  40.019  39.278   5.564
 3790POPC   PO449200  39.978  39.270   5.864
 3790POPC   GL149201  39.980  39.267   6.164
 3790POPC   GL249202  40.014  39.306   6.164
 3790POPC   C1A49203  39.963  39.268   6.464
 3790POPC   D2A49204  39.977  39.245   6.764
 3790POPC   C3A49205  40.008  39.214   7.064
 3790POPC   C4A49206  39.983  39.190   7.364
 3790POPC   C1B49207  40.096  39.498   6.464
 3790POPC   C2B49208  40.034  39.473   6.764
 3790POPC   C3B49209  40.061  39.480   7.064
 3790POPC   C4B49210  40.114  39.464   7.364
 3791POPC   NC349211   3.504  31.517   5.564
 3791POPC   PO449212   3.530  31.486   5.864
 3791POPC   GL149213   3.555  31.496   6.164
 3791POPC   GL249214   3.452  31.458   6.164
 3791POPC   C1A49215   3.579  31.433   6.464
 3791POPC   D2A49216   3.554  31.446   6.764
 3791POPC   C3A49217   3.533  31.437   7.064
 3791POPC   C4A49218   3.534  31.513   7.364
 3791POPC   C1B49219   3.310  31.320   6.464
 3791POPC   C2B49220   3.279  31.361   6.764
 3791POPC   C3B49221   3.346  31.337   7.064
 3791POPC   C4B49222   3.368  31.306   7.364
 3792POPC   NC349223  42.328  22.942   5.564
 3792POPC   PO449224  42.288  22.963   5.864
 3792POPC   GL149225  42.342  22.896   6.164
 3792POPC   GL249226  42.274  22.830   6.164
 3792POPC   C1A49227  42.376  22.980   6.464
 3792POPC   D2A49228  42.315  22.929   6.764
 3792POPC   C3A49229  42.362  22.939   7.064
 3792POPC   C4A49230  42.321  22.947   7.364
 3792POPC   C1B49231  42.209  22.722   6.464
 3792POPC   C2B49232  42.182  22.712   6.764
 3792POPC   C3B49233  42.202  22.779   7.064
 3792POPC   C4B49234  42.146  22.747   7.364
 3793POPC   NC349235  11.338  43.919   5.564
 3793POPC   PO449236  11.339  43.912   5.864
 3793POPC   GL149237  11.330  43.930   6.164
 3793POPC   GL249238  11.431  43.868   6.164
 3793POPC   C1A49239  11.348  43.883   6.464
 3793POPC   D2A49240  11.294  43.903   6.764
 3793POPC   C3A49241  11.268  43.921   7.064
 3793POPC   C4A49242  11.290  43.916   7.364
 3793POPC   C1B49243  11.595  43.859   6.464
 3793POPC   C2B49244  11.512  43.853   6.764
 3793POPC   C3B49245  11.559  43.844   7.064
 3793POPC   C4B49246  11.527  43.843   7.364
 3794POPC   NC349247  29.178  20.601   5.564
 3794POPC   PO449248  29.155  20.593   5.864
 3794POPC   GL149249  29.161  20.596   6.164
 3794POPC   GL249250  29.267  20.581   6.164
 3794POPC   C1A49251  29.127  20.651   6.464
 3794POPC   D2A49252  29.123  20.608   6.764
 3794POPC   C3A49253  29.099  20.629   7.064
 3794POPC   C4A49254  29.127  20.583   7.364
 3794POPC   C1B49255  29.377  20.664   6.464
 3794POPC   C2B49256  29.430  20.668   6.764
 3794POPC   C3B49257  29.433  20.621   7.064
 3794POPC   C4B49258  29.375  20.577   7.364
 3795POPC   NC349259  19.816  23.756   5.564
 3795POPC   PO449260  19.861  23.717   5.864
 3795POPC   GL149261  19.794  23.708   6.164
 3795POPC   GL249262  19.840  23.816   6.164
 3795POPC   C1A49263  19.842  23.672   6.464
 3795POPC   D2A49264  19.861  23.699   6.764
 3795POPC   C3A49265  19.792  23.698   7.064
 3795POPC   C4A49266  19.788  23.723   7.364
 3795POPC   C1B49267  19.876  23.929   6.464
 3795POPC   C2B49268  19.808  23.971   6.764
 3795POPC   C3B49269  19.839  23.931   7.064
 3795POPC   C4B49270  19.877  23.951   7.364
 3796POPC   NC349271  33.814  43.068   5.564
 3796POPC   PO449272  33.835  43.155   5.864
 3796POPC   GL149273  33.826  43.131   6.164
 3796POPC   GL249274  33.670  43.199   6.164
 3796POPC   C1A49275  33.807  43.158   6.464
 3796POPC   D2A49276  33.760  43.104   6.764
 3796POPC   C3A49277  33.806  43.091   7.064
 3796POPC   C4A49278  33.807  43.077   7.364
 3796POPC   C1B49279  33.639  43.340   6.464
 3796POPC   C2B49280  33.674  43.314   6.764
 3796POPC   C3B49281  33.659  43.323   7.064
 3796POPC   C4B49282  33.640  43.304   7.364
 3797POPC   NC349283  13.664  35.359   5.564
 3797POPC   PO449284  13.606  35.349   5.864
 3797POPC   GL149285  13.609  35.359   6.164
 3797POPC   GL249286  13.521  35.350   6.164
 3797POPC   C1A49287  13.614  35.320   6.464
 3797POPC   D2A49288  13.603  35.382   6.764
 3797POPC   C3A49289  13.653  35.383   7.064
 3797POPC   C4A49290  13.588  35.319   7.364
 3797POPC   C1B49291  13.340  35.242   6.464
 3797POPC   C2B49292  13.407  35.306   6.764
 3797POPC   C3B49293  13.402  35.296   7.064
 3797POPC   C4B49294  13.418  35.310   7.364
 3798POPC   NC349295  35.366  39.274   5.564
 3798POPC   PO449296  35.397  39.200   5.864
 3798POPC   GL149297  35.400  39.274   6.164
 3798POPC   GL249298  35.416  39.358   6.164
 3798POPC   C1A49299  35.365  39.191   6.464
 3798POPC   D2A49300  35.347  39.236   6.764
 3798POPC   C3A49301  35.320  39.233   7.064
 3798POPC   C4A49302  35.366  39.214   7.364
 3798POPC   C1B49303  35.425  39.498   6.464
 3798POPC   C2B49304  35.470  39.420   6.764
 3798POPC   C3B49305  35.488  39.481   7.064
 3798POPC   C4B49306  35.458  39.461   7.364
 3799POPC   NC349307  27.626  18.284   5.564
 3799POPC   PO449308  27.589  18.273   5.864
 3799POPC   GL149309  27.591  18.247   6.164
 3799POPC   GL249310  27.658  18.176   6.164
 3799POPC   C1A49311  27.632  18.297   6.464
 3799POPC   D2A49312  27.566  18.264   6.764
 3799POPC   C3A49313  27.578  18.245   7.064
 3799POPC   C4A49314  27.548  18.296   7.364
 3799POPC   C1B49315  27.664  18.048   6.464
 3799POPC   C2B49316  27.664  18.058   6.764
 3799POPC   C3B49317  27.635  18.057   7.064
 3799POPC   C4B49318  27.654  18.060   7.364
 3800POPC   NC349319  44.664  32.269   5.564
 3800POPC   PO449320  44.699  32.222   5.864
 3800POPC   GL149321  44.643  32.257   6.164
 3800POPC   GL249322  44.512  32.324   6.164
 3800POPC   C1A49323  44.701  32.225   6.464
 3800POPC   D2A49324  44.635  32.270   6.764
 3800POPC   C3A49325  44.671  32.269   7.064
 3800POPC   C4A49326  44.629  32.272   7.364
 3800POPC   C1B49327  44.480  32.382   6.464
 3800POPC   C2B49328  44.483  32.430   6.764
 3800POPC   C3B49329  44.490  32.435   7.064
 3800POPC   C4B49330  44.427  32.394   7.364
 3801POPC   NC349331  27.625  29.123   5.564
 3801POPC   PO449332  27.624  29.165   5.864
 3801POPC   GL149333  27.556  29.110   6.164
 3801POPC   GL249334  27.462  29.118   6.164
 3801POPC   C1A49335  27.593  29.155   6.464
 3801POPC   D2A49336  27.593  29.181   6.764
 3801POPC   C3A49337  27.551  29.163   7.064
 3801POPC   C4A49338  27.554  29.181   7.364
 3801POPC   C1B49339  27.320  29.005   6.464
 3801POPC   C2B49340  27.325  29.061   6.764
 3801POPC   C3B49341  27.328  29.001   7.064
 3801POPC   C4B49342  27.359  29.064   7.364
 3802POPC   NC349343  29.924   9.001   5.564
 3802POPC   PO449344  29.953   8.954   5.864
 3802POPC   GL149345  29.885   9.014   6.164
 3802POPC   GL249346  29.937   9.060   6.164
 3802POPC   C1A49347  29.903   8.961   6.464
 3802POPC   D2A49348  29.938   8.976   6.764
 3802POPC   C3A49349  29.905   8.985   7.064
 3802POPC   C4A49350  29.879   8.958   7.364
 3802POPC   C1B49351  30.007   9.220   6.464
 3802POPC   C2B49352  30.016   9.182   6.764
 3802POPC   C3B49353  30.045   9.234   7.064
 3802POPC   C4B49354  30.065   9.184   7.364
 3803POPC   NC349355  22.941  30.738   5.564
 3803POPC   PO449356  22.896  30.694   5.864
 3803POPC   GL149357  22.899  30.710   6.164
 3803POPC   GL249358  22.856  30.616   6.164
 3803POPC   C1A49359  22.946  30.737   6.464
 3803POPC   D2A49360  22.926  30.746   6.764
 3803POPC   C3A49361  22.949  30.706   7.064
 3803POPC   C4A49362  22.929  30.718   7.364
 3803POPC   C1B49363  22.731  30.617   6.464
 3803POPC   C2B49364  22.753  30.595   6.764
 3803POPC   C3B49365  22.768  30.625   7.064
 3803POPC   C4B49366  22.703  30.575   7.364
 3804POPC   NC349367  28.354  29.134   5.564
 3804POPC   PO449368  28.412  29.097   5.864
 3804POPC   GL149369  28.339  29.143   6.164
 3804POPC   GL249370  28.483  29.244   6.164
 3804POPC   C1A49371  28.348  29.169   6.464
 3804POPC   D2A49372  28.375  29.113   6.764
 3804POPC   C3A49373  28.356  29.148   7.064
 3804POPC   C4A49374  28.342  29.145   7.364
 3804POPC   C1B49375  28.604  29.325   6.464
 3804POPC   C2B49376  28.573  29.246   6.764
 3804POPC   C3B49377  28.548  29.279   7.064
 3804POPC   C4B49378  28.540  29.245   7.364
 3805POPC   NC349379  40.001  27.554   5.564
 3805POPC   PO449380  40.037  27.546   5.864
 3805POPC   GL149381  39.997  27.622   6.164
 3805POPC   GL249382  39.873  27.536   6.164
 3805POPC   C1A49383  39.980  27.581   6.464
 3805POPC   D2A49384  39.963  27.559   6.764
 3805POPC   C3A49385  39.995  27.589   7.064
 3805POPC   C4A49386  40.020  27.568   7.364
 3805POPC   C1B49387  39.784  27.426   6.464
 3805POPC   C2B49388  39.803  27.381   6.764
 3805POPC   C3B49389  39.792  27.401   7.064
 3805POPC   C4B49390  39.810  27.443   7.364
 3806POPC   NC349391  13.628  16.686   5.564
 3806POPC   PO449392  13.650  16.715   5.864
 3806POPC   GL149393  13.631  16.722   6.164
 3806POPC   GL249394  13.634  16.631   6.164
 3806POPC   C1A49395  13.676  16.681   6.464
 3806POPC   D2A49396  13.662  16.766   6.764
 3806POPC   C3A49397  13.582  16.771   7.064
 3806POPC   C4A49398  13.637  16.726   7.364
 3806POPC   C1B49399  13.502  16.527   6.464
 3806POPC   C2B49400  13.549  16.466   6.764
 3806POPC   C3B49401  13.502  16.446   7.064
 3806POPC   C4B49402  13.501  16.456   7.364
 3807POPC   NC349403  34.625   9.754   5.564
 3807POPC   PO449404  34.576   9.700   5.864
 3807POPC   GL149405  34.608   9.730   6.164
 3807POPC   GL249406  34.596   9.668   6.164
 3807POPC   C1A49407  34.615   9.713   6.464
 3807POPC   D2A49408  34.596   9.779   6.764
 3807POPC   C3A49409  34.615   9.794   7.064
 3807POPC   C4A49410  34.614   9.719   7.364
 3807POPC   C1B49411  34.715   9.548   6.464
 3807POPC   C2B49412  34.740   9.557   6.764
 3807POPC   C3B49413  34.687   9.487   7.064
 3807POPC   C4B49414  34.675   9.517   7.364
 3808POPC   NC349415   6.635  29.907   5.564
 3808POPC   PO449416   6.635  29.929   5.864
 3808POPC   GL149417   6.625  29.944   6.164
 3808POPC   GL249418   6.757  29.923   6.164
 3808POPC   C1A49419   6.595  29.970   6.464
 3808POPC   D2A49420   6.650  29.905   6.764
 3808POPC   C3A49421   6.596  29.902   7.064
 3808POPC   C4A49422   6.688  29.917   7.364
 3808POPC   C1B49423   6.863  29.959   6.464
 3808POPC   C2B49424   6.898  30.010   6.764
 3808POPC   C3B49425   6.860  30.040   7.064
 3808POPC   C4B49426   6.912  29.978   7.364
 3809POPC   NC349427  25.265  17.541   5.564
 3809POPC   PO449428  25.273  17.532   5.864
 3809POPC   GL149429  25.304  17.511   6.164
 3809POPC   GL249430  25.099  17.526   6.164
 3809POPC   C1A49431  25.220  17.515   6.464
 3809POPC   D2A49432  25.251  17.488   6.764
 3809POPC   C3A49433  25.314  17.512   7.064
 3809POPC   C4A49434  25.303  17.507   7.364
 3809POPC   C1B49435  25.039  17.577   6.464
 3809POPC   C2B49436  25.041  17.555   6.764
 3809POPC   C3B49437  25.051  17.574   7.064
 3809POPC   C4B49438  25.077  17.553   7.364
 3810POPC   NC349439  33.049  27.579   5.564
 3810POPC   PO449440  33.015  27.596   5.864
 3810POPC   GL149441  33.059  27.619   6.164
 3810POPC   GL249442  32.856  27.565   6.164
 3810POPC   C1A49443  33.020  27.562   6.464
 3810POPC   D2A49444  32.997  27.585   6.764
 3810POPC   C3A49445  33.062  27.561   7.064
 3810POPC   C4A49446  33.046  27.564   7.364
 3810POPC   C1B49447  32.796  27.567   6.464
 3810POPC   C2B49448  32.813  27.511   6.764
 3810POPC   C3B49449  32.788  27.515   7.064
 3810POPC   C4B49450  32.799  27.562   7.364
 3811POPC   NC349451  12.062  42.325   5.564
 3811POPC   PO449452  12.105  42.365   5.864
 3811POPC   GL149453  12.121  42.355   6.164
 3811POPC   GL249454  12.147  42.476   6.164
 3811POPC   C1A49455  12.095  42.304   6.464
 3811POPC   D2A49456  12.100  42.355   6.764
 3811POPC   C3A49457  12.087  42.288   7.064
 3811POPC   C4A49458  12.087  42.381   7.364
 3811POPC   C1B49459  12.159  42.584   6.464
 3811POPC   C2B49460  12.183  42.527   6.764
 3811POPC   C3B49461  12.148  42.579   7.064
 3811POPC   C4B49462  12.194  42.595   7.364
 3812POPC   NC349463  29.914  14.444   5.564
 3812POPC   PO449464  29.887  14.429   5.864
 3812POPC   GL149465  29.949  14.428   6.164
 3812POPC   GL249466  30.058  14.276   6.164
 3812POPC   C1A49467  29.904  14.378   6.464
 3812POPC   D2A49468  29.910  14.385   6.764
 3812POPC   C3A49469  29.882  14.410   7.064
 3812POPC   C4A49470  29.876  14.385   7.364
 3812POPC   C1B49471  30.144  14.265   6.464
 3812POPC   C2B49472  30.059  14.214   6.764
 3812POPC   C3B49473  30.122  14.187   7.064
 3812POPC   C4B49474  30.150  14.239   7.364
 3813POPC   NC349475  43.844  38.451   5.564
 3813POPC   PO449476  43.865  38.504   5.864
 3813POPC   GL149477  43.889  38.409   6.164
 3813POPC   GL249478  43.859  38.580   6.164
 3813POPC   C1A49479  43.866  38.441   6.464
 3813POPC   D2A49480  43.871  38.409   6.764
 3813POPC   C3A49481  43.840  38.464   7.064
 3813POPC   C4A49482  43.924  38.503   7.364
 3813POPC   C1B49483  43.904  38.714   6.464
 3813POPC   C2B49484  43.968  38.751   6.764
 3813POPC   C3B49485  43.913  38.697   7.064
 3813POPC   C4B49486  43.899  38.666   7.364
 3814POPC   NC349487  35.401   2.802   5.564
 3814POPC   PO449488  35.366   2.804   5.864
 3814POPC   GL149489  35.368   2.766   6.164
 3814POPC   GL249490  35.304   2.669   6.164
 3814POPC   C1A49491  35.359   2.721   6.464
 3814POPC   D2A49492  35.367   2.798   6.764
 3814POPC   C3A49493  35.335   2.807   7.064
 3814POPC   C4A49494  35.303   2.769   7.364
 3814POPC   C1B49495  35.325   2.503   6.464
 3814POPC   C2B49496  35.302   2.474   6.764
 3814POPC   C3B49497  35.298   2.518   7.064
 3814POPC   C4B49498  35.312   2.521   7.364
 3815POPC   NC349499   9.013  43.890   5.564
 3815POPC   PO449500   8.985  43.912   5.864
 3815POPC   GL149501   8.927  43.868   6.164
 3815POPC   GL249502   9.012  43.973   6.164
 3815POPC   C1A49503   8.978  43.934   6.464
 3815POPC   D2A49504   8.940  43.932   6.764
 3815POPC   C3A49505   8.952  43.882   7.064
 3815POPC   C4A49506   8.982  43.918   7.364
 3815POPC   C1B49507   9.151  44.098   6.464
 3815POPC   C2B49508   9.190  44.053   6.764
 3815POPC   C3B49509   9.157  44.066   7.064
 3815POPC   C4B49510   9.108  44.107   7.364
 3816POPC   NC349511  40.830   8.230   5.564
 3816POPC   PO449512  40.755   8.219   5.864
 3816POPC   GL149513  40.772   8.182   6.164
 3816POPC   GL249514  40.797   8.291   6.164
 3816POPC   C1A49515  40.739   8.173   6.464
 3816POPC   D2A49516  40.818   8.153   6.764
 3816POPC   C3A49517  40.828   8.207   7.064
 3816POPC   C4A49518  40.792   8.212   7.364
 3816POPC   C1B49519  40.923   8.419   6.464
 3816POPC   C2B49520  40.884   8.468   6.764
 3816POPC   C3B49521  40.858   8.395   7.064
 3816POPC   C4B49522  40.872   8.458   7.364
 3817POPC   NC349523   0.469  32.261   5.564
 3817POPC   PO449524   0.428  32.249   5.864
 3817POPC   GL149525   0.403  32.237   6.164
 3817POPC   GL249526   0.302  32.235   6.164
 3817POPC   C1A49527   0.404  32.251   6.464
 3817POPC   D2A49528   0.461  32.245   6.764
 3817POPC   C3A49529   0.429  32.271   7.064
 3817POPC   C4A49530   0.388  32.264   7.364
 3817POPC   C1B49531   0.160  32.167   6.464
 3817POPC   C2B49532   0.146  32.231   6.764
 3817POPC   C3B49533   0.198  32.221   7.064
 3817POPC   C4B49534   0.238  32.265   7.364
 3818POPC   NC349535  17.462  41.514   5.564
 3818POPC   PO449536  17.490  41.561   5.864
 3818POPC   GL149537  17.544  41.529   6.164
 3818POPC   GL249538  17.657  41.463   6.164
 3818POPC   C1A49539  17.507  41.584   6.464
 3818POPC   D2A49540  17.464  41.579   6.764
 3818POPC   C3A49541  17.472  41.567   7.064
 3818POPC   C4A49542  17.520  41.525   7.364
 3818POPC   C1B49543  17.698  41.421   6.464
 3818POPC   C2B49544  17.764  41.428   6.764
 3818POPC   C3B49545  17.741  41.425   7.064
 3818POPC   C4B49546  17.755  41.379   7.364
 3819POPC   NC349547  33.007  13.656   5.564
 3819POPC   PO449548  33.065  13.602   5.864
 3819POPC   GL149549  33.022  13.598   6.164
 3819POPC   GL249550  33.101  13.540   6.164
 3819POPC   C1A49551  33.054  13.638   6.464
 3819POPC   D2A49552  32.996  13.594   6.764
 3819POPC   C3A49553  33.026  13.665   7.064
 3819POPC   C4A49554  33.044  13.654   7.364
 3819POPC   C1B49555  33.139  13.403   6.464
 3819POPC   C2B49556  33.055  13.392   6.764
 3819POPC   C3B49557  33.124  13.376   7.064
 3819POPC   C4B49558  33.098  13.346   7.364
 3820POPC   NC349559  18.305  43.119   5.564
 3820POPC   PO449560  18.327  43.073   5.864
 3820POPC   GL149561  18.299  43.137   6.164
 3820POPC   GL249562  18.113  43.098   6.164
 3820POPC   C1A49563  18.317  43.123   6.464
 3820POPC   D2A49564  18.317  43.137   6.764
 3820POPC   C3A49565  18.324  43.149   7.064
 3820POPC   C4A49566  18.296  43.124   7.364
 3820POPC   C1B49567  17.995  43.070   6.464
 3820POPC   C2B49568  18.064  43.030   6.764
 3820POPC   C3B49569  18.020  43.070   7.064
 3820POPC   C4B49570  18.002  43.097   7.364
 3821POPC   NC349571  19.063   1.232   5.564
 3821POPC   PO449572  19.065   1.207   5.864
 3821POPC   GL149573  19.031   1.187   6.164
 3821POPC   GL249574  19.176   1.211   6.164
 3821POPC   C1A49575  19.109   1.195   6.464
 3821POPC   D2A49576  19.022   1.166   6.764
 3821POPC   C3A49577  19.104   1.221   7.064
 3821POPC   C4A49578  19.070   1.170   7.364
 3821POPC   C1B49579  19.270   1.120   6.464
 3821POPC   C2B49580  19.284   1.123   6.764
 3821POPC   C3B49581  19.320   1.161   7.064
 3821POPC   C4B49582  19.313   1.101   7.364
 3822POPC   NC349583  30.702  38.499   5.564
 3822POPC   PO449584  30.674  38.499   5.864
 3822POPC   GL149585  30.704  38.452   6.164
 3822POPC   GL249586  30.855  38.493   6.164
 3822POPC   C1A49587  30.676  38.489   6.464
 3822POPC   D2A49588  30.686  38.482   6.764
 3822POPC   C3A49589  30.693  38.423   7.064
 3822POPC   C4A49590  30.651  38.478   7.364
 3822POPC   C1B49591  30.954  38.508   6.464
 3822POPC   C2B49592  30.899  38.589   6.764
 3822POPC   C3B49593  30.939  38.532   7.064
 3822POPC   C4B49594  30.931  38.499   7.364
 3823POPC   NC349595   4.301  22.924   5.564
 3823POPC   PO449596   4.348  22.985   5.864
 3823POPC   GL149597   4.337  22.921   6.164
 3823POPC   GL249598   4.431  22.948   6.164
 3823POPC   C1A49599   4.305  22.922   6.464
 3823POPC   D2A49600   4.347  22.895   6.764
 3823POPC   C3A49601   4.345  22.889   7.064
 3823POPC   C4A49602   4.310  22.955   7.364
 3823POPC   C1B49603   4.566  22.837   6.464
 3823POPC   C2B49604   4.602  22.838   6.764
 3823POPC   C3B49605   4.531  22.831   7.064
 3823POPC   C4B49606   4.570  22.844   7.364
 3824POPC   NC349607  27.553  39.987   5.564
 3824POPC   PO449608  27.587  40.047   5.864
 3824POPC   GL149609  27.588  40.042   6.164
 3824POPC   GL249610  27.588  40.110   6.164
 3824POPC   C1A49611  27.574  40.009   6.464
 3824POPC   D2A49612  27.557  40.001   6.764
 3824POPC   C3A49613  27.594  40.017   7.064
 3824POPC   C4A49614  27.605  40.027   7.364
 3824POPC   C1B49615  27.614  40.275   6.464
 3824POPC   C2B49616  27.694  40.232   6.764
 3824POPC   C3B49617  27.685  40.283   7.064
 3824POPC   C4B49618  27.685  40.252   7.364
 3825POPC   NC349619  26.026  31.498   5.564
 3825POPC   PO449620  26.072  31.454   5.864
 3825POPC   GL149621  26.036  31.521   6.164
 3825POPC   GL249622  26.069  31.576   6.164
 3825POPC   C1A49623  26.011  31.466   6.464
 3825POPC   D2A49624  26.051  31.499   6.764
 3825POPC   C3A49625  26.036  31.517   7.064
 3825POPC   C4A49626  25.992  31.492   7.364
 3825POPC   C1B49627  25.988  31.736   6.464
 3825POPC   C2B49628  25.959  31.680   6.764
 3825POPC   C3B49629  25.964  31.745   7.064
 3825POPC   C4B49630  26.018  31.695   7.364
 3826POPC   NC349631  32.268   9.790   5.564
 3826POPC   PO449632  32.272   9.740   5.864
 3826POPC   GL149633  32.267   9.716   6.164
 3826POPC   GL249634  32.240   9.850   6.164
 3826POPC   C1A49635  32.273   9.762   6.464
 3826POPC   D2A49636  32.248   9.714   6.764
 3826POPC   C3A49637  32.283   9.780   7.064
 3826POPC   C4A49638  32.270   9.750   7.364
 3826POPC   C1B49639  32.290  10.039   6.464
 3826POPC   C2B49640  32.304   9.981   6.764
 3826POPC   C3B49641  32.323   9.996   7.064
 3826POPC   C4B49642  32.279   9.967   7.364
 3827POPC   NC349643  32.230  31.485   5.564
 3827POPC   PO449644  32.242  31.509   5.864
 3827POPC   GL149645  32.203  31.443   6.164
 3827POPC   GL249646  32.247  31.356   6.164
 3827POPC   C1A49647  32.249  31.426   6.464
 3827POPC   D2A49648  32.235  31.472   6.764
 3827POPC   C3A49649  32.286  31.478   7.064
 3827POPC   C4A49650  32.234  31.451   7.364
 3827POPC   C1B49651  32.373  31.268   6.464
 3827POPC   C2B49652  32.350  31.258   6.764
 3827POPC   C3B49653  32.382  31.258   7.064
 3827POPC   C4B49654  32.286  31.225   7.364
 3828POPC   NC349655  25.300   4.296   5.564
 3828POPC   PO449656  25.283   4.276   5.864
 3828POPC   GL149657  25.282   4.324   6.164
 3828POPC   GL249658  25.383   4.261   6.164
 3828POPC   C1A49659  25.306   4.363   6.464
 3828POPC   D2A49660  25.292   4.316   6.764
 3828POPC   C3A49661  25.265   4.316   7.064
 3828POPC   C4A49662  25.249   4.334   7.364
 3828POPC   C1B49663  25.548   4.228   6.464
 3828POPC   C2B49664  25.542   4.223   6.764
 3828POPC   C3B49665  25.462   4.302   7.064
 3828POPC   C4B49666  25.529   4.298   7.364
 3829POPC   NC349667  12.822  42.368   5.564
 3829POPC   PO449668  12.806  42.287   5.864
 3829POPC   GL149669  12.842  42.340   6.164
 3829POPC   GL249670  12.878  42.231   6.164
 3829POPC   C1A49671  12.830  42.348   6.464
 3829POPC   D2A49672  12.833  42.315   6.764
 3829POPC   C3A49673  12.882  42.310   7.064
 3829POPC   C4A49674  12.891  42.378   7.364
 3829POPC   C1B49675  12.964  42.131   6.464
 3829POPC   C2B49676  12.965  42.094   6.764
 3829POPC   C3B49677  12.889  42.086   7.064
 3829POPC   C4B49678  12.941  42.122   7.364
 3830POPC   NC349679  28.361  21.341   5.564
 3830POPC   PO449680  28.331  21.386   5.864
 3830POPC   GL149681  28.342  21.381   6.164
 3830POPC   GL249682  28.375  21.275   6.164
 3830POPC   C1A49683  28.341  21.431   6.464
 3830POPC   D2A49684  28.328  21.340   6.764
 3830POPC   C3A49685  28.393  21.376   7.064
 3830POPC   C4A49686  28.339  21.388   7.364
 3830POPC   C1B49687  28.432  21.197   6.464
 3830POPC   C2B49688  28.444  21.154   6.764
 3830POPC   C3B49689  28.497  21.107   7.064
 3830POPC   C4B49690  28.478  21.191   7.364
 3831POPC   NC349691  30.693  33.069   5.564
 3831POPC   PO449692  30.674  33.015   5.864
 3831POPC   GL149693  30.681  33.031   6.164
 3831POPC   GL249694  30.833  32.975   6.164
 3831POPC   C1A49695  30.741  33.070   6.464
 3831POPC   D2A49696  30.739  33.058   6.764
 3831POPC   C3A49697  30.741  33.056   7.064
 3831POPC   C4A49698  30.659  33.053   7.364
 3831POPC   C1B49699  30.962  32.971   6.464
 3831POPC   C2B49700  30.905  32.898   6.764
 3831POPC   C3B49701  30.920  32.936   7.064
 3831POPC   C4B49702  30.978  32.948   7.364
 3832POPC   NC349703  38.479  27.579   5.564
 3832POPC   PO449704  38.488  27.589   5.864
 3832POPC   GL149705  38.412  27.594   6.164
 3832POPC   GL249706  38.345  27.675   6.164
 3832POPC   C1A49707  38.470  27.550   6.464
 3832POPC   D2A49708  38.433  27.624   6.764
 3832POPC   C3A49709  38.470  27.613   7.064
 3832POPC   C4A49710  38.492  27.632   7.364
 3832POPC   C1B49711  38.321  27.814   6.464
 3832POPC   C2B49712  38.285  27.798   6.764
 3832POPC   C3B49713  38.260  27.807   7.064
 3832POPC   C4B49714  38.271  27.800   7.364
 3833POPC   NC349715  39.961  42.367   5.564
 3833POPC   PO449716  39.961  42.300   5.864
 3833POPC   GL149717  40.043  42.356   6.164
 3833POPC   GL249718  40.044  42.442   6.164
 3833POPC   C1A49719  39.969  42.315   6.464
 3833POPC   D2A49720  40.006  42.368   6.764
 3833POPC   C3A49721  39.980  42.297   7.064
 3833POPC   C4A49722  40.001  42.330   7.364
 3833POPC   C1B49723  40.148  42.540   6.464
 3833POPC   C2B49724  40.210  42.491   6.764
 3833POPC   C3B49725  40.133  42.499   7.064
 3833POPC   C4B49726  40.185  42.533   7.364
 3834POPC   NC349727  22.949  11.342   5.564
 3834POPC   PO449728  22.902  11.343   5.864
 3834POPC   GL149729  22.896  11.319   6.164
 3834POPC   GL249730  23.031  11.273   6.164
 3834POPC   C1A49731  22.935  11.265   6.464
 3834POPC   D2A49732  22.901  11.342   6.764
 3834POPC   C3A49733  22.936  11.307   7.064
 3834POPC   C4A49734  22.972  11.268   7.364
 3834POPC   C1B49735  23.168  11.242   6.464
 3834POPC   C2B49736  23.213  11.224   6.764
 3834POPC   C3B49737  23.148  11.274   7.064
 3834POPC   C4B49738  23.217  11.288   7.364
 3835POPC   NC349739  11.327  26.847   5.564
 3835POPC   PO449740  11.309  26.849   5.864
 3835POPC   GL149741  11.275  26.779   6.164
 3835POPC   GL249742  11.431  26.821   6.164
 3835POPC   C1A49743  11.300  26.835   6.464
 3835POPC   D2A49744  11.275  26.773   6.764
 3835POPC   C3A49745  11.299  26.804   7.064
 3835POPC   C4A49746  11.257  26.817   7.364
 3835POPC   C1B49747  11.488  26.859   6.464
 3835POPC   C2B49748  11.576  26.863   6.764
 3835POPC   C3B49749  11.511  26.855   7.064
 3835POPC   C4B49750  11.551  26.872   7.364
 3836POPC   NC349751   0.436  43.885   5.564
 3836POPC   PO449752   0.485  43.877   5.864
 3836POPC   GL149753   0.468  43.918   6.164
 3836POPC   GL249754   0.543  43.755   6.164
 3836POPC   C1A49755   0.419  43.862   6.464
 3836POPC   D2A49756   0.414  43.877   6.764
 3836POPC   C3A49757   0.454  43.929   7.064
 3836POPC   C4A49758   0.388  43.921   7.364
 3836POPC   C1B49759   0.609  43.654   6.464
 3836POPC   C2B49760   0.572  43.667   6.764
 3836POPC   C3B49761   0.645  43.660   7.064
 3836POPC   C4B49762   0.608  43.664   7.364
 3837POPC   NC349763  16.693  40.036   5.564
 3837POPC   PO449764  16.747  40.005   5.864
 3837POPC   GL149765  16.780  40.011   6.164
 3837POPC   GL249766  16.612  40.012   6.164
 3837POPC   C1A49767  16.685  40.032   6.464
 3837POPC   D2A49768  16.739  39.990   6.764
 3837POPC   C3A49769  16.684  39.958   7.064
 3837POPC   C4A49770  16.718  39.975   7.364
 3837POPC   C1B49771  16.463  39.957   6.464
 3837POPC   C2B49772  16.461  39.941   6.764
 3837POPC   C3B49773  16.507  39.990   7.064
 3837POPC   C4B49774  16.521  40.002   7.364
 3838POPC   NC349775  26.785  19.867   5.564
 3838POPC   PO449776  26.862  19.854   5.864
 3838POPC   GL149777  26.821  19.809   6.164
 3838POPC   GL249778  26.907  19.708   6.164
 3838POPC   C1A49779  26.779  19.826   6.464
 3838POPC   D2A49780  26.837  19.786   6.764
 3838POPC   C3A49781  26.821  19.853   7.064
 3838POPC   C4A49782  26.815  19.856   7.364
 3838POPC   C1B49783  26.999  19.657   6.464
 3838POPC   C2B49784  26.942  19.676   6.764
 3838POPC   C3B49785  26.997  19.649   7.064
 3838POPC   C4B49786  26.958  19.639   7.364
 3839POPC   NC349787  42.383  13.641   5.564
 3839POPC   PO449788  42.370  13.623   5.864
 3839POPC   GL149789  42.319  13.640   6.164
 3839POPC   GL249790  42.165  13.612   6.164
 3839POPC   C1A49791  42.346  13.614   6.464
 3839POPC   D2A49792  42.305  13.612   6.764
 3839POPC   C3A49793  42.372  13.625   7.064
 3839POPC   C4A49794  42.286  13.640   7.364
 3839POPC   C1B49795  42.057  13.690   6.464
 3839POPC   C2B49796  42.062  13.625   6.764
 3839POPC   C3B49797  42.065  13.660   7.064
 3839POPC   C4B49798  42.042  13.621   7.364
 3840POPC   NC349799  27.598   7.463   5.564
 3840POPC   PO449800  27.636   7.404   5.864
 3840POPC   GL149801  27.545   7.454   6.164
 3840POPC   GL249802  27.458   7.387   6.164
 3840POPC   C1A49803  27.636   7.386   6.464
 3840POPC   D2A49804  27.627   7.445   6.764
 3840POPC   C3A49805  27.612   7.434   7.064
 3840POPC   C4A49806  27.576   7.382   7.364
 3840POPC   C1B49807  27.373   7.456   6.464
 3840POPC   C2B49808  27.388   7.474   6.764
 3840POPC   C3B49809  27.325   7.473   7.064
 3840POPC   C4B49810  27.391   7.409   7.364
 3841POPC   NC349811  33.050  39.232   5.564
 3841POPC   PO449812  33.039  39.192   5.864
 3841POPC   GL149813  32.992  39.234   6.164
 3841POPC   GL249814  33.070  39.350   6.164
 3841POPC   C1A49815  33.007  39.219   6.464
 3841POPC   D2A49816  33.047  39.194   6.764
 3841POPC   C3A49817  33.033  39.281   7.064
 3841POPC   C4A49818  32.981  39.247   7.364
 3841POPC   C1B49819  33.063  39.493   6.464
 3841POPC   C2B49820  33.078  39.460   6.764
 3841POPC   C3B49821  33.011  39.523   7.064
 3841POPC   C4B49822  33.045  39.527   7.364
 3842POPC   NC349823   6.653  40.773   5.564
 3842POPC   PO449824   6.626  40.773   5.864
 3842POPC   GL149825   6.650  40.794   6.164
 3842POPC   GL249826   6.492  40.817   6.164
 3842POPC   C1A49827   6.625  40.801   6.464
 3842POPC   D2A49828   6.620  40.786   6.764
 3842POPC   C3A49829   6.624  40.741   7.064
 3842POPC   C4A49830   6.678  40.818   7.364
 3842POPC   C1B49831   6.418  40.856   6.464
 3842POPC   C2B49832   6.398  40.888   6.764
 3842POPC   C3B49833   6.460  40.892   7.064
 3842POPC   C4B49834   6.371  40.851   7.364
 3843POPC   NC349835  36.093  41.597   5.564
 3843POPC   PO449836  36.097  41.602   5.864
 3843POPC   GL149837  36.117  41.602   6.164
 3843POPC   GL249838  36.132  41.449   6.164
 3843POPC   C1A49839  36.095  41.604   6.464
 3843POPC   D2A49840  36.111  41.543   6.764
 3843POPC   C3A49841  36.157  41.540   7.064
 3843POPC   C4A49842  36.167  41.522   7.364
 3843POPC   C1B49843  36.216  41.332   6.464
 3843POPC   C2B49844  36.177  41.359   6.764
 3843POPC   C3B49845  36.159  41.334   7.064
 3843POPC   C4B49846  36.213  41.279   7.364
 3844POPC   NC349847  19.814  13.615   5.564
 3844POPC   PO449848  19.810  13.602   5.864
 3844POPC   GL149849  19.862  13.579   6.164
 3844POPC   GL249850  19.966  13.583   6.164
 3844POPC   C1A49851  19.812  13.644   6.464
 3844POPC   D2A49852  19.875  13.637   6.764
 3844POPC   C3A49853  19.812  13.671   7.064
 3844POPC   C4A49854  19.824  13.582   7.364
 3844POPC   C1B49855  20.036  13.512   6.464
 3844POPC   C2B49856  20.078  13.561   6.764
 3844POPC   C3B49857  20.108  13.524   7.064
 3844POPC   C4B49858  20.077  13.579   7.364
 3845POPC   NC349859  35.398   8.158   5.564
 3845POPC   PO449860  35.315   8.234   5.864
 3845POPC   GL149861  35.366   8.210   6.164
 3845POPC   GL249862  35.198   8.150   6.164
 3845POPC   C1A49863  35.401   8.218   6.464
 3845POPC   D2A49864  35.361   8.164   6.764
 3845POPC   C3A49865  35.318   8.211   7.064
 3845POPC   C4A49866  35.334   8.237   7.364
 3845POPC   C1B49867  35.064   8.202   6.464
 3845POPC   C2B49868  35.077   8.196   6.764
 3845POPC   C3B49869  35.128   8.129   7.064
 3845POPC   C4B49870  35.057   8.148   7.364
 3846POPC   NC349871   8.989  29.928   5.564
 3846POPC   PO449872   9.010  29.968   5.864
 3846POPC   GL149873   9.021  29.903   6.164
 3846POPC   GL249874   9.063  29.825   6.164
 3846POPC   C1A49875   8.987  29.915   6.464
 3846POPC   D2A49876   8.985  29.940   6.764
 3846POPC   C3A49877   8.985  29.901   7.064
 3846POPC   C4A49878   8.925  29.935   7.364
 3846POPC   C1B49879   9.114  29.690   6.464
 3846POPC   C2B49880   9.139  29.663   6.764
 3846POPC   C3B49881   9.128  29.680   7.064
 3846POPC   C4B49882   9.101  29.719   7.364
 3847POPC   NC349883  22.159  14.428   5.564
 3847POPC   PO449884  22.116  14.362   5.864
 3847POPC   GL149885  22.121  14.427   6.164
 3847POPC   GL249886  22.081  14.313   6.164
 3847POPC   C1A49887  22.136  14.377   6.464
 3847POPC   D2A49888  22.185  14.436   6.764
 3847POPC   C3A49889  22.179  14.408   7.064
 3847POPC   C4A49890  22.145  14.417   7.364
 3847POPC   C1B49891  22.063  14.144   6.464
 3847POPC   C2B49892  22.085  14.198   6.764
 3847POPC   C3B49893  22.097  14.157   7.064
 3847POPC   C4B49894  22.016  14.210   7.364
 3848POPC   NC349895  21.395   6.608   5.564
 3848POPC   PO449896  21.425   6.675   5.864
 3848POPC   GL149897  21.394   6.687   6.164
 3848POPC   GL249898  21.522   6.613   6.164
 3848POPC   C1A49899  21.417   6.645   6.464
 3848POPC   D2A49900  21.404   6.675   6.764
 3848POPC   C3A49901  21.344   6.676   7.064
 3848POPC   C4A49902  21.357   6.623   7.364
 3848POPC   C1B49903  21.625   6.534   6.464
 3848POPC   C2B49904  21.531   6.452   6.764
 3848POPC   C3B49905  21.584   6.479   7.064
 3848POPC   C4B49906  21.611   6.523   7.364
 3849POPC   NC349907   9.009  37.659   5.564
 3849POPC   PO449908   8.967  37.705   5.864
 3849POPC   GL149909   8.996  37.707   6.164
 3849POPC   GL249910   8.944  37.763   6.164
 3849POPC   C1A49911   8.930  37.666   6.464
 3849POPC   D2A49912   8.942  37.677   6.764
 3849POPC   C3A49913   8.936  37.700   7.064
 3849POPC   C4A49914   8.935  37.694   7.364
 3849POPC   C1B49915   8.914  37.886   6.464
 3849POPC   C2B49916   8.895  37.963   6.764
 3849POPC   C3B49917   8.929  37.925   7.064
 3849POPC   C4B49918   8.897  37.943   7.364
 3850POPC   NC349919  19.046   2.787   5.564
 3850POPC   PO449920  19.043   2.757   5.864
 3850POPC   GL149921  19.034   2.746   6.164
 3850POPC   GL249922  18.915   2.800   6.164
 3850POPC   C1A49923  19.049   2.803   6.464
 3850POPC   D2A49924  19.081   2.782   6.764
 3850POPC   C3A49925  19.096   2.763   7.064
 3850POPC   C4A49926  19.085   2.786   7.364
 3850POPC   C1B49927  18.806   2.767   6.464
 3850POPC   C2B49928  18.795   2.732   6.764
 3850POPC   C3B49929  18.791   2.757   7.064
 3850POPC   C4B49930  18.779   2.728   7.364
 3851POPC   NC349931  14.418   0.406   5.564
 3851POPC   PO449932  14.385   0.484   5.864
 3851POPC   GL149933  14.390   0.432   6.164
 3851POPC   GL249934  14.485   0.375   6.164
 3851POPC   C1A49935  14.427   0.408   6.464
 3851POPC   D2A49936  14.410   0.434   6.764
 3851POPC   C3A49937  14.392   0.431   7.064
 3851POPC   C4A49938  14.369   0.415   7.364
 3851POPC   C1B49939  14.667   0.316   6.464
 3851POPC   C2B49940  14.684   0.351   6.764
 3851POPC   C3B49941  14.638   0.377   7.064
 3851POPC   C4B49942  14.651   0.360   7.364
 3852POPC   NC349943   1.224   4.337   5.564
 3852POPC   PO449944   1.170   4.339   5.864
 3852POPC   GL149945   1.236   4.289   6.164
 3852POPC   GL249946   1.070   4.389   6.164
 3852POPC   C1A49947   1.205   4.339   6.464
 3852POPC   D2A49948   1.201   4.272   6.764
 3852POPC   C3A49949   1.223   4.338   7.064
 3852POPC   C4A49950   1.252   4.326   7.364
 3852POPC   C1B49951   0.994   4.357   6.464
 3852POPC   C2B49952   0.936   4.359   6.764
 3852POPC   C3B49953   0.959   4.431   7.064
 3852POPC   C4B49954   1.021   4.416   7.364
 3853POPC   NC349955  44.655  24.443   5.564
 3853POPC   PO449956  44.703  24.469   5.864
 3853POPC   GL149957  44.709  24.454   6.164
 3853POPC   GL249958  44.501  24.423   6.164
 3853POPC   C1A49959  44.710  24.475   6.464
 3853POPC   D2A49960  44.706  24.478   6.764
 3853POPC   C3A49961  44.658  24.537   7.064
 3853POPC   C4A49962  44.702  24.491   7.364
 3853POPC   C1B49963  44.428  24.335   6.464
 3853POPC   C2B49964  44.428  24.373   6.764
 3853POPC   C3B49965  44.436  24.332   7.064
 3853POPC   C4B49966  44.478  24.399   7.364
 3854POPC   NC349967  13.579  32.283   5.564
 3854POPC   PO449968  13.671  32.231   5.864
 3854POPC   GL149969  13.594  32.216   6.164
 3854POPC   GL249970  13.656  32.328   6.164
 3854POPC   C1A49971  13.595  32.202   6.464
 3854POPC   D2A49972  13.652  32.282   6.764
 3854POPC   C3A49973  13.634  32.234   7.064
 3854POPC   C4A49974  13.664  32.294   7.364
 3854POPC   C1B49975  13.650  32.453   6.464
 3854POPC   C2B49976  13.646  32.456   6.764
 3854POPC   C3B49977  13.677  32.532   7.064
 3854POPC   C4B49978  13.718  32.509   7.364
 3855POPC   NC349979   2.035   2.802   5.564
 3855POPC   PO449980   2.013   2.740   5.864
 3855POPC   GL149981   2.000   2.716   6.164
 3855POPC   GL249982   1.830   2.833   6.164
 3855POPC   C1A49983   1.964   2.725   6.464
 3855POPC   D2A49984   1.966   2.743   6.764
 3855POPC   C3A49985   1.946   2.805   7.064
 3855POPC   C4A49986   2.007   2.807   7.364
 3855POPC   C1B49987   1.731   2.833   6.464
 3855POPC   C2B49988   1.713   2.863   6.764
 3855POPC   C3B49989   1.738   2.875   7.064
 3855POPC   C4B49990   1.789   2.821   7.364
 3856POPC   NC349991   7.450  40.023   5.564
 3856POPC   PO449992   7.405  40.005   5.864
 3856POPC   GL149993   7.401  39.968   6.164
 3856POPC   GL249994   7.267  40.050   6.164
 3856POPC   C1A49995   7.378  39.958   6.464
 3856POPC   D2A49996   7.430  39.995   6.764
 3856POPC   C3A49997   7.414  40.003   7.064
 3856POPC   C4A49998   7.380  39.957   7.364
 3856POPC   C1B49999   7.194  39.996   6.464
 3856POPC   C2B50000   7.190  40.040   6.764
 3856POPC   C3B50001   7.128  39.993   7.064
 3856POPC   C4B50002   7.128  40.039   7.364
 3857POPC   NC350003   0.454  26.795   5.564
 3857POPC   PO450004   0.468  26.770   5.864
 3857POPC   GL150005   0.396  26.782   6.164
 3857POPC   GL250006   0.547  26.840   6.164
 3857POPC   C1A50007   0.450  26.769   6.464
 3857POPC   D2A50008   0.424  26.823   6.764
 3857POPC   C3A50009   0.409  26.853   7.064
 3857POPC   C4A50010   0.428  26.821   7.364
 3857POPC   C1B50011   0.695  26.940   6.464
 3857POPC   C2B50012   0.655  26.912   6.764
 3857POPC   C3B50013   0.693  26.977   7.064
 3857POPC   C4B50014   0.706  26.917   7.364
 3858POPC   NC350015  43.876  28.335   5.564
 3858POPC   PO450016  43.902  28.334   5.864
 3858POPC   GL150017  43.883  28.363   6.164
 3858POPC   GL250018  43.753  28.362   6.164
 3858POPC   C1A50019  43.928  28.330   6.464
 3858POPC   D2A50020  43.846  28.364   6.764
 3858POPC   C3A50021  43.889  28.376   7.064
 3858POPC   C4A50022  43.843  28.398   7.364
 3858POPC   C1B50023  43.652  28.313   6.464
 3858POPC   C2B50024  43.649  28.305   6.764
 3858POPC   C3B50025  43.625  28.345   7.064
 3858POPC   C4B50026  43.662  28.292   7.364
 3859POPC   NC350027  38.487  33.005   5.564
 3859POPC   PO450028  38.431  33.071   5.864
 3859POPC   GL150029  38.426  33.046   6.164
 3859POPC   GL250030  38.446  32.925   6.164
 3859POPC   C1A50031  38.431  33.011   6.464
 3859POPC   D2A50032  38.483  33.025   6.764
 3859POPC   C3A50033  38.493  33.039   7.064
 3859POPC   C4A50034  38.431  33.009   7.364
 3859POPC   C1B50035  38.393  32.827   6.464
 3859POPC   C2B50036  38.340  32.764   6.764
 3859POPC   C3B50037  38.370  32.799   7.064
 3859POPC   C4B50038  38.331  32.804   7.364
 3860POPC   NC350039  11.326  29.153   5.564
 3860POPC   PO450040  11.321  29.165   5.864
 3860POPC   GL150041  11.310  29.191   6.164
 3860POPC   GL250042  11.378  29.148   6.164
 3860POPC   C1A50043  11.297  29.143   6.464
 3860POPC   D2A50044  11.313  29.139   6.764
 3860POPC   C3A50045  11.342  29.141   7.064
 3860POPC   C4A50046  11.275  29.131   7.364
 3860POPC   C1B50047  11.566  29.086   6.464
 3860POPC   C2B50048  11.580  29.085   6.764
 3860POPC   C3B50049  11.560  29.015   7.064
 3860POPC   C4B50050  11.572  29.061   7.364
 3861POPC   NC350051  35.327   3.501   5.564
 3861POPC   PO450052  35.398   3.515   5.864
 3861POPC   GL150053  35.342   3.513   6.164
 3861POPC   GL250054  35.387   3.434   6.164
 3861POPC   C1A50055  35.322   3.515   6.464
 3861POPC   D2A50056  35.358   3.517   6.764
 3861POPC   C3A50057  35.309   3.569   7.064
 3861POPC   C4A50058  35.302   3.498   7.364
 3861POPC   C1B50059  35.416   3.319   6.464
 3861POPC   C2B50060  35.422   3.277   6.764
 3861POPC   C3B50061  35.423   3.295   7.064
 3861POPC   C4B50062  35.456   3.268   7.364
 3862POPC   NC350063  25.231  25.289   5.564
 3862POPC   PO450064  25.254  25.227   5.864
 3862POPC   GL150065  25.240  25.221   6.164
 3862POPC   GL250066  25.352  25.146   6.164
 3862POPC   C1A50067  25.221  25.302   6.464
 3862POPC   D2A50068  25.253  25.219   6.764
 3862POPC   C3A50069  25.284  25.312   7.064
 3862POPC   C4A50070  25.239  25.252   7.364
 3862POPC   C1B50071  25.426  25.046   6.464
 3862POPC   C2B50072  25.404  25.123   6.764
 3862POPC   C3B50073  25.478  25.084   7.064
 3862POPC   C4B50074  25.412  25.068   7.364
 3863POPC   NC350075  19.074  43.145   5.564
 3863POPC   PO450076  19.020  43.154   5.864
 3863POPC   GL150077  19.096  43.113   6.164
 3863POPC   GL250078  18.941  43.170   6.164
 3863POPC   C1A50079  19.086  43.090   6.464
 3863POPC   D2A50080  19.072  43.078   6.764
 3863POPC   C3A50081  19.101  43.153   7.064
 3863POPC   C4A50082  19.058  43.080   7.364
 3863POPC   C1B50083  18.876  43.252   6.464
 3863POPC   C2B50084  18.895  43.240   6.764
 3863POPC   C3B50085  18.847  43.251   7.064
 3863POPC   C4B50086  18.822  43.250   7.364
 3864POPC   NC350087   1.960   7.375   5.564
 3864POPC   PO450088   2.032   7.452   5.864
 3864POPC   GL150089   1.978   7.429   6.164
 3864POPC   GL250090   1.867   7.395   6.164
 3864POPC   C1A50091   1.980   7.464   6.464
 3864POPC   D2A50092   1.960   7.450   6.764
 3864POPC   C3A50093   1.983   7.429   7.064
 3864POPC   C4A50094   1.961   7.437   7.364
 3864POPC   C1B50095   1.728   7.474   6.464
 3864POPC   C2B50096   1.704   7.466   6.764
 3864POPC   C3B50097   1.789   7.467   7.064
 3864POPC   C4B50098   1.726   7.481   7.364
 3865POPC   NC350099   0.427   9.001   5.564
 3865POPC   PO450100   0.425   8.951   5.864
 3865POPC   GL150101   0.399   8.947   6.164
 3865POPC   GL250102   0.470   9.087   6.164
 3865POPC   C1A50103   0.415   8.958   6.464
 3865POPC   D2A50104   0.448   8.939   6.764
 3865POPC   C3A50105   0.459   8.936   7.064
 3865POPC   C4A50106   0.394   8.933   7.364
 3865POPC   C1B50107   0.576   9.200   6.464
 3865POPC   C2B50108   0.613   9.210   6.764
 3865POPC   C3B50109   0.568   9.206   7.064
 3865POPC   C4B50110   0.523   9.166   7.364
 3866POPC   NC350111  18.275  25.261   5.564
 3866POPC   PO450112  18.330  25.255   5.864
 3866POPC   GL150113  18.309  25.277   6.164
 3866POPC   GL250114  18.297  25.419   6.164
 3866POPC   C1A50115  18.327  25.294   6.464
 3866POPC   D2A50116  18.320  25.289   6.764
 3866POPC   C3A50117  18.279  25.295   7.064
 3866POPC   C4A50118  18.248  25.271   7.364
 3866POPC   C1B50119  18.261  25.544   6.464
 3866POPC   C2B50120  18.275  25.497   6.764
 3866POPC   C3B50121  18.258  25.544   7.064
 3866POPC   C4B50122  18.213  25.545   7.364
 3867POPC   NC350123  38.497   8.220   5.564
 3867POPC   PO450124  38.491   8.226   5.864
 3867POPC   GL150125  38.503   8.154   6.164
 3867POPC   GL250126  38.495   8.062   6.164
 3867POPC   C1A50127  38.444   8.236   6.464
 3867POPC   D2A50128  38.444   8.207   6.764
 3867POPC   C3A50129  38.420   8.215   7.064
 3867POPC   C4A50130  38.495   8.245   7.364
 3867POPC   C1B50131  38.588   7.938   6.464
 3867POPC   C2B50132  38.620   7.941   6.764
 3867POPC   C3B50133  38.609   8.027   7.064
 3867POPC   C4B50134  38.544   7.962   7.364
 3868POPC   NC350135  40.775   8.939   5.564
 3868POPC   PO450136  40.766   8.977   5.864
 3868POPC   GL150137  40.819   9.012   6.164
 3868POPC   GL250138  40.696   9.105   6.164
 3868POPC   C1A50139  40.807   8.975   6.464
 3868POPC   D2A50140  40.822   8.932   6.764
 3868POPC   C3A50141  40.830   9.009   7.064
 3868POPC   C4A50142  40.739   8.965   7.364
 3868POPC   C1B50143  40.741   9.240   6.464
 3868POPC   C2B50144  40.675   9.178   6.764
 3868POPC   C3B50145  40.666   9.261   7.064
 3868POPC   C4B50146  40.719   9.178   7.364
 3869POPC   NC350147  29.138   5.891   5.564
 3869POPC   PO450148  29.135   5.905   5.864
 3869POPC   GL150149  29.152   5.912   6.164
 3869POPC   GL250150  29.268   5.824   6.164
 3869POPC   C1A50151  29.153   5.863   6.464
 3869POPC   D2A50152  29.103   5.820   6.764
 3869POPC   C3A50153  29.157   5.842   7.064
 3869POPC   C4A50154  29.138   5.887   7.364
 3869POPC   C1B50155  29.269   5.735   6.464
 3869POPC   C2B50156  29.287   5.714   6.764
 3869POPC   C3B50157  29.339   5.720   7.064
 3869POPC   C4B50158  29.335   5.639   7.364
 3870POPC   NC350159   5.869  33.775   5.564
 3870POPC   PO450160   5.830  33.768   5.864
 3870POPC   GL150161   5.834  33.756   6.164
 3870POPC   GL250162   5.741  33.876   6.164
 3870POPC   C1A50163   5.865  33.826   6.464
 3870POPC   D2A50164   5.860  33.824   6.764
 3870POPC   C3A50165   5.827  33.845   7.064
 3870POPC   C4A50166   5.889  33.782   7.364
 3870POPC   C1B50167   5.726  34.027   6.464
 3870POPC   C2B50168   5.700  33.992   6.764
 3870POPC   C3B50169   5.661  33.946   7.064
 3870POPC   C4B50170   5.742  33.967   7.364
 3871POPC   NC350171  44.709  23.722   5.564
 3871POPC   PO450172  44.659  23.699   5.864
 3871POPC   GL150173  44.649  23.695   6.164
 3871POPC   GL250174  44.787  23.761   6.164
 3871POPC   C1A50175  44.675  23.679   6.464
 3871POPC   D2A50176  44.633  23.745   6.764
 3871POPC   C3A50177  44.614  23.700   7.064
 3871POPC   C4A50178  44.634  23.745   7.364
 3871POPC   C1B50179  44.832  23.895   6.464
 3871POPC   C2B50180  44.792  23.935   6.764
 3871POPC   C3B50181  44.867  23.947   7.064
 3871POPC   C4B50182  44.862  23.893   7.364
 3872POPC   NC350183  43.880  11.272   5.564
 3872POPC   PO450184  43.859  11.302   5.864
 3872POPC   GL150185  43.902  11.296   6.164
 3872POPC   GL250186  43.906  11.219   6.164
 3872POPC   C1A50187  43.912  11.295   6.464
 3872POPC   D2A50188  43.884  11.316   6.764
 3872POPC   C3A50189  43.851  11.288   7.064
 3872POPC   C4A50190  43.886  11.265   7.364
 3872POPC   C1B50191  43.991  11.024   6.464
 3872POPC   C2B50192  43.932  11.019   6.764
 3872POPC   C3B50193  43.989  11.015   7.064
 3872POPC   C4B50194  43.955  11.058   7.364
 3873POPC   NC350195  29.133  35.391   5.564
 3873POPC   PO450196  29.166  35.356   5.864
 3873POPC   GL150197  29.110  35.354   6.164
 3873POPC   GL250198  29.221  35.433   6.164
 3873POPC   C1A50199  29.123  35.326   6.464
 3873POPC   D2A50200  29.172  35.308   6.764
 3873POPC   C3A50201  29.177  35.380   7.064
 3873POPC   C4A50202  29.141  35.352   7.364
 3873POPC   C1B50203  29.327  35.522   6.464
 3873POPC   C2B50204  29.313  35.459   6.764
 3873POPC   C3B50205  29.371  35.493   7.064
 3873POPC   C4B50206  29.391  35.517   7.364
 3874POPC   NC350207  19.864   8.194   5.564
 3874POPC   PO450208  19.809   8.246   5.864
 3874POPC   GL150209  19.867   8.229   6.164
 3874POPC   GL250210  19.767   8.184   6.164
 3874POPC   C1A50211  19.864   8.221   6.464
 3874POPC   D2A50212  19.793   8.147   6.764
 3874POPC   C3A50213  19.831   8.218   7.064
 3874POPC   C4A50214  19.850   8.237   7.364
 3874POPC   C1B50215  19.571   8.124   6.464
 3874POPC   C2B50216  19.619   8.110   6.764
 3874POPC   C3B50217  19.581   8.072   7.064
 3874POPC   C4B50218  19.627   8.060   7.364
 3875POPC   NC350219  33.804  19.090   5.564
 3875POPC   PO450220  33.830  19.038   5.864
 3875POPC   GL150221  33.794  19.057   6.164
 3875POPC   GL250222  33.775  18.996   6.164
 3875POPC   C1A50223  33.761  19.036   6.464
 3875POPC   D2A50224  33.784  19.015   6.764
 3875POPC   C3A50225  33.838  19.080   7.064
 3875POPC   C4A50226  33.841  19.037   7.364
 3875POPC   C1B50227  33.615  18.889   6.464
 3875POPC   C2B50228  33.614  18.892   6.764
 3875POPC   C3B50229  33.618  18.810   7.064
 3875POPC   C4B50230  33.615  18.825   7.364
 3876POPC   NC350231   7.380  41.527   5.564
 3876POPC   PO450232   7.385  41.598   5.864
 3876POPC   GL150233   7.417  41.608   6.164
 3876POPC   GL250234   7.494  41.673   6.164
 3876POPC   C1A50235   7.442  41.526   6.464
 3876POPC   D2A50236   7.430  41.525   6.764
 3876POPC   C3A50237   7.431  41.602   7.064
 3876POPC   C4A50238   7.381  41.512   7.364
 3876POPC   C1B50239   7.541  41.694   6.464
 3876POPC   C2B50240   7.636  41.700   6.764
 3876POPC   C3B50241   7.638  41.720   7.064
 3876POPC   C4B50242   7.577  41.729   7.364
 3877POPC   NC350243  32.213  41.597   5.564
 3877POPC   PO450244  32.268  41.577   5.864
 3877POPC   GL150245  32.273  41.581   6.164
 3877POPC   GL250246  32.231  41.385   6.164
 3877POPC   C1A50247  32.270  41.516   6.464
 3877POPC   D2A50248  32.260  41.516   6.764
 3877POPC   C3A50249  32.257  41.511   7.064
 3877POPC   C4A50250  32.265  41.529   7.364
 3877POPC   C1B50251  32.189  41.271   6.464
 3877POPC   C2B50252  32.208  41.310   6.764
 3877POPC   C3B50253  32.234  41.273   7.064
 3877POPC   C4B50254  32.216  41.310   7.364
 3878POPC   NC350255  10.531  15.983   5.564
 3878POPC   PO450256  10.513  15.935   5.864
 3878POPC   GL150257  10.500  15.911   6.164
 3878POPC   GL250258  10.393  15.933   6.164
 3878POPC   C1A50259  10.510  15.937   6.464
 3878POPC   D2A50260  10.551  15.932   6.764
 3878POPC   C3A50261  10.499  15.983   7.064
 3878POPC   C4A50262  10.478  15.998   7.364
 3878POPC   C1B50263  10.256  15.886   6.464
 3878POPC   C2B50264  10.261  15.892   6.764
 3878POPC   C3B50265  10.266  15.895   7.064
 3878POPC   C4B50266  10.239  15.891   7.364
 3879POPC   NC350267   0.443  16.743   5.564
 3879POPC   PO450268   0.401  16.716   5.864
 3879POPC   GL150269   0.457  16.706   6.164
 3879POPC   GL250270   0.367  16.817   6.164
 3879POPC   C1A50271   0.417  16.768   6.464
 3879POPC   D2A50272   0.392  16.777   6.764
 3879POPC   C3A50273   0.406  16.712   7.064
 3879POPC   C4A50274   0.465  16.725   7.364
 3879POPC   C1B50275   0.224  16.920   6.464
 3879POPC   C2B50276   0.271  16.910   6.764
 3879POPC   C3B50277   0.283  16.916   7.064
 3879POPC   C4B50278   0.288  16.938   7.364
 3880POPC   NC350279  18.255  13.600   5.564
 3880POPC   PO450280  18.314  13.591   5.864
 3880POPC   GL150281  18.330  13.655   6.164
 3880POPC   GL250282  18.223  13.721   6.164
 3880POPC   C1A50283  18.282  13.583   6.464
 3880POPC   D2A50284  18.251  13.642   6.764
 3880POPC   C3A50285  18.249  13.666   7.064
 3880POPC   C4A50286  18.305  13.668   7.364
 3880POPC   C1B50287  18.140  13.790   6.464
 3880POPC   C2B50288  18.120  13.884   6.764
 3880POPC   C3B50289  18.128  13.848   7.064
 3880POPC   C4B50290  18.190  13.805   7.364
 3881POPC   NC350291  39.246   2.810   5.564
 3881POPC   PO450292  39.273   2.729   5.864
 3881POPC   GL150293  39.260   2.749   6.164
 3881POPC   GL250294  39.203   2.874   6.164
 3881POPC   C1A50295  39.201   2.718   6.464
 3881POPC   D2A50296  39.267   2.795   6.764
 3881POPC   C3A50297  39.206   2.763   7.064
 3881POPC   C4A50298  39.261   2.774   7.364
 3881POPC   C1B50299  39.074   2.934   6.464
 3881POPC   C2B50300  39.106   2.950   6.764
 3881POPC   C3B50301  39.070   2.929   7.064
 3881POPC   C4B50302  39.121   2.951   7.364
 3882POPC   NC350303  22.178  36.169   5.564
 3882POPC   PO450304  22.189  36.170   5.864
 3882POPC   GL150305  22.117  36.099   6.164
 3882POPC   GL250306  22.321  36.134   6.164
 3882POPC   C1A50307  22.169  36.090   6.464
 3882POPC   D2A50308  22.136  36.138   6.764
 3882POPC   C3A50309  22.155  36.116   7.064
 3882POPC   C4A50310  22.180  36.167   7.364
 3882POPC   C1B50311  22.412  36.056   6.464
 3882POPC   C2B50312  22.384  36.043   6.764
 3882POPC   C3B50313  22.451  36.107   7.064
 3882POPC   C4B50314  22.403  36.100   7.364
 3883POPC   NC350315  28.381  12.062   5.564
 3883POPC   PO450316  28.346  12.046   5.864
 3883POPC   GL150317  28.382  12.108   6.164
 3883POPC   GL250318  28.377  12.183   6.164
 3883POPC   C1A50319  28.400  12.119   6.464
 3883POPC   D2A50320  28.406  12.068   6.764
 3883POPC   C3A50321  28.344  12.117   7.064
 3883POPC   C4A50322  28.417  12.085   7.364
 3883POPC   C1B50323  28.367  12.284   6.464
 3883POPC   C2B50324  28.330  12.363   6.764
 3883POPC   C3B50325  28.297  12.324   7.064
 3883POPC   C4B50326  28.342  12.320   7.364
 3884POPC   NC350327  20.656  24.462   5.564
 3884POPC   PO450328  20.572  24.448   5.864
 3884POPC   GL150329  20.616  24.495   6.164
 3884POPC   GL250330  20.769  24.422   6.164
 3884POPC   C1A50331  20.645  24.517   6.464
 3884POPC   D2A50332  20.586  24.524   6.764
 3884POPC   C3A50333  20.639  24.490   7.064
 3884POPC   C4A50334  20.594  24.457   7.364
 3884POPC   C1B50335  20.865  24.406   6.464
 3884POPC   C2B50336  20.886  24.384   6.764
 3884POPC   C3B50337  20.883  24.386   7.064
 3884POPC   C4B50338  20.880  24.397   7.364
 3885POPC   NC350339   6.693   6.669   5.564
 3885POPC   PO450340   6.622   6.605   5.864
 3885POPC   GL150341   6.596   6.608   6.164
 3885POPC   GL250342   6.560   6.716   6.164
 3885POPC   C1A50343   6.595   6.625   6.464
 3885POPC   D2A50344   6.680   6.674   6.764
 3885POPC   C3A50345   6.637   6.648   7.064
 3885POPC   C4A50346   6.684   6.663   7.364
 3885POPC   C1B50347   6.364   6.690   6.464
 3885POPC   C2B50348   6.365   6.718   6.764
 3885POPC   C3B50349   6.399   6.741   7.064
 3885POPC   C4B50350   6.367   6.731   7.364
 3886POPC   NC350351   0.442  36.091   5.564
 3886POPC   PO450352   0.445  36.165   5.864
 3886POPC   GL150353   0.410  36.083   6.164
 3886POPC   GL250354   0.487  35.971   6.164
 3886POPC   C1A50355   0.480  36.119   6.464
 3886POPC   D2A50356   0.425  36.150   6.764
 3886POPC   C3A50357   0.466  36.093   7.064
 3886POPC   C4A50358   0.406  36.097   7.364
 3886POPC   C1B50359   0.512  35.862   6.464
 3886POPC   C2B50360   0.488  35.911   6.764
 3886POPC   C3B50361   0.432  35.894   7.064
 3886POPC   C4B50362   0.447  35.888   7.364
 3887POPC   NC350363   9.778  34.584   5.564
 3887POPC   PO450364   9.794  34.596   5.864
 3887POPC   GL150365   9.737  34.611   6.164
 3887POPC   GL250366   9.815  34.496   6.164
 3887POPC   C1A50367   9.796  34.550   6.464
 3887POPC   D2A50368   9.726  34.529   6.764
 3887POPC   C3A50369   9.757  34.576   7.064
 3887POPC   C4A50370   9.758  34.576   7.364
 3887POPC   C1B50371   9.967  34.458   6.464
 3887POPC   C2B50372   9.907  34.469   6.764
 3887POPC   C3B50373   9.912  34.429   7.064
 3887POPC   C4B50374   9.979  34.391   7.364
 3888POPC   NC350375   5.075  14.404   5.564
 3888POPC   PO450376   5.137  14.407   5.864
 3888POPC   GL150377   5.056  14.439   6.164
 3888POPC   GL250378   5.078  14.274   6.164
 3888POPC   C1A50379   5.139  14.406   6.464
 3888POPC   D2A50380   5.111  14.435   6.764
 3888POPC   C3A50381   5.055  14.439   7.064
 3888POPC   C4A50382   5.135  14.442   7.364
 3888POPC   C1B50383   5.144  14.172   6.464
 3888POPC   C2B50384   5.148  14.108   6.764
 3888POPC   C3B50385   5.083  14.109   7.064
 3888POPC   C4B50386   5.087  14.176   7.364
 3889POPC   NC350387  20.596  18.331   5.564
 3889POPC   PO450388  20.648  18.304   5.864
 3889POPC   GL150389  20.586  18.251   6.164
 3889POPC   GL250390  20.559  18.351   6.164
 3889POPC   C1A50391  20.571  18.312   6.464
 3889POPC   D2A50392  20.610  18.321   6.764
 3889POPC   C3A50393  20.611  18.330   7.064
 3889POPC   C4A50394  20.564  18.330   7.364
 3889POPC   C1B50395  20.407  18.506   6.464
 3889POPC   C2B50396  20.442  18.432   6.764
 3889POPC   C3B50397  20.453  18.522   7.064
 3889POPC   C4B50398  20.440  18.438   7.364
 3890POPC   NC350399  18.313  15.965   5.564
 3890POPC   PO450400  18.325  15.977   5.864
 3890POPC   GL150401  18.272  15.920   6.164
 3890POPC   GL250402  18.346  16.046   6.164
 3890POPC   C1A50403  18.298  15.968   6.464
 3890POPC   D2A50404  18.267  15.934   6.764
 3890POPC   C3A50405  18.315  15.955   7.064
 3890POPC   C4A50406  18.313  15.965   7.364
 3890POPC   C1B50407  18.461  16.020   6.464
 3890POPC   C2B50408  18.497  16.045   6.764
 3890POPC   C3B50409  18.556  16.038   7.064
 3890POPC   C4B50410  18.463  16.027   7.364
 3891POPC   NC350411   4.306  31.461   5.564
 3891POPC   PO450412   4.360  31.491   5.864
 3891POPC   GL150413   4.311  31.482   6.164
 3891POPC   GL250414   4.239  31.451   6.164
 3891POPC   C1A50415   4.276  31.472   6.464
 3891POPC   D2A50416   4.366  31.470   6.764
 3891POPC   C3A50417   4.358  31.482   7.064
 3891POPC   C4A50418   4.286  31.465   7.364
 3891POPC   C1B50419   4.026  31.398   6.464
 3891POPC   C2B50420   4.082  31.374   6.764
 3891POPC   C3B50421   4.031  31.448   7.064
 3891POPC   C4B50422   4.053  31.417   7.364
 3892POPC   NC350423   8.167  14.383   5.564
 3892POPC   PO450424   8.207  14.359   5.864
 3892POPC   GL150425   8.226  14.377   6.164
 3892POPC   GL250426   8.139  14.518   6.164
 3892POPC   C1A50427   8.233  14.422   6.464
 3892POPC   D2A50428   8.189  14.452   6.764
 3892POPC   C3A50429   8.234  14.365   7.064
 3892POPC   C4A50430   8.194  14.444   7.364
 3892POPC   C1B50431   8.042  14.521   6.464
 3892POPC   C2B50432   7.974  14.563   6.764
 3892POPC   C3B50433   8.008  14.588   7.064
 3892POPC   C4B50434   8.024  14.541   7.364
 3893POPC   NC350435  14.429  44.685   5.564
 3893POPC   PO450436  14.356  44.641   5.864
 3893POPC   GL150437  14.357  44.614   6.164
 3893POPC   GL250438  14.490  44.648   6.164
 3893POPC   C1A50439  14.411  44.616   6.464
 3893POPC   D2A50440  14.446  44.674   6.764
 3893POPC   C3A50441  14.434  44.696   7.064
 3893POPC   C4A50442  14.413  44.657   7.364
 3893POPC   C1B50443  14.598  44.746   6.464
 3893POPC   C2B50444  14.657  44.745   6.764
 3893POPC   C3B50445  14.669  44.705   7.064
 3893POPC   C4B50446  14.674  44.762   7.364
 3894POPC   NC350447  38.474  22.930   5.564
 3894POPC   PO450448  38.494  22.911   5.864
 3894POPC   GL150449  38.417  22.969   6.164
 3894POPC   GL250450  38.367  23.065   6.164
 3894POPC   C1A50451  38.436  22.901   6.464
 3894POPC   D2A50452  38.419  22.940   6.764
 3894POPC   C3A50453  38.457  22.910   7.064
 3894POPC   C4A50454  38.501  22.932   7.364
 3894POPC   C1B50455  38.288  23.134   6.464
 3894POPC   C2B50456  38.306  23.086   6.764
 3894POPC   C3B50457  38.272  23.158   7.064
 3894POPC   C4B50458  38.304  23.078   7.364
 3895POPC   NC350459  12.810  26.824   5.564
 3895POPC   PO450460  12.815  26.803   5.864
 3895POPC   GL150461  12.825  26.811   6.164
 3895POPC   GL250462  12.774  26.669   6.164
 3895POPC   C1A50463  12.871  26.847   6.464
 3895POPC   D2A50464  12.875  26.818   6.764
 3895POPC   C3A50465  12.894  26.816   7.064
 3895POPC   C4A50466  12.818  26.829   7.364
 3895POPC   C1B50467  12.669  26.575   6.464
 3895POPC   C2B50468  12.750  26.589   6.764
 3895POPC   C3B50469  12.762  26.657   7.064
 3895POPC   C4B50470  12.700  26.584   7.364
 3896POPC   NC350471  33.035  40.790   5.564
 3896POPC   PO450472  33.035  40.754   5.864
 3896POPC   GL150473  33.064  40.818   6.164
 3896POPC   GL250474  33.114  40.807   6.164
 3896POPC   C1A50475  33.021  40.818   6.464
 3896POPC   D2A50476  33.024  40.746   6.764
 3896POPC   C3A50477  33.044  40.827   7.064
 3896POPC   C4A50478  32.992  40.753   7.364
 3896POPC   C1B50479  33.291  40.853   6.464
 3896POPC   C2B50480  33.260  40.781   6.764
 3896POPC   C3B50481  33.275  40.865   7.064
 3896POPC   C4B50482  33.310  40.775   7.364
 3897POPC   NC350483  21.433   4.333   5.564
 3897POPC   PO450484  21.361   4.347   5.864
 3897POPC   GL150485  21.432   4.322   6.164
 3897POPC   GL250486  21.537   4.313   6.164
 3897POPC   C1A50487  21.373   4.349   6.464
 3897POPC   D2A50488  21.393   4.284   6.764
 3897POPC   C3A50489  21.430   4.287   7.064
 3897POPC   C4A50490  21.422   4.269   7.364
 3897POPC   C1B50491  21.602   4.342   6.464
 3897POPC   C2B50492  21.589   4.306   6.764
 3897POPC   C3B50493  21.651   4.318   7.064
 3897POPC   C4B50494  21.628   4.290   7.364
 3898POPC   NC350495  19.844   9.731   5.564
 3898POPC   PO450496  19.883   9.731   5.864
 3898POPC   GL150497  19.868   9.723   6.164
 3898POPC   GL250498  19.764   9.608   6.164
 3898POPC   C1A50499  19.794   9.781   6.464
 3898POPC   D2A50500  19.858   9.771   6.764
 3898POPC   C3A50501  19.831   9.713   7.064
 3898POPC   C4A50502  19.874   9.709   7.364
 3898POPC   C1B50503  19.657   9.499   6.464
 3898POPC   C2B50504  19.664   9.544   6.764
 3898POPC   C3B50505  19.647   9.573   7.064
 3898POPC   C4B50506  19.655   9.517   7.364
 3899POPC   NC350507  14.413  22.141   5.564
 3899POPC   PO450508  14.392  22.119   5.864
 3899POPC   GL150509  14.360  22.178   6.164
 3899POPC   GL250510  14.527  22.051   6.164
 3899POPC   C1A50511  14.372  22.157   6.464
 3899POPC   D2A50512  14.413  22.207   6.764
 3899POPC   C3A50513  14.429  22.115   7.064
 3899POPC   C4A50514  14.418  22.179   7.364
 3899POPC   C1B50515  14.602  22.049   6.464
 3899POPC   C2B50516  14.643  22.004   6.764
 3899POPC   C3B50517  14.658  21.998   7.064
 3899POPC   C4B50518  14.662  22.073   7.364
 3900POPC   NC350519  24.462   5.821   5.564
 3900POPC   PO450520  24.462   5.864   5.864
 3900POPC   GL150521  24.529   5.862   6.164
 3900POPC   GL250522  24.511   5.762   6.164
 3900POPC   C1A50523  24.538   5.853   6.464
 3900POPC   D2A50524  24.533   5.865   6.764
 3900POPC   C3A50525  24.519   5.907   7.064
 3900POPC   C4A50526  24.442   5.820   7.364
 3900POPC   C1B50527  24.432   5.655   6.464
 3900POPC   C2B50528  24.494   5.668   6.764
 3900POPC   C3B50529  24.486   5.592   7.064
 3900POPC   C4B50530  24.426   5.584   7.364
 3901POPC   NC350531  26.792  43.874   5.564
 3901POPC   PO450532  26.822  43.897   5.864
 3901POPC   GL150533  26.848  43.916   6.164
 3901POPC   GL250534  26.720  43.752   6.164
 3901POPC   C1A50535  26.800  43.892   6.464
 3901POPC   D2A50536  26.772  43.876   6.764
 3901POPC   C3A50537  26.806  43.904   7.064
 3901POPC   C4A50538  26.788  43.866   7.364
 3901POPC   C1B50539  26.644  43.692   6.464
 3901POPC   C2B50540  26.686  43.715   6.764
 3901POPC   C3B50541  26.670  43.660   7.064
 3901POPC   C4B50542  26.637  43.639   7.364
 3902POPC   NC350543  32.205  43.878   5.564
 3902POPC   PO450544  32.283  43.838   5.864
 3902POPC   GL150545  32.272  43.861   6.164
 3902POPC   GL250546  32.267  44.051   6.164
 3902POPC   C1A50547  32.284  43.926   6.464
 3902POPC   D2A50548  32.242  43.900   6.764
 3902POPC   C3A50549  32.221  43.848   7.064
 3902POPC   C4A50550  32.267  43.840   7.364
 3902POPC   C1B50551  32.347  44.148   6.464
 3902POPC   C2B50552  32.286  44.102   6.764
 3902POPC   C3B50553  32.279  44.164   7.064
 3902POPC   C4B50554  32.292  44.129   7.364
 3903POPC   NC350555   1.242  43.860   5.564
 3903POPC   PO450556   1.192  43.885   5.864
 3903POPC   GL150557   1.216  43.900   6.164
 3903POPC   GL250558   1.178  43.728   6.164
 3903POPC   C1A50559   1.193  43.878   6.464
 3903POPC   D2A50560   1.185  43.897   6.764
 3903POPC   C3A50561   1.215  43.850   7.064
 3903POPC   C4A50562   1.196  43.876   7.364
 3903POPC   C1B50563   1.072  43.680   6.464
 3903POPC   C2B50564   1.129  43.700   6.764
 3903POPC   C3B50565   1.127  43.620   7.064
 3903POPC   C4B50566   1.109  43.695   7.364
 3904POPC   NC350567  27.563  38.428   5.564
 3904POPC   PO450568  27.550  38.475   5.864
 3904POPC   GL150569  27.559  38.451   6.164
 3904POPC   GL250570  27.516  38.609   6.164
 3904POPC   C1A50571  27.615  38.419   6.464
 3904POPC   D2A50572  27.643  38.461   6.764
 3904POPC   C3A50573  27.640  38.435   7.064
 3904POPC   C4A50574  27.583  38.446   7.364
 3904POPC   C1B50575  27.521  38.672   6.464
 3904POPC   C2B50576  27.539  38.661   6.764
 3904POPC   C3B50577  27.509  38.734   7.064
 3904POPC   C4B50578  27.466  38.648   7.364
 3905POPC   NC350579  18.321   6.689   5.564
 3905POPC   PO450580  18.324   6.679   5.864
 3905POPC   GL150581  18.311   6.616   6.164
 3905POPC   GL250582  18.371   6.725   6.164
 3905POPC   C1A50583  18.328   6.681   6.464
 3905POPC   D2A50584  18.282   6.662   6.764
 3905POPC   C3A50585  18.237   6.597   7.064
 3905POPC   C4A50586  18.237   6.600   7.364
 3905POPC   C1B50587  18.544   6.717   6.464
 3905POPC   C2B50588  18.517   6.759   6.764
 3905POPC   C3B50589  18.489   6.705   7.064
 3905POPC   C4B50590  18.516   6.674   7.364
 3906POPC   NC350591  28.417  19.014   5.564
 3906POPC   PO450592  28.366  19.103   5.864
 3906POPC   GL150593  28.323  19.043   6.164
 3906POPC   GL250594  28.537  19.080   6.164
 3906POPC   C1A50595  28.396  19.067   6.464
 3906POPC   D2A50596  28.385  19.079   6.764
 3906POPC   C3A50597  28.344  19.064   7.064
 3906POPC   C4A50598  28.327  19.051   7.364
 3906POPC   C1B50599  28.624  18.992   6.464
 3906POPC   C2B50600  28.590  19.041   6.764
 3906POPC   C3B50601  28.591  19.050   7.064
 3906POPC   C4B50602  28.651  18.973   7.364
 3907POPC   NC350603  33.781   8.179   5.564
 3907POPC   PO450604  33.819   8.195   5.864
 3907POPC   GL150605  33.842   8.229   6.164
 3907POPC   GL250606  33.914   8.195   6.164
 3907POPC   C1A50607  33.778   8.203   6.464
 3907POPC   D2A50608  33.771   8.168   6.764
 3907POPC   C3A50609  33.809   8.210   7.064
 3907POPC   C4A50610  33.785   8.219   7.364
 3907POPC   C1B50611  34.024   8.202   6.464
 3907POPC   C2B50612  34.050   8.219   6.764
 3907POPC   C3B50613  34.028   8.187   7.064
 3907POPC   C4B50614  34.026   8.197   7.364
 3908POPC   NC350615  17.458   5.137   5.564
 3908POPC   PO450616  17.485   5.126   5.864
 3908POPC   GL150617  17.520   5.084   6.164
 3908POPC   GL250618  17.511   5.189   6.164
 3908POPC   C1A50619  17.520   5.061   6.464
 3908POPC   D2A50620  17.556   5.092   6.764
 3908POPC   C3A50621  17.553   5.085   7.064
 3908POPC   C4A50622  17.530   5.114   7.364
 3908POPC   C1B50623  17.559   5.344   6.464
 3908POPC   C2B50624  17.607   5.301   6.764
 3908POPC   C3B50625  17.571   5.305   7.064
 3908POPC   C4B50626  17.598   5.357   7.364
 3909POPC   NC350627  35.386  32.261   5.564
 3909POPC   PO450628  35.365  32.232   5.864
 3909POPC   GL150629  35.341  32.239   6.164
 3909POPC   GL250630  35.433  32.153   6.164
 3909POPC   C1A50631  35.392  32.232   6.464
 3909POPC   D2A50632  35.342  32.212   6.764
 3909POPC   C3A50633  35.333  32.216   7.064
 3909POPC   C4A50634  35.335  32.286   7.364
 3909POPC   C1B50635  35.545  32.060   6.464
 3909POPC   C2B50636  35.506  32.122   6.764
 3909POPC   C3B50637  35.585  32.038   7.064
 3909POPC   C4B50638  35.531  32.100   7.364
 3910POPC   NC350639  37.683  12.048   5.564
 3910POPC   PO450640  37.665  12.123   5.864
 3910POPC   GL150641  37.652  12.042   6.164
 3910POPC   GL250642  37.828  12.061   6.164
 3910POPC   C1A50643  37.646  12.043   6.464
 3910POPC   D2A50644  37.637  12.074   6.764
 3910POPC   C3A50645  37.689  12.066   7.064
 3910POPC   C4A50646  37.683  12.117   7.364
 3910POPC   C1B50647  37.897  12.062   6.464
 3910POPC   C2B50648  37.910  12.102   6.764
 3910POPC   C3B50649  37.956  12.042   7.064
 3910POPC   C4B50650  37.952  12.066   7.364
 3911POPC   NC350651  35.331  28.347   5.564
 3911POPC   PO450652  35.346  28.363   5.864
 3911POPC   GL150653  35.350  28.368   6.164
 3911POPC   GL250654  35.268  28.421   6.164
 3911POPC   C1A50655  35.335  28.359   6.464
 3911POPC   D2A50656  35.381  28.330   6.764
 3911POPC   C3A50657  35.345  28.352   7.064
 3911POPC   C4A50658  35.319  28.367   7.364
 3911POPC   C1B50659  35.122  28.351   6.464
 3911POPC   C2B50660  35.075  28.377   6.764
 3911POPC   C3B50661  35.060  28.352   7.064
 3911POPC   C4B50662  35.094  28.408   7.364
 3912POPC   NC350663   8.172  24.510   5.564
 3912POPC   PO450664   8.221  24.507   5.864
 3912POPC   GL150665   8.178  24.476   6.164
 3912POPC   GL250666   8.189  24.625   6.164
 3912POPC   C1A50667   8.242  24.493   6.464
 3912POPC   D2A50668   8.238  24.462   6.764
 3912POPC   C3A50669   8.182  24.530   7.064
 3912POPC   C4A50670   8.241  24.448   7.364
 3912POPC   C1B50671   8.232  24.753   6.464
 3912POPC   C2B50672   8.198  24.784   6.764
 3912POPC   C3B50673   8.201  24.763   7.064
 3912POPC   C4B50674   8.243  24.775   7.364
 3913POPC   NC350675  20.649  15.907   5.564
 3913POPC   PO450676  20.659  15.931   5.864
 3913POPC   GL150677  20.609  15.938   6.164
 3913POPC   GL250678  20.721  16.038   6.164
 3913POPC   C1A50679  20.594  15.957   6.464
 3913POPC   D2A50680  20.629  15.968   6.764
 3913POPC   C3A50681  20.612  15.914   7.064
 3913POPC   C4A50682  20.622  15.920   7.364
 3913POPC   C1B50683  20.819  16.137   6.464
 3913POPC   C2B50684  20.792  16.107   6.764
 3913POPC   C3B50685  20.850  16.124   7.064
 3913POPC   C4B50686  20.814  16.148   7.364
 3914POPC   NC350687   8.207  13.658   5.564
 3914POPC   PO450688   8.202  13.658   5.864
 3914POPC   GL150689   8.239  13.656   6.164
 3914POPC   GL250690   8.229  13.748   6.164
 3914POPC   C1A50691   8.234  13.624   6.464
 3914POPC   D2A50692   8.244  13.581   6.764
 3914POPC   C3A50693   8.165  13.653   7.064
 3914POPC   C4A50694   8.246  13.676   7.364
 3914POPC   C1B50695   8.206  13.876   6.464
 3914POPC   C2B50696   8.185  13.921   6.764
 3914POPC   C3B50697   8.196  13.879   7.064
 3914POPC   C4B50698   8.189  13.886   7.364
 3915POPC   NC350699   3.526   8.179   5.564
 3915POPC   PO450700   3.558   8.238   5.864
 3915POPC   GL150701   3.555   8.218   6.164
 3915POPC   GL250702   3.423   8.094   6.164
 3915POPC   C1A50703   3.584   8.234   6.464
 3915POPC   D2A50704   3.519   8.161   6.764
 3915POPC   C3A50705   3.562   8.238   7.064
 3915POPC   C4A50706   3.581   8.226   7.364
 3915POPC   C1B50707   3.298   8.055   6.464
 3915POPC   C2B50708   3.346   8.040   6.764
 3915POPC   C3B50709   3.358   8.112   7.064
 3915POPC   C4B50710   3.285   8.032   7.364
 3916POPC   NC350711  36.124  36.138   5.564
 3916POPC   PO450712  36.091  36.138   5.864
 3916POPC   GL150713  36.148  36.119   6.164
 3916POPC   GL250714  36.169  36.036   6.164
 3916POPC   C1A50715  36.162  36.123   6.464
 3916POPC   D2A50716  36.156  36.164   6.764
 3916POPC   C3A50717  36.140  36.166   7.064
 3916POPC   C4A50718  36.166  36.168   7.364
 3916POPC   C1B50719  36.165  35.878   6.464
 3916POPC   C2B50720  36.069  35.844   6.764
 3916POPC   C3B50721  36.145  35.864   7.064
 3916POPC   C4B50722  36.065  35.888   7.364
 3917POPC   NC350723  33.021  16.758   5.564
 3917POPC   PO450724  32.986  16.759   5.864
 3917POPC   GL150725  33.025  16.735   6.164
 3917POPC   GL250726  33.133  16.790   6.164
 3917POPC   C1A50727  33.023  16.745   6.464
 3917POPC   D2A50728  32.990  16.698   6.764
 3917POPC   C3A50729  33.007  16.709   7.064
 3917POPC   C4A50730  32.989  16.722   7.364
 3917POPC   C1B50731  33.262  16.780   6.464
 3917POPC   C2B50732  33.227  16.758   6.764
 3917POPC   C3B50733  33.265  16.758   7.064
 3917POPC   C4B50734  33.295  16.772   7.364
 3918POPC   NC350735  43.088  19.794   5.564
 3918POPC   PO450736  43.145  19.873   5.864
 3918POPC   GL150737  43.074  19.849   6.164
 3918POPC   GL250738  43.182  19.778   6.164
 3918POPC   C1A50739  43.060  19.846   6.464
 3918POPC   D2A50740  43.081  19.810   6.764
 3918POPC   C3A50741  43.079  19.874   7.064
 3918POPC   C4A50742  43.114  19.789   7.364
 3918POPC   C1B50743  43.320  19.768   6.464
 3918POPC   C2B50744  43.307  19.783   6.764
 3918POPC   C3B50745  43.379  19.740   7.064
 3918POPC   C4B50746  43.322  19.754   7.364
 3919POPC   NC350747  17.543  40.037   5.564
 3919POPC   PO450748  17.478  39.974   5.864
 3919POPC   GL150749  17.544  39.977   6.164
 3919POPC   GL250750  17.640  40.087   6.164
 3919POPC   C1A50751  17.556  39.993   6.464
 3919POPC   D2A50752  17.459  39.994   6.764
 3919POPC   C3A50753  17.509  40.013   7.064
 3919POPC   C4A50754  17.556  39.987   7.364
 3919POPC   C1B50755  17.659  40.195   6.464
 3919POPC   C2B50756  17.654  40.144   6.764
 3919POPC   C3B50757  17.639  40.180   7.064
 3919POPC   C4B50758  17.684  40.143   7.364
 3920POPC   NC350759  10.561  24.463   5.564
 3920POPC   PO450760  10.570  24.465   5.864
 3920POPC   GL150761  10.556  24.447   6.164
 3920POPC   GL250762  10.444  24.382   6.164
 3920POPC   C1A50763  10.499  24.501   6.464
 3920POPC   D2A50764  10.554  24.482   6.764
 3920POPC   C3A50765  10.474  24.472   7.064
 3920POPC   C4A50766  10.574  24.526   7.364
 3920POPC   C1B50767  10.312  24.321   6.464
 3920POPC   C2B50768  10.272  24.397   6.764
 3920POPC   C3B50769  10.346  24.329   7.064
 3920POPC   C4B50770  10.295  24.354   7.364
 3921POPC   NC350771  26.080  22.158   5.564
 3921POPC   PO450772  26.003  22.186   5.864
 3921POPC   GL150773  25.994  22.124   6.164
 3921POPC   GL250774  26.212  22.137   6.164
 3921POPC   C1A50775  26.046  22.169   6.464
 3921POPC   D2A50776  25.994  22.204   6.764
 3921POPC   C3A50777  26.014  22.166   7.064
 3921POPC   C4A50778  26.030  22.197   7.364
 3921POPC   C1B50779  26.317  22.144   6.464
 3921POPC   C2B50780  26.281  22.051   6.764
 3921POPC   C3B50781  26.285  22.086   7.064
 3921POPC   C4B50782  26.262  22.074   7.364
 3922POPC   NC350783   7.385  19.799   5.564
 3922POPC   PO450784   7.371  19.865   5.864
 3922POPC   GL150785   7.459  19.881   6.164
 3922POPC   GL250786   7.436  19.706   6.164
 3922POPC   C1A50787   7.412  19.808   6.464
 3922POPC   D2A50788   7.418  19.827   6.764
 3922POPC   C3A50789   7.398  19.802   7.064
 3922POPC   C4A50790   7.410  19.848   7.364
 3922POPC   C1B50791   7.518  19.562   6.464
 3922POPC   C2B50792   7.527  19.638   6.764
 3922POPC   C3B50793   7.487  19.608   7.064
 3922POPC   C4B50794   7.503  19.627   7.364
 3923POPC   NC350795   9.010   8.968   5.564
 3923POPC   PO450796   9.004   8.944   5.864
 3923POPC   GL150797   8.929   8.959   6.164
 3923POPC   GL250798   9.105   8.898   6.164
 3923POPC   C1A50799   8.979   8.930   6.464
 3923POPC   D2A50800   8.931   8.939   6.764
 3923POPC   C3A50801   8.959   8.986   7.064
 3923POPC   C4A50802   9.014   8.961   7.364
 3923POPC   C1B50803   9.189   8.818   6.464
 3923POPC   C2B50804   9.122   8.798   6.764
 3923POPC   C3B50805   9.179   8.853   7.064
 3923POPC   C4B50806   9.110   8.766   7.364
 3924POPC   NC350807   3.562   0.480   5.564
 3924POPC   PO450808   3.541   0.471   5.864
 3924POPC   GL150809   3.562   0.453   6.164
 3924POPC   GL250810   3.492   0.350   6.164
 3924POPC   C1A50811   3.571   0.410   6.464
 3924POPC   D2A50812   3.554   0.453   6.764
 3924POPC   C3A50813   3.496   0.441   7.064
 3924POPC   C4A50814   3.591   0.437   7.364
 3924POPC   C1B50815   3.407   0.251   6.464
 3924POPC   C2B50816   3.365   0.260   6.764
 3924POPC   C3B50817   3.379   0.214   7.064
 3924POPC   C4B50818   3.334   0.244   7.364
 3925POPC   NC350819  40.799  33.058   5.564
 3925POPC   PO450820  40.753  33.046   5.864
 3925POPC   GL150821  40.801  33.028   6.164
 3925POPC   GL250822  40.788  32.866   6.164
 3925POPC   C1A50823  40.745  32.979   6.464
 3925POPC   D2A50824  40.813  32.998   6.764
 3925POPC   C3A50825  40.800  32.998   7.064
 3925POPC   C4A50826  40.810  33.057   7.364
 3925POPC   C1B50827  40.688  32.782   6.464
 3925POPC   C2B50828  40.749  32.766   6.764
 3925POPC   C3B50829  40.716  32.808   7.064
 3925POPC   C4B50830  40.672  32.814   7.364
 3926POPC   NC350831  11.348  32.282   5.564
 3926POPC   PO450832  11.254  32.200   5.864
 3926POPC   GL150833  11.295  32.236   6.164
 3926POPC   GL250834  11.256  32.326   6.164
 3926POPC   C1A50835  11.288  32.296   6.464
 3926POPC   D2A50836  11.289  32.255   6.764
 3926POPC   C3A50837  11.264  32.242   7.064
 3926POPC   C4A50838  11.289  32.282   7.364
 3926POPC   C1B50839  11.119  32.486   6.464
 3926POPC   C2B50840  11.132  32.496   6.764
 3926POPC   C3B50841  11.118  32.423   7.064
 3926POPC   C4B50842  11.153  32.447   7.364
 3927POPC   NC350843  14.389  15.145   5.564
 3927POPC   PO450844  14.356  15.225   5.864
 3927POPC   GL150845  14.377  15.145   6.164
 3927POPC   GL250846  14.489  15.071   6.164
 3927POPC   C1A50847  14.427  15.148   6.464
 3927POPC   D2A50848  14.453  15.190   6.764
 3927POPC   C3A50849  14.366  15.222   7.064
 3927POPC   C4A50850  14.403  15.168   7.364
 3927POPC   C1B50851  14.551  14.974   6.464
 3927POPC   C2B50852  14.640  15.022   6.764
 3927POPC   C3B50853  14.580  15.038   7.064
 3927POPC   C4B50854  14.558  14.971   7.364
 3928POPC   NC350855  39.226  27.592   5.564
 3928POPC   PO450856  39.258  27.601   5.864
 3928POPC   GL150857  39.191  27.640   6.164
 3928POPC   GL250858  39.091  27.572   6.164
 3928POPC   C1A50859  39.201  27.553   6.464
 3928POPC   D2A50860  39.272  27.589   6.764
 3928POPC   C3A50861  39.246  27.586   7.064
 3928POPC   C4A50862  39.278  27.616   7.364
 3928POPC   C1B50863  38.957  27.530   6.464
 3928POPC   C2B50864  39.039  27.536   6.764
 3928POPC   C3B50865  39.024  27.519   7.064
 3928POPC   C4B50866  38.999  27.478   7.364
 3929POPC   NC350867  33.832  14.415   5.564
 3929POPC   PO450868  33.801  14.405   5.864
 3929POPC   GL150869  33.787  14.381   6.164
 3929POPC   GL250870  33.660  14.428   6.164
 3929POPC   C1A50871  33.835  14.380   6.464
 3929POPC   D2A50872  33.838  14.385   6.764
 3929POPC   C3A50873  33.787  14.418   7.064
 3929POPC   C4A50874  33.846  14.434   7.364
 3929POPC   C1B50875  33.596  14.438   6.464
 3929POPC   C2B50876  33.570  14.412   6.764
 3929POPC   C3B50877  33.553  14.383   7.064
 3929POPC   C4B50878  33.569  14.421   7.364
 3930POPC   NC350879  44.679  29.184   5.564
 3930POPC   PO450880  44.659  29.163   5.864
 3930POPC   GL150881  44.686  29.128   6.164
 3930POPC   GL250882  44.720  29.189   6.164
 3930POPC   C1A50883  44.663  29.165   6.464
 3930POPC   D2A50884  44.673  29.170   6.764
 3930POPC   C3A50885  44.690  29.166   7.064
 3930POPC   C4A50886  44.648  29.130   7.364
 3930POPC   C1B50887  44.848  29.293   6.464
 3930POPC   C2B50888  44.854  29.284   6.764
 3930POPC   C3B50889  44.825  29.245   7.064
 3930POPC   C4B50890  44.870  29.254   7.364
 3931POPC   NC350891  41.553  30.721   5.564
 3931POPC   PO450892  41.588  30.659   5.864
 3931POPC   GL150893  41.592  30.743   6.164
 3931POPC   GL250894  41.619  30.618   6.164
 3931POPC   C1A50895  41.556  30.661   6.464
 3931POPC   D2A50896  41.608  30.729   6.764
 3931POPC   C3A50897  41.553  30.716   7.064
 3931POPC   C4A50898  41.521  30.692   7.364
 3931POPC   C1B50899  41.537  30.423   6.464
 3931POPC   C2B50900  41.600  30.420   6.764
 3931POPC   C3B50901  41.596  30.429   7.064
 3931POPC   C4B50902  41.548  30.413   7.364
 3932POPC   NC350903  29.942   4.343   5.564
 3932POPC   PO450904  29.883   4.328   5.864
 3932POPC   GL150905  29.964   4.335   6.164
 3932POPC   GL250906  29.886   4.390   6.164
 3932POPC   C1A50907  29.968   4.340   6.464
 3932POPC   D2A50908  29.960   4.316   6.764
 3932POPC   C3A50909  29.923   4.321   7.064
 3932POPC   C4A50910  29.927   4.359   7.364
 3932POPC   C1B50911  29.815   4.541   6.464
 3932POPC   C2B50912  29.813   4.536   6.764
 3932POPC   C3B50913  29.758   4.517   7.064
 3932POPC   C4B50914  29.780   4.546   7.364
 3933POPC   NC350915  13.655   7.445   5.564
 3933POPC   PO450916  13.619   7.417   5.864
 3933POPC   GL150917  13.618   7.428   6.164
 3933POPC   GL250918  13.550   7.328   6.164
 3933POPC   C1A50919  13.627   7.469   6.464
 3933POPC   D2A50920  13.674   7.390   6.764
 3933POPC   C3A50921  13.667   7.460   7.064
 3933POPC   C4A50922  13.620   7.462   7.364
 3933POPC   C1B50923  13.482   7.254   6.464
 3933POPC   C2B50924  13.447   7.240   6.764
 3933POPC   C3B50925  13.483   7.259   7.064
 3933POPC   C4B50926  13.496   7.276   7.364
 3934POPC   NC350927  11.345  15.147   5.564
 3934POPC   PO450928  11.277  15.139   5.864
 3934POPC   GL150929  11.347  15.183   6.164
 3934POPC   GL250930  11.197  15.176   6.164
 3934POPC   C1A50931  11.302  15.159   6.464
 3934POPC   D2A50932  11.259  15.166   6.764
 3934POPC   C3A50933  11.303  15.208   7.064
 3934POPC   C4A50934  11.304  15.159   7.364
 3934POPC   C1B50935  11.083  15.203   6.464
 3934POPC   C2B50936  11.018  15.127   6.764
 3934POPC   C3B50937  11.087  15.130   7.064
 3934POPC   C4B50938  11.076  15.193   7.364
 3935POPC   NC350939  15.163   0.448   5.564
 3935POPC   PO450940  15.151   0.389   5.864
 3935POPC   GL150941  15.155   0.415   6.164
 3935POPC   GL250942  15.320   0.371   6.164
 3935POPC   C1A50943  15.209   0.406   6.464
 3935POPC   D2A50944  15.181   0.416   6.764
 3935POPC   C3A50945  15.176   0.388   7.064
 3935POPC   C4A50946  15.187   0.403   7.364
 3935POPC   C1B50947  15.408   0.221   6.464
 3935POPC   C2B50948  15.405   0.228   6.764
 3935POPC   C3B50949  15.393   0.258   7.064
 3935POPC   C4B50950  15.331   0.230   7.364
 3936POPC   NC350951   7.377  36.113   5.564
 3936POPC   PO450952   7.442  36.113   5.864
 3936POPC   GL150953   7.385  36.147   6.164
 3936POPC   GL250954   7.538  36.100   6.164
 3936POPC   C1A50955   7.470  36.175   6.464
 3936POPC   D2A50956   7.453  36.124   6.764
 3936POPC   C3A50957   7.398  36.168   7.064
 3936POPC   C4A50958   7.373  36.120   7.364
 3936POPC   C1B50959   7.702  36.149   6.464
 3936POPC   C2B50960   7.654  36.123   6.764
 3936POPC   C3B50961   7.640  36.152   7.064
 3936POPC   C4B50962   7.641  36.199   7.364
 3937POPC   NC350963  25.225  24.452   5.564
 3937POPC   PO450964  25.287  24.519   5.864
 3937POPC   GL150965  25.267  24.471   6.164
 3937POPC   GL250966  25.418  24.472   6.164
 3937POPC   C1A50967  25.277  24.457   6.464
 3937POPC   D2A50968  25.263  24.509   6.764
 3937POPC   C3A50969  25.260  24.457   7.064
 3937POPC   C4A50970  25.269  24.500   7.364
 3937POPC   C1B50971  25.481  24.414   6.464
 3937POPC   C2B50972  25.556  24.479   6.764
 3937POPC   C3B50973  25.499  24.434   7.064
 3937POPC   C4B50974  25.490  24.437   7.364
 3938POPC   NC350975  32.289  39.190   5.564
 3938POPC   PO450976  32.270  39.207   5.864
 3938POPC   GL150977  32.288  39.209   6.164
 3938POPC   GL250978  32.165  39.272   6.164
 3938POPC   C1A50979  32.234  39.239   6.464
 3938POPC   D2A50980  32.215  39.240   6.764
 3938POPC   C3A50981  32.293  39.267   7.064
 3938POPC   C4A50982  32.199  39.190   7.364
 3938POPC   C1B50983  32.081  39.358   6.464
 3938POPC   C2B50984  32.076  39.377   6.764
 3938POPC   C3B50985  32.010  39.352   7.064
 3938POPC   C4B50986  32.056  39.345   7.364
 3939POPC   NC350987   9.771  40.829   5.564
 3939POPC   PO450988   9.748  40.735   5.864
 3939POPC   GL150989   9.713  40.780   6.164
 3939POPC   GL250990   9.845  40.851   6.164
 3939POPC   C1A50991   9.732  40.828   6.464
 3939POPC   D2A50992   9.726  40.808   6.764
 3939POPC   C3A50993   9.787  40.832   7.064
 3939POPC   C4A50994   9.763  40.823   7.364
 3939POPC   C1B50995   9.883  41.033   6.464
 3939POPC   C2B50996   9.822  41.010   6.764
 3939POPC   C3B50997   9.880  40.963   7.064
 3939POPC   C4B50998   9.897  40.977   7.364
 3940POPC   NC350999  37.633  10.508   5.564
 3940POPC   PO451000  37.705  10.507   5.864
 3940POPC   GL151001  37.701  10.557   6.164
 3940POPC   GL251002  37.744  10.575   6.164
 3940POPC   C1A51003  37.631  10.537   6.464
 3940POPC   D2A51004  37.664  10.533   6.764
 3940POPC   C3A51005  37.721  10.568   7.064
 3940POPC   C4A51006  37.639  10.566   7.364
 3940POPC   C1B51007  37.809  10.717   6.464
 3940POPC   C2B51008  37.889  10.713   6.764
 3940POPC   C3B51009  37.898  10.721   7.064
 3940POPC   C4B51010  37.805  10.740   7.364
 3941POPC   NC351011  36.094  36.867   5.564
 3941POPC   PO451012  36.156  36.948   5.864
 3941POPC   GL151013  36.151  36.880   6.164
 3941POPC   GL251014  36.090  36.770   6.164
 3941POPC   C1A51015  36.170  36.891   6.464
 3941POPC   D2A51016  36.106  36.947   6.764
 3941POPC   C3A51017  36.114  36.893   7.064
 3941POPC   C4A51018  36.097  36.886   7.364
 3941POPC   C1B51019  35.962  36.675   6.464
 3941POPC   C2B51020  35.980  36.684   6.764
 3941POPC   C3B51021  35.965  36.738   7.064
 3941POPC   C4B51022  35.999  36.749   7.364
 3942POPC   NC351023  34.549  14.361   5.564
 3942POPC   PO451024  34.596  14.365   5.864
 3942POPC   GL151025  34.614  14.412   6.164
 3942POPC   GL251026  34.680  14.443   6.164
 3942POPC   C1A51027  34.617  14.376   6.464
 3942POPC   D2A51028  34.585  14.425   6.764
 3942POPC   C3A51029  34.577  14.402   7.064
 3942POPC   C4A51030  34.600  14.429   7.364
 3942POPC   C1B51031  34.759  14.527   6.464
 3942POPC   C2B51032  34.719  14.589   6.764
 3942POPC   C3B51033  34.709  14.598   7.064
 3942POPC   C4B51034  34.741  14.540   7.364
 3943POPC   NC351035  35.332  27.638   5.564
 3943POPC   PO451036  35.373  27.637   5.864
 3943POPC   GL151037  35.316  27.564   6.164
 3943POPC   GL251038  35.237  27.621   6.164
 3943POPC   C1A51039  35.398  27.629   6.464
 3943POPC   D2A51040  35.326  27.593   6.764
 3943POPC   C3A51041  35.371  27.563   7.064
 3943POPC   C4A51042  35.376  27.577   7.364
 3943POPC   C1B51043  35.101  27.648   6.464
 3943POPC   C2B51044  35.139  27.675   6.764
 3943POPC   C3B51045  35.143  27.675   7.064
 3943POPC   C4B51046  35.154  27.705   7.364
 3944POPC   NC351047  15.979  16.716   5.564
 3944POPC   PO451048  15.954  16.771   5.864
 3944POPC   GL151049  16.002  16.755   6.164
 3944POPC   GL251050  16.017  16.855   6.164
 3944POPC   C1A51051  15.999  16.720   6.464
 3944POPC   D2A51052  15.949  16.682   6.764
 3944POPC   C3A51053  15.990  16.754   7.064
 3944POPC   C4A51054  15.960  16.738   7.364
 3944POPC   C1B51055  16.007  16.941   6.464
 3944POPC   C2B51056  16.058  16.974   6.764
 3944POPC   C3B51057  16.024  16.965   7.064
 3944POPC   C4B51058  16.006  16.962   7.364
 3945POPC   NC351059  16.748   1.182   5.564
 3945POPC   PO451060  16.725   1.200   5.864
 3945POPC   GL151061  16.753   1.217   6.164
 3945POPC   GL251062  16.769   1.114   6.164
 3945POPC   C1A51063  16.778   1.165   6.464
 3945POPC   D2A51064  16.750   1.255   6.764
 3945POPC   C3A51065  16.712   1.229   7.064
 3945POPC   C4A51066  16.684   1.215   7.364
 3945POPC   C1B51067  16.785   0.988   6.464
 3945POPC   C2B51068  16.804   0.943   6.764
 3945POPC   C3B51069  16.796   0.950   7.064
 3945POPC   C4B51070  16.783   0.959   7.364
 3946POPC   NC351071  17.479  33.830   5.564
 3946POPC   PO451072  17.468  33.751   5.864
 3946POPC   GL151073  17.529  33.797   6.164
 3946POPC   GL251074  17.662  33.864   6.164
 3946POPC   C1A51075  17.463  33.827   6.464
 3946POPC   D2A51076  17.549  33.848   6.764
 3946POPC   C3A51077  17.510  33.798   7.064
 3946POPC   C4A51078  17.530  33.796   7.364
 3946POPC   C1B51079  17.710  33.811   6.464
 3946POPC   C2B51080  17.781  33.815   6.764
 3946POPC   C3B51081  17.796  33.860   7.064
 3946POPC   C4B51082  17.793  33.811   7.364
 3947POPC   NC351083  26.851  16.746   5.564
 3947POPC   PO451084  26.777  16.750   5.864
 3947POPC   GL151085  26.795  16.776   6.164
 3947POPC   GL251086  26.835  16.651   6.164
 3947POPC   C1A51087  26.785  16.685   6.464
 3947POPC   D2A51088  26.810  16.726   6.764
 3947POPC   C3A51089  26.792  16.732   7.064
 3947POPC   C4A51090  26.785  16.715   7.364
 3947POPC   C1B51091  26.800  16.507   6.464
 3947POPC   C2B51092  26.801  16.462   6.764
 3947POPC   C3B51093  26.804  16.484   7.064
 3947POPC   C4B51094  26.767  16.479   7.364
 3948POPC   NC351095  43.122  15.171   5.564
 3948POPC   PO451096  43.078  15.140   5.864
 3948POPC   GL151097  43.068  15.185   6.164
 3948POPC   GL251098  42.970  15.115   6.164
 3948POPC   C1A51099  43.076  15.208   6.464
 3948POPC   D2A51100  43.156  15.172   6.764
 3948POPC   C3A51101  43.108  15.133   7.064
 3948POPC   C4A51102  43.062  15.135   7.364
 3948POPC   C1B51103  42.927  15.057   6.464
 3948POPC   C2B51104  42.959  15.053   6.764
 3948POPC   C3B51105  42.873  15.045   7.064
 3948POPC   C4B51106  42.891  15.026   7.364
 3949POPC   NC351107  36.896  33.065   5.564
 3949POPC   PO451108  36.911  33.063   5.864
 3949POPC   GL151109  36.949  32.997   6.164
 3949POPC   GL251110  36.887  33.188   6.164
 3949POPC   C1A51111  36.944  33.048   6.464
 3949POPC   D2A51112  36.876  33.034   6.764
 3949POPC   C3A51113  36.875  33.041   7.064
 3949POPC   C4A51114  36.910  33.033   7.364
 3949POPC   C1B51115  36.921  33.314   6.464
 3949POPC   C2B51116  36.859  33.239   6.764
 3949POPC   C3B51117  36.850  33.295   7.064
 3949POPC   C4B51118  36.881  33.297   7.364
 3950POPC   NC351119  26.042   7.464   5.564
 3950POPC   PO451120  26.004   7.417   5.864
 3950POPC   GL151121  26.036   7.411   6.164
 3950POPC   GL251122  26.096   7.351   6.164
 3950POPC   C1A51123  26.083   7.443   6.464
 3950POPC   D2A51124  26.074   7.398   6.764
 3950POPC   C3A51125  26.018   7.419   7.064
 3950POPC   C4A51126  26.008   7.410   7.364
 3950POPC   C1B51127  26.108   7.232   6.464
 3950POPC   C2B51128  26.102   7.170   6.764
 3950POPC   C3B51129  26.133   7.175   7.064
 3950POPC   C4B51130  26.155   7.224   7.364
 3951POPC   NC351131  22.126   0.451   5.564
 3951POPC   PO451132  22.119   0.419   5.864
 3951POPC   GL151133  22.180   0.419   6.164
 3951POPC   GL251134  22.073   0.364   6.164
 3951POPC   C1A51135  22.176   0.390   6.464
 3951POPC   D2A51136  22.138   0.427   6.764
 3951POPC   C3A51137  22.175   0.417   7.064
 3951POPC   C4A51138  22.143   0.402   7.364
 3951POPC   C1B51139  21.893   0.339   6.464
 3951POPC   C2B51140  21.913   0.366   6.764
 3951POPC   C3B51141  21.908   0.357   7.064
 3951POPC   C4B51142  21.904   0.344   7.364
 3952POPC   NC351143   1.221  33.792   5.564
 3952POPC   PO451144   1.259  33.837   5.864
 3952POPC   GL151145   1.167  33.800   6.164
 3952POPC   GL251146   1.353  33.744   6.164
 3952POPC   C1A51147   1.236  33.848   6.464
 3952POPC   D2A51148   1.236  33.834   6.764
 3952POPC   C3A51149   1.206  33.799   7.064
 3952POPC   C4A51150   1.203  33.787   7.364
 3952POPC   C1B51151   1.436  33.646   6.464
 3952POPC   C2B51152   1.420  33.660   6.764
 3952POPC   C3B51153   1.452  33.683   7.064
 3952POPC   C4B51154   1.477  33.722   7.364
 3953POPC   NC351155  27.615   5.884   5.564
 3953POPC   PO451156  27.589   5.844   5.864
 3953POPC   GL151157  27.602   5.821   6.164
 3953POPC   GL251158  27.496   5.906   6.164
 3953POPC   C1A51159  27.622   5.904   6.464
 3953POPC   D2A51160  27.574   5.896   6.764
 3953POPC   C3A51161  27.545   5.881   7.064
 3953POPC   C4A51162  27.580   5.853   7.364
 3953POPC   C1B51163  27.387   5.895   6.464
 3953POPC   C2B51164  27.363   5.876   6.764
 3953POPC   C3B51165  27.389   5.924   7.064
 3953POPC   C4B51166  27.304   5.935   7.364
 3954POPC   NC351167  15.941  37.682   5.564
 3954POPC   PO451168  15.969  37.729   5.864
 3954POPC   GL151169  15.973  37.672   6.164
 3954POPC   GL251170  15.802  37.719   6.164
 3954POPC   C1A51171  15.924  37.638   6.464
 3954POPC   D2A51172  15.977  37.726   6.764
 3954POPC   C3A51173  15.907  37.709   7.064
 3954POPC   C4A51174  15.939  37.645   7.364
 3954POPC   C1B51175  15.760  37.757   6.464
 3954POPC   C2B51176  15.747  37.776   6.764
 3954POPC   C3B51177  15.676  37.798   7.064
 3954POPC   C4B51178  15.765  37.752   7.364
 3955POPC   NC351179  35.389  31.515   5.564
 3955POPC   PO451180  35.329  31.472   5.864
 3955POPC   GL151181  35.386  31.460   6.164
 3955POPC   GL251182  35.233  31.546   6.164
 3955POPC   C1A51183  35.387  31.461   6.464
 3955POPC   D2A51184  35.302  31.453   6.764
 3955POPC   C3A51185  35.344  31.514   7.064
 3955POPC   C4A51186  35.353  31.432   7.364
 3955POPC   C1B51187  35.108  31.579   6.464
 3955POPC   C2B51188  35.079  31.571   6.764
 3955POPC   C3B51189  35.140  31.572   7.064
 3955POPC   C4B51190  35.120  31.575   7.364
 3956POPC   NC351191  25.273  13.623   5.564
 3956POPC   PO451192  25.251  13.616   5.864
 3956POPC   GL151193  25.250  13.637   6.164
 3956POPC   GL251194  25.311  13.776   6.164
 3956POPC   C1A51195  25.296  13.658   6.464
 3956POPC   D2A51196  25.313  13.610   6.764
 3956POPC   C3A51197  25.230  13.599   7.064
 3956POPC   C4A51198  25.225  13.582   7.364
 3956POPC   C1B51199  25.290  13.846   6.464
 3956POPC   C2B51200  25.251  13.849   6.764
 3956POPC   C3B51201  25.256  13.898   7.064
 3956POPC   C4B51202  25.265  13.887   7.364
 3957POPC   NC351203  29.129  44.627   5.564
 3957POPC   PO451204  29.171  44.637   5.864
 3957POPC   GL151205  29.170  44.637   6.164
 3957POPC   GL251206  29.278  44.608   6.164
 3957POPC   C1A51207  29.182  44.689   6.464
 3957POPC   D2A51208  29.168  44.652   6.764
 3957POPC   C3A51209  29.149  44.637   7.064
 3957POPC   C4A51210  29.142  44.681   7.364
 3957POPC   C1B51211  29.295  44.446   6.464
 3957POPC   C2B51212  29.380  44.500   6.764
 3957POPC   C3B51213  29.312  44.476   7.064
 3957POPC   C4B51214  29.347  44.455   7.364
 3958POPC   NC351215  40.816  15.981   5.564
 3958POPC   PO451216  40.817  15.991   5.864
 3958POPC   GL151217  40.755  15.920   6.164
 3958POPC   GL251218  40.911  15.948   6.164
 3958POPC   C1A51219  40.801  15.947   6.464
 3958POPC   D2A51220  40.755  15.993   6.764
 3958POPC   C3A51221  40.786  15.961   7.064
 3958POPC   C4A51222  40.783  15.936   7.364
 3958POPC   C1B51223  41.007  15.907   6.464
 3958POPC   C2B51224  41.051  15.956   6.764
 3958POPC   C3B51225  41.002  15.966   7.064
 3958POPC   C4B51226  40.993  15.914   7.364
 3959POPC   NC351227  13.614   3.556   5.564
 3959POPC   PO451228  13.588   3.522   5.864
 3959POPC   GL151229  13.670   3.497   6.164
 3959POPC   GL251230  13.479   3.521   6.164
 3959POPC   C1A51231  13.628   3.583   6.464
 3959POPC   D2A51232  13.610   3.575   6.764
 3959POPC   C3A51233  13.658   3.499   7.064
 3959POPC   C4A51234  13.595   3.559   7.364
 3959POPC   C1B51235  13.407   3.430   6.464
 3959POPC   C2B51236  13.406   3.381   6.764
 3959POPC   C3B51237  13.379   3.396   7.064
 3959POPC   C4B51238  13.421   3.462   7.364
 3960POPC   NC351239  42.329   0.418   5.564
 3960POPC   PO451240  42.300   0.477   5.864
 3960POPC   GL151241  42.352   0.464   6.164
 3960POPC   GL251242  42.304   0.384   6.164
 3960POPC   C1A51243  42.350   0.458   6.464
 3960POPC   D2A51244  42.291   0.460   6.764
 3960POPC   C3A51245  42.331   0.414   7.064
 3960POPC   C4A51246  42.329   0.468   7.364
 3960POPC   C1B51247  42.152   0.277   6.464
 3960POPC   C2B51248  42.134   0.259   6.764
 3960POPC   C3B51249  42.152   0.282   7.064
 3960POPC   C4B51250  42.149   0.209   7.364
 3961POPC   NC351251  15.950  33.789   5.564
 3961POPC   PO451252  15.918  33.832   5.864
 3961POPC   GL151253  15.968  33.777   6.164
 3961POPC   GL251254  15.939  33.682   6.164
 3961POPC   C1A51255  15.927  33.805   6.464
 3961POPC   D2A51256  15.915  33.784   6.764
 3961POPC   C3A51257  15.968  33.824   7.064
 3961POPC   C4A51258  15.994  33.809   7.364
 3961POPC   C1B51259  15.979  33.560   6.464
 3961POPC   C2B51260  15.978  33.585   6.764
 3961POPC   C3B51261  16.028  33.548   7.064
 3961POPC   C4B51262  16.027  33.522   7.364
 3962POPC   NC351263  37.716  19.045   5.564
 3962POPC   PO451264  37.712  19.047   5.864
 3962POPC   GL151265  37.630  19.085   6.164
 3962POPC   GL251266  37.601  19.138   6.164
 3962POPC   C1A51267  37.682  19.047   6.464
 3962POPC   D2A51268  37.720  19.087   6.764
 3962POPC   C3A51269  37.633  19.108   7.064
 3962POPC   C4A51270  37.715  19.032   7.364
 3962POPC   C1B51271  37.504  19.135   6.464
 3962POPC   C2B51272  37.478  19.153   6.764
 3962POPC   C3B51273  37.496  19.151   7.064
 3962POPC   C4B51274  37.439  19.131   7.364
 3963POPC   NC351275  11.316  31.435   5.564
 3963POPC   PO451276  11.253  31.434   5.864
 3963POPC   GL151277  11.319  31.424   6.164
 3963POPC   GL251278  11.141  31.560   6.164
 3963POPC   C1A51279  11.342  31.503   6.464
 3963POPC   D2A51280  11.302  31.469   6.764
 3963POPC   C3A51281  11.279  31.496   7.064
 3963POPC   C4A51282  11.266  31.453   7.364
 3963POPC   C1B51283  11.041  31.534   6.464
 3963POPC   C2B51284  11.058  31.507   6.764
 3963POPC   C3B51285  11.036  31.550   7.064
 3963POPC   C4B51286  11.048  31.511   7.364
 3964POPC   NC351287  26.857   5.862   5.564
 3964POPC   PO451288  26.859   5.850   5.864
 3964POPC   GL151289  26.812   5.837   6.164
 3964POPC   GL251290  26.725   5.766   6.164
 3964POPC   C1A51291  26.789   5.824   6.464
 3964POPC   D2A51292  26.807   5.890   6.764
 3964POPC   C3A51293  26.847   5.842   7.064
 3964POPC   C4A51294  26.806   5.858   7.364
 3964POPC   C1B51295  26.582   5.744   6.464
 3964POPC   C2B51296  26.579   5.789   6.764
 3964POPC   C3B51297  26.637   5.759   7.064
 3964POPC   C4B51298  26.584   5.732   7.364
 3965POPC   NC351299  43.143  30.677   5.564
 3965POPC   PO451300  43.136  30.709   5.864
 3965POPC   GL151301  43.086  30.678   6.164
 3965POPC   GL251302  43.039  30.732   6.164
 3965POPC   C1A51303  43.081  30.653   6.464
 3965POPC   D2A51304  43.133  30.659   6.764
 3965POPC   C3A51305  43.114  30.688   7.064
 3965POPC   C4A51306  43.068  30.652   7.364
 3965POPC   C1B51307  42.939  30.785   6.464
 3965POPC   C2B51308  42.934  30.855   6.764
 3965POPC   C3B51309  42.911  30.848   7.064
 3965POPC   C4B51310  42.882  30.805   7.364
 3966POPC   NC351311  40.780  19.029   5.564
 3966POPC   PO451312  40.826  19.084   5.864
 3966POPC   GL151313  40.826  19.094   6.164
 3966POPC   GL251314  40.799  19.180   6.164
 3966POPC   C1A51315  40.787  19.039   6.464
 3966POPC   D2A51316  40.816  19.058   6.764
 3966POPC   C3A51317  40.805  19.021   7.064
 3966POPC   C4A51318  40.761  19.022   7.364
 3966POPC   C1B51319  40.786  19.292   6.464
 3966POPC   C2B51320  40.795  19.282   6.764
 3966POPC   C3B51321  40.769  19.278   7.064
 3966POPC   C4B51322  40.785  19.306   7.364
 3967POPC   NC351323   1.218  43.103   5.564
 3967POPC   PO451324   1.170  43.109   5.864
 3967POPC   GL151325   1.209  43.157   6.164
 3967POPC   GL251326   1.292  43.074   6.164
 3967POPC   C1A51327   1.192  43.113   6.464
 3967POPC   D2A51328   1.230  43.102   6.764
 3967POPC   C3A51329   1.190  43.068   7.064
 3967POPC   C4A51330   1.224  43.080   7.364
 3967POPC   C1B51331   1.462  42.998   6.464
 3967POPC   C2B51332   1.406  43.033   6.764
 3967POPC   C3B51333   1.470  42.956   7.064
 3967POPC   C4B51334   1.402  42.998   7.364
 3968POPC   NC351335  15.146  10.554   5.564
 3968POPC   PO451336  15.150  10.521   5.864
 3968POPC   GL151337  15.142  10.555   6.164
 3968POPC   GL251338  15.125  10.648   6.164
 3968POPC   C1A51339  15.189  10.479   6.464
 3968POPC   D2A51340  15.182  10.492   6.764
 3968POPC   C3A51341  15.201  10.546   7.064
 3968POPC   C4A51342  15.188  10.561   7.364
 3968POPC   C1B51343  14.947  10.653   6.464
 3968POPC   C2B51344  14.997  10.721   6.764
 3968POPC   C3B51345  15.014  10.730   7.064
 3968POPC   C4B51346  14.949  10.658   7.364
 3969POPC   NC351347  13.674   9.759   5.564
 3969POPC   PO451348  13.610   9.700   5.864
 3969POPC   GL151349  13.649   9.764   6.164
 3969POPC   GL251350  13.570   9.861   6.164
 3969POPC   C1A51351  13.650   9.793   6.464
 3969POPC   D2A51352  13.592   9.767   6.764
 3969POPC   C3A51353  13.675   9.748   7.064
 3969POPC   C4A51354  13.614   9.775   7.364
 3969POPC   C1B51355  13.519   9.921   6.464
 3969POPC   C2B51356  13.562  10.015   6.764
 3969POPC   C3B51357  13.518  10.010   7.064
 3969POPC   C4B51358  13.482   9.961   7.364
 3970POPC   NC351359   0.437  30.746   5.564
 3970POPC   PO451360   0.416  30.692   5.864
 3970POPC   GL151361   0.470  30.693   6.164
 3970POPC   GL251362   0.585  30.780   6.164
 3970POPC   C1A51363   0.428  30.680   6.464
 3970POPC   D2A51364   0.431  30.739   6.764
 3970POPC   C3A51365   0.467  30.746   7.064
 3970POPC   C4A51366   0.401  30.649   7.364
 3970POPC   C1B51367   0.704  30.777   6.464
 3970POPC   C2B51368   0.694  30.794   6.764
 3970POPC   C3B51369   0.698  30.821   7.064
 3970POPC   C4B51370   0.702  30.825   7.364
 3971POPC   NC351371  40.806  12.817   5.564
 3971POPC   PO451372  40.807  12.803   5.864
 3971POPC   GL151373  40.746  12.889   6.164
 3971POPC   GL251374  40.840  12.807   6.164
 3971POPC   C1A51375  40.755  12.891   6.464
 3971POPC   D2A51376  40.744  12.844   6.764
 3971POPC   C3A51377  40.742  12.881   7.064
 3971POPC   C4A51378  40.769  12.874   7.364
 3971POPC   C1B51379  40.967  12.705   6.464
 3971POPC   C2B51380  40.938  12.677   6.764
 3971POPC   C3B51381  40.973  12.714   7.064
 3971POPC   C4B51382  40.936  12.645   7.364
 3972POPC   NC351383  30.707  12.110   5.564
 3972POPC   PO451384  30.677  12.108   5.864
 3972POPC   GL151385  30.712  12.095   6.164
 3972POPC   GL251386  30.808  12.185   6.164
 3972POPC   C1A51387  30.690  12.106   6.464
 3972POPC   D2A51388  30.722  12.027   6.764
 3972POPC   C3A51389  30.673  12.085   7.064
 3972POPC   C4A51390  30.738  12.064   7.364
 3972POPC   C1B51391  30.821  12.320   6.464
 3972POPC   C2B51392  30.834  12.289   6.764
 3972POPC   C3B51393  30.827  12.243   7.064
 3972POPC   C4B51394  30.784  12.248   7.364
 3973POPC   NC351395   5.092   1.215   5.564
 3973POPC   PO451396   5.105   1.232   5.864
 3973POPC   GL151397   5.052   1.206   6.164
 3973POPC   GL251398   5.139   1.138   6.164
 3973POPC   C1A51399   5.082   1.250   6.464
 3973POPC   D2A51400   5.130   1.164   6.764
 3973POPC   C3A51401   5.139   1.222   7.064
 3973POPC   C4A51402   5.130   1.234   7.364
 3973POPC   C1B51403   5.175   0.981   6.464
 3973POPC   C2B51404   5.190   1.024   6.764
 3973POPC   C3B51405   5.239   0.948   7.064
 3973POPC   C4B51406   5.225   0.998   7.364
 3974POPC   NC351407  26.772   1.218   5.564
 3974POPC   PO451408  26.856   1.246   5.864
 3974POPC   GL151409  26.845   1.188   6.164
 3974POPC   GL251410  26.812   1.293   6.164
 3974POPC   C1A51411  26.846   1.205   6.464
 3974POPC   D2A51412  26.865   1.179   6.764
 3974POPC   C3A51413  26.787   1.194   7.064
 3974POPC   C4A51414  26.781   1.228   7.364
 3974POPC   C1B51415  26.933   1.438   6.464
 3974POPC   C2B51416  26.882   1.440   6.764
 3974POPC   C3B51417  26.920   1.432   7.064
 3974POPC   C4B51418  26.948   1.456   7.364
 3975POPC   NC351419  20.561  40.739   5.564
 3975POPC   PO451420  20.599  40.826   5.864
 3975POPC   GL151421  20.650  40.827   6.164
 3975POPC   GL251422  20.672  40.686   6.164
 3975POPC   C1A51423  20.590  40.800   6.464
 3975POPC   D2A51424  20.617  40.774   6.764
 3975POPC   C3A51425  20.643  40.807   7.064
 3975POPC   C4A51426  20.648  40.800   7.364
 3975POPC   C1B51427  20.750  40.538   6.464
 3975POPC   C2B51428  20.746  40.612   6.764
 3975POPC   C3B51429  20.758  40.610   7.064
 3975POPC   C4B51430  20.784  40.552   7.364
 3976POPC   NC351431  37.669  15.910   5.564
 3976POPC   PO451432  37.716  15.929   5.864
 3976POPC   GL151433  37.726  15.947   6.164
 3976POPC   GL251434  37.539  16.018   6.164
 3976POPC   C1A51435  37.657  15.962   6.464
 3976POPC   D2A51436  37.685  15.935   6.764
 3976POPC   C3A51437  37.652  15.905   7.064
 3976POPC   C4A51438  37.665  15.962   7.364
 3976POPC   C1B51439  37.416  16.016   6.464
 3976POPC   C2B51440  37.462  16.007   6.764
 3976POPC   C3B51441  37.450  15.936   7.064
 3976POPC   C4B51442  37.460  16.000   7.364
 3977POPC   NC351443  35.391  33.007   5.564
 3977POPC   PO451444  35.315  33.015   5.864
 3977POPC   GL151445  35.362  32.980   6.164
 3977POPC   GL251446  35.380  33.149   6.164
 3977POPC   C1A51447  35.321  33.034   6.464
 3977POPC   D2A51448  35.358  33.001   6.764
 3977POPC   C3A51449  35.358  33.025   7.064
 3977POPC   C4A51450  35.381  32.978   7.364
 3977POPC   C1B51451  35.472  33.243   6.464
 3977POPC   C2B51452  35.502  33.215   6.764
 3977POPC   C3B51453  35.514  33.216   7.064
 3977POPC   C4B51454  35.501  33.260   7.364
 3978POPC   NC351455  40.055  10.499   5.564
 3978POPC   PO451456  40.044  10.572   5.864
 3978POPC   GL151457  39.965  10.537   6.164
 3978POPC   GL251458  40.093  10.592   6.164
 3978POPC   C1A51459  40.000  10.502   6.464
 3978POPC   D2A51460  40.027  10.507   6.764
 3978POPC   C3A51461  39.964  10.563   7.064
 3978POPC   C4A51462  40.003  10.513   7.364
 3978POPC   C1B51463  40.196  10.582   6.464
 3978POPC   C2B51464  40.240  10.595   6.764
 3978POPC   C3B51465  40.225  10.587   7.064
 3978POPC   C4B51466  40.271  10.576   7.364
 3979POPC   NC351467  36.126  29.948   5.564
 3979POPC   PO451468  36.081  29.891   5.864
 3979POPC   GL151469  36.116  29.924   6.164
 3979POPC   GL251470  36.024  30.021   6.164
 3979POPC   C1A51471  36.138  29.883   6.464
 3979POPC   D2A51472  36.140  29.911   6.764
 3979POPC   C3A51473  36.128  29.940   7.064
 3979POPC   C4A51474  36.163  29.948   7.364
 3979POPC   C1B51475  35.932  29.981   6.464
 3979POPC   C2B51476  35.927  29.990   6.764
 3979POPC   C3B51477  35.884  29.994   7.064
 3979POPC   C4B51478  35.880  29.992   7.364
 3980POPC   NC351479   5.101   1.973   5.564
 3980POPC   PO451480   5.083   1.966   5.864
 3980POPC   GL151481   5.115   2.025   6.164
 3980POPC   GL251482   5.161   2.063   6.164
 3980POPC   C1A51483   5.126   1.961   6.464
 3980POPC   D2A51484   5.137   1.961   6.764
 3980POPC   C3A51485   5.128   1.946   7.064
 3980POPC   C4A51486   5.135   1.969   7.364
 3980POPC   C1B51487   5.233   2.186   6.464
 3980POPC   C2B51488   5.203   2.184   6.764
 3980POPC   C3B51489   5.224   2.240   7.064
 3980POPC   C4B51490   5.230   2.220   7.364
 3981POPC   NC351491  32.274   3.532   5.564
 3981POPC   PO451492  32.234   3.579   5.864
 3981POPC   GL151493  32.270   3.497   6.164
 3981POPC   GL251494  32.310   3.468   6.164
 3981POPC   C1A51495  32.206   3.570   6.464
 3981POPC   D2A51496  32.260   3.513   6.764
 3981POPC   C3A51497  32.280   3.543   7.064
 3981POPC   C4A51498  32.242   3.535   7.364
 3981POPC   C1B51499  32.367   3.296   6.464
 3981POPC   C2B51500  32.355   3.290   6.764
 3981POPC   C3B51501  32.361   3.293   7.064
 3981POPC   C4B51502  32.354   3.290   7.364
 3982POPC   NC351503  33.785  16.749   5.564
 3982POPC   PO451504  33.814  16.693   5.864
 3982POPC   GL151505  33.842  16.693   6.164
 3982POPC   GL251506  33.866  16.842   6.164
 3982POPC   C1A51507  33.759  16.747   6.464
 3982POPC   D2A51508  33.807  16.761   6.764
 3982POPC   C3A51509  33.808  16.720   7.064
 3982POPC   C4A51510  33.772  16.750   7.364
 3982POPC   C1B51511  33.968  16.927   6.464
 3982POPC   C2B51512  33.946  16.915   6.764
 3982POPC   C3B51513  33.974  16.896   7.064
 3982POPC   C4B51514  34.012  16.887   7.364
 3983POPC   NC351515  25.223  12.043   5.564
 3983POPC   PO451516  25.305  12.077   5.864
 3983POPC   GL151517  25.217  12.125   6.164
 3983POPC   GL251518  25.351  12.019   6.164
 3983POPC   C1A51519  25.235  12.111   6.464
 3983POPC   D2A51520  25.303  12.096   6.764
 3983POPC   C3A51521  25.229  12.110   7.064
 3983POPC   C4A51522  25.282  12.056   7.364
 3983POPC   C1B51523  25.538  12.020   6.464
 3983POPC   C2B51524  25.484  11.980   6.764
 3983POPC   C3B51525  25.504  12.033   7.064
 3983POPC   C4B51526  25.455  11.985   7.364
 3984POPC   NC351527  31.445  26.823   5.564
 3984POPC   PO451528  31.426  26.782   5.864
 3984POPC   GL151529  31.475  26.774   6.164
 3984POPC   GL251530  31.308  26.804   6.164
 3984POPC   C1A51531  31.452  26.854   6.464
 3984POPC   D2A51532  31.514  26.852   6.764
 3984POPC   C3A51533  31.510  26.850   7.064
 3984POPC   C4A51534  31.508  26.845   7.364
 3984POPC   C1B51535  31.252  26.841   6.464
 3984POPC   C2B51536  31.185  26.816   6.764
 3984POPC   C3B51537  31.200  26.839   7.064
 3984POPC   C4B51538  31.236  26.854   7.364
 3985POPC   NC351539  13.638  24.503   5.564
 3985POPC   PO451540  13.587  24.526   5.864
 3985POPC   GL151541  13.662  24.481   6.164
 3985POPC   GL251542  13.649  24.374   6.164
 3985POPC   C1A51543  13.643  24.443   6.464
 3985POPC   D2A51544  13.584  24.501   6.764
 3985POPC   C3A51545  13.630  24.496   7.064
 3985POPC   C4A51546  13.615  24.478   7.364
 3985POPC   C1B51547  13.617  24.245   6.464
 3985POPC   C2B51548  13.618  24.284   6.764
 3985POPC   C3B51549  13.660  24.199   7.064
 3985POPC   C4B51550  13.682  24.199   7.364
 3986POPC   NC351551  27.586  19.835   5.564
 3986POPC   PO451552  27.615  19.844   5.864
 3986POPC   GL151553  27.581  19.799   6.164
 3986POPC   GL251554  27.528  19.921   6.164
 3986POPC   C1A51555  27.579  19.866   6.464
 3986POPC   D2A51556  27.598  19.815   6.764
 3986POPC   C3A51557  27.628  19.857   7.064
 3986POPC   C4A51558  27.618  19.834   7.364
 3986POPC   C1B51559  27.467  20.027   6.464
 3986POPC   C2B51560  27.463  20.014   6.764
 3986POPC   C3B51561  27.398  20.001   7.064
 3986POPC   C4B51562  27.441  20.023   7.364
 3987POPC   NC351563  30.677   4.343   5.564
 3987POPC   PO451564  30.726   4.328   5.864
 3987POPC   GL151565  30.660   4.314   6.164
 3987POPC   GL251566  30.776   4.406   6.164
 3987POPC   C1A51567  30.690   4.276   6.464
 3987POPC   D2A51568  30.722   4.362   6.764
 3987POPC   C3A51569  30.730   4.312   7.064
 3987POPC   C4A51570  30.692   4.280   7.364
 3987POPC   C1B51571  30.835   4.520   6.464
 3987POPC   C2B51572  30.796   4.532   6.764
 3987POPC   C3B51573  30.826   4.536   7.064
 3987POPC   C4B51574  30.799   4.522   7.364
 3988POPC   NC351575   2.035   2.031   5.564
 3988POPC   PO451576   1.965   1.941   5.864
 3988POPC   GL151577   1.999   2.010   6.164
 3988POPC   GL251578   2.103   2.035   6.164
 3988POPC   C1A51579   1.982   1.993   6.464
 3988POPC   D2A51580   2.000   2.007   6.764
 3988POPC   C3A51581   1.983   1.969   7.064
 3988POPC   C4A51582   2.030   2.013   7.364
 3988POPC   C1B51583   2.250   2.052   6.464
 3988POPC   C2B51584   2.175   2.109   6.764
 3988POPC   C3B51585   2.268   2.119   7.064
 3988POPC   C4B51586   2.236   2.079   7.364
 3989POPC   NC351587   2.037  16.752   5.564
 3989POPC   PO451588   2.031  16.755   5.864
 3989POPC   GL151589   1.953  16.716   6.164
 3989POPC   GL251590   2.062  16.797   6.164
 3989POPC   C1A51591   1.998  16.727   6.464
 3989POPC   D2A51592   2.025  16.774   6.764
 3989POPC   C3A51593   2.014  16.717   7.064
 3989POPC   C4A51594   1.957  16.716   7.364
 3989POPC   C1B51595   2.238  16.837   6.464
 3989POPC   C2B51596   2.215  16.848   6.764
 3989POPC   C3B51597   2.248  16.786   7.064
 3989POPC   C4B51598   2.181  16.847   7.364
 3990POPC   NC351599  22.954  26.075   5.564
 3990POPC   PO451600  22.977  26.070   5.864
 3990POPC   GL151601  22.912  26.088   6.164
 3990POPC   GL251602  22.923  26.151   6.164
 3990POPC   C1A51603  22.977  26.004   6.464
 3990POPC   D2A51604  22.980  26.047   6.764
 3990POPC   C3A51605  22.944  26.055   7.064
 3990POPC   C4A51606  22.962  26.069   7.364
 3990POPC   C1B51607  23.044  26.258   6.464
 3990POPC   C2B51608  22.967  26.254   6.764
 3990POPC   C3B51609  23.055  26.304   7.064
 3990POPC   C4B51610  22.999  26.331   7.364
 3991POPC   NC351611   3.520  36.928   5.564
 3991POPC   PO451612   3.523  36.906   5.864
 3991POPC   GL151613   3.535  36.858   6.164
 3991POPC   GL251614   3.420  36.987   6.164
 3991POPC   C1A51615   3.516  36.917   6.464
 3991POPC   D2A51616   3.549  36.935   6.764
 3991POPC   C3A51617   3.524  36.876   7.064
 3991POPC   C4A51618   3.581  36.867   7.364
 3991POPC   C1B51619   3.351  36.940   6.464
 3991POPC   C2B51620   3.277  36.964   6.764
 3991POPC   C3B51621   3.271  36.982   7.064
 3991POPC   C4B51622   3.333  36.933   7.364
 3992POPC   NC351623  22.921  31.449   5.564
 3992POPC   PO451624  22.892  31.481   5.864
 3992POPC   GL151625  22.976  31.509   6.164
 3992POPC   GL251626  22.781  31.434   6.164
 3992POPC   C1A51627  22.936  31.492   6.464
 3992POPC   D2A51628  22.977  31.463   6.764
 3992POPC   C3A51629  22.940  31.450   7.064
 3992POPC   C4A51630  22.953  31.452   7.364
 3992POPC   C1B51631  22.713  31.395   6.464
 3992POPC   C2B51632  22.664  31.484   6.764
 3992POPC   C3B51633  22.732  31.461   7.064
 3992POPC   C4B51634  22.714  31.418   7.364
 3993POPC   NC351635  33.009  44.641   5.564
 3993POPC   PO451636  33.029  44.616   5.864
 3993POPC   GL151637  33.057  44.680   6.164
 3993POPC   GL251638  33.108  44.640   6.164
 3993POPC   C1A51639  33.033  44.644   6.464
 3993POPC   D2A51640  32.983  44.655   6.764
 3993POPC   C3A51641  33.054  44.712   7.064
 3993POPC   C4A51642  33.017  44.679   7.364
 3993POPC   C1B51643  33.254  44.624   6.464
 3993POPC   C2B51644  33.255  44.624   6.764
 3993POPC   C3B51645  33.293  44.643   7.064
 3993POPC   C4B51646  33.314  44.661   7.364
 3994POPC   NC351647  36.859  36.891   5.564
 3994POPC   PO451648  36.912  36.875   5.864
 3994POPC   GL151649  36.930  36.894   6.164
 3994POPC   GL251650  36.831  36.778   6.164
 3994POPC   C1A51651  36.878  36.888   6.464
 3994POPC   D2A51652  36.923  36.860   6.764
 3994POPC   C3A51653  36.855  36.886   7.064
 3994POPC   C4A51654  36.940  36.928   7.364
 3994POPC   C1B51655  36.708  36.716   6.464
 3994POPC   C2B51656  36.762  36.744   6.764
 3994POPC   C3B51657  36.740  36.681   7.064
 3994POPC   C4B51658  36.736  36.735   7.364
 3995POPC   NC351659  22.959  36.155   5.564
 3995POPC   PO451660  22.970  36.148   5.864
 3995POPC   GL151661  22.959  36.169   6.164
 3995POPC   GL251662  22.981  36.232   6.164
 3995POPC   C1A51663  22.985  36.129   6.464
 3995POPC   D2A51664  22.987  36.152   6.764
 3995POPC   C3A51665  22.965  36.142   7.064
 3995POPC   C4A51666  22.917  36.091   7.364
 3995POPC   C1B51667  22.968  36.337   6.464
 3995POPC   C2B51668  23.012  36.399   6.764
 3995POPC   C3B51669  23.010  36.357   7.064
 3995POPC   C4B51670  22.982  36.327   7.364
 3996POPC   NC351671  20.589  36.119   5.564
 3996POPC   PO451672  20.571  36.111   5.864
 3996POPC   GL151673  20.624  36.156   6.164
 3996POPC   GL251674  20.490  36.145   6.164
 3996POPC   C1A51675  20.569  36.123   6.464
 3996POPC   D2A51676  20.622  36.106   6.764
 3996POPC   C3A51677  20.612  36.169   7.064
 3996POPC   C4A51678  20.634  36.166   7.364
 3996POPC   C1B51679  20.378  36.253   6.464
 3996POPC   C2B51680  20.432  36.191   6.764
 3996POPC   C3B51681  20.382  36.207   7.064
 3996POPC   C4B51682  20.337  36.273   7.364
 3997POPC   NC351683  42.342  23.710   5.564
 3997POPC   PO451684  42.336  23.700   5.864
 3997POPC   GL151685  42.342  23.753   6.164
 3997POPC   GL251686  42.423  23.656   6.164
 3997POPC   C1A51687  42.355  23.683   6.464
 3997POPC   D2A51688  42.320  23.701   6.764
 3997POPC   C3A51689  42.331  23.713   7.064
 3997POPC   C4A51690  42.313  23.730   7.364
 3997POPC   C1B51691  42.520  23.576   6.464
 3997POPC   C2B51692  42.504  23.562   6.764
 3997POPC   C3B51693  42.586  23.535   7.064
 3997POPC   C4B51694  42.591  23.534   7.364
 3998POPC   NC351695  39.215  39.198   5.564
 3998POPC   PO451696  39.190  39.222   5.864
 3998POPC   GL151697  39.240  39.260   6.164
 3998POPC   GL251698  39.149  39.328   6.164
 3998POPC   C1A51699  39.239  39.215   6.464
 3998POPC   D2A51700  39.268  39.276   6.764
 3998POPC   C3A51701  39.259  39.278   7.064
 3998POPC   C4A51702  39.203  39.209   7.364
 3998POPC   C1B51703  39.080  39.492   6.464
 3998POPC   C2B51704  39.084  39.482   6.764
 3998POPC   C3B51705  39.149  39.498   7.064
 3998POPC   C4B51706  39.115  39.473   7.364
 3999POPC   NC351707  12.802   9.725   5.564
 3999POPC   PO451708  12.897   9.754   5.864
 3999POPC   GL151709  12.859   9.789   6.164
 3999POPC   GL251710  12.754   9.812   6.164
 3999POPC   C1A51711  12.878   9.790   6.464
 3999POPC   D2A51712  12.873   9.743   6.764
 3999POPC   C3A51713  12.885   9.752   7.064
 3999POPC   C4A51714  12.878   9.707   7.364
 3999POPC   C1B51715  12.669   9.907   6.464
 3999POPC   C2B51716  12.668   9.886   6.764
 3999POPC   C3B51717  12.624   9.886   7.064
 3999POPC   C4B51718  12.661   9.894   7.364
 4000POPC   NC351719   5.845  43.868   5.564
 4000POPC   PO451720   5.897  43.859   5.864
 4000POPC   GL151721   5.878  43.886   6.164
 4000POPC   GL251722   5.948  43.797   6.164
 4000POPC   C1A51723   5.916  43.886   6.464
 4000POPC   D2A51724   5.902  43.874   6.764
 4000POPC   C3A51725   5.888  43.914   7.064
 4000POPC   C4A51726   5.903  43.883   7.364
 4000POPC   C1B51727   6.017  43.700   6.464
 4000POPC   C2B51728   6.021  43.742   6.764
 4000POPC   C3B51729   6.067  43.693   7.064
 4000POPC   C4B51730   6.056  43.679   7.364
 4001POPC   NC351731  25.307  34.567   5.564
 4001POPC   PO451732  25.249  34.547   5.864
 4001POPC   GL151733  25.259  34.567   6.164
 4001POPC   GL251734  25.439  34.536   6.164
 4001POPC   C1A51735  25.293  34.613   6.464
 4001POPC   D2A51736  25.304  34.619   6.764
 4001POPC   C3A51737  25.271  34.528   7.064
 4001POPC   C4A51738  25.220  34.565   7.364
 4001POPC   C1B51739  25.531  34.599   6.464
 4001POPC   C2B51740  25.555  34.508   6.764
 4001POPC   C3B51741  25.506  34.514   7.064
 4001POPC   C4B51742  25.558  34.558   7.364
 4002POPC   NC351743  22.949  40.006   5.564
 4002POPC   PO451744  22.905  39.990   5.864
 4002POPC   GL151745  22.922  39.974   6.164
 4002POPC   GL251746  22.989  39.955   6.164
 4002POPC   C1A51747  22.949  39.974   6.464
 4002POPC   D2A51748  22.921  40.009   6.764
 4002POPC   C3A51749  22.902  40.053   7.064
 4002POPC   C4A51750  22.947  40.006   7.364
 4002POPC   C1B51751  23.134  39.829   6.464
 4002POPC   C2B51752  23.102  39.844   6.764
 4002POPC   C3B51753  23.133  39.871   7.064
 4002POPC   C4B51754  23.152  39.803   7.364
 4003POPC   NC351755  21.353  24.448   5.564
 4003POPC   PO451756  21.375  24.505   5.864
 4003POPC   GL151757  21.353  24.470   6.164
 4003POPC   GL251758  21.320  24.417   6.164
 4003POPC   C1A51759  21.379  24.517   6.464
 4003POPC   D2A51760  21.411  24.487   6.764
 4003POPC   C3A51761  21.372  24.502   7.064
 4003POPC   C4A51762  21.345  24.530   7.364
 4003POPC   C1B51763  21.250  24.257   6.464
 4003POPC   C2B51764  21.271  24.300   6.764
 4003POPC   C3B51765  21.231  24.297   7.064
 4003POPC   C4B51766  21.279  24.253   7.364
 4004POPC   NC351767  26.040  11.344   5.564
 4004POPC   PO451768  26.038  11.321   5.864
 4004POPC   GL151769  26.032  11.279   6.164
 4004POPC   GL251770  26.049  11.377   6.164
 4004POPC   C1A51771  26.007  11.334   6.464
 4004POPC   D2A51772  26.065  11.263   6.764
 4004POPC   C3A51773  26.032  11.264   7.064
 4004POPC   C4A51774  26.017  11.299   7.364
 4004POPC   C1B51775  25.995  11.535   6.464
 4004POPC   C2B51776  26.016  11.503   6.764
 4004POPC   C3B51777  26.018  11.557   7.064
 4004POPC   C4B51778  26.013  11.505   7.364
 4005POPC   NC351779  24.510  26.053   5.564
 4005POPC   PO451780  24.500  26.060   5.864
 4005POPC   GL151781  24.440  26.002   6.164
 4005POPC   GL251782  24.405  25.889   6.164
 4005POPC   C1A51783  24.531  26.023   6.464
 4005POPC   D2A51784  24.509  26.032   6.764
 4005POPC   C3A51785  24.506  25.995   7.064
 4005POPC   C4A51786  24.461  26.078   7.364
 4005POPC   C1B51787  24.421  25.825   6.464
 4005POPC   C2B51788  24.442  25.824   6.764
 4005POPC   C3B51789  24.454  25.781   7.064
 4005POPC   C4B51790  24.440  25.783   7.364
 4006POPC   NC351791   2.762  25.262   5.564
 4006POPC   PO451792   2.717  25.259   5.864
 4006POPC   GL151793   2.735  25.263   6.164
 4006POPC   GL251794   2.876  25.276   6.164
 4006POPC   C1A51795   2.768  25.290   6.464
 4006POPC   D2A51796   2.805  25.312   6.764
 4006POPC   C3A51797   2.795  25.244   7.064
 4006POPC   C4A51798   2.748  25.297   7.364
 4006POPC   C1B51799   2.995  25.236   6.464
 4006POPC   C2B51800   3.007  25.250   6.764
 4006POPC   C3B51801   2.988  25.281   7.064
 4006POPC   C4B51802   3.001  25.211   7.364
 4007POPC   NC351803  15.935  22.133   5.564
 4007POPC   PO451804  15.907  22.129   5.864
 4007POPC   GL151805  15.970  22.197   6.164
 4007POPC   GL251806  15.951  22.257   6.164
 4007POPC   C1A51807  15.908  22.114   6.464
 4007POPC   D2A51808  15.992  22.144   6.764
 4007POPC   C3A51809  15.944  22.133   7.064
 4007POPC   C4A51810  15.959  22.212   7.364
 4007POPC   C1B51811  15.879  22.406   6.464
 4007POPC   C2B51812  15.928  22.429   6.764
 4007POPC   C3B51813  15.948  22.368   7.064
 4007POPC   C4B51814  15.926  22.444   7.364
 4008POPC   NC351815  43.107  43.071   5.564
 4008POPC   PO451816  43.144  43.087   5.864
 4008POPC   GL151817  43.148  43.088   6.164
 4008POPC   GL251818  43.147  43.208   6.164
 4008POPC   C1A51819  43.160  43.112   6.464
 4008POPC   D2A51820  43.080  43.127   6.764
 4008POPC   C3A51821  43.077  43.070   7.064
 4008POPC   C4A51822  43.124  43.160   7.364
 4008POPC   C1B51823  43.106  43.331   6.464
 4008POPC   C2B51824  43.135  43.361   6.764
 4008POPC   C3B51825  43.113  43.403   7.064
 4008POPC   C4B51826  43.122  43.402   7.364
 4009POPC   NC351827   4.308  24.478   5.564
 4009POPC   PO451828   4.284  24.484   5.864
 4009POPC   GL151829   4.291  24.468   6.164
 4009POPC   GL251830   4.365  24.333   6.164
 4009POPC   C1A51831   4.297  24.460   6.464
 4009POPC   D2A51832   4.278  24.454   6.764
 4009POPC   C3A51833   4.317  24.514   7.064
 4009POPC   C4A51834   4.336  24.471   7.364
 4009POPC   C1B51835   4.457  24.274   6.464
 4009POPC   C2B51836   4.424  24.223   6.764
 4009POPC   C3B51837   4.390  24.209   7.064
 4009POPC   C4B51838   4.426  24.307   7.364
 4010POPC   NC351839  15.145   8.182   5.564
 4010POPC   PO451840  15.198   8.213   5.864
 4010POPC   GL151841  15.224   8.164   6.164
 4010POPC   GL251842  15.311   8.134   6.164
 4010POPC   C1A51843  15.132   8.199   6.464
 4010POPC   D2A51844  15.176   8.225   6.764
 4010POPC   C3A51845  15.151   8.185   7.064
 4010POPC   C4A51846  15.222   8.242   7.364
 4010POPC   C1B51847  15.428   8.146   6.464
 4010POPC   C2B51848  15.440   8.131   6.764
 4010POPC   C3B51849  15.423   8.209   7.064
 4010POPC   C4B51850  15.411   8.142   7.364
 4011POPC   NC351851  44.654   8.968   5.564
 4011POPC   PO451852  44.700   8.981   5.864
 4011POPC   GL151853  44.690   8.968   6.164
 4011POPC   GL251854  44.717   9.056   6.164
 4011POPC   C1A51855  44.697   8.933   6.464
 4011POPC   D2A51856  44.711   8.980   6.764
 4011POPC   C3A51857  44.689   8.923   7.064
 4011POPC   C4A51858  44.695   9.017   7.364
 4011POPC   C1B51859  44.777   9.166   6.464
 4011POPC   C2B51860  44.753   9.175   6.764
 4011POPC   C3B51861  44.737   9.237   7.064
 4011POPC   C4B51862  44.761   9.203   7.364
 4012POPC   NC351863   2.011  40.740   5.564
 4012POPC   PO451864   2.017  40.771   5.864
 4012POPC   GL151865   1.964  40.798   6.164
 4012POPC   GL251866   1.869  40.671   6.164
 4012POPC   C1A51867   1.969  40.781   6.464
 4012POPC   D2A51868   1.951  40.774   6.764
 4012POPC   C3A51869   2.006  40.816   7.064
 4012POPC   C4A51870   2.017  40.781   7.364
 4012POPC   C1B51871   1.813  40.568   6.464
 4012POPC   C2B51872   1.805  40.598   6.764
 4012POPC   C3B51873   1.787  40.579   7.064
 4012POPC   C4B51874   1.769  40.631   7.364
 4013POPC   NC351875  13.674  23.689   5.564
 4013POPC   PO451876  13.624  23.761   5.864
 4013POPC   GL151877  13.609  23.728   6.164
 4013POPC   GL251878  13.519  23.660   6.164
 4013POPC   C1A51879  13.666  23.759   6.464
 4013POPC   D2A51880  13.629  23.732   6.764
 4013POPC   C3A51881  13.660  23.666   7.064
 4013POPC   C4A51882  13.578  23.740   7.364
 4013POPC   C1B51883  13.450  23.499   6.464
 4013POPC   C2B51884  13.474  23.537   6.764
 4013POPC   C3B51885  13.449  23.537   7.064
 4013POPC   C4B51886  13.443  23.508   7.364
 4014POPC   NC351887  42.377  43.921   5.564
 4014POPC   PO451888  42.311  43.875   5.864
 4014POPC   GL151889  42.320  43.921   6.164
 4014POPC   GL251890  42.218  43.805   6.164
 4014POPC   C1A51891  42.365  43.927   6.464
 4014POPC   D2A51892  42.332  43.929   6.764
 4014POPC   C3A51893  42.356  43.927   7.064
 4014POPC   C4A51894  42.339  43.861   7.364
 4014POPC   C1B51895  42.175  43.713   6.464
 4014POPC   C2B51896  42.148  43.711   6.764
 4014POPC   C3B51897  42.231  43.630   7.064
 4014POPC   C4B51898  42.211  43.643   7.364
 4015POPC   NC351899   5.847  42.299   5.564
 4015POPC   PO451900   5.858  42.287   5.864
 4015POPC   GL151901   5.846  42.383   6.164
 4015POPC   GL251902   6.011  42.323   6.164
 4015POPC   C1A51903   5.839  42.298   6.464
 4015POPC   D2A51904   5.843  42.342   6.764
 4015POPC   C3A51905   5.878  42.331   7.064
 4015POPC   C4A51906   5.868  42.308   7.364
 4015POPC   C1B51907   6.157  42.286   6.464
 4015POPC   C2B51908   6.140  42.271   6.764
 4015POPC   C3B51909   6.162  42.298   7.064
 4015POPC   C4B51910   6.130  42.281   7.364
 4016POPC   NC351911  16.718  15.925   5.564
 4016POPC   PO451912  16.738  15.973   5.864
 4016POPC   GL151913  16.688  15.994   6.164
 4016POPC   GL251914  16.806  15.857   6.164
 4016POPC   C1A51915  16.746  15.976   6.464
 4016POPC   D2A51916  16.777  15.918   6.764
 4016POPC   C3A51917  16.762  15.907   7.064
 4016POPC   C4A51918  16.723  15.940   7.364
 4016POPC   C1B51919  16.817  15.773   6.464
 4016POPC   C2B51920  16.833  15.716   6.764
 4016POPC   C3B51921  16.882  15.730   7.064
 4016POPC   C4B51922  16.871  15.700   7.364
 4017POPC   NC351923  39.987   1.941   5.564
 4017POPC   PO451924  40.050   1.965   5.864
 4017POPC   GL151925  40.048   1.995   6.164
 4017POPC   GL251926  40.018   1.871   6.164
 4017POPC   C1A51927  40.034   2.023   6.464
 4017POPC   D2A51928  39.980   2.009   6.764
 4017POPC   C3A51929  39.986   2.000   7.064
 4017POPC   C4A51930  39.958   2.004   7.364
 4017POPC   C1B51931  39.921   1.714   6.464
 4017POPC   C2B51932  40.000   1.729   6.764
 4017POPC   C3B51933  39.956   1.717   7.064
 4017POPC   C4B51934  39.979   1.699   7.364
 4018POPC   NC351935  35.303  41.523   5.564
 4018POPC   PO451936  35.368  41.603   5.864
 4018POPC   GL151937  35.361  41.560   6.164
 4018POPC   GL251938  35.232  41.539   6.164
 4018POPC   C1A51939  35.392  41.573   6.464
 4018POPC   D2A51940  35.356  41.572   6.764
 4018POPC   C3A51941  35.386  41.528   7.064
 4018POPC   C4A51942  35.370  41.576   7.364
 4018POPC   C1B51943  35.106  41.411   6.464
 4018POPC   C2B51944  35.138  41.461   6.764
 4018POPC   C3B51945  35.087  41.450   7.064
 4018POPC   C4B51946  35.126  41.444   7.364
 4019POPC   NC351947  43.877  42.353   5.564
 4019POPC   PO451948  43.922  42.379   5.864
 4019POPC   GL151949  43.882  42.318   6.164
 4019POPC   GL251950  43.823  42.439   6.164
 4019POPC   C1A51951  43.872  42.292   6.464
 4019POPC   D2A51952  43.925  42.320   6.764
 4019POPC   C3A51953  43.932  42.338   7.064
 4019POPC   C4A51954  43.880  42.335   7.364
 4019POPC   C1B51955  43.814  42.512   6.464
 4019POPC   C2B51956  43.780  42.586   6.764
 4019POPC   C3B51957  43.724  42.543   7.064
 4019POPC   C4B51958  43.724  42.580   7.364
 4020POPC   NC351959  36.927  17.492   5.564
 4020POPC   PO451960  36.928  17.510   5.864
 4020POPC   GL151961  36.923  17.516   6.164
 4020POPC   GL251962  36.769  17.537   6.164
 4020POPC   C1A51963  36.932  17.480   6.464
 4020POPC   D2A51964  36.925  17.533   6.764
 4020POPC   C3A51965  36.911  17.481   7.064
 4020POPC   C4A51966  36.897  17.459   7.364
 4020POPC   C1B51967  36.699  17.481   6.464
 4020POPC   C2B51968  36.655  17.487   6.764
 4020POPC   C3B51969  36.649  17.477   7.064
 4020POPC   C4B51970  36.606  17.527   7.364
 4021POPC   NC351971  34.569  12.830   5.564
 4021POPC   PO451972  34.567  12.892   5.864
 4021POPC   GL151973  34.531  12.822   6.164
 4021POPC   GL251974  34.428  12.880   6.164
 4021POPC   C1A51975  34.581  12.884   6.464
 4021POPC   D2A51976  34.580  12.811   6.764
 4021POPC   C3A51977  34.584  12.810   7.064
 4021POPC   C4A51978  34.584  12.826   7.364
 4021POPC   C1B51979  34.358  12.937   6.464
 4021POPC   C2B51980  34.337  12.954   6.764
 4021POPC   C3B51981  34.341  12.951   7.064
 4021POPC   C4B51982  34.314  12.942   7.364
 4022POPC   NC351983  22.148  34.530   5.564
 4022POPC   PO451984  22.118  34.592   5.864
 4022POPC   GL151985  22.190  34.529   6.164
 4022POPC   GL251986  22.077  34.503   6.164
 4022POPC   C1A51987  22.165  34.614   6.464
 4022POPC   D2A51988  22.182  34.606   6.764
 4022POPC   C3A51989  22.140  34.528   7.064
 4022POPC   C4A51990  22.162  34.527   7.364
 4022POPC   C1B51991  21.960  34.462   6.464
 4022POPC   C2B51992  21.995  34.415   6.764
 4022POPC   C3B51993  21.935  34.402   7.064
 4022POPC   C4B51994  21.988  34.444   7.364
 4023POPC   NC351995  39.974  43.878   5.564
 4023POPC   PO451996  39.986  43.855   5.864
 4023POPC   GL151997  39.963  43.887   6.164
 4023POPC   GL251998  40.106  43.923   6.164
 4023POPC   C1A51999  40.028  43.894   6.464
 4023POPC   D2A52000  39.970  43.928   6.764
 4023POPC   C3A52001  40.041  43.933   7.064
 4023POPC   C4A52002  39.973  43.847   7.364
 4023POPC   C1B52003  40.243  43.897   6.464
 4023POPC   C2B52004  40.212  43.924   6.764
 4023POPC   C3B52005  40.278  43.989   7.064
 4023POPC   C4B52006  40.268  43.975   7.364
 4024POPC   NC352007  40.034  40.739   5.564
 4024POPC   PO452008  39.980  40.735   5.864
 4024POPC   GL152009  40.045  40.737   6.164
 4024POPC   GL252010  39.918  40.813   6.164
 4024POPC   C1A52011  39.977  40.784   6.464
 4024POPC   D2A52012  39.979  40.781   6.764
 4024POPC   C3A52013  39.986  40.771   7.064
 4024POPC   C4A52014  40.039  40.757   7.364
 4024POPC   C1B52015  39.784  40.890   6.464
 4024POPC   C2B52016  39.762  40.937   6.764
 4024POPC   C3B52017  39.790  40.935   7.064
 4024POPC   C4B52018  39.776  40.886   7.364
 4025POPC   NC352019  43.103  37.630   5.564
 4025POPC   PO452020  43.153  37.638   5.864
 4025POPC   GL152021  43.111  37.665   6.164
 4025POPC   GL252022  43.199  37.536   6.164
 4025POPC   C1A52023  43.084  37.715   6.464
 4025POPC   D2A52024  43.131  37.724   6.764
 4025POPC   C3A52025  43.074  37.644   7.064
 4025POPC   C4A52026  43.079  37.642   7.364
 4025POPC   C1B52027  43.193  37.440   6.464
 4025POPC   C2B52028  43.249  37.491   6.764
 4025POPC   C3B52029  43.171  37.500   7.064
 4025POPC   C4B52030  43.203  37.433   7.364
 4026POPC   NC352031  17.544  23.682   5.564
 4026POPC   PO452032  17.549  23.704   5.864
 4026POPC   GL152033  17.543  23.665   6.164
 4026POPC   GL252034  17.603  23.798   6.164
 4026POPC   C1A52035  17.554  23.712   6.464
 4026POPC   D2A52036  17.549  23.729   6.764
 4026POPC   C3A52037  17.491  23.710   7.064
 4026POPC   C4A52038  17.519  23.671   7.364
 4026POPC   C1B52039  17.646  23.883   6.464
 4026POPC   C2B52040  17.690  23.924   6.764
 4026POPC   C3B52041  17.657  23.878   7.064
 4026POPC   C4B52042  17.704  23.896   7.364
 4027POPC   NC352043   5.055   4.276   5.564
 4027POPC   PO452044   5.064   4.350   5.864
 4027POPC   GL152045   5.138   4.345   6.164
 4027POPC   GL252046   5.083   4.153   6.164
 4027POPC   C1A52047   5.121   4.302   6.464
 4027POPC   D2A52048   5.074   4.310   6.764
 4027POPC   C3A52049   5.130   4.324   7.064
 4027POPC   C4A52050   5.109   4.283   7.364
 4027POPC   C1B52051   5.087   4.037   6.464
 4027POPC   C2B52052   5.170   4.116   6.764
 4027POPC   C3B52053   5.109   4.038   7.064
 4027POPC   C4B52054   5.107   4.083   7.364
 4028POPC   NC352055  19.826  12.830   5.564
 4028POPC   PO452056  19.826  12.876   5.864
 4028POPC   GL152057  19.880  12.898   6.164
 4028POPC   GL252058  19.726  12.737   6.164
 4028POPC   C1A52059  19.803  12.859   6.464
 4028POPC   D2A52060  19.878  12.823   6.764
 4028POPC   C3A52061  19.849  12.897   7.064
 4028POPC   C4A52062  19.838  12.829   7.364
 4028POPC   C1B52063  19.706  12.620   6.464
 4028POPC   C2B52064  19.731  12.681   6.764
 4028POPC   C3B52065  19.659  12.700   7.064
 4028POPC   C4B52066  19.701  12.684   7.364
 4029POPC   NC352067  20.641  29.109   5.564
 4029POPC   PO452068  20.658  29.095   5.864
 4029POPC   GL152069  20.572  29.165   6.164
 4029POPC   GL252070  20.638  29.006   6.164
 4029POPC   C1A52071  20.628  29.155   6.464
 4029POPC   D2A52072  20.659  29.181   6.764
 4029POPC   C3A52073  20.647  29.153   7.064
 4029POPC   C4A52074  20.607  29.172   7.364
 4029POPC   C1B52075  20.619  28.950   6.464
 4029POPC   C2B52076  20.629  28.900   6.764
 4029POPC   C3B52077  20.648  28.944   7.064
 4029POPC   C4B52078  20.647  28.870   7.364
 4030POPC   NC352079  33.046  15.167   5.564
 4030POPC   PO452080  33.038  15.212   5.864
 4030POPC   GL152081  32.977  15.170   6.164
 4030POPC   GL252082  32.935  15.050   6.164
 4030POPC   C1A52083  32.974  15.145   6.464
 4030POPC   D2A52084  32.986  15.180   6.764
 4030POPC   C3A52085  33.035  15.167   7.064
 4030POPC   C4A52086  32.994  15.190   7.364
 4030POPC   C1B52087  32.852  15.005   6.464
 4030POPC   C2B52088  32.839  14.978   6.764
 4030POPC   C3B52089  32.861  15.031   7.064
 4030POPC   C4B52090  32.823  15.038   7.364
 4031POPC   NC352091  33.796   6.652   5.564
 4031POPC   PO452092  33.803   6.602   5.864
 4031POPC   GL152093  33.813   6.677   6.164
 4031POPC   GL252094  33.702   6.551   6.164
 4031POPC   C1A52095  33.765   6.650   6.464
 4031POPC   D2A52096  33.799   6.681   6.764
 4031POPC   C3A52097  33.847   6.649   7.064
 4031POPC   C4A52098  33.754   6.671   7.364
 4031POPC   C1B52099  33.547   6.536   6.464
 4031POPC   C2B52100  33.601   6.500   6.764
 4031POPC   C3B52101  33.572   6.573   7.064
 4031POPC   C4B52102  33.612   6.530   7.364
 4032POPC   NC352103  13.645   1.183   5.564
 4032POPC   PO452104  13.580   1.252   5.864
 4032POPC   GL152105  13.673   1.257   6.164
 4032POPC   GL252106  13.508   1.144   6.164
 4032POPC   C1A52107  13.625   1.261   6.464
 4032POPC   D2A52108  13.582   1.217   6.764
 4032POPC   C3A52109  13.616   1.199   7.064
 4032POPC   C4A52110  13.657   1.190   7.364
 4032POPC   C1B52111  13.374   1.160   6.464
 4032POPC   C2B52112  13.408   1.114   6.764
 4032POPC   C3B52113  13.362   1.086   7.064
 4032POPC   C4B52114  13.434   1.123   7.364
 4033POPC   NC352115  19.026  10.531   5.564
 4033POPC   PO452116  19.089  10.565   5.864
 4033POPC   GL152117  19.082  10.558   6.164
 4033POPC   GL252118  18.957  10.525   6.164
 4033POPC   C1A52119  19.080  10.498   6.464
 4033POPC   D2A52120  19.106  10.482   6.764
 4033POPC   C3A52121  19.100  10.480   7.064
 4033POPC   C4A52122  19.018  10.564   7.364
 4033POPC   C1B52123  18.794  10.491   6.464
 4033POPC   C2B52124  18.794  10.504   6.764
 4033POPC   C3B52125  18.817  10.454   7.064
 4033POPC   C4B52126  18.781  10.496   7.364
 4034POPC   NC352127   5.076  12.820   5.564
 4034POPC   PO452128   5.094  12.886   5.864
 4034POPC   GL152129   5.067  12.841   6.164
 4034POPC   GL252130   4.987  12.757   6.164
 4034POPC   C1A52131   5.078  12.887   6.464
 4034POPC   D2A52132   5.057  12.874   6.764
 4034POPC   C3A52133   5.084  12.854   7.064
 4034POPC   C4A52134   5.129  12.889   7.364
 4034POPC   C1B52135   4.894  12.702   6.464
 4034POPC   C2B52136   4.946  12.649   6.764
 4034POPC   C3B52137   4.899  12.712   7.064
 4034POPC   C4B52138   4.911  12.682   7.364
 4035POPC   NC352139   2.761  22.962   5.564
 4035POPC   PO452140   2.798  22.938   5.864
 4035POPC   GL152141   2.733  22.960   6.164
 4035POPC   GL252142   2.872  22.938   6.164
 4035POPC   C1A52143   2.801  22.917   6.464
 4035POPC   D2A52144   2.771  22.975   6.764
 4035POPC   C3A52145   2.760  22.984   7.064
 4035POPC   C4A52146   2.751  22.951   7.364
 4035POPC   C1B52147   3.017  22.991   6.464
 4035POPC   C2B52148   2.977  22.975   6.764
 4035POPC   C3B52149   3.027  22.990   7.064
 4035POPC   C4B52150   3.018  22.977   7.364
 4036POPC   NC352151  32.277  44.638   5.564
 4036POPC   PO452152  32.199  44.672   5.864
 4036POPC   GL152153  32.250  44.672   6.164
 4036POPC   GL252154  32.146  44.567   6.164
 4036POPC   C1A52155  32.229  44.709   6.464
 4036POPC   D2A52156  32.276  44.651   6.764
 4036POPC   C3A52157  32.237  44.710   7.064
 4036POPC   C4A52158  32.225  44.642   7.364
 4036POPC   C1B52159  32.033  44.477   6.464
 4036POPC   C2B52160  32.021  44.505   6.764
 4036POPC   C3B52161  32.021  44.514   7.064
 4036POPC   C4B52162  32.078  44.519   7.364
 4037POPC   NC352163  33.026  17.494   5.564
 4037POPC   PO452164  32.992  17.510   5.864
 4037POPC   GL152165  33.059  17.524   6.164
 4037POPC   GL252166  32.941  17.469   6.164
 4037POPC   C1A52167  33.068  17.551   6.464
 4037POPC   D2A52168  33.019  17.495   6.764
 4037POPC   C3A52169  33.021  17.519   7.064
 4037POPC   C4A52170  32.997  17.499   7.364
 4037POPC   C1B52171  32.814  17.406   6.464
 4037POPC   C2B52172  32.831  17.377   6.764
 4037POPC   C3B52173  32.777  17.358   7.064
 4037POPC   C4B52174  32.859  17.400   7.364
 4038POPC   NC352175  26.072  10.518   5.564
 4038POPC   PO452176  26.023  10.493   5.864
 4038POPC   GL152177  26.048  10.524   6.164
 4038POPC   GL252178  26.183  10.573   6.164
 4038POPC   C1A52179  26.062  10.526   6.464
 4038POPC   D2A52180  26.028  10.535   6.764
 4038POPC   C3A52181  26.002  10.561   7.064
 4038POPC   C4A52182  26.079  10.559   7.364
 4038POPC   C1B52183  26.324  10.556   6.464
 4038POPC   C2B52184  26.270  10.600   6.764
 4038POPC   C3B52185  26.268  10.556   7.064
 4038POPC   C4B52186  26.277  10.562   7.364
 4039POPC   NC352187  44.655  12.065   5.564
 4039POPC   PO452188  44.706  12.083   5.864
 4039POPC   GL152189  44.676  12.074   6.164
 4039POPC   GL252190  44.539  12.149   6.164
 4039POPC   C1A52191  44.672  12.046   6.464
 4039POPC   D2A52192  44.648  12.087   6.764
 4039POPC   C3A52193  44.621  12.059   7.064
 4039POPC   C4A52194  44.689  12.032   7.364
 4039POPC   C1B52195  44.465  12.268   6.464
 4039POPC   C2B52196  44.491  12.244   6.764
 4039POPC   C3B52197  44.451  12.246   7.064
 4039POPC   C4B52198  44.472  12.299   7.364
 4040POPC   NC352199  23.731  12.875   5.564
 4040POPC   PO452200  23.729  12.805   5.864
 4040POPC   GL152201  23.712  12.886   6.164
 4040POPC   GL252202  23.556  12.918   6.164
 4040POPC   C1A52203  23.755  12.847   6.464
 4040POPC   D2A52204  23.691  12.811   6.764
 4040POPC   C3A52205  23.742  12.807   7.064
 4040POPC   C4A52206  23.711  12.836   7.364
 4040POPC   C1B52207  23.439  12.940   6.464
 4040POPC   C2B52208  23.430  12.911   6.764
 4040POPC   C3B52209  23.482  12.941   7.064
 4040POPC   C4B52210  23.435  12.914   7.364
 4041POPC   NC352211  17.533  22.207   5.564
 4041POPC   PO452212  17.533  22.192   5.864
 4041POPC   GL152213  17.481  22.200   6.164
 4041POPC   GL252214  17.412  22.225   6.164
 4041POPC   C1A52215  17.474  22.210   6.464
 4041POPC   D2A52216  17.501  22.141   6.764
 4041POPC   C3A52217  17.494  22.177   7.064
 4041POPC   C4A52218  17.484  22.194   7.364
 4041POPC   C1B52219  17.276  22.272   6.464
 4041POPC   C2B52220  17.260  22.203   6.764
 4041POPC   C3B52221  17.275  22.209   7.064
 4041POPC   C4B52222  17.289  22.191   7.364
 4042POPC   NC352223  26.061  33.757   5.564
 4042POPC   PO452224  26.079  33.797   5.864
 4042POPC   GL152225  26.050  33.805   6.164
 4042POPC   GL252226  26.129  33.691   6.164
 4042POPC   C1A52227  25.994  33.791   6.464
 4042POPC   D2A52228  26.009  33.847   6.764
 4042POPC   C3A52229  26.088  33.796   7.064
 4042POPC   C4A52230  26.067  33.810   7.364
 4042POPC   C1B52231  26.242  33.605   6.464
 4042POPC   C2B52232  26.233  33.581   6.764
 4042POPC   C3B52233  26.203  33.607   7.064
 4042POPC   C4B52234  26.174  33.615   7.364
 4043POPC   NC352235  22.898  14.434   5.564
 4043POPC   PO452236  22.892  14.380   5.864
 4043POPC   GL152237  22.894  14.434   6.164
 4043POPC   GL252238  22.895  14.303   6.164
 4043POPC   C1A52239  22.894  14.445   6.464
 4043POPC   D2A52240  22.893  14.355   6.764
 4043POPC   C3A52241  22.916  14.355   7.064
 4043POPC   C4A52242  22.914  14.435   7.364
 4043POPC   C1B52243  22.758  14.231   6.464
 4043POPC   C2B52244  22.765  14.161   6.764
 4043POPC   C3B52245  22.800  14.251   7.064
 4043POPC   C4B52246  22.773  14.186   7.364
 4044POPC   NC352247  39.230  38.452   5.564
 4044POPC   PO452248  39.212  38.472   5.864
 4044POPC   GL152249  39.220  38.503   6.164
 4044POPC   GL252250  39.317  38.375   6.164
 4044POPC   C1A52251  39.248  38.471   6.464
 4044POPC   D2A52252  39.257  38.496   6.764
 4044POPC   C3A52253  39.193  38.424   7.064
 4044POPC   C4A52254  39.258  38.459   7.364
 4044POPC   C1B52255  39.391  38.209   6.464
 4044POPC   C2B52256  39.379  38.226   6.764
 4044POPC   C3B52257  39.360  38.270   7.064
 4044POPC   C4B52258  39.327  38.243   7.364
 4045POPC   NC352259   7.420  29.899   5.564
 4045POPC   PO452260   7.437  29.934   5.864
 4045POPC   GL152261   7.374  29.876   6.164
 4045POPC   GL252262   7.418  30.040   6.164
 4045POPC   C1A52263   7.439  29.923   6.464
 4045POPC   D2A52264   7.467  29.902   6.764
 4045POPC   C3A52265   7.397  29.924   7.064
 4045POPC   C4A52266   7.390  29.950   7.364
 4045POPC   C1B52267   7.291  30.171   6.464
 4045POPC   C2B52268   7.324  30.180   6.764
 4045POPC   C3B52269   7.364  30.121   7.064
 4045POPC   C4B52270   7.339  30.113   7.364
 4046POPC   NC352271   8.936  12.868   5.564
 4046POPC   PO452272   8.987  12.866   5.864
 4046POPC   GL152273   8.983  12.827   6.164
 4046POPC   GL252274   9.062  12.822   6.164
 4046POPC   C1A52275   8.938  12.893   6.464
 4046POPC   D2A52276   8.984  12.871   6.764
 4046POPC   C3A52277   8.937  12.891   7.064
 4046POPC   C4A52278   8.976  12.860   7.364
 4046POPC   C1B52279   9.264  12.878   6.464
 4046POPC   C2B52280   9.196  12.874   6.764
 4046POPC   C3B52281   9.205  12.908   7.064
 4046POPC   C4B52282   9.244  12.937   7.364
 4047POPC   NC352283  26.864  38.475   5.564
 4047POPC   PO452284  26.803  38.440   5.864
 4047POPC   GL152285  26.863  38.442   6.164
 4047POPC   GL252286  26.760  38.590   6.164
 4047POPC   C1A52287  26.841  38.409   6.464
 4047POPC   D2A52288  26.808  38.468   6.764
 4047POPC   C3A52289  26.814  38.435   7.064
 4047POPC   C4A52290  26.840  38.496   7.364
 4047POPC   C1B52291  26.660  38.628   6.464
 4047POPC   C2B52292  26.624  38.671   6.764
 4047POPC   C3B52293  26.643  38.666   7.064
 4047POPC   C4B52294  26.649  38.682   7.364
 4048POPC   NC352295  40.024  11.318   5.564
 4048POPC   PO452296  39.989  11.260   5.864
 4048POPC   GL152297  40.034  11.330   6.164
 4048POPC   GL252298  40.147  11.358   6.164
 4048POPC   C1A52299  40.043  11.268   6.464
 4048POPC   D2A52300  39.958  11.325   6.764
 4048POPC   C3A52301  39.991  11.309   7.064
 4048POPC   C4A52302  40.055  11.323   7.364
 4048POPC   C1B52303  40.228  11.370   6.464
 4048POPC   C2B52304  40.238  11.381   6.764
 4048POPC   C3B52305  40.236  11.367   7.064
 4048POPC   C4B52306  40.226  11.352   7.364
 4049POPC   NC352307  12.831   1.956   5.564
 4049POPC   PO452308  12.810   2.036   5.864
 4049POPC   GL152309  12.867   2.020   6.164
 4049POPC   GL252310  12.944   2.006   6.164
 4049POPC   C1A52311  12.884   2.007   6.464
 4049POPC   D2A52312  12.900   1.989   6.764
 4049POPC   C3A52313  12.841   2.019   7.064
 4049POPC   C4A52314  12.818   2.023   7.364
 4049POPC   C1B52315  13.054   2.022   6.464
 4049POPC   C2B52316  13.124   2.029   6.764
 4049POPC   C3B52317  13.083   2.043   7.064
 4049POPC   C4B52318  13.079   2.077   7.364
 4050POPC   NC352319  35.368  37.672   5.564
 4050POPC   PO452320  35.345  37.660   5.864
 4050POPC   GL152321  35.399  37.691   6.164
 4050POPC   GL252322  35.406  37.636   6.164
 4050POPC   C1A52323  35.359  37.704   6.464
 4050POPC   D2A52324  35.387  37.657   6.764
 4050POPC   C3A52325  35.352  37.689   7.064
 4050POPC   C4A52326  35.303  37.697   7.364
 4050POPC   C1B52327  35.529  37.539   6.464
 4050POPC   C2B52328  35.569  37.515   6.764
 4050POPC   C3B52329  35.541  37.487   7.064
 4050POPC   C4B52330  35.507  37.522   7.364
 4051POPC   NC352331  12.061  29.121   5.564
 4051POPC   PO452332  12.057  29.096   5.864
 4051POPC   GL152333  12.048  29.151   6.164
 4051POPC   GL252334  12.229  29.110   6.164
 4051POPC   C1A52335  12.062  29.192   6.464
 4051POPC   D2A52336  12.100  29.183   6.764
 4051POPC   C3A52337  12.070  29.169   7.064
 4051POPC   C4A52338  12.097  29.097   7.364
 4051POPC   C1B52339  12.316  29.027   6.464
 4051POPC   C2B52340  12.280  29.097   6.764
 4051POPC   C3B52341  12.349  29.070   7.064
 4051POPC   C4B52342  12.355  29.054   7.364
 4052POPC   NC352343  26.810   9.792   5.564
 4052POPC   PO452344  26.815   9.774   5.864
 4052POPC   GL152345  26.800   9.773   6.164
 4052POPC   GL252346  26.890   9.597   6.164
 4052POPC   C1A52347  26.842   9.761   6.464
 4052POPC   D2A52348  26.770   9.723   6.764
 4052POPC   C3A52349  26.835   9.770   7.064
 4052POPC   C4A52350  26.788   9.738   7.364
 4052POPC   C1B52351  26.877   9.554   6.464
 4052POPC   C2B52352  26.854   9.478   6.764
 4052POPC   C3B52353  26.891   9.483   7.064
 4052POPC   C4B52354  26.872   9.530   7.364
 4053POPC   NC352355  21.373  12.864   5.564
 4053POPC   PO452356  21.358  12.842   5.864
 4053POPC   GL152357  21.402  12.888   6.164
 4053POPC   GL252358  21.540  12.901   6.164
 4053POPC   C1A52359  21.383  12.877   6.464
 4053POPC   D2A52360  21.354  12.895   6.764
 4053POPC   C3A52361  21.396  12.807   7.064
 4053POPC   C4A52362  21.416  12.883   7.364
 4053POPC   C1B52363  21.620  12.871   6.464
 4053POPC   C2B52364  21.607  12.939   6.764
 4053POPC   C3B52365  21.613  12.897   7.064
 4053POPC   C4B52366  21.633  12.857   7.364
 4054POPC   NC352367   6.653   5.085   5.564
 4054POPC   PO452368   6.673   5.116   5.864
 4054POPC   GL152369   6.606   5.074   6.164
 4054POPC   GL252370   6.528   5.177   6.164
 4054POPC   C1A52371   6.636   5.142   6.464
 4054POPC   D2A52372   6.601   5.075   6.764
 4054POPC   C3A52373   6.606   5.068   7.064
 4054POPC   C4A52374   6.687   5.054   7.364
 4054POPC   C1B52375   6.376   5.158   6.464
 4054POPC   C2B52376   6.382   5.211   6.764
 4054POPC   C3B52377   6.364   5.150   7.064
 4054POPC   C4B52378   6.419   5.144   7.364
 4055POPC   NC352379  26.796  26.788   5.564
 4055POPC   PO452380  26.849  26.786   5.864
 4055POPC   GL152381  26.822  26.794   6.164
 4055POPC   GL252382  26.906  26.899   6.164
 4055POPC   C1A52383  26.805  26.775   6.464
 4055POPC   D2A52384  26.859  26.793   6.764
 4055POPC   C3A52385  26.844  26.839   7.064
 4055POPC   C4A52386  26.782  26.825   7.364
 4055POPC   C1B52387  27.070  26.926   6.464
 4055POPC   C2B52388  27.020  26.896   6.764
 4055POPC   C3B52389  27.060  26.957   7.064
 4055POPC   C4B52390  27.047  26.909   7.364
 4056POPC   NC352391   9.737  39.270   5.564
 4056POPC   PO452392   9.706  39.241   5.864
 4056POPC   GL152393   9.742  39.187   6.164
 4056POPC   GL252394   9.769  39.061   6.164
 4056POPC   C1A52395   9.784  39.185   6.464
 4056POPC   D2A52396   9.758  39.207   6.764
 4056POPC   C3A52397   9.794  39.213   7.064
 4056POPC   C4A52398   9.767  39.212   7.364
 4056POPC   C1B52399   9.848  38.977   6.464
 4056POPC   C2B52400   9.774  38.975   6.764
 4056POPC   C3B52401   9.780  38.952   7.064
 4056POPC   C4B52402   9.813  38.965   7.364
 4057POPC   NC352403  29.142  13.625   5.564
 4057POPC   PO452404  29.177  13.605   5.864
 4057POPC   GL152405  29.126  13.653   6.164
 4057POPC   GL252406  29.211  13.657   6.164
 4057POPC   C1A52407  29.191  13.659   6.464
 4057POPC   D2A52408  29.120  13.630   6.764
 4057POPC   C3A52409  29.153  13.653   7.064
 4057POPC   C4A52410  29.123  13.603   7.364
 4057POPC   C1B52411  29.344  13.695   6.464
 4057POPC   C2B52412  29.360  13.748   6.764
 4057POPC   C3B52413  29.411  13.724   7.064
 4057POPC   C4B52414  29.351  13.754   7.364
 4058POPC   NC352415   4.339  11.275   5.564
 4058POPC   PO452416   4.333  11.339   5.864
 4058POPC   GL152417   4.324  11.322   6.164
 4058POPC   GL252418   4.240  11.283   6.164
 4058POPC   C1A52419   4.356  11.311   6.464
 4058POPC   D2A52420   4.292  11.277   6.764
 4058POPC   C3A52421   4.322  11.284   7.064
 4058POPC   C4A52422   4.276  11.282   7.364
 4058POPC   C1B52423   4.087  11.233   6.464
 4058POPC   C2B52424   4.048  11.291   6.764
 4058POPC   C3B52425   4.040  11.248   7.064
 4058POPC   C4B52426   4.047  11.280   7.364
 4059POPC   NC352427  43.921   9.714   5.564
 4059POPC   PO452428  43.918   9.735   5.864
 4059POPC   GL152429  43.844   9.747   6.164
 4059POPC   GL252430  43.975   9.597   6.164
 4059POPC   C1A52431  43.898   9.792   6.464
 4059POPC   D2A52432  43.876   9.719   6.764
 4059POPC   C3A52433  43.860   9.781   7.064
 4059POPC   C4A52434  43.922   9.703   7.364
 4059POPC   C1B52435  43.982   9.548   6.464
 4059POPC   C2B52436  43.996   9.500   6.764
 4059POPC   C3B52437  43.984   9.551   7.064
 4059POPC   C4B52438  43.931   9.526   7.364
 4060POPC   NC352439  33.041  42.345   5.564
 4060POPC   PO452440  33.020  42.374   5.864
 4060POPC   GL152441  33.001  42.338   6.164
 4060POPC   GL252442  33.057  42.489   6.164
 4060POPC   C1A52443  33.060  42.329   6.464
 4060POPC   D2A52444  33.059  42.373   6.764
 4060POPC   C3A52445  33.055  42.302   7.064
 4060POPC   C4A52446  33.031  42.381   7.364
 4060POPC   C1B52447  33.055  42.559   6.464
 4060POPC   C2B52448  33.013  42.542   6.764
 4060POPC   C3B52449  33.092  42.537   7.064
 4060POPC   C4B52450  33.023  42.572   7.364
 4061POPC   NC352451  24.526  44.696   5.564
 4061POPC   PO452452  24.536  44.702   5.864
 4061POPC   GL152453  24.494  44.644   6.164
 4061POPC   GL252454  24.527  44.780   6.164
 4061POPC   C1A52455  24.535  44.707   6.464
 4061POPC   D2A52456  24.441  44.638   6.764
 4061POPC   C3A52457  24.526  44.648   7.064
 4061POPC   C4A52458  24.524  44.647   7.364
 4061POPC   C1B52459  24.491  44.928   6.464
 4061POPC   C2B52460  24.504  44.864   6.764
 4061POPC   C3B52461  24.468  44.915   7.064
 4061POPC   C4B52462  24.452  44.873   7.364
 4062POPC   NC352463  25.258  40.778   5.564
 4062POPC   PO452464  25.228  40.773   5.864
 4062POPC   GL152465  25.300  40.761   6.164
 4062POPC   GL252466  25.145  40.823   6.164
 4062POPC   C1A52467  25.254  40.764   6.464
 4062POPC   D2A52468  25.313  40.799   6.764
 4062POPC   C3A52469  25.261  40.824   7.064
 4062POPC   C4A52470  25.238  40.738   7.364
 4062POPC   C1B52471  25.065  40.874   6.464
 4062POPC   C2B52472  25.024  40.834   6.764
 4062POPC   C3B52473  24.999  40.877   7.064
 4062POPC   C4B52474  25.018  40.873   7.364
 4063POPC   NC352475  26.069   3.552   5.564
 4063POPC   PO452476  26.042   3.493   5.864
 4063POPC   GL152477  26.070   3.546   6.164
 4063POPC   GL252478  26.118   3.674   6.164
 4063POPC   C1A52479  26.027   3.539   6.464
 4063POPC   D2A52480  26.038   3.547   6.764
 4063POPC   C3A52481  26.031   3.575   7.064
 4063POPC   C4A52482  26.081   3.505   7.364
 4063POPC   C1B52483  26.165   3.723   6.464
 4063POPC   C2B52484  26.195   3.684   6.764
 4063POPC   C3B52485  26.254   3.729   7.064
 4063POPC   C4B52486  26.218   3.730   7.364
 4064POPC   NC352487  27.618  15.130   5.564
 4064POPC   PO452488  27.574  15.159   5.864
 4064POPC   GL152489  27.605  15.168   6.164
 4064POPC   GL252490  27.455  15.099   6.164
 4064POPC   C1A52491  27.584  15.149   6.464
 4064POPC   D2A52492  27.639  15.198   6.764
 4064POPC   C3A52493  27.546  15.168   7.064
 4064POPC   C4A52494  27.587  15.184   7.364
 4064POPC   C1B52495  27.404  15.019   6.464
 4064POPC   C2B52496  27.432  15.035   6.764
 4064POPC   C3B52497  27.377  14.973   7.064
 4064POPC   C4B52498  27.406  15.055   7.364
 4065POPC   NC352499   1.961  18.264   5.564
 4065POPC   PO452500   2.006  18.287   5.864
 4065POPC   GL152501   2.037  18.316   6.164
 4065POPC   GL252502   1.907  18.247   6.164
 4065POPC   C1A52503   1.952  18.282   6.464
 4065POPC   D2A52504   1.943  18.330   6.764
 4065POPC   C3A52505   1.972  18.267   7.064
 4065POPC   C4A52506   2.028  18.255   7.364
 4065POPC   C1B52507   1.784  18.109   6.464
 4065POPC   C2B52508   1.838  18.167   6.764
 4065POPC   C3B52509   1.841  18.141   7.064
 4065POPC   C4B52510   1.781  18.112   7.364
 4066POPC   NC352511  35.359  13.640   5.564
 4066POPC   PO452512  35.359  13.625   5.864
 4066POPC   GL152513  35.378  13.616   6.164
 4066POPC   GL252514  35.395  13.477   6.164
 4066POPC   C1A52515  35.377  13.603   6.464
 4066POPC   D2A52516  35.342  13.630   6.764
 4066POPC   C3A52517  35.328  13.634   7.064
 4066POPC   C4A52518  35.394  13.616   7.364
 4066POPC   C1B52519  35.345  13.388   6.464
 4066POPC   C2B52520  35.408  13.368   6.764
 4066POPC   C3B52521  35.424  13.388   7.064
 4066POPC   C4B52522  35.436  13.337   7.364
 4067POPC   NC352523  38.474  16.771   5.564
 4067POPC   PO452524  38.492  16.774   5.864
 4067POPC   GL152525  38.446  16.756   6.164
 4067POPC   GL252526  38.354  16.641   6.164
 4067POPC   C1A52527  38.415  16.748   6.464
 4067POPC   D2A52528  38.444  16.748   6.764
 4067POPC   C3A52529  38.418  16.736   7.064
 4067POPC   C4A52530  38.411  16.699   7.364
 4067POPC   C1B52531  38.324  16.524   6.464
 4067POPC   C2B52532  38.334  16.505   6.764
 4067POPC   C3B52533  38.323  16.476   7.064
 4067POPC   C4B52534  38.386  16.488   7.364
 4068POPC   NC352535  27.612   8.984   5.564
 4068POPC   PO452536  27.587   9.003   5.864
 4068POPC   GL152537  27.597   9.003   6.164
 4068POPC   GL252538  27.478   8.967   6.164
 4068POPC   C1A52539  27.566   8.993   6.464
 4068POPC   D2A52540  27.620   8.941   6.764
 4068POPC   C3A52541  27.550   8.993   7.064
 4068POPC   C4A52542  27.612   9.004   7.364
 4068POPC   C1B52543  27.394   8.967   6.464
 4068POPC   C2B52544  27.358   8.914   6.764
 4068POPC   C3B52545  27.382   8.974   7.064
 4068POPC   C4B52546  27.355   8.975   7.364
 4069POPC   NC352547   8.970  23.667   5.564
 4069POPC   PO452548   8.994  23.717   5.864
 4069POPC   GL152549   8.980  23.685   6.164
 4069POPC   GL252550   9.112  23.751   6.164
 4069POPC   C1A52551   8.959  23.691   6.464
 4069POPC   D2A52552   8.966  23.680   6.764
 4069POPC   C3A52553   9.006  23.740   7.064
 4069POPC   C4A52554   8.932  23.742   7.364
 4069POPC   C1B52555   9.185  23.683   6.464
 4069POPC   C2B52556   9.244  23.700   6.764
 4069POPC   C3B52557   9.269  23.650   7.064
 4069POPC   C4B52558   9.265  23.700   7.364
 4070POPC   NC352559  40.821   3.521   5.564
 4070POPC   PO452560  40.745   3.573   5.864
 4070POPC   GL152561  40.797   3.575   6.164
 4070POPC   GL252562  40.694   3.637   6.164
 4070POPC   C1A52563  40.733   3.498   6.464
 4070POPC   D2A52564  40.759   3.526   6.764
 4070POPC   C3A52565  40.784   3.555   7.064
 4070POPC   C4A52566  40.760   3.518   7.364
 4070POPC   C1B52567  40.528   3.634   6.464
 4070POPC   C2B52568  40.531   3.608   6.764
 4070POPC   C3B52569  40.509   3.644   7.064
 4070POPC   C4B52570  40.526   3.610   7.364
 4071POPC   NC352571  43.903  30.647   5.564
 4071POPC   PO452572  43.846  30.732   5.864
 4071POPC   GL152573  43.882  30.712   6.164
 4071POPC   GL252574  43.979  30.708   6.164
 4071POPC   C1A52575  43.843  30.736   6.464
 4071POPC   D2A52576  43.926  30.706   6.764
 4071POPC   C3A52577  43.850  30.683   7.064
 4071POPC   C4A52578  43.870  30.650   7.364
 4071POPC   C1B52579  44.087  30.739   6.464
 4071POPC   C2B52580  44.183  30.731   6.764
 4071POPC   C3B52581  44.173  30.680   7.064
 4071POPC   C4B52582  44.090  30.733   7.364
 4072POPC   NC352583  19.835   5.109   5.564
 4072POPC   PO452584  19.800   5.139   5.864
 4072POPC   GL152585  19.854   5.047   6.164
 4072POPC   GL252586  19.942   5.071   6.164
 4072POPC   C1A52587  19.826   5.138   6.464
 4072POPC   D2A52588  19.827   5.137   6.764
 4072POPC   C3A52589  19.792   5.101   7.064
 4072POPC   C4A52590  19.800   5.071   7.364
 4072POPC   C1B52591  20.042   5.095   6.464
 4072POPC   C2B52592  20.083   5.076   6.764
 4072POPC   C3B52593  20.113   5.036   7.064
 4072POPC   C4B52594  20.041   5.046   7.364
 4073POPC   NC352595  18.306  33.053   5.564
 4073POPC   PO452596  18.247  33.034   5.864
 4073POPC   GL152597  18.304  32.996   6.164
 4073POPC   GL252598  18.234  32.967   6.164
 4073POPC   C1A52599  18.242  33.023   6.464
 4073POPC   D2A52600  18.248  33.005   6.764
 4073POPC   C3A52601  18.320  32.992   7.064
 4073POPC   C4A52602  18.326  33.016   7.364
 4073POPC   C1B52603  18.160  32.833   6.464
 4073POPC   C2B52604  18.175  32.789   6.764
 4073POPC   C3B52605  18.133  32.790   7.064
 4073POPC   C4B52606  18.142  32.831   7.364
 4074POPC   NC352607   8.223  15.938   5.564
 4074POPC   PO452608   8.242  15.924   5.864
 4074POPC   GL152609   8.200  15.914   6.164
 4074POPC   GL252610   8.133  16.069   6.164
 4074POPC   C1A52611   8.211  15.950   6.464
 4074POPC   D2A52612   8.158  15.987   6.764
 4074POPC   C3A52613   8.159  15.946   7.064
 4074POPC   C4A52614   8.188  15.993   7.364
 4074POPC   C1B52615   8.077  16.168   6.464
 4074POPC   C2B52616   8.037  16.185   6.764
 4074POPC   C3B52617   8.002  16.121   7.064
 4074POPC   C4B52618   8.027  16.111   7.364
 4075POPC   NC352619  12.076  13.648   5.564
 4075POPC   PO452620  12.064  13.641   5.864
 4075POPC   GL152621  12.071  13.664   6.164
 4075POPC   GL252622  12.135  13.734   6.164
 4075POPC   C1A52623  12.079  13.660   6.464
 4075POPC   D2A52624  12.047  13.637   6.764
 4075POPC   C3A52625  12.081  13.637   7.064
 4075POPC   C4A52626  12.104  13.667   7.364
 4075POPC   C1B52627  12.161  13.839   6.464
 4075POPC   C2B52628  12.180  13.798   6.764
 4075POPC   C3B52629  12.205  13.852   7.064
 4075POPC   C4B52630  12.256  13.819   7.364
 4076POPC   NC352631   0.462  25.255   5.564
 4076POPC   PO452632   0.443  25.264   5.864
 4076POPC   GL152633   0.406  25.232   6.164
 4076POPC   GL252634   0.372  25.109   6.164
 4076POPC   C1A52635   0.468  25.271   6.464
 4076POPC   D2A52636   0.469  25.302   6.764
 4076POPC   C3A52637   0.462  25.242   7.064
 4076POPC   C4A52638   0.399  25.270   7.364
 4076POPC   C1B52639   0.317  25.007   6.464
 4076POPC   C2B52640   0.341  25.041   6.764
 4076POPC   C3B52641   0.304  25.073   7.064
 4076POPC   C4B52642   0.340  25.050   7.364
 4077POPC   NC352643  21.417  26.783   5.564
 4077POPC   PO452644  21.356  26.809   5.864
 4077POPC   GL152645  21.413  26.860   6.164
 4077POPC   GL252646  21.492  26.717   6.164
 4077POPC   C1A52647  21.369  26.788   6.464
 4077POPC   D2A52648  21.350  26.803   6.764
 4077POPC   C3A52649  21.344  26.790   7.064
 4077POPC   C4A52650  21.346  26.820   7.364
 4077POPC   C1B52651  21.474  26.634   6.464
 4077POPC   C2B52652  21.505  26.569   6.764
 4077POPC   C3B52653  21.546  26.610   7.064
 4077POPC   C4B52654  21.521  26.595   7.364
 4078POPC   NC352655   1.235  22.901   5.564
 4078POPC   PO452656   1.191  22.919   5.864
 4078POPC   GL152657   1.219  22.926   6.164
 4078POPC   GL252658   1.085  22.903   6.164
 4078POPC   C1A52659   1.230  22.955   6.464
 4078POPC   D2A52660   1.208  22.951   6.764
 4078POPC   C3A52661   1.256  22.963   7.064
 4078POPC   C4A52662   1.217  22.922   7.364
 4078POPC   C1B52663   0.989  22.762   6.464
 4078POPC   C2B52664   0.975  22.748   6.764
 4078POPC   C3B52665   0.966  22.837   7.064
 4078POPC   C4B52666   0.968  22.823   7.364
 4079POPC   NC352667  22.952  40.773   5.564
 4079POPC   PO452668  22.912  40.740   5.864
 4079POPC   GL152669  22.950  40.755   6.164
 4079POPC   GL252670  22.805  40.874   6.164
 4079POPC   C1A52671  22.973  40.751   6.464
 4079POPC   D2A52672  22.984  40.826   6.764
 4079POPC   C3A52673  22.915  40.745   7.064
 4079POPC   C4A52674  22.912  40.808   7.364
 4079POPC   C1B52675  22.732  40.896   6.464
 4079POPC   C2B52676  22.779  40.909   6.764
 4079POPC   C3B52677  22.763  40.970   7.064
 4079POPC   C4B52678  22.780  40.914   7.364
 4080POPC   NC352679  31.440  11.338   5.564
 4080POPC   PO452680  31.448  11.259   5.864
 4080POPC   GL152681  31.491  11.304   6.164
 4080POPC   GL252682  31.353  11.289   6.164
 4080POPC   C1A52683  31.487  11.282   6.464
 4080POPC   D2A52684  31.425  11.265   6.764
 4080POPC   C3A52685  31.464  11.297   7.064
 4080POPC   C4A52686  31.467  11.257   7.364
 4080POPC   C1B52687  31.189  11.314   6.464
 4080POPC   C2B52688  31.263  11.326   6.764
 4080POPC   C3B52689  31.264  11.252   7.064
 4080POPC   C4B52690  31.273  11.246   7.364
 4081POPC   NC352691   9.727  11.319   5.564
 4081POPC   PO452692   9.746  11.256   5.864
 4081POPC   GL152693   9.733  11.290   6.164
 4081POPC   GL252694   9.651  11.423   6.164
 4081POPC   C1A52695   9.731  11.285   6.464
 4081POPC   D2A52696   9.707  11.327   6.764
 4081POPC   C3A52697   9.703  11.302   7.064
 4081POPC   C4A52698   9.746  11.273   7.364
 4081POPC   C1B52699   9.631  11.570   6.464
 4081POPC   C2B52700   9.678  11.536   6.764
 4081POPC   C3B52701   9.625  11.473   7.064
 4081POPC   C4B52702   9.628  11.526   7.364
 4082POPC   NC352703  25.289  38.458   5.564
 4082POPC   PO452704  25.277  38.415   5.864
 4082POPC   GL152705  25.258  38.474   6.164
 4082POPC   GL252706  25.256  38.598   6.164
 4082POPC   C1A52707  25.295  38.465   6.464
 4082POPC   D2A52708  25.308  38.470   6.764
 4082POPC   C3A52709  25.217  38.485   7.064
 4082POPC   C4A52710  25.303  38.407   7.364
 4082POPC   C1B52711  25.144  38.724   6.464
 4082POPC   C2B52712  25.123  38.723   6.764
 4082POPC   C3B52713  25.147  38.679   7.064
 4082POPC   C4B52714  25.120  38.640   7.364
 4083POPC   NC352715  27.561  22.163   5.564
 4083POPC   PO452716  27.569  22.195   5.864
 4083POPC   GL152717  27.601  22.173   6.164
 4083POPC   GL252718  27.468  22.045   6.164
 4083POPC   C1A52719  27.613  22.172   6.464
 4083POPC   D2A52720  27.544  22.188   6.764
 4083POPC   C3A52721  27.602  22.188   7.064
 4083POPC   C4A52722  27.587  22.113   7.364
 4083POPC   C1B52723  27.404  21.978   6.464
 4083POPC   C2B52724  27.439  21.954   6.764
 4083POPC   C3B52725  27.417  21.997   7.064
 4083POPC   C4B52726  27.391  21.989   7.364
 4084POPC   NC352727  42.336  22.211   5.564
 4084POPC   PO452728  42.381  22.154   5.864
 4084POPC   GL152729  42.376  22.120   6.164
 4084POPC   GL252730  42.225  22.114   6.164
 4084POPC   C1A52731  42.353  22.124   6.464
 4084POPC   D2A52732  42.289  22.197   6.764
 4084POPC   C3A52733  42.375  22.143   7.064
 4084POPC   C4A52734  42.315  22.155   7.364
 4084POPC   C1B52735  42.127  21.996   6.464
 4084POPC   C2B52736  42.116  22.066   6.764
 4084POPC   C3B52737  42.141  22.021   7.064
 4084POPC   C4B52738  42.142  22.091   7.364
 4085POPC   NC352739  32.298   1.236   5.564
 4085POPC   PO452740  32.205   1.248   5.864
 4085POPC   GL152741  32.225   1.233   6.164
 4085POPC   GL252742  32.351   1.110   6.164
 4085POPC   C1A52743  32.285   1.187   6.464
 4085POPC   D2A52744  32.286   1.243   6.764
 4085POPC   C3A52745  32.288   1.250   7.064
 4085POPC   C4A52746  32.254   1.249   7.364
 4085POPC   C1B52747  32.451   1.058   6.464
 4085POPC   C2B52748  32.494   1.127   6.764
 4085POPC   C3B52749  32.443   1.123   7.064
 4085POPC   C4B52750  32.480   1.082   7.364
 4086POPC   NC352751  21.427  43.106   5.564
 4086POPC   PO452752  21.366  43.151   5.864
 4086POPC   GL152753  21.429  43.062   6.164
 4086POPC   GL252754  21.273  43.189   6.164
 4086POPC   C1A52755  21.366  43.073   6.464
 4086POPC   D2A52756  21.350  43.099   6.764
 4086POPC   C3A52757  21.388  43.100   7.064
 4086POPC   C4A52758  21.419  43.098   7.364
 4086POPC   C1B52759  21.196  43.240   6.464
 4086POPC   C2B52760  21.239  43.236   6.764
 4086POPC   C3B52761  21.209  43.249   7.064
 4086POPC   C4B52762  21.201  43.283   7.364
 4087POPC   NC352763  27.638  20.611   5.564
 4087POPC   PO452764  27.582  20.642   5.864
 4087POPC   GL152765  27.570  20.579   6.164
 4087POPC   GL252766  27.672  20.485   6.164
 4087POPC   C1A52767  27.588  20.620   6.464
 4087POPC   D2A52768  27.611  20.562   6.764
 4087POPC   C3A52769  27.582  20.642   7.064
 4087POPC   C4A52770  27.622  20.592   7.364
 4087POPC   C1B52771  27.618  20.380   6.464
 4087POPC   C2B52772  27.699  20.388   6.764
 4087POPC   C3B52773  27.676  20.407   7.064
 4087POPC   C4B52774  27.689  20.398   7.364
 4088POPC   NC352775  39.184  19.033   5.564
 4088POPC   PO452776  39.211  19.052   5.864
 4088POPC   GL152777  39.231  19.054   6.164
 4088POPC   GL252778  39.128  18.995   6.164
 4088POPC   C1A52779  39.242  19.096   6.464
 4088POPC   D2A52780  39.205  19.034   6.764
 4088POPC   C3A52781  39.194  19.108   7.064
 4088POPC   C4A52782  39.194  19.026   7.364
 4088POPC   C1B52783  39.018  19.045   6.464
 4088POPC   C2B52784  39.016  19.061   6.764
 4088POPC   C3B52785  39.034  18.976   7.064
 4088POPC   C4B52786  38.985  19.053   7.364
 4089POPC   NC352787  35.364  12.077   5.564
 4089POPC   PO452788  35.341  12.057   5.864
 4089POPC   GL152789  35.339  12.092   6.164
 4089POPC   GL252790  35.314  11.977   6.164
 4089POPC   C1A52791  35.338  12.091   6.464
 4089POPC   D2A52792  35.371  12.113   6.764
 4089POPC   C3A52793  35.378  12.052   7.064
 4089POPC   C4A52794  35.400  12.116   7.364
 4089POPC   C1B52795  35.298  11.881   6.464
 4089POPC   C2B52796  35.320  11.841   6.764
 4089POPC   C3B52797  35.313  11.807   7.064
 4089POPC   C4B52798  35.281  11.822   7.364
 4090POPC   NC352799  36.873  33.803   5.564
 4090POPC   PO452800  36.864  33.846   5.864
 4090POPC   GL152801  36.883  33.775   6.164
 4090POPC   GL252802  36.735  33.856   6.164
 4090POPC   C1A52803  36.907  33.773   6.464
 4090POPC   D2A52804  36.890  33.797   6.764
 4090POPC   C3A52805  36.933  33.758   7.064
 4090POPC   C4A52806  36.855  33.787   7.364
 4090POPC   C1B52807  36.644  33.896   6.464
 4090POPC   C2B52808  36.633  33.846   6.764
 4090POPC   C3B52809  36.665  33.905   7.064
 4090POPC   C4B52810  36.706  33.889   7.364
 4091POPC   NC352811   5.087  19.839   5.564
 4091POPC   PO452812   5.111  19.802   5.864
 4091POPC   GL152813   5.118  19.841   6.164
 4091POPC   GL252814   5.205  19.779   6.164
 4091POPC   C1A52815   5.057  19.797   6.464
 4091POPC   D2A52816   5.126  19.804   6.764
 4091POPC   C3A52817   5.112  19.801   7.064
 4091POPC   C4A52818   5.111  19.834   7.364
 4091POPC   C1B52819   5.319  19.669   6.464
 4091POPC   C2B52820   5.288  19.693   6.764
 4091POPC   C3B52821   5.264  19.719   7.064
 4091POPC   C4B52822   5.298  19.695   7.364
 4092POPC   NC352823  38.405  15.961   5.564
 4092POPC   PO452824  38.460  15.965   5.864
 4092POPC   GL152825  38.450  15.938   6.164
 4092POPC   GL252826  38.380  16.081   6.164
 4092POPC   C1A52827  38.474  15.953   6.464
 4092POPC   D2A52828  38.443  15.947   6.764
 4092POPC   C3A52829  38.447  15.949   7.064
 4092POPC   C4A52830  38.409  15.909   7.364
 4092POPC   C1B52831  38.262  16.150   6.464
 4092POPC   C2B52832  38.280  16.103   6.764
 4092POPC   C3B52833  38.300  16.196   7.064
 4092POPC   C4B52834  38.336  16.170   7.364
 4093POPC   NC352835  24.443  36.883   5.564
 4093POPC   PO452836  24.449  36.894   5.864
 4093POPC   GL152837  24.480  36.909   6.164
 4093POPC   GL252838  24.572  36.805   6.164
 4093POPC   C1A52839  24.443  36.939   6.464
 4093POPC   D2A52840  24.474  36.940   6.764
 4093POPC   C3A52841  24.469  36.860   7.064
 4093POPC   C4A52842  24.493  36.915   7.364
 4093POPC   C1B52843  24.615  36.705   6.464
 4093POPC   C2B52844  24.524  36.634   6.764
 4093POPC   C3B52845  24.618  36.665   7.064
 4093POPC   C4B52846  24.601  36.709   7.364
 4094POPC   NC352847  15.907  22.965   5.564
 4094POPC   PO452848  15.916  22.931   5.864
 4094POPC   GL152849  15.950  22.972   6.164
 4094POPC   GL252850  15.818  23.009   6.164
 4094POPC   C1A52851  15.982  22.966   6.464
 4094POPC   D2A52852  16.001  22.970   6.764
 4094POPC   C3A52853  15.933  22.897   7.064
 4094POPC   C4A52854  15.988  22.967   7.364
 4094POPC   C1B52855  15.751  23.017   6.464
 4094POPC   C2B52856  15.742  23.037   6.764
 4094POPC   C3B52857  15.736  23.050   7.064
 4094POPC   C4B52858  15.667  23.031   7.364
 4095POPC   NC352859   2.755  36.860   5.564
 4095POPC   PO452860   2.782  36.859   5.864
 4095POPC   GL152861   2.733  36.914   6.164
 4095POPC   GL252862   2.629  36.872   6.164
 4095POPC   C1A52863   2.775  36.888   6.464
 4095POPC   D2A52864   2.789  36.871   6.764
 4095POPC   C3A52865   2.787  36.949   7.064
 4095POPC   C4A52866   2.791  36.898   7.364
 4095POPC   C1B52867   2.488  36.793   6.464
 4095POPC   C2B52868   2.499  36.840   6.764
 4095POPC   C3B52869   2.583  36.806   7.064
 4095POPC   C4B52870   2.485  36.804   7.364
 4096POPC   NC352871  26.051  37.699   5.564
 4096POPC   PO452872  26.003  37.717   5.864
 4096POPC   GL152873  26.006  37.660   6.164
 4096POPC   GL252874  26.105  37.616   6.164
 4096POPC   C1A52875  26.018  37.644   6.464
 4096POPC   D2A52876  26.029  37.727   6.764
 4096POPC   C3A52877  26.086  37.706   7.064
 4096POPC   C4A52878  26.065  37.640   7.364
 4096POPC   C1B52879  26.302  37.588   6.464
 4096POPC   C2B52880  26.219  37.551   6.764
 4096POPC   C3B52881  26.234  37.593   7.064
 4096POPC   C4B52882  26.243  37.527   7.364
 4097POPC   NC352883   6.672  36.900   5.564
 4097POPC   PO452884   6.662  36.929   5.864
 4097POPC   GL152885   6.649  36.928   6.164
 4097POPC   GL252886   6.674  37.077   6.164
 4097POPC   C1A52887   6.630  36.916   6.464
 4097POPC   D2A52888   6.610  36.938   6.764
 4097POPC   C3A52889   6.639  36.921   7.064
 4097POPC   C4A52890   6.596  36.907   7.364
 4097POPC   C1B52891   6.674  37.153   6.464
 4097POPC   C2B52892   6.690  37.146   6.764
 4097POPC   C3B52893   6.686  37.134   7.064
 4097POPC   C4B52894   6.684  37.152   7.364
 4098POPC   NC352895  19.030   9.721   5.564
 4098POPC   PO452896  19.106   9.774   5.864
 4098POPC   GL152897  19.047   9.707   6.164
 4098POPC   GL252898  18.984   9.848   6.164
 4098POPC   C1A52899  19.097   9.736   6.464
 4098POPC   D2A52900  19.024   9.729   6.764
 4098POPC   C3A52901  19.036   9.703   7.064
 4098POPC   C4A52902  19.032   9.708   7.364
 4098POPC   C1B52903  18.949   9.926   6.464
 4098POPC   C2B52904  18.933   9.969   6.764
 4098POPC   C3B52905  18.913   9.951   7.064
 4098POPC   C4B52906  18.921   9.961   7.364
 4099POPC   NC352907  36.911  31.510   5.564
 4099POPC   PO452908  36.925  31.451   5.864
 4099POPC   GL152909  36.890  31.430   6.164
 4099POPC   GL252910  37.007  31.477   6.164
 4099POPC   C1A52911  36.895  31.495   6.464
 4099POPC   D2A52912  36.921  31.442   6.764
 4099POPC   C3A52913  36.897  31.467   7.064
 4099POPC   C4A52914  36.886  31.518   7.364
 4099POPC   C1B52915  37.169  31.526   6.464
 4099POPC   C2B52916  37.162  31.618   6.764
 4099POPC   C3B52917  37.179  31.573   7.064
 4099POPC   C4B52918  37.093  31.545   7.364
 4100POPC   NC352919  13.613  17.522   5.564
 4100POPC   PO452920  13.650  17.520   5.864
 4100POPC   GL152921  13.658  17.477   6.164
 4100POPC   GL252922  13.582  17.629   6.164
 4100POPC   C1A52923  13.672  17.545   6.464
 4100POPC   D2A52924  13.597  17.474   6.764
 4100POPC   C3A52925  13.595  17.518   7.064
 4100POPC   C4A52926  13.586  17.550   7.364
 4100POPC   C1B52927  13.640  17.756   6.464
 4100POPC   C2B52928  13.631  17.739   6.764
 4100POPC   C3B52929  13.602  17.803   7.064
 4100POPC   C4B52930  13.630  17.728   7.364
 4101POPC   NC352931  34.577  30.681   5.564
 4101POPC   PO452932  34.595  30.685   5.864
 4101POPC   GL152933  34.561  30.730   6.164
 4101POPC   GL252934  34.641  30.803   6.164
 4101POPC   C1A52935  34.560  30.650   6.464
 4101POPC   D2A52936  34.592  30.721   6.764
 4101POPC   C3A52937  34.562  30.686   7.064
 4101POPC   C4A52938  34.564  30.664   7.364
 4101POPC   C1B52939  34.808  30.800   6.464
 4101POPC   C2B52940  34.761  30.806   6.764
 4101POPC   C3B52941  34.822  30.816   7.064
 4101POPC   C4B52942  34.833  30.883   7.364
 4102POPC   NC352943  26.002  19.829   5.564
 4102POPC   PO452944  26.060  19.793   5.864
 4102POPC   GL152945  26.074  19.790   6.164
 4102POPC   GL252946  26.089  19.924   6.164
 4102POPC   C1A52947  26.013  19.864   6.464
 4102POPC   D2A52948  26.018  19.805   6.764
 4102POPC   C3A52949  26.083  19.846   7.064
 4102POPC   C4A52950  26.031  19.864   7.364
 4102POPC   C1B52951  26.127  20.025   6.464
 4102POPC   C2B52952  26.120  20.013   6.764
 4102POPC   C3B52953  26.196  20.071   7.064
 4102POPC   C4B52954  26.196  20.030   7.364
 4103POPC   NC352955  12.088  15.911   5.564
 4103POPC   PO452956  12.091  15.992   5.864
 4103POPC   GL152957  12.100  15.956   6.164
 4103POPC   GL252958  12.235  15.970   6.164
 4103POPC   C1A52959  12.060  15.969   6.464
 4103POPC   D2A52960  12.078  15.914   6.764
 4103POPC   C3A52961  12.057  15.957   7.064
 4103POPC   C4A52962  12.079  15.907   7.364
 4103POPC   C1B52963  12.336  15.946   6.464
 4103POPC   C2B52964  12.304  15.927   6.764
 4103POPC   C3B52965  12.300  15.943   7.064
 4103POPC   C4B52966  12.374  15.938   7.364
 4104POPC   NC352967  15.164   4.304   5.564
 4104POPC   PO452968  15.170   4.300   5.864
 4104POPC   GL152969  15.154   4.303   6.164
 4104POPC   GL252970  15.026   4.270   6.164
 4104POPC   C1A52971  15.164   4.326   6.464
 4104POPC   D2A52972  15.172   4.287   6.764
 4104POPC   C3A52973  15.139   4.344   7.064
 4104POPC   C4A52974  15.167   4.358   7.364
 4104POPC   C1B52975  14.941   4.268   6.464
 4104POPC   C2B52976  14.896   4.280   6.764
 4104POPC   C3B52977  14.966   4.292   7.064
 4104POPC   C4B52978  14.882   4.263   7.364
 4105POPC   NC352979  28.333  27.628   5.564
 4105POPC   PO452980  28.383  27.606   5.864
 4105POPC   GL152981  28.386  27.620   6.164
 4105POPC   GL252982  28.323  27.440   6.164
 4105POPC   C1A52983  28.340  27.630   6.464
 4105POPC   D2A52984  28.404  27.590   6.764
 4105POPC   C3A52985  28.414  27.551   7.064
 4105POPC   C4A52986  28.419  27.622   7.364
 4105POPC   C1B52987  28.287  27.344   6.464
 4105POPC   C2B52988  28.316  27.360   6.764
 4105POPC   C3B52989  28.324  27.323   7.064
 4105POPC   C4B52990  28.346  27.351   7.364
 4106POPC   NC352991   7.415  25.257   5.564
 4106POPC   PO452992   7.385  25.293   5.864
 4106POPC   GL152993   7.377  25.275   6.164
 4106POPC   GL252994   7.313  25.322   6.164
 4106POPC   C1A52995   7.436  25.302   6.464
 4106POPC   D2A52996   7.434  25.254   6.764
 4106POPC   C3A52997   7.458  25.272   7.064
 4106POPC   C4A52998   7.421  25.244   7.364
 4106POPC   C1B52999   7.223  25.371   6.464
 4106POPC   C2B53000   7.166  25.370   6.764
 4106POPC   C3B53001   7.251  25.446   7.064
 4106POPC   C4B53002   7.181  25.358   7.364
 4107POPC   NC353003   4.363  20.635   5.564
 4107POPC   PO453004   4.315  20.653   5.864
 4107POPC   GL153005   4.277  20.586   6.164
 4107POPC   GL253006   4.339  20.702   6.164
 4107POPC   C1A53007   4.305  20.594   6.464
 4107POPC   D2A53008   4.297  20.594   6.764
 4107POPC   C3A53009   4.367  20.618   7.064
 4107POPC   C4A53010   4.304  20.651   7.364
 4107POPC   C1B53011   4.409  20.817   6.464
 4107POPC   C2B53012   4.436  20.800   6.764
 4107POPC   C3B53013   4.452  20.846   7.064
 4107POPC   C4B53014   4.426  20.873   7.364
 4108POPC   NC353015   5.046  30.707   5.564
 4108POPC   PO453016   5.116  30.665   5.864
 4108POPC   GL153017   5.113  30.654   6.164
 4108POPC   GL253018   5.226  30.753   6.164
 4108POPC   C1A53019   5.127  30.690   6.464
 4108POPC   D2A53020   5.112  30.696   6.764
 4108POPC   C3A53021   5.078  30.718   7.064
 4108POPC   C4A53022   5.130  30.739   7.364
 4108POPC   C1B53023   5.279  30.743   6.464
 4108POPC   C2B53024   5.348  30.820   6.764
 4108POPC   C3B53025   5.341  30.770   7.064
 4108POPC   C4B53026   5.355  30.745   7.364
 4109POPC   NC353027  43.839  12.094   5.564
 4109POPC   PO453028  43.923  12.076   5.864
 4109POPC   GL153029  43.862  12.078   6.164
 4109POPC   GL253030  43.778  12.156   6.164
 4109POPC   C1A53031  43.925  12.066   6.464
 4109POPC   D2A53032  43.895  12.084   6.764
 4109POPC   C3A53033  43.888  12.031   7.064
 4109POPC   C4A53034  43.861  12.062   7.364
 4109POPC   C1B53035  43.667  12.237   6.464
 4109POPC   C2B53036  43.686  12.279   6.764
 4109POPC   C3B53037  43.733  12.280   7.064
 4109POPC   C4B53038  43.731  12.292   7.364
 4110POPC   NC353039   7.430  38.459   5.564
 4110POPC   PO453040   7.396  38.423   5.864
 4110POPC   GL153041   7.454  38.439   6.164
 4110POPC   GL253042   7.460  38.335   6.164
 4110POPC   C1A53043   7.372  38.490   6.464
 4110POPC   D2A53044   7.426  38.413   6.764
 4110POPC   C3A53045   7.421  38.487   7.064
 4110POPC   C4A53046   7.382  38.451   7.364
 4110POPC   C1B53047   7.486  38.172   6.464
 4110POPC   C2B53048   7.495  38.259   6.764
 4110POPC   C3B53049   7.526  38.245   7.064
 4110POPC   C4B53050   7.530  38.258   7.364
 4111POPC   NC353051   3.530  22.205   5.564
 4111POPC   PO453052   3.577  22.210   5.864
 4111POPC   GL153053   3.501  22.122   6.164
 4111POPC   GL253054   3.702  22.179   6.164
 4111POPC   C1A53055   3.543  22.144   6.464
 4111POPC   D2A53056   3.586  22.183   6.764
 4111POPC   C3A53057   3.496  22.194   7.064
 4111POPC   C4A53058   3.506  22.129   7.364
 4111POPC   C1B53059   3.810  22.254   6.464
 4111POPC   C2B53060   3.754  22.220   6.764
 4111POPC   C3B53061   3.788  22.222   7.064
 4111POPC   C4B53062   3.730  22.280   7.364
 4112POPC   NC353063  21.339  35.347   5.564
 4112POPC   PO453064  21.346  35.319   5.864
 4112POPC   GL153065  21.382  35.333   6.164
 4112POPC   GL253066  21.412  35.260   6.164
 4112POPC   C1A53067  21.339  35.337   6.464
 4112POPC   D2A53068  21.374  35.386   6.764
 4112POPC   C3A53069  21.354  35.347   7.064
 4112POPC   C4A53070  21.362  35.352   7.364
 4112POPC   C1B53071  21.462  35.141   6.464
 4112POPC   C2B53072  21.445  35.137   6.764
 4112POPC   C3B53073  21.491  35.146   7.064
 4112POPC   C4B53074  21.443  35.138   7.364
 4113POPC   NC353075  30.732  10.548   5.564
 4113POPC   PO453076  30.742  10.529   5.864
 4113POPC   GL153077  30.736  10.523   6.164
 4113POPC   GL253078  30.737  10.377   6.164
 4113POPC   C1A53079  30.704  10.564   6.464
 4113POPC   D2A53080  30.714  10.530   6.764
 4113POPC   C3A53081  30.723  10.510   7.064
 4113POPC   C4A53082  30.647  10.545   7.364
 4113POPC   C1B53083  30.746  10.294   6.464
 4113POPC   C2B53084  30.733  10.239   6.764
 4113POPC   C3B53085  30.796  10.300   7.064
 4113POPC   C4B53086  30.787  10.322   7.364
 4114POPC   NC353087  12.038  37.672   5.564
 4114POPC   PO453088  12.044  37.641   5.864
 4114POPC   GL153089  12.105  37.637   6.164
 4114POPC   GL253090  12.086  37.576   6.164
 4114POPC   C1A53091  12.120  37.677   6.464
 4114POPC   D2A53092  12.096  37.678   6.764
 4114POPC   C3A53093  12.095  37.704   7.064
 4114POPC   C4A53094  12.060  37.637   7.364
 4114POPC   C1B53095  12.171  37.405   6.464
 4114POPC   C2B53096  12.116  37.457   6.764
 4114POPC   C3B53097  12.123  37.441   7.064
 4114POPC   C4B53098  12.150  37.461   7.364
 4115POPC   NC353099  33.050  38.488   5.564
 4115POPC   PO453100  33.063  38.500   5.864
 4115POPC   GL153101  33.011  38.498   6.164
 4115POPC   GL253102  33.087  38.519   6.164
 4115POPC   C1A53103  32.982  38.503   6.464
 4115POPC   D2A53104  32.990  38.417   6.764
 4115POPC   C3A53105  32.999  38.482   7.064
 4115POPC   C4A53106  33.071  38.504   7.364
 4115POPC   C1B53107  33.161  38.666   6.464
 4115POPC   C2B53108  33.154  38.644   6.764
 4115POPC   C3B53109  33.103  38.623   7.064
 4115POPC   C4B53110  33.194  38.708   7.364
 4116POPC   NC353111   4.331  34.607   5.564
 4116POPC   PO453112   4.313  34.597   5.864
 4116POPC   GL153113   4.287  34.560   6.164
 4116POPC   GL253114   4.396  34.467   6.164
 4116POPC   C1A53115   4.307  34.624   6.464
 4116POPC   D2A53116   4.287  34.589   6.764
 4116POPC   C3A53117   4.278  34.598   7.064
 4116POPC   C4A53118   4.314  34.579   7.364
 4116POPC   C1B53119   4.398  34.332   6.464
 4116POPC   C2B53120   4.434  34.368   6.764
 4116POPC   C3B53121   4.424  34.328   7.064
 4116POPC   C4B53122   4.437  34.310   7.364
 4117POPC   NC353123  28.319  22.914   5.564
 4117POPC   PO453124  28.419  22.975   5.864
 4117POPC   GL153125  28.399  22.985   6.164
 4117POPC   GL253126  28.230  22.827   6.164
 4117POPC   C1A53127  28.382  22.985   6.464
 4117POPC   D2A53128  28.396  22.984   6.764
 4117POPC   C3A53129  28.396  22.929   7.064
 4117POPC   C4A53130  28.394  22.940   7.364
 4117POPC   C1B53131  28.177  22.825   6.464
 4117POPC   C2B53132  28.142  22.779   6.764
 4117POPC   C3B53133  28.129  22.858   7.064
 4117POPC   C4B53134  28.127  22.823   7.364
 4118POPC   NC353135  26.833  15.209   5.564
 4118POPC   PO453136  26.767  15.206   5.864
 4118POPC   GL153137  26.810  15.182   6.164
 4118POPC   GL253138  26.673  15.279   6.164
 4118POPC   C1A53139  26.826  15.199   6.464
 4118POPC   D2A53140  26.786  15.151   6.764
 4118POPC   C3A53141  26.851  15.167   7.064
 4118POPC   C4A53142  26.814  15.167   7.364
 4118POPC   C1B53143  26.629  15.287   6.464
 4118POPC   C2B53144  26.623  15.317   6.764
 4118POPC   C3B53145  26.641  15.287   7.064
 4118POPC   C4B53146  26.647  15.342   7.364
 4119POPC   NC353147  21.356  34.622   5.564
 4119POPC   PO453148  21.374  34.603   5.864
 4119POPC   GL153149  21.409  34.622   6.164
 4119POPC   GL253150  21.322  34.493   6.164
 4119POPC   C1A53151  21.372  34.592   6.464
 4119POPC   D2A53152  21.371  34.560   6.764
 4119POPC   C3A53153  21.375  34.568   7.064
 4119POPC   C4A53154  21.406  34.527   7.364
 4119POPC   C1B53155  21.400  34.332   6.464
 4119POPC   C2B53156  21.321  34.370   6.764
 4119POPC   C3B53157  21.376  34.374   7.064
 4119POPC   C4B53158  21.350  34.303   7.364
 4120POPC   NC353159  11.282  18.296   5.564
 4120POPC   PO453160  11.297  18.253   5.864
 4120POPC   GL153161  11.322  18.287   6.164
 4120POPC   GL253162  11.239  18.189   6.164
 4120POPC   C1A53163  11.344  18.288   6.464
 4120POPC   D2A53164  11.331  18.242   6.764
 4120POPC   C3A53165  11.278  18.238   7.064
 4120POPC   C4A53166  11.339  18.307   7.364
 4120POPC   C1B53167  11.151  18.076   6.464
 4120POPC   C2B53168  11.197  18.083   6.764
 4120POPC   C3B53169  11.168  18.068   7.064
 4120POPC   C4B53170  11.169  18.049   7.364
 4121POPC   NC353171  20.625  21.364   5.564
 4121POPC   PO453172  20.595  21.368   5.864
 4121POPC   GL153173  20.572  21.408   6.164
 4121POPC   GL253174  20.658  21.527   6.164
 4121POPC   C1A53175  20.595  21.369   6.464
 4121POPC   D2A53176  20.624  21.375   6.764
 4121POPC   C3A53177  20.648  21.376   7.064
 4121POPC   C4A53178  20.621  21.338   7.364
 4121POPC   C1B53179  20.658  21.590   6.464
 4121POPC   C2B53180  20.674  21.656   6.764
 4121POPC   C3B53181  20.669  21.636   7.064
 4121POPC   C4B53182  20.638  21.665   7.364
 4122POPC   NC353183  24.514  40.735   5.564
 4122POPC   PO453184  24.524  40.791   5.864
 4122POPC   GL153185  24.512  40.737   6.164
 4122POPC   GL253186  24.604  40.718   6.164
 4122POPC   C1A53187  24.486  40.807   6.464
 4122POPC   D2A53188  24.477  40.799   6.764
 4122POPC   C3A53189  24.490  40.790   7.064
 4122POPC   C4A53190  24.497  40.757   7.364
 4122POPC   C1B53191  24.671  40.676   6.464
 4122POPC   C2B53192  24.738  40.650   6.764
 4122POPC   C3B53193  24.683  40.656   7.064
 4122POPC   C4B53194  24.651  40.664   7.364
 4123POPC   NC353195  36.094  26.068   5.564
 4123POPC   PO453196  36.094  26.075   5.864
 4123POPC   GL153197  36.088  26.058   6.164
 4123POPC   GL253198  36.131  25.927   6.164
 4123POPC   C1A53199  36.131  26.041   6.464
 4123POPC   D2A53200  36.081  26.000   6.764
 4123POPC   C3A53201  36.130  25.993   7.064
 4123POPC   C4A53202  36.089  26.045   7.364
 4123POPC   C1B53203  36.115  25.770   6.464
 4123POPC   C2B53204  36.155  25.767   6.764
 4123POPC   C3B53205  36.103  25.751   7.064
 4123POPC   C4B53206  36.135  25.812   7.364
 4124POPC   NC353207  20.613   0.412   5.564
 4124POPC   PO453208  20.623   0.485   5.864
 4124POPC   GL153209  20.627   0.451   6.164
 4124POPC   GL253210  20.505   0.440   6.164
 4124POPC   C1A53211  20.631   0.473   6.464
 4124POPC   D2A53212  20.582   0.454   6.764
 4124POPC   C3A53213  20.619   0.424   7.064
 4124POPC   C4A53214  20.587   0.453   7.364
 4124POPC   C1B53215  20.358   0.372   6.464
 4124POPC   C2B53216  20.345   0.326   6.764
 4124POPC   C3B53217  20.358   0.413   7.064
 4124POPC   C4B53218  20.343   0.359   7.364
 4125POPC   NC353219  38.497  36.920   5.564
 4125POPC   PO453220  38.476  36.896   5.864
 4125POPC   GL153221  38.446  36.927   6.164
 4125POPC   GL253222  38.345  36.953   6.164
 4125POPC   C1A53223  38.492  36.901   6.464
 4125POPC   D2A53224  38.430  36.916   6.764
 4125POPC   C3A53225  38.488  36.940   7.064
 4125POPC   C4A53226  38.471  36.856   7.364
 4125POPC   C1B53227  38.228  36.978   6.464
 4125POPC   C2B53228  38.210  36.980   6.764
 4125POPC   C3B53229  38.198  36.969   7.064
 4125POPC   C4B53230  38.249  36.951   7.364
 4126POPC   NC353231  13.657   6.605   5.564
 4126POPC   PO453232  13.675   6.668   5.864
 4126POPC   GL153233  13.642   6.683   6.164
 4126POPC   GL253234  13.580   6.501   6.164
 4126POPC   C1A53235  13.608   6.611   6.464
 4126POPC   D2A53236  13.628   6.685   6.764
 4126POPC   C3A53237  13.594   6.665   7.064
 4126POPC   C4A53238  13.602   6.601   7.364
 4126POPC   C1B53239  13.524   6.430   6.464
 4126POPC   C2B53240  13.573   6.360   6.764
 4126POPC   C3B53241  13.536   6.384   7.064
 4126POPC   C4B53242  13.523   6.373   7.364
 4127POPC   NC353243  41.547   9.020   5.564
 4127POPC   PO453244  41.543   8.985   5.864
 4127POPC   GL153245  41.544   8.933   6.164
 4127POPC   GL253246  41.718   9.002   6.164
 4127POPC   C1A53247  41.534   8.953   6.464
 4127POPC   D2A53248  41.512   8.923   6.764
 4127POPC   C3A53249  41.600   8.928   7.064
 4127POPC   C4A53250  41.513   9.006   7.364
 4127POPC   C1B53251  41.797   9.094   6.464
 4127POPC   C2B53252  41.760   9.016   6.764
 4127POPC   C3B53253  41.783   9.056   7.064
 4127POPC   C4B53254  41.748   9.019   7.364
 4128POPC   NC353255  17.552  11.255   5.564
 4128POPC   PO453256  17.487  11.255   5.864
 4128POPC   GL153257  17.514  11.270   6.164
 4128POPC   GL253258  17.476  11.202   6.164
 4128POPC   C1A53259  17.458  11.330   6.464
 4128POPC   D2A53260  17.495  11.298   6.764
 4128POPC   C3A53261  17.494  11.282   7.064
 4128POPC   C4A53262  17.458  11.276   7.364
 4128POPC   C1B53263  17.490  11.058   6.464
 4128POPC   C2B53264  17.454  11.018   6.764
 4128POPC   C3B53265  17.432  11.073   7.064
 4128POPC   C4B53266  17.417  11.038   7.364
 4129POPC   NC353267   5.862  29.097   5.564
 4129POPC   PO453268   5.844  29.168   5.864
 4129POPC   GL153269   5.895  29.192   6.164
 4129POPC   GL253270   5.937  29.043   6.164
 4129POPC   C1A53271   5.895  29.144   6.464
 4129POPC   D2A53272   5.899  29.098   6.764
 4129POPC   C3A53273   5.862  29.172   7.064
 4129POPC   C4A53274   5.915  29.122   7.364
 4129POPC   C1B53275   6.063  28.997   6.464
 4129POPC   C2B53276   5.982  28.926   6.764
 4129POPC   C3B53277   5.992  28.984   7.064
 4129POPC   C4B53278   6.047  28.970   7.364
 4130POPC   NC353279   2.027  41.554   5.564
 4130POPC   PO453280   2.035  41.526   5.864
 4130POPC   GL153281   2.004  41.518   6.164
 4130POPC   GL253282   1.944  41.479   6.164
 4130POPC   C1A53283   1.944  41.561   6.464
 4130POPC   D2A53284   1.999  41.602   6.764
 4130POPC   C3A53285   1.966  41.601   7.064
 4130POPC   C4A53286   1.959  41.516   7.364
 4130POPC   C1B53287   1.880  41.280   6.464
 4130POPC   C2B53288   1.928  41.362   6.764
 4130POPC   C3B53289   1.944  41.309   7.064
 4130POPC   C4B53290   1.893  41.292   7.364
 4131POPC   NC353291  21.339   1.201   5.564
 4131POPC   PO453292  21.368   1.210   5.864
 4131POPC   GL153293  21.377   1.259   6.164
 4131POPC   GL253294  21.216   1.239   6.164
 4131POPC   C1A53295  21.387   1.263   6.464
 4131POPC   D2A53296  21.378   1.197   6.764
 4131POPC   C3A53297  21.384   1.220   7.064
 4131POPC   C4A53298  21.424   1.174   7.364
 4131POPC   C1B53299  21.170   1.226   6.464
 4131POPC   C2B53300  21.186   1.213   6.764
 4131POPC   C3B53301  21.098   1.241   7.064
 4131POPC   C4B53302  21.090   1.171   7.364
 4132POPC   NC353303  24.478  32.992   5.564
 4132POPC   PO453304  24.539  33.035   5.864
 4132POPC   GL153305  24.532  33.011   6.164
 4132POPC   GL253306  24.344  33.096   6.164
 4132POPC   C1A53307  24.500  33.064   6.464
 4132POPC   D2A53308  24.483  33.059   6.764
 4132POPC   C3A53309  24.528  33.016   7.064
 4132POPC   C4A53310  24.494  32.982   7.364
 4132POPC   C1B53311  24.221  33.044   6.464
 4132POPC   C2B53312  24.239  33.076   6.764
 4132POPC   C3B53313  24.292  33.084   7.064
 4132POPC   C4B53314  24.232  33.077   7.364
 4133POPC   NC353315  21.385   2.723   5.564
 4133POPC   PO453316  21.421   2.768   5.864
 4133POPC   GL153317  21.360   2.794   6.164
 4133POPC   GL253318  21.466   2.806   6.164
 4133POPC   C1A53319  21.362   2.814   6.464
 4133POPC   D2A53320  21.435   2.737   6.764
 4133POPC   C3A53321  21.385   2.757   7.064
 4133POPC   C4A53322  21.344   2.740   7.364
 4133POPC   C1B53323  21.665   2.887   6.464
 4133POPC   C2B53324  21.674   2.861   6.764
 4133POPC   C3B53325  21.621   2.816   7.064
 4133POPC   C4B53326  21.590   2.827   7.364
 4134POPC   NC353327  16.771  43.151   5.564
 4134POPC   PO453328  16.734  43.095   5.864
 4134POPC   GL153329  16.699  43.098   6.164
 4134POPC   GL253330  16.845  43.186   6.164
 4134POPC   C1A53331  16.686  43.160   6.464
 4134POPC   D2A53332  16.752  43.075   6.764
 4134POPC   C3A53333  16.769  43.113   7.064
 4134POPC   C4A53334  16.721  43.063   7.364
 4134POPC   C1B53335  16.899  43.303   6.464
 4134POPC   C2B53336  16.915  43.255   6.764
 4134POPC   C3B53337  16.896  43.270   7.064
 4134POPC   C4B53338  16.903  43.294   7.364
 4135POPC   NC353339   4.355  41.572   5.564
 4135POPC   PO453340   4.360  41.510   5.864
 4135POPC   GL153341   4.284  41.547   6.164
 4135POPC   GL253342   4.267  41.675   6.164
 4135POPC   C1A53343   4.272  41.605   6.464
 4135POPC   D2A53344   4.330  41.531   6.764
 4135POPC   C3A53345   4.358  41.541   7.064
 4135POPC   C4A53346   4.352  41.600   7.364
 4135POPC   C1B53347   4.175  41.760   6.464
 4135POPC   C2B53348   4.145  41.741   6.764
 4135POPC   C3B53349   4.090  41.749   7.064
 4135POPC   C4B53350   4.123  41.709   7.364
 4136POPC   NC353351  15.173  43.879   5.564
 4136POPC   PO453352  15.176  43.874   5.864
 4136POPC   GL153353  15.164  43.844   6.164
 4136POPC   GL253354  15.061  43.761   6.164
 4136POPC   C1A53355  15.186  43.861   6.464
 4136POPC   D2A53356  15.188  43.876   6.764
 4136POPC   C3A53357  15.169  43.897   7.064
 4136POPC   C4A53358  15.159  43.888   7.364
 4136POPC   C1B53359  15.032  43.735   6.464
 4136POPC   C2B53360  15.032  43.770   6.764
 4136POPC   C3B53361  15.019  43.777   7.064
 4136POPC   C4B53362  14.966  43.766   7.364
 4137POPC   NC353363  25.245  19.101   5.564
 4137POPC   PO453364  25.299  19.089   5.864
 4137POPC   GL153365  25.286  19.076   6.164
 4137POPC   GL253366  25.353  18.954   6.164
 4137POPC   C1A53367  25.220  19.016   6.464
 4137POPC   D2A53368  25.249  19.066   6.764
 4137POPC   C3A53369  25.230  19.086   7.064
 4137POPC   C4A53370  25.301  19.028   7.364
 4137POPC   C1B53371  25.506  18.938   6.464
 4137POPC   C2B53372  25.430  18.970   6.764
 4137POPC   C3B53373  25.429  18.939   7.064
 4137POPC   C4B53374  25.470  18.919   7.364
 4138POPC   NC353375  27.543  29.883   5.564
 4138POPC   PO453376  27.581  29.940   5.864
 4138POPC   GL153377  27.567  29.931   6.164
 4138POPC   GL253378  27.645  29.977   6.164
 4138POPC   C1A53379  27.584  29.895   6.464
 4138POPC   D2A53380  27.571  29.891   6.764
 4138POPC   C3A53381  27.602  29.876   7.064
 4138POPC   C4A53382  27.594  29.922   7.364
 4138POPC   C1B53383  27.748  30.082   6.464
 4138POPC   C2B53384  27.749  30.146   6.764
 4138POPC   C3B53385  27.712  30.106   7.064
 4138POPC   C4B53386  27.706  30.148   7.364
 4139POPC   NC353387   8.973   6.664   5.564
 4139POPC   PO453388   9.010   6.674   5.864
 4139POPC   GL153389   8.996   6.665   6.164
 4139POPC   GL253390   8.902   6.501   6.164
 4139POPC   C1A53391   8.940   6.691   6.464
 4139POPC   D2A53392   8.942   6.678   6.764
 4139POPC   C3A53393   8.928   6.680   7.064
 4139POPC   C4A53394   8.991   6.596   7.364
 4139POPC   C1B53395   8.870   6.374   6.464
 4139POPC   C2B53396   8.860   6.388   6.764
 4139POPC   C3B53397   8.906   6.428   7.064
 4139POPC   C4B53398   8.921   6.410   7.364
 4140POPC   NC353399  14.385  38.443   5.564
 4140POPC   PO453400  14.360  38.444   5.864
 4140POPC   GL153401  14.387  38.411   6.164
 4140POPC   GL253402  14.548  38.356   6.164
 4140POPC   C1A53403  14.434  38.453   6.464
 4140POPC   D2A53404  14.386  38.426   6.764
 4140POPC   C3A53405  14.385  38.461   7.064
 4140POPC   C4A53406  14.424  38.425   7.364
 4140POPC   C1B53407  14.618  38.321   6.464
 4140POPC   C2B53408  14.604  38.294   6.764
 4140POPC   C3B53409  14.643  38.365   7.064
 4140POPC   C4B53410  14.646  38.279   7.364
 4141POPC   NC353411  34.575  29.135   5.564
 4141POPC   PO453412  34.568  29.185   5.864
 4141POPC   GL153413  34.587  29.159   6.164
 4141POPC   GL253414  34.421  29.150   6.164
 4141POPC   C1A53415  34.624  29.185   6.464
 4141POPC   D2A53416  34.601  29.171   6.764
 4141POPC   C3A53417  34.558  29.184   7.064
 4141POPC   C4A53418  34.589  29.105   7.364
 4141POPC   C1B53419  34.315  29.031   6.464
 4141POPC   C2B53420  34.334  29.074   6.764
 4141POPC   C3B53421  34.363  29.065   7.064
 4141POPC   C4B53422  34.331  29.024   7.364
 4142POPC   NC353423   2.768  39.260   5.564
 4142POPC   PO453424   2.756  39.244   5.864
 4142POPC   GL153425   2.804  39.199   6.164
 4142POPC   GL253426   2.739  39.371   6.164
 4142POPC   C1A53427   2.789  39.205   6.464
 4142POPC   D2A53428   2.746  39.249   6.764
 4142POPC   C3A53429   2.810  39.207   7.064
 4142POPC   C4A53430   2.737  39.200   7.364
 4142POPC   C1B53431   2.764  39.468   6.464
 4142POPC   C2B53432   2.805  39.504   6.764
 4142POPC   C3B53433   2.773  39.444   7.064
 4142POPC   C4B53434   2.718  39.501   7.364
 4143POPC   NC353435   9.017  40.832   5.564
 4143POPC   PO453436   9.007  40.773   5.864
 4143POPC   GL153437   9.004  40.749   6.164
 4143POPC   GL253438   9.104  40.759   6.164
 4143POPC   C1A53439   9.005  40.756   6.464
 4143POPC   D2A53440   9.003  40.741   6.764
 4143POPC   C3A53441   8.982  40.809   7.064
 4143POPC   C4A53442   8.986  40.803   7.364
 4143POPC   C1B53443   9.253  40.810   6.464
 4143POPC   C2B53444   9.249  40.825   6.764
 4143POPC   C3B53445   9.193  40.750   7.064
 4143POPC   C4B53446   9.193  40.737   7.364
 4144POPC   NC353447   4.309  36.097   5.564
 4144POPC   PO453448   4.325  36.144   5.864
 4144POPC   GL153449   4.336  36.177   6.164
 4144POPC   GL253450   4.185  36.245   6.164
 4144POPC   C1A53451   4.338  36.147   6.464
 4144POPC   D2A53452   4.272  36.169   6.764
 4144POPC   C3A53453   4.268  36.084   7.064
 4144POPC   C4A53454   4.276  36.103   7.364
 4144POPC   C1B53455   4.192  36.291   6.464
 4144POPC   C2B53456   4.166  36.341   6.764
 4144POPC   C3B53457   4.099  36.323   7.064
 4144POPC   C4B53458   4.185  36.268   7.364
 4145POPC   NC353459  43.850  36.949   5.564
 4145POPC   PO453460  43.858  36.920   5.864
 4145POPC   GL153461  43.866  36.869   6.164
 4145POPC   GL253462  43.945  37.029   6.164
 4145POPC   C1A53463  43.863  36.902   6.464
 4145POPC   D2A53464  43.912  36.872   6.764
 4145POPC   C3A53465  43.867  36.858   7.064
 4145POPC   C4A53466  43.919  36.883   7.364
 4145POPC   C1B53467  43.929  37.099   6.464
 4145POPC   C2B53468  43.967  37.158   6.764
 4145POPC   C3B53469  43.969  37.134   7.064
 4145POPC   C4B53470  43.976  37.182   7.364
 4146POPC   NC353471  11.298   7.384   5.564
 4146POPC   PO453472  11.303   7.456   5.864
 4146POPC   GL153473  11.343   7.443   6.164
 4146POPC   GL253474  11.197   7.470   6.164
 4146POPC   C1A53475  11.265   7.410   6.464
 4146POPC   D2A53476  11.255   7.441   6.764
 4146POPC   C3A53477  11.293   7.389   7.064
 4146POPC   C4A53478  11.330   7.391   7.364
 4146POPC   C1B53479  11.080   7.509   6.464
 4146POPC   C2B53480  11.111   7.517   6.764
 4146POPC   C3B53481  11.033   7.534   7.064
 4146POPC   C4B53482  11.066   7.480   7.364
 4147POPC   NC353483   8.182   0.474   5.564
 4147POPC   PO453484   8.235   0.479   5.864
 4147POPC   GL153485   8.230   0.405   6.164
 4147POPC   GL253486   8.281   0.286   6.164
 4147POPC   C1A53487   8.224   0.442   6.464
 4147POPC   D2A53488   8.223   0.450   6.764
 4147POPC   C3A53489   8.215   0.460   7.064
 4147POPC   C4A53490   8.178   0.439   7.364
 4147POPC   C1B53491   8.370   0.208   6.464
 4147POPC   C2B53492   8.335   0.262   6.764
 4147POPC   C3B53493   8.292   0.228   7.064
 4147POPC   C4B53494   8.296   0.269   7.364
 4148POPC   NC353495  26.077   6.677   5.564
 4148POPC   PO453496  26.029   6.620   5.864
 4148POPC   GL153497  26.016   6.676   6.164
 4148POPC   GL253498  25.927   6.572   6.164
 4148POPC   C1A53499  26.021   6.678   6.464
 4148POPC   D2A53500  26.072   6.654   6.764
 4148POPC   C3A53501  26.048   6.663   7.064
 4148POPC   C4A53502  26.068   6.694   7.364
 4148POPC   C1B53503  25.866   6.464   6.464
 4148POPC   C2B53504  25.861   6.485   6.764
 4148POPC   C3B53505  25.819   6.451   7.064
 4148POPC   C4B53506  25.898   6.498   7.364
 4149POPC   NC353507  22.919   5.103   5.564
 4149POPC   PO453508  22.923   5.067   5.864
 4149POPC   GL153509  22.926   5.130   6.164
 4149POPC   GL253510  22.844   5.079   6.164
 4149POPC   C1A53511  22.972   5.141   6.464
 4149POPC   D2A53512  22.922   5.082   6.764
 4149POPC   C3A53513  22.968   5.127   7.064
 4149POPC   C4A53514  22.944   5.112   7.364
 4149POPC   C1B53515  22.726   5.106   6.464
 4149POPC   C2B53516  22.726   5.133   6.764
 4149POPC   C3B53517  22.681   5.114   7.064
 4149POPC   C4B53518  22.669   5.129   7.364
 4150POPC   NC353519  36.164  38.481   5.564
 4150POPC   PO453520  36.090  38.468   5.864
 4150POPC   GL153521  36.155  38.425   6.164
 4150POPC   GL253522  36.009  38.515   6.164
 4150POPC   C1A53523  36.085  38.500   6.464
 4150POPC   D2A53524  36.107  38.452   6.764
 4150POPC   C3A53525  36.127  38.433   7.064
 4150POPC   C4A53526  36.111  38.483   7.364
 4150POPC   C1B53527  35.910  38.544   6.464
 4150POPC   C2B53528  35.941  38.512   6.764
 4150POPC   C3B53529  35.927  38.586   7.064
 4150POPC   C4B53530  35.899  38.601   7.364
 4151POPC   NC353531  14.368  23.695   5.564
 4151POPC   PO453532  14.421  23.679   5.864
 4151POPC   GL153533  14.450  23.757   6.164
 4151POPC   GL253534  14.452  23.639   6.164
 4151POPC   C1A53535  14.418  23.735   6.464
 4151POPC   D2A53536  14.360  23.701   6.764
 4151POPC   C3A53537  14.378  23.695   7.064
 4151POPC   C4A53538  14.379  23.704   7.364
 4151POPC   C1B53539  14.418  23.482   6.464
 4151POPC   C2B53540  14.483  23.436   6.764
 4151POPC   C3B53541  14.457  23.507   7.064
 4151POPC   C4B53542  14.413  23.466   7.364
 4152POPC   NC353543   5.835  15.187   5.564
 4152POPC   PO453544   5.872  15.157   5.864
 4152POPC   GL153545   5.833  15.178   6.164
 4152POPC   GL253546   6.005  15.059   6.164
 4152POPC   C1A53547   5.911  15.222   6.464
 4152POPC   D2A53548   5.901  15.150   6.764
 4152POPC   C3A53549   5.917  15.199   7.064
 4152POPC   C4A53550   5.878  15.191   7.364
 4152POPC   C1B53551   6.043  15.001   6.464
 4152POPC   C2B53552   6.053  14.970   6.764
 4152POPC   C3B53553   6.104  15.017   7.064
 4152POPC   C4B53554   6.061  15.056   7.364
 4153POPC   NC353555  26.038  39.267   5.564
 4153POPC   PO453556  26.042  39.194   5.864
 4153POPC   GL153557  26.000  39.233   6.164
 4153POPC   GL253558  26.196  39.318   6.164
 4153POPC   C1A53559  26.053  39.275   6.464
 4153POPC   D2A53560  25.992  39.255   6.764
 4153POPC   C3A53561  26.091  39.220   7.064
 4153POPC   C4A53562  26.031  39.243   7.364
 4153POPC   C1B53563  26.259  39.315   6.464
 4153POPC   C2B53564  26.226  39.328   6.764
 4153POPC   C3B53565  26.259  39.383   7.064
 4153POPC   C4B53566  26.260  39.314   7.364
 4154POPC   NC353567  41.559   5.886   5.564
 4154POPC   PO453568  41.560   5.863   5.864
 4154POPC   GL153569  41.569   5.901   6.164
 4154POPC   GL253570  41.524   5.927   6.164
 4154POPC   C1A53571  41.586   5.898   6.464
 4154POPC   D2A53572  41.553   5.893   6.764
 4154POPC   C3A53573  41.591   5.842   7.064
 4154POPC   C4A53574  41.557   5.867   7.364
 4154POPC   C1B53575  41.388   6.005   6.464
 4154POPC   C2B53576  41.355   6.046   6.764
 4154POPC   C3B53577  41.357   6.028   7.064
 4154POPC   C4B53578  41.391   6.086   7.364
 4155POPC   NC353579  26.793  17.505   5.564
 4155POPC   PO453580  26.845  17.530   5.864
 4155POPC   GL153581  26.789  17.492   6.164
 4155POPC   GL253582  26.974  17.502   6.164
 4155POPC   C1A53583  26.822  17.473   6.464
 4155POPC   D2A53584  26.838  17.538   6.764
 4155POPC   C3A53585  26.807  17.531   7.064
 4155POPC   C4A53586  26.833  17.470   7.364
 4155POPC   C1B53587  27.051  17.498   6.464
 4155POPC   C2B53588  27.054  17.519   6.764
 4155POPC   C3B53589  27.071  17.452   7.064
 4155POPC   C4B53590  27.084  17.501   7.364
 4156POPC   NC353591  29.164  39.273   5.564
 4156POPC   PO453592  29.141  39.250   5.864
 4156POPC   GL153593  29.152  39.260   6.164
 4156POPC   GL253594  29.100  39.321   6.164
 4156POPC   C1A53595  29.110  39.198   6.464
 4156POPC   D2A53596  29.120  39.214   6.764
 4156POPC   C3A53597  29.187  39.225   7.064
 4156POPC   C4A53598  29.187  39.224   7.364
 4156POPC   C1B53599  28.963  39.463   6.464
 4156POPC   C2B53600  28.977  39.440   6.764
 4156POPC   C3B53601  29.033  39.463   7.064
 4156POPC   C4B53602  28.983  39.462   7.364
 4157POPC   NC353603  39.271   3.570   5.564
 4157POPC   PO453604  39.203   3.549   5.864
 4157POPC   GL153605  39.253   3.520   6.164
 4157POPC   GL253606  39.191   3.687   6.164
 4157POPC   C1A53607  39.188   3.507   6.464
 4157POPC   D2A53608  39.217   3.581   6.764
 4157POPC   C3A53609  39.244   3.572   7.064
 4157POPC   C4A53610  39.276   3.534   7.364
 4157POPC   C1B53611  39.192   3.793   6.464
 4157POPC   C2B53612  39.194   3.819   6.764
 4157POPC   C3B53613  39.201   3.813   7.064
 4157POPC   C4B53614  39.184   3.793   7.364
 4158POPC   NC353615  12.086   1.204   5.564
 4158POPC   PO453616  12.111   1.164   5.864
 4158POPC   GL153617  12.100   1.203   6.164
 4158POPC   GL253618  11.992   1.299   6.164
 4158POPC   C1A53619  12.101   1.198   6.464
 4158POPC   D2A53620  12.031   1.262   6.764
 4158POPC   C3A53621  12.048   1.190   7.064
 4158POPC   C4A53622  12.081   1.215   7.364
 4158POPC   C1B53623  11.854   1.407   6.464
 4158POPC   C2B53624  11.886   1.383   6.764
 4158POPC   C3B53625  11.916   1.368   7.064
 4158POPC   C4B53626  11.857   1.408   7.364
 4159POPC   NC353627  18.294   9.004   5.564
 4159POPC   PO453628  18.275   9.008   5.864
 4159POPC   GL153629  18.270   8.968   6.164
 4159POPC   GL253630  18.418   8.948   6.164
 4159POPC   C1A53631  18.238   9.008   6.464
 4159POPC   D2A53632  18.253   8.995   6.764
 4159POPC   C3A53633  18.266   9.012   7.064
 4159POPC   C4A53634  18.291   9.001   7.364
 4159POPC   C1B53635  18.460   8.875   6.464
 4159POPC   C2B53636  18.510   8.814   6.764
 4159POPC   C3B53637  18.492   8.812   7.064
 4159POPC   C4B53638  18.467   8.833   7.364
 4160POPC   NC353639  12.057   8.168   5.564
 4160POPC   PO453640  12.041   8.161   5.864
 4160POPC   GL153641  12.093   8.225   6.164
 4160POPC   GL253642  12.089   8.032   6.164
 4160POPC   C1A53643  12.108   8.200   6.464
 4160POPC   D2A53644  12.044   8.161   6.764
 4160POPC   C3A53645  12.122   8.217   7.064
 4160POPC   C4A53646  12.088   8.167   7.364
 4160POPC   C1B53647  12.107   7.973   6.464
 4160POPC   C2B53648  12.140   7.908   6.764
 4160POPC   C3B53649  12.152   7.968   7.064
 4160POPC   C4B53650  12.160   7.961   7.364
 4161POPC   NC353651   9.761  28.390   5.564
 4161POPC   PO453652   9.704  28.390   5.864
 4161POPC   GL153653   9.706  28.337   6.164
 4161POPC   GL253654   9.877  28.357   6.164
 4161POPC   C1A53655   9.706  28.382   6.464
 4161POPC   D2A53656   9.754  28.321   6.764
 4161POPC   C3A53657   9.730  28.386   7.064
 4161POPC   C4A53658   9.764  28.340   7.364
 4161POPC   C1B53659   9.955  28.326   6.464
 4161POPC   C2B53660  10.039  28.329   6.764
 4161POPC   C3B53661   9.974  28.365   7.064
 4161POPC   C4B53662   9.977  28.314   7.364
 4162POPC   NC353663  39.248  29.139   5.564
 4162POPC   PO453664  39.258  29.129   5.864
 4162POPC   GL153665  39.194  29.123   6.164
 4162POPC   GL253666  39.302  29.240   6.164
 4162POPC   C1A53667  39.214  29.105   6.464
 4162POPC   D2A53668  39.203  29.115   6.764
 4162POPC   C3A53669  39.261  29.103   7.064
 4162POPC   C4A53670  39.239  29.095   7.364
 4162POPC   C1B53671  39.456  29.220   6.464
 4162POPC   C2B53672  39.432  29.219   6.764
 4162POPC   C3B53673  39.472  29.315   7.064
 4162POPC   C4B53674  39.456  29.315   7.364
 4163POPC   NC353675  34.589  41.577   5.564
 4163POPC   PO453676  34.582  41.543   5.864
 4163POPC   GL153677  34.528  41.575   6.164
 4163POPC   GL253678  34.723  41.612   6.164
 4163POPC   C1A53679  34.578  41.552   6.464
 4163POPC   D2A53680  34.587  41.565   6.764
 4163POPC   C3A53681  34.620  41.539   7.064
 4163POPC   C4A53682  34.567  41.551   7.364
 4163POPC   C1B53683  34.827  41.628   6.464
 4163POPC   C2B53684  34.778  41.615   6.764
 4163POPC   C3B53685  34.795  41.609   7.064
 4163POPC   C4B53686  34.771  41.691   7.364
 4164POPC   NC353687   1.954  36.104   5.564
 4164POPC   PO453688   2.036  36.138   5.864
 4164POPC   GL153689   2.017  36.158   6.164
 4164POPC   GL253690   1.833  36.207   6.164
 4164POPC   C1A53691   2.019  36.125   6.464
 4164POPC   D2A53692   1.977  36.162   6.764
 4164POPC   C3A53693   2.039  36.106   7.064
 4164POPC   C4A53694   2.003  36.148   7.364
 4164POPC   C1B53695   1.793  36.201   6.464
 4164POPC   C2B53696   1.799  36.261   6.764
 4164POPC   C3B53697   1.753  36.263   7.064
 4164POPC   C4B53698   1.738  36.280   7.364
 4165POPC   NC353699  22.978  38.438   5.564
 4165POPC   PO453700  22.892  38.474   5.864
 4165POPC   GL153701  22.908  38.416   6.164
 4165POPC   GL253702  22.957  38.618   6.164
 4165POPC   C1A53703  22.939  38.456   6.464
 4165POPC   D2A53704  22.928  38.454   6.764
 4165POPC   C3A53705  22.980  38.500   7.064
 4165POPC   C4A53706  22.890  38.470   7.364
 4165POPC   C1B53707  23.025  38.659   6.464
 4165POPC   C2B53708  23.061  38.739   6.764
 4165POPC   C3B53709  23.058  38.715   7.064
 4165POPC   C4B53710  23.030  38.729   7.364
 4166POPC   NC353711  16.766  43.909   5.564
 4166POPC   PO453712  16.781  43.844   5.864
 4166POPC   GL153713  16.688  43.867   6.164
 4166POPC   GL253714  16.652  43.947   6.164
 4166POPC   C1A53715  16.737  43.859   6.464
 4166POPC   D2A53716  16.733  43.855   6.764
 4166POPC   C3A53717  16.692  43.885   7.064
 4166POPC   C4A53718  16.775  43.881   7.364
 4166POPC   C1B53719  16.520  43.971   6.464
 4166POPC   C2B53720  16.517  43.977   6.764
 4166POPC   C3B53721  16.537  44.018   7.064
 4166POPC   C4B53722  16.474  44.021   7.364
 4167POPC   NC353723   5.849   0.459   5.564
 4167POPC   PO453724   5.865   0.430   5.864
 4167POPC   GL153725   5.882   0.436   6.164
 4167POPC   GL253726   5.790   0.474   6.164
 4167POPC   C1A53727   5.913   0.439   6.464
 4167POPC   D2A53728   5.900   0.456   6.764
 4167POPC   C3A53729   5.913   0.469   7.064
 4167POPC   C4A53730   5.856   0.400   7.364
 4167POPC   C1B53731   5.624   0.590   6.464
 4167POPC   C2B53732   5.653   0.526   6.764
 4167POPC   C3B53733   5.636   0.599   7.064
 4167POPC   C4B53734   5.680   0.506   7.364
 4168POPC   NC353735  27.601  17.475   5.564
 4168POPC   PO453736  27.555  17.544   5.864
 4168POPC   GL153737  27.568  17.499   6.164
 4168POPC   GL253738  27.572  17.630   6.164
 4168POPC   C1A53739  27.599  17.500   6.464
 4168POPC   D2A53740  27.578  17.493   6.764
 4168POPC   C3A53741  27.638  17.521   7.064
 4168POPC   C4A53742  27.615  17.546   7.364
 4168POPC   C1B53743  27.641  17.758   6.464
 4168POPC   C2B53744  27.557  17.806   6.764
 4168POPC   C3B53745  27.571  17.788   7.064
 4168POPC   C4B53746  27.631  17.734   7.364
 4169POPC   NC353747  36.941  15.975   5.564
 4169POPC   PO453748  36.874  15.928   5.864
 4169POPC   GL153749  36.918  15.975   6.164
 4169POPC   GL253750  36.836  15.870   6.164
 4169POPC   C1A53751  36.953  15.943   6.464
 4169POPC   D2A53752  36.861  15.973   6.764
 4169POPC   C3A53753  36.878  15.947   7.064
 4169POPC   C4A53754  36.924  15.991   7.364
 4169POPC   C1B53755  36.808  15.783   6.464
 4169POPC   C2B53756  36.758  15.770   6.764
 4169POPC   C3B53757  36.811  15.768   7.064
 4169POPC   C4B53758  36.762  15.718   7.364
 4170POPC   NC353759  29.883  12.112   5.564
 4170POPC   PO453760  29.931  12.113   5.864
 4170POPC   GL153761  29.945  12.086   6.164
 4170POPC   GL253762  30.084  12.139   6.164
 4170POPC   C1A53763  29.944  12.040   6.464
 4170POPC   D2A53764  29.914  12.075   6.764
 4170POPC   C3A53765  29.913  12.079   7.064
 4170POPC   C4A53766  29.959  12.080   7.364
 4170POPC   C1B53767  30.138  12.146   6.464
 4170POPC   C2B53768  30.194  12.132   6.764
 4170POPC   C3B53769  30.194  12.143   7.064
 4170POPC   C4B53770  30.163  12.120   7.364
 4171POPC   NC353771  30.714   2.789   5.564
 4171POPC   PO453772  30.686   2.727   5.864
 4171POPC   GL153773  30.696   2.734   6.164
 4171POPC   GL253774  30.829   2.819   6.164
 4171POPC   C1A53775  30.742   2.746   6.464
 4171POPC   D2A53776  30.684   2.749   6.764
 4171POPC   C3A53777  30.673   2.809   7.064
 4171POPC   C4A53778  30.740   2.811   7.364
 4171POPC   C1B53779  30.938   2.814   6.464
 4171POPC   C2B53780  30.968   2.804   6.764
 4171POPC   C3B53781  30.888   2.846   7.064
 4171POPC   C4B53782  30.919   2.835   7.364
 4172POPC   NC353783  28.415  39.194   5.564
 4172POPC   PO453784  28.397  39.275   5.864
 4172POPC   GL153785  28.323  39.257   6.164
 4172POPC   GL253786  28.341  39.113   6.164
 4172POPC   C1A53787  28.365  39.194   6.464
 4172POPC   D2A53788  28.361  39.277   6.764
 4172POPC   C3A53789  28.386  39.186   7.064
 4172POPC   C4A53790  28.337  39.208   7.364
 4172POPC   C1B53791  28.248  39.029   6.464
 4172POPC   C2B53792  28.241  38.960   6.764
 4172POPC   C3B53793  28.297  38.973   7.064
 4172POPC   C4B53794  28.273  39.040   7.364
 4173POPC   NC353795  39.266  37.693   5.564
 4173POPC   PO453796  39.227  37.681   5.864
 4173POPC   GL153797  39.223  37.688   6.164
 4173POPC   GL253798  39.196  37.823   6.164
 4173POPC   C1A53799  39.264  37.702   6.464
 4173POPC   D2A53800  39.263  37.651   6.764
 4173POPC   C3A53801  39.218  37.663   7.064
 4173POPC   C4A53802  39.195  37.638   7.364
 4173POPC   C1B53803  39.180  37.868   6.464
 4173POPC   C2B53804  39.168  37.867   6.764
 4173POPC   C3B53805  39.115  37.962   7.064
 4173POPC   C4B53806  39.174  37.958   7.364
 4174POPC   NC353807  38.488   3.535   5.564
 4174POPC   PO453808  38.500   3.590   5.864
 4174POPC   GL153809  38.417   3.564   6.164
 4174POPC   GL253810  38.448   3.675   6.164
 4174POPC   C1A53811  38.437   3.546   6.464
 4174POPC   D2A53812  38.479   3.591   6.764
 4174POPC   C3A53813  38.460   3.528   7.064
 4174POPC   C4A53814  38.483   3.557   7.364
 4174POPC   C1B53815  38.444   3.788   6.464
 4174POPC   C2B53816  38.435   3.797   6.764
 4174POPC   C3B53817  38.439   3.809   7.064
 4174POPC   C4B53818  38.490   3.822   7.364
 4175POPC   NC353819  41.579  11.278   5.564
 4175POPC   PO453820  41.579  11.266   5.864
 4175POPC   GL153821  41.603  11.322   6.164
 4175POPC   GL253822  41.566  11.403   6.164
 4175POPC   C1A53823  41.519  11.256   6.464
 4175POPC   D2A53824  41.546  11.254   6.764
 4175POPC   C3A53825  41.536  11.257   7.064
 4175POPC   C4A53826  41.584  11.340   7.364
 4175POPC   C1B53827  41.650  11.540   6.464
 4175POPC   C2B53828  41.620  11.497   6.764
 4175POPC   C3B53829  41.701  11.523   7.064
 4175POPC   C4B53830  41.627  11.571   7.364
 4176POPC   NC353831  29.135  11.339   5.564
 4176POPC   PO453832  29.157  11.281   5.864
 4176POPC   GL153833  29.120  11.290   6.164
 4176POPC   GL253834  29.244  11.156   6.164
 4176POPC   C1A53835  29.182  11.340   6.464
 4176POPC   D2A53836  29.183  11.308   6.764
 4176POPC   C3A53837  29.137  11.274   7.064
 4176POPC   C4A53838  29.113  11.284   7.364
 4176POPC   C1B53839  29.320  11.114   6.464
 4176POPC   C2B53840  29.316  11.064   6.764
 4176POPC   C3B53841  29.249  11.068   7.064
 4176POPC   C4B53842  29.266  11.084   7.364
 4177POPC   NC353843   5.067  20.569   5.564
 4177POPC   PO453844   5.090  20.565   5.864
 4177POPC   GL153845   5.058  20.583   6.164
 4177POPC   GL253846   5.055  20.705   6.164
 4177POPC   C1A53847   5.073  20.569   6.464
 4177POPC   D2A53848   5.055  20.642   6.764
 4177POPC   C3A53849   5.143  20.632   7.064
 4177POPC   C4A53850   5.085  20.595   7.364
 4177POPC   C1B53851   4.947  20.786   6.464
 4177POPC   C2B53852   4.911  20.831   6.764
 4177POPC   C3B53853   4.997  20.854   7.064
 4177POPC   C4B53854   4.925  20.798   7.364
 4178POPC   NC353855  31.436   3.553   5.564
 4178POPC   PO453856  31.450   3.521   5.864
 4178POPC   GL153857  31.444   3.535   6.164
 4178POPC   GL253858  31.535   3.638   6.164
 4178POPC   C1A53859  31.450   3.499   6.464
 4178POPC   D2A53860  31.503   3.519   6.764
 4178POPC   C3A53861  31.447   3.581   7.064
 4178POPC   C4A53862  31.506   3.499   7.364
 4178POPC   C1B53863  31.638   3.775   6.464
 4178POPC   C2B53864  31.572   3.789   6.764
 4178POPC   C3B53865  31.653   3.758   7.064
 4178POPC   C4B53866  31.632   3.706   7.364
 4179POPC   NC353867   4.287  12.084   5.564
 4179POPC   PO453868   4.361  12.064   5.864
 4179POPC   GL153869   4.270  12.105   6.164
 4179POPC   GL253870   4.212  12.132   6.164
 4179POPC   C1A53871   4.349  12.043   6.464
 4179POPC   D2A53872   4.367  12.115   6.764
 4179POPC   C3A53873   4.311  12.115   7.064
 4179POPC   C4A53874   4.317  12.093   7.364
 4179POPC   C1B53875   4.162  12.236   6.464
 4179POPC   C2B53876   4.167  12.252   6.764
 4179POPC   C3B53877   4.117  12.300   7.064
 4179POPC   C4B53878   4.128  12.207   7.364
 4180POPC   NC353879   4.294   0.485   5.564
 4180POPC   PO453880   4.314   0.483   5.864
 4180POPC   GL153881   4.311   0.391   6.164
 4180POPC   GL253882   4.387   0.524   6.164
 4180POPC   C1A53883   4.270   0.435   6.464
 4180POPC   D2A53884   4.307   0.396   6.764
 4180POPC   C3A53885   4.316   0.441   7.064
 4180POPC   C4A53886   4.316   0.451   7.364
 4180POPC   C1B53887   4.581   0.530   6.464
 4180POPC   C2B53888   4.516   0.576   6.764
 4180POPC   C3B53889   4.578   0.489   7.064
 4180POPC   C4B53890   4.521   0.509   7.364
 4181POPC   NC353891  13.621  10.486   5.564
 4181POPC   PO453892  13.596  10.496   5.864
 4181POPC   GL153893  13.638  10.491   6.164
 4181POPC   GL253894  13.581  10.605   6.164
 4181POPC   C1A53895  13.645  10.555   6.464
 4181POPC   D2A53896  13.610  10.567   6.764
 4181POPC   C3A53897  13.608  10.485   7.064
 4181POPC   C4A53898  13.595  10.565   7.364
 4181POPC   C1B53899  13.597  10.766   6.464
 4181POPC   C2B53900  13.603  10.728   6.764
 4181POPC   C3B53901  13.632  10.751   7.064
 4181POPC   C4B53902  13.607  10.808   7.364
 4182POPC   NC353903  39.983  33.069   5.564
 4182POPC   PO453904  39.975  33.031   5.864
 4182POPC   GL153905  40.014  33.000   6.164
 4182POPC   GL253906  39.866  32.963   6.164
 4182POPC   C1A53907  40.032  33.008   6.464
 4182POPC   D2A53908  40.023  33.022   6.764
 4182POPC   C3A53909  40.003  33.061   7.064
 4182POPC   C4A53910  39.965  33.039   7.364
 4182POPC   C1B53911  39.750  32.962   6.464
 4182POPC   C2B53912  39.809  32.998   6.764
 4182POPC   C3B53913  39.735  32.926   7.064
 4182POPC   C4B53914  39.783  32.994   7.364
 4183POPC   NC353915   5.093  40.790   5.564
 4183POPC   PO453916   5.132  40.773   5.864
 4183POPC   GL153917   5.073  40.777   6.164
 4183POPC   GL253918   4.954  40.858   6.164
 4183POPC   C1A53919   5.112  40.816   6.464
 4183POPC   D2A53920   5.129  40.762   6.764
 4183POPC   C3A53921   5.119  40.802   7.064
 4183POPC   C4A53922   5.065  40.831   7.364
 4183POPC   C1B53923   4.833  40.867   6.464
 4183POPC   C2B53924   4.808  40.818   6.764
 4183POPC   C3B53925   4.825  40.798   7.064
 4183POPC   C4B53926   4.861  40.854   7.364
 4184POPC   NC353927  27.546  24.524   5.564
 4184POPC   PO453928  27.617  24.465   5.864
 4184POPC   GL153929  27.555  24.511   6.164
 4184POPC   GL253930  27.427  24.507   6.164
 4184POPC   C1A53931  27.620  24.514   6.464
 4184POPC   D2A53932  27.628  24.479   6.764
 4184POPC   C3A53933  27.550  24.475   7.064
 4184POPC   C4A53934  27.619  24.454   7.364
 4184POPC   C1B53935  27.347  24.525   6.464
 4184POPC   C2B53936  27.402  24.581   6.764
 4184POPC   C3B53937  27.345  24.540   7.064
 4184POPC   C4B53938  27.343  24.598   7.364
 4185POPC   NC353939  32.228  28.411   5.564
 4185POPC   PO453940  32.205  28.331   5.864
 4185POPC   GL153941  32.214  28.320   6.164
 4185POPC   GL253942  32.107  28.357   6.164
 4185POPC   C1A53943  32.271  28.337   6.464
 4185POPC   D2A53944  32.266  28.350   6.764
 4185POPC   C3A53945  32.219  28.320   7.064
 4185POPC   C4A53946  32.228  28.325   7.364
 4185POPC   C1B53947  32.052  28.276   6.464
 4185POPC   C2B53948  32.020  28.277   6.764
 4185POPC   C3B53949  31.994  28.262   7.064
 4185POPC   C4B53950  31.985  28.328   7.364
 4186POPC   NC353951  29.919  15.941   5.564
 4186POPC   PO453952  29.895  15.939   5.864
 4186POPC   GL153953  29.932  16.005   6.164
 4186POPC   GL253954  29.912  15.851   6.164
 4186POPC   C1A53955  29.910  15.998   6.464
 4186POPC   D2A53956  29.957  15.914   6.764
 4186POPC   C3A53957  29.926  15.989   7.064
 4186POPC   C4A53958  29.871  15.955   7.364
 4186POPC   C1B53959  29.991  15.716   6.464
 4186POPC   C2B53960  30.026  15.700   6.764
 4186POPC   C3B53961  30.009  15.683   7.064
 4186POPC   C4B53962  29.998  15.708   7.364
 4187POPC   NC353963  14.453  19.055   5.564
 4187POPC   PO453964  14.370  19.064   5.864
 4187POPC   GL153965  14.407  19.016   6.164
 4187POPC   GL253966  14.460  19.006   6.164
 4187POPC   C1A53967  14.412  19.092   6.464
 4187POPC   D2A53968  14.390  19.025   6.764
 4187POPC   C3A53969  14.440  19.052   7.064
 4187POPC   C4A53970  14.366  19.009   7.364
 4187POPC   C1B53971  14.554  18.870   6.464
 4187POPC   C2B53972  14.615  18.936   6.764
 4187POPC   C3B53973  14.583  18.849   7.064
 4187POPC   C4B53974  14.609  18.921   7.364
 4188POPC   NC353975  34.544  29.967   5.564
 4188POPC   PO453976  34.608  29.969   5.864
 4188POPC   GL153977  34.583  29.871   6.164
 4188POPC   GL253978  34.590  30.087   6.164
 4188POPC   C1A53979  34.538  29.953   6.464
 4188POPC   D2A53980  34.562  29.918   6.764
 4188POPC   C3A53981  34.589  29.901   7.064
 4188POPC   C4A53982  34.623  29.902   7.364
 4188POPC   C1B53983  34.477  30.114   6.464
 4188POPC   C2B53984  34.484  30.197   6.764
 4188POPC   C3B53985  34.537  30.144   7.064
 4188POPC   C4B53986  34.546  30.202   7.364
 4189POPC   NC353987   0.466   2.011   5.564
 4189POPC   PO453988   0.473   1.988   5.864
 4189POPC   GL153989   0.389   1.975   6.164
 4189POPC   GL253990   0.297   1.893   6.164
 4189POPC   C1A53991   0.445   2.018   6.464
 4189POPC   D2A53992   0.462   1.951   6.764
 4189POPC   C3A53993   0.392   2.034   7.064
 4189POPC   C4A53994   0.411   1.996   7.364
 4189POPC   C1B53995   0.195   1.884   6.464
 4189POPC   C2B53996   0.193   1.885   6.764
 4189POPC   C3B53997   0.222   1.878   7.064
 4189POPC   C4B53998   0.240   1.857   7.364
 4190POPC   NC353999  29.164  27.630   5.564
 4190POPC   PO454000  29.175  27.553   5.864
 4190POPC   GL154001  29.188  27.616   6.164
 4190POPC   GL254002  29.231  27.519   6.164
 4190POPC   C1A54003  29.193  27.568   6.464
 4190POPC   D2A54004  29.141  27.559   6.764
 4190POPC   C3A54005  29.109  27.563   7.064
 4190POPC   C4A54006  29.159  27.545   7.364
 4190POPC   C1B54007  29.320  27.396   6.464
 4190POPC   C2B54008  29.285  27.429   6.764
 4190POPC   C3B54009  29.350  27.460   7.064
 4190POPC   C4B54010  29.327  27.468   7.364
 4191POPC   NC354011  10.525  43.104   5.564
 4191POPC   PO454012  10.571  43.091   5.864
 4191POPC   GL154013  10.489  43.075   6.164
 4191POPC   GL254014  10.440  43.234   6.164
 4191POPC   C1A54015  10.494  43.084   6.464
 4191POPC   D2A54016  10.485  43.086   6.764
 4191POPC   C3A54017  10.476  43.074   7.064
 4191POPC   C4A54018  10.524  43.070   7.364
 4191POPC   C1B54019  10.379  43.353   6.464
 4191POPC   C2B54020  10.344  43.332   6.764
 4191POPC   C3B54021  10.347  43.349   7.064
 4191POPC   C4B54022  10.377  43.281   7.364
 4192POPC   NC354023  30.702  40.023   5.564
 4192POPC   PO454024  30.668  40.027   5.864
 4192POPC   GL154025  30.667  39.963   6.164
 4192POPC   GL254026  30.636  39.853   6.164
 4192POPC   C1A54027  30.697  40.027   6.464
 4192POPC   D2A54028  30.669  39.960   6.764
 4192POPC   C3A54029  30.659  40.029   7.064
 4192POPC   C4A54030  30.683  39.981   7.364
 4192POPC   C1B54031  30.641  39.714   6.464
 4192POPC   C2B54032  30.682  39.714   6.764
 4192POPC   C3B54033  30.624  39.761   7.064
 4192POPC   C4B54034  30.692  39.732   7.364
 4193POPC   NC354035  38.429  13.647   5.564
 4193POPC   PO454036  38.430  13.653   5.864
 4193POPC   GL154037  38.407  13.640   6.164
 4193POPC   GL254038  38.588  13.632   6.164
 4193POPC   C1A54039  38.474  13.659   6.464
 4193POPC   D2A54040  38.470  13.597   6.764
 4193POPC   C3A54041  38.490  13.639   7.064
 4193POPC   C4A54042  38.480  13.608   7.364
 4193POPC   C1B54043  38.731  13.518   6.464
 4193POPC   C2B54044  38.652  13.589   6.764
 4193POPC   C3B54045  38.694  13.554   7.064
 4193POPC   C4B54046  38.709  13.530   7.364
 4194POPC   NC354047  39.252  30.696   5.564
 4194POPC   PO454048  39.273  30.746   5.864
 4194POPC   GL154049  39.251  30.659   6.164
 4194POPC   GL254050  39.110  30.741   6.164
 4194POPC   C1A54051  39.248  30.715   6.464
 4194POPC   D2A54052  39.214  30.651   6.764
 4194POPC   C3A54053  39.207  30.670   7.064
 4194POPC   C4A54054  39.266  30.725   7.364
 4194POPC   C1B54055  39.081  30.833   6.464
 4194POPC   C2B54056  39.085  30.921   6.764
 4194POPC   C3B54057  39.114  30.884   7.064
 4194POPC   C4B54058  39.022  30.901   7.364
 4195POPC   NC354059   8.242  18.253   5.564
 4195POPC   PO454060   8.206  18.311   5.864
 4195POPC   GL154061   8.207  18.300   6.164
 4195POPC   GL254062   8.170  18.208   6.164
 4195POPC   C1A54063   8.234  18.326   6.464
 4195POPC   D2A54064   8.228  18.252   6.764
 4195POPC   C3A54065   8.204  18.310   7.064
 4195POPC   C4A54066   8.185  18.234   7.364
 4195POPC   C1B54067   8.200  18.072   6.464
 4195POPC   C2B54068   8.186  18.001   6.764
 4195POPC   C3B54069   8.253  18.011   7.064
 4195POPC   C4B54070   8.272  18.074   7.364
 4196POPC   NC354071   8.169  10.528   5.564
 4196POPC   PO454072   8.229  10.536   5.864
 4196POPC   GL154073   8.198  10.509   6.164
 4196POPC   GL254074   8.261  10.621   6.164
 4196POPC   C1A54075   8.188  10.488   6.464
 4196POPC   D2A54076   8.224  10.527   6.764
 4196POPC   C3A54077   8.188  10.481   7.064
 4196POPC   C4A54078   8.171  10.535   7.364
 4196POPC   C1B54079   8.211  10.756   6.464
 4196POPC   C2B54080   8.282  10.746   6.764
 4196POPC   C3B54081   8.202  10.778   7.064
 4196POPC   C4B54082   8.268  10.730   7.364
 4197POPC   NC354083  15.142   3.499   5.564
 4197POPC   PO454084  15.134   3.506   5.864
 4197POPC   GL154085  15.207   3.511   6.164
 4197POPC   GL254086  15.110   3.576   6.164
 4197POPC   C1A54087  15.215   3.574   6.464
 4197POPC   D2A54088  15.204   3.505   6.764
 4197POPC   C3A54089  15.160   3.569   7.064
 4197POPC   C4A54090  15.215   3.584   7.364
 4197POPC   C1B54091  14.914   3.667   6.464
 4197POPC   C2B54092  14.905   3.675   6.764
 4197POPC   C3B54093  14.934   3.606   7.064
 4197POPC   C4B54094  14.943   3.636   7.364
 4198POPC   NC354095   3.532  36.152   5.564
 4198POPC   PO454096   3.566  36.095   5.864
 4198POPC   GL154097   3.569  36.089   6.164
 4198POPC   GL254098   3.615  36.270   6.164
 4198POPC   C1A54099   3.561  36.084   6.464
 4198POPC   D2A54100   3.521  36.099   6.764
 4198POPC   C3A54101   3.520  36.177   7.064
 4198POPC   C4A54102   3.561  36.132   7.364
 4198POPC   C1B54103   3.664  36.408   6.464
 4198POPC   C2B54104   3.651  36.405   6.764
 4198POPC   C3B54105   3.637  36.339   7.064
 4198POPC   C4B54106   3.661  36.365   7.364
 4199POPC   NC354107  16.745  24.531   5.564
 4199POPC   PO454108  16.772  24.477   5.864
 4199POPC   GL154109  16.743  24.457   6.164
 4199POPC   GL254110  16.645  24.541   6.164
 4199POPC   C1A54111  16.717  24.523   6.464
 4199POPC   D2A54112  16.705  24.500   6.764
 4199POPC   C3A54113  16.686  24.505   7.064
 4199POPC   C4A54114  16.728  24.482   7.364
 4199POPC   C1B54115  16.495  24.638   6.464
 4199POPC   C2B54116  16.493  24.568   6.764
 4199POPC   C3B54117  16.530  24.638   7.064
 4199POPC   C4B54118  16.523  24.569   7.364
 4200POPC   NC354119  31.475   0.406   5.564
 4200POPC   PO454120  31.436   0.392   5.864
 4200POPC   GL154121  31.515   0.451   6.164
 4200POPC   GL254122  31.355   0.413   6.164
 4200POPC   C1A54123  31.493   0.459   6.464
 4200POPC   D2A54124  31.444   0.416   6.764
 4200POPC   C3A54125  31.504   0.456   7.064
 4200POPC   C4A54126  31.441   0.481   7.364
 4200POPC   C1B54127  31.252   0.422   6.464
 4200POPC   C2B54128  31.270   0.457   6.764
 4200POPC   C3B54129  31.259   0.453   7.064
 4200POPC   C4B54130  31.247   0.403   7.364
 4201POPC   NC354131  26.865  34.585   5.564
 4201POPC   PO454132  26.791  34.609   5.864
 4201POPC   GL154133  26.852  34.544   6.164
 4201POPC   GL254134  26.699  34.674   6.164
 4201POPC   C1A54135  26.812  34.586   6.464
 4201POPC   D2A54136  26.844  34.568   6.764
 4201POPC   C3A54137  26.860  34.547   7.064
 4201POPC   C4A54138  26.775  34.579   7.364
 4201POPC   C1B54139  26.560  34.735   6.464
 4201POPC   C2B54140  26.619  34.685   6.764
 4201POPC   C3B54141  26.562  34.699   7.064
 4201POPC   C4B54142  26.627  34.741   7.364
 4202POPC   NC354143  24.491  16.698   5.564
 4202POPC   PO454144  24.468  16.729   5.864
 4202POPC   GL154145  24.529  16.711   6.164
 4202POPC   GL254146  24.629  16.798   6.164
 4202POPC   C1A54147  24.459  16.753   6.464
 4202POPC   D2A54148  24.493  16.725   6.764
 4202POPC   C3A54149  24.469  16.742   7.064
 4202POPC   C4A54150  24.480  16.744   7.364
 4202POPC   C1B54151  24.677  16.803   6.464
 4202POPC   C2B54152  24.744  16.779   6.764
 4202POPC   C3B54153  24.736  16.825   7.064
 4202POPC   C4B54154  24.686  16.821   7.364
 4203POPC   NC354155  41.601  22.985   5.564
 4203POPC   PO454156  41.529  22.964   5.864
 4203POPC   GL154157  41.547  22.924   6.164
 4203POPC   GL254158  41.434  22.906   6.164
 4203POPC   C1A54159  41.573  22.960   6.464
 4203POPC   D2A54160  41.602  22.953   6.764
 4203POPC   C3A54161  41.592  22.903   7.064
 4203POPC   C4A54162  41.576  22.931   7.364
 4203POPC   C1B54163  41.316  22.870   6.464
 4203POPC   C2B54164  41.293  22.881   6.764
 4203POPC   C3B54165  41.363  22.900   7.064
 4203POPC   C4B54166  41.335  22.823   7.364
 4204POPC   NC354167   3.498  33.069   5.564
 4204POPC   PO454168   3.585  33.035   5.864
 4204POPC   GL154169   3.494  33.065   6.164
 4204POPC   GL254170   3.546  33.140   6.164
 4204POPC   C1A54171   3.511  33.062   6.464
 4204POPC   D2A54172   3.573  33.042   6.764
 4204POPC   C3A54173   3.556  32.996   7.064
 4204POPC   C4A54174   3.587  33.067   7.364
 4204POPC   C1B54175   3.455  33.274   6.464
 4204POPC   C2B54176   3.506  33.233   6.764
 4204POPC   C3B54177   3.483  33.305   7.064
 4204POPC   C4B54178   3.452  33.231   7.364
 4205POPC   NC354179   4.299  19.105   5.564
 4205POPC   PO454180   4.341  19.071   5.864
 4205POPC   GL154181   4.276  19.090   6.164
 4205POPC   GL254182   4.312  19.227   6.164
 4205POPC   C1A54183   4.340  19.050   6.464
 4205POPC   D2A54184   4.314  19.089   6.764
 4205POPC   C3A54185   4.333  19.050   7.064
 4205POPC   C4A54186   4.282  19.049   7.364
 4205POPC   C1B54187   4.319  19.343   6.464
 4205POPC   C2B54188   4.326  19.275   6.764
 4205POPC   C3B54189   4.272  19.333   7.064
 4205POPC   C4B54190   4.322  19.264   7.364
 4206POPC   NC354191  34.612  27.602   5.564
 4206POPC   PO454192  34.622  27.627   5.864
 4206POPC   GL154193  34.583  27.558   6.164
 4206POPC   GL254194  34.705  27.625   6.164
 4206POPC   C1A54195  34.583  27.544   6.464
 4206POPC   D2A54196  34.576  27.616   6.764
 4206POPC   C3A54197  34.556  27.564   7.064
 4206POPC   C4A54198  34.594  27.556   7.364
 4206POPC   C1B54199  34.858  27.620   6.464
 4206POPC   C2B54200  34.830  27.546   6.764
 4206POPC   C3B54201  34.800  27.585   7.064
 4206POPC   C4B54202  34.847  27.604   7.364
 4207POPC   NC354203  40.045   8.244   5.564
 4207POPC   PO454204  40.047   8.217   5.864
 4207POPC   GL154205  39.981   8.205   6.164
 4207POPC   GL254206  40.063   8.300   6.164
 4207POPC   C1A54207  40.027   8.199   6.464
 4207POPC   D2A54208  39.987   8.189   6.764
 4207POPC   C3A54209  40.052   8.167   7.064
 4207POPC   C4A54210  40.049   8.201   7.364
 4207POPC   C1B54211  40.158   8.346   6.464
 4207POPC   C2B54212  40.192   8.350   6.764
 4207POPC   C3B54213  40.209   8.377   7.064
 4207POPC   C4B54214  40.178   8.358   7.364
 4208POPC   NC354215  42.286  31.518   5.564
 4208POPC   PO454216  42.384  31.487   5.864
 4208POPC   GL154217  42.320  31.437   6.164
 4208POPC   GL254218  42.306  31.589   6.164
 4208POPC   C1A54219  42.326  31.493   6.464
 4208POPC   D2A54220  42.359  31.446   6.764
 4208POPC   C3A54221  42.347  31.465   7.064
 4208POPC   C4A54222  42.366  31.440   7.364
 4208POPC   C1B54223  42.273  31.673   6.464
 4208POPC   C2B54224  42.295  31.708   6.764
 4208POPC   C3B54225  42.279  31.749   7.064
 4208POPC   C4B54226  42.344  31.694   7.364
 4209POPC   NC354227   6.653   9.760   5.564
 4209POPC   PO454228   6.612   9.771   5.864
 4209POPC   GL154229   6.648   9.793   6.164
 4209POPC   GL254230   6.680   9.836   6.164
 4209POPC   C1A54231   6.637   9.783   6.464
 4209POPC   D2A54232   6.632   9.780   6.764
 4209POPC   C3A54233   6.601   9.734   7.064
 4209POPC   C4A54234   6.673   9.798   7.364
 4209POPC   C1B54235   6.733  10.037   6.464
 4209POPC   C2B54236   6.655  10.020   6.764
 4209POPC   C3B54237   6.727   9.954   7.064
 4209POPC   C4B54238   6.645   9.952   7.364
 4210POPC   NC354239  19.100   4.293   5.564
 4210POPC   PO454240  19.102   4.321   5.864
 4210POPC   GL154241  19.087   4.298   6.164
 4210POPC   GL254242  19.138   4.405   6.164
 4210POPC   C1A54243  19.096   4.295   6.464
 4210POPC   D2A54244  19.054   4.364   6.764
 4210POPC   C3A54245  19.039   4.305   7.064
 4210POPC   C4A54246  19.045   4.276   7.364
 4210POPC   C1B54247  19.160   4.504   6.464
 4210POPC   C2B54248  19.133   4.507   6.764
 4210POPC   C3B54249  19.160   4.570   7.064
 4210POPC   C4B54250  19.178   4.586   7.364
 4211POPC   NC354251  18.295   5.046   5.564
 4211POPC   PO454252  18.289   5.067   5.864
 4211POPC   GL154253  18.279   5.139   6.164
 4211POPC   GL254254  18.291   4.995   6.164
 4211POPC   C1A54255  18.279   5.092   6.464
 4211POPC   D2A54256  18.260   5.061   6.764
 4211POPC   C3A54257  18.315   5.137   7.064
 4211POPC   C4A54258  18.243   5.099   7.364
 4211POPC   C1B54259  18.255   4.882   6.464
 4211POPC   C2B54260  18.214   4.822   6.764
 4211POPC   C3B54261  18.235   4.866   7.064
 4211POPC   C4B54262  18.259   4.881   7.364
 4212POPC   NC354263  18.271  22.950   5.564
 4212POPC   PO454264  18.297  22.934   5.864
 4212POPC   GL154265  18.328  22.892   6.164
 4212POPC   GL254266  18.344  22.836   6.164
 4212POPC   C1A54267  18.332  22.931   6.464
 4212POPC   D2A54268  18.306  22.907   6.764
 4212POPC   C3A54269  18.298  22.944   7.064
 4212POPC   C4A54270  18.298  22.979   7.364
 4212POPC   C1B54271  18.353  22.703   6.464
 4212POPC   C2B54272  18.326  22.727   6.764
 4212POPC   C3B54273  18.344  22.686   7.064
 4212POPC   C4B54274  18.357  22.703   7.364
 4213POPC   NC354275  26.848  22.891   5.564
 4213POPC   PO454276  26.849  22.922   5.864
 4213POPC   GL154277  26.840  22.944   6.164
 4213POPC   GL254278  26.821  23.103   6.164
 4213POPC   C1A54279  26.866  22.931   6.464
 4213POPC   D2A54280  26.827  22.947   6.764
 4213POPC   C3A54281  26.784  22.908   7.064
 4213POPC   C4A54282  26.845  22.984   7.364
 4213POPC   C1B54283  26.874  23.122   6.464
 4213POPC   C2B54284  26.910  23.188   6.764
 4213POPC   C3B54285  26.878  23.125   7.064
 4213POPC   C4B54286  26.874  23.196   7.364
 4214POPC   NC354287  21.415  22.979   5.564
 4214POPC   PO454288  21.336  22.896   5.864
 4214POPC   GL154289  21.400  22.967   6.164
 4214POPC   GL254290  21.300  22.811   6.164
 4214POPC   C1A54291  21.348  22.953   6.464
 4214POPC   D2A54292  21.361  22.985   6.764
 4214POPC   C3A54293  21.415  22.934   7.064
 4214POPC   C4A54294  21.373  22.960   7.364
 4214POPC   C1B54295  21.244  22.764   6.464
 4214POPC   C2B54296  21.256  22.739   6.764
 4214POPC   C3B54297  21.243  22.682   7.064
 4214POPC   C4B54298  21.267  22.744   7.364
 4215POPC   NC354299  23.753   4.289   5.564
 4215POPC   PO454300  23.709   4.301   5.864
 4215POPC   GL154301  23.718   4.276   6.164
 4215POPC   GL254302  23.786   4.297   6.164
 4215POPC   C1A54303  23.672   4.281   6.464
 4215POPC   D2A54304  23.665   4.287   6.764
 4215POPC   C3A54305  23.700   4.277   7.064
 4215POPC   C4A54306  23.689   4.307   7.364
 4215POPC   C1B54307  23.913   4.300   6.464
 4215POPC   C2B54308  23.911   4.308   6.764
 4215POPC   C3B54309  23.941   4.225   7.064
 4215POPC   C4B54310  23.963   4.258   7.364
 4216POPC   NC354311   1.257  25.302   5.564
 4216POPC   PO454312   1.202  25.295   5.864
 4216POPC   GL154313   1.231  25.282   6.164
 4216POPC   GL254314   1.178  25.327   6.164
 4216POPC   C1A54315   1.216  25.257   6.464
 4216POPC   D2A54316   1.206  25.241   6.764
 4216POPC   C3A54317   1.197  25.251   7.064
 4216POPC   C4A54318   1.224  25.275   7.364
 4216POPC   C1B54319   1.067  25.469   6.464
 4216POPC   C2B54320   1.045  25.485   6.764
 4216POPC   C3B54321   1.074  25.508   7.064
 4216POPC   C4B54322   1.073  25.438   7.364
 4217POPC   NC354323  33.012   0.487   5.564
 4217POPC   PO454324  32.994   0.404   5.864
 4217POPC   GL154325  33.007   0.458   6.164
 4217POPC   GL254326  33.043   0.612   6.164
 4217POPC   C1A54327  33.060   0.427   6.464
 4217POPC   D2A54328  33.025   0.413   6.764
 4217POPC   C3A54329  32.982   0.477   7.064
 4217POPC   C4A54330  32.993   0.428   7.364
 4217POPC   C1B54331  33.066   0.657   6.464
 4217POPC   C2B54332  32.987   0.648   6.764
 4217POPC   C3B54333  33.016   0.658   7.064
 4217POPC   C4B54334  33.025   0.675   7.364
 4218POPC   NC354335   7.451  26.866   5.564
 4218POPC   PO454336   7.408  26.783   5.864
 4218POPC   GL154337   7.433  26.812   6.164
 4218POPC   GL254338   7.371  26.887   6.164
 4218POPC   C1A54339   7.464  26.771   6.464
 4218POPC   D2A54340   7.437  26.804   6.764
 4218POPC   C3A54341   7.374  26.788   7.064
 4218POPC   C4A54342   7.400  26.815   7.364
 4218POPC   C1B54343   7.285  27.029   6.464
 4218POPC   C2B54344   7.375  27.082   6.764
 4218POPC   C3B54345   7.351  27.022   7.064
 4218POPC   C4B54346   7.295  27.094   7.364
 4219POPC   NC354347   1.967  35.357   5.564
 4219POPC   PO454348   2.023  35.348   5.864
 4219POPC   GL154349   1.998  35.390   6.164
 4219POPC   GL254350   2.065  35.361   6.164
 4219POPC   C1A54351   2.037  35.383   6.464
 4219POPC   D2A54352   1.988  35.372   6.764
 4219POPC   C3A54353   2.031  35.333   7.064
 4219POPC   C4A54354   1.987  35.350   7.364
 4219POPC   C1B54355   2.193  35.373   6.464
 4219POPC   C2B54356   2.203  35.397   6.764
 4219POPC   C3B54357   2.247  35.420   7.064
 4219POPC   C4B54358   2.270  35.392   7.364
 4220POPC   NC354359   2.783  29.894   5.564
 4220POPC   PO454360   2.769  29.932   5.864
 4220POPC   GL154361   2.803  29.945   6.164
 4220POPC   GL254362   2.895  29.962   6.164
 4220POPC   C1A54363   2.761  29.917   6.464
 4220POPC   D2A54364   2.792  29.901   6.764
 4220POPC   C3A54365   2.774  29.953   7.064
 4220POPC   C4A54366   2.794  29.892   7.364
 4220POPC   C1B54367   2.975  30.055   6.464
 4220POPC   C2B54368   2.942  30.027   6.764
 4220POPC   C3B54369   2.957  29.989   7.064
 4220POPC   C4B54370   2.956  30.048   7.364
 4221POPC   NC354371  14.391  41.569   5.564
 4221POPC   PO454372  14.391  41.509   5.864
 4221POPC   GL154373  14.417  41.547   6.164
 4221POPC   GL254374  14.429  41.401   6.164
 4221POPC   C1A54375  14.435  41.533   6.464
 4221POPC   D2A54376  14.375  41.560   6.764
 4221POPC   C3A54377  14.428  41.542   7.064
 4221POPC   C4A54378  14.407  41.571   7.364
 4221POPC   C1B54379  14.489  41.347   6.464
 4221POPC   C2B54380  14.451  41.300   6.764
 4221POPC   C3B54381  14.429  41.316   7.064
 4221POPC   C4B54382  14.426  41.358   7.364
 4222POPC   NC354383  43.091  11.257   5.564
 4222POPC   PO454384  43.071  11.253   5.864
 4222POPC   GL154385  43.084  11.284   6.164
 4222POPC   GL254386  43.026  11.190   6.164
 4222POPC   C1A54387  43.073  11.255   6.464
 4222POPC   D2A54388  43.142  11.319   6.764
 4222POPC   C3A54389  43.142  11.338   7.064
 4222POPC   C4A54390  43.104  11.266   7.364
 4222POPC   C1B54391  43.027  11.021   6.464
 4222POPC   C2B54392  43.075  11.064   6.764
 4222POPC   C3B54393  43.010  11.024   7.064
 4222POPC   C4B54394  43.000  11.019   7.364
 4223POPC   NC354395   5.893  11.267   5.564
 4223POPC   PO454396   5.883  11.276   5.864
 4223POPC   GL154397   5.912  11.303   6.164
 4223POPC   GL254398   5.871  11.166   6.164
 4223POPC   C1A54399   5.906  11.257   6.464
 4223POPC   D2A54400   5.828  11.315   6.764
 4223POPC   C3A54401   5.895  11.308   7.064
 4223POPC   C4A54402   5.864  11.347   7.364
 4223POPC   C1B54403   5.958  11.024   6.464
 4223POPC   C2B54404   5.952  11.048   6.764
 4223POPC   C3B54405   5.946  11.090   7.064
 4223POPC   C4B54406   5.945  11.039   7.364
 4224POPC   NC354407   6.631   1.942   5.564
 4224POPC   PO454408   6.671   1.946   5.864
 4224POPC   GL154409   6.607   1.999   6.164
 4224POPC   GL254410   6.483   2.048   6.164
 4224POPC   C1A54411   6.653   2.017   6.464
 4224POPC   D2A54412   6.616   1.995   6.764
 4224POPC   C3A54413   6.662   1.998   7.064
 4224POPC   C4A54414   6.651   1.963   7.364
 4224POPC   C1B54415   6.444   2.044   6.464
 4224POPC   C2B54416   6.365   2.018   6.764
 4224POPC   C3B54417   6.414   2.074   7.064
 4224POPC   C4B54418   6.440   2.043   7.364
 4225POPC   NC354419  21.389  29.162   5.564
 4225POPC   PO454420  21.351  29.183   5.864
 4225POPC   GL154421  21.431  29.106   6.164
 4225POPC   GL254422  21.444  29.259   6.164
 4225POPC   C1A54423  21.418  29.135   6.464
 4225POPC   D2A54424  21.406  29.182   6.764
 4225POPC   C3A54425  21.358  29.173   7.064
 4225POPC   C4A54426  21.374  29.123   7.364
 4225POPC   C1B54427  21.423  29.401   6.464
 4225POPC   C2B54428  21.429  29.378   6.764
 4225POPC   C3B54429  21.370  29.432   7.064
 4225POPC   C4B54430  21.362  29.361   7.364
 4226POPC   NC354431  43.930  15.948   5.564
 4226POPC   PO454432  43.876  15.999   5.864
 4226POPC   GL154433  43.869  15.988   6.164
 4226POPC   GL254434  43.815  15.889   6.164
 4226POPC   C1A54435  43.865  15.909   6.464
 4226POPC   D2A54436  43.868  15.936   6.764
 4226POPC   C3A54437  43.912  16.003   7.064
 4226POPC   C4A54438  43.936  15.923   7.364
 4226POPC   C1B54439  43.802  15.734   6.464
 4226POPC   C2B54440  43.816  15.711   6.764
 4226POPC   C3B54441  43.784  15.718   7.064
 4226POPC   C4B54442  43.759  15.759   7.364
 4227POPC   NC354443   2.740   6.657   5.564
 4227POPC   PO454444   2.771   6.658   5.864
 4227POPC   GL154445   2.747   6.599   6.164
 4227POPC   GL254446   2.923   6.614   6.164
 4227POPC   C1A54447   2.737   6.606   6.464
 4227POPC   D2A54448   2.782   6.600   6.764
 4227POPC   C3A54449   2.758   6.611   7.064
 4227POPC   C4A54450   2.727   6.649   7.364
 4227POPC   C1B54451   2.978   6.618   6.464
 4227POPC   C2B54452   2.978   6.615   6.764
 4227POPC   C3B54453   3.038   6.641   7.064
 4227POPC   C4B54454   3.038   6.579   7.364
 4228POPC   NC354455  29.173  10.508   5.564
 4228POPC   PO454456  29.179  10.536   5.864
 4228POPC   GL154457  29.146  10.518   6.164
 4228POPC   GL254458  29.133  10.409   6.164
 4228POPC   C1A54459  29.105  10.511   6.464
 4228POPC   D2A54460  29.142  10.518   6.764
 4228POPC   C3A54461  29.106  10.484   7.064
 4228POPC   C4A54462  29.100  10.550   7.364
 4228POPC   C1B54463  29.053  10.283   6.464
 4228POPC   C2B54464  29.076  10.254   6.764
 4228POPC   C3B54465  29.061  10.290   7.064
 4228POPC   C4B54466  29.052  10.316   7.364
 4229POPC   NC354467  16.759  27.617   5.564
 4229POPC   PO454468  16.764  27.588   5.864
 4229POPC   GL154469  16.723  27.562   6.164
 4229POPC   GL254470  16.837  27.590   6.164
 4229POPC   C1A54471  16.734  27.597   6.464
 4229POPC   D2A54472  16.715  27.551   6.764
 4229POPC   C3A54473  16.687  27.615   7.064
 4229POPC   C4A54474  16.698  27.618   7.364
 4229POPC   C1B54475  16.940  27.704   6.464
 4229POPC   C2B54476  17.013  27.710   6.764
 4229POPC   C3B54477  17.012  27.728   7.064
 4229POPC   C4B54478  16.916  27.701   7.364
 4230POPC   NC354479  13.601  29.919   5.564
 4230POPC   PO454480  13.638  29.913   5.864
 4230POPC   GL154481  13.671  29.897   6.164
 4230POPC   GL254482  13.651  29.807   6.164
 4230POPC   C1A54483  13.581  29.970   6.464
 4230POPC   D2A54484  13.640  29.913   6.764
 4230POPC   C3A54485  13.607  29.899   7.064
 4230POPC   C4A54486  13.658  29.873   7.364
 4230POPC   C1B54487  13.711  29.673   6.464
 4230POPC   C2B54488  13.693  29.681   6.764
 4230POPC   C3B54489  13.668  29.662   7.064
 4230POPC   C4B54490  13.703  29.646   7.364
 4231POPC   NC354491  38.477  40.019   5.564
 4231POPC   PO454492  38.467  40.020   5.864
 4231POPC   GL154493  38.465  40.015   6.164
 4231POPC   GL254494  38.378  40.080   6.164
 4231POPC   C1A54495  38.466  39.999   6.464
 4231POPC   D2A54496  38.429  40.021   6.764
 4231POPC   C3A54497  38.503  40.009   7.064
 4231POPC   C4A54498  38.439  39.988   7.364
 4231POPC   C1B54499  38.310  40.124   6.464
 4231POPC   C2B54500  38.304  40.158   6.764
 4231POPC   C3B54501  38.269  40.119   7.064
 4231POPC   C4B54502  38.251  40.215   7.364
 4232POPC   NC354503   2.768  19.844   5.564
 4232POPC   PO454504   2.732  19.842   5.864
 4232POPC   GL154505   2.756  19.872   6.164
 4232POPC   GL254506   2.671  19.857   6.164
 4232POPC   C1A54507   2.782  19.841   6.464
 4232POPC   D2A54508   2.721  19.846   6.764
 4232POPC   C3A54509   2.813  19.815   7.064
 4232POPC   C4A54510   2.736  19.796   7.364
 4232POPC   C1B54511   2.551  19.915   6.464
 4232POPC   C2B54512   2.530  19.919   6.764
 4232POPC   C3B54513   2.506  19.830   7.064
 4232POPC   C4B54514   2.548  19.851   7.364
 4233POPC   NC354515   1.969  19.052   5.564
 4233POPC   PO454516   2.028  19.092   5.864
 4233POPC   GL154517   1.951  19.042   6.164
 4233POPC   GL254518   1.953  19.168   6.164
 4233POPC   C1A54519   1.975  19.085   6.464
 4233POPC   D2A54520   1.946  19.093   6.764
 4233POPC   C3A54521   1.961  19.095   7.064
 4233POPC   C4A54522   2.038  19.102   7.364
 4233POPC   C1B54523   1.891  19.258   6.464
 4233POPC   C2B54524   1.894  19.239   6.764
 4233POPC   C3B54525   1.840  19.284   7.064
 4233POPC   C4B54526   1.827  19.241   7.364
 4234POPC   NC354527  43.132  22.960   5.564
 4234POPC   PO454528  43.150  22.978   5.864
 4234POPC   GL154529  43.135  22.900   6.164
 4234POPC   GL254530  43.218  22.987   6.164
 4234POPC   C1A54531  43.122  22.956   6.464
 4234POPC   D2A54532  43.077  22.916   6.764
 4234POPC   C3A54533  43.127  22.913   7.064
 4234POPC   C4A54534  43.134  22.932   7.364
 4234POPC   C1B54535  43.317  23.157   6.464
 4234POPC   C2B54536  43.334  23.150   6.764
 4234POPC   C3B54537  43.307  23.069   7.064
 4234POPC   C4B54538  43.250  23.145   7.364
 4235POPC   NC354539  44.707   7.380   5.564
 4235POPC   PO454540  44.709   7.382   5.864
 4235POPC   GL154541  44.705   7.404   6.164
 4235POPC   GL254542  44.820   7.436   6.164
 4235POPC   C1A54543  44.695   7.419   6.464
 4235POPC   D2A54544  44.613   7.430   6.764
 4235POPC   C3A54545  44.710   7.392   7.064
 4235POPC   C4A54546  44.645   7.452   7.364
 4235POPC   C1B54547  44.889   7.496   6.464
 4235POPC   C2B54548  44.919   7.487   6.764
 4235POPC   C3B54549  44.844   7.566   7.064
 4235POPC   C4B54550  44.859   7.500   7.364
 4236POPC   NC354551  20.586  43.888   5.564
 4236POPC   PO454552  20.585  43.875   5.864
 4236POPC   GL154553  20.620  43.909   6.164
 4236POPC   GL254554  20.673  43.842   6.164
 4236POPC   C1A54555  20.628  43.872   6.464
 4236POPC   D2A54556  20.605  43.852   6.764
 4236POPC   C3A54557  20.633  43.895   7.064
 4236POPC   C4A54558  20.585  43.892   7.364
 4236POPC   C1B54559  20.747  43.665   6.464
 4236POPC   C2B54560  20.777  43.754   6.764
 4236POPC   C3B54561  20.739  43.687   7.064
 4236POPC   C4B54562  20.793  43.720   7.364
 4237POPC   NC354563  26.776  32.209   5.564
 4237POPC   PO454564  26.810  32.283   5.864
 4237POPC   GL154565  26.811  32.246   6.164
 4237POPC   GL254566  26.739  32.237   6.164
 4237POPC   C1A54567  26.778  32.211   6.464
 4237POPC   D2A54568  26.801  32.241   6.764
 4237POPC   C3A54569  26.800  32.233   7.064
 4237POPC   C4A54570  26.774  32.244   7.364
 4237POPC   C1B54571  26.545  32.306   6.464
 4237POPC   C2B54572  26.547  32.265   6.764
 4237POPC   C3B54573  26.569  32.293   7.064
 4237POPC   C4B54574  26.531  32.302   7.364
 4238POPC   NC354575  26.850  33.751   5.564
 4238POPC   PO454576  26.840  33.819   5.864
 4238POPC   GL154577  26.797  33.793   6.164
 4238POPC   GL254578  26.822  33.887   6.164
 4238POPC   C1A54579  26.790  33.839   6.464
 4238POPC   D2A54580  26.860  33.832   6.764
 4238POPC   C3A54581  26.770  33.819   7.064
 4238POPC   C4A54582  26.852  33.826   7.364
 4238POPC   C1B54583  26.866  34.046   6.464
 4238POPC   C2B54584  26.849  34.012   6.764
 4238POPC   C3B54585  26.903  34.009   7.064
 4238POPC   C4B54586  26.879  34.029   7.364
 4239POPC   NC354587   6.671  23.686   5.564
 4239POPC   PO454588   6.612  23.700   5.864
 4239POPC   GL154589   6.628  23.697   6.164
 4239POPC   GL254590   6.748  23.795   6.164
 4239POPC   C1A54591   6.622  23.719   6.464
 4239POPC   D2A54592   6.618  23.710   6.764
 4239POPC   C3A54593   6.659  23.728   7.064
 4239POPC   C4A54594   6.606  23.727   7.364
 4239POPC   C1B54595   6.818  23.901   6.464
 4239POPC   C2B54596   6.749  23.976   6.764
 4239POPC   C3B54597   6.818  23.922   7.064
 4239POPC   C4B54598   6.721  23.889   7.364
 4240POPC   NC354599  21.399  32.999   5.564
 4240POPC   PO454600  21.369  33.032   5.864
 4240POPC   GL154601  21.431  32.975   6.164
 4240POPC   GL254602  21.425  32.855   6.164
 4240POPC   C1A54603  21.425  33.001   6.464
 4240POPC   D2A54604  21.405  32.998   6.764
 4240POPC   C3A54605  21.383  33.056   7.064
 4240POPC   C4A54606  21.369  33.068   7.364
 4240POPC   C1B54607  21.395  32.761   6.464
 4240POPC   C2B54608  21.375  32.740   6.764
 4240POPC   C3B54609  21.405  32.798   7.064
 4240POPC   C4B54610  21.399  32.818   7.364
 4241POPC   NC354611  28.373  20.637   5.564
 4241POPC   PO454612  28.366  20.648   5.864
 4241POPC   GL154613  28.400  20.609   6.164
 4241POPC   GL254614  28.378  20.707   6.164
 4241POPC   C1A54615  28.328  20.568   6.464
 4241POPC   D2A54616  28.370  20.614   6.764
 4241POPC   C3A54617  28.381  20.655   7.064
 4241POPC   C4A54618  28.385  20.565   7.364
 4241POPC   C1B54619  28.464  20.856   6.464
 4241POPC   C2B54620  28.481  20.881   6.764
 4241POPC   C3B54621  28.461  20.832   7.064
 4241POPC   C4B54622  28.475  20.894   7.364
 4242POPC   NC354623   8.945   8.164   5.564
 4242POPC   PO454624   8.993   8.182   5.864
 4242POPC   GL154625   8.998   8.179   6.164
 4242POPC   GL254626   8.996   8.100   6.164
 4242POPC   C1A54627   9.019   8.245   6.464
 4242POPC   D2A54628   9.007   8.193   6.764
 4242POPC   C3A54629   9.004   8.193   7.064
 4242POPC   C4A54630   8.925   8.205   7.364
 4242POPC   C1B54631   9.002   7.915   6.464
 4242POPC   C2B54632   9.009   7.963   6.764
 4242POPC   C3B54633   8.981   7.970   7.064
 4242POPC   C4B54634   9.050   7.999   7.364
 4243POPC   NC354635  38.414  44.705   5.564
 4243POPC   PO454636  38.498  44.647   5.864
 4243POPC   GL154637  38.440  44.653   6.164
 4243POPC   GL254638  38.607  44.580   6.164
 4243POPC   C1A54639  38.462  44.658   6.464
 4243POPC   D2A54640  38.411  44.710   6.764
 4243POPC   C3A54641  38.441  44.704   7.064
 4243POPC   C4A54642  38.441  44.629   7.364
 4243POPC   C1B54643  38.680  44.579   6.464
 4243POPC   C2B54644  38.688  44.500   6.764
 4243POPC   C3B54645  38.665  44.516   7.064
 4243POPC   C4B54646  38.709  44.510   7.364
 4244POPC   NC354647   9.704  44.644   5.564
 4244POPC   PO454648   9.762  44.686   5.864
 4244POPC   GL154649   9.761  44.672   6.164
 4244POPC   GL254650   9.662  44.729   6.164
 4244POPC   C1A54651   9.702  44.677   6.464
 4244POPC   D2A54652   9.745  44.651   6.764
 4244POPC   C3A54653   9.774  44.709   7.064
 4244POPC   C4A54654   9.745  44.671   7.364
 4244POPC   C1B54655   9.580  44.847   6.464
 4244POPC   C2B54656   9.579  44.878   6.764
 4244POPC   C3B54657   9.619  44.880   7.064
 4244POPC   C4B54658   9.576  44.854   7.364
 4245POPC   NC354659   4.283  21.411   5.564
 4245POPC   PO454660   4.273  21.386   5.864
 4245POPC   GL154661   4.363  21.361   6.164
 4245POPC   GL254662   4.381  21.443   6.164
 4245POPC   C1A54663   4.351  21.357   6.464
 4245POPC   D2A54664   4.299  21.351   6.764
 4245POPC   C3A54665   4.328  21.433   7.064
 4245POPC   C4A54666   4.291  21.357   7.364
 4245POPC   C1B54667   4.573  21.494   6.464
 4245POPC   C2B54668   4.503  21.449   6.764
 4245POPC   C3B54669   4.523  21.524   7.064
 4245POPC   C4B54670   4.527  21.520   7.364
 4246POPC   NC354671  15.161  27.581   5.564
 4246POPC   PO454672  15.159  27.587   5.864
 4246POPC   GL154673  15.142  27.620   6.164
 4246POPC   GL254674  15.044  27.506   6.164
 4246POPC   C1A54675  15.187  27.612   6.464
 4246POPC   D2A54676  15.149  27.596   6.764
 4246POPC   C3A54677  15.136  27.622   7.064
 4246POPC   C4A54678  15.183  27.602   7.364
 4246POPC   C1B54679  15.004  27.488   6.464
 4246POPC   C2B54680  14.965  27.486   6.764
 4246POPC   C3B54681  15.000  27.495   7.064
 4246POPC   C4B54682  14.930  27.479   7.364
 4247POPC   NC354683  17.498   9.758   5.564
 4247POPC   PO454684  17.509   9.759   5.864
 4247POPC   GL154685  17.482   9.756   6.164
 4247POPC   GL254686  17.681   9.766   6.164
 4247POPC   C1A54687  17.510   9.778   6.464
 4247POPC   D2A54688  17.483   9.768   6.764
 4247POPC   C3A54689  17.509   9.710   7.064
 4247POPC   C4A54690  17.481   9.785   7.364
 4247POPC   C1B54691  17.710   9.727   6.464
 4247POPC   C2B54692  17.751   9.754   6.764
 4247POPC   C3B54693  17.718   9.724   7.064
 4247POPC   C4B54694  17.710   9.814   7.364
 4248POPC   NC354695  41.560  13.620   5.564
 4248POPC   PO454696  41.541  13.594   5.864
 4248POPC   GL154697  41.566  13.608   6.164
 4248POPC   GL254698  41.519  13.534   6.164
 4248POPC   C1A54699  41.592  13.642   6.464
 4248POPC   D2A54700  41.584  13.595   6.764
 4248POPC   C3A54701  41.530  13.594   7.064
 4248POPC   C4A54702  41.536  13.668   7.364
 4248POPC   C1B54703  41.388  13.439   6.464
 4248POPC   C2B54704  41.446  13.443   6.764
 4248POPC   C3B54705  41.437  13.471   7.064
 4248POPC   C4B54706  41.400  13.463   7.364
 4249POPC   NC354707   1.228  21.363   5.564
 4249POPC   PO454708   1.236  21.391   5.864
 4249POPC   GL154709   1.226  21.352   6.164
 4249POPC   GL254710   1.106  21.327   6.164
 4249POPC   C1A54711   1.261  21.388   6.464
 4249POPC   D2A54712   1.169  21.426   6.764
 4249POPC   C3A54713   1.200  21.434   7.064
 4249POPC   C4A54714   1.199  21.425   7.364
 4249POPC   C1B54715   0.972  21.279   6.464
 4249POPC   C2B54716   0.989  21.320   6.764
 4249POPC   C3B54717   0.960  21.291   7.064
 4249POPC   C4B54718   0.931  21.281   7.364
 4250POPC   NC354719  26.011  42.384   5.564
 4250POPC   PO454720  26.058  42.296   5.864
 4250POPC   GL154721  26.045  42.319   6.164
 4250POPC   GL254722  26.056  42.498   6.164
 4250POPC   C1A54723  26.078  42.291   6.464
 4250POPC   D2A54724  26.085  42.361   6.764
 4250POPC   C3A54725  25.999  42.326   7.064
 4250POPC   C4A54726  26.031  42.298   7.364
 4250POPC   C1B54727  26.112  42.572   6.464
 4250POPC   C2B54728  26.071  42.572   6.764
 4250POPC   C3B54729  26.163  42.611   7.064
 4250POPC   C4B54730  26.069  42.597   7.364
 4251POPC   NC354731   8.961  34.555   5.564
 4251POPC   PO454732   8.923  34.532   5.864
 4251POPC   GL154733   8.956  34.606   6.164
 4251POPC   GL254734   8.967  34.488   6.164
 4251POPC   C1A54735   8.975  34.624   6.464
 4251POPC   D2A54736   8.992  34.576   6.764
 4251POPC   C3A54737   8.923  34.531   7.064
 4251POPC   C4A54738   8.949  34.619   7.364
 4251POPC   C1B54739   9.016  34.300   6.464
 4251POPC   C2B54740   9.032  34.285   6.764
 4251POPC   C3B54741   8.979  34.374   7.064
 4251POPC   C4B54742   9.031  34.282   7.364
 4252POPC   NC354743  21.361  38.422   5.564
 4252POPC   PO454744  21.421  38.409   5.864
 4252POPC   GL154745  21.346  38.497   6.164
 4252POPC   GL254746  21.279  38.405   6.164
 4252POPC   C1A54747  21.336  38.501   6.464
 4252POPC   D2A54748  21.390  38.481   6.764
 4252POPC   C3A54749  21.370  38.493   7.064
 4252POPC   C4A54750  21.379  38.436   7.364
 4252POPC   C1B54751  21.138  38.361   6.464
 4252POPC   C2B54752  21.124  38.381   6.764
 4252POPC   C3B54753  21.177  38.357   7.064
 4252POPC   C4B54754  21.162  38.376   7.364
 4253POPC   NC354755  12.122  21.370   5.564
 4253POPC   PO454756  12.070  21.365   5.864
 4253POPC   GL154757  12.087  21.375   6.164
 4253POPC   GL254758  12.023  21.288   6.164
 4253POPC   C1A54759  12.121  21.432   6.464
 4253POPC   D2A54760  12.036  21.363   6.764
 4253POPC   C3A54761  12.070  21.381   7.064
 4253POPC   C4A54762  12.082  21.338   7.364
 4253POPC   C1B54763  11.956  21.187   6.464
 4253POPC   C2B54764  11.965  21.206   6.764
 4253POPC   C3B54765  11.921  21.173   7.064
 4253POPC   C4B54766  11.959  21.117   7.364
 4254POPC   NC354767  29.185  29.114   5.564
 4254POPC   PO454768  29.109  29.115   5.864
 4254POPC   GL154769  29.105  29.131   6.164
 4254POPC   GL254770  29.215  29.275   6.164
 4254POPC   C1A54771  29.110  29.135   6.464
 4254POPC   D2A54772  29.126  29.172   6.764
 4254POPC   C3A54773  29.154  29.154   7.064
 4254POPC   C4A54774  29.160  29.149   7.364
 4254POPC   C1B54775  29.301  29.364   6.464
 4254POPC   C2B54776  29.339  29.327   6.764
 4254POPC   C3B54777  29.304  29.334   7.064
 4254POPC   C4B54778  29.274  29.309   7.364
 4255POPC   NC354779  29.946  29.927   5.564
 4255POPC   PO454780  29.912  29.912   5.864
 4255POPC   GL154781  29.898  29.926   6.164
 4255POPC   GL254782  30.007  30.043   6.164
 4255POPC   C1A54783  29.938  29.922   6.464
 4255POPC   D2A54784  29.884  29.872   6.764
 4255POPC   C3A54785  29.896  29.888   7.064
 4255POPC   C4A54786  29.911  29.939   7.364
 4255POPC   C1B54787  30.149  30.126   6.464
 4255POPC   C2B54788  30.087  30.032   6.764
 4255POPC   C3B54789  30.131  30.047   7.064
 4255POPC   C4B54790  30.127  30.107   7.364
 4256POPC   NC354791  29.145   8.225   5.564
 4256POPC   PO454792  29.156   8.223   5.864
 4256POPC   GL154793  29.097   8.188   6.164
 4256POPC   GL254794  29.274   8.229   6.164
 4256POPC   C1A54795  29.171   8.221   6.464
 4256POPC   D2A54796  29.147   8.201   6.764
 4256POPC   C3A54797  29.119   8.203   7.064
 4256POPC   C4A54798  29.178   8.210   7.364
 4256POPC   C1B54799  29.350   8.215   6.464
 4256POPC   C2B54800  29.344   8.197   6.764
 4256POPC   C3B54801  29.383   8.168   7.064
 4256POPC   C4B54802  29.395   8.182   7.364
 4257POPC   NC354803  13.580  12.114   5.564
 4257POPC   PO454804  13.605  12.114   5.864
 4257POPC   GL154805  13.664  12.097   6.164
 4257POPC   GL254806  13.562  12.137   6.164
 4257POPC   C1A54807  13.627  12.028   6.464
 4257POPC   D2A54808  13.656  12.120   6.764
 4257POPC   C3A54809  13.613  12.111   7.064
 4257POPC   C4A54810  13.661  12.071   7.364
 4257POPC   C1B54811  13.444  12.258   6.464
 4257POPC   C2B54812  13.414  12.223   6.764
 4257POPC   C3B54813  13.464  12.256   7.064
 4257POPC   C4B54814  13.383  12.281   7.364
 4258POPC   NC354815  29.118  16.759   5.564
 4258POPC   PO454816  29.185  16.778   5.864
 4258POPC   GL154817  29.119  16.746   6.164
 4258POPC   GL254818  29.027  16.618   6.164
 4258POPC   C1A54819  29.156  16.771   6.464
 4258POPC   D2A54820  29.103  16.686   6.764
 4258POPC   C3A54821  29.157  16.756   7.064
 4258POPC   C4A54822  29.109  16.692   7.364
 4258POPC   C1B54823  28.964  16.572   6.464
 4258POPC   C2B54824  28.927  16.574   6.764
 4258POPC   C3B54825  28.943  16.651   7.064
 4258POPC   C4B54826  28.951  16.641   7.364
 4259POPC   NC354827  27.590  43.866   5.564
 4259POPC   PO454828  27.578  43.862   5.864
 4259POPC   GL154829  27.553  43.904   6.164
 4259POPC   GL254830  27.620  43.994   6.164
 4259POPC   C1A54831  27.601  43.925   6.464
 4259POPC   D2A54832  27.580  43.891   6.764
 4259POPC   C3A54833  27.608  43.870   7.064
 4259POPC   C4A54834  27.641  43.844   7.364
 4259POPC   C1B54835  27.732  44.114   6.464
 4259POPC   C2B54836  27.704  44.109   6.764
 4259POPC   C3B54837  27.685  44.156   7.064
 4259POPC   C4B54838  27.746  44.137   7.364
 4260POPC   NC354839  26.807  29.878   5.564
 4260POPC   PO454840  26.844  29.874   5.864
 4260POPC   GL154841  26.795  29.970   6.164
 4260POPC   GL254842  26.897  29.899   6.164
 4260POPC   C1A54843  26.799  29.970   6.464
 4260POPC   D2A54844  26.779  29.926   6.764
 4260POPC   C3A54845  26.843  29.943   7.064
 4260POPC   C4A54846  26.846  29.943   7.364
 4260POPC   C1B54847  27.047  29.849   6.464
 4260POPC   C2B54848  27.071  29.832   6.764
 4260POPC   C3B54849  27.105  29.826   7.064
 4260POPC   C4B54850  27.023  29.887   7.364
 4261POPC   NC354851  40.780  19.863   5.564
 4261POPC   PO454852  40.815  19.880   5.864
 4261POPC   GL154853  40.739  19.798   6.164
 4261POPC   GL254854  40.756  19.920   6.164
 4261POPC   C1A54855  40.832  19.884   6.464
 4261POPC   D2A54856  40.788  19.797   6.764
 4261POPC   C3A54857  40.765  19.807   7.064
 4261POPC   C4A54858  40.827  19.791   7.364
 4261POPC   C1B54859  40.663  20.100   6.464
 4261POPC   C2B54860  40.680  20.112   6.764
 4261POPC   C3B54861  40.665  20.058   7.064
 4261POPC   C4B54862  40.698  20.097   7.364
 4262POPC   NC354863  43.112  26.086   5.564
 4262POPC   PO454864  43.135  26.027   5.864
 4262POPC   GL154865  43.124  26.083   6.164
 4262POPC   GL254866  43.126  26.210   6.164
 4262POPC   C1A54867  43.077  26.065   6.464
 4262POPC   D2A54868  43.158  26.034   6.764
 4262POPC   C3A54869  43.147  26.000   7.064
 4262POPC   C4A54870  43.099  26.003   7.364
 4262POPC   C1B54871  43.109  26.302   6.464
 4262POPC   C2B54872  43.126  26.336   6.764
 4262POPC   C3B54873  43.127  26.312   7.064
 4262POPC   C4B54874  43.109  26.266   7.364
 4263POPC   NC354875   1.179  26.037   5.564
 4263POPC   PO454876   1.178  26.063   5.864
 4263POPC   GL154877   1.259  26.033   6.164
 4263POPC   GL254878   1.254  26.142   6.164
 4263POPC   C1A54879   1.169  26.022   6.464
 4263POPC   D2A54880   1.234  26.064   6.764
 4263POPC   C3A54881   1.241  25.997   7.064
 4263POPC   C4A54882   1.243  26.025   7.364
 4263POPC   C1B54883   1.312  26.287   6.464
 4263POPC   C2B54884   1.293  26.301   6.764
 4263POPC   C3B54885   1.240  26.311   7.064
 4263POPC   C4B54886   1.303  26.267   7.364
 4264POPC   NC354887   3.581  21.406   5.564
 4264POPC   PO454888   3.547  21.357   5.864
 4264POPC   GL154889   3.579  21.342   6.164
 4264POPC   GL254890   3.534  21.228   6.164
 4264POPC   C1A54891   3.577  21.403   6.464
 4264POPC   D2A54892   3.575  21.410   6.764
 4264POPC   C3A54893   3.562  21.433   7.064
 4264POPC   C4A54894   3.584  21.338   7.364
 4264POPC   C1B54895   3.592  21.138   6.464
 4264POPC   C2B54896   3.578  21.144   6.764
 4264POPC   C3B54897   3.631  21.134   7.064
 4264POPC   C4B54898   3.591  21.156   7.364
 4265POPC   NC354899   9.750  36.153   5.564
 4265POPC   PO454900   9.748  36.091   5.864
 4265POPC   GL154901   9.737  36.079   6.164
 4265POPC   GL254902   9.771  36.047   6.164
 4265POPC   C1A54903   9.791  36.094   6.464
 4265POPC   D2A54904   9.727  36.128   6.764
 4265POPC   C3A54905   9.778  36.110   7.064
 4265POPC   C4A54906   9.703  36.116   7.364
 4265POPC   C1B54907   9.844  35.867   6.464
 4265POPC   C2B54908   9.851  35.911   6.764
 4265POPC   C3B54909   9.856  35.851   7.064
 4265POPC   C4B54910   9.824  35.895   7.364
 4266POPC   NC354911  39.998  12.830   5.564
 4266POPC   PO454912  40.030  12.818   5.864
 4266POPC   GL154913  39.993  12.824   6.164
 4266POPC   GL254914  40.078  12.815   6.164
 4266POPC   C1A54915  40.043  12.834   6.464
 4266POPC   D2A54916  40.033  12.845   6.764
 4266POPC   C3A54917  40.021  12.842   7.064
 4266POPC   C4A54918  40.002  12.840   7.364
 4266POPC   C1B54919  40.186  12.718   6.464
 4266POPC   C2B54920  40.246  12.685   6.764
 4266POPC   C3B54921  40.179  12.726   7.064
 4266POPC   C4B54922  40.242  12.747   7.364
 4267POPC   NC354923  22.166   4.325   5.564
 4267POPC   PO454924  22.156   4.329   5.864
 4267POPC   GL154925  22.169   4.289   6.164
 4267POPC   GL254926  22.261   4.271   6.164
 4267POPC   C1A54927  22.125   4.362   6.464
 4267POPC   D2A54928  22.207   4.269   6.764
 4267POPC   C3A54929  22.117   4.301   7.064
 4267POPC   C4A54930  22.122   4.323   7.364
 4267POPC   C1B54931  22.408   4.333   6.464
 4267POPC   C2B54932  22.396   4.283   6.764
 4267POPC   C3B54933  22.371   4.319   7.064
 4267POPC   C4B54934  22.440   4.292   7.364
 4268POPC   NC354935  24.468  39.184   5.564
 4268POPC   PO454936  24.501  39.273   5.864
 4268POPC   GL154937  24.456  39.247   6.164
 4268POPC   GL254938  24.527  39.121   6.164
 4268POPC   C1A54939  24.441  39.234   6.464
 4268POPC   D2A54940  24.506  39.238   6.764
 4268POPC   C3A54941  24.489  39.257   7.064
 4268POPC   C4A54942  24.504  39.250   7.364
 4268POPC   C1B54943  24.693  39.010   6.464
 4268POPC   C2B54944  24.665  39.057   6.764
 4268POPC   C3B54945  24.701  39.038   7.064
 4268POPC   C4B54946  24.628  39.062   7.364
 4269POPC   NC354947  14.366  17.555   5.564
 4269POPC   PO454948  14.405  17.499   5.864
 4269POPC   GL154949  14.407  17.514   6.164
 4269POPC   GL254950  14.303  17.505   6.164
 4269POPC   C1A54951  14.355  17.546   6.464
 4269POPC   D2A54952  14.418  17.510   6.764
 4269POPC   C3A54953  14.362  17.541   7.064
 4269POPC   C4A54954  14.418  17.488   7.364
 4269POPC   C1B54955  14.149  17.475   6.464
 4269POPC   C2B54956  14.114  17.423   6.764
 4269POPC   C3B54957  14.167  17.444   7.064
 4269POPC   C4B54958  14.168  17.508   7.364
 4270POPC   NC354959  20.593   8.935   5.564
 4270POPC   PO454960  20.597   8.987   5.864
 4270POPC   GL154961  20.650   8.950   6.164
 4270POPC   GL254962  20.679   8.888   6.164
 4270POPC   C1A54963  20.590   8.986   6.464
 4270POPC   D2A54964  20.567   8.935   6.764
 4270POPC   C3A54965  20.589   8.936   7.064
 4270POPC   C4A54966  20.584   8.953   7.364
 4270POPC   C1B54967  20.849   8.848   6.464
 4270POPC   C2B54968  20.796   8.856   6.764
 4270POPC   C3B54969  20.864   8.883   7.064
 4270POPC   C4B54970  20.833   8.861   7.364
 4271POPC   NC354971   3.546  18.324   5.564
 4271POPC   PO454972   3.550  18.312   5.864
 4271POPC   GL154973   3.580  18.325   6.164
 4271POPC   GL254974   3.565  18.145   6.164
 4271POPC   C1A54975   3.496  18.269   6.464
 4271POPC   D2A54976   3.571  18.275   6.764
 4271POPC   C3A54977   3.512  18.305   7.064
 4271POPC   C4A54978   3.562  18.293   7.364
 4271POPC   C1B54979   3.690  18.060   6.464
 4271POPC   C2B54980   3.686  18.066   6.764
 4271POPC   C3B54981   3.710  18.051   7.064
 4271POPC   C4B54982   3.727  18.084   7.364
 4272POPC   NC354983   7.396   8.208   5.564
 4272POPC   PO454984   7.459   8.177   5.864
 4272POPC   GL154985   7.380   8.190   6.164
 4272POPC   GL254986   7.520   8.237   6.164
 4272POPC   C1A54987   7.426   8.185   6.464
 4272POPC   D2A54988   7.387   8.148   6.764
 4272POPC   C3A54989   7.375   8.201   7.064
 4272POPC   C4A54990   7.423   8.148   7.364
 4272POPC   C1B54991   7.582   8.352   6.464
 4272POPC   C2B54992   7.649   8.390   6.764
 4272POPC   C3B54993   7.666   8.313   7.064
 4272POPC   C4B54994   7.653   8.324   7.364
 4273POPC   NC354995  40.784  40.041   5.564
 4273POPC   PO454996  40.767  40.026   5.864
 4273POPC   GL154997  40.804  39.989   6.164
 4273POPC   GL254998  40.719  40.106   6.164
 4273POPC   C1A54999  40.827  39.986   6.464
 4273POPC   D2A55000  40.756  40.023   6.764
 4273POPC   C3A55001  40.750  39.973   7.064
 4273POPC   C4A55002  40.799  40.044   7.364
 4273POPC   C1B55003  40.624  40.176   6.464
 4273POPC   C2B55004  40.564  40.174   6.764
 4273POPC   C3B55005  40.563  40.140   7.064
 4273POPC   C4B55006  40.580  40.203   7.364
 4274POPC   NC355007   5.865  40.055   5.564
 4274POPC   PO455008   5.849  40.002   5.864
 4274POPC   GL155009   5.840  40.054   6.164
 4274POPC   GL255010   5.852  40.180   6.164
 4274POPC   C1A55011   5.833  39.994   6.464
 4274POPC   D2A55012   5.911  40.033   6.764
 4274POPC   C3A55013   5.828  39.983   7.064
 4274POPC   C4A55014   5.850  39.988   7.364
 4274POPC   C1B55015   5.890  40.209   6.464
 4274POPC   C2B55016   5.819  40.227   6.764
 4274POPC   C3B55017   5.814  40.262   7.064
 4274POPC   C4B55018   5.857  40.255   7.364
 4275POPC   NC355019  40.795   4.324   5.564
 4275POPC   PO455020  40.752   4.353   5.864
 4275POPC   GL155021  40.770   4.356   6.164
 4275POPC   GL255022  40.951   4.376   6.164
 4275POPC   C1A55023  40.746   4.350   6.464
 4275POPC   D2A55024  40.737   4.289   6.764
 4275POPC   C3A55025  40.778   4.277   7.064
 4275POPC   C4A55026  40.817   4.349   7.364
 4275POPC   C1B55027  41.045   4.383   6.464
 4275POPC   C2B55028  40.982   4.324   6.764
 4275POPC   C3B55029  41.010   4.329   7.064
 4275POPC   C4B55030  41.031   4.341   7.364
 4276POPC   NC355031  14.450  18.253   5.564
 4276POPC   PO455032  14.408  18.241   5.864
 4276POPC   GL155033  14.452  18.288   6.164
 4276POPC   GL255034  14.561  18.248   6.164
 4276POPC   C1A55035  14.372  18.297   6.464
 4276POPC   D2A55036  14.356  18.326   6.764
 4276POPC   C3A55037  14.362  18.271   7.064
 4276POPC   C4A55038  14.407  18.267   7.364
 4276POPC   C1B55039  14.670  18.222   6.464
 4276POPC   C2B55040  14.620  18.243   6.764
 4276POPC   C3B55041  14.612  18.182   7.064
 4276POPC   C4B55042  14.599  18.214   7.364
 4277POPC   NC355043  24.460  11.262   5.564
 4277POPC   PO455044  24.482  11.272   5.864
 4277POPC   GL155045  24.536  11.296   6.164
 4277POPC   GL255046  24.401  11.236   6.164
 4277POPC   C1A55047  24.482  11.320   6.464
 4277POPC   D2A55048  24.452  11.333   6.764
 4277POPC   C3A55049  24.464  11.263   7.064
 4277POPC   C4A55050  24.508  11.262   7.364
 4277POPC   C1B55051  24.374  11.060   6.464
 4277POPC   C2B55052  24.391  11.116   6.764
 4277POPC   C3B55053  24.403  11.108   7.064
 4277POPC   C4B55054  24.435  11.108   7.364
 4278POPC   NC355055   5.069  19.067   5.564
 4278POPC   PO455056   5.066  19.047   5.864
 4278POPC   GL155057   5.059  19.049   6.164
 4278POPC   GL255058   4.997  19.154   6.164
 4278POPC   C1A55059   5.132  19.023   6.464
 4278POPC   D2A55060   5.117  19.094   6.764
 4278POPC   C3A55061   5.120  19.052   7.064
 4278POPC   C4A55062   5.075  19.067   7.364
 4278POPC   C1B55063   4.899  19.205   6.464
 4278POPC   C2B55064   4.892  19.205   6.764
 4278POPC   C3B55065   4.865  19.165   7.064
 4278POPC   C4B55066   4.932  19.167   7.364
 4279POPC   NC355067  39.183  19.841   5.564
 4279POPC   PO455068  39.215  19.835   5.864
 4279POPC   GL155069  39.234  19.785   6.164
 4279POPC   GL255070  39.268  19.725   6.164
 4279POPC   C1A55071  39.209  19.869   6.464
 4279POPC   D2A55072  39.256  19.827   6.764
 4279POPC   C3A55073  39.202  19.860   7.064
 4279POPC   C4A55074  39.281  19.823   7.364
 4279POPC   C1B55075  39.219  19.540   6.464
 4279POPC   C2B55076  39.207  19.559   6.764
 4279POPC   C3B55077  39.179  19.579   7.064
 4279POPC   C4B55078  39.231  19.612   7.364
 4280POPC   NC355079  20.620  19.085   5.564
 4280POPC   PO455080  20.617  19.014   5.864
 4280POPC   GL155081  20.639  19.014   6.164
 4280POPC   GL255082  20.731  19.132   6.164
 4280POPC   C1A55083  20.655  19.092   6.464
 4280POPC   D2A55084  20.588  19.038   6.764
 4280POPC   C3A55085  20.639  19.099   7.064
 4280POPC   C4A55086  20.577  19.042   7.364
 4280POPC   C1B55087  20.795  19.268   6.464
 4280POPC   C2B55088  20.788  19.249   6.764
 4280POPC   C3B55089  20.794  19.275   7.064
 4280POPC   C4B55090  20.725  19.236   7.364
 4281POPC   NC355091  35.333  43.845   5.564
 4281POPC   PO455092  35.308  43.913   5.864
 4281POPC   GL155093  35.346  43.858   6.164
 4281POPC   GL255094  35.386  44.013   6.164
 4281POPC   C1A55095  35.309  43.886   6.464
 4281POPC   D2A55096  35.335  43.897   6.764
 4281POPC   C3A55097  35.389  43.896   7.064
 4281POPC   C4A55098  35.376  43.898   7.364
 4281POPC   C1B55099  35.437  44.108   6.464
 4281POPC   C2B55100  35.502  44.134   6.764
 4281POPC   C3B55101  35.528  44.127   7.064
 4281POPC   C4B55102  35.512  44.062   7.364
 4282POPC   NC355103   3.497  30.717   5.564
 4282POPC   PO455104   3.509  30.727   5.864
 4282POPC   GL155105   3.532  30.693   6.164
 4282POPC   GL255106   3.630  30.763   6.164
 4282POPC   C1A55107   3.498  30.702   6.464
 4282POPC   D2A55108   3.564  30.680   6.764
 4282POPC   C3A55109   3.526  30.697   7.064
 4282POPC   C4A55110   3.545  30.658   7.364
 4282POPC   C1B55111   3.796  30.722   6.464
 4282POPC   C2B55112   3.831  30.715   6.764
 4282POPC   C3B55113   3.799  30.790   7.064
 4282POPC   C4B55114   3.829  30.749   7.364
 4283POPC   NC355115  37.635  16.701   5.564
 4283POPC   PO455116  37.694  16.766   5.864
 4283POPC   GL155117  37.637  16.716   6.164
 4283POPC   GL255118  37.701  16.592   6.164
 4283POPC   C1A55119  37.714  16.704   6.464
 4283POPC   D2A55120  37.669  16.705   6.764
 4283POPC   C3A55121  37.659  16.732   7.064
 4283POPC   C4A55122  37.688  16.765   7.364
 4283POPC   C1B55123  37.672  16.469   6.464
 4283POPC   C2B55124  37.594  16.495   6.764
 4283POPC   C3B55125  37.608  16.465   7.064
 4283POPC   C4B55126  37.610  16.452   7.364
 4284POPC   NC355127  16.711  28.355   5.564
 4284POPC   PO455128  16.718  28.410   5.864
 4284POPC   GL155129  16.696  28.366   6.164
 4284POPC   GL255130  16.665  28.275   6.164
 4284POPC   C1A55131  16.743  28.385   6.464
 4284POPC   D2A55132  16.753  28.416   6.764
 4284POPC   C3A55133  16.765  28.344   7.064
 4284POPC   C4A55134  16.773  28.354   7.364
 4284POPC   C1B55135  16.561  28.276   6.464
 4284POPC   C2B55136  16.566  28.187   6.764
 4284POPC   C3B55137  16.573  28.275   7.064
 4284POPC   C4B55138  16.573  28.249   7.364
 4285POPC   NC355139  21.415   5.849   5.564
 4285POPC   PO455140  21.342   5.884   5.864
 4285POPC   GL155141  21.378   5.912   6.164
 4285POPC   GL255142  21.288   5.848   6.164
 4285POPC   C1A55143  21.370   5.846   6.464
 4285POPC   D2A55144  21.355   5.897   6.764
 4285POPC   C3A55145  21.383   5.892   7.064
 4285POPC   C4A55146  21.381   5.868   7.364
 4285POPC   C1B55147  21.185   5.774   6.464
 4285POPC   C2B55148  21.165   5.773   6.764
 4285POPC   C3B55149  21.127   5.770   7.064
 4285POPC   C4B55150  21.206   5.751   7.364
 4286POPC   NC355151   9.733  18.290   5.564
 4286POPC   PO455152   9.739  18.313   5.864
 4286POPC   GL155153   9.729  18.247   6.164
 4286POPC   GL255154   9.838  18.284   6.164
 4286POPC   C1A55155   9.794  18.321   6.464
 4286POPC   D2A55156   9.784  18.328   6.764
 4286POPC   C3A55157   9.709  18.314   7.064
 4286POPC   C4A55158   9.789  18.248   7.364
 4286POPC   C1B55159   9.984  18.331   6.464
 4286POPC   C2B55160   9.951  18.320   6.764
 4286POPC   C3B55161  10.029  18.341   7.064
 4286POPC   C4B55162  10.019  18.322   7.364
 4287POPC   NC355163   6.645   1.166   5.564
 4287POPC   PO455164   6.689   1.205   5.864
 4287POPC   GL155165   6.627   1.222   6.164
 4287POPC   GL255166   6.486   1.194   6.164
 4287POPC   C1A55167   6.621   1.187   6.464
 4287POPC   D2A55168   6.611   1.236   6.764
 4287POPC   C3A55169   6.661   1.173   7.064
 4287POPC   C4A55170   6.677   1.171   7.364
 4287POPC   C1B55171   6.410   1.202   6.464
 4287POPC   C2B55172   6.417   1.206   6.764
 4287POPC   C3B55173   6.394   1.210   7.064
 4287POPC   C4B55174   6.429   1.235   7.364
 4288POPC   NC355175   5.871  44.709   5.564
 4288POPC   PO455176   5.820  44.666   5.864
 4288POPC   GL155177   5.851  44.639   6.164
 4288POPC   GL255178   5.742  44.779   6.164
 4288POPC   C1A55179   5.897  44.648   6.464
 4288POPC   D2A55180   5.835  44.689   6.764
 4288POPC   C3A55181   5.895  44.624   7.064
 4288POPC   C4A55182   5.877  44.622   7.364
 4288POPC   C1B55183   5.653  44.824   6.464
 4288POPC   C2B55184   5.662  44.818   6.764
 4288POPC   C3B55185   5.704  44.837   7.064
 4288POPC   C4B55186   5.619  44.813   7.364
 4289POPC   NC355187  36.945   4.325   5.564
 4289POPC   PO455188  36.906   4.286   5.864
 4289POPC   GL155189  36.943   4.344   6.164
 4289POPC   GL255190  36.994   4.277   6.164
 4289POPC   C1A55191  36.894   4.318   6.464
 4289POPC   D2A55192  36.930   4.282   6.764
 4289POPC   C3A55193  36.922   4.330   7.064
 4289POPC   C4A55194  36.878   4.267   7.364
 4289POPC   C1B55195  37.184   4.258   6.464
 4289POPC   C2B55196  37.134   4.267   6.764
 4289POPC   C3B55197  37.140   4.273   7.064
 4289POPC   C4B55198  37.159   4.216   7.364
 4290POPC   NC355199  21.381  17.527   5.564
 4290POPC   PO455200  21.341  17.471   5.864
 4290POPC   GL155201  21.401  17.475   6.164
 4290POPC   GL255202  21.472  17.575   6.164
 4290POPC   C1A55203  21.342  17.541   6.464
 4290POPC   D2A55204  21.351  17.479   6.764
 4290POPC   C3A55205  21.346  17.551   7.064
 4290POPC   C4A55206  21.351  17.545   7.364
 4290POPC   C1B55207  21.431  17.698   6.464
 4290POPC   C2B55208  21.434  17.784   6.764
 4290POPC   C3B55209  21.524  17.754   7.064
 4290POPC   C4B55210  21.432  17.744   7.364
 4291POPC   NC355211   8.232  39.267   5.564
 4291POPC   PO455212   8.161  39.259   5.864
 4291POPC   GL155213   8.152  39.279   6.164
 4291POPC   GL255214   8.326  39.272   6.164
 4291POPC   C1A55215   8.210  39.192   6.464
 4291POPC   D2A55216   8.196  39.206   6.764
 4291POPC   C3A55217   8.193  39.205   7.064
 4291POPC   C4A55218   8.179  39.198   7.364
 4291POPC   C1B55219   8.412  39.353   6.464
 4291POPC   C2B55220   8.471  39.325   6.764
 4291POPC   C3B55221   8.459  39.310   7.064
 4291POPC   C4B55222   8.470  39.371   7.364
 4292POPC   NC355223  43.135  12.063   5.564
 4292POPC   PO455224  43.071  12.103   5.864
 4292POPC   GL155225  43.099  12.060   6.164
 4292POPC   GL255226  43.020  12.008   6.164
 4292POPC   C1A55227  43.127  12.109   6.464
 4292POPC   D2A55228  43.102  12.057   6.764
 4292POPC   C3A55229  43.158  12.035   7.064
 4292POPC   C4A55230  43.107  12.068   7.364
 4292POPC   C1B55231  42.892  12.021   6.464
 4292POPC   C2B55232  42.844  12.008   6.764
 4292POPC   C3B55233  42.868  12.024   7.064
 4292POPC   C4B55234  42.893  12.062   7.364
 4293POPC   NC355235   1.991  36.893   5.564
 4293POPC   PO455236   1.973  36.857   5.864
 4293POPC   GL155237   2.033  36.854   6.164
 4293POPC   GL255238   2.130  36.849   6.164
 4293POPC   C1A55239   1.975  36.900   6.464
 4293POPC   D2A55240   2.026  36.862   6.764
 4293POPC   C3A55241   2.000  36.948   7.064
 4293POPC   C4A55242   2.016  36.863   7.364
 4293POPC   C1B55243   2.204  36.753   6.464
 4293POPC   C2B55244   2.209  36.790   6.764
 4293POPC   C3B55245   2.204  36.760   7.064
 4293POPC   C4B55246   2.239  36.769   7.364
 4294POPC   NC355247  10.528  39.203   5.564
 4294POPC   PO455248  10.495  39.278   5.864
 4294POPC   GL155249  10.479  39.210   6.164
 4294POPC   GL255250  10.639  39.199   6.164
 4294POPC   C1A55251  10.518  39.202   6.464
 4294POPC   D2A55252  10.478  39.254   6.764
 4294POPC   C3A55253  10.479  39.272   7.064
 4294POPC   C4A55254  10.545  39.247   7.364
 4294POPC   C1B55255  10.721  39.021   6.464
 4294POPC   C2B55256  10.690  39.028   6.764
 4294POPC   C3B55257  10.714  39.084   7.064
 4294POPC   C4B55258  10.700  39.093   7.364
 4295POPC   NC355259  33.780  20.567   5.564
 4295POPC   PO455260  33.788  20.587   5.864
 4295POPC   GL155261  33.770  20.593   6.164
 4295POPC   GL255262  33.880  20.677   6.164
 4295POPC   C1A55263  33.801  20.641   6.464
 4295POPC   D2A55264  33.810  20.569   6.764
 4295POPC   C3A55265  33.768  20.586   7.064
 4295POPC   C4A55266  33.814  20.623   7.364
 4295POPC   C1B55267  33.987  20.687   6.464
 4295POPC   C2B55268  34.055  20.741   6.764
 4295POPC   C3B55269  33.978  20.776   7.064
 4295POPC   C4B55270  34.025  20.759   7.364
 4296POPC   NC355271  42.356   2.019   5.564
 4296POPC   PO455272  42.350   1.965   5.864
 4296POPC   GL155273  42.380   1.950   6.164
 4296POPC   GL255274  42.332   1.840   6.164
 4296POPC   C1A55275  42.382   1.962   6.464
 4296POPC   D2A55276  42.316   1.996   6.764
 4296POPC   C3A55277  42.326   1.988   7.064
 4296POPC   C4A55278  42.334   1.943   7.364
 4296POPC   C1B55279  42.271   1.733   6.464
 4296POPC   C2B55280  42.257   1.772   6.764
 4296POPC   C3B55281  42.232   1.771   7.064
 4296POPC   C4B55282  42.299   1.712   7.364
 4297POPC   NC355283   5.054  24.474   5.564
 4297POPC   PO455284   5.092  24.522   5.864
 4297POPC   GL155285   5.139  24.478   6.164
 4297POPC   GL255286   5.086  24.405   6.164
 4297POPC   C1A55287   5.141  24.537   6.464
 4297POPC   D2A55288   5.108  24.520   6.764
 4297POPC   C3A55289   5.077  24.512   7.064
 4297POPC   C4A55290   5.087  24.519   7.364
 4297POPC   C1B55291   5.139  24.269   6.464
 4297POPC   C2B55292   5.103  24.251   6.764
 4297POPC   C3B55293   5.108  24.222   7.064
 4297POPC   C4B55294   5.072  24.255   7.364
 4298POPC   NC355295  38.426  23.720   5.564
 4298POPC   PO455296  38.416  23.670   5.864
 4298POPC   GL155297  38.423  23.694   6.164
 4298POPC   GL255298  38.323  23.768   6.164
 4298POPC   C1A55299  38.438  23.754   6.464
 4298POPC   D2A55300  38.413  23.668   6.764
 4298POPC   C3A55301  38.487  23.680   7.064
 4298POPC   C4A55302  38.473  23.750   7.364
 4298POPC   C1B55303  38.233  23.760   6.464
 4298POPC   C2B55304  38.252  23.794   6.764
 4298POPC   C3B55305  38.227  23.797   7.064
 4298POPC   C4B55306  38.183  23.765   7.364
 4299POPC   NC355307   0.408  22.970   5.564
 4299POPC   PO455308   0.396  22.911   5.864
 4299POPC   GL155309   0.465  22.986   6.164
 4299POPC   GL255310   0.588  22.860   6.164
 4299POPC   C1A55311   0.437  22.930   6.464
 4299POPC   D2A55312   0.419  22.902   6.764
 4299POPC   C3A55313   0.441  22.962   7.064
 4299POPC   C4A55314   0.452  22.956   7.364
 4299POPC   C1B55315   0.627  22.802   6.464
 4299POPC   C2B55316   0.705  22.817   6.764
 4299POPC   C3B55317   0.651  22.840   7.064
 4299POPC   C4B55318   0.632  22.841   7.364
 4300POPC   NC355319  32.274  11.289   5.564
 4300POPC   PO455320  32.240  11.337   5.864
 4300POPC   GL155321  32.262  11.262   6.164
 4300POPC   GL255322  32.115  11.278   6.164
 4300POPC   C1A55323  32.248  11.276   6.464
 4300POPC   D2A55324  32.281  11.299   6.764
 4300POPC   C3A55325  32.267  11.338   7.064
 4300POPC   C4A55326  32.231  11.282   7.364
 4300POPC   C1B55327  32.005  11.200   6.464
 4300POPC   C2B55328  32.015  11.164   6.764
 4300POPC   C3B55329  32.065  11.190   7.064
 4300POPC   C4B55330  32.008  11.151   7.364
 4301POPC   NC355331  31.520  44.692   5.564
 4301POPC   PO455332  31.430  44.682   5.864
 4301POPC   GL155333  31.514  44.629   6.164
 4301POPC   GL255334  31.513  44.597   6.164
 4301POPC   C1A55335  31.503  44.655   6.464
 4301POPC   D2A55336  31.505  44.635   6.764
 4301POPC   C3A55337  31.498  44.665   7.064
 4301POPC   C4A55338  31.452  44.688   7.364
 4301POPC   C1B55339  31.593  44.504   6.464
 4301POPC   C2B55340  31.622  44.453   6.764
 4301POPC   C3B55341  31.651  44.419   7.064
 4301POPC   C4B55342  31.612  44.513   7.364
 4302POPC   NC355343  40.772  23.726   5.564
 4302POPC   PO455344  40.808  23.745   5.864
 4302POPC   GL155345  40.800  23.670   6.164
 4302POPC   GL255346  40.796  23.549   6.164
 4302POPC   C1A55347  40.801  23.748   6.464
 4302POPC   D2A55348  40.826  23.680   6.764
 4302POPC   C3A55349  40.824  23.671   7.064
 4302POPC   C4A55350  40.777  23.736   7.364
 4302POPC   C1B55351  40.840  23.500   6.464
 4302POPC   C2B55352  40.889  23.458   6.764
 4302POPC   C3B55353  40.835  23.492   7.064
 4302POPC   C4B55354  40.854  23.482   7.364
 4303POPC   NC355355   0.458  17.510   5.564
 4303POPC   PO455356   0.472  17.551   5.864
 4303POPC   GL155357   0.475  17.463   6.164
 4303POPC   GL255358   0.363  17.457   6.164
 4303POPC   C1A55359   0.424  17.493   6.464
 4303POPC   D2A55360   0.393  17.474   6.764
 4303POPC   C3A55361   0.418  17.539   7.064
 4303POPC   C4A55362   0.478  17.465   7.364
 4303POPC   C1B55363   0.164  17.476   6.464
 4303POPC   C2B55364   0.250  17.443   6.764
 4303POPC   C3B55365   0.244  17.421   7.064
 4303POPC   C4B55366   0.199  17.385   7.364
 4304POPC   NC355367  21.430  36.087   5.564
 4304POPC   PO455368  21.348  36.121   5.864
 4304POPC   GL155369  21.402  36.129   6.164
 4304POPC   GL255370  21.378  35.997   6.164
 4304POPC   C1A55371  21.362  36.167   6.464
 4304POPC   D2A55372  21.416  36.149   6.764
 4304POPC   C3A55373  21.367  36.078   7.064
 4304POPC   C4A55374  21.425  36.079   7.364
 4304POPC   C1B55375  21.332  35.899   6.464
 4304POPC   C2B55376  21.381  35.840   6.764
 4304POPC   C3B55377  21.320  35.852   7.064
 4304POPC   C4B55378  21.374  35.855   7.364
 4305POPC   NC355379  23.749  19.873   5.564
 4305POPC   PO455380  23.738  19.797   5.864
 4305POPC   GL155381  23.677  19.841   6.164
 4305POPC   GL255382  23.640  19.933   6.164
 4305POPC   C1A55383  23.743  19.816   6.464
 4305POPC   D2A55384  23.672  19.867   6.764
 4305POPC   C3A55385  23.757  19.877   7.064
 4305POPC   C4A55386  23.688  19.821   7.364
 4305POPC   C1B55387  23.657  20.046   6.464
 4305POPC   C2B55388  23.655  20.030   6.764
 4305POPC   C3B55389  23.625  20.080   7.064
 4305POPC   C4B55390  23.616  20.110   7.364
 4306POPC   NC355391  40.041   3.543   5.564
 4306POPC   PO455392  40.034   3.539   5.864
 4306POPC   GL155393  40.033   3.590   6.164
 4306POPC   GL255394  39.874   3.556   6.164
 4306POPC   C1A55395  40.024   3.537   6.464
 4306POPC   D2A55396  39.991   3.498   6.764
 4306POPC   C3A55397  39.983   3.492   7.064
 4306POPC   C4A55398  39.971   3.522   7.364
 4306POPC   C1B55399  39.796   3.601   6.464
 4306POPC   C2B55400  39.783   3.589   6.764
 4306POPC   C3B55401  39.728   3.655   7.064
 4306POPC   C4B55402  39.743   3.622   7.364
 4307POPC   NC355403  23.727  15.173   5.564
 4307POPC   PO455404  23.731  15.213   5.864
 4307POPC   GL155405  23.732  15.176   6.164
 4307POPC   GL255406  23.723  15.084   6.164
 4307POPC   C1A55407  23.681  15.221   6.464
 4307POPC   D2A55408  23.688  15.135   6.764
 4307POPC   C3A55409  23.686  15.179   7.064
 4307POPC   C4A55410  23.730  15.172   7.364
 4307POPC   C1B55411  23.612  14.907   6.464
 4307POPC   C2B55412  23.653  14.912   6.764
 4307POPC   C3B55413  23.621  14.917   7.064
 4307POPC   C4B55414  23.623  14.925   7.364
 4308POPC   NC355415  40.817  26.062   5.564
 4308POPC   PO455416  40.781  26.009   5.864
 4308POPC   GL155417  40.814  26.077   6.164
 4308POPC   GL255418  40.898  25.918   6.164
 4308POPC   C1A55419  40.781  26.080   6.464
 4308POPC   D2A55420  40.759  26.011   6.764
 4308POPC   C3A55421  40.777  26.074   7.064
 4308POPC   C4A55422  40.735  26.047   7.364
 4308POPC   C1B55423  40.923  25.855   6.464
 4308POPC   C2B55424  40.939  25.831   6.764
 4308POPC   C3B55425  40.982  25.808   7.064
 4308POPC   C4B55426  40.907  25.823   7.364
 4309POPC   NC355427  19.826   0.463   5.564
 4309POPC   PO455428  19.880   0.452   5.864
 4309POPC   GL155429  19.868   0.400   6.164
 4309POPC   GL255430  19.910   0.552   6.164
 4309POPC   C1A55431  19.870   0.388   6.464
 4309POPC   D2A55432  19.799   0.425   6.764
 4309POPC   C3A55433  19.795   0.433   7.064
 4309POPC   C4A55434  19.853   0.428   7.364
 4309POPC   C1B55435  20.068   0.553   6.464
 4309POPC   C2B55436  20.069   0.571   6.764
 4309POPC   C3B55437  20.078   0.630   7.064
 4309POPC   C4B55438  20.036   0.610   7.364
 4310POPC   NC355439  36.116  17.469   5.564
 4310POPC   PO455440  36.143  17.543   5.864
 4310POPC   GL155441  36.106  17.524   6.164
 4310POPC   GL255442  36.045  17.657   6.164
 4310POPC   C1A55443  36.120  17.491   6.464
 4310POPC   D2A55444  36.106  17.489   6.764
 4310POPC   C3A55445  36.174  17.506   7.064
 4310POPC   C4A55446  36.136  17.511   7.364
 4310POPC   C1B55447  35.998  17.732   6.464
 4310POPC   C2B55448  35.989  17.716   6.764
 4310POPC   C3B55449  35.970  17.682   7.064
 4310POPC   C4B55450  35.964  17.767   7.364
 4311POPC   NC355451  44.710  34.599   5.564
 4311POPC   PO455452  44.682  34.606   5.864
 4311POPC   GL155453  44.657  34.613   6.164
 4311POPC   GL255454  44.557  34.458   6.164
 4311POPC   C1A55455  44.667  34.560   6.464
 4311POPC   D2A55456  44.677  34.556   6.764
 4311POPC   C3A55457  44.653  34.560   7.064
 4311POPC   C4A55458  44.683  34.603   7.364
 4311POPC   C1B55459  44.468  34.359   6.464
 4311POPC   C2B55460  44.460  34.392   6.764
 4311POPC   C3B55461  44.533  34.347   7.064
 4311POPC   C4B55462  44.499  34.361   7.364
 4312POPC   NC355463  19.883  36.143   5.564
 4312POPC   PO455464  19.856  36.113   5.864
 4312POPC   GL155465  19.839  36.160   6.164
 4312POPC   GL255466  19.787  35.993   6.164
 4312POPC   C1A55467  19.854  36.120   6.464
 4312POPC   D2A55468  19.834  36.156   6.764
 4312POPC   C3A55469  19.876  36.119   7.064
 4312POPC   C4A55470  19.863  36.169   7.364
 4312POPC   C1B55471  19.637  35.902   6.464
 4312POPC   C2B55472  19.726  35.892   6.764
 4312POPC   C3B55473  19.642  35.886   7.064
 4312POPC   C4B55474  19.669  35.914   7.364
 4313POPC   NC355475  14.366   4.268   5.564
 4313POPC   PO455476  14.359   4.271   5.864
 4313POPC   GL155477  14.413   4.267   6.164
 4313POPC   GL255478  14.341   4.193   6.164
 4313POPC   C1A55479  14.432   4.279   6.464
 4313POPC   D2A55480  14.374   4.272   6.764
 4313POPC   C3A55481  14.428   4.301   7.064
 4313POPC   C4A55482  14.431   4.350   7.364
 4313POPC   C1B55483  14.281   4.147   6.464
 4313POPC   C2B55484  14.239   4.075   6.764
 4313POPC   C3B55485  14.249   4.092   7.064
 4313POPC   C4B55486  14.291   4.112   7.364
 4314POPC   NC355487  13.593  33.752   5.564
 4314POPC   PO455488  13.607  33.775   5.864
 4314POPC   GL155489  13.633  33.780   6.164
 4314POPC   GL255490  13.549  33.747   6.164
 4314POPC   C1A55491  13.636  33.799   6.464
 4314POPC   D2A55492  13.615  33.780   6.764
 4314POPC   C3A55493  13.654  33.827   7.064
 4314POPC   C4A55494  13.598  33.840   7.364
 4314POPC   C1B55495  13.440  33.700   6.464
 4314POPC   C2B55496  13.426  33.615   6.764
 4314POPC   C3B55497  13.432  33.659   7.064
 4314POPC   C4B55498  13.413  33.674   7.364
 4315POPC   NC355499  38.408  25.270   5.564
 4315POPC   PO455500  38.409  25.315   5.864
 4315POPC   GL155501  38.442  25.297   6.164
 4315POPC   GL255502  38.319  25.321   6.164
 4315POPC   C1A55503  38.480  25.270   6.464
 4315POPC   D2A55504  38.474  25.288   6.764
 4315POPC   C3A55505  38.468  25.310   7.064
 4315POPC   C4A55506  38.423  25.299   7.364
 4315POPC   C1B55507  38.207  25.373   6.464
 4315POPC   C2B55508  38.244  25.339   6.764
 4315POPC   C3B55509  38.193  25.360   7.064
 4315POPC   C4B55510  38.192  25.346   7.364
 4316POPC   NC355511  12.041  27.590   5.564
 4316POPC   PO455512  12.120  27.635   5.864
 4316POPC   GL155513  12.050  27.615   6.164
 4316POPC   GL255514  11.919  27.540   6.164
 4316POPC   C1A55515  12.094  27.563   6.464
 4316POPC   D2A55516  12.037  27.624   6.764
 4316POPC   C3A55517  12.072  27.577   7.064
 4316POPC   C4A55518  12.068  27.611   7.364
 4316POPC   C1B55519  11.861  27.566   6.464
 4316POPC   C2B55520  11.866  27.567   6.764
 4316POPC   C3B55521  11.795  27.537   7.064
 4316POPC   C4B55522  11.798  27.549   7.364
 4317POPC   NC355523  32.238  42.313   5.564
 4317POPC   PO455524  32.256  42.303   5.864
 4317POPC   GL155525  32.232  42.358   6.164
 4317POPC   GL255526  32.264  42.191   6.164
 4317POPC   C1A55527  32.252  42.353   6.464
 4317POPC   D2A55528  32.288  42.336   6.764
 4317POPC   C3A55529  32.288  42.325   7.064
 4317POPC   C4A55530  32.222  42.319   7.364
 4317POPC   C1B55531  32.354  42.077   6.464
 4317POPC   C2B55532  32.316  42.097   6.764
 4317POPC   C3B55533  32.313  42.060   7.064
 4317POPC   C4B55534  32.381  42.109   7.364
 4318POPC   NC355535  33.024  15.935   5.564
 4318POPC   PO455536  33.064  15.994   5.864
 4318POPC   GL155537  33.029  15.994   6.164
 4318POPC   GL255538  33.124  16.013   6.164
 4318POPC   C1A55539  33.062  15.929   6.464
 4318POPC   D2A55540  33.047  15.947   6.764
 4318POPC   C3A55541  33.045  15.909   7.064
 4318POPC   C4A55542  32.982  15.941   7.364
 4318POPC   C1B55543  33.229  16.111   6.464
 4318POPC   C2B55544  33.193  16.136   6.764
 4318POPC   C3B55545  33.173  16.090   7.064
 4318POPC   C4B55546  33.206  16.081   7.364
 4319POPC   NC355547  29.151  43.890   5.564
 4319POPC   PO455548  29.180  43.896   5.864
 4319POPC   GL155549  29.189  43.925   6.164
 4319POPC   GL255550  29.076  43.815   6.164
 4319POPC   C1A55551  29.118  43.874   6.464
 4319POPC   D2A55552  29.190  43.921   6.764
 4319POPC   C3A55553  29.124  43.923   7.064
 4319POPC   C4A55554  29.143  43.875   7.364
 4319POPC   C1B55555  28.936  43.812   6.464
 4319POPC   C2B55556  28.872  43.770   6.764
 4319POPC   C3B55557  28.947  43.739   7.064
 4319POPC   C4B55558  28.874  43.765   7.364
 4320POPC   NC355559   8.958  26.048   5.564
 4320POPC   PO455560   8.933  26.062   5.864
 4320POPC   GL155561   9.003  26.064   6.164
 4320POPC   GL255562   8.897  26.047   6.164
 4320POPC   C1A55563   8.969  26.050   6.464
 4320POPC   D2A55564   8.994  26.089   6.764
 4320POPC   C3A55565   8.972  26.086   7.064
 4320POPC   C4A55566   8.946  26.004   7.364
 4320POPC   C1B55567   8.705  25.984   6.464
 4320POPC   C2B55568   8.769  25.983   6.764
 4320POPC   C3B55569   8.756  26.036   7.064
 4320POPC   C4B55570   8.746  26.004   7.364
 4321POPC   NC355571  26.020  34.606   5.564
 4321POPC   PO455572  26.067  34.536   5.864
 4321POPC   GL155573  26.085  34.541   6.164
 4321POPC   GL255574  26.085  34.664   6.164
 4321POPC   C1A55575  26.053  34.615   6.464
 4321POPC   D2A55576  26.011  34.577   6.764
 4321POPC   C3A55577  26.001  34.571   7.064
 4321POPC   C4A55578  26.084  34.603   7.364
 4321POPC   C1B55579  26.180  34.831   6.464
 4321POPC   C2B55580  26.178  34.796   6.764
 4321POPC   C3B55581  26.179  34.757   7.064
 4321POPC   C4B55582  26.121  34.815   7.364
 4322POPC   NC355583  14.419  37.710   5.564
 4322POPC   PO455584  14.371  37.684   5.864
 4322POPC   GL155585  14.434  37.687   6.164
 4322POPC   GL255586  14.520  37.737   6.164
 4322POPC   C1A55587  14.410  37.647   6.464
 4322POPC   D2A55588  14.394  37.688   6.764
 4322POPC   C3A55589  14.409  37.718   7.064
 4322POPC   C4A55590  14.415  37.727   7.364
 4322POPC   C1B55591  14.650  37.702   6.464
 4322POPC   C2B55592  14.654  37.745   6.764
 4322POPC   C3B55593  14.605  37.761   7.064
 4322POPC   C4B55594  14.670  37.754   7.364
 4323POPC   NC355595   6.670  14.378   5.564
 4323POPC   PO455596   6.642  14.414   5.864
 4323POPC   GL155597   6.680  14.440   6.164
 4323POPC   GL255598   6.655  14.300   6.164
 4323POPC   C1A55599   6.645  14.420   6.464
 4323POPC   D2A55600   6.663  14.427   6.764
 4323POPC   C3A55601   6.653  14.447   7.064
 4323POPC   C4A55602   6.680  14.422   7.364
 4323POPC   C1B55603   6.637  14.158   6.464
 4323POPC   C2B55604   6.661  14.141   6.764
 4323POPC   C3B55605   6.708  14.128   7.064
 4323POPC   C4B55606   6.647  14.157   7.364
 4324POPC   NC355607  26.049  36.918   5.564
 4324POPC   PO455608  26.036  36.898   5.864
 4324POPC   GL155609  26.054  36.920   6.164
 4324POPC   GL255610  25.970  37.050   6.164
 4324POPC   C1A55611  26.008  36.899   6.464
 4324POPC   D2A55612  26.067  36.913   6.764
 4324POPC   C3A55613  26.082  36.951   7.064
 4324POPC   C4A55614  26.083  36.913   7.364
 4324POPC   C1B55615  25.929  37.104   6.464
 4324POPC   C2B55616  25.866  37.114   6.764
 4324POPC   C3B55617  25.911  37.119   7.064
 4324POPC   C4B55618  25.872  37.127   7.364
 4325POPC   NC355619  33.007  22.140   5.564
 4325POPC   PO455620  33.010  22.175   5.864
 4325POPC   GL155621  32.983  22.118   6.164
 4325POPC   GL255622  32.964  22.095   6.164
 4325POPC   C1A55623  33.035  22.138   6.464
 4325POPC   D2A55624  33.031  22.127   6.764
 4325POPC   C3A55625  32.981  22.206   7.064
 4325POPC   C4A55626  33.041  22.206   7.364
 4325POPC   C1B55627  32.830  21.919   6.464
 4325POPC   C2B55628  32.915  21.949   6.764
 4325POPC   C3B55629  32.901  21.957   7.064
 4325POPC   C4B55630  32.916  21.972   7.364
 4326POPC   NC355631  35.390  29.893   5.564
 4326POPC   PO455632  35.384  29.907   5.864
 4326POPC   GL155633  35.320  29.930   6.164
 4326POPC   GL255634  35.498  30.009   6.164
 4326POPC   C1A55635  35.326  29.876   6.464
 4326POPC   D2A55636  35.394  29.971   6.764
 4326POPC   C3A55637  35.399  29.873   7.064
 4326POPC   C4A55638  35.361  29.962   7.364
 4326POPC   C1B55639  35.546  30.040   6.464
 4326POPC   C2B55640  35.586  30.032   6.764
 4326POPC   C3B55641  35.590  30.108   7.064
 4326POPC   C4B55642  35.586  30.105   7.364
 4327POPC   NC355643  22.158  31.522   5.564
 4327POPC   PO455644  22.204  31.428   5.864
 4327POPC   GL155645  22.162  31.495   6.164
 4327POPC   GL255646  22.103  31.582   6.164
 4327POPC   C1A55647  22.173  31.423   6.464
 4327POPC   D2A55648  22.152  31.494   6.764
 4327POPC   C3A55649  22.138  31.517   7.064
 4327POPC   C4A55650  22.145  31.437   7.364
 4327POPC   C1B55651  21.960  31.623   6.464
 4327POPC   C2B55652  21.975  31.704   6.764
 4327POPC   C3B55653  22.037  31.623   7.064
 4327POPC   C4B55654  22.046  31.678   7.364
 4328POPC   NC355655   1.165  42.339   5.564
 4328POPC   PO455656   1.230  42.294   5.864
 4328POPC   GL155657   1.182  42.300   6.164
 4328POPC   GL255658   1.341  42.287   6.164
 4328POPC   C1A55659   1.179  42.306   6.464
 4328POPC   D2A55660   1.245  42.342   6.764
 4328POPC   C3A55661   1.211  42.309   7.064
 4328POPC   C4A55662   1.230  42.379   7.364
 4328POPC   C1B55663   1.355  42.205   6.464
 4328POPC   C2B55664   1.381  42.138   6.764
 4328POPC   C3B55665   1.402  42.129   7.064
 4328POPC   C4B55666   1.354  42.137   7.364
 4329POPC   NC355667  37.646  17.502   5.564
 4329POPC   PO455668  37.630  17.475   5.864
 4329POPC   GL155669  37.710  17.518   6.164
 4329POPC   GL255670  37.535  17.431   6.164
 4329POPC   C1A55671  37.704  17.542   6.464
 4329POPC   D2A55672  37.681  17.471   6.764
 4329POPC   C3A55673  37.642  17.476   7.064
 4329POPC   C4A55674  37.633  17.534   7.364
 4329POPC   C1B55675  37.485  17.417   6.464
 4329POPC   C2B55676  37.481  17.458   6.764
 4329POPC   C3B55677  37.430  17.463   7.064
 4329POPC   C4B55678  37.478  17.426   7.364
 4330POPC   NC355679  36.154  29.162   5.564
 4330POPC   PO455680  36.119  29.174   5.864
 4330POPC   GL155681  36.160  29.104   6.164
 4330POPC   GL255682  35.980  29.225   6.164
 4330POPC   C1A55683  36.160  29.166   6.464
 4330POPC   D2A55684  36.168  29.100   6.764
 4330POPC   C3A55685  36.151  29.131   7.064
 4330POPC   C4A55686  36.140  29.134   7.364
 4330POPC   C1B55687  35.888  29.234   6.464
 4330POPC   C2B55688  35.866  29.251   6.764
 4330POPC   C3B55689  35.921  29.235   7.064
 4330POPC   C4B55690  35.928  29.188   7.364
 4331POPC   NC355691  37.716  23.691   5.564
 4331POPC   PO455692  37.677  23.694   5.864
 4331POPC   GL155693  37.642  23.707   6.164
 4331POPC   GL255694  37.548  23.701   6.164
 4331POPC   C1A55695  37.636  23.671   6.464
 4331POPC   D2A55696  37.707  23.741   6.764
 4331POPC   C3A55697  37.682  23.670   7.064
 4331POPC   C4A55698  37.721  23.668   7.364
 4331POPC   C1B55699  37.394  23.715   6.464
 4331POPC   C2B55700  37.388  23.712   6.764
 4331POPC   C3B55701  37.443  23.735   7.064
 4331POPC   C4B55702  37.455  23.674   7.364
 4332POPC   NC355703  24.456  35.320   5.564
 4332POPC   PO455704  24.468  35.362   5.864
 4332POPC   GL155705  24.507  35.371   6.164
 4332POPC   GL255706  24.437  35.445   6.164
 4332POPC   C1A55707  24.472  35.394   6.464
 4332POPC   D2A55708  24.511  35.339   6.764
 4332POPC   C3A55709  24.477  35.321   7.064
 4332POPC   C4A55710  24.532  35.339   7.364
 4332POPC   C1B55711  24.358  35.527   6.464
 4332POPC   C2B55712  24.326  35.524   6.764
 4332POPC   C3B55713  24.280  35.573   7.064
 4332POPC   C4B55714  24.296  35.570   7.364
 4333POPC   NC355715  34.572  25.292   5.564
 4333POPC   PO455716  34.600  25.293   5.864
 4333POPC   GL155717  34.532  25.237   6.164
 4333POPC   GL255718  34.578  25.148   6.164
 4333POPC   C1A55719  34.574  25.277   6.464
 4333POPC   D2A55720  34.528  25.256   6.764
 4333POPC   C3A55721  34.608  25.228   7.064
 4333POPC   C4A55722  34.581  25.216   7.364
 4333POPC   C1B55723  34.495  24.986   6.464
 4333POPC   C2B55724  34.511  24.983   6.764
 4333POPC   C3B55725  34.484  25.011   7.064
 4333POPC   C4B55726  34.564  25.036   7.364
 4334POPC   NC355727  34.624  23.731   5.564
 4334POPC   PO455728  34.547  23.722   5.864
 4334POPC   GL155729  34.556  23.705   6.164
 4334POPC   GL255730  34.663  23.857   6.164
 4334POPC   C1A55731  34.588  23.745   6.464
 4334POPC   D2A55732  34.555  23.675   6.764
 4334POPC   C3A55733  34.609  23.688   7.064
 4334POPC   C4A55734  34.564  23.687   7.364
 4334POPC   C1B55735  34.733  23.943   6.464
 4334POPC   C2B55736  34.687  23.892   6.764
 4334POPC   C3B55737  34.719  23.938   7.064
 4334POPC   C4B55738  34.703  23.933   7.364
 4335POPC   NC355739  26.801   8.154   5.564
 4335POPC   PO455740  26.770   8.221   5.864
 4335POPC   GL155741  26.815   8.220   6.164
 4335POPC   GL255742  26.734   8.202   6.164
 4335POPC   C1A55743  26.823   8.195   6.464
 4335POPC   D2A55744  26.842   8.153   6.764
 4335POPC   C3A55745  26.807   8.153   7.064
 4335POPC   C4A55746  26.811   8.207   7.364
 4335POPC   C1B55747  26.541   8.153   6.464
 4335POPC   C2B55748  26.605   8.222   6.764
 4335POPC   C3B55749  26.580   8.196   7.064
 4335POPC   C4B55750  26.597   8.219   7.364
 4336POPC   NC355751   9.706  27.600   5.564
 4336POPC   PO455752   9.795  27.562   5.864
 4336POPC   GL155753   9.759  27.581   6.164
 4336POPC   GL255754   9.738  27.745   6.164
 4336POPC   C1A55755   9.764  27.599   6.464
 4336POPC   D2A55756   9.766  27.610   6.764
 4336POPC   C3A55757   9.756  27.555   7.064
 4336POPC   C4A55758   9.700  27.610   7.364
 4336POPC   C1B55759   9.774  27.796   6.464
 4336POPC   C2B55760   9.823  27.837   6.764
 4336POPC   C3B55761   9.737  27.813   7.064
 4336POPC   C4B55762   9.787  27.835   7.364
 4337POPC   NC355763  34.536  40.768   5.564
 4337POPC   PO455764  34.574  40.779   5.864
 4337POPC   GL155765  34.583  40.820   6.164
 4337POPC   GL255766  34.436  40.755   6.164
 4337POPC   C1A55767  34.585  40.806   6.464
 4337POPC   D2A55768  34.575  40.801   6.764
 4337POPC   C3A55769  34.537  40.805   7.064
 4337POPC   C4A55770  34.612  40.772   7.364
 4337POPC   C1B55771  34.333  40.668   6.464
 4337POPC   C2B55772  34.392  40.665   6.764
 4337POPC   C3B55773  34.387  40.645   7.064
 4337POPC   C4B55774  34.371  40.640   7.364
 4338POPC   NC355775  21.416  18.268   5.564
 4338POPC   PO455776  21.397  18.263   5.864
 4338POPC   GL155777  21.431  18.330   6.164
 4338POPC   GL255778  21.347  18.394   6.164
 4338POPC   C1A55779  21.381  18.294   6.464
 4338POPC   D2A55780  21.378  18.321   6.764
 4338POPC   C3A55781  21.436  18.310   7.064
 4338POPC   C4A55782  21.364  18.314   7.364
 4338POPC   C1B55783  21.216  18.505   6.464
 4338POPC   C2B55784  21.256  18.520   6.764
 4338POPC   C3B55785  21.236  18.511   7.064
 4338POPC   C4B55786  21.250  18.488   7.364
 4339POPC   NC355787  26.768  31.423   5.564
 4339POPC   PO455788  26.810  31.453   5.864
 4339POPC   GL155789  26.832  31.434   6.164
 4339POPC   GL255790  26.818  31.381   6.164
 4339POPC   C1A55791  26.844  31.436   6.464
 4339POPC   D2A55792  26.778  31.439   6.764
 4339POPC   C3A55793  26.790  31.438   7.064
 4339POPC   C4A55794  26.846  31.441   7.364
 4339POPC   C1B55795  26.842  31.265   6.464
 4339POPC   C2B55796  26.849  31.198   6.764
 4339POPC   C3B55797  26.823  31.214   7.064
 4339POPC   C4B55798  26.873  31.176   7.364
 4340POPC   NC355799  12.045  12.816   5.564
 4340POPC   PO455800  12.070  12.888   5.864
 4340POPC   GL155801  12.073  12.838   6.164
 4340POPC   GL255802  11.951  12.734   6.164
 4340POPC   C1A55803  12.084  12.830   6.464
 4340POPC   D2A55804  12.029  12.888   6.764
 4340POPC   C3A55805  12.079  12.889   7.064
 4340POPC   C4A55806  12.103  12.879   7.364
 4340POPC   C1B55807  11.937  12.694   6.464
 4340POPC   C2B55808  11.914  12.679   6.764
 4340POPC   C3B55809  11.958  12.662   7.064
 4340POPC   C4B55810  11.955  12.675   7.364
 4341POPC   NC355811  19.854  16.687   5.564
 4341POPC   PO455812  19.851  16.762   5.864
 4341POPC   GL155813  19.787  16.702   6.164
 4341POPC   GL255814  19.806  16.585   6.164
 4341POPC   C1A55815  19.805  16.726   6.464
 4341POPC   D2A55816  19.842  16.754   6.764
 4341POPC   C3A55817  19.836  16.706   7.064
 4341POPC   C4A55818  19.832  16.707   7.364
 4341POPC   C1B55819  19.841  16.460   6.464
 4341POPC   C2B55820  19.810  16.497   6.764
 4341POPC   C3B55821  19.855  16.488   7.064
 4341POPC   C4B55822  19.864  16.513   7.364
 4342POPC   NC355823  12.837  37.729   5.564
 4342POPC   PO455824  12.877  37.661   5.864
 4342POPC   GL155825  12.856  37.707   6.164
 4342POPC   GL255826  12.769  37.681   6.164
 4342POPC   C1A55827  12.875  37.696   6.464
 4342POPC   D2A55828  12.803  37.704   6.764
 4342POPC   C3A55829  12.823  37.659   7.064
 4342POPC   C4A55830  12.804  37.700   7.364
 4342POPC   C1B55831  12.638  37.790   6.464
 4342POPC   C2B55832  12.611  37.780   6.764
 4342POPC   C3B55833  12.593  37.723   7.064
 4342POPC   C4B55834  12.661  37.757   7.364
 4343POPC   NC355835   9.751  19.075   5.564
 4343POPC   PO455836   9.762  19.014   5.864
 4343POPC   GL155837   9.788  19.103   6.164
 4343POPC   GL255838   9.844  18.985   6.164
 4343POPC   C1A55839   9.725  19.035   6.464
 4343POPC   D2A55840   9.759  19.020   6.764
 4343POPC   C3A55841   9.720  19.028   7.064
 4343POPC   C4A55842   9.765  19.060   7.364
 4343POPC   C1B55843   9.884  18.806   6.464
 4343POPC   C2B55844   9.831  18.889   6.764
 4343POPC   C3B55845   9.855  18.808   7.064
 4343POPC   C4B55846   9.875  18.802   7.364
 4344POPC   NC355847  38.412  14.412   5.564
 4344POPC   PO455848  38.467  14.447   5.864
 4344POPC   GL155849  38.470  14.414   6.164
 4344POPC   GL255850  38.349  14.467   6.164
 4344POPC   C1A55851  38.428  14.361   6.464
 4344POPC   D2A55852  38.468  14.398   6.764
 4344POPC   C3A55853  38.425  14.356   7.064
 4344POPC   C4A55854  38.415  14.433   7.364
 4344POPC   C1B55855  38.259  14.473   6.464
 4344POPC   C2B55856  38.211  14.509   6.764
 4344POPC   C3B55857  38.215  14.486   7.064
 4344POPC   C4B55858  38.246  14.506   7.364
 4345POPC   NC355859  27.641   1.962   5.564
 4345POPC   PO455860  27.563   1.947   5.864
 4345POPC   GL155861  27.607   2.029   6.164
 4345POPC   GL255862  27.627   1.832   6.164
 4345POPC   C1A55863  27.598   2.024   6.464
 4345POPC   D2A55864  27.574   2.021   6.764
 4345POPC   C3A55865  27.589   2.033   7.064
 4345POPC   C4A55866  27.621   1.944   7.364
 4345POPC   C1B55867  27.657   1.726   6.464
 4345POPC   C2B55868  27.686   1.789   6.764
 4345POPC   C3B55869  27.629   1.750   7.064
 4345POPC   C4B55870  27.614   1.713   7.364
 4346POPC   NC355871  40.031  22.927   5.564
 4346POPC   PO455872  40.052  22.891   5.864
 4346POPC   GL155873  40.042  22.932   6.164
 4346POPC   GL255874  40.081  22.895   6.164
 4346POPC   C1A55875  39.967  22.931   6.464
 4346POPC   D2A55876  39.992  22.918   6.764
 4346POPC   C3A55877  39.978  22.934   7.064
 4346POPC   C4A55878  39.961  22.938   7.364
 4346POPC   C1B55879  40.207  22.806   6.464
 4346POPC   C2B55880  40.155  22.785   6.764
 4346POPC   C3B55881  40.190  22.818   7.064
 4346POPC   C4B55882  40.228  22.763   7.364
 4347POPC   NC355883  42.343  41.545   5.564
 4347POPC   PO455884  42.328  41.597   5.864
 4347POPC   GL155885  42.336  41.536   6.164
 4347POPC   GL255886  42.335  41.441   6.164
 4347POPC   C1A55887  42.305  41.547   6.464
 4347POPC   D2A55888  42.332  41.553   6.764
 4347POPC   C3A55889  42.381  41.568   7.064
 4347POPC   C4A55890  42.296  41.535   7.364
 4347POPC   C1B55891  42.272  41.278   6.464
 4347POPC   C2B55892  42.295  41.285   6.764
 4347POPC   C3B55893  42.289  41.329   7.064
 4347POPC   C4B55894  42.328  41.268   7.364
 4348POPC   NC355895   6.642  21.416   5.564
 4348POPC   PO455896   6.691  21.397   5.864
 4348POPC   GL155897   6.683  21.386   6.164
 4348POPC   GL255898   6.640  21.226   6.164
 4348POPC   C1A55899   6.689  21.389   6.464
 4348POPC   D2A55900   6.624  21.376   6.764
 4348POPC   C3A55901   6.685  21.407   7.064
 4348POPC   C4A55902   6.601  21.338   7.364
 4348POPC   C1B55903   6.655  21.175   6.464
 4348POPC   C2B55904   6.718  21.166   6.764
 4348POPC   C3B55905   6.730  21.175   7.064
 4348POPC   C4B55906   6.709  21.174   7.364
 4349POPC   NC355907  34.593  10.478   5.564
 4349POPC   PO455908  34.572  10.478   5.864
 4349POPC   GL155909  34.595  10.495   6.164
 4349POPC   GL255910  34.454  10.628   6.164
 4349POPC   C1A55911  34.622  10.492   6.464
 4349POPC   D2A55912  34.609  10.482   6.764
 4349POPC   C3A55913  34.589  10.558   7.064
 4349POPC   C4A55914  34.590  10.526   7.364
 4349POPC   C1B55915  34.437  10.715   6.464
 4349POPC   C2B55916  34.383  10.706   6.764
 4349POPC   C3B55917  34.436  10.689   7.064
 4349POPC   C4B55918  34.418  10.743   7.364
 4350POPC   NC355919  41.593  34.560   5.564
 4350POPC   PO455920  41.559  34.557   5.864
 4350POPC   GL155921  41.527  34.606   6.164
 4350POPC   GL255922  41.615  34.687   6.164
 4350POPC   C1A55923  41.594  34.557   6.464
 4350POPC   D2A55924  41.573  34.595   6.764
 4350POPC   C3A55925  41.516  34.587   7.064
 4350POPC   C4A55926  41.584  34.557   7.364
 4350POPC   C1B55927  41.582  34.837   6.464
 4350POPC   C2B55928  41.557  34.798   6.764
 4350POPC   C3B55929  41.558  34.790   7.064
 4350POPC   C4B55930  41.599  34.784   7.364
 4351POPC   NC355931  35.360   9.784   5.564
 4351POPC   PO455932  35.318   9.783   5.864
 4351POPC   GL155933  35.400   9.759   6.164
 4351POPC   GL255934  35.211   9.705   6.164
 4351POPC   C1A55935  35.307   9.762   6.464
 4351POPC   D2A55936  35.320   9.769   6.764
 4351POPC   C3A55937  35.346   9.709   7.064
 4351POPC   C4A55938  35.397   9.705   7.364
 4351POPC   C1B55939  35.159   9.690   6.464
 4351POPC   C2B55940  35.146   9.686   6.764
 4351POPC   C3B55941  35.100   9.671   7.064
 4351POPC   C4B55942  35.163   9.698   7.364
 4352POPC   NC355943  39.256  22.908   5.564
 4352POPC   PO455944  39.246  22.932   5.864
 4352POPC   GL155945  39.217  22.920   6.164
 4352POPC   GL255946  39.350  22.936   6.164
 4352POPC   C1A55947  39.246  22.950   6.464
 4352POPC   D2A55948  39.191  22.925   6.764
 4352POPC   C3A55949  39.185  22.893   7.064
 4352POPC   C4A55950  39.194  22.896   7.364
 4352POPC   C1B55951  39.469  22.842   6.464
 4352POPC   C2B55952  39.456  22.901   6.764
 4352POPC   C3B55953  39.515  22.912   7.064
 4352POPC   C4B55954  39.437  22.833   7.364
 4353POPC   NC355955  29.194  15.927   5.564
 4353POPC   PO455956  29.163  15.976   5.864
 4353POPC   GL155957  29.125  15.984   6.164
 4353POPC   GL255958  29.115  16.062   6.164
 4353POPC   C1A55959  29.125  15.910   6.464
 4353POPC   D2A55960  29.182  15.927   6.764
 4353POPC   C3A55961  29.137  15.939   7.064
 4353POPC   C4A55962  29.137  15.948   7.364
 4353POPC   C1B55963  29.152  16.247   6.464
 4353POPC   C2B55964  29.163  16.236   6.764
 4353POPC   C3B55965  29.225  16.228   7.064
 4353POPC   C4B55966  29.219  16.191   7.364
 4354POPC   NC355967   2.022   8.946   5.564
 4354POPC   PO455968   1.944   8.955   5.864
 4354POPC   GL155969   1.991   8.940   6.164
 4354POPC   GL255970   2.134   9.035   6.164
 4354POPC   C1A55971   1.948   9.007   6.464
 4354POPC   D2A55972   1.978   8.989   6.764
 4354POPC   C3A55973   2.039   8.991   7.064
 4354POPC   C4A55974   2.003   8.961   7.364
 4354POPC   C1B55975   2.272   9.023   6.464
 4354POPC   C2B55976   2.266   9.004   6.764
 4354POPC   C3B55977   2.251   9.067   7.064
 4354POPC   C4B55978   2.280   9.011   7.364
 4355POPC   NC355979  16.701  38.420   5.564
 4355POPC   PO455980  16.702  38.455   5.864
 4355POPC   GL155981  16.771  38.417   6.164
 4355POPC   GL255982  16.823  38.597   6.164
 4355POPC   C1A55983  16.732  38.502   6.464
 4355POPC   D2A55984  16.692  38.417   6.764
 4355POPC   C3A55985  16.724  38.416   7.064
 4355POPC   C4A55986  16.721  38.480   7.364
 4355POPC   C1B55987  16.904  38.652   6.464
 4355POPC   C2B55988  16.878  38.688   6.764
 4355POPC   C3B55989  16.908  38.619   7.064
 4355POPC   C4B55990  16.870  38.694   7.364
 4356POPC   NC355991  42.330  15.152   5.564
 4356POPC   PO455992  42.289  15.190   5.864
 4356POPC   GL155993  42.302  15.206   6.164
 4356POPC   GL255994  42.363  15.084   6.164
 4356POPC   C1A55995  42.324  15.155   6.464
 4356POPC   D2A55996  42.303  15.199   6.764
 4356POPC   C3A55997  42.287  15.206   7.064
 4356POPC   C4A55998  42.340  15.223   7.364
 4356POPC   C1B55999  42.334  14.925   6.464
 4356POPC   C2B56000  42.401  14.904   6.764
 4356POPC   C3B56001  42.418  14.952   7.064
 4356POPC   C4B56002  42.326  14.936   7.364
 4357POPC   NC356003  29.184  31.430   5.564
 4357POPC   PO456004  29.155  31.442   5.864
 4357POPC   GL156005  29.096  31.474   6.164
 4357POPC   GL256006  29.038  31.479   6.164
 4357POPC   C1A56007  29.128  31.488   6.464
 4357POPC   D2A56008  29.153  31.502   6.764
 4357POPC   C3A56009  29.195  31.499   7.064
 4357POPC   C4A56010  29.128  31.433   7.364
 4357POPC   C1B56011  28.911  31.560   6.464
 4357POPC   C2B56012  28.935  31.536   6.764
 4357POPC   C3B56013  28.859  31.514   7.064
 4357POPC   C4B56014  28.888  31.539   7.364
 4358POPC   NC356015  36.098  12.065   5.564
 4358POPC   PO456016  36.080  12.056   5.864
 4358POPC   GL156017  36.125  12.117   6.164
 4358POPC   GL256018  36.034  12.099   6.164
 4358POPC   C1A56019  36.118  12.046   6.464
 4358POPC   D2A56020  36.125  12.125   6.764
 4358POPC   C3A56021  36.159  12.090   7.064
 4358POPC   C4A56022  36.124  12.117   7.364
 4358POPC   C1B56023  35.839  12.118   6.464
 4358POPC   C2B56024  35.893  12.078   6.764
 4358POPC   C3B56025  35.874  12.069   7.064
 4358POPC   C4B56026  35.870  12.066   7.364
 4359POPC   NC356027  33.054  20.641   5.564
 4359POPC   PO456028  32.997  20.650   5.864
 4359POPC   GL156029  32.984  20.578   6.164
 4359POPC   GL256030  33.081  20.698   6.164
 4359POPC   C1A56031  33.049  20.602   6.464
 4359POPC   D2A56032  33.036  20.646   6.764
 4359POPC   C3A56033  33.070  20.627   7.064
 4359POPC   C4A56034  32.999  20.594   7.364
 4359POPC   C1B56035  33.182  20.834   6.464
 4359POPC   C2B56036  33.180  20.775   6.764
 4359POPC   C3B56037  33.152  20.791   7.064
 4359POPC   C4B56038  33.196  20.786   7.364
 4360POPC   NC356039  22.132  11.262   5.564
 4360POPC   PO456040  22.160  11.349   5.864
 4360POPC   GL156041  22.121  11.272   6.164
 4360POPC   GL256042  22.163  11.207   6.164
 4360POPC   C1A56043  22.155  11.276   6.464
 4360POPC   D2A56044  22.176  11.264   6.764
 4360POPC   C3A56045  22.141  11.287   7.064
 4360POPC   C4A56046  22.196  11.294   7.364
 4360POPC   C1B56047  22.169  11.025   6.464
 4360POPC   C2B56048  22.143  11.017   6.764
 4360POPC   C3B56049  22.099  11.031   7.064
 4360POPC   C4B56050  22.133  11.056   7.364
 4361POPC   NC356051  30.688  39.187   5.564
 4361POPC   PO456052  30.660  39.266   5.864
 4361POPC   GL156053  30.693  39.203   6.164
 4361POPC   GL256054  30.595  39.081   6.164
 4361POPC   C1A56055  30.672  39.189   6.464
 4361POPC   D2A56056  30.724  39.228   6.764
 4361POPC   C3A56057  30.731  39.224   7.064
 4361POPC   C4A56058  30.724  39.252   7.364
 4361POPC   C1B56059  30.502  39.065   6.464
 4361POPC   C2B56060  30.531  39.076   6.764
 4361POPC   C3B56061  30.582  39.077   7.064
 4361POPC   C4B56062  30.578  38.996   7.364
 4362POPC   NC356063   3.533  26.778   5.564
 4362POPC   PO456064   3.509  26.806   5.864
 4362POPC   GL156065   3.498  26.777   6.164
 4362POPC   GL256066   3.436  26.886   6.164
 4362POPC   C1A56067   3.494  26.819   6.464
 4362POPC   D2A56068   3.557  26.818   6.764
 4362POPC   C3A56069   3.533  26.777   7.064
 4362POPC   C4A56070   3.496  26.844   7.364
 4362POPC   C1B56071   3.254  26.925   6.464
 4362POPC   C2B56072   3.338  26.860   6.764
 4362POPC   C3B56073   3.342  26.873   7.064
 4362POPC   C4B56074   3.326  26.887   7.364
 4363POPC   NC356075  14.390   7.438   5.564
 4363POPC   PO456076  14.392   7.409   5.864
 4363POPC   GL156077  14.371   7.386   6.164
 4363POPC   GL256078  14.300   7.439   6.164
 4363POPC   C1A56079  14.399   7.399   6.464
 4363POPC   D2A56080  14.397   7.436   6.764
 4363POPC   C3A56081  14.441   7.418   7.064
 4363POPC   C4A56082  14.423   7.469   7.364
 4363POPC   C1B56083  14.179   7.434   6.464
 4363POPC   C2B56084  14.163   7.405   6.764
 4363POPC   C3B56085  14.171   7.365   7.064
 4363POPC   C4B56086  14.165   7.423   7.364
 4364POPC   NC356087  15.143   2.802   5.564
 4364POPC   PO456088  15.158   2.758   5.864
 4364POPC   GL156089  15.188   2.793   6.164
 4364POPC   GL256090  15.327   2.734   6.164
 4364POPC   C1A56091  15.199   2.762   6.464
 4364POPC   D2A56092  15.225   2.773   6.764
 4364POPC   C3A56093  15.151   2.737   7.064
 4364POPC   C4A56094  15.201   2.740   7.364
 4364POPC   C1B56095  15.402   2.792   6.464
 4364POPC   C2B56096  15.466   2.777   6.764
 4364POPC   C3B56097  15.474   2.793   7.064
 4364POPC   C4B56098  15.411   2.750   7.364
 4365POPC   NC356099  26.846  13.582   5.564
 4365POPC   PO456100  26.862  13.619   5.864
 4365POPC   GL156101  26.783  13.631   6.164
 4365POPC   GL256102  26.787  13.729   6.164
 4365POPC   C1A56103  26.779  13.609   6.464
 4365POPC   D2A56104  26.802  13.596   6.764
 4365POPC   C3A56105  26.802  13.666   7.064
 4365POPC   C4A56106  26.822  13.659   7.364
 4365POPC   C1B56107  26.817  13.835   6.464
 4365POPC   C2B56108  26.831  13.876   6.764
 4365POPC   C3B56109  26.774  13.908   7.064
 4365POPC   C4B56110  26.785  13.907   7.364
 4366POPC   NC356111  35.368  11.309   5.564
 4366POPC   PO456112  35.322  11.330   5.864
 4366POPC   GL156113  35.365  11.309   6.164
 4366POPC   GL256114  35.458  11.428   6.164
 4366POPC   C1A56115  35.369  11.346   6.464
 4366POPC   D2A56116  35.364  11.336   6.764
 4366POPC   C3A56117  35.310  11.340   7.064
 4366POPC   C4A56118  35.305  11.297   7.364
 4366POPC   C1B56119  35.496  11.449   6.464
 4366POPC   C2B56120  35.515  11.522   6.764
 4366POPC   C3B56121  35.543  11.462   7.064
 4366POPC   C4B56122  35.468  11.467   7.364
 4367POPC   NC356123  23.685  19.080   5.564
 4367POPC   PO456124  23.679  19.105   5.864
 4367POPC   GL156125  23.753  19.016   6.164
 4367POPC   GL256126  23.879  19.003   6.164
 4367POPC   C1A56127  23.693  19.037   6.464
 4367POPC   D2A56128  23.675  19.103   6.764
 4367POPC   C3A56129  23.718  19.016   7.064
 4367POPC   C4A56130  23.673  19.096   7.364
 4367POPC   C1B56131  23.933  19.044   6.464
 4367POPC   C2B56132  23.948  19.011   6.764
 4367POPC   C3B56133  23.950  19.069   7.064
 4367POPC   C4B56134  23.923  19.041   7.364
 4368POPC   NC356135  29.956  26.020   5.564
 4368POPC   PO456136  29.880  26.069   5.864
 4368POPC   GL156137  29.911  26.085   6.164
 4368POPC   GL256138  29.968  25.938   6.164
 4368POPC   C1A56139  29.909  26.091   6.464
 4368POPC   D2A56140  29.923  25.995   6.764
 4368POPC   C3A56141  29.925  26.020   7.064
 4368POPC   C4A56142  29.887  26.070   7.364
 4368POPC   C1B56143  30.074  25.849   6.464
 4368POPC   C2B56144  30.090  25.872   6.764
 4368POPC   C3B56145  30.008  25.811   7.064
 4368POPC   C4B56146  30.092  25.875   7.364
 4369POPC   NC356147   1.254   8.227   5.564
 4369POPC   PO456148   1.213   8.152   5.864
 4369POPC   GL156149   1.193   8.212   6.164
 4369POPC   GL256150   1.293   8.294   6.164
 4369POPC   C1A56151   1.238   8.181   6.464
 4369POPC   D2A56152   1.234   8.171   6.764
 4369POPC   C3A56153   1.208   8.246   7.064
 4369POPC   C4A56154   1.193   8.213   7.364
 4369POPC   C1B56155   1.371   8.413   6.464
 4369POPC   C2B56156   1.426   8.392   6.764
 4369POPC   C3B56157   1.349   8.370   7.064
 4369POPC   C4B56158   1.369   8.382   7.364
 4370POPC   NC356159  28.378  14.438   5.564
 4370POPC   PO456160  28.350  14.369   5.864
 4370POPC   GL156161  28.412  14.374   6.164
 4370POPC   GL256162  28.478  14.484   6.164
 4370POPC   C1A56163  28.405  14.451   6.464
 4370POPC   D2A56164  28.375  14.453   6.764
 4370POPC   C3A56165  28.413  14.427   7.064
 4370POPC   C4A56166  28.342  14.423   7.364
 4370POPC   C1B56167  28.647  14.537   6.464
 4370POPC   C2B56168  28.631  14.485   6.764
 4370POPC   C3B56169  28.610  14.458   7.064
 4370POPC   C4B56170  28.586  14.517   7.364
 4371POPC   NC356171  32.201  26.044   5.564
 4371POPC   PO456172  32.275  26.070   5.864
 4371POPC   GL156173  32.236  26.091   6.164
 4371POPC   GL256174  32.303  25.947   6.164
 4371POPC   C1A56175  32.270  26.004   6.464
 4371POPC   D2A56176  32.279  26.006   6.764
 4371POPC   C3A56177  32.275  26.047   7.064
 4371POPC   C4A56178  32.226  26.076   7.364
 4371POPC   C1B56179  32.241  25.748   6.464
 4371POPC   C2B56180  32.250  25.785   6.764
 4371POPC   C3B56181  32.313  25.833   7.064
 4371POPC   C4B56182  32.259  25.750   7.364
 4372POPC   NC356183  32.293  12.080   5.564
 4372POPC   PO456184  32.295  12.046   5.864
 4372POPC   GL156185  32.219  12.116   6.164
 4372POPC   GL256186  32.304  12.116   6.164
 4372POPC   C1A56187  32.273  12.047   6.464
 4372POPC   D2A56188  32.209  12.063   6.764
 4372POPC   C3A56189  32.287  12.115   7.064
 4372POPC   C4A56190  32.251  12.101   7.364
 4372POPC   C1B56191  32.399  12.291   6.464
 4372POPC   C2B56192  32.432  12.233   6.764
 4372POPC   C3B56193  32.410  12.287   7.064
 4372POPC   C4B56194  32.419  12.205   7.364
 4373POPC   NC356195  18.261   2.796   5.564
 4373POPC   PO456196  18.277   2.739   5.864
 4373POPC   GL156197  18.280   2.738   6.164
 4373POPC   GL256198  18.317   2.659   6.164
 4373POPC   C1A56199  18.297   2.738   6.464
 4373POPC   D2A56200  18.248   2.786   6.764
 4373POPC   C3A56201  18.262   2.798   7.064
 4373POPC   C4A56202  18.293   2.717   7.364
 4373POPC   C1B56203  18.235   2.548   6.464
 4373POPC   C2B56204  18.317   2.564   6.764
 4373POPC   C3B56205  18.259   2.468   7.064
 4373POPC   C4B56206  18.226   2.508   7.364
 4374POPC   NC356207  32.210  30.714   5.564
 4374POPC   PO456208  32.230  30.709   5.864
 4374POPC   GL156209  32.209  30.655   6.164
 4374POPC   GL256210  32.104  30.755   6.164
 4374POPC   C1A56211  32.234  30.649   6.464
 4374POPC   D2A56212  32.274  30.700   6.764
 4374POPC   C3A56213  32.199  30.731   7.064
 4374POPC   C4A56214  32.275  30.723   7.364
 4374POPC   C1B56215  31.976  30.837   6.464
 4374POPC   C2B56216  32.062  30.773   6.764
 4374POPC   C3B56217  32.047  30.842   7.064
 4374POPC   C4B56218  31.983  30.841   7.364
 4375POPC   NC356219  19.867  15.206   5.564
 4375POPC   PO456220  19.876  15.197   5.864
 4375POPC   GL156221  19.849  15.140   6.164
 4375POPC   GL256222  19.910  15.219   6.164
 4375POPC   C1A56223  19.832  15.218   6.464
 4375POPC   D2A56224  19.834  15.180   6.764
 4375POPC   C3A56225  19.814  15.179   7.064
 4375POPC   C4A56226  19.837  15.159   7.364
 4375POPC   C1B56227  20.017  15.293   6.464
 4375POPC   C2B56228  20.012  15.280   6.764
 4375POPC   C3B56229  20.038  15.275   7.064
 4375POPC   C4B56230  20.071  15.357   7.364
 4376POPC   NC356231  40.020  15.927   5.564
 4376POPC   PO456232  40.049  15.942   5.864
 4376POPC   GL156233  39.987  16.003   6.164
 4376POPC   GL256234  39.911  15.966   6.164
 4376POPC   C1A56235  39.984  15.960   6.464
 4376POPC   D2A56236  39.960  15.968   6.764
 4376POPC   C3A56237  40.017  16.001   7.064
 4376POPC   C4A56238  40.055  15.963   7.364
 4376POPC   C1B56239  39.727  15.864   6.464
 4376POPC   C2B56240  39.746  15.916   6.764
 4376POPC   C3B56241  39.760  15.922   7.064
 4376POPC   C4B56242  39.768  15.881   7.364
 4377POPC   NC356243  37.703  13.609   5.564
 4377POPC   PO456244  37.665  13.583   5.864
 4377POPC   GL156245  37.642  13.644   6.164
 4377POPC   GL256246  37.573  13.652   6.164
 4377POPC   C1A56247  37.723  13.649   6.464
 4377POPC   D2A56248  37.670  13.600   6.764
 4377POPC   C3A56249  37.693  13.628   7.064
 4377POPC   C4A56250  37.651  13.628   7.364
 4377POPC   C1B56251  37.404  13.693   6.464
 4377POPC   C2B56252  37.397  13.668   6.764
 4377POPC   C3B56253  37.481  13.679   7.064
 4377POPC   C4B56254  37.488  13.736   7.364
 4378POPC   NC356255  13.578  18.258   5.564
 4378POPC   PO456256  13.634  18.314   5.864
 4378POPC   GL156257  13.624  18.309   6.164
 4378POPC   GL256258  13.659  18.210   6.164
 4378POPC   C1A56259  13.581  18.264   6.464
 4378POPC   D2A56260  13.606  18.271   6.764
 4378POPC   C3A56261  13.587  18.280   7.064
 4378POPC   C4A56262  13.657  18.290   7.364
 4378POPC   C1B56263  13.783  18.116   6.464
 4378POPC   C2B56264  13.765  18.130   6.764
 4378POPC   C3B56265  13.764  18.057   7.064
 4378POPC   C4B56266  13.748  18.126   7.364
 4379POPC   NC356267   1.198  16.719   5.564
 4379POPC   PO456268   1.234  16.779   5.864
 4379POPC   GL156269   1.182  16.746   6.164
 4379POPC   GL256270   1.278  16.591   6.164
 4379POPC   C1A56271   1.235  16.693   6.464
 4379POPC   D2A56272   1.175  16.708   6.764
 4379POPC   C3A56273   1.183  16.778   7.064
 4379POPC   C4A56274   1.233  16.728   7.364
 4379POPC   C1B56275   1.264  16.439   6.464
 4379POPC   C2B56276   1.233  16.449   6.764
 4379POPC   C3B56277   1.272  16.511   7.064
 4379POPC   C4B56278   1.308  16.501   7.364
 4380POPC   NC356279  26.013  27.622   5.564
 4380POPC   PO456280  26.007  27.570   5.864
 4380POPC   GL156281  26.007  27.589   6.164
 4380POPC   GL256282  25.930  27.635   6.164
 4380POPC   C1A56283  26.072  27.597   6.464
 4380POPC   D2A56284  26.049  27.548   6.764
 4380POPC   C3A56285  25.995  27.599   7.064
 4380POPC   C4A56286  26.030  27.640   7.364
 4380POPC   C1B56287  25.814  27.635   6.464
 4380POPC   C2B56288  25.826  27.687   6.764
 4380POPC   C3B56289  25.818  27.615   7.064
 4380POPC   C4B56290  25.753  27.622   7.364
 4381POPC   NC356291  36.913  40.803   5.564
 4381POPC   PO456292  36.901  40.829   5.864
 4381POPC   GL156293  36.940  40.782   6.164
 4381POPC   GL256294  36.962  40.686   6.164
 4381POPC   C1A56295  36.871  40.780   6.464
 4381POPC   D2A56296  36.858  40.791   6.764
 4381POPC   C3A56297  36.892  40.800   7.064
 4381POPC   C4A56298  36.879  40.795   7.364
 4381POPC   C1B56299  36.975  40.564   6.464
 4381POPC   C2B56300  36.998  40.586   6.764
 4381POPC   C3B56301  36.943  40.551   7.064
 4381POPC   C4B56302  36.984  40.587   7.364
 4382POPC   NC356303  39.976  28.326   5.564
 4382POPC   PO456304  39.977  28.390   5.864
 4382POPC   GL156305  40.012  28.334   6.164
 4382POPC   GL256306  39.916  28.354   6.164
 4382POPC   C1A56307  39.996  28.379   6.464
 4382POPC   D2A56308  39.973  28.355   6.764
 4382POPC   C3A56309  39.978  28.387   7.064
 4382POPC   C4A56310  39.986  28.338   7.364
 4382POPC   C1B56311  39.719  28.316   6.464
 4382POPC   C2B56312  39.738  28.370   6.764
 4382POPC   C3B56313  39.783  28.348   7.064
 4382POPC   C4B56314  39.802  28.315   7.364
 4383POPC   NC356315  12.034  34.553   5.564
 4383POPC   PO456316  12.108  34.592   5.864
 4383POPC   GL156317  12.091  34.558   6.164
 4383POPC   GL256318  12.013  34.626   6.164
 4383POPC   C1A56319  12.097  34.555   6.464
 4383POPC   D2A56320  12.078  34.571   6.764
 4383POPC   C3A56321  12.061  34.554   7.064
 4383POPC   C4A56322  12.028  34.541   7.364
 4383POPC   C1B56323  11.851  34.790   6.464
 4383POPC   C2B56324  11.861  34.795   6.764
 4383POPC   C3B56325  11.880  34.763   7.064
 4383POPC   C4B56326  11.845  34.712   7.364
 4384POPC   NC356327  36.889  37.634   5.564
 4384POPC   PO456328  36.870  37.666   5.864
 4384POPC   GL156329  36.875  37.714   6.164
 4384POPC   GL256330  36.762  37.676   6.164
 4384POPC   C1A56331  36.869  37.726   6.464
 4384POPC   D2A56332  36.854  37.692   6.764
 4384POPC   C3A56333  36.856  37.705   7.064
 4384POPC   C4A56334  36.925  37.700   7.364
 4384POPC   C1B56335  36.630  37.667   6.464
 4384POPC   C2B56336  36.617  37.658   6.764
 4384POPC   C3B56337  36.674  37.716   7.064
 4384POPC   C4B56338  36.666  37.689   7.364
 4385POPC   NC356339  40.753  30.665   5.564
 4385POPC   PO456340  40.794  30.656   5.864
 4385POPC   GL156341  40.811  30.740   6.164
 4385POPC   GL256342  40.704  30.659   6.164
 4385POPC   C1A56343  40.779  30.722   6.464
 4385POPC   D2A56344  40.808  30.694   6.764
 4385POPC   C3A56345  40.818  30.746   7.064
 4385POPC   C4A56346  40.811  30.716   7.364
 4385POPC   C1B56347  40.569  30.675   6.464
 4385POPC   C2B56348  40.577  30.689   6.764
 4385POPC   C3B56349  40.582  30.755   7.064
 4385POPC   C4B56350  40.510  30.707   7.364
 4386POPC   NC356351   5.134   2.716   5.564
 4386POPC   PO456352   5.050   2.802   5.864
 4386POPC   GL156353   5.097   2.774   6.164
 4386POPC   GL256354   5.045   2.832   6.164
 4386POPC   C1A56355   5.105   2.760   6.464
 4386POPC   D2A56356   5.127   2.732   6.764
 4386POPC   C3A56357   5.073   2.732   7.064
 4386POPC   C4A56358   5.132   2.803   7.364
 4386POPC   C1B56359   4.915   2.963   6.464
 4386POPC   C2B56360   4.937   2.941   6.764
 4386POPC   C3B56361   4.881   2.874   7.064
 4386POPC   C4B56362   4.931   2.944   7.364
 4387POPC   NC356363  41.540  12.056   5.564
 4387POPC   PO456364  41.543  12.084   5.864
 4387POPC   GL156365  41.521  12.028   6.164
 4387POPC   GL256366  41.590  12.163   6.164
 4387POPC   C1A56367  41.599  12.125   6.464
 4387POPC   D2A56368  41.538  12.060   6.764
 4387POPC   C3A56369  41.584  12.046   7.064
 4387POPC   C4A56370  41.559  12.113   7.364
 4387POPC   C1B56371  41.558  12.352   6.464
 4387POPC   C2B56372  41.593  12.314   6.764
 4387POPC   C3B56373  41.610  12.303   7.064
 4387POPC   C4B56374  41.629  12.275   7.364
 4388POPC   NC356375  12.030  29.952   5.564
 4388POPC   PO456376  12.059  29.934   5.864
 4388POPC   GL156377  12.048  29.908   6.164
 4388POPC   GL256378  12.015  29.809   6.164
 4388POPC   C1A56379  12.079  29.926   6.464
 4388POPC   D2A56380  12.055  29.898   6.764
 4388POPC   C3A56381  12.100  29.935   7.064
 4388POPC   C4A56382  12.038  29.947   7.364
 4388POPC   C1B56383  11.883  29.762   6.464
 4388POPC   C2B56384  11.865  29.832   6.764
 4388POPC   C3B56385  11.849  29.772   7.064
 4388POPC   C4B56386  11.847  29.835   7.364
 4389POPC   NC356387  12.096  15.130   5.564
 4389POPC   PO456388  12.126  15.223   5.864
 4389POPC   GL156389  12.110  15.218   6.164
 4389POPC   GL256390  11.978  15.126   6.164
 4389POPC   C1A56391  12.063  15.181   6.464
 4389POPC   D2A56392  12.089  15.179   6.764
 4389POPC   C3A56393  12.092  15.185   7.064
 4389POPC   C4A56394  12.076  15.178   7.364
 4389POPC   C1B56395  11.839  15.133   6.464
 4389POPC   C2B56396  11.789  15.054   6.764
 4389POPC   C3B56397  11.885  15.113   7.064
 4389POPC   C4B56398  11.795  15.119   7.364
 4390POPC   NC356399  43.840  27.551   5.564
 4390POPC   PO456400  43.884  27.624   5.864
 4390POPC   GL156401  43.871  27.622   6.164
 4390POPC   GL256402  43.839  27.466   6.164
 4390POPC   C1A56403  43.885  27.592   6.464
 4390POPC   D2A56404  43.881  27.550   6.764
 4390POPC   C3A56405  43.883  27.616   7.064
 4390POPC   C4A56406  43.897  27.580   7.364
 4390POPC   C1B56407  43.749  27.402   6.464
 4390POPC   C2B56408  43.799  27.338   6.764
 4390POPC   C3B56409  43.814  27.344   7.064
 4390POPC   C4B56410  43.830  27.394   7.364
 4391POPC   NC356411   5.882  24.453   5.564
 4391POPC   PO456412   5.860  24.460   5.864
 4391POPC   GL156413   5.894  24.538   6.164
 4391POPC   GL256414   5.953  24.414   6.164
 4391POPC   C1A56415   5.821  24.478   6.464
 4391POPC   D2A56416   5.867  24.523   6.764
 4391POPC   C3A56417   5.893  24.448   7.064
 4391POPC   C4A56418   5.866  24.491   7.364
 4391POPC   C1B56419   5.994  24.289   6.464
 4391POPC   C2B56420   6.042  24.331   6.764
 4391POPC   C3B56421   6.058  24.270   7.064
 4391POPC   C4B56422   6.054  24.264   7.364
 4392POPC   NC356423   5.880   1.981   5.564
 4392POPC   PO456424   5.826   1.972   5.864
 4392POPC   GL156425   5.858   1.958   6.164
 4392POPC   GL256426   5.806   1.889   6.164
 4392POPC   C1A56427   5.852   1.954   6.464
 4392POPC   D2A56428   5.899   2.038   6.764
 4392POPC   C3A56429   5.839   2.028   7.064
 4392POPC   C4A56430   5.865   2.038   7.364
 4392POPC   C1B56431   5.783   1.737   6.464
 4392POPC   C2B56432   5.722   1.762   6.764
 4392POPC   C3B56433   5.712   1.748   7.064
 4392POPC   C4B56434   5.746   1.783   7.364
 4393POPC   NC356435   5.857  34.556   5.564
 4393POPC   PO456436   5.879  34.560   5.864
 4393POPC   GL156437   5.901  34.620   6.164
 4393POPC   GL256438   5.753  34.486   6.164
 4393POPC   C1A56439   5.826  34.619   6.464
 4393POPC   D2A56440   5.895  34.574   6.764
 4393POPC   C3A56441   5.850  34.529   7.064
 4393POPC   C4A56442   5.876  34.592   7.364
 4393POPC   C1B56443   5.618  34.389   6.464
 4393POPC   C2B56444   5.628  34.440   6.764
 4393POPC   C3B56445   5.710  34.421   7.064
 4393POPC   C4B56446   5.694  34.471   7.364
 4394POPC   NC356447  38.478  19.099   5.564
 4394POPC   PO456448  38.484  19.024   5.864
 4394POPC   GL156449  38.491  19.023   6.164
 4394POPC   GL256450  38.617  19.047   6.164
 4394POPC   C1A56451  38.422  19.017   6.464
 4394POPC   D2A56452  38.436  19.103   6.764
 4394POPC   C3A56453  38.466  19.058   7.064
 4394POPC   C4A56454  38.438  19.029   7.364
 4394POPC   C1B56455  38.703  18.998   6.464
 4394POPC   C2B56456  38.683  18.999   6.764
 4394POPC   C3B56457  38.719  18.998   7.064
 4394POPC   C4B56458  38.639  18.958   7.364
 4395POPC   NC356459  29.126  30.678   5.564
 4395POPC   PO456460  29.123  30.667   5.864
 4395POPC   GL156461  29.186  30.741   6.164
 4395POPC   GL256462  29.181  30.805   6.164
 4395POPC   C1A56463  29.179  30.682   6.464
 4395POPC   D2A56464  29.139  30.677   6.764
 4395POPC   C3A56465  29.130  30.670   7.064
 4395POPC   C4A56466  29.193  30.682   7.364
 4395POPC   C1B56467  29.123  30.977   6.464
 4395POPC   C2B56468  29.152  30.921   6.764
 4395POPC   C3B56469  29.160  30.975   7.064
 4395POPC   C4B56470  29.148  30.980   7.364
 4396POPC   NC356471   8.193  44.678   5.564
 4396POPC   PO456472   8.175  44.623   5.864
 4396POPC   GL156473   8.213  44.703   6.164
 4396POPC   GL256474   8.087  44.643   6.164
 4396POPC   C1A56475   8.178  44.656   6.464
 4396POPC   D2A56476   8.160  44.654   6.764
 4396POPC   C3A56477   8.222  44.683   7.064
 4396POPC   C4A56478   8.226  44.678   7.364
 4396POPC   C1B56479   7.915  44.679   6.464
 4396POPC   C2B56480   7.901  44.608   6.764
 4396POPC   C3B56481   7.929  44.668   7.064
 4396POPC   C4B56482   7.974  44.680   7.364
 4397POPC   NC356483  38.423  43.146   5.564
 4397POPC   PO456484  38.416  43.084   5.864
 4397POPC   GL156485  38.495  43.158   6.164
 4397POPC   GL256486  38.438  43.024   6.164
 4397POPC   C1A56487  38.438  43.145   6.464
 4397POPC   D2A56488  38.504  43.125   6.764
 4397POPC   C3A56489  38.461  43.098   7.064
 4397POPC   C4A56490  38.492  43.131   7.364
 4397POPC   C1B56491  38.436  42.820   6.464
 4397POPC   C2B56492  38.459  42.839   6.764
 4397POPC   C3B56493  38.451  42.857   7.064
 4397POPC   C4B56494  38.402  42.904   7.364
 4398POPC   NC356495  19.841  41.568   5.564
 4398POPC   PO456496  19.825  41.560   5.864
 4398POPC   GL156497  19.834  41.606   6.164
 4398POPC   GL256498  19.696  41.443   6.164
 4398POPC   C1A56499  19.871  41.522   6.464
 4398POPC   D2A56500  19.884  41.532   6.764
 4398POPC   C3A56501  19.839  41.581   7.064
 4398POPC   C4A56502  19.851  41.528   7.364
 4398POPC   C1B56503  19.671  41.426   6.464
 4398POPC   C2B56504  19.598  41.376   6.764
 4398POPC   C3B56505  19.680  41.400   7.064
 4398POPC   C4B56506  19.610  41.444   7.364
 4399POPC   NC356507   9.732   8.230   5.564
 4399POPC   PO456508   9.729   8.186   5.864
 4399POPC   GL156509   9.735   8.228   6.164
 4399POPC   GL256510   9.826   8.205   6.164
 4399POPC   C1A56511   9.795   8.151   6.464
 4399POPC   D2A56512   9.791   8.158   6.764
 4399POPC   C3A56513   9.739   8.210   7.064
 4399POPC   C4A56514   9.740   8.205   7.364
 4399POPC   C1B56515   9.989   8.257   6.464
 4399POPC   C2B56516   9.988   8.242   6.764
 4399POPC   C3B56517   9.949   8.309   7.064
 4399POPC   C4B56518   9.969   8.308   7.364
 4400POPC   NC356519  25.234  16.698   5.564
 4400POPC   PO456520  25.290  16.699   5.864
 4400POPC   GL156521  25.276  16.698   6.164
 4400POPC   GL256522  25.395  16.730   6.164
 4400POPC   C1A56523  25.279  16.689   6.464
 4400POPC   D2A56524  25.275  16.710   6.764
 4400POPC   C3A56525  25.270  16.695   7.064
 4400POPC   C4A56526  25.281  16.769   7.364
 4400POPC   C1B56527  25.472  16.715   6.464
 4400POPC   C2B56528  25.518  16.774   6.764
 4400POPC   C3B56529  25.472  16.693   7.064
 4400POPC   C4B56530  25.555  16.690   7.364
 4401POPC   NC356531  12.125  16.771   5.564
 4401POPC   PO456532  12.085  16.711   5.864
 4401POPC   GL156533  12.077  16.706   6.164
 4401POPC   GL256534  12.083  16.611   6.164
 4401POPC   C1A56535  12.121  16.701   6.464
 4401POPC   D2A56536  12.110  16.762   6.764
 4401POPC   C3A56537  12.111  16.713   7.064
 4401POPC   C4A56538  12.067  16.741   7.364
 4401POPC   C1B56539  12.205  16.513   6.464
 4401POPC   C2B56540  12.209  16.533   6.764
 4401POPC   C3B56541  12.191  16.529   7.064
 4401POPC   C4B56542  12.141  16.530   7.364
 4402POPC   NC356543  29.880  43.096   5.564
 4402POPC   PO456544  29.894  43.106   5.864
 4402POPC   GL156545  29.895  43.103   6.164
 4402POPC   GL256546  30.061  43.209   6.164
 4402POPC   C1A56547  29.952  43.061   6.464
 4402POPC   D2A56548  29.960  43.115   6.764
 4402POPC   C3A56549  29.894  43.062   7.064
 4402POPC   C4A56550  29.951  43.128   7.364
 4402POPC   C1B56551  30.082  43.272   6.464
 4402POPC   C2B56552  30.118  43.270   6.764
 4402POPC   C3B56553  30.132  43.269   7.064
 4402POPC   C4B56554  30.089  43.228   7.364
 4403POPC   NC356555  28.355  26.014   5.564
 4403POPC   PO456556  28.348  26.012   5.864
 4403POPC   GL156557  28.366  26.078   6.164
 4403POPC   GL256558  28.323  25.914   6.164
 4403POPC   C1A56559  28.375  26.039   6.464
 4403POPC   D2A56560  28.355  26.056   6.764
 4403POPC   C3A56561  28.339  26.083   7.064
 4403POPC   C4A56562  28.323  26.055   7.364
 4403POPC   C1B56563  28.236  25.840   6.464
 4403POPC   C2B56564  28.255  25.850   6.764
 4403POPC   C3B56565  28.205  25.843   7.064
 4403POPC   C4B56566  28.238  25.870   7.364
 4404POPC   NC356567  24.531   1.172   5.564
 4404POPC   PO456568  24.456   1.183   5.864
 4404POPC   GL156569  24.501   1.174   6.164
 4404POPC   GL256570  24.607   1.276   6.164
 4404POPC   C1A56571  24.509   1.180   6.464
 4404POPC   D2A56572  24.520   1.179   6.764
 4404POPC   C3A56573  24.529   1.227   7.064
 4404POPC   C4A56574  24.487   1.257   7.364
 4404POPC   C1B56575  24.772   1.342   6.464
 4404POPC   C2B56576  24.691   1.302   6.764
 4404POPC   C3B56577  24.701   1.251   7.064
 4404POPC   C4B56578  24.765   1.303   7.364
 4405POPC   NC356579  26.069  33.004   5.564
 4405POPC   PO456580  26.003  33.000   5.864
 4405POPC   GL156581  26.061  32.999   6.164
 4405POPC   GL256582  25.991  33.139   6.164
 4405POPC   C1A56583  25.994  33.023   6.464
 4405POPC   D2A56584  26.019  32.996   6.764
 4405POPC   C3A56585  25.996  32.979   7.064
 4405POPC   C4A56586  26.024  33.073   7.364
 4405POPC   C1B56587  25.997  33.312   6.464
 4405POPC   C2B56588  26.020  33.263   6.764
 4405POPC   C3B56589  26.047  33.227   7.064
 4405POPC   C4B56590  26.055  33.279   7.364
 4406POPC   NC356591  22.121   1.243   5.564
 4406POPC   PO456592  22.166   1.233   5.864
 4406POPC   GL156593  22.199   1.192   6.164
 4406POPC   GL256594  22.188   1.086   6.164
 4406POPC   C1A56595  22.204   1.193   6.464
 4406POPC   D2A56596  22.149   1.228   6.764
 4406POPC   C3A56597  22.112   1.196   7.064
 4406POPC   C4A56598  22.163   1.234   7.364
 4406POPC   C1B56599  22.284   0.956   6.464
 4406POPC   C2B56600  22.287   1.042   6.764
 4406POPC   C3B56601  22.245   1.041   7.064
 4406POPC   C4B56602  22.270   1.003   7.364
 4407POPC   NC356603  40.019  17.511   5.564
 4407POPC   PO456604  39.964  17.510   5.864
 4407POPC   GL156605  39.991  17.501   6.164
 4407POPC   GL256606  39.931  17.570   6.164
 4407POPC   C1A56607  40.016  17.458   6.464
 4407POPC   D2A56608  39.967  17.557   6.764
 4407POPC   C3A56609  39.979  17.481   7.064
 4407POPC   C4A56610  39.967  17.544   7.364
 4407POPC   C1B56611  39.723  17.559   6.464
 4407POPC   C2B56612  39.766  17.604   6.764
 4407POPC   C3B56613  39.783  17.601   7.064
 4407POPC   C4B56614  39.753  17.550   7.364
 4408POPC   NC356615   9.727   2.716   5.564
 4408POPC   PO456616   9.794   2.747   5.864
 4408POPC   GL156617   9.756   2.796   6.164
 4408POPC   GL256618   9.849   2.852   6.164
 4408POPC   C1A56619   9.702   2.733   6.464
 4408POPC   D2A56620   9.767   2.759   6.764
 4408POPC   C3A56621   9.739   2.716   7.064
 4408POPC   C4A56622   9.774   2.807   7.364
 4408POPC   C1B56623   9.957   2.933   6.464
 4408POPC   C2B56624   9.969   2.944   6.764
 4408POPC   C3B56625   9.920   2.928   7.064
 4408POPC   C4B56626   9.922   2.909   7.364
 4409POPC   NC356627  33.808  22.202   5.564
 4409POPC   PO456628  33.753  22.116   5.864
 4409POPC   GL156629  33.812  22.165   6.164
 4409POPC   GL256630  33.933  22.210   6.164
 4409POPC   C1A56631  33.828  22.157   6.464
 4409POPC   D2A56632  33.777  22.149   6.764
 4409POPC   C3A56633  33.835  22.181   7.064
 4409POPC   C4A56634  33.792  22.197   7.364
 4409POPC   C1B56635  33.929  22.374   6.464
 4409POPC   C2B56636  33.960  22.330   6.764
 4409POPC   C3B56637  34.006  22.322   7.064
 4409POPC   C4B56638  33.923  22.374   7.364
 4410POPC   NC356639   1.952  10.483   5.564
 4410POPC   PO456640   2.002  10.521   5.864
 4410POPC   GL156641   2.005  10.476   6.164
 4410POPC   GL256642   2.130  10.590   6.164
 4410POPC   C1A56643   2.029  10.550   6.464
 4410POPC   D2A56644   1.958  10.546   6.764
 4410POPC   C3A56645   1.945  10.513   7.064
 4410POPC   C4A56646   1.982  10.574   7.364
 4410POPC   C1B56647   2.154  10.693   6.464
 4410POPC   C2B56648   2.200  10.707   6.764
 4410POPC   C3B56649   2.174  10.667   7.064
 4410POPC   C4B56650   2.181  10.666   7.364
 4411POPC   NC356651  33.848  25.251   5.564
 4411POPC   PO456652  33.822  25.253   5.864
 4411POPC   GL156653  33.805  25.255   6.164
 4411POPC   GL256654  33.644  25.275   6.164
 4411POPC   C1A56655  33.786  25.238   6.464
 4411POPC   D2A56656  33.810  25.299   6.764
 4411POPC   C3A56657  33.817  25.302   7.064
 4411POPC   C4A56658  33.817  25.249   7.364
 4411POPC   C1B56659  33.508  25.341   6.464
 4411POPC   C2B56660  33.569  25.333   6.764
 4411POPC   C3B56661  33.594  25.249   7.064
 4411POPC   C4B56662  33.508  25.341   7.364
 4412POPC   NC356663  14.443  36.905   5.564
 4412POPC   PO456664  14.390  36.918   5.864
 4412POPC   GL156665  14.369  36.881   6.164
 4412POPC   GL256666  14.313  36.835   6.164
 4412POPC   C1A56667  14.360  36.932   6.464
 4412POPC   D2A56668  14.427  36.880   6.764
 4412POPC   C3A56669  14.424  36.872   7.064
 4412POPC   C4A56670  14.393  36.897   7.364
 4412POPC   C1B56671  14.275  36.763   6.464
 4412POPC   C2B56672  14.238  36.770   6.764
 4412POPC   C3B56673  14.203  36.717   7.064
 4412POPC   C4B56674  14.256  36.678   7.364
 4413POPC   NC356675  38.495  41.563   5.564
 4413POPC   PO456676  38.502  41.598   5.864
 4413POPC   GL156677  38.501  41.519   6.164
 4413POPC   GL256678  38.449  41.447   6.164
 4413POPC   C1A56679  38.416  41.577   6.464
 4413POPC   D2A56680  38.430  41.532   6.764
 4413POPC   C3A56681  38.452  41.604   7.064
 4413POPC   C4A56682  38.441  41.526   7.364
 4413POPC   C1B56683  38.317  41.380   6.464
 4413POPC   C2B56684  38.326  41.298   6.764
 4413POPC   C3B56685  38.338  41.309   7.064
 4413POPC   C4B56686  38.308  41.284   7.364
 4414POPC   NC356687  33.812  40.820   5.564
 4414POPC   PO456688  33.839  40.783   5.864
 4414POPC   GL156689  33.793  40.825   6.164
 4414POPC   GL256690  33.899  40.740   6.164
 4414POPC   C1A56691  33.781  40.733   6.464
 4414POPC   D2A56692  33.806  40.790   6.764
 4414POPC   C3A56693  33.814  40.831   7.064
 4414POPC   C4A56694  33.766  40.802   7.364
 4414POPC   C1B56695  34.017  40.654   6.464
 4414POPC   C2B56696  34.081  40.670   6.764
 4414POPC   C3B56697  34.011  40.647   7.064
 4414POPC   C4B56698  34.064  40.697   7.364
 4415POPC   NC356699   4.344  27.611   5.564
 4415POPC   PO456700   4.299  27.626   5.864
 4415POPC   GL156701   4.288  27.620   6.164
 4415POPC   GL256702   4.403  27.526   6.164
 4415POPC   C1A56703   4.272  27.599   6.464
 4415POPC   D2A56704   4.286  27.612   6.764
 4415POPC   C3A56705   4.338  27.624   7.064
 4415POPC   C4A56706   4.337  27.642   7.364
 4415POPC   C1B56707   4.421  27.359   6.464
 4415POPC   C2B56708   4.370  27.389   6.764
 4415POPC   C3B56709   4.375  27.360   7.064
 4415POPC   C4B56710   4.440  27.371   7.364
 4416POPC   NC356711   7.456   4.303   5.564
 4416POPC   PO456712   7.391   4.358   5.864
 4416POPC   GL156713   7.423   4.315   6.164
 4416POPC   GL256714   7.552   4.230   6.164
 4416POPC   C1A56715   7.453   4.303   6.464
 4416POPC   D2A56716   7.415   4.299   6.764
 4416POPC   C3A56717   7.463   4.316   7.064
 4416POPC   C4A56718   7.383   4.337   7.364
 4416POPC   C1B56719   7.648   4.184   6.464
 4416POPC   C2B56720   7.629   4.146   6.764
 4416POPC   C3B56721   7.583   4.171   7.064
 4416POPC   C4B56722   7.605   4.133   7.364
 4417POPC   NC356723  19.796  14.446   5.564
 4417POPC   PO456724  19.803  14.404   5.864
 4417POPC   GL156725  19.788  14.421   6.164
 4417POPC   GL256726  19.950  14.363   6.164
 4417POPC   C1A56727  19.814  14.436   6.464
 4417POPC   D2A56728  19.828  14.365   6.764
 4417POPC   C3A56729  19.821  14.361   7.064
 4417POPC   C4A56730  19.847  14.363   7.364
 4417POPC   C1B56731  20.010  14.202   6.464
 4417POPC   C2B56732  19.997  14.257   6.764
 4417POPC   C3B56733  20.038  14.262   7.064
 4417POPC   C4B56734  20.018  14.235   7.364
 4418POPC   NC356735  42.325  33.012   5.564
 4418POPC   PO456736  42.364  33.028   5.864
 4418POPC   GL156737  42.311  33.045   6.164
 4418POPC   GL256738  42.270  32.942   6.164
 4418POPC   C1A56739  42.299  32.990   6.464
 4418POPC   D2A56740  42.343  33.050   6.764
 4418POPC   C3A56741  42.347  33.035   7.064
 4418POPC   C4A56742  42.324  32.980   7.364
 4418POPC   C1B56743  42.140  32.919   6.464
 4418POPC   C2B56744  42.083  32.943   6.764
 4418POPC   C3B56745  42.127  32.923   7.064
 4418POPC   C4B56746  42.146  32.860   7.364
 4419POPC   NC356747  32.263  43.113   5.564
 4419POPC   PO456748  32.295  43.108   5.864
 4419POPC   GL156749  32.241  43.129   6.164
 4419POPC   GL256750  32.259  43.215   6.164
 4419POPC   C1A56751  32.285  43.131   6.464
 4419POPC   D2A56752  32.199  43.082   6.764
 4419POPC   C3A56753  32.260  43.137   7.064
 4419POPC   C4A56754  32.243  43.107   7.364
 4419POPC   C1B56755  32.274  43.378   6.464
 4419POPC   C2B56756  32.256  43.357   6.764
 4419POPC   C3B56757  32.195  43.363   7.064
 4419POPC   C4B56758  32.257  43.372   7.364
 4420POPC   NC356759  40.001  12.037   5.564
 4420POPC   PO456760  40.007  12.033   5.864
 4420POPC   GL156761  39.967  12.058   6.164
 4420POPC   GL256762  39.962  12.172   6.164
 4420POPC   C1A56763  39.985  12.070   6.464
 4420POPC   D2A56764  39.980  12.120   6.764
 4420POPC   C3A56765  40.008  12.086   7.064
 4420POPC   C4A56766  39.962  12.080   7.364
 4420POPC   C1B56767  39.834  12.287   6.464
 4420POPC   C2B56768  39.877  12.305   6.764
 4420POPC   C3B56769  39.878  12.241   7.064
 4420POPC   C4B56770  39.892  12.271   7.364
 4421POPC   NC356771  22.120  27.583   5.564
 4421POPC   PO456772  22.208  27.562   5.864
 4421POPC   GL156773  22.171  27.613   6.164
 4421POPC   GL256774  22.233  27.536   6.164
 4421POPC   C1A56775  22.153  27.607   6.464
 4421POPC   D2A56776  22.149  27.591   6.764
 4421POPC   C3A56777  22.156  27.598   7.064
 4421POPC   C4A56778  22.205  27.589   7.364
 4421POPC   C1B56779  22.361  27.354   6.464
 4421POPC   C2B56780  22.352  27.429   6.764
 4421POPC   C3B56781  22.266  27.381   7.064
 4421POPC   C4B56782  22.292  27.366   7.364
 4422POPC   NC356783   2.770   5.098   5.564
 4422POPC   PO456784   2.811   5.062   5.864
 4422POPC   GL156785   2.799   5.047   6.164
 4422POPC   GL256786   2.617   5.094   6.164
 4422POPC   C1A56787   2.815   5.135   6.464
 4422POPC   D2A56788   2.791   5.123   6.764
 4422POPC   C3A56789   2.751   5.126   7.064
 4422POPC   C4A56790   2.767   5.094   7.364
 4422POPC   C1B56791   2.506   5.114   6.464
 4422POPC   C2B56792   2.498   5.095   6.764
 4422POPC   C3B56793   2.558   5.077   7.064
 4422POPC   C4B56794   2.517   5.122   7.364
 4423POPC   NC356795  29.891  30.657   5.564
 4423POPC   PO456796  29.871  30.676   5.864
 4423POPC   GL156797  29.889  30.728   6.164
 4423POPC   GL256798  29.991  30.658   6.164
 4423POPC   C1A56799  29.907  30.730   6.464
 4423POPC   D2A56800  29.906  30.698   6.764
 4423POPC   C3A56801  29.964  30.693   7.064
 4423POPC   C4A56802  29.910  30.707   7.364
 4423POPC   C1B56803  30.110  30.544   6.464
 4423POPC   C2B56804  30.108  30.541   6.764
 4423POPC   C3B56805  30.144  30.563   7.064
 4423POPC   C4B56806  30.132  30.504   7.364
 4424POPC   NC356807   2.782  38.492   5.564
 4424POPC   PO456808   2.779  38.417   5.864
 4424POPC   GL156809   2.777  38.412   6.164
 4424POPC   GL256810   2.593  38.498   6.164
 4424POPC   C1A56811   2.815  38.423   6.464
 4424POPC   D2A56812   2.814  38.475   6.764
 4424POPC   C3A56813   2.725  38.415   7.064
 4424POPC   C4A56814   2.748  38.470   7.364
 4424POPC   C1B56815   2.506  38.430   6.464
 4424POPC   C2B56816   2.515  38.445   6.764
 4424POPC   C3B56817   2.490  38.402   7.064
 4424POPC   C4B56818   2.523  38.457   7.364
 4425POPC   NC356819   8.167  19.092   5.564
 4425POPC   PO456820   8.192  19.089   5.864
 4425POPC   GL156821   8.165  19.053   6.164
 4425POPC   GL256822   8.077  19.029   6.164
 4425POPC   C1A56823   8.148  19.040   6.464
 4425POPC   D2A56824   8.211  19.042   6.764
 4425POPC   C3A56825   8.182  19.021   7.064
 4425POPC   C4A56826   8.161  19.038   7.364
 4425POPC   C1B56827   8.017  18.905   6.464
 4425POPC   C2B56828   7.934  18.950   6.764
 4425POPC   C3B56829   7.959  18.898   7.064
 4425POPC   C4B56830   7.937  18.941   7.364
 4426POPC   NC356831  40.801   5.892   5.564
 4426POPC   PO456832  40.805   5.873   5.864
 4426POPC   GL156833  40.774   5.840   6.164
 4426POPC   GL256834  40.840   5.785   6.164
 4426POPC   C1A56835  40.782   5.869   6.464
 4426POPC   D2A56836  40.781   5.903   6.764
 4426POPC   C3A56837  40.750   5.869   7.064
 4426POPC   C4A56838  40.793   5.868   7.364
 4426POPC   C1B56839  40.911   5.658   6.464
 4426POPC   C2B56840  40.946   5.644   6.764
 4426POPC   C3B56841  40.895   5.625   7.064
 4426POPC   C4B56842  40.864   5.681   7.364
 4427POPC   NC356843   5.916   6.649   5.564
 4427POPC   PO456844   5.853   6.661   5.864
 4427POPC   GL156845   5.898   6.609   6.164
 4427POPC   GL256846   6.018   6.685   6.164
 4427POPC   C1A56847   5.916   6.665   6.464
 4427POPC   D2A56848   5.835   6.620   6.764
 4427POPC   C3A56849   5.902   6.670   7.064
 4427POPC   C4A56850   5.833   6.667   7.364
 4427POPC   C1B56851   6.164   6.657   6.464
 4427POPC   C2B56852   6.167   6.604   6.764
 4427POPC   C3B56853   6.133   6.663   7.064
 4427POPC   C4B56854   6.082   6.613   7.364
 4428POPC   NC356855  27.579  15.948   5.564
 4428POPC   PO456856  27.635  15.921   5.864
 4428POPC   GL156857  27.596  15.942   6.164
 4428POPC   GL256858  27.686  15.893   6.164
 4428POPC   C1A56859  27.565  15.943   6.464
 4428POPC   D2A56860  27.564  15.966   6.764
 4428POPC   C3A56861  27.635  15.952   7.064
 4428POPC   C4A56862  27.610  15.971   7.364
 4428POPC   C1B56863  27.859  15.904   6.464
 4428POPC   C2B56864  27.837  15.923   6.764
 4428POPC   C3B56865  27.832  15.900   7.064
 4428POPC   C4B56866  27.842  15.950   7.364
 4429POPC   NC356867   4.355   6.637   5.564
 4429POPC   PO456868   4.351   6.688   5.864
 4429POPC   GL156869   4.305   6.659   6.164
 4429POPC   GL256870   4.286   6.504   6.164
 4429POPC   C1A56871   4.291   6.629   6.464
 4429POPC   D2A56872   4.291   6.636   6.764
 4429POPC   C3A56873   4.311   6.618   7.064
 4429POPC   C4A56874   4.307   6.683   7.364
 4429POPC   C1B56875   4.272   6.443   6.464
 4429POPC   C2B56876   4.201   6.403   6.764
 4429POPC   C3B56877   4.174   6.398   7.064
 4429POPC   C4B56878   4.182   6.367   7.364
 4430POPC   NC356879  38.428   2.723   5.564
 4430POPC   PO456880  38.425   2.791   5.864
 4430POPC   GL156881  38.451   2.808   6.164
 4430POPC   GL256882  38.556   2.883   6.164
 4430POPC   C1A56883  38.468   2.741   6.464
 4430POPC   D2A56884  38.427   2.753   6.764
 4430POPC   C3A56885  38.429   2.725   7.064
 4430POPC   C4A56886  38.499   2.797   7.364
 4430POPC   C1B56887  38.588   2.952   6.464
 4430POPC   C2B56888  38.637   2.978   6.764
 4430POPC   C3B56889  38.629   2.944   7.064
 4430POPC   C4B56890  38.683   2.969   7.364
 4431POPC   NC356891  28.361  13.588   5.564
 4431POPC   PO456892  28.349  13.649   5.864
 4431POPC   GL156893  28.399  13.632   6.164
 4431POPC   GL256894  28.386  13.761   6.164
 4431POPC   C1A56895  28.339  13.638   6.464
 4431POPC   D2A56896  28.393  13.622   6.764
 4431POPC   C3A56897  28.336  13.621   7.064
 4431POPC   C4A56898  28.389  13.579   7.364
 4431POPC   C1B56899  28.439  13.833   6.464
 4431POPC   C2B56900  28.510  13.879   6.764
 4431POPC   C3B56901  28.465  13.902   7.064
 4431POPC   C4B56902  28.475  13.868   7.364
 4432POPC   NC356903  30.668  28.389   5.564
 4432POPC   PO456904  30.685  28.366   5.864
 4432POPC   GL156905  30.744  28.368   6.164
 4432POPC   GL256906  30.580  28.405   6.164
 4432POPC   C1A56907  30.742  28.336   6.464
 4432POPC   D2A56908  30.665  28.339   6.764
 4432POPC   C3A56909  30.659  28.362   7.064
 4432POPC   C4A56910  30.734  28.417   7.364
 4432POPC   C1B56911  30.457  28.441   6.464
 4432POPC   C2B56912  30.435  28.477   6.764
 4432POPC   C3B56913  30.424  28.461   7.064
 4432POPC   C4B56914  30.510  28.476   7.364
 4433POPC   NC356915  37.700   1.989   5.564
 4433POPC   PO456916  37.691   1.998   5.864
 4433POPC   GL156917  37.711   1.988   6.164
 4433POPC   GL256918  37.788   2.078   6.164
 4433POPC   C1A56919  37.643   1.997   6.464
 4433POPC   D2A56920  37.688   2.039   6.764
 4433POPC   C3A56921  37.702   1.969   7.064
 4433POPC   C4A56922  37.631   1.975   7.364
 4433POPC   C1B56923  37.872   2.236   6.464
 4433POPC   C2B56924  37.857   2.199   6.764
 4433POPC   C3B56925  37.823   2.206   7.064
 4433POPC   C4B56926  37.840   2.234   7.364
 4434POPC   NC356927   8.985  44.623   5.564
 4434POPC   PO456928   9.005  44.682   5.864
 4434POPC   GL156929   8.986  44.650   6.164
 4434POPC   GL256930   8.832  44.729   6.164
 4434POPC   C1A56931   8.962  44.612   6.464
 4434POPC   D2A56932   9.016  44.644   6.764
 4434POPC   C3A56933   8.969  44.677   7.064
 4434POPC   C4A56934   8.973  44.648   7.364
 4434POPC   C1B56935   8.692  44.798   6.464
 4434POPC   C2B56936   8.762  44.721   6.764
 4434POPC   C3B56937   8.779  44.734   7.064
 4434POPC   C4B56938   8.721  44.770   7.364
 4435POPC   NC356939  39.278  21.363   5.564
 4435POPC   PO456940  39.263  21.339   5.864
 4435POPC   GL156941  39.197  21.369   6.164
 4435POPC   GL256942  39.265  21.466   6.164
 4435POPC   C1A56943  39.236  21.412   6.464
 4435POPC   D2A56944  39.237  21.385   6.764
 4435POPC   C3A56945  39.245  21.409   7.064
 4435POPC   C4A56946  39.270  21.421   7.364
 4435POPC   C1B56947  39.378  21.643   6.464
 4435POPC   C2B56948  39.292  21.645   6.764
 4435POPC   C3B56949  39.330  21.632   7.064
 4435POPC   C4B56950  39.379  21.653   7.364
 4436POPC   NC356951  26.003  17.522   5.564
 4436POPC   PO456952  26.009  17.514   5.864
 4436POPC   GL156953  26.091  17.513   6.164
 4436POPC   GL256954  26.079  17.386   6.164
 4436POPC   C1A56955  26.013  17.554   6.464
 4436POPC   D2A56956  26.011  17.536   6.764
 4436POPC   C3A56957  26.088  17.555   7.064
 4436POPC   C4A56958  26.015  17.493   7.364
 4436POPC   C1B56959  26.098  17.249   6.464
 4436POPC   C2B56960  26.064  17.262   6.764
 4436POPC   C3B56961  26.121  17.228   7.064
 4436POPC   C4B56962  26.137  17.268   7.364
 4437POPC   NC356963  41.547  36.110   5.564
 4437POPC   PO456964  41.514  36.116   5.864
 4437POPC   GL156965  41.561  36.086   6.164
 4437POPC   GL256966  41.635  36.001   6.164
 4437POPC   C1A56967  41.584  36.135   6.464
 4437POPC   D2A56968  41.542  36.134   6.764
 4437POPC   C3A56969  41.521  36.123   7.064
 4437POPC   C4A56970  41.578  36.102   7.364
 4437POPC   C1B56971  41.652  35.882   6.464
 4437POPC   C2B56972  41.686  35.938   6.764
 4437POPC   C3B56973  41.681  35.879   7.064
 4437POPC   C4B56974  41.698  35.881   7.364
 4438POPC   NC356975  11.339  16.759   5.564
 4438POPC   PO456976  11.271  16.734   5.864
 4438POPC   GL156977  11.346  16.754   6.164
 4438POPC   GL256978  11.182  16.776   6.164
 4438POPC   C1A56979  11.320  16.745   6.464
 4438POPC   D2A56980  11.266  16.721   6.764
 4438POPC   C3A56981  11.278  16.736   7.064
 4438POPC   C4A56982  11.319  16.702   7.364
 4438POPC   C1B56983  11.044  16.793   6.464
 4438POPC   C2B56984  11.096  16.757   6.764
 4438POPC   C3B56985  11.094  16.771   7.064
 4438POPC   C4B56986  11.087  16.775   7.364
 4439POPC   NC356987  22.977  15.192   5.564
 4439POPC   PO456988  22.931  15.141   5.864
 4439POPC   GL156989  22.965  15.175   6.164
 4439POPC   GL256990  22.877  15.066   6.164
 4439POPC   C1A56991  22.942  15.221   6.464
 4439POPC   D2A56992  22.958  15.140   6.764
 4439POPC   C3A56993  22.981  15.173   7.064
 4439POPC   C4A56994  22.900  15.139   7.364
 4439POPC   C1B56995  22.881  14.889   6.464
 4439POPC   C2B56996  22.864  14.971   6.764
 4439POPC   C3B56997  22.940  14.900   7.064
 4439POPC   C4B56998  22.917  14.893   7.364
 4440POPC   NC356999   2.719  32.231   5.564
 4440POPC   PO457000   2.805  32.247   5.864
 4440POPC   GL157001   2.770  32.211   6.164
 4440POPC   GL257002   2.803  32.087   6.164
 4440POPC   C1A57003   2.770  32.225   6.464
 4440POPC   D2A57004   2.801  32.279   6.764
 4440POPC   C3A57005   2.796  32.298   7.064
 4440POPC   C4A57006   2.721  32.243   7.364
 4440POPC   C1B57007   2.756  32.029   6.464
 4440POPC   C2B57008   2.779  31.950   6.764
 4440POPC   C3B57009   2.803  32.039   7.064
 4440POPC   C4B57010   2.806  32.019   7.364
 4441POPC   NC357011   5.864  26.013   5.564
 4441POPC   PO457012   5.919  26.056   5.864
 4441POPC   GL157013   5.864  26.049   6.164
 4441POPC   GL257014   5.995  26.103   6.164
 4441POPC   C1A57015   5.885  25.993   6.464
 4441POPC   D2A57016   5.880  25.994   6.764
 4441POPC   C3A57017   5.886  26.006   7.064
 4441POPC   C4A57018   5.885  26.066   7.364
 4441POPC   C1B57019   6.066  26.091   6.464
 4441POPC   C2B57020   6.107  26.041   6.764
 4441POPC   C3B57021   6.086  26.044   7.064
 4441POPC   C4B57022   6.130  26.043   7.364
 4442POPC   NC357023  18.278   9.748   5.564
 4442POPC   PO457024  18.288   9.766   5.864
 4442POPC   GL157025  18.307   9.740   6.164
 4442POPC   GL257026  18.265   9.677   6.164
 4442POPC   C1A57027  18.255   9.777   6.464
 4442POPC   D2A57028  18.270   9.747   6.764
 4442POPC   C3A57029  18.303   9.765   7.064
 4442POPC   C4A57030  18.313   9.726   7.364
 4442POPC   C1B57031  18.160   9.496   6.464
 4442POPC   C2B57032  18.202   9.509   6.764
 4442POPC   C3B57033  18.158   9.493   7.064
 4442POPC   C4B57034  18.215   9.477   7.364
 4443POPC   NC357035   8.148  40.796   5.564
 4443POPC   PO457036   8.170  40.750   5.864
 4443POPC   GL157037   8.233  40.786   6.164
 4443POPC   GL257038   8.289  40.834   6.164
 4443POPC   C1A57039   8.163  40.764   6.464
 4443POPC   D2A57040   8.244  40.752   6.764
 4443POPC   C3A57041   8.159  40.777   7.064
 4443POPC   C4A57042   8.178  40.803   7.364
 4443POPC   C1B57043   8.443  40.811   6.464
 4443POPC   C2B57044   8.468  40.814   6.764
 4443POPC   C3B57045   8.420  40.831   7.064
 4443POPC   C4B57046   8.407  40.801   7.364
 4444POPC   NC357047  42.300  26.075   5.564
 4444POPC   PO457048  42.348  26.009   5.864
 4444POPC   GL157049  42.304  26.035   6.164
 4444POPC   GL257050  42.423  26.122   6.164
 4444POPC   C1A57051  42.306  26.042   6.464
 4444POPC   D2A57052  42.290  25.999   6.764
 4444POPC   C3A57053  42.306  25.999   7.064
 4444POPC   C4A57054  42.322  26.075   7.364
 4444POPC   C1B57055  42.416  26.262   6.464
 4444POPC   C2B57056  42.413  26.250   6.764
 4444POPC   C3B57057  42.437  26.274   7.064
 4444POPC   C4B57058  42.414  26.236   7.364
 4445POPC   NC357059  22.167  12.833   5.564
 4445POPC   PO457060  22.158  12.890   5.864
 4445POPC   GL157061  22.113  12.865   6.164
 4445POPC   GL257062  22.172  12.990   6.164
 4445POPC   C1A57063  22.153  12.821   6.464
 4445POPC   D2A57064  22.140  12.855   6.764
 4445POPC   C3A57065  22.118  12.859   7.064
 4445POPC   C4A57066  22.164  12.828   7.364
 4445POPC   C1B57067  22.119  13.091   6.464
 4445POPC   C2B57068  22.115  13.126   6.764
 4445POPC   C3B57069  22.155  13.137   7.064
 4445POPC   C4B57070  22.126  13.053   7.364
 4446POPC   NC357071  22.930  22.891   5.564
 4446POPC   PO457072  22.904  22.962   5.864
 4446POPC   GL157073  22.950  22.904   6.164
 4446POPC   GL257074  23.032  23.026   6.164
 4446POPC   C1A57075  22.933  22.949   6.464
 4446POPC   D2A57076  22.943  22.908   6.764
 4446POPC   C3A57077  22.950  22.920   7.064
 4446POPC   C4A57078  22.946  22.968   7.364
 4446POPC   C1B57079  23.109  23.086   6.464
 4446POPC   C2B57080  23.113  23.099   6.764
 4446POPC   C3B57081  23.176  23.038   7.064
 4446POPC   C4B57082  23.106  23.075   7.364
 4447POPC   NC357083   0.425  20.582   5.564
 4447POPC   PO457084   0.457  20.650   5.864
 4447POPC   GL157085   0.487  20.655   6.164
 4447POPC   GL257086   0.498  20.660   6.164
 4447POPC   C1A57087   0.470  20.615   6.464
 4447POPC   D2A57088   0.472  20.612   6.764
 4447POPC   C3A57089   0.393  20.580   7.064
 4447POPC   C4A57090   0.411  20.646   7.364
 4447POPC   C1B57091   0.546  20.798   6.464
 4447POPC   C2B57092   0.626  20.830   6.764
 4447POPC   C3B57093   0.624  20.777   7.064
 4447POPC   C4B57094   0.577  20.823   7.364
 4448POPC   NC357095  22.117  41.557   5.564
 4448POPC   PO457096  22.198  41.560   5.864
 4448POPC   GL157097  22.137  41.563   6.164
 4448POPC   GL257098  22.024  41.566   6.164
 4448POPC   C1A57099  22.192  41.555   6.464
 4448POPC   D2A57100  22.176  41.599   6.764
 4448POPC   C3A57101  22.116  41.566   7.064
 4448POPC   C4A57102  22.126  41.520   7.364
 4448POPC   C1B57103  21.874  41.632   6.464
 4448POPC   C2B57104  21.943  41.562   6.764
 4448POPC   C3B57105  21.945  41.545   7.064
 4448POPC   C4B57106  21.890  41.629   7.364
 4449POPC   NC357107  44.675  43.860   5.564
 4449POPC   PO457108  44.654  43.847   5.864
 4449POPC   GL157109  44.627  43.920   6.164
 4449POPC   GL257110  44.565  43.989   6.164
 4449POPC   C1A57111  44.669  43.935   6.464
 4449POPC   D2A57112  44.617  43.918   6.764
 4449POPC   C3A57113  44.627  43.890   7.064
 4449POPC   C4A57114  44.645  43.856   7.364
 4449POPC   C1B57115  44.539  44.137   6.464
 4449POPC   C2B57116  44.592  44.130   6.764
 4449POPC   C3B57117  44.571  44.104   7.064
 4449POPC   C4B57118  44.532  44.103   7.364
 4450POPC   NC357119   5.827   1.199   5.564
 4450POPC   PO457120   5.861   1.169   5.864
 4450POPC   GL157121   5.884   1.185   6.164
 4450POPC   GL257122   5.968   1.277   6.164
 4450POPC   C1A57123   5.870   1.203   6.464
 4450POPC   D2A57124   5.820   1.201   6.764
 4450POPC   C3A57125   5.867   1.252   7.064
 4450POPC   C4A57126   5.909   1.165   7.364
 4450POPC   C1B57127   6.019   1.390   6.464
 4450POPC   C2B57128   6.024   1.379   6.764
 4450POPC   C3B57129   6.078   1.361   7.064
 4450POPC   C4B57130   6.106   1.392   7.364
 4451POPC   NC357131  13.643   1.940   5.564
 4451POPC   PO457132  13.630   1.971   5.864
 4451POPC   GL157133  13.610   1.950   6.164
 4451POPC   GL257134  13.544   1.932   6.164
 4451POPC   C1A57135  13.656   2.019   6.464
 4451POPC   D2A57136  13.590   1.986   6.764
 4451POPC   C3A57137  13.629   2.030   7.064
 4451POPC   C4A57138  13.667   2.011   7.364
 4451POPC   C1B57139  13.407   1.878   6.464
 4451POPC   C2B57140  13.387   1.801   6.764
 4451POPC   C3B57141  13.377   1.828   7.064
 4451POPC   C4B57142  13.413   1.827   7.364
 4452POPC   NC357143   7.375  22.930   5.564
 4452POPC   PO457144   7.410  22.902   5.864
 4452POPC   GL157145   7.414  22.931   6.164
 4452POPC   GL257146   7.387  22.814   6.164
 4452POPC   C1A57147   7.391  22.905   6.464
 4452POPC   D2A57148   7.434  22.966   6.764
 4452POPC   C3A57149   7.386  22.933   7.064
 4452POPC   C4A57150   7.465  22.949   7.364
 4452POPC   C1B57151   7.327  22.736   6.464
 4452POPC   C2B57152   7.322  22.739   6.764
 4452POPC   C3B57153   7.370  22.693   7.064
 4452POPC   C4B57154   7.288  22.722   7.364
 4453POPC   NC357155   0.417  40.792   5.564
 4453POPC   PO457156   0.450  40.814   5.864
 4453POPC   GL157157   0.448  40.817   6.164
 4453POPC   GL257158   0.341  40.863   6.164
 4453POPC   C1A57159   0.397  40.787   6.464
 4453POPC   D2A57160   0.475  40.796   6.764
 4453POPC   C3A57161   0.479  40.822   7.064
 4453POPC   C4A57162   0.418  40.790   7.364
 4453POPC   C1B57163   0.310  41.000   6.464
 4453POPC   C2B57164   0.327  41.024   6.764
 4453POPC   C3B57165   0.258  40.977   7.064
 4453POPC   C4B57166   0.347  41.038   7.364
 4454POPC   NC357167   8.241  36.916   5.564
 4454POPC   PO457168   8.240  36.942   5.864
 4454POPC   GL157169   8.212  36.934   6.164
 4454POPC   GL257170   8.199  37.047   6.164
 4454POPC   C1A57171   8.150  36.861   6.464
 4454POPC   D2A57172   8.167  36.909   6.764
 4454POPC   C3A57173   8.233  36.893   7.064
 4454POPC   C4A57174   8.158  36.876   7.364
 4454POPC   C1B57175   8.172  37.134   6.464
 4454POPC   C2B57176   8.130  37.173   6.764
 4454POPC   C3B57177   8.178  37.126   7.064
 4454POPC   C4B57178   8.135  37.132   7.364
 4455POPC   NC357179  21.388  15.988   5.564
 4455POPC   PO457180  21.383  15.926   5.864
 4455POPC   GL157181  21.354  15.987   6.164
 4455POPC   GL257182  21.312  16.057   6.164
 4455POPC   C1A57183  21.409  15.976   6.464
 4455POPC   D2A57184  21.387  15.967   6.764
 4455POPC   C3A57185  21.384  15.982   7.064
 4455POPC   C4A57186  21.350  15.921   7.364
 4455POPC   C1B57187  21.200  16.134   6.464
 4455POPC   C2B57188  21.265  16.129   6.764
 4455POPC   C3B57189  21.264  16.110   7.064
 4455POPC   C4B57190  21.184  16.144   7.364
 4456POPC   NC357191  14.406  29.884   5.564
 4456POPC   PO457192  14.389  29.959   5.864
 4456POPC   GL157193  14.414  29.951   6.164
 4456POPC   GL257194  14.485  29.820   6.164
 4456POPC   C1A57195  14.362  29.935   6.464
 4456POPC   D2A57196  14.417  29.926   6.764
 4456POPC   C3A57197  14.448  29.901   7.064
 4456POPC   C4A57198  14.369  29.897   7.364
 4456POPC   C1B57199  14.611  29.796   6.464
 4456POPC   C2B57200  14.539  29.716   6.764
 4456POPC   C3B57201  14.605  29.765   7.064
 4456POPC   C4B57202  14.566  29.779   7.364
 4457POPC   NC357203  27.639   6.614   5.564
 4457POPC   PO457204  27.585   6.666   5.864
 4457POPC   GL157205  27.633   6.681   6.164
 4457POPC   GL257206  27.575   6.813   6.164
 4457POPC   C1A57207  27.586   6.640   6.464
 4457POPC   D2A57208  27.609   6.689   6.764
 4457POPC   C3A57209  27.556   6.625   7.064
 4457POPC   C4A57210  27.575   6.638   7.364
 4457POPC   C1B57211  27.561   6.904   6.464
 4457POPC   C2B57212  27.612   6.885   6.764
 4457POPC   C3B57213  27.606   6.884   7.064
 4457POPC   C4B57214  27.527   6.936   7.364
 4458POPC   NC357215  12.125  38.430   5.564
 4458POPC   PO457216  12.050  38.442   5.864
 4458POPC   GL157217  12.048  38.468   6.164
 4458POPC   GL257218  12.126  38.364   6.164
 4458POPC   C1A57219  12.034  38.500   6.464
 4458POPC   D2A57220  12.081  38.483   6.764
 4458POPC   C3A57221  12.034  38.458   7.064
 4458POPC   C4A57222  12.045  38.479   7.364
 4458POPC   C1B57223  12.055  38.218   6.464
 4458POPC   C2B57224  12.062  38.233   6.764
 4458POPC   C3B57225  12.139  38.220   7.064
 4458POPC   C4B57226  12.051  38.253   7.364
 4459POPC   NC357227  40.016  40.054   5.564
 4459POPC   PO457228  40.055  40.018   5.864
 4459POPC   GL157229  39.969  39.974   6.164
 4459POPC   GL257230  40.004  39.926   6.164
 4459POPC   C1A57231  40.018  40.036   6.464
 4459POPC   D2A57232  39.975  40.023   6.764
 4459POPC   C3A57233  39.985  40.005   7.064
 4459POPC   C4A57234  39.985  39.968   7.364
 4459POPC   C1B57235  39.905  39.737   6.464
 4459POPC   C2B57236  39.909  39.788   6.764
 4459POPC   C3B57237  39.919  39.795   7.064
 4459POPC   C4B57238  39.907  39.719   7.364
 4460POPC   NC357239   7.407  26.006   5.564
 4460POPC   PO457240   7.374  26.046   5.864
 4460POPC   GL157241   7.470  26.080   6.164
 4460POPC   GL257242   7.304  25.986   6.164
 4460POPC   C1A57243   7.442  25.995   6.464
 4460POPC   D2A57244   7.434  26.046   6.764
 4460POPC   C3A57245   7.405  26.067   7.064
 4460POPC   C4A57246   7.386  26.090   7.364
 4460POPC   C1B57247   7.246  25.907   6.464
 4460POPC   C2B57248   7.199  25.907   6.764
 4460POPC   C3B57249   7.177  25.892   7.064
 4460POPC   C4B57250   7.180  25.940   7.364
 4461POPC   NC357251   8.958  17.481   5.564
 4461POPC   PO457252   9.002  17.488   5.864
 4461POPC   GL157253   8.987  17.513   6.164
 4461POPC   GL257254   9.063  17.454   6.164
 4461POPC   C1A57255   8.928  17.472   6.464
 4461POPC   D2A57256   8.969  17.532   6.764
 4461POPC   C3A57257   8.938  17.477   7.064
 4461POPC   C4A57258   9.001  17.511   7.364
 4461POPC   C1B57259   9.179  17.426   6.464
 4461POPC   C2B57260   9.212  17.414   6.764
 4461POPC   C3B57261   9.260  17.473   7.064
 4461POPC   C4B57262   9.226  17.466   7.364
 4462POPC   NC357263  19.026  38.434   5.564
 4462POPC   PO457264  19.101  38.421   5.864
 4462POPC   GL157265  19.100  38.444   6.164
 4462POPC   GL257266  19.065  38.310   6.164
 4462POPC   C1A57267  19.009  38.495   6.464
 4462POPC   D2A57268  19.022  38.422   6.764
 4462POPC   C3A57269  19.033  38.480   7.064
 4462POPC   C4A57270  19.017  38.468   7.364
 4462POPC   C1B57271  19.178  38.273   6.464
 4462POPC   C2B57272  19.147  38.268   6.764
 4462POPC   C3B57273  19.172  38.248   7.064
 4462POPC   C4B57274  19.160  38.258   7.364
 4463POPC   NC357275  22.142  38.479   5.564
 4463POPC   PO457276  22.196  38.429   5.864
 4463POPC   GL157277  22.151  38.441   6.164
 4463POPC   GL257278  22.222  38.348   6.164
 4463POPC   C1A57279  22.142  38.459   6.464
 4463POPC   D2A57280  22.181  38.496   6.764
 4463POPC   C3A57281  22.194  38.457   7.064
 4463POPC   C4A57282  22.201  38.447   7.364
 4463POPC   C1B57283  22.222  38.207   6.464
 4463POPC   C2B57284  22.280  38.207   6.764
 4463POPC   C3B57285  22.214  38.181   7.064
 4463POPC   C4B57286  22.253  38.246   7.364
 4464POPC   NC357287   5.132  22.201   5.564
 4464POPC   PO457288   5.140  22.176   5.864
 4464POPC   GL157289   5.070  22.193   6.164
 4464POPC   GL257290   4.990  22.207   6.164
 4464POPC   C1A57291   5.127  22.165   6.464
 4464POPC   D2A57292   5.139  22.184   6.764
 4464POPC   C3A57293   5.096  22.202   7.064
 4464POPC   C4A57294   5.106  22.138   7.364
 4464POPC   C1B57295   4.911  22.380   6.464
 4464POPC   C2B57296   4.894  22.345   6.764
 4464POPC   C3B57297   4.895  22.300   7.064
 4464POPC   C4B57298   4.924  22.319   7.364
 4465POPC   NC357299   4.293   7.420   5.564
 4465POPC   PO457300   4.354   7.429   5.864
 4465POPC   GL157301   4.273   7.440   6.164
 4465POPC   GL257302   4.380   7.569   6.164
 4465POPC   C1A57303   4.354   7.398   6.464
 4465POPC   D2A57304   4.281   7.422   6.764
 4465POPC   C3A57305   4.294   7.390   7.064
 4465POPC   C4A57306   4.331   7.400   7.364
 4465POPC   C1B57307   4.382   7.688   6.464
 4465POPC   C2B57308   4.386   7.677   6.764
 4465POPC   C3B57309   4.460   7.693   7.064
 4465POPC   C4B57310   4.368   7.666   7.364
 4466POPC   NC357311   7.372  42.359   5.564
 4466POPC   PO457312   7.450  42.341   5.864
 4466POPC   GL157313   7.372  42.357   6.164
 4466POPC   GL257314   7.532  42.217   6.164
 4466POPC   C1A57315   7.442  42.318   6.464
 4466POPC   D2A57316   7.469  42.285   6.764
 4466POPC   C3A57317   7.415  42.339   7.064
 4466POPC   C4A57318   7.372  42.347   7.364
 4466POPC   C1B57319   7.579  42.150   6.464
 4466POPC   C2B57320   7.641  42.196   6.764
 4466POPC   C3B57321   7.605  42.149   7.064
 4466POPC   C4B57322   7.569  42.120   7.364
 4467POPC   NC357323   8.179  38.501   5.564
 4467POPC   PO457324   8.198  38.470   5.864
 4467POPC   GL157325   8.218  38.458   6.164
 4467POPC   GL257326   8.359  38.479   6.164
 4467POPC   C1A57327   8.198  38.471   6.464
 4467POPC   D2A57328   8.224  38.412   6.764
 4467POPC   C3A57329   8.162  38.436   7.064
 4467POPC   C4A57330   8.202  38.462   7.364
 4467POPC   C1B57331   8.421  38.567   6.464
 4467POPC   C2B57332   8.466  38.526   6.764
 4467POPC   C3B57333   8.404  38.555   7.064
 4467POPC   C4B57334   8.411  38.533   7.364
 4468POPC   NC357335  29.930  16.724   5.564
 4468POPC   PO457336  29.876  16.700   5.864
 4468POPC   GL157337  29.957  16.775   6.164
 4468POPC   GL257338  29.966  16.842   6.164
 4468POPC   C1A57339  29.883  16.692   6.464
 4468POPC   D2A57340  29.966  16.733   6.764
 4468POPC   C3A57341  29.951  16.759   7.064
 4468POPC   C4A57342  29.964  16.731   7.364
 4468POPC   C1B57343  30.012  16.917   6.464
 4468POPC   C2B57344  30.050  16.940   6.764
 4468POPC   C3B57345  30.020  16.914   7.064
 4468POPC   C4B57346  30.058  16.939   7.364
 4469POPC   NC357347  16.684  18.278   5.564
 4469POPC   PO457348  16.695  18.293   5.864
 4469POPC   GL157349  16.690  18.252   6.164
 4469POPC   GL257350  16.632  18.300   6.164
 4469POPC   C1A57351  16.710  18.255   6.464
 4469POPC   D2A57352  16.778  18.309   6.764
 4469POPC   C3A57353  16.713  18.291   7.064
 4469POPC   C4A57354  16.719  18.265   7.364
 4469POPC   C1B57355  16.483  18.440   6.464
 4469POPC   C2B57356  16.499  18.416   6.764
 4469POPC   C3B57357  16.509  18.405   7.064
 4469POPC   C4B57358  16.531  18.385   7.364
 4470POPC   NC357359  38.481   0.403   5.564
 4470POPC   PO457360  38.414   0.477   5.864
 4470POPC   GL157361  38.472   0.408   6.164
 4470POPC   GL257362  38.292   0.424   6.164
 4470POPC   C1A57363  38.458   0.462   6.464
 4470POPC   D2A57364  38.491   0.480   6.764
 4470POPC   C3A57365  38.449   0.423   7.064
 4470POPC   C4A57366  38.427   0.448   7.364
 4470POPC   C1B57367  38.161   0.364   6.464
 4470POPC   C2B57368  38.240   0.371   6.764
 4470POPC   C3B57369  38.184   0.426   7.064
 4470POPC   C4B57370  38.238   0.435   7.364
 4471POPC   NC357371  22.947  42.355   5.564
 4471POPC   PO457372  22.933  42.354   5.864
 4471POPC   GL157373  22.976  42.329   6.164
 4471POPC   GL257374  23.009  42.326   6.164
 4471POPC   C1A57375  22.900  42.378   6.464
 4471POPC   D2A57376  22.964  42.333   6.764
 4471POPC   C3A57377  22.947  42.323   7.064
 4471POPC   C4A57378  22.965  42.378   7.364
 4471POPC   C1B57379  23.201  42.218   6.464
 4471POPC   C2B57380  23.154  42.220   6.764
 4471POPC   C3B57381  23.166  42.265   7.064
 4471POPC   C4B57382  23.192  42.258   7.364
 4472POPC   NC357383  29.127  18.317   5.564
 4472POPC   PO457384  29.152  18.239   5.864
 4472POPC   GL157385  29.174  18.317   6.164
 4472POPC   GL257386  28.993  18.315   6.164
 4472POPC   C1A57387  29.120  18.233   6.464
 4472POPC   D2A57388  29.145  18.303   6.764
 4472POPC   C3A57389  29.157  18.247   7.064
 4472POPC   C4A57390  29.131  18.266   7.364
 4472POPC   C1B57391  28.866  18.254   6.464
 4472POPC   C2B57392  28.897  18.258   6.764
 4472POPC   C3B57393  28.876  18.314   7.064
 4472POPC   C4B57394  28.860  18.276   7.364
 4473POPC   NC357395   5.063  18.280   5.564
 4473POPC   PO457396   5.054  18.311   5.864
 4473POPC   GL157397   5.131  18.236   6.164
 4473POPC   GL257398   5.100  18.122   6.164
 4473POPC   C1A57399   5.133  18.278   6.464
 4473POPC   D2A57400   5.066  18.272   6.764
 4473POPC   C3A57401   5.133  18.264   7.064
 4473POPC   C4A57402   5.052  18.303   7.364
 4473POPC   C1B57403   5.113  17.998   6.464
 4473POPC   C2B57404   5.102  18.073   6.764
 4473POPC   C3B57405   5.138  17.986   7.064
 4473POPC   C4B57406   5.073  18.081   7.364
 4474POPC   NC357407  29.925  28.320   5.564
 4474POPC   PO457408  29.871  28.406   5.864
 4474POPC   GL157409  29.961  28.382   6.164
 4474POPC   GL257410  29.790  28.336   6.164
 4474POPC   C1A57411  29.930  28.361   6.464
 4474POPC   D2A57412  29.880  28.372   6.764
 4474POPC   C3A57413  29.926  28.338   7.064
 4474POPC   C4A57414  29.898  28.398   7.364
 4474POPC   C1B57415  29.672  28.342   6.464
 4474POPC   C2B57416  29.635  28.302   6.764
 4474POPC   C3B57417  29.675  28.392   7.064
 4474POPC   C4B57418  29.648  28.378   7.364
 4475POPC   NC357419  37.687  15.130   5.564
 4475POPC   PO457420  37.719  15.171   5.864
 4475POPC   GL157421  37.712  15.158   6.164
 4475POPC   GL257422  37.763  15.265   6.164
 4475POPC   C1A57423  37.706  15.151   6.464
 4475POPC   D2A57424  37.639  15.200   6.764
 4475POPC   C3A57425  37.725  15.189   7.064
 4475POPC   C4A57426  37.720  15.180   7.364
 4475POPC   C1B57427  37.832  15.432   6.464
 4475POPC   C2B57428  37.780  15.391   6.764
 4475POPC   C3B57429  37.773  15.400   7.064
 4475POPC   C4B57430  37.808  15.394   7.364
 4476POPC   NC357431  37.723  37.662   5.564
 4476POPC   PO457432  37.630  37.711   5.864
 4476POPC   GL157433  37.661  37.661   6.164
 4476POPC   GL257434  37.701  37.814   6.164
 4476POPC   C1A57435  37.679  37.649   6.464
 4476POPC   D2A57436  37.720  37.704   6.764
 4476POPC   C3A57437  37.675  37.632   7.064
 4476POPC   C4A57438  37.644  37.642   7.364
 4476POPC   C1B57439  37.794  37.914   6.464
 4476POPC   C2B57440  37.800  37.851   6.764
 4476POPC   C3B57441  37.852  37.892   7.064
 4476POPC   C4B57442  37.799  37.847   7.364
 4477POPC   NC357443  11.330  33.842   5.564
 4477POPC   PO457444  11.300  33.765   5.864
 4477POPC   GL157445  11.252  33.843   6.164
 4477POPC   GL257446  11.379  33.669   6.164
 4477POPC   C1A57447  11.305  33.757   6.464
 4477POPC   D2A57448  11.272  33.797   6.764
 4477POPC   C3A57449  11.315  33.757   7.064
 4477POPC   C4A57450  11.323  33.752   7.364
 4477POPC   C1B57451  11.536  33.632   6.464
 4477POPC   C2B57452  11.447  33.632   6.764
 4477POPC   C3B57453  11.499  33.665   7.064
 4477POPC   C4B57454  11.517  33.587   7.364
 4478POPC   NC357455  22.975  41.575   5.564
 4478POPC   PO457456  22.923  41.532   5.864
 4478POPC   GL157457  22.908  41.528   6.164
 4478POPC   GL257458  23.106  41.475   6.164
 4478POPC   C1A57459  22.948  41.600   6.464
 4478POPC   D2A57460  22.892  41.559   6.764
 4478POPC   C3A57461  22.909  41.520   7.064
 4478POPC   C4A57462  22.902  41.536   7.364
 4478POPC   C1B57463  23.162  41.464   6.464
 4478POPC   C2B57464  23.137  41.451   6.764
 4478POPC   C3B57465  23.211  41.457   7.064
 4478POPC   C4B57466  23.130  41.521   7.364
 4479POPC   NC357467   0.395  10.503   5.564
 4479POPC   PO457468   0.405  10.521   5.864
 4479POPC   GL157469   0.407  10.557   6.164
 4479POPC   GL257470   0.429  10.376   6.164
 4479POPC   C1A57471   0.433  10.557   6.464
 4479POPC   D2A57472   0.462  10.517   6.764
 4479POPC   C3A57473   0.404  10.527   7.064
 4479POPC   C4A57474   0.401  10.477   7.364
 4479POPC   C1B57475   0.338  10.263   6.464
 4479POPC   C2B57476   0.326  10.326   6.764
 4479POPC   C3B57477   0.285  10.295   7.064
 4479POPC   C4B57478   0.300  10.348   7.364
 4480POPC   NC357479  42.330  25.298   5.564
 4480POPC   PO457480  42.355  25.263   5.864
 4480POPC   GL157481  42.352  25.226   6.164
 4480POPC   GL257482  42.269  25.372   6.164
 4480POPC   C1A57483  42.341  25.265   6.464
 4480POPC   D2A57484  42.357  25.276   6.764
 4480POPC   C3A57485  42.357  25.282   7.064
 4480POPC   C4A57486  42.346  25.258   7.364
 4480POPC   C1B57487  42.119  25.445   6.464
 4480POPC   C2B57488  42.120  25.380   6.764
 4480POPC   C3B57489  42.153  25.368   7.064
 4480POPC   C4B57490  42.152  25.384   7.364
 4481POPC   NC357491  26.046  21.373   5.564
 4481POPC   PO457492  26.079  21.372   5.864
 4481POPC   GL157493  25.992  21.405   6.164
 4481POPC   GL257494  25.880  21.387   6.164
 4481POPC   C1A57495  26.037  21.411   6.464
 4481POPC   D2A57496  25.998  21.426   6.764
 4481POPC   C3A57497  26.077  21.425   7.064
 4481POPC   C4A57498  25.995  21.382   7.364
 4481POPC   C1B57499  25.769  21.278   6.464
 4481POPC   C2B57500  25.843  21.301   6.764
 4481POPC   C3B57501  25.833  21.299   7.064
 4481POPC   C4B57502  25.827  21.330   7.364
 4482POPC   NC357503  21.432   2.020   5.564
 4482POPC   PO457504  21.346   2.022   5.864
 4482POPC   GL157505  21.384   1.944   6.164
 4482POPC   GL257506  21.430   2.115   6.164
 4482POPC   C1A57507  21.412   2.012   6.464
 4482POPC   D2A57508  21.353   2.018   6.764
 4482POPC   C3A57509  21.354   1.959   7.064
 4482POPC   C4A57510  21.376   1.980   7.364
 4482POPC   C1B57511  21.452   2.219   6.464
 4482POPC   C2B57512  21.536   2.251   6.764
 4482POPC   C3B57513  21.495   2.187   7.064
 4482POPC   C4B57514  21.530   2.223   7.364
 4483POPC   NC357515  12.821  19.850   5.564
 4483POPC   PO457516  12.878  19.880   5.864
 4483POPC   GL157517  12.846  19.812   6.164
 4483POPC   GL257518  12.730  19.850   6.164
 4483POPC   C1A57519  12.818  19.842   6.464
 4483POPC   D2A57520  12.892  19.817   6.764
 4483POPC   C3A57521  12.861  19.807   7.064
 4483POPC   C4A57522  12.816  19.854   7.364
 4483POPC   C1B57523  12.594  19.853   6.464
 4483POPC   C2B57524  12.570  19.869   6.764
 4483POPC   C3B57525  12.617  19.853   7.064
 4483POPC   C4B57526  12.559  19.806   7.364
 4484POPC   NC357527  20.609  26.839   5.564
 4484POPC   PO457528  20.646  26.795   5.864
 4484POPC   GL157529  20.575  26.782   6.164
 4484POPC   GL257530  20.533  26.892   6.164
 4484POPC   C1A57531  20.594  26.783   6.464
 4484POPC   D2A57532  20.615  26.822   6.764
 4484POPC   C3A57533  20.624  26.781   7.064
 4484POPC   C4A57534  20.588  26.789   7.364
 4484POPC   C1B57535  20.425  26.868   6.464
 4484POPC   C2B57536  20.409  26.913   6.764
 4484POPC   C3B57537  20.413  26.915   7.064
 4484POPC   C4B57538  20.376  26.923   7.364
 4485POPC   NC357539  23.744  26.034   5.564
 4485POPC   PO457540  23.691  26.050   5.864
 4485POPC   GL157541  23.757  26.050   6.164
 4485POPC   GL257542  23.713  26.136   6.164
 4485POPC   C1A57543  23.670  26.028   6.464
 4485POPC   D2A57544  23.747  26.083   6.764
 4485POPC   C3A57545  23.665  26.043   7.064
 4485POPC   C4A57546  23.744  26.021   7.364
 4485POPC   C1B57547  23.720  26.299   6.464
 4485POPC   C2B57548  23.652  26.281   6.764
 4485POPC   C3B57549  23.701  26.266   7.064
 4485POPC   C4B57550  23.749  26.332   7.364
 4486POPC   NC357551   5.907  39.240   5.564
 4486POPC   PO457552   5.831  39.257   5.864
 4486POPC   GL157553   5.884  39.224   6.164
 4486POPC   GL257554   5.748  39.321   6.164
 4486POPC   C1A57555   5.892  39.218   6.464
 4486POPC   D2A57556   5.845  39.232   6.764
 4486POPC   C3A57557   5.893  39.190   7.064
 4486POPC   C4A57558   5.836  39.280   7.364
 4486POPC   C1B57559   5.684  39.336   6.464
 4486POPC   C2B57560   5.689  39.346   6.764
 4486POPC   C3B57561   5.670  39.371   7.064
 4486POPC   C4B57562   5.608  39.329   7.364
 4487POPC   NC357563  41.520  20.570   5.564
 4487POPC   PO457564  41.510  20.649   5.864
 4487POPC   GL157565  41.560  20.625   6.164
 4487POPC   GL257566  41.545  20.457   6.164
 4487POPC   C1A57567  41.524  20.624   6.464
 4487POPC   D2A57568  41.555  20.649   6.764
 4487POPC   C3A57569  41.575  20.655   7.064
 4487POPC   C4A57570  41.575  20.620   7.364
 4487POPC   C1B57571  41.558  20.361   6.464
 4487POPC   C2B57572  41.576  20.403   6.764
 4487POPC   C3B57573  41.545  20.326   7.064
 4487POPC   C4B57574  41.551  20.316   7.364
 4488POPC   NC357575  24.505  26.780   5.564
 4488POPC   PO457576  24.447  26.802   5.864
 4488POPC   GL157577  24.524  26.830   6.164
 4488POPC   GL257578  24.419  26.702   6.164
 4488POPC   C1A57579  24.509  26.862   6.464
 4488POPC   D2A57580  24.455  26.769   6.764
 4488POPC   C3A57581  24.488  26.832   7.064
 4488POPC   C4A57582  24.522  26.812   7.364
 4488POPC   C1B57583  24.325  26.649   6.464
 4488POPC   C2B57584  24.274  26.614   6.764
 4488POPC   C3B57585  24.299  26.652   7.064
 4488POPC   C4B57586  24.345  26.617   7.364
 4489POPC   NC357587  37.664  24.517   5.564
 4489POPC   PO457588  37.697  24.538   5.864
 4489POPC   GL157589  37.644  24.446   6.164
 4489POPC   GL257590  37.783  24.435   6.164
 4489POPC   C1A57591  37.684  24.448   6.464
 4489POPC   D2A57592  37.694  24.450   6.764
 4489POPC   C3A57593  37.651  24.475   7.064
 4489POPC   C4A57594  37.681  24.463   7.364
 4489POPC   C1B57595  37.853  24.343   6.464
 4489POPC   C2B57596  37.826  24.256   6.764
 4489POPC   C3B57597  37.809  24.314   7.064
 4489POPC   C4B57598  37.806  24.259   7.364
 4490POPC   NC357599   9.714  37.686   5.564
 4490POPC   PO457600   9.768  37.708   5.864
 4490POPC   GL157601   9.723  37.639   6.164
 4490POPC   GL257602   9.583  37.674   6.164
 4490POPC   C1A57603   9.737  37.725   6.464
 4490POPC   D2A57604   9.718  37.648   6.764
 4490POPC   C3A57605   9.758  37.695   7.064
 4490POPC   C4A57606   9.767  37.685   7.364
 4490POPC   C1B57607   9.504  37.692   6.464
 4490POPC   C2B57608   9.513  37.765   6.764
 4490POPC   C3B57609   9.517  37.680   7.064
 4490POPC   C4B57610   9.459  37.736   7.364
 4491POPC   NC357611  33.771   1.940   5.564
 4491POPC   PO457612  33.784   1.987   5.864
 4491POPC   GL157613  33.774   2.000   6.164
 4491POPC   GL257614  33.768   2.097   6.164
 4491POPC   C1A57615  33.821   1.983   6.464
 4491POPC   D2A57616  33.762   2.006   6.764
 4491POPC   C3A57617  33.765   1.955   7.064
 4491POPC   C4A57618  33.776   1.986   7.364
 4491POPC   C1B57619  33.778   2.247   6.464
 4491POPC   C2B57620  33.747   2.193   6.764
 4491POPC   C3B57621  33.786   2.254   7.064
 4491POPC   C4B57622  33.784   2.238   7.364
 4492POPC   NC357623  11.289   2.802   5.564
 4492POPC   PO457624  11.252   2.755   5.864
 4492POPC   GL157625  11.313   2.796   6.164
 4492POPC   GL257626  11.305   2.877   6.164
 4492POPC   C1A57627  11.330   2.763   6.464
 4492POPC   D2A57628  11.343   2.803   6.764
 4492POPC   C3A57629  11.326   2.722   7.064
 4492POPC   C4A57630  11.256   2.815   7.364
 4492POPC   C1B57631  11.363   2.961   6.464
 4492POPC   C2B57632  11.380   2.990   6.764
 4492POPC   C3B57633  11.352   3.021   7.064
 4492POPC   C4B57634  11.405   3.033   7.364
 4493POPC   NC357635  24.496  36.170   5.564
 4493POPC   PO457636  24.446  36.082   5.864
 4493POPC   GL157637  24.477  36.155   6.164
 4493POPC   GL257638  24.565  36.171   6.164
 4493POPC   C1A57639  24.509  36.137   6.464
 4493POPC   D2A57640  24.497  36.130   6.764
 4493POPC   C3A57641  24.454  36.125   7.064
 4493POPC   C4A57642  24.504  36.157   7.364
 4493POPC   C1B57643  24.753  36.215   6.464
 4493POPC   C2B57644  24.689  36.187   6.764
 4493POPC   C3B57645  24.732  36.242   7.064
 4493POPC   C4B57646  24.670  36.276   7.364
 4494POPC   NC357647   2.036  17.481   5.564
 4494POPC   PO457648   2.014  17.489   5.864
 4494POPC   GL157649   1.950  17.512   6.164
 4494POPC   GL257650   1.819  17.515   6.164
 4494POPC   C1A57651   2.004  17.496   6.464
 4494POPC   D2A57652   1.978  17.460   6.764
 4494POPC   C3A57653   1.997  17.536   7.064
 4494POPC   C4A57654   1.949  17.497   7.364
 4494POPC   C1B57655   1.760  17.520   6.464
 4494POPC   C2B57656   1.776  17.541   6.764
 4494POPC   C3B57657   1.743  17.575   7.064
 4494POPC   C4B57658   1.747  17.562   7.364
 4495POPC   NC357659  27.621  43.139   5.564
 4495POPC   PO457660  27.544  43.092   5.864
 4495POPC   GL157661  27.565  43.127   6.164
 4495POPC   GL257662  27.695  43.215   6.164
 4495POPC   C1A57663  27.637  43.100   6.464
 4495POPC   D2A57664  27.605  43.072   6.764
 4495POPC   C3A57665  27.564  43.109   7.064
 4495POPC   C4A57666  27.547  43.061   7.364
 4495POPC   C1B57667  27.675  43.348   6.464
 4495POPC   C2B57668  27.711  43.313   6.764
 4495POPC   C3B57669  27.713  43.311   7.064
 4495POPC   C4B57670  27.661  43.330   7.364
 4496POPC   NC357671  12.034  28.409   5.564
 4496POPC   PO457672  12.122  28.361   5.864
 4496POPC   GL157673  12.077  28.408   6.164
 4496POPC   GL257674  12.128  28.503   6.164
 4496POPC   C1A57675  12.101  28.329   6.464
 4496POPC   D2A57676  12.045  28.417   6.764
 4496POPC   C3A57677  12.072  28.401   7.064
 4496POPC   C4A57678  12.041  28.378   7.364
 4496POPC   C1B57679  12.200  28.565   6.464
 4496POPC   C2B57680  12.188  28.625   6.764
 4496POPC   C3B57681  12.110  28.602   7.064
 4496POPC   C4B57682  12.117  28.632   7.364
 4497POPC   NC357683  22.139  26.822   5.564
 4497POPC   PO457684  22.124  26.796   5.864
 4497POPC   GL157685  22.152  26.854   6.164
 4497POPC   GL257686  22.215  26.688   6.164
 4497POPC   C1A57687  22.171  26.849   6.464
 4497POPC   D2A57688  22.118  26.831   6.764
 4497POPC   C3A57689  22.172  26.840   7.064
 4497POPC   C4A57690  22.175  26.835   7.364
 4497POPC   C1B57691  22.258  26.595   6.464
 4497POPC   C2B57692  22.179  26.625   6.764
 4497POPC   C3B57693  22.195  26.539   7.064
 4497POPC   C4B57694  22.231  26.584   7.364
 4498POPC   NC357695  43.137   7.381   5.564
 4498POPC   PO457696  43.096   7.438   5.864
 4498POPC   GL157697  43.106   7.453   6.164
 4498POPC   GL257698  43.078   7.514   6.164
 4498POPC   C1A57699  43.152   7.405   6.464
 4498POPC   D2A57700  43.071   7.429   6.764
 4498POPC   C3A57701  43.132   7.376   7.064
 4498POPC   C4A57702  43.094   7.427   7.364
 4498POPC   C1B57703  43.131   7.634   6.464
 4498POPC   C2B57704  43.123   7.668   6.764
 4498POPC   C3B57705  43.135   7.640   7.064
 4498POPC   C4B57706  43.135   7.721   7.364
 4499POPC   NC357707  38.455  26.842   5.564
 4499POPC   PO457708  38.485  26.781   5.864
 4499POPC   GL157709  38.428  26.848   6.164
 4499POPC   GL257710  38.537  26.741   6.164
 4499POPC   C1A57711  38.469  26.857   6.464
 4499POPC   D2A57712  38.491  26.787   6.764
 4499POPC   C3A57713  38.465  26.793   7.064
 4499POPC   C4A57714  38.439  26.776   7.364
 4499POPC   C1B57715  38.510  26.532   6.464
 4499POPC   C2B57716  38.552  26.532   6.764
 4499POPC   C3B57717  38.553  26.541   7.064
 4499POPC   C4B57718  38.543  26.592   7.364
 4500POPC   NC357719  42.289  39.232   5.564
 4500POPC   PO457720  42.301  39.267   5.864
 4500POPC   GL157721  42.368  39.256   6.164
 4500POPC   GL257722  42.442  39.084   6.164
 4500POPC   C1A57723  42.349  39.278   6.464
 4500POPC   D2A57724  42.334  39.210   6.764
 4500POPC   C3A57725  42.360  39.220   7.064
 4500POPC   C4A57726  42.343  39.193   7.364
 4500POPC   C1B57727  42.460  39.069   6.464
 4500POPC   C2B57728  42.516  39.075   6.764
 4500POPC   C3B57729  42.519  39.046   7.064
 4500POPC   C4B57730  42.462  38.992   7.364
 4501POPC   NC357731  43.873  14.370   5.564
 4501POPC   PO457732  43.867  14.447   5.864
 4501POPC   GL157733  43.901  14.386   6.164
 4501POPC   GL257734  43.996  14.537   6.164
 4501POPC   C1A57735  43.862  14.358   6.464
 4501POPC   D2A57736  43.872  14.453   6.764
 4501POPC   C3A57737  43.845  14.360   7.064
 4501POPC   C4A57738  43.887  14.358   7.364
 4501POPC   C1B57739  44.040  14.649   6.464
 4501POPC   C2B57740  44.050  14.577   6.764
 4501POPC   C3B57741  44.055  14.593   7.064
 4501POPC   C4B57742  43.980  14.633   7.364
 4502POPC   NC357743  24.500  38.406   5.564
 4502POPC   PO457744  24.525  38.443   5.864
 4502POPC   GL157745  24.459  38.408   6.164
 4502POPC   GL257746  24.418  38.376   6.164
 4502POPC   C1A57747  24.490  38.444   6.464
 4502POPC   D2A57748  24.463  38.452   6.764
 4502POPC   C3A57749  24.534  38.438   7.064
 4502POPC   C4A57750  24.532  38.430   7.364
 4502POPC   C1B57751  24.267  38.307   6.464
 4502POPC   C2B57752  24.311  38.260   6.764
 4502POPC   C3B57753  24.332  38.304   7.064
 4502POPC   C4B57754  24.337  38.262   7.364
 4503POPC   NC357755   9.713  41.535   5.564
 4503POPC   PO457756   9.746  41.518   5.864
 4503POPC   GL157757   9.785  41.569   6.164
 4503POPC   GL257758   9.597  41.471   6.164
 4503POPC   C1A57759   9.716  41.541   6.464
 4503POPC   D2A57760   9.755  41.512   6.764
 4503POPC   C3A57761   9.729  41.549   7.064
 4503POPC   C4A57762   9.705  41.598   7.364
 4503POPC   C1B57763   9.559  41.399   6.464
 4503POPC   C2B57764   9.568  41.389   6.764
 4503POPC   C3B57765   9.577  41.395   7.064
 4503POPC   C4B57766   9.503  41.433   7.364
 4504POPC   NC357767  25.246   0.463   5.564
 4504POPC   PO457768  25.269   0.470   5.864
 4504POPC   GL157769  25.303   0.466   6.164
 4504POPC   GL257770  25.127   0.464   6.164
 4504POPC   C1A57771  25.233   0.445   6.464
 4504POPC   D2A57772  25.284   0.433   6.764
 4504POPC   C3A57773  25.287   0.429   7.064
 4504POPC   C4A57774  25.216   0.446   7.364
 4504POPC   C1B57775  24.989   0.452   6.464
 4504POPC   C2B57776  25.013   0.441   6.764
 4504POPC   C3B57777  25.023   0.453   7.064
 4504POPC   C4B57778  25.057   0.466   7.364
 4505POPC   NC357779  25.272   5.119   5.564
 4505POPC   PO457780  25.265   5.103   5.864
 4505POPC   GL157781  25.250   5.127   6.164
 4505POPC   GL257782  25.153   5.052   6.164
 4505POPC   C1A57783  25.300   5.072   6.464
 4505POPC   D2A57784  25.306   5.113   6.764
 4505POPC   C3A57785  25.278   5.134   7.064
 4505POPC   C4A57786  25.279   5.061   7.364
 4505POPC   C1B57787  25.026   4.943   6.464
 4505POPC   C2B57788  25.041   4.928   6.764
 4505POPC   C3B57789  25.040   4.978   7.064
 4505POPC   C4B57790  25.116   4.891   7.364
 4506POPC   NC357791   8.236   2.742   5.564
 4506POPC   PO457792   8.160   2.721   5.864
 4506POPC   GL157793   8.161   2.717   6.164
 4506POPC   GL257794   8.294   2.877   6.164
 4506POPC   C1A57795   8.159   2.811   6.464
 4506POPC   D2A57796   8.194   2.780   6.764
 4506POPC   C3A57797   8.184   2.815   7.064
 4506POPC   C4A57798   8.188   2.743   7.364
 4506POPC   C1B57799   8.303   2.996   6.464
 4506POPC   C2B57800   8.336   2.920   6.764
 4506POPC   C3B57801   8.394   2.961   7.064
 4506POPC   C4B57802   8.391   2.999   7.364
 4507POPC   NC357803  41.551   9.736   5.564
 4507POPC   PO457804  41.537   9.767   5.864
 4507POPC   GL157805  41.571   9.768   6.164
 4507POPC   GL257806  41.656   9.692   6.164
 4507POPC   C1A57807  41.586   9.766   6.464
 4507POPC   D2A57808  41.540   9.780   6.764
 4507POPC   C3A57809  41.523   9.710   7.064
 4507POPC   C4A57810  41.552   9.705   7.364
 4507POPC   C1B57811  41.755   9.624   6.464
 4507POPC   C2B57812  41.785   9.655   6.764
 4507POPC   C3B57813  41.818   9.697   7.064
 4507POPC   C4B57814  41.787   9.674   7.364
 4508POPC   NC357815  32.993   2.732   5.564
 4508POPC   PO457816  33.073   2.779   5.864
 4508POPC   GL157817  33.027   2.792   6.164
 4508POPC   GL257818  32.960   2.658   6.164
 4508POPC   C1A57819  33.034   2.785   6.464
 4508POPC   D2A57820  33.056   2.769   6.764
 4508POPC   C3A57821  33.070   2.723   7.064
 4508POPC   C4A57822  33.053   2.738   7.364
 4508POPC   C1B57823  32.813   2.635   6.464
 4508POPC   C2B57824  32.787   2.608   6.764
 4508POPC   C3B57825  32.767   2.669   7.064
 4508POPC   C4B57826  32.824   2.646   7.364
 4509POPC   NC357827  27.600  41.522   5.564
 4509POPC   PO457828  27.593  41.573   5.864
 4509POPC   GL157829  27.626  41.569   6.164
 4509POPC   GL257830  27.676  41.591   6.164
 4509POPC   C1A57831  27.633  41.607   6.464
 4509POPC   D2A57832  27.575  41.526   6.764
 4509POPC   C3A57833  27.627  41.531   7.064
 4509POPC   C4A57834  27.641  41.533   7.364
 4509POPC   C1B57835  27.777  41.755   6.464
 4509POPC   C2B57836  27.771  41.691   6.764
 4509POPC   C3B57837  27.816  41.682   7.064
 4509POPC   C4B57838  27.773  41.714   7.364
 4510POPC   NC357839  22.133  13.652   5.564
 4510POPC   PO457840  22.153  13.618   5.864
 4510POPC   GL157841  22.180  13.586   6.164
 4510POPC   GL257842  22.292  13.483   6.164
 4510POPC   C1A57843  22.197  13.626   6.464
 4510POPC   D2A57844  22.208  13.604   6.764
 4510POPC   C3A57845  22.188  13.640   7.064
 4510POPC   C4A57846  22.143  13.654   7.364
 4510POPC   C1B57847  22.287  13.401   6.464
 4510POPC   C2B57848  22.326  13.449   6.764
 4510POPC   C3B57849  22.351  13.476   7.064
 4510POPC   C4B57850  22.353  13.414   7.364
 4511POPC   NC357851   0.431   5.877   5.564
 4511POPC   PO457852   0.414   5.847   5.864
 4511POPC   GL157853   0.425   5.833   6.164
 4511POPC   GL257854   0.338   5.883   6.164
 4511POPC   C1A57855   0.465   5.870   6.464
 4511POPC   D2A57856   0.442   5.848   6.764
 4511POPC   C3A57857   0.423   5.898   7.064
 4511POPC   C4A57858   0.475   5.885   7.364
 4511POPC   C1B57859   0.159   5.900   6.464
 4511POPC   C2B57860   0.154   5.919   6.764
 4511POPC   C3B57861   0.243   5.893   7.064
 4511POPC   C4B57862   0.180   5.926   7.364
 4512POPC   NC357863   3.572   7.395   5.564
 4512POPC   PO457864   3.583   7.398   5.864
 4512POPC   GL157865   3.532   7.400   6.164
 4512POPC   GL257866   3.474   7.346   6.164
 4512POPC   C1A57867   3.584   7.416   6.464
 4512POPC   D2A57868   3.542   7.464   6.764
 4512POPC   C3A57869   3.504   7.456   7.064
 4512POPC   C4A57870   3.492   7.382   7.364
 4512POPC   C1B57871   3.403   7.210   6.464
 4512POPC   C2B57872   3.478   7.215   6.764
 4512POPC   C3B57873   3.453   7.227   7.064
 4512POPC   C4B57874   3.435   7.176   7.364
 4513POPC   NC357875  16.744   9.745   5.564
 4513POPC   PO457876  16.695   9.734   5.864
 4513POPC   GL157877  16.779   9.762   6.164
 4513POPC   GL257878  16.677   9.800   6.164
 4513POPC   C1A57879  16.696   9.765   6.464
 4513POPC   D2A57880  16.774   9.748   6.764
 4513POPC   C3A57881  16.747   9.789   7.064
 4513POPC   C4A57882  16.769   9.751   7.364
 4513POPC   C1B57883  16.525   9.931   6.464
 4513POPC   C2B57884  16.572   9.944   6.764
 4513POPC   C3B57885  16.569   9.954   7.064
 4513POPC   C4B57886  16.542   9.929   7.364
 4514POPC   NC357887  28.365  25.299   5.564
 4514POPC   PO457888  28.374  25.250   5.864
 4514POPC   GL157889  28.352  25.232   6.164
 4514POPC   GL257890  28.200  25.187   6.164
 4514POPC   C1A57891  28.406  25.285   6.464
 4514POPC   D2A57892  28.409  25.273   6.764
 4514POPC   C3A57893  28.323  25.252   7.064
 4514POPC   C4A57894  28.352  25.240   7.364
 4514POPC   C1B57895  28.108  25.236   6.464
 4514POPC   C2B57896  28.153  25.220   6.764
 4514POPC   C3B57897  28.123  25.231   7.064
 4514POPC   C4B57898  28.179  25.150   7.364
 4515POPC   NC357899   4.278  17.554   5.564
 4515POPC   PO457900   4.286  17.552   5.864
 4515POPC   GL157901   4.356  17.512   6.164
 4515POPC   GL257902   4.396  17.442   6.164
 4515POPC   C1A57903   4.357  17.538   6.464
 4515POPC   D2A57904   4.304  17.520   6.764
 4515POPC   C3A57905   4.307  17.515   7.064
 4515POPC   C4A57906   4.319  17.507   7.364
 4515POPC   C1B57907   4.537  17.412   6.464
 4515POPC   C2B57908   4.560  17.438   6.764
 4515POPC   C3B57909   4.532  17.402   7.064
 4515POPC   C4B57910   4.556  17.419   7.364
 4516POPC   NC357911  20.574   6.650   5.564
 4516POPC   PO457912  20.596   6.668   5.864
 4516POPC   GL157913  20.603   6.620   6.164
 4516POPC   GL257914  20.532   6.664   6.164
 4516POPC   C1A57915  20.630   6.654   6.464
 4516POPC   D2A57916  20.629   6.668   6.764
 4516POPC   C3A57917  20.628   6.673   7.064
 4516POPC   C4A57918  20.636   6.684   7.364
 4516POPC   C1B57919  20.406   6.616   6.464
 4516POPC   C2B57920  20.367   6.638   6.764
 4516POPC   C3B57921  20.375   6.597   7.064
 4516POPC   C4B57922  20.391   6.660   7.364
 4517POPC   NC357923  37.663  27.545   5.564
 4517POPC   PO457924  37.649  27.576   5.864
 4517POPC   GL157925  37.722  27.565   6.164
 4517POPC   GL257926  37.765  27.478   6.164
 4517POPC   C1A57927  37.725  27.623   6.464
 4517POPC   D2A57928  37.718  27.548   6.764
 4517POPC   C3A57929  37.662  27.589   7.064
 4517POPC   C4A57930  37.658  27.570   7.364
 4517POPC   C1B57931  37.826  27.435   6.464
 4517POPC   C2B57932  37.848  27.380   6.764
 4517POPC   C3B57933  37.841  27.396   7.064
 4517POPC   C4B57934  37.837  27.403   7.364
 4518POPC   NC357935  28.326  30.666   5.564
 4518POPC   PO457936  28.327  30.719   5.864
 4518POPC   GL157937  28.393  30.703   6.164
 4518POPC   GL257938  28.424  30.780   6.164
 4518POPC   C1A57939  28.330  30.676   6.464
 4518POPC   D2A57940  28.392  30.735   6.764
 4518POPC   C3A57941  28.358  30.710   7.064
 4518POPC   C4A57942  28.342  30.668   7.364
 4518POPC   C1B57943  28.607  30.860   6.464
 4518POPC   C2B57944  28.561  30.875   6.764
 4518POPC   C3B57945  28.530  30.846   7.064
 4518POPC   C4B57946  28.556  30.803   7.364
 4519POPC   NC357947  21.409  16.736   5.564
 4519POPC   PO457948  21.414  16.712   5.864
 4519POPC   GL157949  21.351  16.699   6.164
 4519POPC   GL257950  21.380  16.604   6.164
 4519POPC   C1A57951  21.361  16.688   6.464
 4519POPC   D2A57952  21.356  16.701   6.764
 4519POPC   C3A57953  21.435  16.730   7.064
 4519POPC   C4A57954  21.348  16.743   7.364
 4519POPC   C1B57955  21.295  16.509   6.464
 4519POPC   C2B57956  21.291  16.500   6.764
 4519POPC   C3B57957  21.329  16.458   7.064
 4519POPC   C4B57958  21.322  16.522   7.364
 4520POPC   NC357959  44.659  18.274   5.564
 4520POPC   PO457960  44.637  18.310   5.864
 4520POPC   GL157961  44.688  18.331   6.164
 4520POPC   GL257962  44.625  18.228   6.164
 4520POPC   C1A57963  44.638  18.264   6.464
 4520POPC   D2A57964  44.704  18.298   6.764
 4520POPC   C3A57965  44.620  18.249   7.064
 4520POPC   C4A57966  44.676  18.253   7.364
 4520POPC   C1B57967  44.503  18.087   6.464
 4520POPC   C2B57968  44.530  18.059   6.764
 4520POPC   C3B57969  44.513  18.122   7.064
 4520POPC   C4B57970  44.495  18.112   7.364
 4521POPC   NC357971  34.527  33.784   5.564
 4521POPC   PO457972  34.557  33.829   5.864
 4521POPC   GL157973  34.568  33.758   6.164
 4521POPC   GL257974  34.638  33.651   6.164
 4521POPC   C1A57975  34.531  33.787   6.464
 4521POPC   D2A57976  34.581  33.779   6.764
 4521POPC   C3A57977  34.567  33.763   7.064
 4521POPC   C4A57978  34.581  33.842   7.364
 4521POPC   C1B57979  34.717  33.619   6.464
 4521POPC   C2B57980  34.732  33.581   6.764
 4521POPC   C3B57981  34.703  33.607   7.064
 4521POPC   C4B57982  34.745  33.621   7.364
 4522POPC   NC357983   3.586   6.665   5.564
 4522POPC   PO457984   3.553   6.654   5.864
 4522POPC   GL157985   3.555   6.597   6.164
 4522POPC   GL257986   3.628   6.591   6.164
 4522POPC   C1A57987   3.524   6.661   6.464
 4522POPC   D2A57988   3.518   6.645   6.764
 4522POPC   C3A57989   3.539   6.602   7.064
 4522POPC   C4A57990   3.559   6.615   7.364
 4522POPC   C1B57991   3.724   6.470   6.464
 4522POPC   C2B57992   3.748   6.536   6.764
 4522POPC   C3B57993   3.761   6.545   7.064
 4522POPC   C4B57994   3.802   6.482   7.364
 4523POPC   NC357995  33.814  18.330   5.564
 4523POPC   PO457996  33.844  18.275   5.864
 4523POPC   GL157997  33.784  18.326   6.164
 4523POPC   GL257998  33.792  18.452   6.164
 4523POPC   C1A57999  33.783  18.300   6.464
 4523POPC   D2A58000  33.849  18.319   6.764
 4523POPC   C3A58001  33.780  18.318   7.064
 4523POPC   C4A58002  33.776  18.308   7.364
 4523POPC   C1B58003  33.813  18.544   6.464
 4523POPC   C2B58004  33.819  18.541   6.764
 4523POPC   C3B58005  33.729  18.543   7.064
 4523POPC   C4B58006  33.787  18.483   7.364
 4524POPC   NC358007  24.490  23.678   5.564
 4524POPC   PO458008  24.489  23.695   5.864
 4524POPC   GL158009  24.538  23.679   6.164
 4524POPC   GL258010  24.608  23.795   6.164
 4524POPC   C1A58011  24.514  23.717   6.464
 4524POPC   D2A58012  24.474  23.694   6.764
 4524POPC   C3A58013  24.472  23.736   7.064
 4524POPC   C4A58014  24.532  23.745   7.364
 4524POPC   C1B58015  24.678  23.878   6.464
 4524POPC   C2B58016  24.709  23.787   6.764
 4524POPC   C3B58017  24.740  23.871   7.064
 4524POPC   C4B58018  24.751  23.849   7.364
 4525POPC   NC358019  21.363  32.218   5.564
 4525POPC   PO458020  21.390  32.263   5.864
 4525POPC   GL158021  21.424  32.225   6.164
 4525POPC   GL258022  21.316  32.134   6.164
 4525POPC   C1A58023  21.394  32.266   6.464
 4525POPC   D2A58024  21.384  32.231   6.764
 4525POPC   C3A58025  21.375  32.234   7.064
 4525POPC   C4A58026  21.370  32.260   7.364
 4525POPC   C1B58027  21.242  32.006   6.464
 4525POPC   C2B58028  21.214  32.061   6.764
 4525POPC   C3B58029  21.227  32.040   7.064
 4525POPC   C4B58030  21.250  32.077   7.364
 4526POPC   NC358031   1.178  13.605   5.564
 4526POPC   PO458032   1.236  13.584   5.864
 4526POPC   GL158033   1.228  13.665   6.164
 4526POPC   GL258034   1.137  13.576   6.164
 4526POPC   C1A58035   1.225  13.626   6.464
 4526POPC   D2A58036   1.240  13.616   6.764
 4526POPC   C3A58037   1.191  13.580   7.064
 4526POPC   C4A58038   1.257  13.611   7.364
 4526POPC   C1B58039   0.970  13.595   6.464
 4526POPC   C2B58040   0.926  13.597   6.764
 4526POPC   C3B58041   0.916  13.650   7.064
 4526POPC   C4B58042   0.975  13.642   7.364
 4527POPC   NC358043  24.462   5.105   5.564
 4527POPC   PO458044  24.472   5.053   5.864
 4527POPC   GL158045  24.506   5.054   6.164
 4527POPC   GL258046  24.367   5.235   6.164
 4527POPC   C1A58047  24.507   5.108   6.464
 4527POPC   D2A58048  24.501   5.114   6.764
 4527POPC   C3A58049  24.482   5.078   7.064
 4527POPC   C4A58050  24.498   5.098   7.364
 4527POPC   C1B58051  24.339   5.249   6.464
 4527POPC   C2B58052  24.328   5.250   6.764
 4527POPC   C3B58053  24.287   5.287   7.064
 4527POPC   C4B58054  24.280   5.267   7.364
 4528POPC   NC358055  40.825  18.248   5.564
 4528POPC   PO458056  40.771  18.282   5.864
 4528POPC   GL158057  40.751  18.329   6.164
 4528POPC   GL258058  40.884  18.199   6.164
 4528POPC   C1A58059  40.751  18.246   6.464
 4528POPC   D2A58060  40.799  18.249   6.764
 4528POPC   C3A58061  40.755  18.299   7.064
 4528POPC   C4A58062  40.800  18.248   7.364
 4528POPC   C1B58063  40.986  18.116   6.464
 4528POPC   C2B58064  40.915  18.132   6.764
 4528POPC   C3B58065  40.998  18.081   7.064
 4528POPC   C4B58066  40.921  18.065   7.364
 4529POPC   NC358067   3.572  40.736   5.564
 4529POPC   PO458068   3.532  40.773   5.864
 4529POPC   GL158069   3.576  40.744   6.164
 4529POPC   GL258070   3.666  40.781   6.164
 4529POPC   C1A58071   3.569  40.754   6.464
 4529POPC   D2A58072   3.525  40.786   6.764
 4529POPC   C3A58073   3.516  40.808   7.064
 4529POPC   C4A58074   3.578  40.802   7.364
 4529POPC   C1B58075   3.791  40.658   6.464
 4529POPC   C2B58076   3.801  40.703   6.764
 4529POPC   C3B58077   3.734  40.662   7.064
 4529POPC   C4B58078   3.783  40.693   7.364
 4530POPC   NC358079  39.273   1.963   5.564
 4530POPC   PO458080  39.280   2.018   5.864
 4530POPC   GL158081  39.208   1.975   6.164
 4530POPC   GL258082  39.400   2.057   6.164
 4530POPC   C1A58083  39.243   1.972   6.464
 4530POPC   D2A58084  39.261   1.950   6.764
 4530POPC   C3A58085  39.239   1.983   7.064
 4530POPC   C4A58086  39.272   1.998   7.364
 4530POPC   C1B58087  39.519   2.014   6.464
 4530POPC   C2B58088  39.435   2.031   6.764
 4530POPC   C3B58089  39.454   2.113   7.064
 4530POPC   C4B58090  39.426   2.090   7.364
 4531POPC   NC358091  43.915  24.512   5.564
 4531POPC   PO458092  43.918  24.442   5.864
 4531POPC   GL158093  43.888  24.440   6.164
 4531POPC   GL258094  44.047  24.565   6.164
 4531POPC   C1A58095  43.875  24.524   6.464
 4531POPC   D2A58096  43.901  24.466   6.764
 4531POPC   C3A58097  43.915  24.524   7.064
 4531POPC   C4A58098  43.925  24.478   7.364
 4531POPC   C1B58099  44.161  24.599   6.464
 4531POPC   C2B58100  44.078  24.574   6.764
 4531POPC   C3B58101  44.072  24.558   7.064
 4531POPC   C4B58102  44.166  24.580   7.364
 4532POPC   NC358103  17.495  21.419   5.564
 4532POPC   PO458104  17.497  21.359   5.864
 4532POPC   GL158105  17.497  21.343   6.164
 4532POPC   GL258106  17.384  21.324   6.164
 4532POPC   C1A58107  17.490  21.399   6.464
 4532POPC   D2A58108  17.469  21.409   6.764
 4532POPC   C3A58109  17.506  21.406   7.064
 4532POPC   C4A58110  17.482  21.342   7.364
 4532POPC   C1B58111  17.214  21.351   6.464
 4532POPC   C2B58112  17.229  21.354   6.764
 4532POPC   C3B58113  17.217  21.335   7.064
 4532POPC   C4B58114  17.278  21.338   7.364
 4533POPC   NC358115   0.484  27.547   5.564
 4533POPC   PO458116   0.414  27.607   5.864
 4533POPC   GL158117   0.416  27.547   6.164
 4533POPC   GL258118   0.371  27.690   6.164
 4533POPC   C1A58119   0.398  27.593   6.464
 4533POPC   D2A58120   0.436  27.629   6.764
 4533POPC   C3A58121   0.460  27.587   7.064
 4533POPC   C4A58122   0.436  27.575   7.364
 4533POPC   C1B58123   0.374  27.795   6.464
 4533POPC   C2B58124   0.315  27.866   6.764
 4533POPC   C3B58125   0.308  27.799   7.064
 4533POPC   C4B58126   0.372  27.836   7.364
 4534POPC   NC358127  37.661  28.407   5.564
 4534POPC   PO458128  37.664  28.366   5.864
 4534POPC   GL158129  37.647  28.353   6.164
 4534POPC   GL258130  37.608  28.280   6.164
 4534POPC   C1A58131  37.647  28.365   6.464
 4534POPC   D2A58132  37.651  28.410   6.764
 4534POPC   C3A58133  37.701  28.389   7.064
 4534POPC   C4A58134  37.670  28.349   7.364
 4534POPC   C1B58135  37.479  28.205   6.464
 4534POPC   C2B58136  37.466  28.228   6.764
 4534POPC   C3B58137  37.457  28.279   7.064
 4534POPC   C4B58138  37.418  28.189   7.364
 4535POPC   NC358139  20.563  37.708   5.564
 4535POPC   PO458140  20.592  37.696   5.864
 4535POPC   GL158141  20.623  37.667   6.164
 4535POPC   GL258142  20.514  37.603   6.164
 4535POPC   C1A58143  20.647  37.659   6.464
 4535POPC   D2A58144  20.623  37.668   6.764
 4535POPC   C3A58145  20.645  37.674   7.064
 4535POPC   C4A58146  20.652  37.682   7.364
 4535POPC   C1B58147  20.425  37.501   6.464
 4535POPC   C2B58148  20.417  37.464   6.764
 4535POPC   C3B58149  20.424  37.474   7.064
 4535POPC   C4B58150  20.454  37.485   7.364
 4536POPC   NC358151  31.490  26.058   5.564
 4536POPC   PO458152  31.483  26.005   5.864
 4536POPC   GL158153  31.522  26.076   6.164
 4536POPC   GL258154  31.628  26.095   6.164
 4536POPC   C1A58155  31.438  26.066   6.464
 4536POPC   D2A58156  31.448  26.068   6.764
 4536POPC   C3A58157  31.521  26.051   7.064
 4536POPC   C4A58158  31.480  26.009   7.364
 4536POPC   C1B58159  31.709  26.120   6.464
 4536POPC   C2B58160  31.713  26.150   6.764
 4536POPC   C3B58161  31.710  26.109   7.064
 4536POPC   C4B58162  31.672  26.166   7.364
 4537POPC   NC358163  38.491  19.828   5.564
 4537POPC   PO458164  38.467  19.844   5.864
 4537POPC   GL158165  38.409  19.861   6.164
 4537POPC   GL258166  38.586  19.759   6.164
 4537POPC   C1A58167  38.424  19.806   6.464
 4537POPC   D2A58168  38.452  19.852   6.764
 4537POPC   C3A58169  38.501  19.807   7.064
 4537POPC   C4A58170  38.438  19.849   7.364
 4537POPC   C1B58171  38.709  19.752   6.464
 4537POPC   C2B58172  38.687  19.694   6.764
 4537POPC   C3B58173  38.630  19.667   7.064
 4537POPC   C4B58174  38.721  19.673   7.364
 4538POPC   NC358175   8.207  35.305   5.564
 4538POPC   PO458176   8.222  35.371   5.864
 4538POPC   GL158177   8.238  35.342   6.164
 4538POPC   GL258178   8.165  35.445   6.164
 4538POPC   C1A58179   8.237  35.325   6.464
 4538POPC   D2A58180   8.231  35.383   6.764
 4538POPC   C3A58181   8.233  35.327   7.064
 4538POPC   C4A58182   8.211  35.335   7.364
 4538POPC   C1B58183   8.179  35.591   6.464
 4538POPC   C2B58184   8.269  35.571   6.764
 4538POPC   C3B58185   8.177  35.574   7.064
 4538POPC   C4B58186   8.201  35.646   7.364
 4539POPC   NC358187   2.791   2.776   5.564
 4539POPC   PO458188   2.752   2.810   5.864
 4539POPC   GL158189   2.739   2.778   6.164
 4539POPC   GL258190   2.921   2.717   6.164
 4539POPC   C1A58191   2.738   2.805   6.464
 4539POPC   D2A58192   2.797   2.739   6.764
 4539POPC   C3A58193   2.783   2.740   7.064
 4539POPC   C4A58194   2.754   2.784   7.364
 4539POPC   C1B58195   2.938   2.618   6.464
 4539POPC   C2B58196   3.011   2.662   6.764
 4539POPC   C3B58197   2.955   2.674   7.064
 4539POPC   C4B58198   2.977   2.611   7.364
 4540POPC   NC358199  18.297  38.462   5.564
 4540POPC   PO458200  18.275  38.452   5.864
 4540POPC   GL158201  18.246  38.451   6.164
 4540POPC   GL258202  18.337  38.374   6.164
 4540POPC   C1A58203  18.253  38.445   6.464
 4540POPC   D2A58204  18.326  38.416   6.764
 4540POPC   C3A58205  18.266  38.432   7.064
 4540POPC   C4A58206  18.243  38.481   7.364
 4540POPC   C1B58207  18.499  38.307   6.464
 4540POPC   C2B58208  18.441  38.288   6.764
 4540POPC   C3B58209  18.498  38.310   7.064
 4540POPC   C4B58210  18.461  38.296   7.364
 4541POPC   NC358211  26.038   8.169   5.564
 4541POPC   PO458212  26.058   8.163   5.864
 4541POPC   GL158213  26.050   8.228   6.164
 4541POPC   GL258214  26.121   8.267   6.164
 4541POPC   C1A58215  26.077   8.231   6.464
 4541POPC   D2A58216  26.080   8.237   6.764
 4541POPC   C3A58217  25.993   8.246   7.064
 4541POPC   C4A58218  26.086   8.187   7.364
 4541POPC   C1B58219  26.248   8.338   6.464
 4541POPC   C2B58220  26.296   8.319   6.764
 4541POPC   C3B58221  26.272   8.351   7.064
 4541POPC   C4B58222  26.230   8.323   7.364
 4542POPC   NC358223  15.189  38.467   5.564
 4542POPC   PO458224  15.142  38.406   5.864
 4542POPC   GL158225  15.175  38.480   6.164
 4542POPC   GL258226  15.098  38.513   6.164
 4542POPC   C1A58227  15.147  38.488   6.464
 4542POPC   D2A58228  15.207  38.447   6.764
 4542POPC   C3A58229  15.175  38.500   7.064
 4542POPC   C4A58230  15.132  38.502   7.364
 4542POPC   C1B58231  14.961  38.437   6.464
 4542POPC   C2B58232  14.885  38.475   6.764
 4542POPC   C3B58233  14.889  38.532   7.064
 4542POPC   C4B58234  14.979  38.505   7.364
 4543POPC   NC358235  19.099   5.124   5.564
 4543POPC   PO458236  19.077   5.141   5.864
 4543POPC   GL158237  19.030   5.079   6.164
 4543POPC   GL258238  19.168   5.154   6.164
 4543POPC   C1A58239  19.014   5.071   6.464
 4543POPC   D2A58240  19.087   5.083   6.764
 4543POPC   C3A58241  19.049   5.127   7.064
 4543POPC   C4A58242  19.078   5.052   7.364
 4543POPC   C1B58243  19.159   5.337   6.464
 4543POPC   C2B58244  19.175   5.332   6.764
 4543POPC   C3B58245  19.149   5.359   7.064
 4543POPC   C4B58246  19.203   5.319   7.364
 4544POPC   NC358247  36.172  19.056   5.564
 4544POPC   PO458248  36.116  19.106   5.864
 4544POPC   GL158249  36.167  19.010   6.164
 4544POPC   GL258250  36.205  18.927   6.164
 4544POPC   C1A58251  36.149  19.082   6.464
 4544POPC   D2A58252  36.134  19.108   6.764
 4544POPC   C3A58253  36.127  19.064   7.064
 4544POPC   C4A58254  36.118  19.061   7.364
 4544POPC   C1B58255  36.210  18.792   6.464
 4544POPC   C2B58256  36.205  18.821   6.764
 4544POPC   C3B58257  36.227  18.780   7.064
 4544POPC   C4B58258  36.241  18.817   7.364
 4545POPC   NC358259  20.639  15.207   5.564
 4545POPC   PO458260  20.620  15.165   5.864
 4545POPC   GL158261  20.627  15.176   6.164
 4545POPC   GL258262  20.525  15.227   6.164
 4545POPC   C1A58263  20.659  15.172   6.464
 4545POPC   D2A58264  20.638  15.150   6.764
 4545POPC   C3A58265  20.562  15.166   7.064
 4545POPC   C4A58266  20.579  15.153   7.364
 4545POPC   C1B58267  20.349  15.286   6.464
 4545POPC   C2B58268  20.330  15.284   6.764
 4545POPC   C3B58269  20.339  15.265   7.064
 4545POPC   C4B58270  20.332  15.232   7.364
 4546POPC   NC358271   2.000  14.438   5.564
 4546POPC   PO458272   1.968  14.405   5.864
 4546POPC   GL158273   1.987  14.397   6.164
 4546POPC   GL258274   2.039  14.269   6.164
 4546POPC   C1A58275   2.017  14.392   6.464
 4546POPC   D2A58276   2.009  14.366   6.764
 4546POPC   C3A58277   1.950  14.424   7.064
 4546POPC   C4A58278   2.013  14.385   7.364
 4546POPC   C1B58279   2.092  14.197   6.464
 4546POPC   C2B58280   2.119  14.242   6.764
 4546POPC   C3B58281   2.162  14.246   7.064
 4546POPC   C4B58282   2.171  14.185   7.364
 4547POPC   NC358283  28.353   7.415   5.564
 4547POPC   PO458284  28.382   7.467   5.864
 4547POPC   GL158285  28.396   7.386   6.164
 4547POPC   GL258286  28.364   7.349   6.164
 4547POPC   C1A58287  28.385   7.423   6.464
 4547POPC   D2A58288  28.348   7.448   6.764
 4547POPC   C3A58289  28.325   7.460   7.064
 4547POPC   C4A58290  28.333   7.449   7.364
 4547POPC   C1B58291  28.246   7.193   6.464
 4547POPC   C2B58292  28.323   7.157   6.764
 4547POPC   C3B58293  28.279   7.208   7.064
 4547POPC   C4B58294  28.291   7.160   7.364
 4548POPC   NC358295   8.989  15.149   5.564
 4548POPC   PO458296   8.973  15.196   5.864
 4548POPC   GL158297   9.012  15.199   6.164
 4548POPC   GL258298   8.898  15.178   6.164
 4548POPC   C1A58299   8.986  15.184   6.464
 4548POPC   D2A58300   8.986  15.162   6.764
 4548POPC   C3A58301   8.956  15.144   7.064
 4548POPC   C4A58302   8.946  15.217   7.364
 4548POPC   C1B58303   8.753  15.276   6.464
 4548POPC   C2B58304   8.726  15.270   6.764
 4548POPC   C3B58305   8.762  15.287   7.064
 4548POPC   C4B58306   8.780  15.225   7.364
 4549POPC   NC358307  16.682  44.710   5.564
 4549POPC   PO458308  16.724  44.683   5.864
 4549POPC   GL158309  16.721  44.617   6.164
 4549POPC   GL258310  16.634  44.793   6.164
 4549POPC   C1A58311  16.746  44.693   6.464
 4549POPC   D2A58312  16.768  44.664   6.764
 4549POPC   C3A58313  16.700  44.616   7.064
 4549POPC   C4A58314  16.755  44.670   7.364
 4549POPC   C1B58315  16.562  44.814   6.464
 4549POPC   C2B58316  16.592  44.910   6.764
 4549POPC   C3B58317  16.564  44.884   7.064
 4549POPC   C4B58318  16.612  44.826   7.364
 4550POPC   NC358319  28.339  26.807   5.564
 4550POPC   PO458320  28.372  26.861   5.864
 4550POPC   GL158321  28.337  26.830   6.164
 4550POPC   GL258322  28.205  26.838   6.164
 4550POPC   C1A58323  28.344  26.785   6.464
 4550POPC   D2A58324  28.403  26.835   6.764
 4550POPC   C3A58325  28.369  26.775   7.064
 4550POPC   C4A58326  28.359  26.854   7.364
 4550POPC   C1B58327  28.073  26.867   6.464
 4550POPC   C2B58328  28.155  26.853   6.764
 4550POPC   C3B58329  28.098  26.803   7.064
 4550POPC   C4B58330  28.160  26.884   7.364
 4551POPC   NC358331   9.773   3.508   5.564
 4551POPC   PO458332   9.765   3.534   5.864
 4551POPC   GL158333   9.740   3.545   6.164
 4551POPC   GL258334   9.881   3.478   6.164
 4551POPC   C1A58335   9.710   3.504   6.464
 4551POPC   D2A58336   9.777   3.505   6.764
 4551POPC   C3A58337   9.750   3.495   7.064
 4551POPC   C4A58338   9.764   3.524   7.364
 4551POPC   C1B58339   9.894   3.354   6.464
 4551POPC   C2B58340   9.906   3.384   6.764
 4551POPC   C3B58341   9.920   3.403   7.064
 4551POPC   C4B58342   9.932   3.368   7.364
 4552POPC   NC358343  15.211   6.610   5.564
 4552POPC   PO458344  15.138   6.675   5.864
 4552POPC   GL158345  15.164   6.632   6.164
 4552POPC   GL258346  15.292   6.543   6.164
 4552POPC   C1A58347  15.153   6.664   6.464
 4552POPC   D2A58348  15.190   6.676   6.764
 4552POPC   C3A58349  15.162   6.689   7.064
 4552POPC   C4A58350  15.223   6.620   7.364
 4552POPC   C1B58351  15.294   6.419   6.464
 4552POPC   C2B58352  15.338   6.440   6.764
 4552POPC   C3B58353  15.298   6.428   7.064
 4552POPC   C4B58354  15.295   6.419   7.364
 4553POPC   NC358355   1.988   0.401   5.564
 4553POPC   PO458356   1.944   0.434   5.864
 4553POPC   GL158357   1.955   0.485   6.164
 4553POPC   GL258358   1.938   0.539   6.164
 4553POPC   C1A58359   1.991   0.440   6.464
 4553POPC   D2A58360   1.955   0.454   6.764
 4553POPC   C3A58361   2.017   0.417   7.064
 4553POPC   C4A58362   1.981   0.422   7.364
 4553POPC   C1B58363   1.832   0.623   6.464
 4553POPC   C2B58364   1.822   0.616   6.764
 4553POPC   C3B58365   1.759   0.592   7.064
 4553POPC   C4B58366   1.740   0.588   7.364
 4554POPC   NC358367  10.526  14.450   5.564
 4554POPC   PO458368  10.492  14.410   5.864
 4554POPC   GL158369  10.539  14.424   6.164
 4554POPC   GL258370  10.480  14.321   6.164
 4554POPC   C1A58371  10.539  14.425   6.464
 4554POPC   D2A58372  10.514  14.420   6.764
 4554POPC   C3A58373  10.511  14.361   7.064
 4554POPC   C4A58374  10.543  14.430   7.364
 4554POPC   C1B58375  10.379  14.196   6.464
 4554POPC   C2B58376  10.354  14.230   6.764
 4554POPC   C3B58377  10.398  14.177   7.064
 4554POPC   C4B58378  10.428  14.152   7.364
 4555POPC   NC358379   9.021   5.049   5.564
 4555POPC   PO458380   9.014   5.059   5.864
 4555POPC   GL158381   8.936   5.050   6.164
 4555POPC   GL258382   8.983   5.193   6.164
 4555POPC   C1A58383   8.995   5.140   6.464
 4555POPC   D2A58384   8.964   5.069   6.764
 4555POPC   C3A58385   8.953   5.057   7.064
 4555POPC   C4A58386   8.950   5.096   7.364
 4555POPC   C1B58387   8.986   5.382   6.464
 4555POPC   C2B58388   8.920   5.365   6.764
 4555POPC   C3B58389   8.944   5.349   7.064
 4555POPC   C4B58390   8.964   5.386   7.364
 4556POPC   NC358391   2.747  44.657   5.564
 4556POPC   PO458392   2.804  44.662   5.864
 4556POPC   GL158393   2.788  44.658   6.164
 4556POPC   GL258394   2.748  44.737   6.164
 4556POPC   C1A58395   2.787  44.657   6.464
 4556POPC   D2A58396   2.782  44.637   6.764
 4556POPC   C3A58397   2.735  44.636   7.064
 4556POPC   C4A58398   2.757  44.641   7.364
 4556POPC   C1B58399   2.681  44.849   6.464
 4556POPC   C2B58400   2.687  44.940   6.764
 4556POPC   C3B58401   2.708  44.925   7.064
 4556POPC   C4B58402   2.666  44.869   7.364
 4557POPC   NC358403  24.535  14.440   5.564
 4557POPC   PO458404  24.457  14.395   5.864
 4557POPC   GL158405  24.478  14.444   6.164
 4557POPC   GL258406  24.538  14.235   6.164
 4557POPC   C1A58407  24.487  14.365   6.464
 4557POPC   D2A58408  24.464  14.391   6.764
 4557POPC   C3A58409  24.452  14.375   7.064
 4557POPC   C4A58410  24.450  14.442   7.364
 4557POPC   C1B58411  24.517  14.171   6.464
 4557POPC   C2B58412  24.539  14.135   6.764
 4557POPC   C3B58413  24.521  14.118   7.064
 4557POPC   C4B58414  24.578  14.197   7.364
 4558POPC   NC358415  18.312  35.396   5.564
 4558POPC   PO458416  18.283  35.327   5.864
 4558POPC   GL158417  18.234  35.367   6.164
 4558POPC   GL258418  18.210  35.375   6.164
 4558POPC   C1A58419  18.235  35.312   6.464
 4558POPC   D2A58420  18.328  35.388   6.764
 4558POPC   C3A58421  18.312  35.309   7.064
 4558POPC   C4A58422  18.283  35.319   7.364
 4558POPC   C1B58423  18.037  35.460   6.464
 4558POPC   C2B58424  18.087  35.466   6.764
 4558POPC   C3B58425  18.100  35.490   7.064
 4558POPC   C4B58426  18.027  35.440   7.364
 4559POPC   NC358427   8.181   2.009   5.564
 4559POPC   PO458428   8.181   2.000   5.864
 4559POPC   GL158429   8.155   1.989   6.164
 4559POPC   GL258430   8.323   2.023   6.164
 4559POPC   C1A58431   8.236   1.996   6.464
 4559POPC   D2A58432   8.236   2.003   6.764
 4559POPC   C3A58433   8.216   2.040   7.064
 4559POPC   C4A58434   8.148   1.975   7.364
 4559POPC   C1B58435   8.424   2.021   6.464
 4559POPC   C2B58436   8.494   1.989   6.764
 4559POPC   C3B58437   8.410   1.958   7.064
 4559POPC   C4B58438   8.420   2.012   7.364
 4560POPC   NC358439  12.897  12.104   5.564
 4560POPC   PO458440  12.871  12.066   5.864
 4560POPC   GL158441  12.843  12.082   6.164
 4560POPC   GL258442  12.689  12.141   6.164
 4560POPC   C1A58443  12.806  12.053   6.464
 4560POPC   D2A58444  12.869  12.124   6.764
 4560POPC   C3A58445  12.898  12.060   7.064
 4560POPC   C4A58446  12.895  12.090   7.364
 4560POPC   C1B58447  12.666  12.188   6.464
 4560POPC   C2B58448  12.657  12.153   6.764
 4560POPC   C3B58449  12.596  12.216   7.064
 4560POPC   C4B58450  12.589  12.145   7.364
 4561POPC   NC358451  18.245  14.355   5.564
 4561POPC   PO458452  18.281  14.442   5.864
 4561POPC   GL158453  18.331  14.412   6.164
 4561POPC   GL258454  18.202  14.256   6.164
 4561POPC   C1A58455  18.297  14.404   6.464
 4561POPC   D2A58456  18.263  14.451   6.764
 4561POPC   C3A58457  18.249  14.420   7.064
 4561POPC   C4A58458  18.265  14.375   7.364
 4561POPC   C1B58459  18.268  14.202   6.464
 4561POPC   C2B58460  18.226  14.167   6.764
 4561POPC   C3B58461  18.236  14.137   7.064
 4561POPC   C4B58462  18.206  14.153   7.364
 4562POPC   NC358463  27.570  30.650   5.564
 4562POPC   PO458464  27.563  30.680   5.864
 4562POPC   GL158465  27.584  30.704   6.164
 4562POPC   GL258466  27.506  30.838   6.164
 4562POPC   C1A58467  27.582  30.737   6.464
 4562POPC   D2A58468  27.546  30.667   6.764
 4562POPC   C3A58469  27.574  30.671   7.064
 4562POPC   C4A58470  27.570  30.649   7.364
 4562POPC   C1B58471  27.547  30.957   6.464
 4562POPC   C2B58472  27.509  30.937   6.764
 4562POPC   C3B58473  27.477  30.908   7.064
 4562POPC   C4B58474  27.479  30.911   7.364
 4563POPC   NC358475   1.993  38.421   5.564
 4563POPC   PO458476   1.965  38.453   5.864
 4563POPC   GL158477   2.029  38.423   6.164
 4563POPC   GL258478   2.093  38.552   6.164
 4563POPC   C1A58479   1.994  38.442   6.464
 4563POPC   D2A58480   2.007  38.441   6.764
 4563POPC   C3A58481   2.008  38.499   7.064
 4563POPC   C4A58482   2.025  38.438   7.364
 4563POPC   C1B58483   2.178  38.677   6.464
 4563POPC   C2B58484   2.141  38.671   6.764
 4563POPC   C3B58485   2.125  38.668   7.064
 4563POPC   C4B58486   2.132  38.661   7.364
 4564POPC   NC358487  35.398  34.601   5.564
 4564POPC   PO458488  35.306  34.555   5.864
 4564POPC   GL158489  35.363  34.568   6.164
 4564POPC   GL258490  35.423  34.473   6.164
 4564POPC   C1A58491  35.339  34.553   6.464
 4564POPC   D2A58492  35.386  34.581   6.764
 4564POPC   C3A58493  35.392  34.569   7.064
 4564POPC   C4A58494  35.333  34.584   7.364
 4564POPC   C1B58495  35.560  34.435   6.464
 4564POPC   C2B58496  35.513  34.423   6.764
 4564POPC   C3B58497  35.527  34.396   7.064
 4564POPC   C4B58498  35.548  34.372   7.364
 4565POPC   NC358499  17.512   4.336   5.564
 4565POPC   PO458500  17.483   4.305   5.864
 4565POPC   GL158501  17.552   4.299   6.164
 4565POPC   GL258502  17.423   4.436   6.164
 4565POPC   C1A58503  17.490   4.278   6.464
 4565POPC   D2A58504  17.534   4.320   6.764
 4565POPC   C3A58505  17.466   4.269   7.064
 4565POPC   C4A58506  17.531   4.359   7.364
 4565POPC   C1B58507  17.419   4.512   6.464
 4565POPC   C2B58508  17.400   4.543   6.764
 4565POPC   C3B58509  17.423   4.547   7.064
 4565POPC   C4B58510  17.372   4.565   7.364
 4566POPC   NC358511  42.312  18.311   5.564
 4566POPC   PO458512  42.336  18.331   5.864
 4566POPC   GL158513  42.334  18.332   6.164
 4566POPC   GL258514  42.497  18.353   6.164
 4566POPC   C1A58515  42.370  18.239   6.464
 4566POPC   D2A58516  42.330  18.267   6.764
 4566POPC   C3A58517  42.303  18.263   7.064
 4566POPC   C4A58518  42.291  18.286   7.364
 4566POPC   C1B58519  42.522  18.349   6.464
 4566POPC   C2B58520  42.531  18.331   6.764
 4566POPC   C3B58521  42.520  18.335   7.064
 4566POPC   C4B58522  42.592  18.394   7.364
 4567POPC   NC358523  40.016  26.840   5.564
 4567POPC   PO458524  40.028  26.801   5.864
 4567POPC   GL158525  40.057  26.807   6.164
 4567POPC   GL258526  39.871  26.873   6.164
 4567POPC   C1A58527  39.965  26.825   6.464
 4567POPC   D2A58528  40.039  26.769   6.764
 4567POPC   C3A58529  40.046  26.804   7.064
 4567POPC   C4A58530  40.033  26.844   7.364
 4567POPC   C1B58531  39.851  26.985   6.464
 4567POPC   C2B58532  39.795  27.018   6.764
 4567POPC   C3B58533  39.868  26.946   7.064
 4567POPC   C4B58534  39.841  27.026   7.364
 4568POPC   NC358535  39.203  39.984   5.564
 4568POPC   PO458536  39.216  40.041   5.864
 4568POPC   GL158537  39.203  39.999   6.164
 4568POPC   GL258538  39.191  40.127   6.164
 4568POPC   C1A58539  39.220  40.044   6.464
 4568POPC   D2A58540  39.275  40.009   6.764
 4568POPC   C3A58541  39.228  39.992   7.064
 4568POPC   C4A58542  39.267  40.036   7.364
 4568POPC   C1B58543  39.262  40.223   6.464
 4568POPC   C2B58544  39.283  40.304   6.764
 4568POPC   C3B58545  39.232  40.207   7.064
 4568POPC   C4B58546  39.294  40.245   7.364
 4569POPC   NC358547  38.439  24.518   5.564
 4569POPC   PO458548  38.440  24.504   5.864
 4569POPC   GL158549  38.476  24.504   6.164
 4569POPC   GL258550  38.401  24.402   6.164
 4569POPC   C1A58551  38.413  24.481   6.464
 4569POPC   D2A58552  38.411  24.512   6.764
 4569POPC   C3A58553  38.437  24.466   7.064
 4569POPC   C4A58554  38.421  24.474   7.364
 4569POPC   C1B58555  38.219  24.396   6.464
 4569POPC   C2B58556  38.216  24.398   6.764
 4569POPC   C3B58557  38.293  24.305   7.064
 4569POPC   C4B58558  38.212  24.314   7.364
 4570POPC   NC358559   4.281  12.897   5.564
 4570POPC   PO458560   4.335  12.829   5.864
 4570POPC   GL158561   4.305  12.876   6.164
 4570POPC   GL258562   4.320  12.759   6.164
 4570POPC   C1A58563   4.293  12.860   6.464
 4570POPC   D2A58564   4.342  12.899   6.764
 4570POPC   C3A58565   4.274  12.831   7.064
 4570POPC   C4A58566   4.287  12.892   7.364
 4570POPC   C1B58567   4.380  12.585   6.464
 4570POPC   C2B58568   4.338  12.644   6.764
 4570POPC   C3B58569   4.415  12.574   7.064
 4570POPC   C4B58570   4.388  12.567   7.364
 4571POPC   NC358571   3.582  38.429   5.564
 4571POPC   PO458572   3.538  38.420   5.864
 4571POPC   GL158573   3.534  38.425   6.164
 4571POPC   GL258574   3.625  38.550   6.164
 4571POPC   C1A58575   3.550  38.485   6.464
 4571POPC   D2A58576   3.510  38.447   6.764
 4571POPC   C3A58577   3.556  38.482   7.064
 4571POPC   C4A58578   3.501  38.496   7.364
 4571POPC   C1B58579   3.672  38.654   6.464
 4571POPC   C2B58580   3.686  38.718   6.764
 4571POPC   C3B58581   3.644  38.660   7.064
 4571POPC   C4B58582   3.661  38.707   7.364
 4572POPC   NC358583  23.696   2.741   5.564
 4572POPC   PO458584  23.689   2.746   5.864
 4572POPC   GL158585  23.717   2.785   6.164
 4572POPC   GL258586  23.585   2.827   6.164
 4572POPC   C1A58587  23.722   2.716   6.464
 4572POPC   D2A58588  23.694   2.797   6.764
 4572POPC   C3A58589  23.706   2.800   7.064
 4572POPC   C4A58590  23.753   2.733   7.364
 4572POPC   C1B58591  23.467   2.873   6.464
 4572POPC   C2B58592  23.517   2.885   6.764
 4572POPC   C3B58593  23.467   2.938   7.064
 4572POPC   C4B58594  23.480   2.902   7.364
 4573POPC   NC358595  42.288   6.667   5.564
 4573POPC   PO458596  42.346   6.633   5.864
 4573POPC   GL158597  42.318   6.669   6.164
 4573POPC   GL258598  42.226   6.683   6.164
 4573POPC   C1A58599  42.299   6.673   6.464
 4573POPC   D2A58600  42.298   6.626   6.764
 4573POPC   C3A58601  42.368   6.637   7.064
 4573POPC   C4A58602  42.384   6.657   7.364
 4573POPC   C1B58603  42.076   6.767   6.464
 4573POPC   C2B58604  42.061   6.728   6.764
 4573POPC   C3B58605  42.130   6.736   7.064
 4573POPC   C4B58606  42.080   6.752   7.364
 4574POPC   NC358607  40.737  27.626   5.564
 4574POPC   PO458608  40.767  27.553   5.864
 4574POPC   GL158609  40.814  27.592   6.164
 4574POPC   GL258610  40.733  27.654   6.164
 4574POPC   C1A58611  40.792  27.597   6.464
 4574POPC   D2A58612  40.738  27.558   6.764
 4574POPC   C3A58613  40.794  27.597   7.064
 4574POPC   C4A58614  40.807  27.637   7.364
 4574POPC   C1B58615  40.653  27.768   6.464
 4574POPC   C2B58616  40.617  27.761   6.764
 4574POPC   C3B58617  40.627  27.782   7.064
 4574POPC   C4B58618  40.599  27.763   7.364
 4575POPC   NC358619  24.539  15.147   5.564
 4575POPC   PO458620  24.495  15.198   5.864
 4575POPC   GL158621  24.460  15.198   6.164
 4575POPC   GL258622  24.586  15.090   6.164
 4575POPC   C1A58623  24.525  15.151   6.464
 4575POPC   D2A58624  24.515  15.157   6.764
 4575POPC   C3A58625  24.487  15.227   7.064
 4575POPC   C4A58626  24.510  15.200   7.364
 4575POPC   C1B58627  24.685  15.009   6.464
 4575POPC   C2B58628  24.696  15.005   6.764
 4575POPC   C3B58629  24.721  15.034   7.064
 4575POPC   C4B58630  24.678  15.044   7.364
 4576POPC   NC358631  25.257  41.521   5.564
 4576POPC   PO458632  25.236  41.590   5.864
 4576POPC   GL158633  25.311  41.548   6.164
 4576POPC   GL258634  25.361  41.547   6.164
 4576POPC   C1A58635  25.293  41.585   6.464
 4576POPC   D2A58636  25.269  41.545   6.764
 4576POPC   C3A58637  25.217  41.511   7.064
 4576POPC   C4A58638  25.263  41.540   7.364
 4576POPC   C1B58639  25.537  41.567   6.464
 4576POPC   C2B58640  25.538  41.568   6.764
 4576POPC   C3B58641  25.559  41.605   7.064
 4576POPC   C4B58642  25.486  41.612   7.364
 4577POPC   NC358643  42.288  27.576   5.564
 4577POPC   PO458644  42.309  27.600   5.864
 4577POPC   GL158645  42.363  27.594   6.164
 4577POPC   GL258646  42.259  27.654   6.164
 4577POPC   C1A58647  42.303  27.612   6.464
 4577POPC   D2A58648  42.350  27.570   6.764
 4577POPC   C3A58649  42.369  27.635   7.064
 4577POPC   C4A58650  42.322  27.627   7.364
 4577POPC   C1B58651  42.139  27.705   6.464
 4577POPC   C2B58652  42.166  27.690   6.764
 4577POPC   C3B58653  42.096  27.694   7.064
 4577POPC   C4B58654  42.168  27.689   7.364
 4578POPC   NC358655  32.259  38.443   5.564
 4578POPC   PO458656  32.286  38.477   5.864
 4578POPC   GL158657  32.269  38.472   6.164
 4578POPC   GL258658  32.219  38.517   6.164
 4578POPC   C1A58659  32.247  38.465   6.464
 4578POPC   D2A58660  32.291  38.457   6.764
 4578POPC   C3A58661  32.271  38.450   7.064
 4578POPC   C4A58662  32.202  38.417   7.364
 4578POPC   C1B58663  32.127  38.646   6.464
 4578POPC   C2B58664  32.129  38.656   6.764
 4578POPC   C3B58665  32.095  38.655   7.064
 4578POPC   C4B58666  32.092  38.661   7.364
 4579POPC   NC358667  14.398   3.583   5.564
 4579POPC   PO458668  14.423   3.580   5.864
 4579POPC   GL158669  14.405   3.507   6.164
 4579POPC   GL258670  14.432   3.434   6.164
 4579POPC   C1A58671  14.385   3.540   6.464
 4579POPC   D2A58672  14.393   3.517   6.764
 4579POPC   C3A58673  14.445   3.503   7.064
 4579POPC   C4A58674  14.424   3.529   7.364
 4579POPC   C1B58675  14.518   3.349   6.464
 4579POPC   C2B58676  14.488   3.287   6.764
 4579POPC   C3B58677  14.434   3.294   7.064
 4579POPC   C4B58678  14.510   3.282   7.364
 4580POPC   NC358679  19.793  11.314   5.564
 4580POPC   PO458680  19.832  11.307   5.864
 4580POPC   GL158681  19.865  11.327   6.164
 4580POPC   GL258682  19.905  11.263   6.164
 4580POPC   C1A58683  19.833  11.257   6.464
 4580POPC   D2A58684  19.817  11.265   6.764
 4580POPC   C3A58685  19.840  11.255   7.064
 4580POPC   C4A58686  19.868  11.277   7.364
 4580POPC   C1B58687  20.032  11.208   6.464
 4580POPC   C2B58688  20.072  11.246   6.764
 4580POPC   C3B58689  20.046  11.190   7.064
 4580POPC   C4B58690  20.096  11.245   7.364
 4581POPC   NC358691  18.242  10.480   5.564
 4581POPC   PO458692  18.273  10.506   5.864
 4581POPC   GL158693  18.331  10.524   6.164
 4581POPC   GL258694  18.218  10.595   6.164
 4581POPC   C1A58695  18.286  10.496   6.464
 4581POPC   D2A58696  18.263  10.475   6.764
 4581POPC   C3A58697  18.261  10.549   7.064
 4581POPC   C4A58698  18.262  10.486   7.364
 4581POPC   C1B58699  18.185  10.772   6.464
 4581POPC   C2B58700  18.235  10.763   6.764
 4581POPC   C3B58701  18.196  10.780   7.064
 4581POPC   C4B58702  18.185  10.799   7.364
 4582POPC   NC358703  17.545  37.672   5.564
 4582POPC   PO458704  17.522  37.711   5.864
 4582POPC   GL158705  17.475  37.655   6.164
 4582POPC   GL258706  17.532  37.532   6.164
 4582POPC   C1A58707  17.479  37.724   6.464
 4582POPC   D2A58708  17.462  37.703   6.764
 4582POPC   C3A58709  17.536  37.722   7.064
 4582POPC   C4A58710  17.501  37.629   7.364
 4582POPC   C1B58711  17.483  37.408   6.464
 4582POPC   C2B58712  17.458  37.393   6.764
 4582POPC   C3B58713  17.493  37.409   7.064
 4582POPC   C4B58714  17.460  37.452   7.364
 4583POPC   NC358715  22.132  28.341   5.564
 4583POPC   PO458716  22.205  28.388   5.864
 4583POPC   GL158717  22.148  28.388   6.164
 4583POPC   GL258718  22.278  28.447   6.164
 4583POPC   C1A58719  22.154  28.357   6.464
 4583POPC   D2A58720  22.122  28.411   6.764
 4583POPC   C3A58721  22.201  28.401   7.064
 4583POPC   C4A58722  22.189  28.349   7.364
 4583POPC   C1B58723  22.327  28.577   6.464
 4583POPC   C2B58724  22.267  28.572   6.764
 4583POPC   C3B58725  22.342  28.618   7.064
 4583POPC   C4B58726  22.360  28.533   7.364
 4584POPC   NC358727  25.250  33.806   5.564
 4584POPC   PO458728  25.250  33.833   5.864
 4584POPC   GL158729  25.292  33.806   6.164
 4584POPC   GL258730  25.372  33.722   6.164
 4584POPC   C1A58731  25.253  33.761   6.464
 4584POPC   D2A58732  25.265  33.822   6.764
 4584POPC   C3A58733  25.238  33.779   7.064
 4584POPC   C4A58734  25.247  33.827   7.364
 4584POPC   C1B58735  25.405  33.606   6.464
 4584POPC   C2B58736  25.343  33.630   6.764
 4584POPC   C3B58737  25.364  33.627   7.064
 4584POPC   C4B58738  25.419  33.615   7.364
 4585POPC   NC358739  12.076  26.000   5.564
 4585POPC   PO458740  12.075  26.072   5.864
 4585POPC   GL158741  12.045  26.024   6.164
 4585POPC   GL258742  12.012  25.916   6.164
 4585POPC   C1A58743  12.090  26.025   6.464
 4585POPC   D2A58744  12.120  26.066   6.764
 4585POPC   C3A58745  12.053  26.026   7.064
 4585POPC   C4A58746  12.045  26.072   7.364
 4585POPC   C1B58747  11.885  25.818   6.464
 4585POPC   C2B58748  11.922  25.840   6.764
 4585POPC   C3B58749  11.922  25.874   7.064
 4585POPC   C4B58750  11.869  25.822   7.364
 4586POPC   NC358751  15.931  40.791   5.564
 4586POPC   PO458752  16.004  40.775   5.864
 4586POPC   GL158753  15.961  40.759   6.164
 4586POPC   GL258754  16.009  40.868   6.164
 4586POPC   C1A58755  15.954  40.778   6.464
 4586POPC   D2A58756  15.979  40.809   6.764
 4586POPC   C3A58757  15.964  40.786   7.064
 4586POPC   C4A58758  15.941  40.768   7.364
 4586POPC   C1B58759  16.005  41.082   6.464
 4586POPC   C2B58760  15.962  41.026   6.764
 4586POPC   C3B58761  15.987  41.082   7.064
 4586POPC   C4B58762  15.961  41.066   7.364
 4587POPC   NC358763  36.918  44.651   5.564
 4587POPC   PO458764  36.927  44.666   5.864
 4587POPC   GL158765  36.888  44.656   6.164
 4587POPC   GL258766  37.067  44.571   6.164
 4587POPC   C1A58767  36.867  44.697   6.464
 4587POPC   D2A58768  36.931  44.653   6.764
 4587POPC   C3A58769  36.939  44.706   7.064
 4587POPC   C4A58770  36.928  44.627   7.364
 4587POPC   C1B58771  37.103  44.602   6.464
 4587POPC   C2B58772  37.164  44.527   6.764
 4587POPC   C3B58773  37.142  44.517   7.064
 4587POPC   C4B58774  37.101  44.575   7.364
 4588POPC   NC358775  25.233  29.163   5.564
 4588POPC   PO458776  25.240  29.194   5.864
 4588POPC   GL158777  25.251  29.141   6.164
 4588POPC   GL258778  25.267  29.217   6.164
 4588POPC   C1A58779  25.247  29.165   6.464
 4588POPC   D2A58780  25.262  29.118   6.764
 4588POPC   C3A58781  25.248  29.138   7.064
 4588POPC   C4A58782  25.300  29.164   7.364
 4588POPC   C1B58783  25.297  29.404   6.464
 4588POPC   C2B58784  25.335  29.427   6.764
 4588POPC   C3B58785  25.309  29.352   7.064
 4588POPC   C4B58786  25.304  29.417   7.364
 4589POPC   NC358787  33.753   2.804   5.564
 4589POPC   PO458788  33.835   2.752   5.864
 4589POPC   GL158789  33.754   2.787   6.164
 4589POPC   GL258790  33.898   2.687   6.164
 4589POPC   C1A58791  33.813   2.750   6.464
 4589POPC   D2A58792  33.801   2.722   6.764
 4589POPC   C3A58793  33.753   2.743   7.064
 4589POPC   C4A58794  33.751   2.758   7.364
 4589POPC   C1B58795  33.918   2.524   6.464
 4589POPC   C2B58796  33.981   2.593   6.764
 4589POPC   C3B58797  33.956   2.524   7.064
 4589POPC   C4B58798  33.940   2.524   7.364
 4590POPC   NC358799   2.728  12.882   5.564
 4590POPC   PO458800   2.753  12.891   5.864
 4590POPC   GL158801   2.771  12.882   6.164
 4590POPC   GL258802   2.783  12.967   6.164
 4590POPC   C1A58803   2.790  12.845   6.464
 4590POPC   D2A58804   2.773  12.840   6.764
 4590POPC   C3A58805   2.804  12.853   7.064
 4590POPC   C4A58806   2.744  12.867   7.364
 4590POPC   C1B58807   2.700  13.139   6.464
 4590POPC   C2B58808   2.721  13.107   6.764
 4590POPC   C3B58809   2.655  13.123   7.064
 4590POPC   C4B58810   2.749  13.094   7.364
 4591POPC   NC358811   0.398  41.602   5.564
 4591POPC   PO458812   0.465  41.592   5.864
 4591POPC   GL158813   0.408  41.563   6.164
 4591POPC   GL258814   0.450  41.635   6.164
 4591POPC   C1A58815   0.411  41.525   6.464
 4591POPC   D2A58816   0.445  41.556   6.764
 4591POPC   C3A58817   0.422  41.593   7.064
 4591POPC   C4A58818   0.390  41.523   7.364
 4591POPC   C1B58819   0.438  41.804   6.464
 4591POPC   C2B58820   0.365  41.823   6.764
 4591POPC   C3B58821   0.378  41.808   7.064
 4591POPC   C4B58822   0.450  41.833   7.364
 4592POPC   NC358823  14.416  39.247   5.564
 4592POPC   PO458824  14.435  39.197   5.864
 4592POPC   GL158825  14.451  39.256   6.164
 4592POPC   GL258826  14.554  39.262   6.164
 4592POPC   C1A58827  14.381  39.235   6.464
 4592POPC   D2A58828  14.357  39.207   6.764
 4592POPC   C3A58829  14.396  39.186   7.064
 4592POPC   C4A58830  14.366  39.259   7.364
 4592POPC   C1B58831  14.617  39.376   6.464
 4592POPC   C2B58832  14.615  39.380   6.764
 4592POPC   C3B58833  14.589  39.381   7.064
 4592POPC   C4B58834  14.625  39.307   7.364
 4593POPC   NC358835   1.240   6.601   5.564
 4593POPC   PO458836   1.258   6.695   5.864
 4593POPC   GL158837   1.206   6.669   6.164
 4593POPC   GL258838   1.132   6.588   6.164
 4593POPC   C1A58839   1.185   6.675   6.464
 4593POPC   D2A58840   1.242   6.603   6.764
 4593POPC   C3A58841   1.164   6.680   7.064
 4593POPC   C4A58842   1.256   6.641   7.364
 4593POPC   C1B58843   0.969   6.489   6.464
 4593POPC   C2B58844   1.055   6.538   6.764
 4593POPC   C3B58845   0.968   6.505   7.064
 4593POPC   C4B58846   0.960   6.478   7.364
 4594POPC   NC358847  29.957  41.587   5.564
 4594POPC   PO458848  29.931  41.590   5.864
 4594POPC   GL158849  29.879  41.533   6.164
 4594POPC   GL258850  30.021  41.594   6.164
 4594POPC   C1A58851  29.962  41.509   6.464
 4594POPC   D2A58852  29.948  41.532   6.764
 4594POPC   C3A58853  29.965  41.527   7.064
 4594POPC   C4A58854  29.876  41.605   7.364
 4594POPC   C1B58855  30.128  41.614   6.464
 4594POPC   C2B58856  30.113  41.690   6.764
 4594POPC   C3B58857  30.126  41.605   7.064
 4594POPC   C4B58858  30.132  41.666   7.364
 4595POPC   NC358859  12.831  44.647   5.564
 4595POPC   PO458860  12.818  44.710   5.864
 4595POPC   GL158861  12.844  44.642   6.164
 4595POPC   GL258862  12.952  44.796   6.164
 4595POPC   C1A58863  12.892  44.636   6.464
 4595POPC   D2A58864  12.893  44.702   6.764
 4595POPC   C3A58865  12.847  44.669   7.064
 4595POPC   C4A58866  12.861  44.660   7.364
 4595POPC   C1B58867  13.032  44.839   6.464
 4595POPC   C2B58868  13.006  44.870   6.764
 4595POPC   C3B58869  12.999  44.827   7.064
 4595POPC   C4B58870  13.028  44.880   7.364
 4596POPC   NC358871  41.576  40.056   5.564
 4596POPC   PO458872  41.529  39.984   5.864
 4596POPC   GL158873  41.518  40.051   6.164
 4596POPC   GL258874  41.450  39.874   6.164
 4596POPC   C1A58875  41.570  39.979   6.464
 4596POPC   D2A58876  41.535  40.054   6.764
 4596POPC   C3A58877  41.543  39.988   7.064
 4596POPC   C4A58878  41.510  39.978   7.364
 4596POPC   C1B58879  41.403  39.817   6.464
 4596POPC   C2B58880  41.395  39.839   6.764
 4596POPC   C3B58881  41.446  39.839   7.064
 4596POPC   C4B58882  41.368  39.783   7.364
 4597POPC   NC358883  37.663  36.914   5.564
 4597POPC   PO458884  37.640  36.881   5.864
 4597POPC   GL158885  37.636  36.875   6.164
 4597POPC   GL258886  37.595  36.981   6.164
 4597POPC   C1A58887  37.724  36.899   6.464
 4597POPC   D2A58888  37.685  36.869   6.764
 4597POPC   C3A58889  37.630  36.917   7.064
 4597POPC   C4A58890  37.675  36.927   7.364
 4597POPC   C1B58891  37.459  37.067   6.464
 4597POPC   C2B58892  37.451  37.028   6.764
 4597POPC   C3B58893  37.474  37.031   7.064
 4597POPC   C4B58894  37.504  37.087   7.364
 4598POPC   NC358895  42.355  40.010   5.564
 4598POPC   PO458896  42.354  39.977   5.864
 4598POPC   GL158897  42.304  40.023   6.164
 4598POPC   GL258898  42.371  39.916   6.164
 4598POPC   C1A58899  42.351  39.965   6.464
 4598POPC   D2A58900  42.382  40.003   6.764
 4598POPC   C3A58901  42.356  39.973   7.064
 4598POPC   C4A58902  42.381  40.040   7.364
 4598POPC   C1B58903  42.363  39.748   6.464
 4598POPC   C2B58904  42.357  39.709   6.764
 4598POPC   C3B58905  42.300  39.712   7.064
 4598POPC   C4B58906  42.310  39.747   7.364
 4599POPC   NC358907  36.102  24.521   5.564
 4599POPC   PO458908  36.141  24.531   5.864
 4599POPC   GL158909  36.157  24.467   6.164
 4599POPC   GL258910  36.248  24.531   6.164
 4599POPC   C1A58911  36.100  24.501   6.464
 4599POPC   D2A58912  36.078  24.500   6.764
 4599POPC   C3A58913  36.129  24.508   7.064
 4599POPC   C4A58914  36.112  24.461   7.364
 4599POPC   C1B58915  36.334  24.568   6.464
 4599POPC   C2B58916  36.406  24.524   6.764
 4599POPC   C3B58917  36.330  24.530   7.064
 4599POPC   C4B58918  36.377  24.562   7.364
 4600POPC   NC358919  38.479  31.449   5.564
 4600POPC   PO458920  38.428  31.472   5.864
 4600POPC   GL158921  38.468  31.466   6.164
 4600POPC   GL258922  38.609  31.536   6.164
 4600POPC   C1A58923  38.416  31.511   6.464
 4600POPC   D2A58924  38.425  31.449   6.764
 4600POPC   C3A58925  38.469  31.455   7.064
 4600POPC   C4A58926  38.431  31.473   7.364
 4600POPC   C1B58927  38.692  31.523   6.464
 4600POPC   C2B58928  38.669  31.508   6.764
 4600POPC   C3B58929  38.700  31.456   7.064
 4600POPC   C4B58930  38.705  31.536   7.364
 4601POPC   NC358931   8.244  26.839   5.564
 4601POPC   PO458932   8.242  26.772   5.864
 4601POPC   GL158933   8.156  26.772   6.164
 4601POPC   GL258934   8.272  26.914   6.164
 4601POPC   C1A58935   8.219  26.811   6.464
 4601POPC   D2A58936   8.223  26.818   6.764
 4601POPC   C3A58937   8.186  26.821   7.064
 4601POPC   C4A58938   8.239  26.828   7.364
 4601POPC   C1B58939   8.460  26.882   6.464
 4601POPC   C2B58940   8.427  26.881   6.764
 4601POPC   C3B58941   8.435  26.952   7.064
 4601POPC   C4B58942   8.450  26.933   7.364
 4602POPC   NC358943  18.269  42.325   5.564
 4602POPC   PO458944  18.312  42.298   5.864
 4602POPC   GL158945  18.315  42.328   6.164
 4602POPC   GL258946  18.366  42.369   6.164
 4602POPC   C1A58947  18.290  42.296   6.464
 4602POPC   D2A58948  18.278  42.320   6.764
 4602POPC   C3A58949  18.236  42.309   7.064
 4602POPC   C4A58950  18.270  42.360   7.364
 4602POPC   C1B58951  18.503  42.328   6.464
 4602POPC   C2B58952  18.578  42.352   6.764
 4602POPC   C3B58953  18.534  42.410   7.064
 4602POPC   C4B58954  18.549  42.317   7.364
 4603POPC   NC358955  37.655  44.626   5.564
 4603POPC   PO458956  37.697  44.708   5.864
 4603POPC   GL158957  37.658  44.619   6.164
 4603POPC   GL258958  37.779  44.596   6.164
 4603POPC   C1A58959  37.640  44.651   6.464
 4603POPC   D2A58960  37.636  44.650   6.764
 4603POPC   C3A58961  37.717  44.663   7.064
 4603POPC   C4A58962  37.685  44.647   7.364
 4603POPC   C1B58963  37.886  44.585   6.464
 4603POPC   C2B58964  37.875  44.600   6.764
 4603POPC   C3B58965  37.908  44.579   7.064
 4603POPC   C4B58966  37.893  44.538   7.364
 4604POPC   NC358967  23.682  17.459   5.564
 4604POPC   PO458968  23.714  17.532   5.864
 4604POPC   GL158969  23.756  17.483   6.164
 4604POPC   GL258970  23.660  17.461   6.164
 4604POPC   C1A58971  23.685  17.474   6.464
 4604POPC   D2A58972  23.682  17.535   6.764
 4604POPC   C3A58973  23.744  17.522   7.064
 4604POPC   C4A58974  23.686  17.478   7.364
 4604POPC   C1B58975  23.524  17.342   6.464
 4604POPC   C2B58976  23.505  17.273   6.764
 4604POPC   C3B58977  23.586  17.304   7.064
 4604POPC   C4B58978  23.579  17.277   7.364
 4605POPC   NC358979   4.319  13.599   5.564
 4605POPC   PO458980   4.365  13.639   5.864
 4605POPC   GL158981   4.271  13.586   6.164
 4605POPC   GL258982   4.428  13.594   6.164
 4605POPC   C1A58983   4.278  13.630   6.464
 4605POPC   D2A58984   4.346  13.640   6.764
 4605POPC   C3A58985   4.305  13.629   7.064
 4605POPC   C4A58986   4.308  13.639   7.364
 4605POPC   C1B58987   4.589  13.677   6.464
 4605POPC   C2B58988   4.597  13.680   6.764
 4605POPC   C3B58989   4.525  13.697   7.064
 4605POPC   C4B58990   4.567  13.695   7.364
 4606POPC   NC358991   6.674  36.142   5.564
 4606POPC   PO458992   6.650  36.164   5.864
 4606POPC   GL158993   6.664  36.131   6.164
 4606POPC   GL258994   6.617  36.278   6.164
 4606POPC   C1A58995   6.667  36.113   6.464
 4606POPC   D2A58996   6.623  36.156   6.764
 4606POPC   C3A58997   6.656  36.085   7.064
 4606POPC   C4A58998   6.606  36.172   7.364
 4606POPC   C1B58999   6.543  36.352   6.464
 4606POPC   C2B59000   6.579  36.345   6.764
 4606POPC   C3B59001   6.532  36.367   7.064
 4606POPC   C4B59002   6.623  36.388   7.364
 4607POPC   NC359003  19.056  14.389   5.564
 4607POPC   PO459004  19.055  14.441   5.864
 4607POPC   GL159005  19.057  14.388   6.164
 4607POPC   GL259006  19.189  14.390   6.164
 4607POPC   C1A59007  19.103  14.365   6.464
 4607POPC   D2A59008  19.048  14.395   6.764
 4607POPC   C3A59009  19.072  14.422   7.064
 4607POPC   C4A59010  19.071  14.360   7.364
 4607POPC   C1B59011  19.317  14.397   6.464
 4607POPC   C2B59012  19.293  14.438   6.764
 4607POPC   C3B59013  19.346  14.381   7.064
 4607POPC   C4B59014  19.315  14.419   7.364
 4608POPC   NC359015  36.090  14.368   5.564
 4608POPC   PO459016  36.158  14.429   5.864
 4608POPC   GL159017  36.109  14.415   6.164
 4608POPC   GL259018  36.030  14.478   6.164
 4608POPC   C1A59019  36.122  14.413   6.464
 4608POPC   D2A59020  36.129  14.418   6.764
 4608POPC   C3A59021  36.103  14.380   7.064
 4608POPC   C4A59022  36.127  14.412   7.364
 4608POPC   C1B59023  35.981  14.596   6.464
 4608POPC   C2B59024  36.014  14.592   6.764
 4608POPC   C3B59025  36.041  14.633   7.064
 4608POPC   C4B59026  35.962  14.612   7.364
 4609POPC   NC359027  22.118  39.184   5.564
 4609POPC   PO459028  22.136  39.218   5.864
 4609POPC   GL159029  22.168  39.220   6.164
 4609POPC   GL259030  22.020  39.313   6.164
 4609POPC   C1A59031  22.135  39.255   6.464
 4609POPC   D2A59032  22.131  39.196   6.764
 4609POPC   C3A59033  22.128  39.182   7.064
 4609POPC   C4A59034  22.160  39.211   7.364
 4609POPC   C1B59035  21.956  39.304   6.464
 4609POPC   C2B59036  21.892  39.380   6.764
 4609POPC   C3B59037  21.955  39.344   7.064
 4609POPC   C4B59038  21.896  39.341   7.364
 4610POPC   NC359039  25.259  23.733   5.564
 4610POPC   PO459040  25.226  23.713   5.864
 4610POPC   GL159041  25.269  23.692   6.164
 4610POPC   GL259042  25.215  23.620   6.164
 4610POPC   C1A59043  25.304  23.691   6.464
 4610POPC   D2A59044  25.252  23.728   6.764
 4610POPC   C3A59045  25.253  23.711   7.064
 4610POPC   C4A59046  25.267  23.761   7.364
 4610POPC   C1B59047  25.113  23.516   6.464
 4610POPC   C2B59048  25.078  23.524   6.764
 4610POPC   C3B59049  25.123  23.531   7.064
 4610POPC   C4B59050  25.066  23.567   7.364
 4611POPC   NC359051  16.767  42.365   5.564
 4611POPC   PO459052  16.705  42.285   5.864
 4611POPC   GL159053  16.718  42.330   6.164
 4611POPC   GL259054  16.804  42.431   6.164
 4611POPC   C1A59055  16.779  42.367   6.464
 4611POPC   D2A59056  16.772  42.296   6.764
 4611POPC   C3A59057  16.709  42.384   7.064
 4611POPC   C4A59058  16.716  42.290   7.364
 4611POPC   C1B59059  16.918  42.463   6.464
 4611POPC   C2B59060  16.982  42.459   6.764
 4611POPC   C3B59061  16.945  42.480   7.064
 4611POPC   C4B59062  16.934  42.468   7.364
 4612POPC   NC359063   0.401  35.308   5.564
 4612POPC   PO459064   0.405  35.318   5.864
 4612POPC   GL159065   0.423  35.315   6.164
 4612POPC   GL259066   0.347  35.340   6.164
 4612POPC   C1A59067   0.477  35.378   6.464
 4612POPC   D2A59068   0.447  35.351   6.764
 4612POPC   C3A59069   0.486  35.364   7.064
 4612POPC   C4A59070   0.398  35.398   7.364
 4612POPC   C1B59071   0.196  35.334   6.464
 4612POPC   C2B59072   0.151  35.341   6.764
 4612POPC   C3B59073   0.160  35.354   7.064
 4612POPC   C4B59074   0.155  35.330   7.364
 4613POPC   NC359075  14.359   1.168   5.564
 4613POPC   PO459076  14.384   1.198   5.864
 4613POPC   GL159077  14.427   1.262   6.164
 4613POPC   GL259078  14.417   1.363   6.164
 4613POPC   C1A59079  14.435   1.246   6.464
 4613POPC   D2A59080  14.358   1.205   6.764
 4613POPC   C3A59081  14.398   1.213   7.064
 4613POPC   C4A59082  14.428   1.171   7.364
 4613POPC   C1B59083  14.538   1.396   6.464
 4613POPC   C2B59084  14.488   1.425   6.764
 4613POPC   C3B59085  14.517   1.396   7.064
 4613POPC   C4B59086  14.530   1.481   7.364
 4614POPC   NC359087   2.761  33.783   5.564
 4614POPC   PO459088   2.726  33.793   5.864
 4614POPC   GL159089   2.788  33.766   6.164
 4614POPC   GL259090   2.613  33.807   6.164
 4614POPC   C1A59091   2.776  33.832   6.464
 4614POPC   D2A59092   2.776  33.799   6.764
 4614POPC   C3A59093   2.747  33.805   7.064
 4614POPC   C4A59094   2.731  33.830   7.364
 4614POPC   C1B59095   2.477  33.848   6.464
 4614POPC   C2B59096   2.565  33.875   6.764
 4614POPC   C3B59097   2.493  33.893   7.064
 4614POPC   C4B59098   2.526  33.830   7.364
 4615POPC   NC359099   6.653  37.726   5.564
 4615POPC   PO459100   6.686  37.644   5.864
 4615POPC   GL159101   6.665  37.713   6.164
 4615POPC   GL259102   6.565  37.715   6.164
 4615POPC   C1A59103   6.654  37.716   6.464
 4615POPC   D2A59104   6.641  37.718   6.764
 4615POPC   C3A59105   6.625  37.709   7.064
 4615POPC   C4A59106   6.615  37.717   7.364
 4615POPC   C1B59107   6.417  37.770   6.464
 4615POPC   C2B59108   6.430  37.824   6.764
 4615POPC   C3B59109   6.391  37.775   7.064
 4615POPC   C4B59110   6.428  37.771   7.364
 4616POPC   NC359111  38.408   1.202   5.564
 4616POPC   PO459112  38.466   1.230   5.864
 4616POPC   GL159113  38.418   1.204   6.164
 4616POPC   GL259114  38.513   1.082   6.164
 4616POPC   C1A59115  38.498   1.171   6.464
 4616POPC   D2A59116  38.483   1.239   6.764
 4616POPC   C3A59117  38.502   1.225   7.064
 4616POPC   C4A59118  38.436   1.188   7.364
 4616POPC   C1B59119  38.506   0.969   6.464
 4616POPC   C2B59120  38.566   0.983   6.764
 4616POPC   C3B59121  38.543   0.954   7.064
 4616POPC   C4B59122  38.520   0.941   7.364
 4617POPC   NC359123   9.733  16.689   5.564
 4617POPC   PO459124   9.735  16.776   5.864
 4617POPC   GL159125   9.731  16.712   6.164
 4617POPC   GL259126   9.787  16.782   6.164
 4617POPC   C1A59127   9.727  16.776   6.464
 4617POPC   D2A59128   9.754  16.681   6.764
 4617POPC   C3A59129   9.706  16.739   7.064
 4617POPC   C4A59130   9.784  16.734   7.364
 4617POPC   C1B59131   9.939  16.947   6.464
 4617POPC   C2B59132   9.912  16.873   6.764
 4617POPC   C3B59133   9.907  16.966   7.064
 4617POPC   C4B59134   9.928  16.891   7.364
 4618POPC   NC359135  34.582  19.837   5.564
 4618POPC   PO459136  34.602  19.845   5.864
 4618POPC   GL159137  34.552  19.846   6.164
 4618POPC   GL259138  34.601  19.974   6.164
 4618POPC   C1A59139  34.578  19.838   6.464
 4618POPC   D2A59140  34.619  19.863   6.764
 4618POPC   C3A59141  34.617  19.799   7.064
 4618POPC   C4A59142  34.591  19.879   7.364
 4618POPC   C1B59143  34.577  20.040   6.464
 4618POPC   C2B59144  34.545  20.120   6.764
 4618POPC   C3B59145  34.624  20.078   7.064
 4618POPC   C4B59146  34.547  20.034   7.364
 4619POPC   NC359147   1.983  26.802   5.564
 4619POPC   PO459148   1.982  26.841   5.864
 4619POPC   GL159149   1.951  26.851   6.164
 4619POPC   GL259150   1.919  26.708   6.164
 4619POPC   C1A59151   2.020  26.864   6.464
 4619POPC   D2A59152   2.030  26.813   6.764
 4619POPC   C3A59153   1.980  26.794   7.064
 4619POPC   C4A59154   2.020  26.797   7.364
 4619POPC   C1B59155   1.820  26.664   6.464
 4619POPC   C2B59156   1.840  26.648   6.764
 4619POPC   C3B59157   1.782  26.645   7.064
 4619POPC   C4B59158   1.814  26.662   7.364
 4620POPC   NC359159   2.812  40.021   5.564
 4620POPC   PO459160   2.721  40.055   5.864
 4620POPC   GL159161   2.725  39.977   6.164
 4620POPC   GL259162   2.795  40.159   6.164
 4620POPC   C1A59163   2.730  40.020   6.464
 4620POPC   D2A59164   2.747  40.055   6.764
 4620POPC   C3A59165   2.746  39.978   7.064
 4620POPC   C4A59166   2.752  40.046   7.364
 4620POPC   C1B59167   2.810  40.218   6.464
 4620POPC   C2B59168   2.826  40.261   6.764
 4620POPC   C3B59169   2.805  40.208   7.064
 4620POPC   C4B59170   2.795  40.267   7.364
 4621POPC   NC359171  15.213  22.953   5.564
 4621POPC   PO459172  15.142  22.957   5.864
 4621POPC   GL159173  15.174  22.975   6.164
 4621POPC   GL259174  15.224  22.976   6.164
 4621POPC   C1A59175  15.227  22.949   6.464
 4621POPC   D2A59176  15.156  22.911   6.764
 4621POPC   C3A59177  15.159  22.910   7.064
 4621POPC   C4A59178  15.217  22.915   7.364
 4621POPC   C1B59179  15.346  23.104   6.464
 4621POPC   C2B59180  15.361  23.149   6.764
 4621POPC   C3B59181  15.357  23.123   7.064
 4621POPC   C4B59182  15.366  23.155   7.364
 4622POPC   NC359183   1.196  36.927   5.564
 4622POPC   PO459184   1.196  36.889   5.864
 4622POPC   GL159185   1.201  36.947   6.164
 4622POPC   GL259186   1.291  36.981   6.164
 4622POPC   C1A59187   1.182  36.881   6.464
 4622POPC   D2A59188   1.222  36.866   6.764
 4622POPC   C3A59189   1.232  36.940   7.064
 4622POPC   C4A59190   1.166  36.872   7.364
 4622POPC   C1B59191   1.397  37.030   6.464
 4622POPC   C2B59192   1.444  37.040   6.764
 4622POPC   C3B59193   1.478  37.020   7.064
 4622POPC   C4B59194   1.447  37.030   7.364
 4623POPC   NC359195  17.537  19.799   5.564
 4623POPC   PO459196  17.506  19.855   5.864
 4623POPC   GL159197  17.538  19.826   6.164
 4623POPC   GL259198  17.480  19.954   6.164
 4623POPC   C1A59199  17.513  19.800   6.464
 4623POPC   D2A59200  17.461  19.824   6.764
 4623POPC   C3A59201  17.511  19.797   7.064
 4623POPC   C4A59202  17.493  19.825   7.364
 4623POPC   C1B59203  17.538  20.085   6.464
 4623POPC   C2B59204  17.536  20.090   6.764
 4623POPC   C3B59205  17.493  20.053   7.064
 4623POPC   C4B59206  17.493  20.037   7.364
 4624POPC   NC359207  19.095  32.990   5.564
 4624POPC   PO459208  19.049  33.039   5.864
 4624POPC   GL159209  19.104  33.026   6.164
 4624POPC   GL259210  19.192  32.929   6.164
 4624POPC   C1A59211  19.062  33.053   6.464
 4624POPC   D2A59212  19.023  33.053   6.764
 4624POPC   C3A59213  19.031  33.024   7.064
 4624POPC   C4A59214  19.021  33.031   7.364
 4624POPC   C1B59215  19.299  32.870   6.464
 4624POPC   C2B59216  19.228  32.885   6.764
 4624POPC   C3B59217  19.278  32.916   7.064
 4624POPC   C4B59218  19.223  32.915   7.364
 4625POPC   NC359219   2.003   4.273   5.564
 4625POPC   PO459220   1.946   4.344   5.864
 4625POPC   GL159221   1.998   4.326   6.164
 4625POPC   GL259222   2.096   4.374   6.164
 4625POPC   C1A59223   1.954   4.310   6.464
 4625POPC   D2A59224   1.952   4.278   6.764
 4625POPC   C3A59225   2.010   4.302   7.064
 4625POPC   C4A59226   2.027   4.355   7.364
 4625POPC   C1B59227   2.189   4.397   6.464
 4625POPC   C2B59228   2.190   4.380   6.764
 4625POPC   C3B59229   2.218   4.369   7.064
 4625POPC   C4B59230   2.239   4.347   7.364
 4626POPC   NC359231  35.338   7.467   5.564
 4626POPC   PO459232  35.325   7.468   5.864
 4626POPC   GL159233  35.364   7.408   6.164
 4626POPC   GL259234  35.439   7.307   6.164
 4626POPC   C1A59235  35.361   7.386   6.464
 4626POPC   D2A59236  35.363   7.467   6.764
 4626POPC   C3A59237  35.378   7.444   7.064
 4626POPC   C4A59238  35.376   7.447   7.364
 4626POPC   C1B59239  35.406   7.180   6.464
 4626POPC   C2B59240  35.486   7.234   6.764
 4626POPC   C3B59241  35.450   7.212   7.064
 4626POPC   C4B59242  35.439   7.171   7.364
 4627POPC   NC359243  22.175  35.381   5.564
 4627POPC   PO459244  22.167  35.364   5.864
 4627POPC   GL159245  22.160  35.364   6.164
 4627POPC   GL259246  22.198  35.431   6.164
 4627POPC   C1A59247  22.192  35.331   6.464
 4627POPC   D2A59248  22.205  35.374   6.764
 4627POPC   C3A59249  22.183  35.397   7.064
 4627POPC   C4A59250  22.174  35.401   7.364
 4627POPC   C1B59251  22.111  35.561   6.464
 4627POPC   C2B59252  22.188  35.604   6.764
 4627POPC   C3B59253  22.101  35.605   7.064
 4627POPC   C4B59254  22.123  35.573   7.364
 4628POPC   NC359255  34.541  43.871   5.564
 4628POPC   PO459256  34.536  43.850   5.864
 4628POPC   GL159257  34.592  43.844   6.164
 4628POPC   GL259258  34.464  43.874   6.164
 4628POPC   C1A59259  34.552  43.881   6.464
 4628POPC   D2A59260  34.612  43.889   6.764
 4628POPC   C3A59261  34.622  43.900   7.064
 4628POPC   C4A59262  34.615  43.892   7.364
 4628POPC   C1B59263  34.280  43.904   6.464
 4628POPC   C2B59264  34.294  43.921   6.764
 4628POPC   C3B59265  34.375  43.920   7.064
 4628POPC   C4B59266  34.330  43.931   7.364
 4629POPC   NC359267  36.089  33.017   5.564
 4629POPC   PO459268  36.172  33.057   5.864
 4629POPC   GL159269  36.109  33.007   6.164
 4629POPC   GL259270  36.090  32.892   6.164
 4629POPC   C1A59271  36.108  33.067   6.464
 4629POPC   D2A59272  36.106  33.038   6.764
 4629POPC   C3A59273  36.083  32.980   7.064
 4629POPC   C4A59274  36.167  33.011   7.364
 4629POPC   C1B59275  36.016  32.846   6.464
 4629POPC   C2B59276  35.981  32.835   6.764
 4629POPC   C3B59277  35.985  32.816   7.064
 4629POPC   C4B59278  35.992  32.801   7.364
 4630POPC   NC359279  25.247  19.830   5.564
 4630POPC   PO459280  25.313  19.867   5.864
 4630POPC   GL159281  25.237  19.791   6.164
 4630POPC   GL259282  25.336  19.873   6.164
 4630POPC   C1A59283  25.264  19.833   6.464
 4630POPC   D2A59284  25.217  19.859   6.764
 4630POPC   C3A59285  25.232  19.841   7.064
 4630POPC   C4A59286  25.261  19.794   7.364
 4630POPC   C1B59287  25.522  19.910   6.464
 4630POPC   C2B59288  25.481  19.901   6.764
 4630POPC   C3B59289  25.460  19.905   7.064
 4630POPC   C4B59290  25.480  19.964   7.364
 4631POPC   NC359291  41.527  41.519   5.564
 4631POPC   PO459292  41.572  41.595   5.864
 4631POPC   GL159293  41.603  41.540   6.164
 4631POPC   GL259294  41.708  41.664   6.164
 4631POPC   C1A59295  41.577  41.574   6.464
 4631POPC   D2A59296  41.595  41.587   6.764
 4631POPC   C3A59297  41.587  41.583   7.064
 4631POPC   C4A59298  41.573  41.515   7.364
 4631POPC   C1B59299  41.755  41.737   6.464
 4631POPC   C2B59300  41.741  41.755   6.764
 4631POPC   C3B59301  41.752  41.743   7.064
 4631POPC   C4B59302  41.787  41.690   7.364
 4632POPC   NC359303   1.993  26.048   5.564
 4632POPC   PO459304   2.006  26.081   5.864
 4632POPC   GL159305   2.026  26.073   6.164
 4632POPC   GL259306   1.969  25.885   6.164
 4632POPC   C1A59307   1.949  26.066   6.464
 4632POPC   D2A59308   2.034  26.004   6.764
 4632POPC   C3A59309   1.999  26.053   7.064
 4632POPC   C4A59310   1.968  26.027   7.364
 4632POPC   C1B59311   2.054  25.785   6.464
 4632POPC   C2B59312   2.064  25.749   6.764
 4632POPC   C3B59313   2.078  25.760   7.064
 4632POPC   C4B59314   2.072  25.755   7.364
 4633POPC   NC359315   9.719  38.468   5.564
 4633POPC   PO459316   9.791  38.488   5.864
 4633POPC   GL159317   9.781  38.472   6.164
 4633POPC   GL259318   9.629  38.368   6.164
 4633POPC   C1A59319   9.764  38.480   6.464
 4633POPC   D2A59320   9.707  38.498   6.764
 4633POPC   C3A59321   9.742  38.455   7.064
 4633POPC   C4A59322   9.777  38.467   7.364
 4633POPC   C1B59323   9.557  38.342   6.464
 4633POPC   C2B59324   9.488  38.295   6.764
 4633POPC   C3B59325   9.569  38.344   7.064
 4633POPC   C4B59326   9.512  38.289   7.364
 4634POPC   NC359327  44.639  11.335   5.564
 4634POPC   PO459328  44.682  11.324   5.864
 4634POPC   GL159329  44.614  11.282   6.164
 4634POPC   GL259330  44.624  11.179   6.164
 4634POPC   C1A59331  44.616  11.337   6.464
 4634POPC   D2A59332  44.682  11.277   6.764
 4634POPC   C3A59333  44.668  11.333   7.064
 4634POPC   C4A59334  44.706  11.324   7.364
 4634POPC   C1B59335  44.544  11.098   6.464
 4634POPC   C2B59336  44.497  11.126   6.764
 4634POPC   C3B59337  44.540  11.063   7.064
 4634POPC   C4B59338  44.546  11.062   7.364
 4635POPC   NC359339  12.843  21.361   5.564
 4635POPC   PO459340  12.879  21.374   5.864
 4635POPC   GL159341  12.882  21.410   6.164
 4635POPC   GL259342  12.922  21.497   6.164
 4635POPC   C1A59343  12.886  21.423   6.464
 4635POPC   D2A59344  12.868  21.383   6.764
 4635POPC   C3A59345  12.821  21.417   7.064
 4635POPC   C4A59346  12.821  21.401   7.364
 4635POPC   C1B59347  12.963  21.574   6.464
 4635POPC   C2B59348  12.924  21.608   6.764
 4635POPC   C3B59349  12.954  21.631   7.064
 4635POPC   C4B59350  12.927  21.568   7.364
 4636POPC   NC359351   5.090  43.092   5.564
 4636POPC   PO459352   5.060  43.149   5.864
 4636POPC   GL159353   5.083  43.156   6.164
 4636POPC   GL259354   5.014  43.215   6.164
 4636POPC   C1A59355   5.070  43.091   6.464
 4636POPC   D2A59356   5.080  43.120   6.764
 4636POPC   C3A59357   5.046  43.101   7.064
 4636POPC   C4A59358   5.067  43.073   7.364
 4636POPC   C1B59359   5.000  43.366   6.464
 4636POPC   C2B59360   5.006  43.318   6.764
 4636POPC   C3B59361   5.037  43.388   7.064
 4636POPC   C4B59362   4.988  43.344   7.364
 4637POPC   NC359363  26.844   8.955   5.564
 4637POPC   PO459364  26.787   8.956   5.864
 4637POPC   GL159365  26.843   9.014   6.164
 4637POPC   GL259366  26.709   9.013   6.164
 4637POPC   C1A59367  26.775   8.992   6.464
 4637POPC   D2A59368  26.858   8.949   6.764
 4637POPC   C3A59369  26.779   9.010   7.064
 4637POPC   C4A59370  26.832   8.982   7.364
 4637POPC   C1B59371  26.634   9.110   6.464
 4637POPC   C2B59372  26.568   9.112   6.764
 4637POPC   C3B59373  26.585   9.061   7.064
 4637POPC   C4B59374  26.561   9.022   7.364
 4638POPC   NC359375  14.374  16.773   5.564
 4638POPC   PO459376  14.402  16.767   5.864
 4638POPC   GL159377  14.356  16.778   6.164
 4638POPC   GL259378  14.339  16.637   6.164
 4638POPC   C1A59379  14.379  16.753   6.464
 4638POPC   D2A59380  14.390  16.760   6.764
 4638POPC   C3A59381  14.396  16.757   7.064
 4638POPC   C4A59382  14.356  16.741   7.364
 4638POPC   C1B59383  14.399  16.485   6.464
 4638POPC   C2B59384  14.365  16.526   6.764
 4638POPC   C3B59385  14.349  16.488   7.064
 4638POPC   C4B59386  14.404  16.445   7.364
 4639POPC   NC359387   3.577   1.190   5.564
 4639POPC   PO459388   3.586   1.243   5.864
 4639POPC   GL159389   3.553   1.237   6.164
 4639POPC   GL259390   3.603   1.364   6.164
 4639POPC   C1A59391   3.494   1.198   6.464
 4639POPC   D2A59392   3.514   1.178   6.764
 4639POPC   C3A59393   3.501   1.189   7.064
 4639POPC   C4A59394   3.532   1.207   7.364
 4639POPC   C1B59395   3.685   1.421   6.464
 4639POPC   C2B59396   3.667   1.462   6.764
 4639POPC   C3B59397   3.648   1.427   7.064
 4639POPC   C4B59398   3.622   1.454   7.364
 4640POPC   NC359399  41.520  15.945   5.564
 4640POPC   PO459400  41.608  16.003   5.864
 4640POPC   GL159401  41.594  15.992   6.164
 4640POPC   GL259402  41.685  15.868   6.164
 4640POPC   C1A59403  41.583  15.960   6.464
 4640POPC   D2A59404  41.547  15.941   6.764
 4640POPC   C3A59405  41.583  15.969   7.064
 4640POPC   C4A59406  41.575  15.941   7.364
 4640POPC   C1B59407  41.722  15.811   6.464
 4640POPC   C2B59408  41.763  15.812   6.764
 4640POPC   C3B59409  41.737  15.772   7.064
 4640POPC   C4B59410  41.728  15.839   7.364
 4641POPC   NC359411   2.020   8.179   5.564
 4641POPC   PO459412   1.984   8.160   5.864
 4641POPC   GL159413   1.972   8.168   6.164
 4641POPC   GL259414   1.904   8.149   6.164
 4641POPC   C1A59415   2.038   8.185   6.464
 4641POPC   D2A59416   2.016   8.149   6.764
 4641POPC   C3A59417   2.031   8.229   7.064
 4641POPC   C4A59418   1.994   8.173   7.364
 4641POPC   C1B59419   1.748   8.211   6.464
 4641POPC   C2B59420   1.742   8.180   6.764
 4641POPC   C3B59421   1.747   8.150   7.064
 4641POPC   C4B59422   1.786   8.174   7.364
 4642POPC   NC359423  38.472  42.304   5.564
 4642POPC   PO459424  38.412  42.371   5.864
 4642POPC   GL159425  38.502  42.357   6.164
 4642POPC   GL259426  38.531  42.384   6.164
 4642POPC   C1A59427  38.478  42.359   6.464
 4642POPC   D2A59428  38.485  42.382   6.764
 4642POPC   C3A59429  38.416  42.330   7.064
 4642POPC   C4A59430  38.464  42.372   7.364
 4642POPC   C1B59431  38.615  42.494   6.464
 4642POPC   C2B59432  38.645  42.547   6.764
 4642POPC   C3B59433  38.650  42.503   7.064
 4642POPC   C4B59434  38.604  42.497   7.364
 4643POPC   NC359435  34.568   7.411   5.564
 4643POPC   PO459436  34.554   7.455   5.864
 4643POPC   GL159437  34.535   7.392   6.164
 4643POPC   GL259438  34.696   7.491   6.164
 4643POPC   C1A59439  34.547   7.453   6.464
 4643POPC   D2A59440  34.587   7.432   6.764
 4643POPC   C3A59441  34.618   7.420   7.064
 4643POPC   C4A59442  34.575   7.422   7.364
 4643POPC   C1B59443  34.866   7.454   6.464
 4643POPC   C2B59444  34.780   7.479   6.764
 4643POPC   C3B59445  34.818   7.472   7.064
 4643POPC   C4B59446  34.785   7.502   7.364
 4644POPC   NC359447  28.408  37.729   5.564
 4644POPC   PO459448  28.395  37.639   5.864
 4644POPC   GL159449  28.321  37.689   6.164
 4644POPC   GL259450  28.270  37.553   6.164
 4644POPC   C1A59451  28.360  37.641   6.464
 4644POPC   D2A59452  28.357  37.661   6.764
 4644POPC   C3A59453  28.380  37.712   7.064
 4644POPC   C4A59454  28.342  37.657   7.364
 4644POPC   C1B59455  28.166  37.460   6.464
 4644POPC   C2B59456  28.198  37.459   6.764
 4644POPC   C3B59457  28.222  37.502   7.064
 4644POPC   C4B59458  28.218  37.457   7.364
 4645POPC   NC359459  40.776  14.397   5.564
 4645POPC   PO459460  40.795  14.394   5.864
 4645POPC   GL159461  40.780  14.363   6.164
 4645POPC   GL259462  40.846  14.489   6.164
 4645POPC   C1A59463  40.797  14.362   6.464
 4645POPC   D2A59464  40.793  14.428   6.764
 4645POPC   C3A59465  40.807  14.400   7.064
 4645POPC   C4A59466  40.800  14.415   7.364
 4645POPC   C1B59467  40.982  14.604   6.464
 4645POPC   C2B59468  40.975  14.572   6.764
 4645POPC   C3B59469  40.913  14.633   7.064
 4645POPC   C4B59470  40.929  14.575   7.364
 4646POPC   NC359471  38.424  37.691   5.564
 4646POPC   PO459472  38.425  37.690   5.864
 4646POPC   GL159473  38.436  37.671   6.164
 4646POPC   GL259474  38.519  37.558   6.164
 4646POPC   C1A59475  38.474  37.715   6.464
 4646POPC   D2A59476  38.447  37.666   6.764
 4646POPC   C3A59477  38.464  37.726   7.064
 4646POPC   C4A59478  38.493  37.716   7.364
 4646POPC   C1B59479  38.656  37.489   6.464
 4646POPC   C2B59480  38.585  37.488   6.764
 4646POPC   C3B59481  38.597  37.519   7.064
 4646POPC   C4B59482  38.657  37.434   7.364
 4647POPC   NC359483  43.926  40.033   5.564
 4647POPC   PO459484  43.838  40.029   5.864
 4647POPC   GL159485  43.848  39.967   6.164
 4647POPC   GL259486  43.763  39.964   6.164
 4647POPC   C1A59487  43.891  39.974   6.464
 4647POPC   D2A59488  43.845  39.968   6.764
 4647POPC   C3A59489  43.849  40.008   7.064
 4647POPC   C4A59490  43.838  40.032   7.364
 4647POPC   C1B59491  43.654  39.998   6.464
 4647POPC   C2B59492  43.655  40.005   6.764
 4647POPC   C3B59493  43.642  39.978   7.064
 4647POPC   C4B59494  43.675  39.997   7.364
 4648POPC   NC359495  11.326   1.972   5.564
 4648POPC   PO459496  11.278   1.998   5.864
 4648POPC   GL159497  11.347   1.970   6.164
 4648POPC   GL259498  11.282   1.862   6.164
 4648POPC   C1A59499  11.312   2.005   6.464
 4648POPC   D2A59500  11.330   2.018   6.764
 4648POPC   C3A59501  11.251   2.028   7.064
 4648POPC   C4A59502  11.322   2.003   7.364
 4648POPC   C1B59503  11.195   1.762   6.464
 4648POPC   C2B59504  11.196   1.753   6.764
 4648POPC   C3B59505  11.262   1.753   7.064
 4648POPC   C4B59506  11.220   1.782   7.364
 4649POPC   NC359507   4.335  42.329   5.564
 4649POPC   PO459508   4.360  42.359   5.864
 4649POPC   GL159509   4.278  42.330   6.164
 4649POPC   GL259510   4.433  42.269   6.164
 4649POPC   C1A59511   4.366  42.350   6.464
 4649POPC   D2A59512   4.340  42.311   6.764
 4649POPC   C3A59513   4.284  42.379   7.064
 4649POPC   C4A59514   4.308  42.307   7.364
 4649POPC   C1B59515   4.577  42.294   6.464
 4649POPC   C2B59516   4.553  42.290   6.764
 4649POPC   C3B59517   4.575  42.322   7.064
 4649POPC   C4B59518   4.539  42.273   7.364
 4650POPC   NC359519   0.488  11.267   5.564
 4650POPC   PO459520   0.412  11.334   5.864
 4650POPC   GL159521   0.440  11.322   6.164
 4650POPC   GL259522   0.467  11.443   6.164
 4650POPC   C1A59523   0.413  11.268   6.464
 4650POPC   D2A59524   0.469  11.306   6.764
 4650POPC   C3A59525   0.401  11.265   7.064
 4650POPC   C4A59526   0.411  11.322   7.364
 4650POPC   C1B59527   0.543  11.483   6.464
 4650POPC   C2B59528   0.572  11.515   6.764
 4650POPC   C3B59529   0.539  11.495   7.064
 4650POPC   C4B59530   0.569  11.566   7.364
 4651POPC   NC359531   0.426  39.231   5.564
 4651POPC   PO459532   0.428  39.251   5.864
 4651POPC   GL159533   0.464  39.273   6.164
 4651POPC   GL259534   0.529  39.155   6.164
 4651POPC   C1A59535   0.443  39.225   6.464
 4651POPC   D2A59536   0.471  39.211   6.764
 4651POPC   C3A59537   0.440  39.230   7.064
 4651POPC   C4A59538   0.391  39.188   7.364
 4651POPC   C1B59539   0.558  39.071   6.464
 4651POPC   C2B59540   0.576  39.075   6.764
 4651POPC   C3B59541   0.603  39.069   7.064
 4651POPC   C4B59542   0.583  39.008   7.364
 4652POPC   NC359543  14.428   1.994   5.564
 4652POPC   PO459544  14.431   2.001   5.864
 4652POPC   GL159545  14.401   2.026   6.164
 4652POPC   GL259546  14.483   1.873   6.164
 4652POPC   C1A59547  14.367   2.014   6.464
 4652POPC   D2A59548  14.411   1.979   6.764
 4652POPC   C3A59549  14.425   1.964   7.064
 4652POPC   C4A59550  14.374   2.036   7.364
 4652POPC   C1B59551  14.627   1.781   6.464
 4652POPC   C2B59552  14.620   1.836   6.764
 4652POPC   C3B59553  14.642   1.793   7.064
 4652POPC   C4B59554  14.635   1.832   7.364
 4653POPC   NC359555  23.760   1.946   5.564
 4653POPC   PO459556  23.756   1.993   5.864
 4653POPC   GL159557  23.696   1.958   6.164
 4653POPC   GL259558  23.580   1.956   6.164
 4653POPC   C1A59559  23.756   2.005   6.464
 4653POPC   D2A59560  23.762   2.027   6.764
 4653POPC   C3A59561  23.685   2.036   7.064
 4653POPC   C4A59562  23.761   1.994   7.364
 4653POPC   C1B59563  23.482   1.969   6.464
 4653POPC   C2B59564  23.452   1.922   6.764
 4653POPC   C3B59565  23.462   1.997   7.064
 4653POPC   C4B59566  23.442   1.955   7.364
 4654POPC   NC359567  12.854  13.580   5.564
 4654POPC   PO459568  12.870  13.647   5.864
 4654POPC   GL159569  12.848  13.662   6.164
 4654POPC   GL259570  12.819  13.707   6.164
 4654POPC   C1A59571  12.896  13.621   6.464
 4654POPC   D2A59572  12.891  13.662   6.764
 4654POPC   C3A59573  12.828  13.656   7.064
 4654POPC   C4A59574  12.878  13.621   7.364
 4654POPC   C1B59575  12.694  13.810   6.464
 4654POPC   C2B59576  12.746  13.819   6.764
 4654POPC   C3B59577  12.758  13.877   7.064
 4654POPC   C4B59578  12.765  13.859   7.364
 4655POPC   NC359579  12.084  31.486   5.564
 4655POPC   PO459580  12.030  31.467   5.864
 4655POPC   GL159581  12.117  31.505   6.164
 4655POPC   GL259582  12.086  31.628   6.164
 4655POPC   C1A59583  12.114  31.473   6.464
 4655POPC   D2A59584  12.077  31.467   6.764
 4655POPC   C3A59585  12.075  31.478   7.064
 4655POPC   C4A59586  12.112  31.476   7.364
 4655POPC   C1B59587  12.122  31.715   6.464
 4655POPC   C2B59588  12.048  31.739   6.764
 4655POPC   C3B59589  12.090  31.746   7.064
 4655POPC   C4B59590  12.069  31.733   7.364
 4656POPC   NC359591  43.121  44.617   5.564
 4656POPC   PO459592  43.063  44.670   5.864
 4656POPC   GL159593  43.103  44.659   6.164
 4656POPC   GL259594  43.199  44.579   6.164
 4656POPC   C1A59595  43.118  44.668   6.464
 4656POPC   D2A59596  43.086  44.634   6.764
 4656POPC   C3A59597  43.117  44.641   7.064
 4656POPC   C4A59598  43.073  44.652   7.364
 4656POPC   C1B59599  43.275  44.432   6.464
 4656POPC   C2B59600  43.256  44.452   6.764
 4656POPC   C3B59601  43.276  44.426   7.064
 4656POPC   C4B59602  43.277  44.444   7.364
 4657POPC   NC359603  42.340  29.907   5.564
 4657POPC   PO459604  42.321  29.883   5.864
 4657POPC   GL159605  42.317  29.964   6.164
 4657POPC   GL259606  42.319  29.831   6.164
 4657POPC   C1A59607  42.338  29.894   6.464
 4657POPC   D2A59608  42.365  29.915   6.764
 4657POPC   C3A59609  42.345  29.919   7.064
 4657POPC   C4A59610  42.294  29.949   7.364
 4657POPC   C1B59611  42.396  29.647   6.464
 4657POPC   C2B59612  42.308  29.652   6.764
 4657POPC   C3B59613  42.332  29.640   7.064
 4657POPC   C4B59614  42.356  29.634   7.364
 4658POPC   NC359615  15.228  30.651   5.564
 4658POPC   PO459616  15.141  30.725   5.864
 4658POPC   GL159617  15.224  30.735   6.164
 4658POPC   GL259618  15.117  30.661   6.164
 4658POPC   C1A59619  15.197  30.731   6.464
 4658POPC   D2A59620  15.193  30.663   6.764
 4658POPC   C3A59621  15.219  30.724   7.064
 4658POPC   C4A59622  15.213  30.698   7.364
 4658POPC   C1B59623  14.975  30.597   6.464
 4658POPC   C2B59624  14.954  30.565   6.764
 4658POPC   C3B59625  14.927  30.530   7.064
 4658POPC   C4B59626  14.978  30.525   7.364
 4659POPC   NC359627   6.611  34.618   5.564
 4659POPC   PO459628   6.691  34.583   5.864
 4659POPC   GL159629   6.627  34.624   6.164
 4659POPC   GL259630   6.571  34.470   6.164
 4659POPC   C1A59631   6.645  34.601   6.464
 4659POPC   D2A59632   6.613  34.568   6.764
 4659POPC   C3A59633   6.596  34.552   7.064
 4659POPC   C4A59634   6.616  34.586   7.364
 4659POPC   C1B59635   6.466  34.449   6.464
 4659POPC   C2B59636   6.450  34.441   6.764
 4659POPC   C3B59637   6.461  34.454   7.064
 4659POPC   C4B59638   6.396  34.424   7.364
 4660POPC   NC359639  39.202  25.300   5.564
 4660POPC   PO459640  39.268  25.216   5.864
 4660POPC   GL159641  39.214  25.288   6.164
 4660POPC   GL259642  39.156  25.286   6.164
 4660POPC   C1A59643  39.270  25.268   6.464
 4660POPC   D2A59644  39.250  25.299   6.764
 4660POPC   C3A59645  39.240  25.254   7.064
 4660POPC   C4A59646  39.192  25.216   7.364
 4660POPC   C1B59647  39.002  25.212   6.464
 4660POPC   C2B59648  38.984  25.201   6.764
 4660POPC   C3B59649  38.993  25.227   7.064
 4660POPC   C4B59650  38.963  25.197   7.364
 4661POPC   NC359651   7.414  14.378   5.564
 4661POPC   PO459652   7.402  14.415   5.864
 4661POPC   GL159653   7.451  14.381   6.164
 4661POPC   GL259654   7.469  14.450   6.164
 4661POPC   C1A59655   7.439  14.365   6.464
 4661POPC   D2A59656   7.385  14.378   6.764
 4661POPC   C3A59657   7.453  14.377   7.064
 4661POPC   C4A59658   7.464  14.382   7.364
 4661POPC   C1B59659   7.576  14.550   6.464
 4661POPC   C2B59660   7.550  14.562   6.764
 4661POPC   C3B59661   7.548  14.625   7.064
 4661POPC   C4B59662   7.581  14.569   7.364
 4662POPC   NC359663  39.222  20.606   5.564
 4662POPC   PO459664  39.264  20.583   5.864
 4662POPC   GL159665  39.261  20.562   6.164
 4662POPC   GL259666  39.138  20.653   6.164
 4662POPC   C1A59667  39.212  20.585   6.464
 4662POPC   D2A59668  39.206  20.583   6.764
 4662POPC   C3A59669  39.273  20.639   7.064
 4662POPC   C4A59670  39.270  20.645   7.364
 4662POPC   C1B59671  38.978  20.712   6.464
 4662POPC   C2B59672  39.019  20.740   6.764
 4662POPC   C3B59673  38.960  20.746   7.064
 4662POPC   C4B59674  38.997  20.730   7.364
 4663POPC   NC359675   9.006  14.381   5.564
 4663POPC   PO459676   9.001  14.366   5.864
 4663POPC   GL159677   8.934  14.394   6.164
 4663POPC   GL259678   8.992  14.562   6.164
 4663POPC   C1A59679   8.998  14.426   6.464
 4663POPC   D2A59680   9.004  14.367   6.764
 4663POPC   C3A59681   8.965  14.401   7.064
 4663POPC   C4A59682   8.953  14.374   7.364
 4663POPC   C1B59683   8.973  14.662   6.464
 4663POPC   C2B59684   8.991  14.699   6.764
 4663POPC   C3B59685   8.925  14.663   7.064
 4663POPC   C4B59686   8.955  14.617   7.364
 4664POPC   NC359687  44.615  15.974   5.564
 4664POPC   PO459688  44.654  15.958   5.864
 4664POPC   GL159689  44.707  15.921   6.164
 4664POPC   GL259690  44.651  15.820   6.164
 4664POPC   C1A59691  44.641  15.938   6.464
 4664POPC   D2A59692  44.667  15.972   6.764
 4664POPC   C3A59693  44.639  15.938   7.064
 4664POPC   C4A59694  44.656  15.981   7.364
 4664POPC   C1B59695  44.519  15.768   6.464
 4664POPC   C2B59696  44.500  15.776   6.764
 4664POPC   C3B59697  44.569  15.709   7.064
 4664POPC   C4B59698  44.543  15.766   7.364
 4665POPC   NC359699  41.538  42.325   5.564
 4665POPC   PO459700  41.527  42.344   5.864
 4665POPC   GL159701  41.559  42.344   6.164
 4665POPC   GL259702  41.520  42.248   6.164
 4665POPC   C1A59703  41.577  42.309   6.464
 4665POPC   D2A59704  41.513  42.336   6.764
 4665POPC   C3A59705  41.534  42.318   7.064
 4665POPC   C4A59706  41.566  42.340   7.364
 4665POPC   C1B59707  41.454  42.091   6.464
 4665POPC   C2B59708  41.454  42.119   6.764
 4665POPC   C3B59709  41.476  42.070   7.064
 4665POPC   C4B59710  41.397  42.157   7.364
 4666POPC   NC359711  38.466  17.484   5.564
 4666POPC   PO459712  38.466  17.514   5.864
 4666POPC   GL159713  38.427  17.466   6.164
 4666POPC   GL259714  38.537  17.597   6.164
 4666POPC   C1A59715  38.498  17.517   6.464
 4666POPC   D2A59716  38.435  17.495   6.764
 4666POPC   C3A59717  38.473  17.513   7.064
 4666POPC   C4A59718  38.462  17.502   7.364
 4666POPC   C1B59719  38.529  17.735   6.464
 4666POPC   C2B59720  38.567  17.776   6.764
 4666POPC   C3B59721  38.616  17.771   7.064
 4666POPC   C4B59722  38.593  17.770   7.364
 4667POPC   NC359723   5.050   8.241   5.564
 4667POPC   PO459724   5.050   8.152   5.864
 4667POPC   GL159725   5.126   8.174   6.164
 4667POPC   GL259726   5.025   8.168   6.164
 4667POPC   C1A59727   5.049   8.162   6.464
 4667POPC   D2A59728   5.065   8.157   6.764
 4667POPC   C3A59729   5.103   8.164   7.064
 4667POPC   C4A59730   5.116   8.220   7.364
 4667POPC   C1B59731   4.878   8.125   6.464
 4667POPC   C2B59732   4.904   8.096   6.764
 4667POPC   C3B59733   4.869   8.064   7.064
 4667POPC   C4B59734   4.859   8.077   7.364
 4668POPC   NC359735  12.845   1.206   5.564
 4668POPC   PO459736  12.817   1.230   5.864
 4668POPC   GL159737  12.833   1.184   6.164
 4668POPC   GL259738  12.719   1.227   6.164
 4668POPC   C1A59739  12.880   1.250   6.464
 4668POPC   D2A59740  12.853   1.183   6.764
 4668POPC   C3A59741  12.838   1.242   7.064
 4668POPC   C4A59742  12.890   1.241   7.364
 4668POPC   C1B59743  12.619   1.361   6.464
 4668POPC   C2B59744  12.625   1.356   6.764
 4668POPC   C3B59745  12.603   1.273   7.064
 4668POPC   C4B59746  12.626   1.340   7.364
 4669POPC   NC359747  35.326  36.147   5.564
 4669POPC   PO459748  35.312  36.107   5.864
 4669POPC   GL159749  35.313  36.084   6.164
 4669POPC   GL259750  35.488  36.187   6.164
 4669POPC   C1A59751  35.366  36.165   6.464
 4669POPC   D2A59752  35.324  36.158   6.764
 4669POPC   C3A59753  35.393  36.152   7.064
 4669POPC   C4A59754  35.316  36.162   7.364
 4669POPC   C1B59755  35.606  36.188   6.464
 4669POPC   C2B59756  35.610  36.284   6.764
 4669POPC   C3B59757  35.538  36.192   7.064
 4669POPC   C4B59758  35.569  36.248   7.364
 4670POPC   NC359759  25.237  18.297   5.564
 4670POPC   PO459760  25.289  18.329   5.864
 4670POPC   GL159761  25.243  18.266   6.164
 4670POPC   GL259762  25.359  18.177   6.164
 4670POPC   C1A59763  25.287  18.269   6.464
 4670POPC   D2A59764  25.249  18.262   6.764
 4670POPC   C3A59765  25.244  18.305   7.064
 4670POPC   C4A59766  25.308  18.253   7.364
 4670POPC   C1B59767  25.426  18.121   6.464
 4670POPC   C2B59768  25.395  18.114   6.764
 4670POPC   C3B59769  25.419  18.137   7.064
 4670POPC   C4B59770  25.493  18.121   7.364
 4671POPC   NC359771  19.790  37.709   5.564
 4671POPC   PO459772  19.860  37.679   5.864
 4671POPC   GL159773  19.871  37.645   6.164
 4671POPC   GL259774  19.772  37.755   6.164
 4671POPC   C1A59775  19.872  37.644   6.464
 4671POPC   D2A59776  19.852  37.659   6.764
 4671POPC   C3A59777  19.802  37.657   7.064
 4671POPC   C4A59778  19.793  37.695   7.364
 4671POPC   C1B59779  19.795  37.944   6.464
 4671POPC   C2B59780  19.774  37.972   6.764
 4671POPC   C3B59781  19.797  37.920   7.064
 4671POPC   C4B59782  19.803  37.947   7.364
 4672POPC   NC359783  32.296  40.789   5.564
 4672POPC   PO459784  32.239  40.756   5.864
 4672POPC   GL159785  32.268  40.832   6.164
 4672POPC   GL259786  32.238  40.655   6.164
 4672POPC   C1A59787  32.248  40.767   6.464
 4672POPC   D2A59788  32.268  40.736   6.764
 4672POPC   C3A59789  32.232  40.764   7.064
 4672POPC   C4A59790  32.224  40.808   7.364
 4672POPC   C1B59791  32.204  40.493   6.464
 4672POPC   C2B59792  32.217  40.583   6.764
 4672POPC   C3B59793  32.176  40.552   7.064
 4672POPC   C4B59794  32.216  40.546   7.364
 4673POPC   NC359795  22.186  18.308   5.564
 4673POPC   PO459796  22.200  18.308   5.864
 4673POPC   GL159797  22.127  18.244   6.164
 4673POPC   GL259798  22.171  18.403   6.164
 4673POPC   C1A59799  22.136  18.289   6.464
 4673POPC   D2A59800  22.123  18.247   6.764
 4673POPC   C3A59801  22.154  18.245   7.064
 4673POPC   C4A59802  22.180  18.269   7.364
 4673POPC   C1B59803  22.174  18.480   6.464
 4673POPC   C2B59804  22.220  18.491   6.764
 4673POPC   C3B59805  22.166  18.520   7.064
 4673POPC   C4B59806  22.225  18.566   7.364
 4674POPC   NC359807  33.822  39.198   5.564
 4674POPC   PO459808  33.792  39.215   5.864
 4674POPC   GL159809  33.841  39.257   6.164
 4674POPC   GL259810  33.883  39.076   6.164
 4674POPC   C1A59811  33.832  39.191   6.464
 4674POPC   D2A59812  33.829  39.254   6.764
 4674POPC   C3A59813  33.840  39.272   7.064
 4674POPC   C4A59814  33.773  39.268   7.364
 4674POPC   C1B59815  33.895  38.996   6.464
 4674POPC   C2B59816  33.954  39.024   6.764
 4674POPC   C3B59817  33.882  38.987   7.064
 4674POPC   C4B59818  33.897  38.979   7.364
 4675POPC   NC359819  17.499   2.016   5.564
 4675POPC   PO459820  17.550   1.942   5.864
 4675POPC   GL159821  17.514   1.998   6.164
 4675POPC   GL259822  17.431   1.955   6.164
 4675POPC   C1A59823  17.474   1.998   6.464
 4675POPC   D2A59824  17.522   1.957   6.764
 4675POPC   C3A59825  17.499   2.023   7.064
 4675POPC   C4A59826  17.482   2.004   7.364
 4675POPC   C1B59827  17.335   1.879   6.464
 4675POPC   C2B59828  17.275   1.854   6.764
 4675POPC   C3B59829  17.323   1.878   7.064
 4675POPC   C4B59830  17.325   1.836   7.364
 4676POPC   NC359831  17.483  42.355   5.564
 4676POPC   PO459832  17.498  42.329   5.864
 4676POPC   GL159833  17.545  42.383   6.164
 4676POPC   GL259834  17.434  42.170   6.164
 4676POPC   C1A59835  17.472  42.356   6.464
 4676POPC   D2A59836  17.538  42.375   6.764
 4676POPC   C3A59837  17.464  42.362   7.064
 4676POPC   C4A59838  17.512  42.293   7.364
 4676POPC   C1B59839  17.448  42.121   6.464
 4676POPC   C2B59840  17.459  42.057   6.764
 4676POPC   C3B59841  17.482  42.066   7.064
 4676POPC   C4B59842  17.501  42.105   7.364
 4677POPC   NC359843   5.918   5.902   5.564
 4677POPC   PO459844   5.835   5.865   5.864
 4677POPC   GL159845   5.841   5.859   6.164
 4677POPC   GL259846   5.780   5.735   6.164
 4677POPC   C1A59847   5.918   5.896   6.464
 4677POPC   D2A59848   5.913   5.826   6.764
 4677POPC   C3A59849   5.876   5.915   7.064
 4677POPC   C4A59850   5.879   5.852   7.364
 4677POPC   C1B59851   5.692   5.646   6.464
 4677POPC   C2B59852   5.700   5.668   6.764
 4677POPC   C3B59853   5.724   5.675   7.064
 4677POPC   C4B59854   5.761   5.629   7.364
 4678POPC   NC359855  35.324  33.754   5.564
 4678POPC   PO459856  35.341  33.797   5.864
 4678POPC   GL159857  35.372  33.773   6.164
 4678POPC   GL259858  35.269  33.759   6.164
 4678POPC   C1A59859  35.305  33.818   6.464
 4678POPC   D2A59860  35.392  33.777   6.764
 4678POPC   C3A59861  35.368  33.847   7.064
 4678POPC   C4A59862  35.370  33.814   7.364
 4678POPC   C1B59863  35.164  33.725   6.464
 4678POPC   C2B59864  35.164  33.703   6.764
 4678POPC   C3B59865  35.109  33.714   7.064
 4678POPC   C4B59866  35.160  33.650   7.364
 4679POPC   NC359867  21.399  11.347   5.564
 4679POPC   PO459868  21.347  11.307   5.864
 4679POPC   GL159869  21.423  11.283   6.164
 4679POPC   GL259870  21.315  11.404   6.164
 4679POPC   C1A59871  21.430  11.258   6.464
 4679POPC   D2A59872  21.401  11.343   6.764
 4679POPC   C3A59873  21.422  11.253   7.064
 4679POPC   C4A59874  21.429  11.264   7.364
 4679POPC   C1B59875  21.299  11.517   6.464
 4679POPC   C2B59876  21.295  11.475   6.764
 4679POPC   C3B59877  21.299  11.549   7.064
 4679POPC   C4B59878  21.293  11.526   7.364
 4680POPC   NC359879  40.771  24.505   5.564
 4680POPC   PO459880  40.803  24.466   5.864
 4680POPC   GL159881  40.792  24.480   6.164
 4680POPC   GL259882  40.806  24.590   6.164
 4680POPC   C1A59883  40.804  24.515   6.464
 4680POPC   D2A59884  40.792  24.539   6.764
 4680POPC   C3A59885  40.823  24.458   7.064
 4680POPC   C4A59886  40.769  24.469   7.364
 4680POPC   C1B59887  40.721  24.727   6.464
 4680POPC   C2B59888  40.716  24.733   6.764
 4680POPC   C3B59889  40.804  24.700   7.064
 4680POPC   C4B59890  40.774  24.743   7.364
 4681POPC   NC359891  29.941  20.619   5.564
 4681POPC   PO459892  29.881  20.637   5.864
 4681POPC   GL159893  29.889  20.590   6.164
 4681POPC   GL259894  29.927  20.498   6.164
 4681POPC   C1A59895  29.877  20.647   6.464
 4681POPC   D2A59896  29.885  20.640   6.764
 4681POPC   C3A59897  29.965  20.604   7.064
 4681POPC   C4A59898  29.893  20.623   7.364
 4681POPC   C1B59899  29.879  20.328   6.464
 4681POPC   C2B59900  29.868  20.396   6.764
 4681POPC   C3B59901  29.886  20.341   7.064
 4681POPC   C4B59902  29.917  20.405   7.364
 4682POPC   NC359903  39.957  20.634   5.564
 4682POPC   PO459904  40.000  20.589   5.864
 4682POPC   GL159905  40.013  20.597   6.164
 4682POPC   GL259906  39.919  20.601   6.164
 4682POPC   C1A59907  39.967  20.628   6.464
 4682POPC   D2A59908  39.966  20.581   6.764
 4682POPC   C3A59909  40.011  20.655   7.064
 4682POPC   C4A59910  40.055  20.565   7.364
 4682POPC   C1B59911  39.714  20.589   6.464
 4682POPC   C2B59912  39.756  20.528   6.764
 4682POPC   C3B59913  39.769  20.525   7.064
 4682POPC   C4B59914  39.765  20.622   7.364
 4683POPC   NC359915  31.427  16.752   5.564
 4683POPC   PO459916  31.433  16.725   5.864
 4683POPC   GL159917  31.427  16.681   6.164
 4683POPC   GL259918  31.390  16.758   6.164
 4683POPC   C1A59919  31.426  16.723   6.464
 4683POPC   D2A59920  31.424  16.687   6.764
 4683POPC   C3A59921  31.473  16.761   7.064
 4683POPC   C4A59922  31.482  16.745   7.364
 4683POPC   C1B59923  31.255  16.898   6.464
 4683POPC   C2B59924  31.241  16.904   6.764
 4683POPC   C3B59925  31.310  16.840   7.064
 4683POPC   C4B59926  31.268  16.835   7.364
 4684POPC   NC359927   0.466  39.973   5.564
 4684POPC   PO459928   0.450  39.977   5.864
 4684POPC   GL159929   0.437  40.024   6.164
 4684POPC   GL259930   0.552  40.062   6.164
 4684POPC   C1A59931   0.481  40.051   6.464
 4684POPC   D2A59932   0.401  39.958   6.764
 4684POPC   C3A59933   0.477  40.038   7.064
 4684POPC   C4A59934   0.401  39.981   7.364
 4684POPC   C1B59935   0.639  40.132   6.464
 4684POPC   C2B59936   0.665  40.131   6.764
 4684POPC   C3B59937   0.608  40.153   7.064
 4684POPC   C4B59938   0.611  40.140   7.364
 4685POPC   NC359939  27.615  10.515   5.564
 4685POPC   PO459940  27.564  10.552   5.864
 4685POPC   GL159941  27.621  10.514   6.164
 4685POPC   GL259942  27.541  10.609   6.164
 4685POPC   C1A59943  27.613  10.513   6.464
 4685POPC   D2A59944  27.623  10.535   6.764
 4685POPC   C3A59945  27.630  10.552   7.064
 4685POPC   C4A59946  27.593  10.527   7.364
 4685POPC   C1B59947  27.542  10.738   6.464
 4685POPC   C2B59948  27.506  10.772   6.764
 4685POPC   C3B59949  27.479  10.720   7.064
 4685POPC   C4B59950  27.497  10.782   7.364
 4686POPC   NC359951   4.292  30.661   5.564
 4686POPC   PO459952   4.277  30.677   5.864
 4686POPC   GL159953   4.294  30.722   6.164
 4686POPC   GL259954   4.219  30.595   6.164
 4686POPC   C1A59955   4.329  30.736   6.464
 4686POPC   D2A59956   4.268  30.743   6.764
 4686POPC   C3A59957   4.365  30.691   7.064
 4686POPC   C4A59958   4.286  30.724   7.364
 4686POPC   C1B59959   4.120  30.584   6.464
 4686POPC   C2B59960   4.125  30.594   6.764
 4686POPC   C3B59961   4.074  30.571   7.064
 4686POPC   C4B59962   4.103  30.587   7.364
 4687POPC   NC359963   5.082   7.407   5.564
 4687POPC   PO459964   5.048   7.378   5.864
 4687POPC   GL159965   5.141   7.462   6.164
 4687POPC   GL259966   4.956   7.514   6.164
 4687POPC   C1A59967   5.094   7.394   6.464
 4687POPC   D2A59968   5.143   7.443   6.764
 4687POPC   C3A59969   5.138   7.385   7.064
 4687POPC   C4A59970   5.054   7.471   7.364
 4687POPC   C1B59971   4.873   7.515   6.464
 4687POPC   C2B59972   4.843   7.540   6.764
 4687POPC   C3B59973   4.908   7.467   7.064
 4687POPC   C4B59974   4.884   7.525   7.364
 4688POPC   NC359975  18.276  34.606   5.564
 4688POPC   PO459976  18.246  34.569   5.864
 4688POPC   GL159977  18.266  34.625   6.164
 4688POPC   GL259978  18.295  34.500   6.164
 4688POPC   C1A59979  18.233  34.579   6.464
 4688POPC   D2A59980  18.249  34.606   6.764
 4688POPC   C3A59981  18.297  34.588   7.064
 4688POPC   C4A59982  18.243  34.594   7.364
 4688POPC   C1B59983  18.424  34.372   6.464
 4688POPC   C2B59984  18.329  34.307   6.764
 4688POPC   C3B59985  18.372  34.391   7.064
 4688POPC   C4B59986  18.353  34.342   7.364
 4689POPC   NC359987  18.300   8.229   5.564
 4689POPC   PO459988  18.272   8.175   5.864
 4689POPC   GL159989  18.286   8.186   6.164
 4689POPC   GL259990  18.303   8.048   6.164
 4689POPC   C1A59991  18.322   8.223   6.464
 4689POPC   D2A59992  18.287   8.163   6.764
 4689POPC   C3A59993  18.263   8.198   7.064
 4689POPC   C4A59994  18.267   8.157   7.364
 4689POPC   C1B59995  18.274   7.899   6.464
 4689POPC   C2B59996  18.278   7.931   6.764
 4689POPC   C3B59997  18.266   7.986   7.064
 4689POPC   C4B59998  18.353   7.910   7.364
 4690POPC   NC359999  37.691   9.760   5.564
 4690POPC   PO460000  37.677   9.714   5.864
 4690POPC   GL160001  37.722   9.773   6.164
 4690POPC   GL260002  37.599   9.741   6.164
 4690POPC   C1A60003  37.643   9.762   6.464
 4690POPC   D2A60004  37.632   9.725   6.764
 4690POPC   C3A60005  37.671   9.744   7.064
 4690POPC   C4A60006  37.644   9.747   7.364
 4690POPC   C1B60007  37.389   9.769   6.464
 4690POPC   C2B60008  37.401   9.784   6.764
 4690POPC   C3B60009  37.416   9.697   7.064
 4690POPC   C4B60010  37.446   9.753   7.364
 4691POPC   NC360011   2.725  42.300   5.564
 4691POPC   PO460012   2.769  42.294   5.864
 4691POPC   GL160013   2.802  42.381   6.164
 4691POPC   GL260014   2.637  42.370   6.164
 4691POPC   C1A60015   2.738  42.380   6.464
 4691POPC   D2A60016   2.744  42.346   6.764
 4691POPC   C3A60017   2.793  42.339   7.064
 4691POPC   C4A60018   2.803  42.308   7.364
 4691POPC   C1B60019   2.574  42.498   6.464
 4691POPC   C2B60020   2.619  42.452   6.764
 4691POPC   C3B60021   2.626  42.538   7.064
 4691POPC   C4B60022   2.604  42.458   7.364
 4692POPC   NC360023  40.825  10.569   5.564
 4692POPC   PO460024  40.832  10.567   5.864
 4692POPC   GL160025  40.778  10.543   6.164
 4692POPC   GL260026  40.690  10.674   6.164
 4692POPC   C1A60027  40.737  10.499   6.464
 4692POPC   D2A60028  40.801  10.507   6.764
 4692POPC   C3A60029  40.768  10.533   7.064
 4692POPC   C4A60030  40.826  10.573   7.364
 4692POPC   C1B60031  40.631  10.717   6.464
 4692POPC   C2B60032  40.730  10.794   6.764
 4692POPC   C3B60033  40.726  10.729   7.064
 4692POPC   C4B60034  40.702  10.777   7.364
 4693POPC   NC360035  15.185  39.957   5.564
 4693POPC   PO460036  15.229  39.986   5.864
 4693POPC   GL160037  15.168  40.005   6.164
 4693POPC   GL260038  15.219  39.871   6.164
 4693POPC   C1A60039  15.206  40.027   6.464
 4693POPC   D2A60040  15.173  40.007   6.764
 4693POPC   C3A60041  15.221  39.961   7.064
 4693POPC   C4A60042  15.141  40.026   7.364
 4693POPC   C1B60043  15.174  39.748   6.464
 4693POPC   C2B60044  15.158  39.709   6.764
 4693POPC   C3B60045  15.210  39.770   7.064
 4693POPC   C4B60046  15.215  39.742   7.364
 4694POPC   NC360047   6.681  20.567   5.564
 4694POPC   PO460048   6.599  20.603   5.864
 4694POPC   GL160049   6.652  20.586   6.164
 4694POPC   GL260050   6.648  20.520   6.164
 4694POPC   C1A60051   6.643  20.605   6.464
 4694POPC   D2A60052   6.654  20.655   6.764
 4694POPC   C3A60053   6.657  20.567   7.064
 4694POPC   C4A60054   6.614  20.585   7.364
 4694POPC   C1B60055   6.704  20.370   6.464
 4694POPC   C2B60056   6.775  20.336   6.764
 4694POPC   C3B60057   6.770  20.421   7.064
 4694POPC   C4B60058   6.762  20.363   7.364
 4695POPC   NC360059  30.730  15.945   5.564
 4695POPC   PO460060  30.703  15.910   5.864
 4695POPC   GL160061  30.717  15.961   6.164
 4695POPC   GL260062  30.734  15.827   6.164
 4695POPC   C1A60063  30.715  15.932   6.464
 4695POPC   D2A60064  30.685  15.916   6.764
 4695POPC   C3A60065  30.713  15.988   7.064
 4695POPC   C4A60066  30.685  15.974   7.364
 4695POPC   C1B60067  30.711  15.738   6.464
 4695POPC   C2B60068  30.765  15.691   6.764
 4695POPC   C3B60069  30.769  15.753   7.064
 4695POPC   C4B60070  30.715  15.666   7.364
 4696POPC   NC360071  14.360   5.136   5.564
 4696POPC   PO460072  14.435   5.125   5.864
 4696POPC   GL160073  14.358   5.060   6.164
 4696POPC   GL260074  14.423   4.941   6.164
 4696POPC   C1A60075  14.412   5.131   6.464
 4696POPC   D2A60076  14.366   5.074   6.764
 4696POPC   C3A60077  14.430   5.065   7.064
 4696POPC   C4A60078  14.354   5.087   7.364
 4696POPC   C1B60079  14.373   4.875   6.464
 4696POPC   C2B60080  14.347   4.884   6.764
 4696POPC   C3B60081  14.324   4.885   7.064
 4696POPC   C4B60082  14.360   4.823   7.364
 4697POPC   NC360083   2.778  22.211   5.564
 4697POPC   PO460084   2.791  22.126   5.864
 4697POPC   GL160085   2.757  22.141   6.164
 4697POPC   GL260086   2.736  22.007   6.164
 4697POPC   C1A60087   2.771  22.201   6.464
 4697POPC   D2A60088   2.729  22.132   6.764
 4697POPC   C3A60089   2.766  22.199   7.064
 4697POPC   C4A60090   2.770  22.210   7.364
 4697POPC   C1B60091   2.810  21.948   6.464
 4697POPC   C2B60092   2.819  21.898   6.764
 4697POPC   C3B60093   2.762  21.961   7.064
 4697POPC   C4B60094   2.789  21.941   7.364
 4698POPC   NC360095  18.263  26.865   5.564
 4698POPC   PO460096  18.330  26.803   5.864
 4698POPC   GL160097  18.265  26.808   6.164
 4698POPC   GL260098  18.380  26.918   6.164
 4698POPC   C1A60099  18.237  26.800   6.464
 4698POPC   D2A60100  18.277  26.867   6.764
 4698POPC   C3A60101  18.265  26.849   7.064
 4698POPC   C4A60102  18.308  26.851   7.364
 4698POPC   C1B60103  18.494  26.910   6.464
 4698POPC   C2B60104  18.535  26.910   6.764
 4698POPC   C3B60105  18.450  26.996   7.064
 4698POPC   C4B60106  18.443  26.987   7.364
 4699POPC   NC360107   0.461  12.074   5.564
 4699POPC   PO460108   0.487  12.108   5.864
 4699POPC   GL160109   0.434  12.035   6.164
 4699POPC   GL260110   0.512  12.132   6.164
 4699POPC   C1A60111   0.414  12.115   6.464
 4699POPC   D2A60112   0.433  12.091   6.764
 4699POPC   C3A60113   0.392  12.044   7.064
 4699POPC   C4A60114   0.405  12.082   7.364
 4699POPC   C1B60115   0.725  12.130   6.464
 4699POPC   C2B60116   0.721  12.171   6.764
 4699POPC   C3B60117   0.690  12.084   7.064
 4699POPC   C4B60118   0.654  12.153   7.364
 4700POPC   NC360119  40.826  43.918   5.564
 4700POPC   PO460120  40.821  43.931   5.864
 4700POPC   GL160121  40.803  43.878   6.164
 4700POPC   GL260122  40.815  43.993   6.164
 4700POPC   C1A60123  40.826  43.936   6.464
 4700POPC   D2A60124  40.756  43.920   6.764
 4700POPC   C3A60125  40.828  43.916   7.064
 4700POPC   C4A60126  40.826  43.885   7.364
 4700POPC   C1B60127  40.942  44.144   6.464
 4700POPC   C2B60128  40.955  44.052   6.764
 4700POPC   C3B60129  40.898  44.145   7.064
 4700POPC   C4B60130  40.956  44.053   7.364
 4701POPC   NC360131  24.489  20.575   5.564
 4701POPC   PO460132  24.520  20.644   5.864
 4701POPC   GL160133  24.481  20.627   6.164
 4701POPC   GL260134  24.503  20.709   6.164
 4701POPC   C1A60135  24.465  20.616   6.464
 4701POPC   D2A60136  24.509  20.616   6.764
 4701POPC   C3A60137  24.467  20.564   7.064
 4701POPC   C4A60138  24.493  20.587   7.364
 4701POPC   C1B60139  24.568  20.781   6.464
 4701POPC   C2B60140  24.586  20.801   6.764
 4701POPC   C3B60141  24.628  20.864   7.064
 4701POPC   C4B60142  24.629  20.844   7.364
 4702POPC   NC360143  15.139  33.009   5.564
 4702POPC   PO460144  15.146  33.030   5.864
 4702POPC   GL160145  15.196  33.018   6.164
 4702POPC   GL260146  15.295  32.911   6.164
 4702POPC   C1A60147  15.135  32.976   6.464
 4702POPC   D2A60148  15.138  32.996   6.764
 4702POPC   C3A60149  15.170  32.996   7.064
 4702POPC   C4A60150  15.194  33.038   7.364
 4702POPC   C1B60151  15.375  32.867   6.464
 4702POPC   C2B60152  15.364  32.865   6.764
 4702POPC   C3B60153  15.341  32.833   7.064
 4702POPC   C4B60154  15.311  32.786   7.364
 4703POPC   NC360155  22.933   1.951   5.564
 4703POPC   PO460156  22.913   2.033   5.864
 4703POPC   GL160157  22.954   2.000   6.164
 4703POPC   GL260158  22.960   2.138   6.164
 4703POPC   C1A60159  22.962   2.015   6.464
 4703POPC   D2A60160  22.896   1.970   6.764
 4703POPC   C3A60161  22.975   2.017   7.064
 4703POPC   C4A60162  22.932   1.984   7.364
 4703POPC   C1B60163  22.900   2.261   6.464
 4703POPC   C2B60164  22.899   2.226   6.764
 4703POPC   C3B60165  22.908   2.270   7.064
 4703POPC   C4B60166  22.849   2.207   7.364
 4704POPC   NC360167  19.099   5.915   5.564
 4704POPC   PO460168  19.018   5.918   5.864
 4704POPC   GL160169  19.038   5.912   6.164
 4704POPC   GL260170  19.042   6.020   6.164
 4704POPC   C1A60171  19.089   5.833   6.464
 4704POPC   D2A60172  19.042   5.914   6.764
 4704POPC   C3A60173  19.037   5.831   7.064
 4704POPC   C4A60174  19.070   5.843   7.364
 4704POPC   C1B60175  19.020   6.132   6.464
 4704POPC   C2B60176  19.012   6.144   6.764
 4704POPC   C3B60177  19.067   6.110   7.064
 4704POPC   C4B60178  19.102   6.095   7.364
 4705POPC   NC360179  35.303  23.717   5.564
 4705POPC   PO460180  35.355  23.669   5.864
 4705POPC   GL160181  35.353  23.675   6.164
 4705POPC   GL260182  35.418  23.592   6.164
 4705POPC   C1A60183  35.382  23.759   6.464
 4705POPC   D2A60184  35.375  23.687   6.764
 4705POPC   C3A60185  35.304  23.763   7.064
 4705POPC   C4A60186  35.376  23.684   7.364
 4705POPC   C1B60187  35.487  23.485   6.464
 4705POPC   C2B60188  35.505  23.559   6.764
 4705POPC   C3B60189  35.542  23.558   7.064
 4705POPC   C4B60190  35.499  23.547   7.364
 4706POPC   NC360191   5.083   5.899   5.564
 4706POPC   PO460192   5.110   5.909   5.864
 4706POPC   GL160193   5.089   5.891   6.164
 4706POPC   GL260194   5.013   5.836   6.164
 4706POPC   C1A60195   5.115   5.835   6.464
 4706POPC   D2A60196   5.052   5.877   6.764
 4706POPC   C3A60197   5.054   5.824   7.064
 4706POPC   C4A60198   5.084   5.896   7.364
 4706POPC   C1B60199   4.884   5.791   6.464
 4706POPC   C2B60200   4.846   5.841   6.764
 4706POPC   C3B60201   4.837   5.757   7.064
 4706POPC   C4B60202   4.831   5.817   7.364
 4707POPC   NC360203  36.079  39.248   5.564
 4707POPC   PO460204  36.139  39.268   5.864
 4707POPC   GL160205  36.155  39.205   6.164
 4707POPC   GL260206  36.082  39.076   6.164
 4707POPC   C1A60207  36.089  39.184   6.464
 4707POPC   D2A60208  36.157  39.252   6.764
 4707POPC   C3A60209  36.147  39.195   7.064
 4707POPC   C4A60210  36.110  39.229   7.364
 4707POPC   C1B60211  36.143  38.968   6.464
 4707POPC   C2B60212  36.146  39.011   6.764
 4707POPC   C3B60213  36.122  39.020   7.064
 4707POPC   C4B60214  36.121  38.984   7.364
 4708POPC   NC360215  36.930  16.695   5.564
 4708POPC   PO460216  36.917  16.699   5.864
 4708POPC   GL160217  36.884  16.743   6.164
 4708POPC   GL260218  36.908  16.652   6.164
 4708POPC   C1A60219  36.912  16.740   6.464
 4708POPC   D2A60220  36.944  16.733   6.764
 4708POPC   C3A60221  36.948  16.750   7.064
 4708POPC   C4A60222  36.930  16.778   7.364
 4708POPC   C1B60223  36.938  16.524   6.464
 4708POPC   C2B60224  36.919  16.437   6.764
 4708POPC   C3B60225  36.941  16.442   7.064
 4708POPC   C4B60226  36.919  16.528   7.364
 4709POPC   NC360227  18.288   2.020   5.564
 4709POPC   PO460228  18.296   1.994   5.864
 4709POPC   GL160229  18.313   1.956   6.164
 4709POPC   GL260230  18.141   1.955   6.164
 4709POPC   C1A60231  18.293   2.030   6.464
 4709POPC   D2A60232  18.332   1.986   6.764
 4709POPC   C3A60233  18.300   2.030   7.064
 4709POPC   C4A60234  18.295   1.943   7.364
 4709POPC   C1B60235  18.075   1.932   6.464
 4709POPC   C2B60236  18.011   1.909   6.764
 4709POPC   C3B60237  18.079   1.927   7.064
 4709POPC   C4B60238  17.993   1.932   7.364
 4710POPC   NC360239  16.700  17.511   5.564
 4710POPC   PO460240  16.732  17.496   5.864
 4710POPC   GL160241  16.751  17.550   6.164
 4710POPC   GL260242  16.674  17.354   6.164
 4710POPC   C1A60243  16.723  17.467   6.464
 4710POPC   D2A60244  16.721  17.506   6.764
 4710POPC   C3A60245  16.714  17.503   7.064
 4710POPC   C4A60246  16.741  17.462   7.364
 4710POPC   C1B60247  16.690  17.302   6.464
 4710POPC   C2B60248  16.649  17.262   6.764
 4710POPC   C3B60249  16.703  17.286   7.064
 4710POPC   C4B60250  16.678  17.292   7.364
 4711POPC   NC360251  13.638  20.650   5.564
 4711POPC   PO460252  13.666  20.595   5.864
 4711POPC   GL160253  13.637  20.570   6.164
 4711POPC   GL260254  13.493  20.515   6.164
 4711POPC   C1A60255  13.580  20.596   6.464
 4711POPC   D2A60256  13.636  20.635   6.764
 4711POPC   C3A60257  13.600  20.617   7.064
 4711POPC   C4A60258  13.592  20.615   7.364
 4711POPC   C1B60259  13.436  20.516   6.464
 4711POPC   C2B60260  13.419  20.454   6.764
 4711POPC   C3B60261  13.383  20.460   7.064
 4711POPC   C4B60262  13.419  20.520   7.364
 4712POPC   NC360263  10.573  35.389   5.564
 4712POPC   PO460264  10.545  35.312   5.864
 4712POPC   GL160265  10.550  35.315   6.164
 4712POPC   GL260266  10.381  35.367   6.164
 4712POPC   C1A60267  10.486  35.354   6.464
 4712POPC   D2A60268  10.518  35.380   6.764
 4712POPC   C3A60269  10.566  35.324   7.064
 4712POPC   C4A60270  10.538  35.367   7.364
 4712POPC   C1B60271  10.321  35.292   6.464
 4712POPC   C2B60272  10.319  35.371   6.764
 4712POPC   C3B60273  10.244  35.284   7.064
 4712POPC   C4B60274  10.245  35.296   7.364
 4713POPC   NC360275   1.167  19.088   5.564
 4713POPC   PO460276   1.198  19.028   5.864
 4713POPC   GL160277   1.226  19.042   6.164
 4713POPC   GL260278   1.138  19.150   6.164
 4713POPC   C1A60279   1.181  19.011   6.464
 4713POPC   D2A60280   1.255  19.039   6.764
 4713POPC   C3A60281   1.179  19.047   7.064
 4713POPC   C4A60282   1.186  19.060   7.364
 4713POPC   C1B60283   1.009  19.155   6.464
 4713POPC   C2B60284   0.967  19.142   6.764
 4713POPC   C3B60285   1.023  19.111   7.064
 4713POPC   C4B60286   0.977  19.112   7.364
 4714POPC   NC360287  41.523  18.304   5.564
 4714POPC   PO460288  41.535  18.250   5.864
 4714POPC   GL160289  41.559  18.270   6.164
 4714POPC   GL260290  41.717  18.247   6.164
 4714POPC   C1A60291  41.572  18.246   6.464
 4714POPC   D2A60292  41.563  18.290   6.764
 4714POPC   C3A60293  41.601  18.282   7.064
 4714POPC   C4A60294  41.580  18.305   7.364
 4714POPC   C1B60295  41.815  18.213   6.464
 4714POPC   C2B60296  41.831  18.185   6.764
 4714POPC   C3B60297  41.840  18.276   7.064
 4714POPC   C4B60298  41.805  18.263   7.364
 4715POPC   NC360299  24.503  10.555   5.564
 4715POPC   PO460300  24.484  10.518   5.864
 4715POPC   GL160301  24.533  10.492   6.164
 4715POPC   GL260302  24.462  10.615   6.164
 4715POPC   C1A60303  24.525  10.547   6.464
 4715POPC   D2A60304  24.470  10.538   6.764
 4715POPC   C3A60305  24.492  10.491   7.064
 4715POPC   C4A60306  24.506  10.562   7.364
 4715POPC   C1B60307  24.326  10.721   6.464
 4715POPC   C2B60308  24.307  10.717   6.764
 4715POPC   C3B60309  24.354  10.681   7.064
 4715POPC   C4B60310  24.353  10.706   7.364
 4716POPC   NC360311  36.103  44.635   5.564
 4716POPC   PO460312  36.112  44.667   5.864
 4716POPC   GL160313  36.089  44.662   6.164
 4716POPC   GL260314  36.201  44.577   6.164
 4716POPC   C1A60315  36.147  44.681   6.464
 4716POPC   D2A60316  36.085  44.709   6.764
 4716POPC   C3A60317  36.147  44.676   7.064
 4716POPC   C4A60318  36.108  44.639   7.364
 4716POPC   C1B60319  36.354  44.497   6.464
 4716POPC   C2B60320  36.298  44.524   6.764
 4716POPC   C3B60321  36.279  44.472   7.064
 4716POPC   C4B60322  36.297  44.534   7.364
 4717POPC   NC360323  43.153  15.929   5.564
 4717POPC   PO460324  43.094  15.957   5.864
 4717POPC   GL160325  43.084  15.983   6.164
 4717POPC   GL260326  42.971  15.917   6.164
 4717POPC   C1A60327  43.140  15.908   6.464
 4717POPC   D2A60328  43.160  15.930   6.764
 4717POPC   C3A60329  43.159  15.986   7.064
 4717POPC   C4A60330  43.133  15.991   7.364
 4717POPC   C1B60331  42.837  15.963   6.464
 4717POPC   C2B60332  42.893  15.943   6.764
 4717POPC   C3B60333  42.853  15.952   7.064
 4717POPC   C4B60334  42.874  15.916   7.364
 4718POPC   NC360335  19.055  26.839   5.564
 4718POPC   PO460336  19.071  26.861   5.864
 4718POPC   GL160337  19.088  26.774   6.164
 4718POPC   GL260338  19.193  26.696   6.164
 4718POPC   C1A60339  19.014  26.851   6.464
 4718POPC   D2A60340  19.009  26.774   6.764
 4718POPC   C3A60341  19.090  26.839   7.064
 4718POPC   C4A60342  19.075  26.780   7.364
 4718POPC   C1B60343  19.204  26.678   6.464
 4718POPC   C2B60344  19.270  26.691   6.764
 4718POPC   C3B60345  19.225  26.623   7.064
 4718POPC   C4B60346  19.253  26.629   7.364
 4719POPC   NC360347  33.773  33.003   5.564
 4719POPC   PO460348  33.795  33.004   5.864
 4719POPC   GL160349  33.837  33.045   6.164
 4719POPC   GL260350  33.747  33.097   6.164
 4719POPC   C1A60351  33.787  33.057   6.464
 4719POPC   D2A60352  33.776  33.027   6.764
 4719POPC   C3A60353  33.783  33.055   7.064
 4719POPC   C4A60354  33.849  32.984   7.364
 4719POPC   C1B60355  33.723  33.274   6.464
 4719POPC   C2B60356  33.769  33.236   6.764
 4719POPC   C3B60357  33.714  33.299   7.064
 4719POPC   C4B60358  33.689  33.295   7.364
 4720POPC   NC360359   1.971   9.751   5.564
 4720POPC   PO460360   1.981   9.743   5.864
 4720POPC   GL160361   2.014   9.751   6.164
 4720POPC   GL260362   1.901   9.781   6.164
 4720POPC   C1A60363   1.994   9.784   6.464
 4720POPC   D2A60364   1.986   9.774   6.764
 4720POPC   C3A60365   1.962   9.742   7.064
 4720POPC   C4A60366   1.946   9.752   7.364
 4720POPC   C1B60367   1.720   9.684   6.464
 4720POPC   C2B60368   1.719   9.706   6.764
 4720POPC   C3B60369   1.747   9.688   7.064
 4720POPC   C4B60370   1.714   9.771   7.364
 4721POPC   NC360371  22.179  23.697   5.564
 4721POPC   PO460372  22.177  23.681   5.864
 4721POPC   GL160373  22.124  23.738   6.164
 4721POPC   GL260374  22.265  23.577   6.164
 4721POPC   C1A60375  22.131  23.724   6.464
 4721POPC   D2A60376  22.184  23.743   6.764
 4721POPC   C3A60377  22.187  23.703   7.064
 4721POPC   C4A60378  22.155  23.736   7.364
 4721POPC   C1B60379  22.253  23.528   6.464
 4721POPC   C2B60380  22.325  23.491   6.764
 4721POPC   C3B60381  22.281  23.457   7.064
 4721POPC   C4B60382  22.292  23.518   7.364
 4722POPC   NC360383  16.755  30.647   5.564
 4722POPC   PO460384  16.766  30.744   5.864
 4722POPC   GL160385  16.733  30.720   6.164
 4722POPC   GL260386  16.720  30.784   6.164
 4722POPC   C1A60387  16.725  30.722   6.464
 4722POPC   D2A60388  16.682  30.682   6.764
 4722POPC   C3A60389  16.688  30.703   7.064
 4722POPC   C4A60390  16.751  30.730   7.364
 4722POPC   C1B60391  16.654  30.982   6.464
 4722POPC   C2B60392  16.721  30.942   6.764
 4722POPC   C3B60393  16.741  30.974   7.064
 4722POPC   C4B60394  16.709  30.931   7.364
 4723POPC   NC360395  36.160  13.653   5.564
 4723POPC   PO460396  36.080  13.586   5.864
 4723POPC   GL160397  36.083  13.578   6.164
 4723POPC   GL260398  36.274  13.605   6.164
 4723POPC   C1A60399  36.161  13.595   6.464
 4723POPC   D2A60400  36.160  13.670   6.764
 4723POPC   C3A60401  36.113  13.596   7.064
 4723POPC   C4A60402  36.094  13.642   7.364
 4723POPC   C1B60403  36.340  13.623   6.464
 4723POPC   C2B60404  36.399  13.603   6.764
 4723POPC   C3B60405  36.375  13.665   7.064
 4723POPC   C4B60406  36.351  13.623   7.364
 4724POPC   NC360407  11.333  15.908   5.564
 4724POPC   PO460408  11.280  15.998   5.864
 4724POPC   GL160409  11.272  15.909   6.164
 4724POPC   GL260410  11.209  16.024   6.164
 4724POPC   C1A60411  11.339  15.982   6.464
 4724POPC   D2A60412  11.251  15.921   6.764
 4724POPC   C3A60413  11.277  15.930   7.064
 4724POPC   C4A60414  11.345  15.987   7.364
 4724POPC   C1B60415  11.064  16.019   6.464
 4724POPC   C2B60416  11.085  16.055   6.764
 4724POPC   C3B60417  11.049  16.061   7.064
 4724POPC   C4B60418  11.030  16.094   7.364
 4725POPC   NC360419  44.617  40.021   5.564
 4725POPC   PO460420  44.643  40.001   5.864
 4725POPC   GL160421  44.662  40.002   6.164
 4725POPC   GL260422  44.632  39.839   6.164
 4725POPC   C1A60423  44.712  40.032   6.464
 4725POPC   D2A60424  44.640  39.962   6.764
 4725POPC   C3A60425  44.614  40.041   7.064
 4725POPC   C4A60426  44.646  40.044   7.364
 4725POPC   C1B60427  44.688  39.717   6.464
 4725POPC   C2B60428  44.713  39.772   6.764
 4725POPC   C3B60429  44.674  39.809   7.064
 4725POPC   C4B60430  44.678  39.774   7.364
 4726POPC   NC360431  39.983  19.072   5.564
 4726POPC   PO460432  39.995  19.087   5.864
 4726POPC   GL160433  39.988  19.099   6.164
 4726POPC   GL260434  39.884  19.102   6.164
 4726POPC   C1A60435  40.054  19.053   6.464
 4726POPC   D2A60436  39.984  19.054   6.764
 4726POPC   C3A60437  39.959  19.088   7.064
 4726POPC   C4A60438  40.049  19.088   7.364
 4726POPC   C1B60439  39.857  19.258   6.464
 4726POPC   C2B60440  39.805  19.219   6.764
 4726POPC   C3B60441  39.840  19.191   7.064
 4726POPC   C4B60442  39.878  19.239   7.364
 4727POPC   NC360443  42.379  38.464   5.564
 4727POPC   PO460444  42.381  38.428   5.864
 4727POPC   GL160445  42.336  38.452   6.164
 4727POPC   GL260446  42.252  38.317   6.164
 4727POPC   C1A60447  42.357  38.499   6.464
 4727POPC   D2A60448  42.327  38.453   6.764
 4727POPC   C3A60449  42.311  38.432   7.064
 4727POPC   C4A60450  42.338  38.499   7.364
 4727POPC   C1B60451  42.195  38.253   6.464
 4727POPC   C2B60452  42.153  38.285   6.764
 4727POPC   C3B60453  42.202  38.208   7.064
 4727POPC   C4B60454  42.228  38.203   7.364
 4728POPC   NC360455  29.937   9.700   5.564
 4728POPC   PO460456  29.921   9.729   5.864
 4728POPC   GL160457  29.877   9.714   6.164
 4728POPC   GL260458  29.992   9.675   6.164
 4728POPC   C1A60459  29.880   9.795   6.464
 4728POPC   D2A60460  29.969   9.718   6.764
 4728POPC   C3A60461  29.872   9.767   7.064
 4728POPC   C4A60462  29.939   9.794   7.364
 4728POPC   C1B60463  30.017   9.491   6.464
 4728POPC   C2B60464  30.062   9.498   6.764
 4728POPC   C3B60465  30.062   9.565   7.064
 4728POPC   C4B60466  29.971   9.483   7.364
 4729POPC   NC360467  26.029  15.964   5.564
 4729POPC   PO460468  26.001  15.998   5.864
 4729POPC   GL160469  26.011  15.915   6.164
 4729POPC   GL260470  25.948  15.924   6.164
 4729POPC   C1A60471  25.994  15.947   6.464
 4729POPC   D2A60472  26.061  15.944   6.764
 4729POPC   C3A60473  26.002  15.991   7.064
 4729POPC   C4A60474  26.047  15.957   7.364
 4729POPC   C1B60475  25.838  15.763   6.464
 4729POPC   C2B60476  25.836  15.782   6.764
 4729POPC   C3B60477  25.839  15.798   7.064
 4729POPC   C4B60478  25.833  15.752   7.364
 4730POPC   NC360479  37.646  21.365   5.564
 4730POPC   PO460480  37.659  21.417   5.864
 4730POPC   GL160481  37.650  21.431   6.164
 4730POPC   GL260482  37.672  21.498   6.164
 4730POPC   C1A60483  37.724  21.403   6.464
 4730POPC   D2A60484  37.709  21.346   6.764
 4730POPC   C3A60485  37.647  21.363   7.064
 4730POPC   C4A60486  37.689  21.347   7.364
 4730POPC   C1B60487  37.676  21.658   6.464
 4730POPC   C2B60488  37.703  21.669   6.764
 4730POPC   C3B60489  37.704  21.609   7.064
 4730POPC   C4B60490  37.723  21.603   7.364
 4731POPC   NC360491  28.414  42.301   5.564
 4731POPC   PO460492  28.374  42.317   5.864
 4731POPC   GL160493  28.365  42.365   6.164
 4731POPC   GL260494  28.448  42.417   6.164
 4731POPC   C1A60495  28.386  42.289   6.464
 4731POPC   D2A60496  28.373  42.372   6.764
 4731POPC   C3A60497  28.381  42.299   7.064
 4731POPC   C4A60498  28.387  42.379   7.364
 4731POPC   C1B60499  28.437  42.522   6.464
 4731POPC   C2B60500  28.443  42.570   6.764
 4731POPC   C3B60501  28.430  42.534   7.064
 4731POPC   C4B60502  28.485  42.542   7.364
 4732POPC   NC360503  33.003   2.015   5.564
 4732POPC   PO460504  32.989   1.969   5.864
 4732POPC   GL160505  32.979   2.018   6.164
 4732POPC   GL260506  32.956   1.854   6.164
 4732POPC   C1A60507  32.987   2.031   6.464
 4732POPC   D2A60508  33.049   1.943   6.764
 4732POPC   C3A60509  32.993   2.039   7.064
 4732POPC   C4A60510  33.060   1.989   7.364
 4732POPC   C1B60511  32.845   1.780   6.464
 4732POPC   C2B60512  32.901   1.761   6.764
 4732POPC   C3B60513  32.884   1.810   7.064
 4732POPC   C4B60514  32.929   1.769   7.364
 4733POPC   NC360515   9.715  29.191   5.564
 4733POPC   PO460516   9.721  29.160   5.864
 4733POPC   GL160517   9.738  29.134   6.164
 4733POPC   GL260518   9.906  29.098   6.164
 4733POPC   C1A60519   9.749  29.134   6.464
 4733POPC   D2A60520   9.760  29.106   6.764
 4733POPC   C3A60521   9.743  29.171   7.064
 4733POPC   C4A60522   9.720  29.157   7.364
 4733POPC   C1B60523   9.977  29.122   6.464
 4733POPC   C2B60524   9.993  29.161   6.764
 4733POPC   C3B60525   9.971  29.125   7.064
 4733POPC   C4B60526   9.973  29.083   7.364
 4734POPC   NC360527   2.747   4.355   5.564
 4734POPC   PO460528   2.789   4.311   5.864
 4734POPC   GL160529   2.801   4.328   6.164
 4734POPC   GL260530   2.623   4.250   6.164
 4734POPC   C1A60531   2.751   4.294   6.464
 4734POPC   D2A60532   2.798   4.285   6.764
 4734POPC   C3A60533   2.777   4.288   7.064
 4734POPC   C4A60534   2.786   4.302   7.364
 4734POPC   C1B60535   2.570   4.225   6.464
 4734POPC   C2B60536   2.539   4.289   6.764
 4734POPC   C3B60537   2.514   4.270   7.064
 4734POPC   C4B60538   2.477   4.255   7.364
 4735POPC   NC360539  23.685  28.324   5.564
 4735POPC   PO460540  23.708  28.325   5.864
 4735POPC   GL160541  23.737  28.399   6.164
 4735POPC   GL260542  23.849  28.493   6.164
 4735POPC   C1A60543  23.730  28.383   6.464
 4735POPC   D2A60544  23.671  28.326   6.764
 4735POPC   C3A60545  23.684  28.373   7.064
 4735POPC   C4A60546  23.740  28.396   7.364
 4735POPC   C1B60547  23.929  28.502   6.464
 4735POPC   C2B60548  23.905  28.553   6.764
 4735POPC   C3B60549  23.869  28.565   7.064
 4735POPC   C4B60550  23.892  28.488   7.364
 4736POPC   NC360551   0.460  13.602   5.564
 4736POPC   PO460552   0.431  13.664   5.864
 4736POPC   GL160553   0.476  13.670   6.164
 4736POPC   GL260554   0.342  13.676   6.164
 4736POPC   C1A60555   0.415  13.587   6.464
 4736POPC   D2A60556   0.455  13.643   6.764
 4736POPC   C3A60557   0.479  13.633   7.064
 4736POPC   C4A60558   0.471  13.656   7.364
 4736POPC   C1B60559   0.184  13.737   6.464
 4736POPC   C2B60560   0.249  13.715   6.764
 4736POPC   C3B60561   0.250  13.750   7.064
 4736POPC   C4B60562   0.217  13.723   7.364
 4737POPC   NC360563  36.875  18.261   5.564
 4737POPC   PO460564  36.916  18.288   5.864
 4737POPC   GL160565  36.946  18.252   6.164
 4737POPC   GL260566  36.799  18.244   6.164
 4737POPC   C1A60567  36.948  18.278   6.464
 4737POPC   D2A60568  36.873  18.310   6.764
 4737POPC   C3A60569  36.920  18.309   7.064
 4737POPC   C4A60570  36.874  18.236   7.364
 4737POPC   C1B60571  36.684  18.092   6.464
 4737POPC   C2B60572  36.692  18.127   6.764
 4737POPC   C3B60573  36.742  18.095   7.064
 4737POPC   C4B60574  36.719  18.153   7.364
 4738POPC   NC360575   2.793  31.425   5.564
 4738POPC   PO460576   2.746  31.470   5.864
 4738POPC   GL160577   2.815  31.503   6.164
 4738POPC   GL260578   2.797  31.306   6.164
 4738POPC   C1A60579   2.743  31.468   6.464
 4738POPC   D2A60580   2.746  31.453   6.764
 4738POPC   C3A60581   2.758  31.489   7.064
 4738POPC   C4A60582   2.726  31.459   7.364
 4738POPC   C1B60583   2.786  31.251   6.464
 4738POPC   C2B60584   2.803  31.199   6.764
 4738POPC   C3B60585   2.794  31.217   7.064
 4738POPC   C4B60586   2.760  31.227   7.364
 4739POPC   NC360587   6.664  43.880   5.564
 4739POPC   PO460588   6.688  43.881   5.864
 4739POPC   GL160589   6.664  43.890   6.164
 4739POPC   GL260590   6.488  43.835   6.164
 4739POPC   C1A60591   6.606  43.859   6.464
 4739POPC   D2A60592   6.693  43.902   6.764
 4739POPC   C3A60593   6.663  43.888   7.064
 4739POPC   C4A60594   6.618  43.841   7.364
 4739POPC   C1B60595   6.400  43.794   6.464
 4739POPC   C2B60596   6.368  43.836   6.764
 4739POPC   C3B60597   6.404  43.799   7.064
 4739POPC   C4B60598   6.447  43.817   7.364
 4740POPC   NC360599  32.199   2.807   5.564
 4740POPC   PO460600  32.286   2.793   5.864
 4740POPC   GL160601  32.232   2.792   6.164
 4740POPC   GL260602  32.226   2.606   6.164
 4740POPC   C1A60603  32.259   2.802   6.464
 4740POPC   D2A60604  32.211   2.815   6.764
 4740POPC   C3A60605  32.254   2.754   7.064
 4740POPC   C4A60606  32.231   2.765   7.364
 4740POPC   C1B60607  32.203   2.472   6.464
 4740POPC   C2B60608  32.172   2.550   6.764
 4740POPC   C3B60609  32.168   2.532   7.064
 4740POPC   C4B60610  32.194   2.494   7.364
 4741POPC   NC360611   1.244  10.480   5.564
 4741POPC   PO460612   1.253  10.509   5.864
 4741POPC   GL160613   1.250  10.481   6.164
 4741POPC   GL260614   1.221  10.670   6.164
 4741POPC   C1A60615   1.183  10.511   6.464
 4741POPC   D2A60616   1.259  10.538   6.764
 4741POPC   C3A60617   1.199  10.548   7.064
 4741POPC   C4A60618   1.233  10.493   7.364
 4741POPC   C1B60619   1.250  10.789   6.464
 4741POPC   C2B60620   1.308  10.744   6.764
 4741POPC   C3B60621   1.257  10.730   7.064
 4741POPC   C4B60622   1.312  10.748   7.364
 4742POPC   NC360623  29.891  22.952   5.564
 4742POPC   PO460624  29.898  22.913   5.864
 4742POPC   GL160625  29.942  22.891   6.164
 4742POPC   GL260626  29.909  22.831   6.164
 4742POPC   C1A60627  29.894  22.950   6.464
 4742POPC   D2A60628  29.908  22.908   6.764
 4742POPC   C3A60629  29.896  22.942   7.064
 4742POPC   C4A60630  29.898  22.951   7.364
 4742POPC   C1B60631  29.973  22.710   6.464
 4742POPC   C2B60632  29.991  22.665   6.764
 4742POPC   C3B60633  30.001  22.659   7.064
 4742POPC   C4B60634  29.982  22.721   7.364
 4743POPC   NC360635   9.728  33.800   5.564
 4743POPC   PO460636   9.729  33.837   5.864
 4743POPC   GL160637   9.751  33.774   6.164
 4743POPC   GL260638   9.730  33.886   6.164
 4743POPC   C1A60639   9.736  33.830   6.464
 4743POPC   D2A60640   9.734  33.808   6.764
 4743POPC   C3A60641   9.755  33.824   7.064
 4743POPC   C4A60642   9.750  33.763   7.364
 4743POPC   C1B60643   9.696  34.035   6.464
 4743POPC   C2B60644   9.663  34.059   6.764
 4743POPC   C3B60645   9.688  34.046   7.064
 4743POPC   C4B60646   9.640  34.037   7.364
 4744POPC   NC360647  34.531  15.208   5.564
 4744POPC   PO460648  34.616  15.179   5.864
 4744POPC   GL160649  34.619  15.178   6.164
 4744POPC   GL260650  34.426  15.273   6.164
 4744POPC   C1A60651  34.551  15.135   6.464
 4744POPC   D2A60652  34.596  15.217   6.764
 4744POPC   C3A60653  34.604  15.186   7.064
 4744POPC   C4A60654  34.565  15.186   7.364
 4744POPC   C1B60655  34.399  15.276   6.464
 4744POPC   C2B60656  34.360  15.328   6.764
 4744POPC   C3B60657  34.356  15.339   7.064
 4744POPC   C4B60658  34.403  15.305   7.364
 4745POPC   NC360659   5.825  13.612   5.564
 4745POPC   PO460660   5.856  13.615   5.864
 4745POPC   GL160661   5.877  13.632   6.164
 4745POPC   GL260662   5.938  13.743   6.164
 4745POPC   C1A60663   5.903  13.667   6.464
 4745POPC   D2A60664   5.837  13.616   6.764
 4745POPC   C3A60665   5.861  13.605   7.064
 4745POPC   C4A60666   5.858  13.630   7.364
 4745POPC   C1B60667   6.021  13.841   6.464
 4745POPC   C2B60668   6.049  13.822   6.764
 4745POPC   C3B60669   6.067  13.823   7.064
 4745POPC   C4B60670   6.031  13.750   7.364
 4746POPC   NC360671   2.805  43.908   5.564
 4746POPC   PO460672   2.774  43.855   5.864
 4746POPC   GL160673   2.765  43.892   6.164
 4746POPC   GL260674   2.857  43.810   6.164
 4746POPC   C1A60675   2.736  43.907   6.464
 4746POPC   D2A60676   2.802  43.897   6.764
 4746POPC   C3A60677   2.815  43.884   7.064
 4746POPC   C4A60678   2.785  43.907   7.364
 4746POPC   C1B60679   2.976  43.751   6.464
 4746POPC   C2B60680   2.941  43.677   6.764
 4746POPC   C3B60681   2.961  43.707   7.064
 4746POPC   C4B60682   2.952  43.723   7.364
 4747POPC   NC360683  16.001  25.285   5.564
 4747POPC   PO460684  15.966  25.262   5.864
 4747POPC   GL160685  15.910  25.244   6.164
 4747POPC   GL260686  16.123  25.265   6.164
 4747POPC   C1A60687  16.001  25.298   6.464
 4747POPC   D2A60688  15.989  25.288   6.764
 4747POPC   C3A60689  15.966  25.259   7.064
 4747POPC   C4A60690  15.976  25.265   7.364
 4747POPC   C1B60691  16.202  25.178   6.464
 4747POPC   C2B60692  16.235  25.256   6.764
 4747POPC   C3B60693  16.217  25.187   7.064
 4747POPC   C4B60694  16.172  25.232   7.364
 4748POPC   NC360695  19.841   6.680   5.564
 4748POPC   PO460696  19.859   6.674   5.864
 4748POPC   GL160697  19.848   6.643   6.164
 4748POPC   GL260698  19.811   6.495   6.164
 4748POPC   C1A60699  19.797   6.643   6.464
 4748POPC   D2A60700  19.866   6.620   6.764
 4748POPC   C3A60701  19.833   6.650   7.064
 4748POPC   C4A60702  19.873   6.596   7.364
 4748POPC   C1B60703  19.680   6.442   6.464
 4748POPC   C2B60704  19.689   6.400   6.764
 4748POPC   C3B60705  19.698   6.418   7.064
 4748POPC   C4B60706  19.733   6.482   7.364
 4749POPC   NC360707  37.701  36.167   5.564
 4749POPC   PO460708  37.654  36.155   5.864
 4749POPC   GL160709  37.645  36.155   6.164
 4749POPC   GL260710  37.581  36.274   6.164
 4749POPC   C1A60711  37.654  36.108   6.464
 4749POPC   D2A60712  37.678  36.106   6.764
 4749POPC   C3A60713  37.690  36.160   7.064
 4749POPC   C4A60714  37.666  36.159   7.364
 4749POPC   C1B60715  37.493  36.330   6.464
 4749POPC   C2B60716  37.580  36.298   6.764
 4749POPC   C3B60717  37.568  36.373   7.064
 4749POPC   C4B60718  37.565  36.323   7.364
 4750POPC   NC360719  15.921   5.874   5.564
 4750POPC   PO460720  15.909   5.840   5.864
 4750POPC   GL160721  15.968   5.847   6.164
 4750POPC   GL260722  15.870   6.012   6.164
 4750POPC   C1A60723  15.972   5.835   6.464
 4750POPC   D2A60724  15.970   5.885   6.764
 4750POPC   C3A60725  15.997   5.826   7.064
 4750POPC   C4A60726  15.996   5.842   7.364
 4750POPC   C1B60727  15.852   6.093   6.464
 4750POPC   C2B60728  15.829   6.075   6.764
 4750POPC   C3B60729  15.832   6.067   7.064
 4750POPC   C4B60730  15.896   6.091   7.364
 4751POPC   NC360731  15.158  25.289   5.564
 4751POPC   PO460732  15.213  25.276   5.864
 4751POPC   GL160733  15.206  25.219   6.164
 4751POPC   GL260734  15.333  25.214   6.164
 4751POPC   C1A60735  15.209  25.226   6.464
 4751POPC   D2A60736  15.215  25.244   6.764
 4751POPC   C3A60737  15.191  25.290   7.064
 4751POPC   C4A60738  15.192  25.237   7.364
 4751POPC   C1B60739  15.383  25.143   6.464
 4751POPC   C2B60740  15.427  25.139   6.764
 4751POPC   C3B60741  15.450  25.197   7.064
 4751POPC   C4B60742  15.437  25.213   7.364
 4752POPC   NC360743   5.908  19.852   5.564
 4752POPC   PO460744   5.831  19.883   5.864
 4752POPC   GL160745   5.896  19.858   6.164
 4752POPC   GL260746   5.859  19.999   6.164
 4752POPC   C1A60747   5.845  19.794   6.464
 4752POPC   D2A60748   5.836  19.881   6.764
 4752POPC   C3A60749   5.859  19.862   7.064
 4752POPC   C4A60750   5.900  19.800   7.364
 4752POPC   C1B60751   5.938  20.034   6.464
 4752POPC   C2B60752   5.909  20.093   6.764
 4752POPC   C3B60753   5.877  20.061   7.064
 4752POPC   C4B60754   5.943  20.065   7.364
 4753POPC   NC360755  36.864  19.094   5.564
 4753POPC   PO460756  36.934  19.045   5.864
 4753POPC   GL160757  36.857  19.061   6.164
 4753POPC   GL260758  36.994  19.026   6.164
 4753POPC   C1A60759  36.861  19.049   6.464
 4753POPC   D2A60760  36.921  19.035   6.764
 4753POPC   C3A60761  36.922  19.046   7.064
 4753POPC   C4A60762  36.894  19.049   7.364
 4753POPC   C1B60763  37.082  18.969   6.464
 4753POPC   C2B60764  37.122  18.969   6.764
 4753POPC   C3B60765  37.127  18.924   7.064
 4753POPC   C4B60766  37.098  18.892   7.364
 4754POPC   NC360767  41.604  44.686   5.564
 4754POPC   PO460768  41.520  44.615   5.864
 4754POPC   GL160769  41.545  44.666   6.164
 4754POPC   GL260770  41.705  44.671   6.164
 4754POPC   C1A60771  41.571  44.617   6.464
 4754POPC   D2A60772  41.598  44.620   6.764
 4754POPC   C3A60773  41.589  44.695   7.064
 4754POPC   C4A60774  41.570  44.658   7.364
 4754POPC   C1B60775  41.852  44.600   6.464
 4754POPC   C2B60776  41.803  44.633   6.764
 4754POPC   C3B60777  41.796  44.640   7.064
 4754POPC   C4B60778  41.780  44.677   7.364
 4755POPC   NC360779  14.395  34.549   5.564
 4755POPC   PO460780  14.373  34.566   5.864
 4755POPC   GL160781  14.418  34.589   6.164
 4755POPC   GL260782  14.346  34.699   6.164
 4755POPC   C1A60783  14.414  34.572   6.464
 4755POPC   D2A60784  14.396  34.584   6.764
 4755POPC   C3A60785  14.433  34.576   7.064
 4755POPC   C4A60786  14.359  34.541   7.364
 4755POPC   C1B60787  14.246  34.776   6.464
 4755POPC   C2B60788  14.233  34.794   6.764
 4755POPC   C3B60789  14.270  34.771   7.064
 4755POPC   C4B60790  14.243  34.796   7.364
 4756POPC   NC360791  27.554  35.330   5.564
 4756POPC   PO460792  27.643  35.353   5.864
 4756POPC   GL160793  27.583  35.333   6.164
 4756POPC   GL260794  27.504  35.415   6.164
 4756POPC   C1A60795  27.564  35.401   6.464
 4756POPC   D2A60796  27.612  35.334   6.764
 4756POPC   C3A60797  27.616  35.395   7.064
 4756POPC   C4A60798  27.592  35.388   7.364
 4756POPC   C1B60799  27.332  35.420   6.464
 4756POPC   C2B60800  27.322  35.434   6.764
 4756POPC   C3B60801  27.384  35.435   7.064
 4756POPC   C4B60802  27.386  35.399   7.364
 4757POPC   NC360803   6.649  26.048   5.564
 4757POPC   PO460804   6.652  26.013   5.864
 4757POPC   GL160805   6.685  26.009   6.164
 4757POPC   GL260806   6.542  26.013   6.164
 4757POPC   C1A60807   6.627  26.083   6.464
 4757POPC   D2A60808   6.603  26.039   6.764
 4757POPC   C3A60809   6.666  25.995   7.064
 4757POPC   C4A60810   6.598  26.074   7.364
 4757POPC   C1B60811   6.442  26.069   6.464
 4757POPC   C2B60812   6.429  26.034   6.764
 4757POPC   C3B60813   6.412  26.044   7.064
 4757POPC   C4B60814   6.356  26.060   7.364
 4758POPC   NC360815  41.584  26.828   5.564
 4758POPC   PO460816  41.539  26.774   5.864
 4758POPC   GL160817  41.519  26.836   6.164
 4758POPC   GL260818  41.581  26.720   6.164
 4758POPC   C1A60819  41.540  26.825   6.464
 4758POPC   D2A60820  41.538  26.834   6.764
 4758POPC   C3A60821  41.563  26.832   7.064
 4758POPC   C4A60822  41.533  26.822   7.364
 4758POPC   C1B60823  41.617  26.565   6.464
 4758POPC   C2B60824  41.663  26.620   6.764
 4758POPC   C3B60825  41.626  26.533   7.064
 4758POPC   C4B60826  41.664  26.602   7.364
 4759POPC   NC360827   7.434  43.924   5.564
 4759POPC   PO460828   7.449  43.913   5.864
 4759POPC   GL160829   7.376  43.838   6.164
 4759POPC   GL260830   7.325  43.983   6.164
 4759POPC   C1A60831   7.456  43.850   6.464
 4759POPC   D2A60832   7.421  43.892   6.764
 4759POPC   C3A60833   7.438  43.917   7.064
 4759POPC   C4A60834   7.427  43.915   7.364
 4759POPC   C1B60835   7.221  44.035   6.464
 4759POPC   C2B60836   7.169  44.046   6.764
 4759POPC   C3B60837   7.185  44.056   7.064
 4759POPC   C4B60838   7.243  44.054   7.364
 4760POPC   NC360839  24.503  18.320   5.564
 4760POPC   PO460840  24.446  18.237   5.864
 4760POPC   GL160841  24.466  18.317   6.164
 4760POPC   GL260842  24.491  18.421   6.164
 4760POPC   C1A60843  24.442  18.314   6.464
 4760POPC   D2A60844  24.457  18.273   6.764
 4760POPC   C3A60845  24.491  18.234   7.064
 4760POPC   C4A60846  24.519  18.247   7.364
 4760POPC   C1B60847  24.529  18.561   6.464
 4760POPC   C2B60848  24.570  18.525   6.764
 4760POPC   C3B60849  24.597  18.547   7.064
 4760POPC   C4B60850  24.547  18.497   7.364
 4761POPC   NC360851  13.625  15.143   5.564
 4761POPC   PO460852  13.663  15.147   5.864
 4761POPC   GL160853  13.614  15.209   6.164
 4761POPC   GL260854  13.757  15.213   6.164
 4761POPC   C1A60855  13.638  15.145   6.464
 4761POPC   D2A60856  13.586  15.229   6.764
 4761POPC   C3A60857  13.663  15.195   7.064
 4761POPC   C4A60858  13.620  15.209   7.364
 4761POPC   C1B60859  13.839  15.268   6.464
 4761POPC   C2B60860  13.826  15.300   6.764
 4761POPC   C3B60861  13.859  15.302   7.064
 4761POPC   C4B60862  13.840  15.266   7.364
 4762POPC   NC360863  36.906  25.234   5.564
 4762POPC   PO460864  36.932  25.252   5.864
 4762POPC   GL160865  36.864  25.302   6.164
 4762POPC   GL260866  36.764  25.208   6.164
 4762POPC   C1A60867  36.925  25.256   6.464
 4762POPC   D2A60868  36.947  25.242   6.764
 4762POPC   C3A60869  36.897  25.308   7.064
 4762POPC   C4A60870  36.886  25.257   7.364
 4762POPC   C1B60871  36.656  25.169   6.464
 4762POPC   C2B60872  36.703  25.122   6.764
 4762POPC   C3B60873  36.723  25.137   7.064
 4762POPC   C4B60874  36.715  25.162   7.364
 4763POPC   NC360875  30.681  18.237   5.564
 4763POPC   PO460876  30.668  18.301   5.864
 4763POPC   GL160877  30.697  18.280   6.164
 4763POPC   GL260878  30.600  18.138   6.164
 4763POPC   C1A60879  30.742  18.292   6.464
 4763POPC   D2A60880  30.651  18.328   6.764
 4763POPC   C3A60881  30.745  18.236   7.064
 4763POPC   C4A60882  30.692  18.325   7.364
 4763POPC   C1B60883  30.575  18.020   6.464
 4763POPC   C2B60884  30.588  18.072   6.764
 4763POPC   C3B60885  30.545  18.105   7.064
 4763POPC   C4B60886  30.568  18.061   7.364
 4764POPC   NC360887  12.863  14.379   5.564
 4764POPC   PO460888  12.883  14.363   5.864
 4764POPC   GL160889  12.888  14.438   6.164
 4764POPC   GL260890  12.958  14.483   6.164
 4764POPC   C1A60891  12.894  14.370   6.464
 4764POPC   D2A60892  12.815  14.422   6.764
 4764POPC   C3A60893  12.819  14.354   7.064
 4764POPC   C4A60894  12.861  14.436   7.364
 4764POPC   C1B60895  12.938  14.631   6.464
 4764POPC   C2B60896  12.994  14.626   6.764
 4764POPC   C3B60897  13.005  14.638   7.064
 4764POPC   C4B60898  12.983  14.613   7.364
 4765POPC   NC360899  35.321  26.046   5.564
 4765POPC   PO460900  35.363  26.072   5.864
 4765POPC   GL160901  35.326  26.081   6.164
 4765POPC   GL260902  35.334  26.169   6.164
 4765POPC   C1A60903  35.399  26.022   6.464
 4765POPC   D2A60904  35.401  26.012   6.764
 4765POPC   C3A60905  35.318  26.014   7.064
 4765POPC   C4A60906  35.383  26.018   7.364
 4765POPC   C1B60907  35.345  26.260   6.464
 4765POPC   C2B60908  35.303  26.308   6.764
 4765POPC   C3B60909  35.269  26.311   7.064
 4765POPC   C4B60910  35.323  26.261   7.364
 4766POPC   NC360911  12.078   2.786   5.564
 4766POPC   PO460912  12.032   2.752   5.864
 4766POPC   GL160913  12.069   2.726   6.164
 4766POPC   GL260914  11.992   2.711   6.164
 4766POPC   C1A60915  12.114   2.761   6.464
 4766POPC   D2A60916  12.052   2.775   6.764
 4766POPC   C3A60917  12.048   2.753   7.064
 4766POPC   C4A60918  12.085   2.726   7.364
 4766POPC   C1B60919  11.825   2.753   6.464
 4766POPC   C2B60920  11.872   2.765   6.764
 4766POPC   C3B60921  11.810   2.768   7.064
 4766POPC   C4B60922  11.861   2.716   7.364
 4767POPC   NC360923  12.815  36.862   5.564
 4767POPC   PO460924  12.836  36.863   5.864
 4767POPC   GL160925  12.853  36.896   6.164
 4767POPC   GL260926  12.890  36.808   6.164
 4767POPC   C1A60927  12.854  36.928   6.464
 4767POPC   D2A60928  12.885  36.872   6.764
 4767POPC   C3A60929  12.833  36.936   7.064
 4767POPC   C4A60930  12.818  36.886   7.364
 4767POPC   C1B60931  12.861  36.644   6.464
 4767POPC   C2B60932  12.846  36.701   6.764
 4767POPC   C3B60933  12.859  36.685   7.064
 4767POPC   C4B60934  12.895  36.674   7.364
 4768POPC   NC360935  23.727  29.927   5.564
 4768POPC   PO460936  23.674  29.947   5.864
 4768POPC   GL160937  23.696  29.909   6.164
 4768POPC   GL260938  23.821  29.953   6.164
 4768POPC   C1A60939  23.757  29.917   6.464
 4768POPC   D2A60940  23.695  29.960   6.764
 4768POPC   C3A60941  23.672  29.919   7.064
 4768POPC   C4A60942  23.727  29.936   7.364
 4768POPC   C1B60943  23.899  30.000   6.464
 4768POPC   C2B60944  23.924  29.992   6.764
 4768POPC   C3B60945  23.902  30.034   7.064
 4768POPC   C4B60946  23.937  30.030   7.364
 4769POPC   NC360947  40.807   5.062   5.564
 4769POPC   PO460948  40.755   5.076   5.864
 4769POPC   GL160949  40.806   5.079   6.164
 4769POPC   GL260950  40.809   5.170   6.164
 4769POPC   C1A60951  40.794   5.082   6.464
 4769POPC   D2A60952  40.790   5.065   6.764
 4769POPC   C3A60953  40.740   5.052   7.064
 4769POPC   C4A60954  40.778   5.135   7.364
 4769POPC   C1B60955  40.969   5.340   6.464
 4769POPC   C2B60956  40.886   5.272   6.764
 4769POPC   C3B60957  40.909   5.301   7.064
 4769POPC   C4B60958  40.917   5.285   7.364
 4770POPC   NC360959  15.202  19.810   5.564
 4770POPC   PO460960  15.173  19.859   5.864
 4770POPC   GL160961  15.132  19.814   6.164
 4770POPC   GL260962  15.320  19.807   6.164
 4770POPC   C1A60963  15.196  19.800   6.464
 4770POPC   D2A60964  15.189  19.846   6.764
 4770POPC   C3A60965  15.137  19.789   7.064
 4770POPC   C4A60966  15.154  19.857   7.364
 4770POPC   C1B60967  15.469  19.868   6.464
 4770POPC   C2B60968  15.468  19.857   6.764
 4770POPC   C3B60969  15.475  19.893   7.064
 4770POPC   C4B60970  15.440  19.873   7.364
 4771POPC   NC360971   0.415  36.863   5.564
 4771POPC   PO460972   0.478  36.870   5.864
 4771POPC   GL160973   0.442  36.901   6.164
 4771POPC   GL260974   0.551  36.800   6.164
 4771POPC   C1A60975   0.465  36.897   6.464
 4771POPC   D2A60976   0.434  36.934   6.764
 4771POPC   C3A60977   0.479  36.873   7.064
 4771POPC   C4A60978   0.453  36.913   7.364
 4771POPC   C1B60979   0.563  36.684   6.464
 4771POPC   C2B60980   0.625  36.707   6.764
 4771POPC   C3B60981   0.589  36.691   7.064
 4771POPC   C4B60982   0.566  36.699   7.364
 4772POPC   NC360983  42.302  11.348   5.564
 4772POPC   PO460984  42.306  11.252   5.864
 4772POPC   GL160985  42.351  11.268   6.164
 4772POPC   GL260986  42.259  11.380   6.164
 4772POPC   C1A60987  42.320  11.308   6.464
 4772POPC   D2A60988  42.325  11.349   6.764
 4772POPC   C3A60989  42.366  11.272   7.064
 4772POPC   C4A60990  42.379  11.317   7.364
 4772POPC   C1B60991  42.220  11.480   6.464
 4772POPC   C2B60992  42.194  11.529   6.764
 4772POPC   C3B60993  42.217  11.474   7.064
 4772POPC   C4B60994  42.213  11.555   7.364
 4773POPC   NC360995  25.992  19.099   5.564
 4773POPC   PO460996  26.014  19.067   5.864
 4773POPC   GL160997  26.058  19.033   6.164
 4773POPC   GL260998  26.066  19.154   6.164
 4773POPC   C1A60999  26.008  19.036   6.464
 4773POPC   D2A61000  26.090  19.106   6.764
 4773POPC   C3A61001  26.025  19.074   7.064
 4773POPC   C4A61002  26.064  19.095   7.364
 4773POPC   C1B61003  26.099  19.279   6.464
 4773POPC   C2B61004  26.145  19.323   6.764
 4773POPC   C3B61005  26.125  19.309   7.064
 4773POPC   C4B61006  26.108  19.297   7.364
 4774POPC   NC361007  20.621  43.141   5.564
 4774POPC   PO461008  20.591  43.134   5.864
 4774POPC   GL161009  20.649  43.134   6.164
 4774POPC   GL261010  20.723  43.154   6.164
 4774POPC   C1A61011  20.646  43.135   6.464
 4774POPC   D2A61012  20.651  43.096   6.764
 4774POPC   C3A61013  20.611  43.115   7.064
 4774POPC   C4A61014  20.599  43.150   7.364
 4774POPC   C1B61015  20.816  43.176   6.464
 4774POPC   C2B61016  20.865  43.257   6.764
 4774POPC   C3B61017  20.851  43.245   7.064
 4774POPC   C4B61018  20.819  43.221   7.364
 4775POPC   NC361019  18.258  19.089   5.564
 4775POPC   PO461020  18.258  19.108   5.864
 4775POPC   GL161021  18.314  19.047   6.164
 4775POPC   GL261022  18.364  18.965   6.164
 4775POPC   C1A61023  18.263  19.022   6.464
 4775POPC   D2A61024  18.233  19.039   6.764
 4775POPC   C3A61025  18.244  19.048   7.064
 4775POPC   C4A61026  18.253  19.101   7.364
 4775POPC   C1B61027  18.445  18.889   6.464
 4775POPC   C2B61028  18.497  18.854   6.764
 4775POPC   C3B61029  18.480  18.874   7.064
 4775POPC   C4B61030  18.454  18.841   7.364
 4776POPC   NC361031  23.719   3.538   5.564
 4776POPC   PO461032  23.723   3.502   5.864
 4776POPC   GL161033  23.671   3.533   6.164
 4776POPC   GL261034  23.633   3.611   6.164
 4776POPC   C1A61035  23.754   3.553   6.464
 4776POPC   D2A61036  23.751   3.571   6.764
 4776POPC   C3A61037  23.733   3.511   7.064
 4776POPC   C4A61038  23.733   3.550   7.364
 4776POPC   C1B61039  23.633   3.799   6.464
 4776POPC   C2B61040  23.608   3.726   6.764
 4776POPC   C3B61041  23.640   3.742   7.064
 4776POPC   C4B61042  23.603   3.757   7.364
 4777POPC   NC361043  28.359  34.553   5.564
 4777POPC   PO461044  28.377  34.612   5.864
 4777POPC   GL161045  28.403  34.609   6.164
 4777POPC   GL261046  28.375  34.688   6.164
 4777POPC   C1A61047  28.327  34.623   6.464
 4777POPC   D2A61048  28.403  34.620   6.764
 4777POPC   C3A61049  28.376  34.571   7.064
 4777POPC   C4A61050  28.336  34.531   7.364
 4777POPC   C1B61051  28.476  34.772   6.464
 4777POPC   C2B61052  28.511  34.817   6.764
 4777POPC   C3B61053  28.422  34.799   7.064
 4777POPC   C4B61054  28.488  34.757   7.364
 4778POPC   NC361055  11.287  19.824   5.564
 4778POPC   PO461056  11.320  19.792   5.864
 4778POPC   GL161057  11.344  19.796   6.164
 4778POPC   GL261058  11.213  19.797   6.164
 4778POPC   C1A61059  11.263  19.839   6.464
 4778POPC   D2A61060  11.261  19.858   6.764
 4778POPC   C3A61061  11.316  19.836   7.064
 4778POPC   C4A61062  11.332  19.786   7.364
 4778POPC   C1B61063  11.126  19.685   6.464
 4778POPC   C2B61064  11.037  19.750   6.764
 4778POPC   C3B61065  11.046  19.696   7.064
 4778POPC   C4B61066  11.064  19.724   7.364
 4779POPC   NC361067  36.090  26.858   5.564
 4779POPC   PO461068  36.170  26.822   5.864
 4779POPC   GL161069  36.101  26.791   6.164
 4779POPC   GL261070  36.196  26.896   6.164
 4779POPC   C1A61071  36.099  26.865   6.464
 4779POPC   D2A61072  36.091  26.768   6.764
 4779POPC   C3A61073  36.117  26.811   7.064
 4779POPC   C4A61074  36.100  26.776   7.364
 4779POPC   C1B61075  36.191  27.061   6.464
 4779POPC   C2B61076  36.151  27.030   6.764
 4779POPC   C3B61077  36.198  27.032   7.064
 4779POPC   C4B61078  36.144  27.038   7.364
 4780POPC   NC361079  15.924   4.346   5.564
 4780POPC   PO461080  15.918   4.296   5.864
 4780POPC   GL161081  15.984   4.292   6.164
 4780POPC   GL261082  15.892   4.193   6.164
 4780POPC   C1A61083  15.909   4.268   6.464
 4780POPC   D2A61084  15.997   4.315   6.764
 4780POPC   C3A61085  15.931   4.331   7.064
 4780POPC   C4A61086  15.969   4.348   7.364
 4780POPC   C1B61087  15.848   4.062   6.464
 4780POPC   C2B61088  15.862   4.087   6.764
 4780POPC   C3B61089  15.871   4.079   7.064
 4780POPC   C4B61090  15.907   4.118   7.364
 4781POPC   NC361091  19.033  23.678   5.564
 4781POPC   PO461092  19.086  23.668   5.864
 4781POPC   GL161093  19.050  23.710   6.164
 4781POPC   GL261094  19.009  23.636   6.164
 4781POPC   C1A61095  19.029  23.721   6.464
 4781POPC   D2A61096  19.016  23.706   6.764
 4781POPC   C3A61097  19.057  23.721   7.064
 4781POPC   C4A61098  19.080  23.688   7.364
 4781POPC   C1B61099  19.061  23.451   6.464
 4781POPC   C2B61100  19.060  23.429   6.764
 4781POPC   C3B61101  18.993  23.509   7.064
 4781POPC   C4B61102  18.972  23.468   7.364
 4782POPC   NC361103   1.203  19.869   5.564
 4782POPC   PO461104   1.226  19.838   5.864
 4782POPC   GL161105   1.237  19.803   6.164
 4782POPC   GL261106   1.163  19.729   6.164
 4782POPC   C1A61107   1.219  19.790   6.464
 4782POPC   D2A61108   1.221  19.869   6.764
 4782POPC   C3A61109   1.222  19.792   7.064
 4782POPC   C4A61110   1.259  19.866   7.364
 4782POPC   C1B61111   1.047  19.658   6.464
 4782POPC   C2B61112   1.049  19.670   6.764
 4782POPC   C3B61113   1.004  19.670   7.064
 4782POPC   C4B61114   1.073  19.632   7.364
 4783POPC   NC361115  23.721  25.216   5.564
 4783POPC   PO461116  23.684  25.293   5.864
 4783POPC   GL161117  23.709  25.311   6.164
 4783POPC   GL261118  23.831  25.192   6.164
 4783POPC   C1A61119  23.674  25.225   6.464
 4783POPC   D2A61120  23.747  25.301   6.764
 4783POPC   C3A61121  23.666  25.289   7.064
 4783POPC   C4A61122  23.691  25.243   7.364
 4783POPC   C1B61123  23.982  25.117   6.464
 4783POPC   C2B61124  23.981  25.175   6.764
 4783POPC   C3B61125  23.903  25.147   7.064
 4783POPC   C4B61126  23.963  25.177   7.364
 4784POPC   NC361127  15.965  35.375   5.564
 4784POPC   PO461128  15.991  35.400   5.864
 4784POPC   GL161129  16.004  35.307   6.164
 4784POPC   GL261130  15.962  35.486   6.164
 4784POPC   C1A61131  15.974  35.308   6.464
 4784POPC   D2A61132  15.951  35.367   6.764
 4784POPC   C3A61133  15.923  35.322   7.064
 4784POPC   C4A61134  15.918  35.303   7.364
 4784POPC   C1B61135  15.975  35.572   6.464
 4784POPC   C2B61136  15.959  35.571   6.764
 4784POPC   C3B61137  15.979  35.598   7.064
 4784POPC   C4B61138  15.988  35.555   7.364
 4785POPC   NC361139  16.705  33.813   5.564
 4785POPC   PO461140  16.695  33.788   5.864
 4785POPC   GL161141  16.734  33.802   6.164
 4785POPC   GL261142  16.800  33.861   6.164
 4785POPC   C1A61143  16.697  33.807   6.464
 4785POPC   D2A61144  16.749  33.809   6.764
 4785POPC   C3A61145  16.754  33.777   7.064
 4785POPC   C4A61146  16.756  33.827   7.364
 4785POPC   C1B61147  16.928  33.932   6.464
 4785POPC   C2B61148  16.963  33.918   6.764
 4785POPC   C3B61149  16.917  33.996   7.064
 4785POPC   C4B61150  16.896  33.981   7.364
 4786POPC   NC361151   6.624   4.327   5.564
 4786POPC   PO461152   6.617   4.267   5.864
 4786POPC   GL161153   6.615   4.286   6.164
 4786POPC   GL261154   6.671   4.419   6.164
 4786POPC   C1A61155   6.627   4.324   6.464
 4786POPC   D2A61156   6.620   4.296   6.764
 4786POPC   C3A61157   6.671   4.350   7.064
 4786POPC   C4A61158   6.607   4.357   7.364
 4786POPC   C1B61159   6.596   4.520   6.464
 4786POPC   C2B61160   6.586   4.613   6.764
 4786POPC   C3B61161   6.603   4.607   7.064
 4786POPC   C4B61162   6.656   4.587   7.364
 4787POPC   NC361163  27.604   9.727   5.564
 4787POPC   PO461164  27.575   9.703   5.864
 4787POPC   GL161165  27.602   9.754   6.164
 4787POPC   GL261166  27.674   9.600   6.164
 4787POPC   C1A61167  27.583   9.787   6.464
 4787POPC   D2A61168  27.584   9.762   6.764
 4787POPC   C3A61169  27.641   9.709   7.064
 4787POPC   C4A61170  27.569   9.794   7.364
 4787POPC   C1B61171  27.734   9.558   6.464
 4787POPC   C2B61172  27.732   9.524   6.764
 4787POPC   C3B61173  27.667   9.500   7.064
 4787POPC   C4B61174  27.687   9.539   7.364
 4788POPC   NC361175  22.178  29.905   5.564
 4788POPC   PO461176  22.192  29.959   5.864
 4788POPC   GL161177  22.164  29.883   6.164
 4788POPC   GL261178  22.125  29.984   6.164
 4788POPC   C1A61179  22.142  29.963   6.464
 4788POPC   D2A61180  22.185  29.877   6.764
 4788POPC   C3A61181  22.124  29.968   7.064
 4788POPC   C4A61182  22.169  29.965   7.364
 4788POPC   C1B61183  22.028  30.160   6.464
 4788POPC   C2B61184  21.963  30.119   6.764
 4788POPC   C3B61185  22.023  30.100   7.064
 4788POPC   C4B61186  22.043  30.086   7.364
 4789POPC   NC361187   8.934  13.660   5.564
 4789POPC   PO461188   9.007  13.644   5.864
 4789POPC   GL161189   8.958  13.584   6.164
 4789POPC   GL261190   9.031  13.727   6.164
 4789POPC   C1A61191   8.950  13.610   6.464
 4789POPC   D2A61192   8.974  13.657   6.764
 4789POPC   C3A61193   8.983  13.677   7.064
 4789POPC   C4A61194   8.960  13.673   7.364
 4789POPC   C1B61195   9.149  13.810   6.464
 4789POPC   C2B61196   9.158  13.739   6.764
 4789POPC   C3B61197   9.181  13.729   7.064
 4789POPC   C4B61198   9.217  13.797   7.364
 4790POPC   NC361199  12.027  22.945   5.564
 4790POPC   PO461200  12.063  22.908   5.864
 4790POPC   GL161201  12.043  22.987   6.164
 4790POPC   GL261202  11.985  22.878   6.164
 4790POPC   C1A61203  12.047  22.947   6.464
 4790POPC   D2A61204  12.051  22.942   6.764
 4790POPC   C3A61205  12.052  22.908   7.064
 4790POPC   C4A61206  12.042  22.954   7.364
 4790POPC   C1B61207  11.874  22.869   6.464
 4790POPC   C2B61208  11.789  22.901   6.764
 4790POPC   C3B61209  11.886  22.855   7.064
 4790POPC   C4B61210  11.827  22.843   7.364
 4791POPC   NC361211  23.730  41.532   5.564
 4791POPC   PO461212  23.742  41.572   5.864
 4791POPC   GL161213  23.713  41.579   6.164
 4791POPC   GL261214  23.559  41.565   6.164
 4791POPC   C1A61215  23.758  41.578   6.464
 4791POPC   D2A61216  23.728  41.599   6.764
 4791POPC   C3A61217  23.757  41.516   7.064
 4791POPC   C4A61218  23.697  41.514   7.364
 4791POPC   C1B61219  23.510  41.492   6.464
 4791POPC   C2B61220  23.436  41.485   6.764
 4791POPC   C3B61221  23.444  41.527   7.064
 4791POPC   C4B61222  23.469  41.492   7.364
 4792POPC   NC361223  10.565  43.841   5.564
 4792POPC   PO461224  10.509  43.926   5.864
 4792POPC   GL161225  10.549  43.879   6.164
 4792POPC   GL261226  10.553  43.960   6.164
 4792POPC   C1A61227  10.493  43.917   6.464
 4792POPC   D2A61228  10.556  43.907   6.764
 4792POPC   C3A61229  10.494  43.905   7.064
 4792POPC   C4A61230  10.560  43.920   7.364
 4792POPC   C1B61231  10.611  44.096   6.464
 4792POPC   C2B61232  10.627  44.087   6.764
 4792POPC   C3B61233  10.624  44.165   7.064
 4792POPC   C4B61234  10.659  44.083   7.364
 4793POPC   NC361235  12.073   8.943   5.564
 4793POPC   PO461236  12.028   9.019   5.864
 4793POPC   GL161237  12.077   8.942   6.164
 4793POPC   GL261238  12.243   8.984   6.164
 4793POPC   C1A61239  12.110   8.995   6.464
 4793POPC   D2A61240  12.123   8.988   6.764
 4793POPC   C3A61241  12.106   8.994   7.064
 4793POPC   C4A61242  12.087   8.941   7.364
 4793POPC   C1B61243  12.326   9.048   6.464
 4793POPC   C2B61244  12.285   9.026   6.764
 4793POPC   C3B61245  12.315   9.038   7.064
 4793POPC   C4B61246  12.348   9.016   7.364
 4794POPC   NC361247  13.588  43.127   5.564
 4794POPC   PO461248  13.677  43.117   5.864
 4794POPC   GL161249  13.628  43.069   6.164
 4794POPC   GL261250  13.724  43.035   6.164
 4794POPC   C1A61251  13.655  43.063   6.464
 4794POPC   D2A61252  13.642  43.133   6.764
 4794POPC   C3A61253  13.627  43.084   7.064
 4794POPC   C4A61254  13.670  43.060   7.364
 4794POPC   C1B61255  13.787  42.936   6.464
 4794POPC   C2B61256  13.831  42.985   6.764
 4794POPC   C3B61257  13.858  42.950   7.064
 4794POPC   C4B61258  13.862  42.929   7.364
 4795POPC   NC361259  31.444  33.767   5.564
 4795POPC   PO461260  31.518  33.811   5.864
 4795POPC   GL161261  31.434  33.794   6.164
 4795POPC   GL261262  31.434  33.692   6.164
 4795POPC   C1A61263  31.487  33.809   6.464
 4795POPC   D2A61264  31.458  33.759   6.764
 4795POPC   C3A61265  31.491  33.837   7.064
 4795POPC   C4A61266  31.483  33.842   7.364
 4795POPC   C1B61267  31.329  33.553   6.464
 4795POPC   C2B61268  31.337  33.588   6.764
 4795POPC   C3B61269  31.352  33.613   7.064
 4795POPC   C4B61270  31.353  33.611   7.364
 4796POPC   NC361271  22.906  17.488   5.564
 4796POPC   PO461272  22.890  17.546   5.864
 4796POPC   GL161273  22.949  17.458   6.164
 4796POPC   GL261274  22.953  17.400   6.164
 4796POPC   C1A61275  22.963  17.531   6.464
 4796POPC   D2A61276  22.958  17.510   6.764
 4796POPC   C3A61277  22.946  17.499   7.064
 4796POPC   C4A61278  22.908  17.529   7.364
 4796POPC   C1B61279  23.097  17.327   6.464
 4796POPC   C2B61280  23.048  17.304   6.764
 4796POPC   C3B61281  23.061  17.260   7.064
 4796POPC   C4B61282  23.057  17.312   7.364
 4797POPC   NC361283  28.398   8.166   5.564
 4797POPC   PO461284  28.377   8.189   5.864
 4797POPC   GL161285  28.324   8.241   6.164
 4797POPC   GL261286  28.516   8.109   6.164
 4797POPC   C1A61287  28.324   8.182   6.464
 4797POPC   D2A61288  28.376   8.156   6.764
 4797POPC   C3A61289  28.407   8.212   7.064
 4797POPC   C4A61290  28.410   8.230   7.364
 4797POPC   C1B61291  28.583   8.058   6.464
 4797POPC   C2B61292  28.535   8.082   6.764
 4797POPC   C3B61293  28.560   8.092   7.064
 4797POPC   C4B61294  28.594   8.101   7.364
 4798POPC   NC361295   5.911  22.163   5.564
 4798POPC   PO461296   5.848  22.207   5.864
 4798POPC   GL161297   5.832  22.175   6.164
 4798POPC   GL261298   5.786  22.240   6.164
 4798POPC   C1A61299   5.888  22.139   6.464
 4798POPC   D2A61300   5.822  22.122   6.764
 4798POPC   C3A61301   5.909  22.175   7.064
 4798POPC   C4A61302   5.824  22.143   7.364
 4798POPC   C1B61303   5.692  22.354   6.464
 4798POPC   C2B61304   5.713  22.353   6.764
 4798POPC   C3B61305   5.674  22.337   7.064
 4798POPC   C4B61306   5.658  22.369   7.364
 4799POPC   NC361307   8.167  42.332   5.564
 4799POPC   PO461308   8.190  42.357   5.864
 4799POPC   GL161309   8.235  42.367   6.164
 4799POPC   GL261310   8.188  42.472   6.164
 4799POPC   C1A61311   8.241  42.307   6.464
 4799POPC   D2A61312   8.233  42.288   6.764
 4799POPC   C3A61313   8.245  42.314   7.064
 4799POPC   C4A61314   8.182  42.310   7.364
 4799POPC   C1B61315   8.193  42.538   6.464
 4799POPC   C2B61316   8.256  42.622   6.764
 4799POPC   C3B61317   8.185  42.580   7.064
 4799POPC   C4B61318   8.222  42.588   7.364
 4800POPC   NC361319  23.747  43.148   5.564
 4800POPC   PO461320  23.755  43.091   5.864
 4800POPC   GL161321  23.711  43.128   6.164
 4800POPC   GL261322  23.730  42.997   6.164
 4800POPC   C1A61323  23.715  43.142   6.464
 4800POPC   D2A61324  23.714  43.076   6.764
 4800POPC   C3A61325  23.701  43.091   7.064
 4800POPC   C4A61326  23.759  43.139   7.364
 4800POPC   C1B61327  23.767  42.850   6.464
 4800POPC   C2B61328  23.799  42.921   6.764
 4800POPC   C3B61329  23.821  42.862   7.064
 4800POPC   C4B61330  23.836  42.827   7.364
 4801POPC   NC361331  34.573  36.941   5.564
 4801POPC   PO461332  34.609  36.933   5.864
 4801POPC   GL161333  34.563  36.887   6.164
 4801POPC   GL261334  34.609  37.016   6.164
 4801POPC   C1A61335  34.565  36.951   6.464
 4801POPC   D2A61336  34.554  36.940   6.764
 4801POPC   C3A61337  34.528  36.864   7.064
 4801POPC   C4A61338  34.535  36.857   7.364
 4801POPC   C1B61339  34.656  37.166   6.464
 4801POPC   C2B61340  34.663  37.124   6.764
 4801POPC   C3B61341  34.625  37.115   7.064
 4801POPC   C4B61342  34.602  37.092   7.364
 4802POPC   NC361343  33.815  12.835   5.564
 4802POPC   PO461344  33.808  12.817   5.864
 4802POPC   GL161345  33.759  12.889   6.164
 4802POPC   GL261346  33.972  12.858   6.164
 4802POPC   C1A61347  33.765  12.836   6.464
 4802POPC   D2A61348  33.832  12.810   6.764
 4802POPC   C3A61349  33.776  12.849   7.064
 4802POPC   C4A61350  33.803  12.871   7.364
 4802POPC   C1B61351  34.077  12.837   6.464
 4802POPC   C2B61352  34.041  12.836   6.764
 4802POPC   C3B61353  34.060  12.849   7.064
 4802POPC   C4B61354  34.091  12.864   7.364
 4803POPC   NC361355  34.526  24.508   5.564
 4803POPC   PO461356  34.537  24.478   5.864
 4803POPC   GL161357  34.548  24.450   6.164
 4803POPC   GL261358  34.544  24.644   6.164
 4803POPC   C1A61359  34.577  24.448   6.464
 4803POPC   D2A61360  34.558  24.440   6.764
 4803POPC   C3A61361  34.533  24.538   7.064
 4803POPC   C4A61362  34.606  24.459   7.364
 4803POPC   C1B61363  34.465  24.672   6.464
 4803POPC   C2B61364  34.517  24.690   6.764
 4803POPC   C3B61365  34.450  24.734   7.064
 4803POPC   C4B61366  34.530  24.675   7.364
 4804POPC   NC361367  29.194   7.371   5.564
 4804POPC   PO461368  29.181   7.414   5.864
 4804POPC   GL161369  29.122   7.436   6.164
 4804POPC   GL261370  29.244   7.313   6.164
 4804POPC   C1A61371  29.112   7.401   6.464
 4804POPC   D2A61372  29.167   7.441   6.764
 4804POPC   C3A61373  29.113   7.445   7.064
 4804POPC   C4A61374  29.121   7.467   7.364
 4804POPC   C1B61375  29.278   7.199   6.464
 4804POPC   C2B61376  29.283   7.225   6.764
 4804POPC   C3B61377  29.354   7.190   7.064
 4804POPC   C4B61378  29.286   7.269   7.364
 4805POPC   NC361379   0.432  33.031   5.564
 4805POPC   PO461380   0.485  33.045   5.864
 4805POPC   GL161381   0.418  33.064   6.164
 4805POPC   GL261382   0.334  33.110   6.164
 4805POPC   C1A61383   0.460  32.992   6.464
 4805POPC   D2A61384   0.435  33.018   6.764
 4805POPC   C3A61385   0.401  33.016   7.064
 4805POPC   C4A61386   0.394  32.982   7.364
 4805POPC   C1B61387   0.268  33.229   6.464
 4805POPC   C2B61388   0.335  33.196   6.764
 4805POPC   C3B61389   0.280  33.194   7.064
 4805POPC   C4B61390   0.341  33.246   7.364
 4806POPC   NC361391  34.543  35.392   5.564
 4806POPC   PO461392  34.617  35.328   5.864
 4806POPC   GL161393  34.602  35.349   6.164
 4806POPC   GL261394  34.597  35.265   6.164
 4806POPC   C1A61395  34.618  35.366   6.464
 4806POPC   D2A61396  34.569  35.373   6.764
 4806POPC   C3A61397  34.535  35.359   7.064
 4806POPC   C4A61398  34.571  35.397   7.364
 4806POPC   C1B61399  34.600  35.096   6.464
 4806POPC   C2B61400  34.551  35.144   6.764
 4806POPC   C3B61401  34.545  35.117   7.064
 4806POPC   C4B61402  34.576  35.079   7.364
 4807POPC   NC361403  43.100  40.828   5.564
 4807POPC   PO461404  43.075  40.817   5.864
 4807POPC   GL161405  43.139  40.764   6.164
 4807POPC   GL261406  42.947  40.756   6.164
 4807POPC   C1A61407  43.118  40.741   6.464
 4807POPC   D2A61408  43.107  40.802   6.764
 4807POPC   C3A61409  43.143  40.773   7.064
 4807POPC   C4A61410  43.078  40.745   7.364
 4807POPC   C1B61411  42.832  40.756   6.464
 4807POPC   C2B61412  42.839  40.787   6.764
 4807POPC   C3B61413  42.906  40.806   7.064
 4807POPC   C4B61414  42.857  40.842   7.364
 4808POPC   NC361415   5.060  26.034   5.564
 4808POPC   PO461416   5.139  26.083   5.864
 4808POPC   GL161417   5.110  26.077   6.164
 4808POPC   GL261418   5.170  26.033   6.164
 4808POPC   C1A61419   5.083  26.073   6.464
 4808POPC   D2A61420   5.125  26.054   6.764
 4808POPC   C3A61421   5.093  26.016   7.064
 4808POPC   C4A61422   5.096  26.010   7.364
 4808POPC   C1B61423   5.345  25.988   6.464
 4808POPC   C2B61424   5.306  26.025   6.764
 4808POPC   C3B61425   5.323  25.955   7.064
 4808POPC   C4B61426   5.298  25.958   7.364
 4809POPC   NC361427  10.480  31.506   5.564
 4809POPC   PO461428  10.535  31.451   5.864
 4809POPC   GL161429  10.538  31.488   6.164
 4809POPC   GL261430  10.669  31.443   6.164
 4809POPC   C1A61431  10.561  31.429   6.464
 4809POPC   D2A61432  10.570  31.439   6.764
 4809POPC   C3A61433  10.518  31.455   7.064
 4809POPC   C4A61434  10.492  31.493   7.364
 4809POPC   C1B61435  10.802  31.426   6.464
 4809POPC   C2B61436  10.754  31.348   6.764
 4809POPC   C3B61437  10.710  31.390   7.064
 4809POPC   C4B61438  10.788  31.364   7.364
 4810POPC   NC361439   4.361  37.683   5.564
 4810POPC   PO461440   4.338  37.682   5.864
 4810POPC   GL161441   4.294  37.650   6.164
 4810POPC   GL261442   4.320  37.580   6.164
 4810POPC   C1A61443   4.357  37.685   6.464
 4810POPC   D2A61444   4.349  37.689   6.764
 4810POPC   C3A61445   4.271  37.716   7.064
 4810POPC   C4A61446   4.305  37.635   7.364
 4810POPC   C1B61447   4.301  37.459   6.464
 4810POPC   C2B61448   4.234  37.431   6.764
 4810POPC   C3B61449   4.290  37.441   7.064
 4810POPC   C4B61450   4.291  37.422   7.364
 4811POPC   NC361451   0.483  19.879   5.564
 4811POPC   PO461452   0.401  19.840   5.864
 4811POPC   GL161453   0.393  19.792   6.164
 4811POPC   GL261454   0.511  19.802   6.164
 4811POPC   C1A61455   0.466  19.856   6.464
 4811POPC   D2A61456   0.453  19.787   6.764
 4811POPC   C3A61457   0.467  19.862   7.064
 4811POPC   C4A61458   0.413  19.835   7.364
 4811POPC   C1B61459   0.686  19.733   6.464
 4811POPC   C2B61460   0.700  19.724   6.764
 4811POPC   C3B61461   0.719  19.705   7.064
 4811POPC   C4B61462   0.668  19.736   7.364
 4812POPC   NC361463  39.967   1.238   5.564
 4812POPC   PO461464  39.968   1.218   5.864
 4812POPC   GL161465  39.992   1.257   6.164
 4812POPC   GL261466  39.918   1.083   6.164
 4812POPC   C1A61467  40.018   1.255   6.464
 4812POPC   D2A61468  40.048   1.164   6.764
 4812POPC   C3A61469  40.033   1.254   7.064
 4812POPC   C4A61470  39.977   1.251   7.364
 4812POPC   C1B61471  39.906   0.961   6.464
 4812POPC   C2B61472  39.829   1.031   6.764
 4812POPC   C3B61473  39.903   0.964   7.064
 4812POPC   C4B61474  39.835   1.038   7.364
 4813POPC   NC361475  15.199  15.955   5.564
 4813POPC   PO461476  15.158  15.999   5.864
 4813POPC   GL161477  15.218  15.932   6.164
 4813POPC   GL261478  15.065  15.890   6.164
 4813POPC   C1A61479  15.145  15.937   6.464
 4813POPC   D2A61480  15.211  15.987   6.764
 4813POPC   C3A61481  15.132  15.940   7.064
 4813POPC   C4A61482  15.212  15.947   7.364
 4813POPC   C1B61483  14.918  15.904   6.464
 4813POPC   C2B61484  14.917  15.868   6.764
 4813POPC   C3B61485  14.969  15.851   7.064
 4813POPC   C4B61486  14.908  15.917   7.364
 4814POPC   NC361487  19.104  42.366   5.564
 4814POPC   PO461488  19.078  42.380   5.864
 4814POPC   GL161489  19.042  42.376   6.164
 4814POPC   GL261490  19.024  42.231   6.164
 4814POPC   C1A61491  19.101  42.340   6.464
 4814POPC   D2A61492  19.105  42.295   6.764
 4814POPC   C3A61493  19.074  42.336   7.064
 4814POPC   C4A61494  19.025  42.367   7.364
 4814POPC   C1B61495  19.052  42.122   6.464
 4814POPC   C2B61496  19.028  42.112   6.764
 4814POPC   C3B61497  19.068  42.084   7.064
 4814POPC   C4B61498  19.079  42.121   7.364
 4815POPC   NC361499  25.301  43.103   5.564
 4815POPC   PO461500  25.298  43.091   5.864
 4815POPC   GL161501  25.294  43.117   6.164
 4815POPC   GL261502  25.286  43.182   6.164
 4815POPC   C1A61503  25.277  43.128   6.464
 4815POPC   D2A61504  25.298  43.070   6.764
 4815POPC   C3A61505  25.256  43.068   7.064
 4815POPC   C4A61506  25.276  43.093   7.364
 4815POPC   C1B61507  25.377  43.275   6.464
 4815POPC   C2B61508  25.396  43.288   6.764
 4815POPC   C3B61509  25.396  43.310   7.064
 4815POPC   C4B61510  25.429  43.318   7.364
 4816POPC   NC361511  10.517  12.826   5.564
 4816POPC   PO461512  10.512  12.900   5.864
 4816POPC   GL161513  10.529  12.810   6.164
 4816POPC   GL261514  10.621  12.893   6.164
 4816POPC   C1A61515  10.506  12.838   6.464
 4816POPC   D2A61516  10.506  12.893   6.764
 4816POPC   C3A61517  10.571  12.825   7.064
 4816POPC   C4A61518  10.517  12.824   7.364
 4816POPC   C1B61519  10.693  12.941   6.464
 4816POPC   C2B61520  10.732  12.945   6.764
 4816POPC   C3B61521  10.777  12.966   7.064
 4816POPC   C4B61522  10.768  13.001   7.364
 4817POPC   NC361523  19.835  22.146   5.564
 4817POPC   PO461524  19.825  22.155   5.864
 4817POPC   GL161525  19.839  22.211   6.164
 4817POPC   GL261526  19.864  22.049   6.164
 4817POPC   C1A61527  19.828  22.147   6.464
 4817POPC   D2A61528  19.806  22.201   6.764
 4817POPC   C3A61529  19.872  22.209   7.064
 4817POPC   C4A61530  19.868  22.150   7.364
 4817POPC   C1B61531  19.957  22.004   6.464
 4817POPC   C2B61532  19.942  21.932   6.764
 4817POPC   C3B61533  20.022  21.975   7.064
 4817POPC   C4B61534  20.002  21.953   7.364
 4818POPC   NC361535  33.808  11.300   5.564
 4818POPC   PO461536  33.820  11.322   5.864
 4818POPC   GL161537  33.815  11.303   6.164
 4818POPC   GL261538  33.817  11.446   6.164
 4818POPC   C1A61539  33.763  11.307   6.464
 4818POPC   D2A61540  33.788  11.263   6.764
 4818POPC   C3A61541  33.790  11.270   7.064
 4818POPC   C4A61542  33.781  11.261   7.364
 4818POPC   C1B61543  33.972  11.517   6.464
 4818POPC   C2B61544  33.900  11.529   6.764
 4818POPC   C3B61545  33.911  11.483   7.064
 4818POPC   C4B61546  33.943  11.541   7.364
 4819POPC   NC361547  16.759   8.932   5.564
 4819POPC   PO461548  16.702   8.961   5.864
 4819POPC   GL161549  16.741   9.014   6.164
 4819POPC   GL261550  16.667   8.914   6.164
 4819POPC   C1A61551  16.745   8.931   6.464
 4819POPC   D2A61552  16.726   8.971   6.764
 4819POPC   C3A61553  16.739   8.980   7.064
 4819POPC   C4A61554  16.694   8.932   7.364
 4819POPC   C1B61555  16.541   8.897   6.464
 4819POPC   C2B61556  16.559   8.883   6.764
 4819POPC   C3B61557  16.485   8.834   7.064
 4819POPC   C4B61558  16.518   8.848   7.364
 4820POPC   NC361559  20.659  19.816   5.564
 4820POPC   PO461560  20.592  19.822   5.864
 4820POPC   GL161561  20.644  19.851   6.164
 4820POPC   GL261562  20.566  19.963   6.164
 4820POPC   C1A61563  20.574  19.874   6.464
 4820POPC   D2A61564  20.643  19.815   6.764
 4820POPC   C3A61565  20.658  19.819   7.064
 4820POPC   C4A61566  20.617  19.791   7.364
 4820POPC   C1B61567  20.568  20.053   6.464
 4820POPC   C2B61568  20.577  20.074   6.764
 4820POPC   C3B61569  20.524  20.037   7.064
 4820POPC   C4B61570  20.497  20.094   7.364
 4821POPC   NC361571  40.819   2.727   5.564
 4821POPC   PO461572  40.775   2.736   5.864
 4821POPC   GL161573  40.735   2.743   6.164
 4821POPC   GL261574  40.878   2.749   6.164
 4821POPC   C1A61575  40.746   2.787   6.464
 4821POPC   D2A61576  40.742   2.805   6.764
 4821POPC   C3A61577  40.772   2.815   7.064
 4821POPC   C4A61578  40.786   2.766   7.364
 4821POPC   C1B61579  41.079   2.790   6.464
 4821POPC   C2B61580  41.034   2.830   6.764
 4821POPC   C3B61581  41.046   2.794   7.064
 4821POPC   C4B61582  41.053   2.815   7.364
 4822POPC   NC361583  40.815  33.815   5.564
 4822POPC   PO461584  40.797  33.795   5.864
 4822POPC   GL161585  40.740  33.823   6.164
 4822POPC   GL261586  40.819  33.935   6.164
 4822POPC   C1A61587  40.757  33.810   6.464
 4822POPC   D2A61588  40.771  33.802   6.764
 4822POPC   C3A61589  40.824  33.828   7.064
 4822POPC   C4A61590  40.764  33.847   7.364
 4822POPC   C1B61591  40.764  34.082   6.464
 4822POPC   C2B61592  40.815  34.083   6.764
 4822POPC   C3B61593  40.790  34.021   7.064
 4822POPC   C4B61594  40.808  34.051   7.364
 4823POPC   NC361595  29.133  37.636   5.564
 4823POPC   PO461596  29.150  37.667   5.864
 4823POPC   GL161597  29.172  37.680   6.164
 4823POPC   GL261598  29.295  37.720   6.164
 4823POPC   C1A61599  29.187  37.706   6.464
 4823POPC   D2A61600  29.119  37.705   6.764
 4823POPC   C3A61601  29.107  37.656   7.064
 4823POPC   C4A61602  29.141  37.653   7.364
 4823POPC   C1B61603  29.407  37.664   6.464
 4823POPC   C2B61604  29.360  37.638   6.764
 4823POPC   C3B61605  29.423  37.705   7.064
 4823POPC   C4B61606  29.351  37.627   7.364
 4824POPC   NC361607  22.905  44.671   5.564
 4824POPC   PO461608  22.955  44.659   5.864
 4824POPC   GL161609  22.902  44.702   6.164
 4824POPC   GL261610  22.791  44.585   6.164
 4824POPC   C1A61611  22.895  44.625   6.464
 4824POPC   D2A61612  22.942  44.683   6.764
 4824POPC   C3A61613  22.919  44.685   7.064
 4824POPC   C4A61614  22.922  44.665   7.364
 4824POPC   C1B61615  22.703  44.557   6.464
 4824POPC   C2B61616  22.741  44.609   6.764
 4824POPC   C3B61617  22.722  44.527   7.064
 4824POPC   C4B61618  22.663  44.575   7.364
 4825POPC   NC361619   1.230   9.705   5.564
 4825POPC   PO461620   1.258   9.783   5.864
 4825POPC   GL161621   1.220   9.754   6.164
 4825POPC   GL261622   1.323   9.648   6.164
 4825POPC   C1A61623   1.253   9.736   6.464
 4825POPC   D2A61624   1.177   9.738   6.764
 4825POPC   C3A61625   1.233   9.748   7.064
 4825POPC   C4A61626   1.232   9.713   7.364
 4825POPC   C1B61627   1.430   9.663   6.464
 4825POPC   C2B61628   1.464   9.655   6.764
 4825POPC   C3B61629   1.426   9.686   7.064
 4825POPC   C4B61630   1.480   9.611   7.364
 4826POPC   NC361631  43.066  33.031   5.564
 4826POPC   PO461632  43.134  33.012   5.864
 4826POPC   GL161633  43.083  32.978   6.164
 4826POPC   GL261634  43.003  33.021   6.164
 4826POPC   C1A61635  43.093  33.041   6.464
 4826POPC   D2A61636  43.115  33.012   6.764
 4826POPC   C3A61637  43.070  32.990   7.064
 4826POPC   C4A61638  43.145  33.055   7.364
 4826POPC   C1B61639  42.831  32.896   6.464
 4826POPC   C2B61640  42.857  32.912   6.764
 4826POPC   C3B61641  42.926  32.932   7.064
 4826POPC   C4B61642  42.852  32.960   7.364
 4827POPC   NC361643   2.004  22.156   5.564
 4827POPC   PO461644   2.035  22.121   5.864
 4827POPC   GL161645   2.026  22.211   6.164
 4827POPC   GL261646   2.138  22.246   6.164
 4827POPC   C1A61647   1.942  22.127   6.464
 4827POPC   D2A61648   1.992  22.149   6.764
 4827POPC   C3A61649   1.986  22.145   7.064
 4827POPC   C4A61650   2.035  22.129   7.364
 4827POPC   C1B61651   2.191  22.272   6.464
 4827POPC   C2B61652   2.191  22.296   6.764
 4827POPC   C3B61653   2.217  22.297   7.064
 4827POPC   C4B61654   2.188  22.315   7.364
 4828POPC   NC361655  15.218  33.809   5.564
 4828POPC   PO461656  15.222  33.794   5.864
 4828POPC   GL161657  15.218  33.778   6.164
 4828POPC   GL261658  15.238  33.899   6.164
 4828POPC   C1A61659  15.192  33.780   6.464
 4828POPC   D2A61660  15.163  33.840   6.764
 4828POPC   C3A61661  15.193  33.825   7.064
 4828POPC   C4A61662  15.225  33.810   7.364
 4828POPC   C1B61663  15.211  34.054   6.464
 4828POPC   C2B61664  15.248  34.088   6.764
 4828POPC   C3B61665  15.214  34.067   7.064
 4828POPC   C4B61666  15.210  34.053   7.364
 4829POPC   NC361667  43.116   8.209   5.564
 4829POPC   PO461668  43.065   8.195   5.864
 4829POPC   GL161669  43.065   8.178   6.164
 4829POPC   GL261670  42.996   8.206   6.164
 4829POPC   C1A61671  43.148   8.185   6.464
 4829POPC   D2A61672  43.121   8.152   6.764
 4829POPC   C3A61673  43.075   8.202   7.064
 4829POPC   C4A61674  43.065   8.222   7.364
 4829POPC   C1B61675  42.907   8.300   6.464
 4829POPC   C2B61676  42.826   8.222   6.764
 4829POPC   C3B61677  42.865   8.257   7.064
 4829POPC   C4B61678  42.890   8.221   7.364
 4830POPC   NC361679  36.914  28.332   5.564
 4830POPC   PO461680  36.901  28.368   5.864
 4830POPC   GL161681  36.886  28.356   6.164
 4830POPC   GL261682  37.035  28.310   6.164
 4830POPC   C1A61683  36.909  28.365   6.464
 4830POPC   D2A61684  36.946  28.410   6.764
 4830POPC   C3A61685  36.857  28.334   7.064
 4830POPC   C4A61686  36.920  28.411   7.364
 4830POPC   C1B61687  37.067  28.206   6.464
 4830POPC   C2B61688  37.090  28.224   6.764
 4830POPC   C3B61689  37.082  28.192   7.064
 4830POPC   C4B61690  37.075  28.167   7.364
 4831POPC   NC361691  26.794   4.302   5.564
 4831POPC   PO461692  26.856   4.276   5.864
 4831POPC   GL161693  26.812   4.327   6.164
 4831POPC   GL261694  26.680   4.313   6.164
 4831POPC   C1A61695  26.777   4.292   6.464
 4831POPC   D2A61696  26.824   4.276   6.764
 4831POPC   C3A61697  26.803   4.318   7.064
 4831POPC   C4A61698  26.836   4.339   7.364
 4831POPC   C1B61699  26.615   4.272   6.464
 4831POPC   C2B61700  26.624   4.232   6.764
 4831POPC   C3B61701  26.528   4.277   7.064
 4831POPC   C4B61702  26.568   4.209   7.364
 4832POPC   NC361703   5.871  16.744   5.564
 4832POPC   PO461704   5.894  16.770   5.864
 4832POPC   GL161705   5.876  16.738   6.164
 4832POPC   GL261706   5.783  16.709   6.164
 4832POPC   C1A61707   5.867  16.726   6.464
 4832POPC   D2A61708   5.862  16.771   6.764
 4832POPC   C3A61709   5.874  16.706   7.064
 4832POPC   C4A61710   5.835  16.778   7.364
 4832POPC   C1B61711   5.609  16.713   6.464
 4832POPC   C2B61712   5.633  16.622   6.764
 4832POPC   C3B61713   5.671  16.718   7.064
 4832POPC   C4B61714   5.669  16.672   7.364
 4833POPC   NC361715  43.858  33.793   5.564
 4833POPC   PO461716  43.895  33.836   5.864
 4833POPC   GL161717  43.867  33.751   6.164
 4833POPC   GL261718  43.945  33.890   6.164
 4833POPC   C1A61719  43.900  33.768   6.464
 4833POPC   D2A61720  43.863  33.754   6.764
 4833POPC   C3A61721  43.861  33.845   7.064
 4833POPC   C4A61722  43.936  33.847   7.364
 4833POPC   C1B61723  43.911  34.002   6.464
 4833POPC   C2B61724  43.966  34.041   6.764
 4833POPC   C3B61725  43.968  34.092   7.064
 4833POPC   C4B61726  43.957  34.018   7.364
 4834POPC   NC361727  21.351  12.042   5.564
 4834POPC   PO461728  21.376  12.057   5.864
 4834POPC   GL161729  21.422  12.074   6.164
 4834POPC   GL261730  21.365  12.202   6.164
 4834POPC   C1A61731  21.361  12.094   6.464
 4834POPC   D2A61732  21.403  12.049   6.764
 4834POPC   C3A61733  21.367  12.026   7.064
 4834POPC   C4A61734  21.404  12.103   7.364
 4834POPC   C1B61735  21.198  12.319   6.464
 4834POPC   C2B61736  21.198  12.255   6.764
 4834POPC   C3B61737  21.257  12.251   7.064
 4834POPC   C4B61738  21.238  12.318   7.364
 4835POPC   NC361739  35.398   4.308   5.564
 4835POPC   PO461740  35.310   4.300   5.864
 4835POPC   GL161741  35.348   4.334   6.164
 4835POPC   GL261742  35.402   4.149   6.164
 4835POPC   C1A61743  35.322   4.291   6.464
 4835POPC   D2A61744  35.347   4.340   6.764
 4835POPC   C3A61745  35.364   4.298   7.064
 4835POPC   C4A61746  35.366   4.289   7.364
 4835POPC   C1B61747  35.425   4.127   6.464
 4835POPC   C2B61748  35.389   4.085   6.764
 4835POPC   C3B61749  35.461   4.097   7.064
 4835POPC   C4B61750  35.385   4.032   7.364
 4836POPC   NC361751  44.687  19.789   5.564
 4836POPC   PO461752  44.700  19.785   5.864
 4836POPC   GL161753  44.704  19.804   6.164
 4836POPC   GL261754  44.791  19.838   6.164
 4836POPC   C1A61755  44.657  19.837   6.464
 4836POPC   D2A61756  44.657  19.838   6.764
 4836POPC   C3A61757  44.619  19.812   7.064
 4836POPC   C4A61758  44.642  19.824   7.364
 4836POPC   C1B61759  44.939  19.774   6.464
 4836POPC   C2B61760  44.935  19.862   6.764
 4836POPC   C3B61761  44.884  19.829   7.064
 4836POPC   C4B61762  44.925  19.861   7.364
 4837POPC   NC361763  19.810  33.757   5.564
 4837POPC   PO461764  19.853  33.830   5.864
 4837POPC   GL161765  19.828  33.795   6.164
 4837POPC   GL261766  19.950  33.834   6.164
 4837POPC   C1A61767  19.856  33.766   6.464
 4837POPC   D2A61768  19.839  33.793   6.764
 4837POPC   C3A61769  19.843  33.817   7.064
 4837POPC   C4A61770  19.818  33.766   7.364
 4837POPC   C1B61771  20.036  33.928   6.464
 4837POPC   C2B61772  20.027  33.952   6.764
 4837POPC   C3B61773  20.011  33.889   7.064
 4837POPC   C4B61774  20.105  33.885   7.364
 4838POPC   NC361775  13.589  19.826   5.564
 4838POPC   PO461776  13.664  19.790   5.864
 4838POPC   GL161777  13.617  19.874   6.164
 4838POPC   GL261778  13.656  19.937   6.164
 4838POPC   C1A61779  13.666  19.845   6.464
 4838POPC   D2A61780  13.637  19.812   6.764
 4838POPC   C3A61781  13.647  19.808   7.064
 4838POPC   C4A61782  13.641  19.880   7.364
 4838POPC   C1B61783  13.708  20.099   6.464
 4838POPC   C2B61784  13.736  20.049   6.764
 4838POPC   C3B61785  13.681  20.041   7.064
 4838POPC   C4B61786  13.672  20.107   7.364
 4839POPC   NC361787   2.730  41.514   5.564
 4839POPC   PO461788   2.772  41.573   5.864
 4839POPC   GL161789   2.743  41.537   6.164
 4839POPC   GL261790   2.671  41.471   6.164
 4839POPC   C1A61791   2.778  41.535   6.464
 4839POPC   D2A61792   2.727  41.537   6.764
 4839POPC   C3A61793   2.758  41.549   7.064
 4839POPC   C4A61794   2.764  41.542   7.364
 4839POPC   C1B61795   2.554  41.458   6.464
 4839POPC   C2B61796   2.505  41.486   6.764
 4839POPC   C3B61797   2.513  41.456   7.064
 4839POPC   C4B61798   2.551  41.453   7.364
 4840POPC   NC361799  17.538  12.041   5.564
 4840POPC   PO461800  17.522  12.124   5.864
 4840POPC   GL161801  17.473  12.106   6.164
 4840POPC   GL261802  17.588  12.110   6.164
 4840POPC   C1A61803  17.546  12.072   6.464
 4840POPC   D2A61804  17.515  12.100   6.764
 4840POPC   C3A61805  17.511  12.068   7.064
 4840POPC   C4A61806  17.545  12.047   7.364
 4840POPC   C1B61807  17.803  12.064   6.464
 4840POPC   C2B61808  17.766  12.076   6.764
 4840POPC   C3B61809  17.767  12.086   7.064
 4840POPC   C4B61810  17.717  12.083   7.364
 4841POPC   NC361811  16.682  34.530   5.564
 4841POPC   PO461812  16.688  34.591   5.864
 4841POPC   GL161813  16.724  34.615   6.164
 4841POPC   GL261814  16.660  34.703   6.164
 4841POPC   C1A61815  16.685  34.594   6.464
 4841POPC   D2A61816  16.731  34.553   6.764
 4841POPC   C3A61817  16.773  34.581   7.064
 4841POPC   C4A61818  16.740  34.623   7.364
 4841POPC   C1B61819  16.545  34.758   6.464
 4841POPC   C2B61820  16.510  34.737   6.764
 4841POPC   C3B61821  16.560  34.755   7.064
 4841POPC   C4B61822  16.551  34.739   7.364
 4842POPC   NC361823  12.846   7.459   5.564
 4842POPC   PO461824  12.804   7.381   5.864
 4842POPC   GL161825  12.825   7.404   6.164
 4842POPC   GL261826  12.773   7.508   6.164
 4842POPC   C1A61827  12.877   7.384   6.464
 4842POPC   D2A61828  12.850   7.406   6.764
 4842POPC   C3A61829  12.864   7.376   7.064
 4842POPC   C4A61830  12.898   7.387   7.364
 4842POPC   C1B61831  12.651   7.603   6.464
 4842POPC   C2B61832  12.681   7.577   6.764
 4842POPC   C3B61833  12.734   7.579   7.064
 4842POPC   C4B61834  12.729   7.577   7.364
 4843POPC   NC361835  16.692  37.715   5.564
 4843POPC   PO461836  16.758  37.637   5.864
 4843POPC   GL161837  16.773  37.633   6.164
 4843POPC   GL261838  16.598  37.593   6.164
 4843POPC   C1A61839  16.719  37.642   6.464
 4843POPC   D2A61840  16.702  37.724   6.764
 4843POPC   C3A61841  16.761  37.708   7.064
 4843POPC   C4A61842  16.696  37.705   7.364
 4843POPC   C1B61843  16.491  37.574   6.464
 4843POPC   C2B61844  16.512  37.575   6.764
 4843POPC   C3B61845  16.465  37.545   7.064
 4843POPC   C4B61846  16.452  37.617   7.364
 4844POPC   NC361847   5.843   7.379   5.564
 4844POPC   PO461848   5.872   7.466   5.864
 4844POPC   GL161849   5.857   7.391   6.164
 4844POPC   GL261850   6.037   7.441   6.164
 4844POPC   C1A61851   5.917   7.408   6.464
 4844POPC   D2A61852   5.901   7.394   6.764
 4844POPC   C3A61853   5.855   7.466   7.064
 4844POPC   C4A61854   5.910   7.394   7.364
 4844POPC   C1B61855   6.151   7.448   6.464
 4844POPC   C2B61856   6.098   7.486   6.764
 4844POPC   C3B61857   6.085   7.460   7.064
 4844POPC   C4B61858   6.161   7.440   7.364
 4845POPC   NC361859  30.733   9.752   5.564
 4845POPC   PO461860  30.647   9.780   5.864
 4845POPC   GL161861  30.727   9.753   6.164
 4845POPC   GL261862  30.863   9.768   6.164
 4845POPC   C1A61863  30.709   9.786   6.464
 4845POPC   D2A61864  30.725   9.718   6.764
 4845POPC   C3A61865  30.728   9.729   7.064
 4845POPC   C4A61866  30.724   9.708   7.364
 4845POPC   C1B61867  30.989   9.787   6.464
 4845POPC   C2B61868  30.985   9.734   6.764
 4845POPC   C3B61869  30.911   9.804   7.064
 4845POPC   C4B61870  30.929   9.792   7.364
 4846POPC   NC361871  43.838  43.932   5.564
 4846POPC   PO461872  43.899  43.903   5.864
 4846POPC   GL161873  43.907  43.893   6.164
 4846POPC   GL261874  43.810  43.966   6.164
 4846POPC   C1A61875  43.863  43.881   6.464
 4846POPC   D2A61876  43.913  43.923   6.764
 4846POPC   C3A61877  43.883  43.895   7.064
 4846POPC   C4A61878  43.921  43.890   7.364
 4846POPC   C1B61879  43.811  44.082   6.464
 4846POPC   C2B61880  43.736  44.070   6.764
 4846POPC   C3B61881  43.737  44.095   7.064
 4846POPC   C4B61882  43.751  44.098   7.364
 4847POPC   NC361883  15.908   9.777   5.564
 4847POPC   PO461884  15.972   9.784   5.864
 4847POPC   GL161885  15.992   9.780   6.164
 4847POPC   GL261886  15.848   9.716   6.164
 4847POPC   C1A61887  15.926   9.762   6.464
 4847POPC   D2A61888  15.911   9.731   6.764
 4847POPC   C3A61889  15.940   9.725   7.064
 4847POPC   C4A61890  15.916   9.721   7.364
 4847POPC   C1B61891  15.672   9.694   6.464
 4847POPC   C2B61892  15.744   9.685   6.764
 4847POPC   C3B61893  15.720   9.715   7.064
 4847POPC   C4B61894  15.716   9.711   7.364
 4848POPC   NC361895  14.450  29.113   5.564
 4848POPC   PO461896  14.442  29.185   5.864
 4848POPC   GL161897  14.388  29.110   6.164
 4848POPC   GL261898  14.336  29.039   6.164
 4848POPC   C1A61899  14.362  29.190   6.464
 4848POPC   D2A61900  14.449  29.099   6.764
 4848POPC   C3A61901  14.438  29.172   7.064
 4848POPC   C4A61902  14.427  29.168   7.364
 4848POPC   C1B61903  14.383  28.854   6.464
 4848POPC   C2B61904  14.398  28.861   6.764
 4848POPC   C3B61905  14.408  28.910   7.064
 4848POPC   C4B61906  14.409  28.911   7.364
 4849POPC   NC361907   8.177  34.562   5.564
 4849POPC   PO461908   8.175  34.626   5.864
 4849POPC   GL161909   8.182  34.592   6.164
 4849POPC   GL261910   8.266  34.471   6.164
 4849POPC   C1A61911   8.233  34.566   6.464
 4849POPC   D2A61912   8.152  34.558   6.764
 4849POPC   C3A61913   8.228  34.580   7.064
 4849POPC   C4A61914   8.190  34.542   7.364
 4849POPC   C1B61915   8.394  34.351   6.464
 4849POPC   C2B61916   8.306  34.384   6.764
 4849POPC   C3B61917   8.386  34.413   7.064
 4849POPC   C4B61918   8.392  34.378   7.364
 4850POPC   NC361919  40.055  38.502   5.564
 4850POPC   PO461920  40.005  38.460   5.864
 4850POPC   GL161921  40.047  38.421   6.164
 4850POPC   GL261922  40.143  38.454   6.164
 4850POPC   C1A61923  39.979  38.420   6.464
 4850POPC   D2A61924  40.009  38.488   6.764
 4850POPC   C3A61925  39.997  38.443   7.064
 4850POPC   C4A61926  39.967  38.416   7.364
 4850POPC   C1B61927  40.242  38.495   6.464
 4850POPC   C2B61928  40.284  38.544   6.764
 4850POPC   C3B61929  40.222  38.503   7.064
 4850POPC   C4B61930  40.228  38.487   7.364
 4851POPC   NC361931  28.374  17.532   5.564
 4851POPC   PO461932  28.410  17.523   5.864
 4851POPC   GL161933  28.368  17.489   6.164
 4851POPC   GL261934  28.357  17.402   6.164
 4851POPC   C1A61935  28.405  17.463   6.464
 4851POPC   D2A61936  28.319  17.500   6.764
 4851POPC   C3A61937  28.388  17.547   7.064
 4851POPC   C4A61938  28.334  17.519   7.364
 4851POPC   C1B61939  28.412  17.256   6.464
 4851POPC   C2B61940  28.350  17.292   6.764
 4851POPC   C3B61941  28.416  17.242   7.064
 4851POPC   C4B61942  28.358  17.300   7.364
 4852POPC   NC361943  32.993  19.033   5.564
 4852POPC   PO461944  33.046  19.024   5.864
 4852POPC   GL161945  33.073  19.041   6.164
 4852POPC   GL261946  33.144  18.964   6.164
 4852POPC   C1A61947  33.030  19.030   6.464
 4852POPC   D2A61948  32.997  19.080   6.764
 4852POPC   C3A61949  33.072  19.100   7.064
 4852POPC   C4A61950  33.034  19.025   7.364
 4852POPC   C1B61951  33.170  18.870   6.464
 4852POPC   C2B61952  33.204  18.879   6.764
 4852POPC   C3B61953  33.204  18.862   7.064
 4852POPC   C4B61954  33.256  18.864   7.364
 4853POPC   NC361955  32.206  23.686   5.564
 4853POPC   PO461956  32.225  23.748   5.864
 4853POPC   GL161957  32.296  23.664   6.164
 4853POPC   GL261958  32.336  23.677   6.164
 4853POPC   C1A61959  32.239  23.756   6.464
 4853POPC   D2A61960  32.258  23.751   6.764
 4853POPC   C3A61961  32.276  23.762   7.064
 4853POPC   C4A61962  32.199  23.667   7.364
 4853POPC   C1B61963  32.446  23.691   6.464
 4853POPC   C2B61964  32.480  23.687   6.764
 4853POPC   C3B61965  32.525  23.700   7.064
 4853POPC   C4B61966  32.523  23.714   7.364
 4854POPC   NC361967  24.482  15.997   5.564
 4854POPC   PO461968  24.452  15.955   5.864
 4854POPC   GL161969  24.474  15.931   6.164
 4854POPC   GL261970  24.522  16.037   6.164
 4854POPC   C1A61971  24.449  15.995   6.464
 4854POPC   D2A61972  24.523  15.980   6.764
 4854POPC   C3A61973  24.531  15.996   7.064
 4854POPC   C4A61974  24.527  15.927   7.364
 4854POPC   C1B61975  24.459  16.190   6.464
 4854POPC   C2B61976  24.537  16.242   6.764
 4854POPC   C3B61977  24.527  16.236   7.064
 4854POPC   C4B61978  24.515  16.182   7.364
 4855POPC   NC361979  12.047   1.959   5.564
 4855POPC   PO461980  12.089   2.004   5.864
 4855POPC   GL161981  12.051   2.004   6.164
 4855POPC   GL261982  12.136   1.841   6.164
 4855POPC   C1A61983  12.041   1.952   6.464
 4855POPC   D2A61984  12.053   2.032   6.764
 4855POPC   C3A61985  12.027   1.959   7.064
 4855POPC   C4A61986  12.061   1.976   7.364
 4855POPC   C1B61987  12.163   1.746   6.464
 4855POPC   C2B61988  12.255   1.795   6.764
 4855POPC   C3B61989  12.240   1.798   7.064
 4855POPC   C4B61990  12.233   1.819   7.364
 4856POPC   NC361991   1.193  24.485   5.564
 4856POPC   PO461992   1.252  24.498   5.864
 4856POPC   GL161993   1.214  24.524   6.164
 4856POPC   GL261994   1.085  24.417   6.164
 4856POPC   C1A61995   1.190  24.477   6.464
 4856POPC   D2A61996   1.194  24.511   6.764
 4856POPC   C3A61997   1.234  24.499   7.064
 4856POPC   C4A61998   1.242  24.496   7.364
 4856POPC   C1B61999   0.998  24.395   6.464
 4856POPC   C2B62000   0.974  24.364   6.764
 4856POPC   C3B62001   0.943  24.386   7.064
 4856POPC   C4B62002   1.017  24.446   7.364
 4857POPC   NC362003  34.593  40.021   5.564
 4857POPC   PO462004  34.625  40.035   5.864
 4857POPC   GL162005  34.566  40.024   6.164
 4857POPC   GL262006  34.407  40.059   6.164
 4857POPC   C1A62007  34.610  40.056   6.464
 4857POPC   D2A62008  34.611  40.037   6.764
 4857POPC   C3A62009  34.588  40.041   7.064
 4857POPC   C4A62010  34.575  40.052   7.364
 4857POPC   C1B62011  34.373  40.048   6.464
 4857POPC   C2B62012  34.330  40.085   6.764
 4857POPC   C3B62013  34.351  40.028   7.064
 4857POPC   C4B62014  34.300  40.078   7.364
 4858POPC   NC362015  20.590  32.273   5.564
 4858POPC   PO462016  20.593  32.215   5.864
 4858POPC   GL162017  20.575  32.223   6.164
 4858POPC   GL262018  20.742  32.283   6.164
 4858POPC   C1A62019  20.615  32.273   6.464
 4858POPC   D2A62020  20.632  32.225   6.764
 4858POPC   C3A62021  20.653  32.261   7.064
 4858POPC   C4A62022  20.562  32.253   7.364
 4858POPC   C1B62023  20.889  32.290   6.464
 4858POPC   C2B62024  20.853  32.351   6.764
 4858POPC   C3B62025  20.852  32.374   7.064
 4858POPC   C4B62026  20.857  32.316   7.364
 4859POPC   NC362027  42.335  44.667   5.564
 4859POPC   PO462028  42.328  44.710   5.864
 4859POPC   GL162029  42.326  44.647   6.164
 4859POPC   GL262030  42.188  44.673   6.164
 4859POPC   C1A62031  42.288  44.705   6.464
 4859POPC   D2A62032  42.322  44.685   6.764
 4859POPC   C3A62033  42.367  44.690   7.064
 4859POPC   C4A62034  42.384  44.673   7.364
 4859POPC   C1B62035  42.045  44.666   6.464
 4859POPC   C2B62036  42.088  44.592   6.764
 4859POPC   C3B62037  42.118  44.597   7.064
 4859POPC   C4B62038  42.060  44.613   7.364
 4860POPC   NC362039  20.584  39.963   5.564
 4860POPC   PO462040  20.614  40.020   5.864
 4860POPC   GL162041  20.592  39.957   6.164
 4860POPC   GL262042  20.462  40.030   6.164
 4860POPC   C1A62043  20.607  39.998   6.464
 4860POPC   D2A62044  20.629  39.978   6.764
 4860POPC   C3A62045  20.567  39.976   7.064
 4860POPC   C4A62046  20.629  39.987   7.364
 4860POPC   C1B62047  20.322  40.101   6.464
 4860POPC   C2B62048  20.356  40.024   6.764
 4860POPC   C3B62049  20.417  40.099   7.064
 4860POPC   C4B62050  20.321  40.049   7.364
 4861POPC   NC362051  26.064  14.378   5.564
 4861POPC   PO462052  26.008  14.369   5.864
 4861POPC   GL162053  26.073  14.441   6.164
 4861POPC   GL262054  26.126  14.513   6.164
 4861POPC   C1A62055  25.995  14.420   6.464
 4861POPC   D2A62056  26.013  14.423   6.764
 4861POPC   C3A62057  26.055  14.417   7.064
 4861POPC   C4A62058  26.076  14.404   7.364
 4861POPC   C1B62059  26.205  14.590   6.464
 4861POPC   C2B62060  26.215  14.549   6.764
 4861POPC   C3B62061  26.209  14.607   7.064
 4861POPC   C4B62062  26.235  14.560   7.364
 4862POPC   NC362063  41.541  14.395   5.564
 4862POPC   PO462064  41.599  14.402   5.864
 4862POPC   GL162065  41.596  14.425   6.164
 4862POPC   GL262066  41.555  14.308   6.164
 4862POPC   C1A62067  41.576  14.426   6.464
 4862POPC   D2A62068  41.548  14.439   6.764
 4862POPC   C3A62069  41.562  14.404   7.064
 4862POPC   C4A62070  41.605  14.386   7.364
 4862POPC   C1B62071  41.561  14.144   6.464
 4862POPC   C2B62072  41.588  14.128   6.764
 4862POPC   C3B62073  41.512  14.131   7.064
 4862POPC   C4B62074  41.542  14.160   7.364
 4863POPC   NC362075   2.752  24.470   5.564
 4863POPC   PO462076   2.741  24.483   5.864
 4863POPC   GL162077   2.724  24.518   6.164
 4863POPC   GL262078   2.613  24.462   6.164
 4863POPC   C1A62079   2.782  24.482   6.464
 4863POPC   D2A62080   2.754  24.535   6.764
 4863POPC   C3A62081   2.806  24.485   7.064
 4863POPC   C4A62082   2.757  24.532   7.364
 4863POPC   C1B62083   2.511  24.377   6.464
 4863POPC   C2B62084   2.577  24.343   6.764
 4863POPC   C3B62085   2.546  24.335   7.064
 4863POPC   C4B62086   2.516  24.394   7.364
 4864POPC   NC362087  30.732  33.822   5.564
 4864POPC   PO462088  30.717  33.845   5.864
 4864POPC   GL162089  30.672  33.838   6.164
 4864POPC   GL262090  30.529  33.859   6.164
 4864POPC   C1A62091  30.715  33.783   6.464
 4864POPC   D2A62092  30.684  33.817   6.764
 4864POPC   C3A62093  30.687  33.809   7.064
 4864POPC   C4A62094  30.693  33.787   7.364
 4864POPC   C1B62095  30.451  33.800   6.464
 4864POPC   C2B62096  30.442  33.843   6.764
 4864POPC   C3B62097  30.468  33.884   7.064
 4864POPC   C4B62098  30.498  33.888   7.364
 4865POPC   NC362099  19.877  43.878   5.564
 4865POPC   PO462100  19.830  43.856   5.864
 4865POPC   GL162101  19.868  43.842   6.164
 4865POPC   GL262102  19.993  43.903   6.164
 4865POPC   C1A62103  19.824  43.897   6.464
 4865POPC   D2A62104  19.824  43.845   6.764
 4865POPC   C3A62105  19.791  43.919   7.064
 4865POPC   C4A62106  19.839  43.928   7.364
 4865POPC   C1B62107  20.072  43.884   6.464
 4865POPC   C2B62108  20.055  43.919   6.764
 4865POPC   C3B62109  20.115  43.942   7.064
 4865POPC   C4B62110  20.035  43.950   7.364
 4866POPC   NC362111  22.889   6.667   5.564
 4866POPC   PO462112  22.906   6.611   5.864
 4866POPC   GL162113  22.945   6.623   6.164
 4866POPC   GL262114  22.854   6.615   6.164
 4866POPC   C1A62115  22.942   6.644   6.464
 4866POPC   D2A62116  22.889   6.674   6.764
 4866POPC   C3A62117  22.919   6.665   7.064
 4866POPC   C4A62118  22.902   6.628   7.364
 4866POPC   C1B62119  22.657   6.623   6.464
 4866POPC   C2B62120  22.665   6.631   6.764
 4866POPC   C3B62121  22.719   6.662   7.064
 4866POPC   C4B62122  22.729   6.668   7.364
 4867POPC   NC362123  19.842  20.577   5.564
 4867POPC   PO462124  19.846  20.608   5.864
 4867POPC   GL162125  19.837  20.632   6.164
 4867POPC   GL262126  19.796  20.533   6.164
 4867POPC   C1A62127  19.807  20.610   6.464
 4867POPC   D2A62128  19.808  20.601   6.764
 4867POPC   C3A62129  19.795  20.586   7.064
 4867POPC   C4A62130  19.864  20.659   7.364
 4867POPC   C1B62131  19.739  20.331   6.464
 4867POPC   C2B62132  19.732  20.346   6.764
 4867POPC   C3B62133  19.748  20.402   7.064
 4867POPC   C4B62134  19.764  20.342   7.364
 4868POPC   NC362135  40.755  26.768   5.564
 4868POPC   PO462136  40.826  26.833   5.864
 4868POPC   GL162137  40.817  26.797   6.164
 4868POPC   GL262138  40.771  26.911   6.164
 4868POPC   C1A62139  40.764  26.839   6.464
 4868POPC   D2A62140  40.807  26.820   6.764
 4868POPC   C3A62141  40.811  26.773   7.064
 4868POPC   C4A62142  40.739  26.849   7.364
 4868POPC   C1B62143  40.686  27.060   6.464
 4868POPC   C2B62144  40.685  27.079   6.764
 4868POPC   C3B62145  40.702  27.083   7.064
 4868POPC   C4B62146  40.734  27.094   7.364
 4869POPC   NC362147   0.482   0.466   5.564
 4869POPC   PO462148   0.485   0.398   5.864
 4869POPC   GL162149   0.434   0.440   6.164
 4869POPC   GL262150   0.314   0.492   6.164
 4869POPC   C1A62151   0.441   0.472   6.464
 4869POPC   D2A62152   0.390   0.405   6.764
 4869POPC   C3A62153   0.450   0.481   7.064
 4869POPC   C4A62154   0.406   0.462   7.364
 4869POPC   C1B62155   0.193   0.576   6.464
 4869POPC   C2B62156   0.261   0.571   6.764
 4869POPC   C3B62157   0.173   0.576   7.064
 4869POPC   C4B62158   0.207   0.574   7.364
 4870POPC   NC362159  42.345  36.893   5.564
 4870POPC   PO462160  42.311  36.902   5.864
 4870POPC   GL162161  42.329  36.952   6.164
 4870POPC   GL262162  42.339  36.793   6.164
 4870POPC   C1A62163  42.347  36.864   6.464
 4870POPC   D2A62164  42.315  36.879   6.764
 4870POPC   C3A62165  42.342  36.924   7.064
 4870POPC   C4A62166  42.345  36.931   7.364
 4870POPC   C1B62167  42.377  36.685   6.464
 4870POPC   C2B62168  42.396  36.700   6.764
 4870POPC   C3B62169  42.298  36.606   7.064
 4870POPC   C4B62170  42.338  36.694   7.364
 4871POPC   NC362171  22.173  30.702   5.564
 4871POPC   PO462172  22.157  30.693   5.864
 4871POPC   GL162173  22.210  30.673   6.164
 4871POPC   GL262174  22.146  30.599   6.164
 4871POPC   C1A62175  22.154  30.648   6.464
 4871POPC   D2A62176  22.139  30.727   6.764
 4871POPC   C3A62177  22.154  30.658   7.064
 4871POPC   C4A62178  22.161  30.715   7.364
 4871POPC   C1B62179  22.092  30.498   6.464
 4871POPC   C2B62180  22.072  30.477   6.764
 4871POPC   C3B62181  22.049  30.479   7.064
 4871POPC   C4B62182  22.107  30.448   7.364
 4872POPC   NC362183  22.901   1.183   5.564
 4872POPC   PO462184  22.920   1.243   5.864
 4872POPC   GL162185  22.929   1.184   6.164
 4872POPC   GL262186  23.005   1.338   6.164
 4872POPC   C1A62187  22.984   1.225   6.464
 4872POPC   D2A62188  22.917   1.207   6.764
 4872POPC   C3A62189  22.951   1.239   7.064
 4872POPC   C4A62190  22.907   1.211   7.364
 4872POPC   C1B62191  23.133   1.397   6.464
 4872POPC   C2B62192  23.171   1.353   6.764
 4872POPC   C3B62193  23.083   1.411   7.064
 4872POPC   C4B62194  23.147   1.359   7.364
 4873POPC   NC362195  43.087  29.154   5.564
 4873POPC   PO462196  43.065  29.153   5.864
 4873POPC   GL162197  43.154  29.121   6.164
 4873POPC   GL262198  43.116  29.255   6.164
 4873POPC   C1A62199  43.084  29.097   6.464
 4873POPC   D2A62200  43.088  29.103   6.764
 4873POPC   C3A62201  43.104  29.171   7.064
 4873POPC   C4A62202  43.122  29.173   7.364
 4873POPC   C1B62203  43.121  29.408   6.464
 4873POPC   C2B62204  43.191  29.349   6.764
 4873POPC   C3B62205  43.115  29.421   7.064
 4873POPC   C4B62206  43.104  29.418   7.364
 4874POPC   NC362207   0.441  44.685   5.564
 4874POPC   PO462208   0.402  44.634   5.864
 4874POPC   GL162209   0.447  44.693   6.164
 4874POPC   GL262210   0.562  44.778   6.164
 4874POPC   C1A62211   0.479  44.694   6.464
 4874POPC   D2A62212   0.447  44.644   6.764
 4874POPC   C3A62213   0.415  44.614   7.064
 4874POPC   C4A62214   0.475  44.640   7.364
 4874POPC   C1B62215   0.604  44.850   6.464
 4874POPC   C2B62216   0.563  44.872   6.764
 4874POPC   C3B62217   0.564  44.884   7.064
 4874POPC   C4B62218   0.593  44.878   7.364
 4875POPC   NC362219  41.526  26.026   5.564
 4875POPC   PO462220  41.536  25.995   5.864
 4875POPC   GL162221  41.595  26.051   6.164
 4875POPC   GL262222  41.625  26.112   6.164
 4875POPC   C1A62223  41.559  26.085   6.464
 4875POPC   D2A62224  41.561  25.992   6.764
 4875POPC   C3A62225  41.511  26.059   7.064
 4875POPC   C4A62226  41.524  26.014   7.364
 4875POPC   C1B62227  41.767  26.149   6.464
 4875POPC   C2B62228  41.742  26.180   6.764
 4875POPC   C3B62229  41.809  26.114   7.064
 4875POPC   C4B62230  41.800  26.195   7.364
 4876POPC   NC362231  22.890  43.871   5.564
 4876POPC   PO462232  22.955  43.845   5.864
 4876POPC   GL162233  22.924  43.865   6.164
 4876POPC   GL262234  23.057  43.859   6.164
 4876POPC   C1A62235  22.928  43.873   6.464
 4876POPC   D2A62236  22.903  43.849   6.764
 4876POPC   C3A62237  22.981  43.881   7.064
 4876POPC   C4A62238  22.980  43.860   7.364
 4876POPC   C1B62239  23.185  43.769   6.464
 4876POPC   C2B62240  23.169  43.839   6.764
 4876POPC   C3B62241  23.152  43.849   7.064
 4876POPC   C4B62242  23.154  43.773   7.364
 4877POPC   NC362243  31.444   2.757   5.564
 4877POPC   PO462244  31.431   2.803   5.864
 4877POPC   GL162245  31.462   2.763   6.164
 4877POPC   GL262246  31.393   2.717   6.164
 4877POPC   C1A62247  31.497   2.736   6.464
 4877POPC   D2A62248  31.460   2.738   6.764
 4877POPC   C3A62249  31.514   2.783   7.064
 4877POPC   C4A62250  31.489   2.755   7.364
 4877POPC   C1B62251  31.336   2.599   6.464
 4877POPC   C2B62252  31.287   2.587   6.764
 4877POPC   C3B62253  31.326   2.550   7.064
 4877POPC   C4B62254  31.306   2.606   7.364
 4878POPC   NC362255  21.380  15.198   5.564
 4878POPC   PO462256  21.395  15.174   5.864
 4878POPC   GL162257  21.386  15.153   6.164
 4878POPC   GL262258  21.533  15.089   6.164
 4878POPC   C1A62259  21.359  15.165   6.464
 4878POPC   D2A62260  21.392  15.139   6.764
 4878POPC   C3A62261  21.344  15.186   7.064
 4878POPC   C4A62262  21.375  15.170   7.364
 4878POPC   C1B62263  21.603  15.120   6.464
 4878POPC   C2B62264  21.622  15.075   6.764
 4878POPC   C3B62265  21.628  15.041   7.064
 4878POPC   C4B62266  21.606  15.106   7.364
 4879POPC   NC362267  23.701  23.665   5.564
 4879POPC   PO462268  23.711  23.714   5.864
 4879POPC   GL162269  23.738  23.758   6.164
 4879POPC   GL262270  23.804  23.667   6.164
 4879POPC   C1A62271  23.677  23.712   6.464
 4879POPC   D2A62272  23.754  23.680   6.764
 4879POPC   C3A62273  23.744  23.759   7.064
 4879POPC   C4A62274  23.672  23.699   7.364
 4879POPC   C1B62275  23.960  23.647   6.464
 4879POPC   C2B62276  23.997  23.695   6.764
 4879POPC   C3B62277  23.914  23.707   7.064
 4879POPC   C4B62278  23.915  23.714   7.364
 4880POPC   NC362279  20.649  14.429   5.564
 4880POPC   PO462280  20.582  14.358   5.864
 4880POPC   GL162281  20.568  14.366   6.164
 4880POPC   GL262282  20.612  14.503   6.164
 4880POPC   C1A62283  20.580  14.383   6.464
 4880POPC   D2A62284  20.570  14.391   6.764
 4880POPC   C3A62285  20.646  14.392   7.064
 4880POPC   C4A62286  20.641  14.379   7.364
 4880POPC   C1B62287  20.674  14.640   6.464
 4880POPC   C2B62288  20.630  14.657   6.764
 4880POPC   C3B62289  20.655  14.653   7.064
 4880POPC   C4B62290  20.674  14.653   7.364
 4881POPC   NC362291  29.895  43.855   5.564
 4881POPC   PO462292  29.970  43.876   5.864
 4881POPC   GL162293  29.924  43.933   6.164
 4881POPC   GL262294  29.778  43.847   6.164
 4881POPC   C1A62295  29.955  43.913   6.464
 4881POPC   D2A62296  29.910  43.930   6.764
 4881POPC   C3A62297  29.876  43.848   7.064
 4881POPC   C4A62298  29.885  43.879   7.364
 4881POPC   C1B62299  29.684  43.795   6.464
 4881POPC   C2B62300  29.698  43.731   6.764
 4881POPC   C3B62301  29.658  43.777   7.064
 4881POPC   C4B62302  29.719  43.794   7.364
 4882POPC   NC362303   8.223   3.557   5.564
 4882POPC   PO462304   8.193   3.510   5.864
 4882POPC   GL162305   8.163   3.498   6.164
 4882POPC   GL262306   8.047   3.476   6.164
 4882POPC   C1A62307   8.235   3.511   6.464
 4882POPC   D2A62308   8.196   3.582   6.764
 4882POPC   C3A62309   8.181   3.564   7.064
 4882POPC   C4A62310   8.216   3.555   7.364
 4882POPC   C1B62311   7.978   3.429   6.464
 4882POPC   C2B62312   7.921   3.522   6.764
 4882POPC   C3B62313   7.948   3.477   7.064
 4882POPC   C4B62314   7.963   3.459   7.364
 4883POPC   NC362315  31.472  17.496   5.564
 4883POPC   PO462316  31.432  17.549   5.864
 4883POPC   GL162317  31.458  17.506   6.164
 4883POPC   GL262318  31.460  17.666   6.164
 4883POPC   C1A62319  31.521  17.507   6.464
 4883POPC   D2A62320  31.451  17.529   6.764
 4883POPC   C3A62321  31.475  17.503   7.064
 4883POPC   C4A62322  31.465  17.480   7.364
 4883POPC   C1B62323  31.355  17.699   6.464
 4883POPC   C2B62324  31.412  17.702   6.764
 4883POPC   C3B62325  31.410  17.770   7.064
 4883POPC   C4B62326  31.419  17.729   7.364
 4884POPC   NC362327  29.948  21.364   5.564
 4884POPC   PO462328  29.935  21.366   5.864
 4884POPC   GL162329  29.892  21.431   6.164
 4884POPC   GL262330  29.834  21.343   6.164
 4884POPC   C1A62331  29.892  21.431   6.464
 4884POPC   D2A62332  29.903  21.371   6.764
 4884POPC   C3A62333  29.910  21.353   7.064
 4884POPC   C4A62334  29.967  21.337   7.364
 4884POPC   C1B62335  29.667  21.363   6.464
 4884POPC   C2B62336  29.641  21.313   6.764
 4884POPC   C3B62337  29.689  21.361   7.064
 4884POPC   C4B62338  29.656  21.375   7.364
 4885POPC   NC362339  40.011  24.484   5.564
 4885POPC   PO462340  40.040  24.443   5.864
 4885POPC   GL162341  40.014  24.470   6.164
 4885POPC   GL262342  40.036  24.647   6.164
 4885POPC   C1A62343  39.976  24.472   6.464
 4885POPC   D2A62344  39.984  24.451   6.764
 4885POPC   C3A62345  40.003  24.530   7.064
 4885POPC   C4A62346  39.985  24.501   7.364
 4885POPC   C1B62347  40.164  24.734   6.464
 4885POPC   C2B62348  40.155  24.665   6.764
 4885POPC   C3B62349  40.171  24.733   7.064
 4885POPC   C4B62350  40.142  24.692   7.364
 4886POPC   NC362351   1.257  15.968   5.564
 4886POPC   PO462352   1.249  15.937   5.864
 4886POPC   GL162353   1.177  15.988   6.164
 4886POPC   GL262354   1.229  16.049   6.164
 4886POPC   C1A62355   1.254  15.953   6.464
 4886POPC   D2A62356   1.180  15.996   6.764
 4886POPC   C3A62357   1.213  15.945   7.064
 4886POPC   C4A62358   1.258  15.998   7.364
 4886POPC   C1B62359   1.246  16.250   6.464
 4886POPC   C2B62360   1.250  16.222   6.764
 4886POPC   C3B62361   1.254  16.228   7.064
 4886POPC   C4B62362   1.166  16.178   7.364
 4887POPC   NC362363  36.874  39.995   5.564
 4887POPC   PO462364  36.952  40.047   5.864
 4887POPC   GL162365  36.936  39.992   6.164
 4887POPC   GL262366  36.759  39.936   6.164
 4887POPC   C1A62367  36.871  39.971   6.464
 4887POPC   D2A62368  36.888  40.018   6.764
 4887POPC   C3A62369  36.854  40.023   7.064
 4887POPC   C4A62370  36.868  39.960   7.364
 4887POPC   C1B62371  36.634  39.929   6.464
 4887POPC   C2B62372  36.662  39.943   6.764
 4887POPC   C3B62373  36.686  39.936   7.064
 4887POPC   C4B62374  36.658  39.867   7.364
 4888POPC   NC362375  40.784  11.312   5.564
 4888POPC   PO462376  40.754  11.315   5.864
 4888POPC   GL162377  40.734  11.270   6.164
 4888POPC   GL262378  40.861  11.430   6.164
 4888POPC   C1A62379  40.819  11.350   6.464
 4888POPC   D2A62380  40.741  11.330   6.764
 4888POPC   C3A62381  40.774  11.298   7.064
 4888POPC   C4A62382  40.826  11.263   7.364
 4888POPC   C1B62383  40.904  11.511   6.464
 4888POPC   C2B62384  40.907  11.511   6.764
 4888POPC   C3B62385  40.926  11.532   7.064
 4888POPC   C4B62386  40.932  11.519   7.364
 4889POPC   NC362387  12.882  23.697   5.564
 4889POPC   PO462388  12.868  23.750   5.864
 4889POPC   GL162389  12.852  23.708   6.164
 4889POPC   GL262390  12.994  23.650   6.164
 4889POPC   C1A62391  12.828  23.691   6.464
 4889POPC   D2A62392  12.848  23.749   6.764
 4889POPC   C3A62393  12.870  23.745   7.064
 4889POPC   C4A62394  12.886  23.758   7.364
 4889POPC   C1B62395  13.040  23.558   6.464
 4889POPC   C2B62396  13.074  23.545   6.764
 4889POPC   C3B62397  13.007  23.577   7.064
 4889POPC   C4B62398  13.086  23.583   7.364
 4890POPC   NC362399  10.482  18.323   5.564
 4890POPC   PO462400  10.531  18.292   5.864
 4890POPC   GL162401  10.547  18.310   6.164
 4890POPC   GL262402  10.673  18.361   6.164
 4890POPC   C1A62403  10.474  18.297   6.464
 4890POPC   D2A62404  10.553  18.248   6.764
 4890POPC   C3A62405  10.542  18.241   7.064
 4890POPC   C4A62406  10.529  18.311   7.364
 4890POPC   C1B62407  10.705  18.380   6.464
 4890POPC   C2B62408  10.716  18.395   6.764
 4890POPC   C3B62409  10.790  18.348   7.064
 4890POPC   C4B62410  10.785  18.367   7.364
 4891POPC   NC362411  19.106   7.388   5.564
 4891POPC   PO462412  19.009   7.372   5.864
 4891POPC   GL162413  19.048   7.383   6.164
 4891POPC   GL262414  19.004   7.520   6.164
 4891POPC   C1A62415  19.042   7.435   6.464
 4891POPC   D2A62416  19.032   7.401   6.764
 4891POPC   C3A62417  19.031   7.425   7.064
 4891POPC   C4A62418  19.020   7.390   7.364
 4891POPC   C1B62419  18.876   7.609   6.464
 4891POPC   C2B62420  18.815   7.545   6.764
 4891POPC   C3B62421  18.832   7.537   7.064
 4891POPC   C4B62422  18.815   7.538   7.364
 4892POPC   NC362423  43.071  33.779   5.564
 4892POPC   PO462424  43.081  33.790   5.864
 4892POPC   GL162425  43.114  33.832   6.164
 4892POPC   GL262426  43.210  33.856   6.164
 4892POPC   C1A62427  43.082  33.803   6.464
 4892POPC   D2A62428  43.160  33.827   6.764
 4892POPC   C3A62429  43.075  33.823   7.064
 4892POPC   C4A62430  43.146  33.802   7.364
 4892POPC   C1B62431  43.246  34.051   6.464
 4892POPC   C2B62432  43.235  34.029   6.764
 4892POPC   C3B62433  43.228  34.037   7.064
 4892POPC   C4B62434  43.218  34.014   7.364
 4893POPC   NC362435   5.918  36.865   5.564
 4893POPC   PO462436   5.905  36.880   5.864
 4893POPC   GL162437   5.892  36.953   6.164
 4893POPC   GL262438   5.818  36.979   6.164
 4893POPC   C1A62439   5.873  36.910   6.464
 4893POPC   D2A62440   5.823  36.936   6.764
 4893POPC   C3A62441   5.821  36.905   7.064
 4893POPC   C4A62442   5.844  36.916   7.364
 4893POPC   C1B62443   5.718  37.172   6.464
 4893POPC   C2B62444   5.718  37.115   6.764
 4893POPC   C3B62445   5.767  37.097   7.064
 4893POPC   C4B62446   5.753  37.174   7.364
 4894POPC   NC362447  13.652   2.769   5.564
 4894POPC   PO462448  13.635   2.788   5.864
 4894POPC   GL162449  13.629   2.796   6.164
 4894POPC   GL262450  13.516   2.828   6.164
 4894POPC   C1A62451  13.633   2.802   6.464
 4894POPC   D2A62452  13.672   2.773   6.764
 4894POPC   C3A62453  13.659   2.787   7.064
 4894POPC   C4A62454  13.627   2.721   7.364
 4894POPC   C1B62455  13.466   2.951   6.464
 4894POPC   C2B62456  13.460   2.993   6.764
 4894POPC   C3B62457  13.542   3.027   7.064
 4894POPC   C4B62458  13.458   2.980   7.364
 4895POPC   NC362459  26.842  19.040   5.564
 4895POPC   PO462460  26.806  19.027   5.864
 4895POPC   GL162461  26.849  19.090   6.164
 4895POPC   GL262462  26.734  18.979   6.164
 4895POPC   C1A62463  26.836  19.012   6.464
 4895POPC   D2A62464  26.795  19.073   6.764
 4895POPC   C3A62465  26.776  19.050   7.064
 4895POPC   C4A62466  26.822  19.105   7.364
 4895POPC   C1B62467  26.691  18.818   6.464
 4895POPC   C2B62468  26.745  18.866   6.764
 4895POPC   C3B62469  26.711  18.888   7.064
 4895POPC   C4B62470  26.664  18.795   7.364
 4896POPC   NC362471  32.984  30.721   5.564
 4896POPC   PO462472  33.015  30.674   5.864
 4896POPC   GL162473  33.039  30.722   6.164
 4896POPC   GL262474  32.904  30.790   6.164
 4896POPC   C1A62475  33.039  30.745   6.464
 4896POPC   D2A62476  33.051  30.715   6.764
 4896POPC   C3A62477  33.063  30.697   7.064
 4896POPC   C4A62478  32.979  30.716   7.364
 4896POPC   C1B62479  32.788  30.837   6.464
 4896POPC   C2B62480  32.783  30.802   6.764
 4896POPC   C3B62481  32.757  30.815   7.064
 4896POPC   C4B62482  32.811  30.813   7.364
 4897POPC   NC362483  43.126  34.565   5.564
 4897POPC   PO462484  43.128  34.589   5.864
 4897POPC   GL162485  43.146  34.603   6.164
 4897POPC   GL262486  43.049  34.675   6.164
 4897POPC   C1A62487  43.074  34.587   6.464
 4897POPC   D2A62488  43.072  34.561   6.764
 4897POPC   C3A62489  43.122  34.550   7.064
 4897POPC   C4A62490  43.128  34.562   7.364
 4897POPC   C1B62491  42.973  34.791   6.464
 4897POPC   C2B62492  42.925  34.743   6.764
 4897POPC   C3B62493  43.010  34.823   7.064
 4897POPC   C4B62494  43.003  34.754   7.364
 4898POPC   NC362495  39.998  41.578   5.564
 4898POPC   PO462496  40.057  41.564   5.864
 4898POPC   GL162497  39.959  41.571   6.164
 4898POPC   GL262498  40.108  41.613   6.164
 4898POPC   C1A62499  39.982  41.557   6.464
 4898POPC   D2A62500  39.974  41.602   6.764
 4898POPC   C3A62501  40.018  41.524   7.064
 4898POPC   C4A62502  40.040  41.527   7.364
 4898POPC   C1B62503  40.276  41.562   6.464
 4898POPC   C2B62504  40.274  41.595   6.764
 4898POPC   C3B62505  40.219  41.638   7.064
 4898POPC   C4B62506  40.278  41.601   7.364
 4899POPC   NC362507  18.316  11.349   5.564
 4899POPC   PO462508  18.289  11.349   5.864
 4899POPC   GL162509  18.233  11.338   6.164
 4899POPC   GL262510  18.440  11.317   6.164
 4899POPC   C1A62511  18.320  11.304   6.464
 4899POPC   D2A62512  18.260  11.264   6.764
 4899POPC   C3A62513  18.291  11.343   7.064
 4899POPC   C4A62514  18.240  11.285   7.364
 4899POPC   C1B62515  18.500  11.354   6.464
 4899POPC   C2B62516  18.525  11.315   6.764
 4899POPC   C3B62517  18.483  11.311   7.064
 4899POPC   C4B62518  18.578  11.333   7.364
 4900POPC   NC362519  22.131  20.577   5.564
 4900POPC   PO462520  22.182  20.648   5.864
 4900POPC   GL162521  22.129  20.579   6.164
 4900POPC   GL262522  22.272  20.557   6.164
 4900POPC   C1A62523  22.117  20.561   6.464
 4900POPC   D2A62524  22.208  20.591   6.764
 4900POPC   C3A62525  22.140  20.620   7.064
 4900POPC   C4A62526  22.129  20.650   7.364
 4900POPC   C1B62527  22.365  20.586   6.464
 4900POPC   C2B62528  22.405  20.566   6.764
 4900POPC   C3B62529  22.407  20.539   7.064
 4900POPC   C4B62530  22.368  20.528   7.364
 4901POPC   NC362531  22.904  19.786   5.564
 4901POPC   PO462532  22.905  19.866   5.864
 4901POPC   GL162533  22.970  19.862   6.164
 4901POPC   GL262534  22.895  19.701   6.164
 4901POPC   C1A62535  22.969  19.819   6.464
 4901POPC   D2A62536  22.981  19.813   6.764
 4901POPC   C3A62537  22.925  19.829   7.064
 4901POPC   C4A62538  22.964  19.813   7.364
 4901POPC   C1B62539  22.758  19.679   6.464
 4901POPC   C2B62540  22.774  19.639   6.764
 4901POPC   C3B62541  22.804  19.645   7.064
 4901POPC   C4B62542  22.736  19.690   7.364
 4902POPC   NC362543  32.231  10.486   5.564
 4902POPC   PO462544  32.249  10.513   5.864
 4902POPC   GL162545  32.200  10.532   6.164
 4902POPC   GL262546  32.191  10.371   6.164
 4902POPC   C1A62547  32.228  10.479   6.464
 4902POPC   D2A62548  32.298  10.574   6.764
 4902POPC   C3A62549  32.267  10.564   7.064
 4902POPC   C4A62550  32.264  10.497   7.364
 4902POPC   C1B62551  32.136  10.294   6.464
 4902POPC   C2B62552  32.141  10.287   6.764
 4902POPC   C3B62553  32.163  10.260   7.064
 4902POPC   C4B62554  32.170  10.282   7.364
 4903POPC   NC362555  19.018  40.805   5.564
 4903POPC   PO462556  19.070  40.745   5.864
 4903POPC   GL162557  19.018  40.761   6.164
 4903POPC   GL262558  18.964  40.741   6.164
 4903POPC   C1A62559  19.041  40.825   6.464
 4903POPC   D2A62560  19.027  40.815   6.764
 4903POPC   C3A62561  19.018  40.795   7.064
 4903POPC   C4A62562  19.057  40.767   7.364
 4903POPC   C1B62563  18.856  40.677   6.464
 4903POPC   C2B62564  18.841  40.766   6.764
 4903POPC   C3B62565  18.799  40.732   7.064
 4903POPC   C4B62566  18.846  40.693   7.364
 4904POPC   NC362567  19.032  12.075   5.564
 4904POPC   PO462568  19.071  12.116   5.864
 4904POPC   GL162569  19.034  12.042   6.164
 4904POPC   GL262570  18.917  12.114   6.164
 4904POPC   C1A62571  19.095  12.071   6.464
 4904POPC   D2A62572  19.048  12.080   6.764
 4904POPC   C3A62573  19.068  12.035   7.064
 4904POPC   C4A62574  19.061  12.115   7.364
 4904POPC   C1B62575  18.848  12.176   6.464
 4904POPC   C2B62576  18.860  12.151   6.764
 4904POPC   C3B62577  18.780  12.175   7.064
 4904POPC   C4B62578  18.775  12.182   7.364
 4905POPC   NC362579   2.815   3.537   5.564
 4905POPC   PO462580   2.811   3.520   5.864
 4905POPC   GL162581   2.749   3.573   6.164
 4905POPC   GL262582   2.892   3.561   6.164
 4905POPC   C1A62583   2.812   3.501   6.464
 4905POPC   D2A62584   2.731   3.513   6.764
 4905POPC   C3A62585   2.768   3.516   7.064
 4905POPC   C4A62586   2.787   3.532   7.364
 4905POPC   C1B62587   2.977   3.658   6.464
 4905POPC   C2B62588   2.959   3.663   6.764
 4905POPC   C3B62589   2.997   3.648   7.064
 4905POPC   C4B62590   3.032   3.596   7.364
 4906POPC   NC362591  24.512  39.992   5.564
 4906POPC   PO462592  24.491  40.055   5.864
 4906POPC   GL162593  24.456  39.987   6.164
 4906POPC   GL262594  24.622  40.116   6.164
 4906POPC   C1A62595  24.466  40.000   6.464
 4906POPC   D2A62596  24.496  40.038   6.764
 4906POPC   C3A62597  24.457  40.000   7.064
 4906POPC   C4A62598  24.495  40.008   7.364
 4906POPC   C1B62599  24.663  40.193   6.464
 4906POPC   C2B62600  24.712  40.173   6.764
 4906POPC   C3B62601  24.657  40.198   7.064
 4906POPC   C4B62602  24.718  40.120   7.364
 4907POPC   NC362603   8.154  15.147   5.564
 4907POPC   PO462604   8.196  15.134   5.864
 4907POPC   GL162605   8.152  15.194   6.164
 4907POPC   GL262606   8.347  15.165   6.164
 4907POPC   C1A62607   8.160  15.194   6.464
 4907POPC   D2A62608   8.209  15.144   6.764
 4907POPC   C3A62609   8.162  15.137   7.064
 4907POPC   C4A62610   8.190  15.144   7.364
 4907POPC   C1B62611   8.416  15.154   6.464
 4907POPC   C2B62612   8.434  15.136   6.764
 4907POPC   C3B62613   8.453  15.201   7.064
 4907POPC   C4B62614   8.471  15.158   7.364
 4908POPC   NC362615  44.632  28.322   5.564
 4908POPC   PO462616  44.666  28.417   5.864
 4908POPC   GL162617  44.621  28.385   6.164
 4908POPC   GL262618  44.645  28.501   6.164
 4908POPC   C1A62619  44.699  28.385   6.464
 4908POPC   D2A62620  44.660  28.358   6.764
 4908POPC   C3A62621  44.684  28.379   7.064
 4908POPC   C4A62622  44.641  28.383   7.364
 4908POPC   C1B62623  44.558  28.559   6.464
 4908POPC   C2B62624  44.572  28.577   6.764
 4908POPC   C3B62625  44.563  28.593   7.064
 4908POPC   C4B62626  44.509  28.637   7.364
 4909POPC   NC362627   1.227  27.592   5.564
 4909POPC   PO462628   1.199  27.596   5.864
 4909POPC   GL162629   1.245  27.621   6.164
 4909POPC   GL262630   1.100  27.555   6.164
 4909POPC   C1A62631   1.233  27.600   6.464
 4909POPC   D2A62632   1.199  27.620   6.764
 4909POPC   C3A62633   1.222  27.596   7.064
 4909POPC   C4A62634   1.203  27.548   7.364
 4909POPC   C1B62635   0.960  27.555   6.464
 4909POPC   C2B62636   0.987  27.577   6.764
 4909POPC   C3B62637   1.006  27.559   7.064
 4909POPC   C4B62638   1.007  27.542   7.364
 4910POPC   NC362639   1.972  23.761   5.564
 4910POPC   PO462640   1.946  23.711   5.864
 4910POPC   GL162641   1.956  23.740   6.164
 4910POPC   GL262642   2.125  23.798   6.164
 4910POPC   C1A62643   2.037  23.691   6.464
 4910POPC   D2A62644   1.978  23.712   6.764
 4910POPC   C3A62645   2.035  23.738   7.064
 4910POPC   C4A62646   2.024  23.669   7.364
 4910POPC   C1B62647   2.209  23.809   6.464
 4910POPC   C2B62648   2.194  23.840   6.764
 4910POPC   C3B62649   2.208  23.766   7.064
 4910POPC   C4B62650   2.177  23.792   7.364
 4911POPC   NC362651  14.451  26.081   5.564
 4911POPC   PO462652  14.364  26.073   5.864
 4911POPC   GL162653  14.360  26.058   6.164
 4911POPC   GL262654  14.289  26.099   6.164
 4911POPC   C1A62655  14.395  26.005   6.464
 4911POPC   D2A62656  14.409  26.038   6.764
 4911POPC   C3A62657  14.441  26.017   7.064
 4911POPC   C4A62658  14.381  26.072   7.364
 4911POPC   C1B62659  14.182  26.071   6.464
 4911POPC   C2B62660  14.153  26.135   6.764
 4911POPC   C3B62661  14.124  26.130   7.064
 4911POPC   C4B62662  14.123  26.100   7.364
 4912POPC   NC362663  41.607  12.848   5.564
 4912POPC   PO462664  41.599  12.841   5.864
 4912POPC   GL162665  41.520  12.887   6.164
 4912POPC   GL262666  41.650  12.748   6.164
 4912POPC   C1A62667  41.578  12.866   6.464
 4912POPC   D2A62668  41.608  12.827   6.764
 4912POPC   C3A62669  41.539  12.849   7.064
 4912POPC   C4A62670  41.569  12.815   7.364
 4912POPC   C1B62671  41.775  12.698   6.464
 4912POPC   C2B62672  41.702  12.682   6.764
 4912POPC   C3B62673  41.724  12.705   7.064
 4912POPC   C4B62674  41.731  12.721   7.364
 4913POPC   NC362675  40.817   1.978   5.564
 4913POPC   PO462676  40.790   1.993   5.864
 4913POPC   GL162677  40.744   1.955   6.164
 4913POPC   GL262678  40.618   1.948   6.164
 4913POPC   C1A62679  40.825   1.940   6.464
 4913POPC   D2A62680  40.794   1.953   6.764
 4913POPC   C3A62681  40.733   2.037   7.064
 4913POPC   C4A62682  40.829   2.022   7.364
 4913POPC   C1B62683  40.552   1.880   6.464
 4913POPC   C2B62684  40.555   1.904   6.764
 4913POPC   C3B62685  40.558   1.909   7.064
 4913POPC   C4B62686  40.511   1.900   7.364
 4914POPC   NC362687  27.622   8.228   5.564
 4914POPC   PO462688  27.565   8.194   5.864
 4914POPC   GL162689  27.543   8.199   6.164
 4914POPC   GL262690  27.689   8.197   6.164
 4914POPC   C1A62691  27.588   8.223   6.464
 4914POPC   D2A62692  27.563   8.165   6.764
 4914POPC   C3A62693  27.600   8.164   7.064
 4914POPC   C4A62694  27.562   8.207   7.364
 4914POPC   C1B62695  27.882   8.240   6.464
 4914POPC   C2B62696  27.844   8.249   6.764
 4914POPC   C3B62697  27.835   8.221   7.064
 4914POPC   C4B62698  27.832   8.187   7.364
 4915POPC   NC362699  19.080  26.046   5.564
 4915POPC   PO462700  19.043  26.033   5.864
 4915POPC   GL162701  19.090  26.038   6.164
 4915POPC   GL262702  18.895  26.049   6.164
 4915POPC   C1A62703  19.083  26.071   6.464
 4915POPC   D2A62704  19.015  26.048   6.764
 4915POPC   C3A62705  19.069  26.041   7.064
 4915POPC   C4A62706  19.065  26.018   7.364
 4915POPC   C1B62707  18.819  26.037   6.464
 4915POPC   C2B62708  18.835  26.021   6.764
 4915POPC   C3B62709  18.796  25.996   7.064
 4915POPC   C4B62710  18.810  25.960   7.364
 4916POPC   NC362711  28.378   1.946   5.564
 4916POPC   PO462712  28.404   1.989   5.864
 4916POPC   GL162713  28.392   1.948   6.164
 4916POPC   GL262714  28.389   2.069   6.164
 4916POPC   C1A62715  28.356   2.039   6.464
 4916POPC   D2A62716  28.361   2.032   6.764
 4916POPC   C3A62717  28.353   2.020   7.064
 4916POPC   C4A62718  28.375   1.969   7.364
 4916POPC   C1B62719  28.467   2.187   6.464
 4916POPC   C2B62720  28.413   2.260   6.764
 4916POPC   C3B62721  28.413   2.241   7.064
 4916POPC   C4B62722  28.427   2.266   7.364
 4917POPC   NC362723  34.546  26.811   5.564
 4917POPC   PO462724  34.553  26.814   5.864
 4917POPC   GL162725  34.617  26.791   6.164
 4917POPC   GL262726  34.671  26.896   6.164
 4917POPC   C1A62727  34.560  26.856   6.464
 4917POPC   D2A62728  34.576  26.853   6.764
 4917POPC   C3A62729  34.551  26.805   7.064
 4917POPC   C4A62730  34.560  26.814   7.364
 4917POPC   C1B62731  34.769  27.010   6.464
 4917POPC   C2B62732  34.793  26.921   6.764
 4917POPC   C3B62733  34.759  26.950   7.064
 4917POPC   C4B62734  34.737  26.982   7.364
 4918POPC   NC362735  12.862  38.433   5.564
 4918POPC   PO462736  12.846  38.501   5.864
 4918POPC   GL162737  12.861  38.472   6.164
 4918POPC   GL262738  12.701  38.373   6.164
 4918POPC   C1A62739  12.851  38.436   6.464
 4918POPC   D2A62740  12.821  38.411   6.764
 4918POPC   C3A62741  12.874  38.471   7.064
 4918POPC   C4A62742  12.827  38.494   7.364
 4918POPC   C1B62743  12.640  38.332   6.464
 4918POPC   C2B62744  12.607  38.300   6.764
 4918POPC   C3B62745  12.657  38.365   7.064
 4918POPC   C4B62746  12.666  38.306   7.364
 4919POPC   NC362747  19.794   7.444   5.564
 4919POPC   PO462748  19.821   7.378   5.864
 4919POPC   GL162749  19.831   7.376   6.164
 4919POPC   GL262750  19.773   7.350   6.164
 4919POPC   C1A62751  19.825   7.454   6.464
 4919POPC   D2A62752  19.862   7.397   6.764
 4919POPC   C3A62753  19.793   7.418   7.064
 4919POPC   C4A62754  19.817   7.468   7.364
 4919POPC   C1B62755  19.677   7.225   6.464
 4919POPC   C2B62756  19.699   7.215   6.764
 4919POPC   C3B62757  19.674   7.225   7.064
 4919POPC   C4B62758  19.674   7.212   7.364
 4920POPC   NC362759   8.993   2.029   5.564
 4920POPC   PO462760   8.991   1.994   5.864
 4920POPC   GL162761   8.959   2.038   6.164
 4920POPC   GL262762   9.038   1.866   6.164
 4920POPC   C1A62763   9.008   2.002   6.464
 4920POPC   D2A62764   8.925   1.985   6.764
 4920POPC   C3A62765   8.956   1.988   7.064
 4920POPC   C4A62766   8.933   1.953   7.364
 4920POPC   C1B62767   9.092   1.812   6.464
 4920POPC   C2B62768   9.112   1.751   6.764
 4920POPC   C3B62769   9.078   1.819   7.064
 4920POPC   C4B62770   9.149   1.800   7.364
 4921POPC   NC362771  40.774  15.163   5.564
 4921POPC   PO462772  40.817  15.133   5.864
 4921POPC   GL162773  40.764  15.156   6.164
 4921POPC   GL262774  40.728  15.046   6.164
 4921POPC   C1A62775  40.820  15.155   6.464
 4921POPC   D2A62776  40.827  15.207   6.764
 4921POPC   C3A62777  40.767  15.224   7.064
 4921POPC   C4A62778  40.761  15.145   7.364
 4921POPC   C1B62779  40.750  14.975   6.464
 4921POPC   C2B62780  40.742  14.915   6.764
 4921POPC   C3B62781  40.717  14.937   7.064
 4921POPC   C4B62782  40.749  14.897   7.364
 4922POPC   NC362783   3.567  43.141   5.564
 4922POPC   PO462784   3.562  43.151   5.864
 4922POPC   GL162785   3.546  43.091   6.164
 4922POPC   GL262786   3.656  43.204   6.164
 4922POPC   C1A62787   3.568  43.073   6.464
 4922POPC   D2A62788   3.535  43.159   6.764
 4922POPC   C3A62789   3.589  43.102   7.064
 4922POPC   C4A62790   3.551  43.083   7.364
 4922POPC   C1B62791   3.705  43.303   6.464
 4922POPC   C2B62792   3.641  43.353   6.764
 4922POPC   C3B62793   3.724  43.296   7.064
 4922POPC   C4B62794   3.632  43.304   7.364
 4923POPC   NC362795  23.670  12.041   5.564
 4923POPC   PO462796  23.665  12.126   5.864
 4923POPC   GL162797  23.757  12.097   6.164
 4923POPC   GL262798  23.768  12.217   6.164
 4923POPC   C1A62799  23.677  12.053   6.464
 4923POPC   D2A62800  23.715  12.050   6.764
 4923POPC   C3A62801  23.751  12.042   7.064
 4923POPC   C4A62802  23.741  12.109   7.364
 4923POPC   C1B62803  23.771  12.316   6.464
 4923POPC   C2B62804  23.795  12.347   6.764
 4923POPC   C3B62805  23.809  12.336   7.064
 4923POPC   C4B62806  23.762  12.281   7.364
 4924POPC   NC362807  27.630  44.615   5.564
 4924POPC   PO462808  27.621  44.705   5.864
 4924POPC   GL162809  27.583  44.704   6.164
 4924POPC   GL262810  27.467  44.541   6.164
 4924POPC   C1A62811  27.616  44.652   6.464
 4924POPC   D2A62812  27.607  44.702   6.764
 4924POPC   C3A62813  27.590  44.640   7.064
 4924POPC   C4A62814  27.550  44.701   7.364
 4924POPC   C1B62815  27.456  44.452   6.464
 4924POPC   C2B62816  27.395  44.460   6.764
 4924POPC   C3B62817  27.369  44.438   7.064
 4924POPC   C4B62818  27.461  44.443   7.364
 4925POPC   NC362819  22.950  33.789   5.564
 4925POPC   PO462820  22.916  33.818   5.864
 4925POPC   GL162821  22.923  33.789   6.164
 4925POPC   GL262822  22.789  33.773   6.164
 4925POPC   C1A62823  22.984  33.835   6.464
 4925POPC   D2A62824  22.914  33.797   6.764
 4925POPC   C3A62825  22.898  33.840   7.064
 4925POPC   C4A62826  22.907  33.759   7.364
 4925POPC   C1B62827  22.706  33.832   6.464
 4925POPC   C2B62828  22.714  33.804   6.764
 4925POPC   C3B62829  22.731  33.742   7.064
 4925POPC   C4B62830  22.648  33.793   7.364
 4926POPC   NC362831  19.837   5.892   5.564
 4926POPC   PO462832  19.860   5.825   5.864
 4926POPC   GL162833  19.882   5.831   6.164
 4926POPC   GL262834  19.815   5.724   6.164
 4926POPC   C1A62835  19.850   5.831   6.464
 4926POPC   D2A62836  19.794   5.832   6.764
 4926POPC   C3A62837  19.811   5.859   7.064
 4926POPC   C4A62838  19.798   5.856   7.364
 4926POPC   C1B62839  19.744   5.684   6.464
 4926POPC   C2B62840  19.708   5.624   6.764
 4926POPC   C3B62841  19.710   5.649   7.064
 4926POPC   C4B62842  19.718   5.677   7.364
 4927POPC   NC362843  35.327  14.441   5.564
 4927POPC   PO462844  35.373  14.414   5.864
 4927POPC   GL162845  35.401  14.410   6.164
 4927POPC   GL262846  35.358  14.286   6.164
 4927POPC   C1A62847  35.359  14.373   6.464
 4927POPC   D2A62848  35.310  14.453   6.764
 4927POPC   C3A62849  35.402  14.403   7.064
 4927POPC   C4A62850  35.357  14.452   7.364
 4927POPC   C1B62851  35.485  14.210   6.464
 4927POPC   C2B62852  35.456  14.175   6.764
 4927POPC   C3B62853  35.422  14.153   7.064
 4927POPC   C4B62854  35.488  14.190   7.364
 4928POPC   NC362855   6.660  43.085   5.564
 4928POPC   PO462856   6.677  43.144   5.864
 4928POPC   GL162857   6.677  43.067   6.164
 4928POPC   GL262858   6.603  43.163   6.164
 4928POPC   C1A62859   6.635  43.071   6.464
 4928POPC   D2A62860   6.650  43.138   6.764
 4928POPC   C3A62861   6.621  43.117   7.064
 4928POPC   C4A62862   6.598  43.137   7.364
 4928POPC   C1B62863   6.476  43.331   6.464
 4928POPC   C2B62864   6.527  43.271   6.764
 4928POPC   C3B62865   6.435  43.282   7.064
 4928POPC   C4B62866   6.515  43.294   7.364
 4929POPC   NC362867  34.622  39.229   5.564
 4929POPC   PO462868  34.581  39.229   5.864
 4929POPC   GL162869  34.600  39.215   6.164
 4929POPC   GL262870  34.640  39.097   6.164
 4929POPC   C1A62871  34.605  39.278   6.464
 4929POPC   D2A62872  34.606  39.240   6.764
 4929POPC   C3A62873  34.620  39.257   7.064
 4929POPC   C4A62874  34.595  39.265   7.364
 4929POPC   C1B62875  34.700  39.007   6.464
 4929POPC   C2B62876  34.677  39.058   6.764
 4929POPC   C3B62877  34.700  39.048   7.064
 4929POPC   C4B62878  34.714  38.997   7.364
 4930POPC   NC362879   4.347  10.496   5.564
 4930POPC   PO462880   4.288  10.532   5.864
 4930POPC   GL162881   4.293  10.527   6.164
 4930POPC   GL262882   4.230  10.481   6.164
 4930POPC   C1A62883   4.293  10.499   6.464
 4930POPC   D2A62884   4.339  10.517   6.764
 4930POPC   C3A62885   4.366  10.498   7.064
 4930POPC   C4A62886   4.298  10.555   7.364
 4930POPC   C1B62887   4.038  10.451   6.464
 4930POPC   C2B62888   4.053  10.449   6.764
 4930POPC   C3B62889   4.032  10.492   7.064
 4930POPC   C4B62890   4.097  10.476   7.364
 4931POPC   NC362891  10.508   1.965   5.564
 4931POPC   PO462892  10.480   1.971   5.864
 4931POPC   GL162893  10.540   1.977   6.164
 4931POPC   GL262894  10.414   1.953   6.164
 4931POPC   C1A62895  10.526   2.001   6.464
 4931POPC   D2A62896  10.481   2.017   6.764
 4931POPC   C3A62897  10.570   2.023   7.064
 4931POPC   C4A62898  10.492   2.012   7.364
 4931POPC   C1B62899  10.267   1.952   6.464
 4931POPC   C2B62900  10.292   1.978   6.764
 4931POPC   C3B62901  10.232   1.912   7.064
 4931POPC   C4B62902  10.305   1.964   7.364
 4932POPC   NC362903  33.757  41.560   5.564
 4932POPC   PO462904  33.792  41.600   5.864
 4932POPC   GL162905  33.794  41.604   6.164
 4932POPC   GL262906  33.724  41.541   6.164
 4932POPC   C1A62907  33.784  41.546   6.464
 4932POPC   D2A62908  33.785  41.605   6.764
 4932POPC   C3A62909  33.846  41.551   7.064
 4932POPC   C4A62910  33.790  41.573   7.364
 4932POPC   C1B62911  33.616  41.473   6.464
 4932POPC   C2B62912  33.543  41.423   6.764
 4932POPC   C3B62913  33.620  41.432   7.064
 4932POPC   C4B62914  33.616  41.480   7.364
 4933POPC   NC362915  15.969  40.040   5.564
 4933POPC   PO462916  15.948  39.958   5.864
 4933POPC   GL162917  15.983  40.056   6.164
 4933POPC   GL262918  15.858  40.007   6.164
 4933POPC   C1A62919  15.979  40.015   6.464
 4933POPC   D2A62920  15.943  39.994   6.764
 4933POPC   C3A62921  15.955  40.017   7.064
 4933POPC   C4A62922  15.982  40.027   7.364
 4933POPC   C1B62923  15.750  39.923   6.464
 4933POPC   C2B62924  15.697  39.952   6.764
 4933POPC   C3B62925  15.758  39.999   7.064
 4933POPC   C4B62926  15.758  39.927   7.364
 4934POPC   NC362927  43.932  19.073   5.564
 4934POPC   PO462928  43.904  19.097   5.864
 4934POPC   GL162929  43.841  19.087   6.164
 4934POPC   GL262930  43.777  19.120   6.164
 4934POPC   C1A62931  43.924  19.072   6.464
 4934POPC   D2A62932  43.919  19.012   6.764
 4934POPC   C3A62933  43.904  19.075   7.064
 4934POPC   C4A62934  43.849  19.066   7.364
 4934POPC   C1B62935  43.661  19.194   6.464
 4934POPC   C2B62936  43.708  19.167   6.764
 4934POPC   C3B62937  43.609  19.193   7.064
 4934POPC   C4B62938  43.707  19.164   7.364
 4935POPC   NC362939   8.951  41.577   5.564
 4935POPC   PO462940   8.944  41.519   5.864
 4935POPC   GL162941   8.981  41.597   6.164
 4935POPC   GL262942   9.046  41.486   6.164
 4935POPC   C1A62943   8.930  41.552   6.464
 4935POPC   D2A62944   9.013  41.528   6.764
 4935POPC   C3A62945   9.014  41.575   7.064
 4935POPC   C4A62946   8.982  41.516   7.364
 4935POPC   C1B62947   9.114  41.331   6.464
 4935POPC   C2B62948   9.159  41.310   6.764
 4935POPC   C3B62949   9.122  41.372   7.064
 4935POPC   C4B62950   9.124  41.334   7.364
 4936POPC   NC362951  20.615  41.514   5.564
 4936POPC   PO462952  20.617  41.551   5.864
 4936POPC   GL162953  20.608  41.558   6.164
 4936POPC   GL262954  20.456  41.579   6.164
 4936POPC   C1A62955  20.611  41.548   6.464
 4936POPC   D2A62956  20.584  41.556   6.764
 4936POPC   C3A62957  20.565  41.595   7.064
 4936POPC   C4A62958  20.607  41.579   7.364
 4936POPC   C1B62959  20.313  41.557   6.464
 4936POPC   C2B62960  20.314  41.568   6.764
 4936POPC   C3B62961  20.334  41.554   7.064
 4936POPC   C4B62962  20.378  41.575   7.364
 4937POPC   NC362963  43.900  12.838   5.564
 4937POPC   PO462964  43.870  12.863   5.864
 4937POPC   GL162965  43.848  12.818   6.164
 4937POPC   GL262966  43.890  12.688   6.164
 4937POPC   C1A62967  43.855  12.851   6.464
 4937POPC   D2A62968  43.913  12.884   6.764
 4937POPC   C3A62969  43.910  12.901   7.064
 4937POPC   C4A62970  43.922  12.846   7.364
 4937POPC   C1B62971  43.812  12.569   6.464
 4937POPC   C2B62972  43.774  12.634   6.764
 4937POPC   C3B62973  43.830  12.597   7.064
 4937POPC   C4B62974  43.759  12.654   7.364
 4938POPC   NC362975   5.095  34.529   5.564
 4938POPC   PO462976   5.099  34.597   5.864
 4938POPC   GL162977   5.074  34.531   6.164
 4938POPC   GL262978   5.176  34.635   6.164
 4938POPC   C1A62979   5.142  34.534   6.464
 4938POPC   D2A62980   5.078  34.572   6.764
 4938POPC   C3A62981   5.092  34.579   7.064
 4938POPC   C4A62982   5.086  34.566   7.364
 4938POPC   C1B62983   5.227  34.750   6.464
 4938POPC   C2B62984   5.302  34.776   6.764
 4938POPC   C3B62985   5.264  34.781   7.064
 4938POPC   C4B62986   5.266  34.737   7.364
 4939POPC   NC362987   1.971  15.197   5.564
 4939POPC   PO462988   2.028  15.149   5.864
 4939POPC   GL162989   1.980  15.180   6.164
 4939POPC   GL262990   1.867  15.219   6.164
 4939POPC   C1A62991   1.991  15.192   6.464
 4939POPC   D2A62992   2.036  15.210   6.764
 4939POPC   C3A62993   1.952  15.136   7.064
 4939POPC   C4A62994   2.028  15.225   7.364
 4939POPC   C1B62995   1.794  15.263   6.464
 4939POPC   C2B62996   1.760  15.303   6.764
 4939POPC   C3B62997   1.799  15.256   7.064
 4939POPC   C4B62998   1.809  15.250   7.364
 4940POPC   NC362999   9.001  33.801   5.564
 4940POPC   PO463000   9.018  33.765   5.864
 4940POPC   GL163001   8.989  33.768   6.164
 4940POPC   GL263002   8.850  33.806   6.164
 4940POPC   C1A63003   8.978  33.755   6.464
 4940POPC   D2A63004   8.989  33.754   6.764
 4940POPC   C3A63005   8.985  33.840   7.064
 4940POPC   C4A63006   8.963  33.754   7.364
 4940POPC   C1B63007   8.678  33.811   6.464
 4940POPC   C2B63008   8.753  33.807   6.764
 4940POPC   C3B63009   8.674  33.838   7.064
 4940POPC   C4B63010   8.681  33.839   7.364
 4941POPC   NC363011  22.168  37.726   5.564
 4941POPC   PO463012  22.170  37.699   5.864
 4941POPC   GL163013  22.136  37.665   6.164
 4941POPC   GL263014  22.021  37.605   6.164
 4941POPC   C1A63015  22.201  37.685   6.464
 4941POPC   D2A63016  22.190  37.668   6.764
 4941POPC   C3A63017  22.165  37.688   7.064
 4941POPC   C4A63018  22.202  37.706   7.364
 4941POPC   C1B63019  21.897  37.567   6.464
 4941POPC   C2B63020  21.974  37.568   6.764
 4941POPC   C3B63021  21.959  37.551   7.064
 4941POPC   C4B63022  21.945  37.533   7.364
 4942POPC   NC363023  18.332  17.546   5.564
 4942POPC   PO463024  18.316  17.522   5.864
 4942POPC   GL163025  18.264  17.476   6.164
 4942POPC   GL263026  18.147  17.428   6.164
 4942POPC   C1A63027  18.282  17.457   6.464
 4942POPC   D2A63028  18.270  17.460   6.764
 4942POPC   C3A63029  18.271  17.520   7.064
 4942POPC   C4A63030  18.287  17.469   7.364
 4942POPC   C1B63031  18.049  17.473   6.464
 4942POPC   C2B63032  18.044  17.426   6.764
 4942POPC   C3B63033  18.075  17.434   7.064
 4942POPC   C4B63034  18.025  17.463   7.364
 4943POPC   NC363035  32.232  19.854   5.564
 4943POPC   PO463036  32.286  19.839   5.864
 4943POPC   GL163037  32.221  19.809   6.164
 4943POPC   GL263038  32.352  19.769   6.164
 4943POPC   C1A63039  32.259  19.851   6.464
 4943POPC   D2A63040  32.270  19.877   6.764
 4943POPC   C3A63041  32.227  19.851   7.064
 4943POPC   C4A63042  32.241  19.867   7.364
 4943POPC   C1B63043  32.420  19.678   6.464
 4943POPC   C2B63044  32.423  19.729   6.764
 4943POPC   C3B63045  32.468  19.717   7.064
 4943POPC   C4B63046  32.474  19.715   7.364
 4944POPC   NC363047  24.504  27.569   5.564
 4944POPC   PO463048  24.518  27.585   5.864
 4944POPC   GL163049  24.459  27.638   6.164
 4944POPC   GL263050  24.596  27.554   6.164
 4944POPC   C1A63051  24.508  27.637   6.464
 4944POPC   D2A63052  24.530  27.642   6.764
 4944POPC   C3A63053  24.491  27.618   7.064
 4944POPC   C4A63054  24.499  27.627   7.364
 4944POPC   C1B63055  24.755  27.526   6.464
 4944POPC   C2B63056  24.690  27.591   6.764
 4944POPC   C3B63057  24.782  27.512   7.064
 4944POPC   C4B63058  24.703  27.585   7.364
 4945POPC   NC363059   2.723  30.732   5.564
 4945POPC   PO463060   2.792  30.744   5.864
 4945POPC   GL163061   2.773  30.650   6.164
 4945POPC   GL263062   2.775  30.802   6.164
 4945POPC   C1A63063   2.731  30.682   6.464
 4945POPC   D2A63064   2.740  30.657   6.764
 4945POPC   C3A63065   2.754  30.683   7.064
 4945POPC   C4A63066   2.807  30.652   7.364
 4945POPC   C1B63067   2.705  30.987   6.464
 4945POPC   C2B63068   2.654  30.977   6.764
 4945POPC   C3B63069   2.682  30.960   7.064
 4945POPC   C4B63070   2.740  30.888   7.364
 4946POPC   NC363071  21.361  33.768   5.564
 4946POPC   PO463072  21.385  33.803   5.864
 4946POPC   GL163073  21.409  33.762   6.164
 4946POPC   GL263074  21.306  33.869   6.164
 4946POPC   C1A63075  21.355  33.831   6.464
 4946POPC   D2A63076  21.416  33.799   6.764
 4946POPC   C3A63077  21.425  33.795   7.064
 4946POPC   C4A63078  21.346  33.751   7.364
 4946POPC   C1B63079  21.133  33.872   6.464
 4946POPC   C2B63080  21.183  33.872   6.764
 4946POPC   C3B63081  21.133  33.900   7.064
 4946POPC   C4B63082  21.124  33.938   7.364
 4947POPC   NC363083  44.621  21.338   5.564
 4947POPC   PO463084  44.688  21.380   5.864
 4947POPC   GL163085  44.693  21.394   6.164
 4947POPC   GL263086  44.637  21.287   6.164
 4947POPC   C1A63087  44.619  21.423   6.464
 4947POPC   D2A63088  44.635  21.350   6.764
 4947POPC   C3A63089  44.687  21.355   7.064
 4947POPC   C4A63090  44.625  21.397   7.364
 4947POPC   C1B63091  44.623  21.152   6.464
 4947POPC   C2B63092  44.671  21.174   6.764
 4947POPC   C3B63093  44.592  21.132   7.064
 4947POPC   C4B63094  44.619  21.169   7.364
 4948POPC   NC363095  37.660  18.321   5.564
 4948POPC   PO463096  37.711  18.249   5.864
 4948POPC   GL163097  37.630  18.252   6.164
 4948POPC   GL263098  37.589  18.306   6.164
 4948POPC   C1A63099  37.729  18.272   6.464
 4948POPC   D2A63100  37.682  18.323   6.764
 4948POPC   C3A63101  37.652  18.238   7.064
 4948POPC   C4A63102  37.649  18.307   7.364
 4948POPC   C1B63103  37.459  18.366   6.464
 4948POPC   C2B63104  37.407  18.316   6.764
 4948POPC   C3B63105  37.481  18.297   7.064
 4948POPC   C4B63106  37.408  18.326   7.364
 4949POPC   NC363107  41.534  36.873   5.564
 4949POPC   PO463108  41.574  36.859   5.864
 4949POPC   GL163109  41.533  36.919   6.164
 4949POPC   GL263110  41.533  36.826   6.164
 4949POPC   C1A63111  41.568  36.859   6.464
 4949POPC   D2A63112  41.584  36.915   6.764
 4949POPC   C3A63113  41.589  36.902   7.064
 4949POPC   C4A63114  41.514  36.910   7.364
 4949POPC   C1B63115  41.487  36.609   6.464
 4949POPC   C2B63116  41.515  36.649   6.764
 4949POPC   C3B63117  41.548  36.686   7.064
 4949POPC   C4B63118  41.484  36.701   7.364
 4950POPC   NC363119   8.969   3.551   5.564
 4950POPC   PO463120   8.933   3.570   5.864
 4950POPC   GL163121   8.923   3.529   6.164
 4950POPC   GL263122   8.833   3.493   6.164
 4950POPC   C1A63123   9.007   3.557   6.464
 4950POPC   D2A63124   8.962   3.553   6.764
 4950POPC   C3A63125   9.008   3.498   7.064
 4950POPC   C4A63126   8.934   3.507   7.364
 4950POPC   C1B63127   8.756   3.496   6.464
 4950POPC   C2B63128   8.746   3.541   6.764
 4950POPC   C3B63129   8.694   3.505   7.064
 4950POPC   C4B63130   8.752   3.581   7.364
 4951POPC   NC363131  15.985  38.431   5.564
 4951POPC   PO463132  15.929  38.438   5.864
 4951POPC   GL163133  15.924  38.408   6.164
 4951POPC   GL263134  15.819  38.336   6.164
 4951POPC   C1A63135  15.972  38.498   6.464
 4951POPC   D2A63136  15.948  38.431   6.764
 4951POPC   C3A63137  16.003  38.428   7.064
 4951POPC   C4A63138  15.983  38.460   7.364
 4951POPC   C1B63139  15.774  38.318   6.464
 4951POPC   C2B63140  15.768  38.276   6.764
 4951POPC   C3B63141  15.793  38.235   7.064
 4951POPC   C4B63142  15.792  38.316   7.364
 4952POPC   NC363143  31.424  29.182   5.564
 4952POPC   PO463144  31.468  29.195   5.864
 4952POPC   GL163145  31.456  29.097   6.164
 4952POPC   GL263146  31.367  28.997   6.164
 4952POPC   C1A63147  31.453  29.152   6.464
 4952POPC   D2A63148  31.470  29.185   6.764
 4952POPC   C3A63149  31.453  29.174   7.064
 4952POPC   C4A63150  31.469  29.141   7.364
 4952POPC   C1B63151  31.367  28.947   6.464
 4952POPC   C2B63152  31.293  28.949   6.764
 4952POPC   C3B63153  31.374  28.929   7.064
 4952POPC   C4B63154  31.312  28.970   7.364
 4953POPC   NC363155  29.104   1.992   5.564
 4953POPC   PO463156  29.147   1.948   5.864
 4953POPC   GL163157  29.109   1.946   6.164
 4953POPC   GL263158  29.162   2.133   6.164
 4953POPC   C1A63159  29.187   2.039   6.464
 4953POPC   D2A63160  29.105   2.008   6.764
 4953POPC   C3A63161  29.114   2.008   7.064
 4953POPC   C4A63162  29.150   1.952   7.364
 4953POPC   C1B63163  29.131   2.239   6.464
 4953POPC   C2B63164  29.072   2.190   6.764
 4953POPC   C3B63165  29.067   2.206   7.064
 4953POPC   C4B63166  29.065   2.284   7.364
 4954POPC   NC363167   4.357  33.847   5.564
 4954POPC   PO463168   4.273  33.775   5.864
 4954POPC   GL163169   4.286  33.835   6.164
 4954POPC   GL263170   4.357  33.949   6.164
 4954POPC   C1A63171   4.281  33.834   6.464
 4954POPC   D2A63172   4.359  33.822   6.764
 4954POPC   C3A63173   4.356  33.771   7.064
 4954POPC   C4A63174   4.318  33.823   7.364
 4954POPC   C1B63175   4.401  34.066   6.464
 4954POPC   C2B63176   4.324  34.059   6.764
 4954POPC   C3B63177   4.321  34.013   7.064
 4954POPC   C4B63178   4.332  34.015   7.364
 4955POPC   NC363179  30.657  26.046   5.564
 4955POPC   PO463180  30.730  26.031   5.864
 4955POPC   GL163181  30.704  26.068   6.164
 4955POPC   GL263182  30.680  25.915   6.164
 4955POPC   C1A63183  30.742  26.024   6.464
 4955POPC   D2A63184  30.736  26.040   6.764
 4955POPC   C3A63185  30.742  26.065   7.064
 4955POPC   C4A63186  30.695  26.085   7.364
 4955POPC   C1B63187  30.601  25.821   6.464
 4955POPC   C2B63188  30.563  25.793   6.764
 4955POPC   C3B63189  30.602  25.793   7.064
 4955POPC   C4B63190  30.543  25.828   7.364
 4956POPC   NC363191  15.924  44.705   5.564
 4956POPC   PO463192  15.910  44.703   5.864
 4956POPC   GL163193  15.938  44.685   6.164
 4956POPC   GL263194  15.846  44.618   6.164
 4956POPC   C1A63195  15.906  44.641   6.464
 4956POPC   D2A63196  15.912  44.694   6.764
 4956POPC   C3A63197  15.939  44.659   7.064
 4956POPC   C4A63198  15.918  44.649   7.364
 4956POPC   C1B63199  15.779  44.559   6.464
 4956POPC   C2B63200  15.761  44.499   6.764
 4956POPC   C3B63201  15.776  44.474   7.064
 4956POPC   C4B63202  15.713  44.538   7.364
 4957POPC   NC363203   0.487   9.753   5.564
 4957POPC   PO463204   0.482   9.712   5.864
 4957POPC   GL163205   0.457   9.773   6.164
 4957POPC   GL263206   0.342   9.801   6.164
 4957POPC   C1A63207   0.390   9.757   6.464
 4957POPC   D2A63208   0.406   9.703   6.764
 4957POPC   C3A63209   0.443   9.791   7.064
 4957POPC   C4A63210   0.436   9.729   7.364
 4957POPC   C1B63211   0.157   9.765   6.464
 4957POPC   C2B63212   0.157   9.730   6.764
 4957POPC   C3B63213   0.163   9.773   7.064
 4957POPC   C4B63214   0.148   9.825   7.364
 4958POPC   NC363215  42.300  29.167   5.564
 4958POPC   PO463216  42.295  29.136   5.864
 4958POPC   GL163217  42.300  29.161   6.164
 4958POPC   GL263218  42.444  29.187   6.164
 4958POPC   C1A63219  42.369  29.098   6.464
 4958POPC   D2A63220  42.301  29.157   6.764
 4958POPC   C3A63221  42.325  29.165   7.064
 4958POPC   C4A63222  42.331  29.104   7.364
 4958POPC   C1B63223  42.506  29.336   6.464
 4958POPC   C2B63224  42.571  29.283   6.764
 4958POPC   C3B63225  42.560  29.258   7.064
 4958POPC   C4B63226  42.511  29.273   7.364
 4959POPC   NC363227  17.470  15.200   5.564
 4959POPC   PO463228  17.516  15.166   5.864
 4959POPC   GL163229  17.518  15.220   6.164
 4959POPC   GL263230  17.396  15.270   6.164
 4959POPC   C1A63231  17.548  15.205   6.464
 4959POPC   D2A63232  17.472  15.165   6.764
 4959POPC   C3A63233  17.538  15.225   7.064
 4959POPC   C4A63234  17.511  15.169   7.364
 4959POPC   C1B63235  17.307  15.375   6.464
 4959POPC   C2B63236  17.378  15.323   6.764
 4959POPC   C3B63237  17.322  15.325   7.064
 4959POPC   C4B63238  17.369  15.376   7.364
 4960POPC   NC363239  42.352  21.347   5.564
 4960POPC   PO463240  42.340  21.412   5.864
 4960POPC   GL163241  42.344  21.386   6.164
 4960POPC   GL263242  42.242  21.309   6.164
 4960POPC   C1A63243  42.363  21.410   6.464
 4960POPC   D2A63244  42.363  21.407   6.764
 4960POPC   C3A63245  42.380  21.394   7.064
 4960POPC   C4A63246  42.306  21.397   7.364
 4960POPC   C1B63247  42.263  21.176   6.464
 4960POPC   C2B63248  42.182  21.175   6.764
 4960POPC   C3B63249  42.221  21.168   7.064
 4960POPC   C4B63250  42.225  21.126   7.364
 4961POPC   NC363251  38.440  36.096   5.564
 4961POPC   PO463252  38.418  36.174   5.864
 4961POPC   GL163253  38.452  36.167   6.164
 4961POPC   GL263254  38.369  36.212   6.164
 4961POPC   C1A63255  38.498  36.164   6.464
 4961POPC   D2A63256  38.479  36.103   6.764
 4961POPC   C3A63257  38.463  36.143   7.064
 4961POPC   C4A63258  38.502  36.108   7.364
 4961POPC   C1B63259  38.270  36.227   6.464
 4961POPC   C2B63260  38.190  36.194   6.764
 4961POPC   C3B63261  38.206  36.209   7.064
 4961POPC   C4B63262  38.219  36.212   7.364
 4962POPC   NC363263  39.998  19.848   5.564
 4962POPC   PO463264  39.959  19.808   5.864
 4962POPC   GL163265  39.987  19.793   6.164
 4962POPC   GL263266  40.045  19.982   6.164
 4962POPC   C1A63267  39.984  19.801   6.464
 4962POPC   D2A63268  40.051  19.830   6.764
 4962POPC   C3A63269  40.017  19.802   7.064
 4962POPC   C4A63270  39.993  19.851   7.364
 4962POPC   C1B63271  40.190  20.060   6.464
 4962POPC   C2B63272  40.186  19.994   6.764
 4962POPC   C3B63273  40.098  20.001   7.064
 4962POPC   C4B63274  40.136  20.022   7.364
 4963POPC   NC363275  32.287  24.515   5.564
 4963POPC   PO463276  32.279  24.526   5.864
 4963POPC   GL163277  32.253  24.499   6.164
 4963POPC   GL263278  32.338  24.560   6.164
 4963POPC   C1A63279  32.296  24.491   6.464
 4963POPC   D2A63280  32.235  24.489   6.764
 4963POPC   C3A63281  32.279  24.524   7.064
 4963POPC   C4A63282  32.285  24.474   7.364
 4963POPC   C1B63283  32.405  24.677   6.464
 4963POPC   C2B63284  32.394  24.670   6.764
 4963POPC   C3B63285  32.427  24.610   7.064
 4963POPC   C4B63286  32.417  24.611   7.364
 4964POPC   NC363287  24.534  31.451   5.564
 4964POPC   PO463288  24.474  31.456   5.864
 4964POPC   GL163289  24.488  31.468   6.164
 4964POPC   GL263290  24.533  31.556   6.164
 4964POPC   C1A63291  24.518  31.514   6.464
 4964POPC   D2A63292  24.474  31.467   6.764
 4964POPC   C3A63293  24.476  31.481   7.064
 4964POPC   C4A63294  24.447  31.495   7.364
 4964POPC   C1B63295  24.531  31.677   6.464
 4964POPC   C2B63296  24.608  31.686   6.764
 4964POPC   C3B63297  24.549  31.736   7.064
 4964POPC   C4B63298  24.592  31.745   7.364
 4965POPC   NC363299  12.096   9.776   5.564
 4965POPC   PO463300  12.100   9.744   5.864
 4965POPC   GL163301  12.034   9.731   6.164
 4965POPC   GL263302  11.905   9.767   6.164
 4965POPC   C1A63303  12.125   9.725   6.464
 4965POPC   D2A63304  12.111   9.740   6.764
 4965POPC   C3A63305  12.070   9.788   7.064
 4965POPC   C4A63306  12.039   9.738   7.364
 4965POPC   C1B63307  11.875   9.810   6.464
 4965POPC   C2B63308  11.810   9.762   6.764
 4965POPC   C3B63309  11.826   9.758   7.064
 4965POPC   C4B63310  11.789   9.794   7.364
 4966POPC   NC363311  40.804  12.028   5.564
 4966POPC   PO463312  40.825  12.079   5.864
 4966POPC   GL163313  40.822  12.032   6.164
 4966POPC   GL263314  40.759  11.951   6.164
 4966POPC   C1A63315  40.751  12.031   6.464
 4966POPC   D2A63316  40.817  12.105   6.764
 4966POPC   C3A63317  40.780  12.081   7.064
 4966POPC   C4A63318  40.801  12.087   7.364
 4966POPC   C1B63319  40.729  11.812   6.464
 4966POPC   C2B63320  40.719  11.819   6.764
 4966POPC   C3B63321  40.745  11.792   7.064
 4966POPC   C4B63322  40.682  11.862   7.364
 4967POPC   NC363323   4.277  38.502   5.564
 4967POPC   PO463324   4.282  38.441   5.864
 4967POPC   GL163325   4.312  38.418   6.164
 4967POPC   GL263326   4.352  38.581   6.164
 4967POPC   C1A63327   4.361  38.427   6.464
 4967POPC   D2A63328   4.286  38.485   6.764
 4967POPC   C3A63329   4.338  38.445   7.064
 4967POPC   C4A63330   4.338  38.440   7.364
 4967POPC   C1B63331   4.462  38.708   6.464
 4967POPC   C2B63332   4.463  38.715   6.764
 4967POPC   C3B63333   4.429  38.707   7.064
 4967POPC   C4B63334   4.446  38.691   7.364
 4968POPC   NC363335  13.659  36.089   5.564
 4968POPC   PO463336  13.665  36.132   5.864
 4968POPC   GL163337  13.596  36.168   6.164
 4968POPC   GL263338  13.712  36.168   6.164
 4968POPC   C1A63339  13.627  36.149   6.464
 4968POPC   D2A63340  13.644  36.105   6.764
 4968POPC   C3A63341  13.676  36.096   7.064
 4968POPC   C4A63342  13.580  36.129   7.364
 4968POPC   C1B63343  13.887  36.150   6.464
 4968POPC   C2B63344  13.864  36.185   6.764
 4968POPC   C3B63345  13.904  36.164   7.064
 4968POPC   C4B63346  13.876  36.212   7.364
 4969POPC   NC363347  22.917  26.818   5.564
 4969POPC   PO463348  22.892  26.801   5.864
 4969POPC   GL163349  22.889  26.781   6.164
 4969POPC   GL263350  22.979  26.971   6.164
 4969POPC   C1A63351  22.977  26.817   6.464
 4969POPC   D2A63352  22.953  26.786   6.764
 4969POPC   C3A63353  22.969  26.795   7.064
 4969POPC   C4A63354  22.923  26.819   7.364
 4969POPC   C1B63355  23.116  26.994   6.464
 4969POPC   C2B63356  23.119  26.990   6.764
 4969POPC   C3B63357  23.082  27.062   7.064
 4969POPC   C4B63358  23.102  27.067   7.364
 4970POPC   NC363359  22.130  24.449   5.564
 4970POPC   PO463360  22.113  24.527   5.864
 4970POPC   GL163361  22.193  24.518   6.164
 4970POPC   GL263362  22.018  24.489   6.164
 4970POPC   C1A63363  22.114  24.503   6.464
 4970POPC   D2A63364  22.170  24.455   6.764
 4970POPC   C3A63365  22.195  24.516   7.064
 4970POPC   C4A63366  22.133  24.471   7.364
 4970POPC   C1B63367  21.917  24.549   6.464
 4970POPC   C2B63368  21.943  24.618   6.764
 4970POPC   C3B63369  21.934  24.526   7.064
 4970POPC   C4B63370  21.919  24.587   7.364
 4971POPC   NC363371  13.641  40.742   5.564
 4971POPC   PO463372  13.677  40.807   5.864
 4971POPC   GL163373  13.605  40.783   6.164
 4971POPC   GL263374  13.618  40.890   6.164
 4971POPC   C1A63375  13.613  40.802   6.464
 4971POPC   D2A63376  13.607  40.820   6.764
 4971POPC   C3A63377  13.645  40.746   7.064
 4971POPC   C4A63378  13.629  40.753   7.364
 4971POPC   C1B63379  13.543  40.970   6.464
 4971POPC   C2B63380  13.487  41.052   6.764
 4971POPC   C3B63381  13.525  41.060   7.064
 4971POPC   C4B63382  13.548  40.986   7.364
 4972POPC   NC363383  16.699  10.574   5.564
 4972POPC   PO463384  16.755  10.513   5.864
 4972POPC   GL163385  16.775  10.546   6.164
 4972POPC   GL263386  16.683  10.627   6.164
 4972POPC   C1A63387  16.753  10.507   6.464
 4972POPC   D2A63388  16.700  10.489   6.764
 4972POPC   C3A63389  16.771  10.525   7.064
 4972POPC   C4A63390  16.693  10.547   7.364
 4972POPC   C1B63391  16.631  10.765   6.464
 4972POPC   C2B63392  16.637  10.758   6.764
 4972POPC   C3B63393  16.642  10.742   7.064
 4972POPC   C4B63394  16.629  10.742   7.364
 4973POPC   NC363395  34.591   1.203   5.564
 4973POPC   PO463396  34.616   1.254   5.864
 4973POPC   GL163397  34.572   1.254   6.164
 4973POPC   GL263398  34.664   1.074   6.164
 4973POPC   C1A63399  34.549   1.242   6.464
 4973POPC   D2A63400  34.529   1.164   6.764
 4973POPC   C3A63401  34.595   1.231   7.064
 4973POPC   C4A63402  34.603   1.173   7.364
 4973POPC   C1B63403  34.697   1.047   6.464
 4973POPC   C2B63404  34.699   0.992   6.764
 4973POPC   C3B63405  34.697   1.051   7.064
 4973POPC   C4B63406  34.658   0.975   7.364
 4974POPC   NC363407  23.733  29.144   5.564
 4974POPC   PO463408  23.710  29.165   5.864
 4974POPC   GL163409  23.682  29.167   6.164
 4974POPC   GL263410  23.782  28.994   6.164
 4974POPC   C1A63411  23.737  29.124   6.464
 4974POPC   D2A63412  23.753  29.193   6.764
 4974POPC   C3A63413  23.675  29.105   7.064
 4974POPC   C4A63414  23.735  29.099   7.364
 4974POPC   C1B63415  23.797  28.960   6.464
 4974POPC   C2B63416  23.804  28.872   6.764
 4974POPC   C3B63417  23.797  28.878   7.064
 4974POPC   C4B63418  23.821  28.875   7.364
 4975POPC   NC363419  10.477  34.584   5.564
 4975POPC   PO463420  10.536  34.611   5.864
 4975POPC   GL163421  10.535  34.542   6.164
 4975POPC   GL263422  10.516  34.472   6.164
 4975POPC   C1A63423  10.531  34.618   6.464
 4975POPC   D2A63424  10.512  34.575   6.764
 4975POPC   C3A63425  10.477  34.558   7.064
 4975POPC   C4A63426  10.560  34.623   7.364
 4975POPC   C1B63427  10.553  34.305   6.464
 4975POPC   C2B63428  10.629  34.366   6.764
 4975POPC   C3B63429  10.598  34.294   7.064
 4975POPC   C4B63430  10.541  34.288   7.364
 4976POPC   NC363431  23.746  15.954   5.564
 4976POPC   PO463432  23.702  15.922   5.864
 4976POPC   GL163433  23.731  15.913   6.164
 4976POPC   GL263434  23.888  15.976   6.164
 4976POPC   C1A63435  23.748  15.929   6.464
 4976POPC   D2A63436  23.677  15.995   6.764
 4976POPC   C3A63437  23.688  15.935   7.064
 4976POPC   C4A63438  23.716  15.999   7.364
 4976POPC   C1B63439  24.008  15.946   6.464
 4976POPC   C2B63440  23.914  15.996   6.764
 4976POPC   C3B63441  23.941  15.944   7.064
 4976POPC   C4B63442  24.003  15.970   7.364
 4977POPC   NC363443  18.318  36.931   5.564
 4977POPC   PO463444  18.266  36.952   5.864
 4977POPC   GL163445  18.286  36.865   6.164
 4977POPC   GL263446  18.225  37.008   6.164
 4977POPC   C1A63447  18.254  36.888   6.464
 4977POPC   D2A63448  18.329  36.890   6.764
 4977POPC   C3A63449  18.285  36.910   7.064
 4977POPC   C4A63450  18.237  36.944   7.364
 4977POPC   C1B63451  18.099  37.151   6.464
 4977POPC   C2B63452  18.198  37.156   6.764
 4977POPC   C3B63453  18.119  37.162   7.064
 4977POPC   C4B63454  18.190  37.076   7.364
 4978POPC   NC363455  29.174  12.854   5.564
 4978POPC   PO463456  29.184  12.867   5.864
 4978POPC   GL163457  29.148  12.862   6.164
 4978POPC   GL263458  29.135  12.751   6.164
 4978POPC   C1A63459  29.192  12.866   6.464
 4978POPC   D2A63460  29.123  12.829   6.764
 4978POPC   C3A63461  29.181  12.848   7.064
 4978POPC   C4A63462  29.146  12.888   7.364
 4978POPC   C1B63463  29.049  12.643   6.464
 4978POPC   C2B63464  29.031  12.637   6.764
 4978POPC   C3B63465  29.064  12.645   7.064
 4978POPC   C4B63466  29.053  12.630   7.364
 4979POPC   NC363467  29.912  39.975   5.564
 4979POPC   PO463468  29.903  40.018   5.864
 4979POPC   GL163469  29.967  39.968   6.164
 4979POPC   GL263470  29.994  40.152   6.164
 4979POPC   C1A63471  29.955  40.012   6.464
 4979POPC   D2A63472  29.926  40.022   6.764
 4979POPC   C3A63473  29.970  40.043   7.064
 4979POPC   C4A63474  29.890  39.994   7.364
 4979POPC   C1B63475  29.981  40.240   6.464
 4979POPC   C2B63476  30.009  40.207   6.764
 4979POPC   C3B63477  30.006  40.285   7.064
 4979POPC   C4B63478  29.942  40.228   7.364
 4980POPC   NC363479  29.190  38.414   5.564
 4980POPC   PO463480  29.133  38.423   5.864
 4980POPC   GL163481  29.177  38.451   6.164
 4980POPC   GL263482  29.272  38.483   6.164
 4980POPC   C1A63483  29.137  38.447   6.464
 4980POPC   D2A63484  29.131  38.489   6.764
 4980POPC   C3A63485  29.160  38.447   7.064
 4980POPC   C4A63486  29.192  38.435   7.364
 4980POPC   C1B63487  29.381  38.450   6.464
 4980POPC   C2B63488  29.374  38.469   6.764
 4980POPC   C3B63489  29.411  38.424   7.064
 4980POPC   C4B63490  29.442  38.420   7.364
 4981POPC   NC363491  20.584  10.496   5.564
 4981POPC   PO463492  20.604  10.526   5.864
 4981POPC   GL163493  20.573  10.489   6.164
 4981POPC   GL263494  20.723  10.567   6.164
 4981POPC   C1A63495  20.604  10.528   6.464
 4981POPC   D2A63496  20.623  10.498   6.764
 4981POPC   C3A63497  20.643  10.486   7.064
 4981POPC   C4A63498  20.654  10.556   7.364
 4981POPC   C1B63499  20.837  10.700   6.464
 4981POPC   C2B63500  20.837  10.623   6.764
 4981POPC   C3B63501  20.852  10.659   7.064
 4981POPC   C4B63502  20.852  10.640   7.364
 4982POPC   NC363503  22.934  29.148   5.564
 4982POPC   PO463504  22.915  29.098   5.864
 4982POPC   GL163505  22.926  29.098   6.164
 4982POPC   GL263506  23.047  29.109   6.164
 4982POPC   C1A63507  22.903  29.154   6.464
 4982POPC   D2A63508  22.929  29.123   6.764
 4982POPC   C3A63509  22.889  29.129   7.064
 4982POPC   C4A63510  22.898  29.152   7.364
 4982POPC   C1B63511  23.219  29.094   6.464
 4982POPC   C2B63512  23.211  29.045   6.764
 4982POPC   C3B63513  23.202  29.005   7.064
 4982POPC   C4B63514  23.150  29.018   7.364
 4983POPC   NC363515  33.032   9.749   5.564
 4983POPC   PO463516  33.067   9.723   5.864
 4983POPC   GL163517  33.018   9.740   6.164
 4983POPC   GL263518  32.937   9.894   6.164
 4983POPC   C1A63519  33.004   9.755   6.464
 4983POPC   D2A63520  33.047   9.716   6.764
 4983POPC   C3A63521  33.011   9.781   7.064
 4983POPC   C4A63522  33.057   9.744   7.364
 4983POPC   C1B63523  32.870   9.989   6.464
 4983POPC   C2B63524  32.847   9.936   6.764
 4983POPC   C3B63525  32.836   9.945   7.064
 4983POPC   C4B63526  32.920   9.904   7.364
 4984POPC   NC363527  13.590  42.316   5.564
 4984POPC   PO463528  13.596  42.300   5.864
 4984POPC   GL163529  13.634  42.332   6.164
 4984POPC   GL263530  13.764  42.323   6.164
 4984POPC   C1A63531  13.587  42.339   6.464
 4984POPC   D2A63532  13.639  42.307   6.764
 4984POPC   C3A63533  13.634  42.312   7.064
 4984POPC   C4A63534  13.600  42.339   7.364
 4984POPC   C1B63535  13.925  42.329   6.464
 4984POPC   C2B63536  13.914  42.323   6.764
 4984POPC   C3B63537  13.920  42.339   7.064
 4984POPC   C4B63538  13.835  42.324   7.364
 4985POPC   NC363539  43.142  22.210   5.564
 4985POPC   PO463540  43.127  22.166   5.864
 4985POPC   GL163541  43.110  22.134   6.164
 4985POPC   GL263542  43.119  21.995   6.164
 4985POPC   C1A63543  43.154  22.151   6.464
 4985POPC   D2A63544  43.125  22.128   6.764
 4985POPC   C3A63545  43.076  22.152   7.064
 4985POPC   C4A63546  43.088  22.183   7.364
 4985POPC   C1B63547  43.057  21.869   6.464
 4985POPC   C2B63548  43.041  21.963   6.764
 4985POPC   C3B63549  43.071  21.876   7.064
 4985POPC   C4B63550  43.101  21.873   7.364
 4986POPC   NC363551  41.509  38.468   5.564
 4986POPC   PO463552  41.597  38.431   5.864
 4986POPC   GL163553  41.596  38.408   6.164
 4986POPC   GL263554  41.601  38.516   6.164
 4986POPC   C1A63555  41.510  38.433   6.464
 4986POPC   D2A63556  41.591  38.409   6.764
 4986POPC   C3A63557  41.523  38.473   7.064
 4986POPC   C4A63558  41.592  38.467   7.364
 4986POPC   C1B63559  41.636  38.667   6.464
 4986POPC   C2B63560  41.731  38.627   6.764
 4986POPC   C3B63561  41.712  38.703   7.064
 4986POPC   C4B63562  41.684  38.677   7.364
 4987POPC   NC363563  29.160   3.522   5.564
 4987POPC   PO463564  29.179   3.536   5.864
 4987POPC   GL163565  29.187   3.577   6.164
 4987POPC   GL263566  29.252   3.580   6.164
 4987POPC   C1A63567  29.132   3.548   6.464
 4987POPC   D2A63568  29.192   3.516   6.764
 4987POPC   C3A63569  29.159   3.545   7.064
 4987POPC   C4A63570  29.183   3.551   7.364
 4987POPC   C1B63571  29.408   3.586   6.464
 4987POPC   C2B63572  29.424   3.533   6.764
 4987POPC   C3B63573  29.442   3.541   7.064
 4987POPC   C4B63574  29.433   3.524   7.364
 4988POPC   NC363575   1.950  11.334   5.564
 4988POPC   PO463576   2.010  11.265   5.864
 4988POPC   GL163577   2.006  11.290   6.164
 4988POPC   GL263578   2.143  11.234   6.164
 4988POPC   C1A63579   1.977  11.324   6.464
 4988POPC   D2A63580   1.950  11.275   6.764
 4988POPC   C3A63581   2.036  11.259   7.064
 4988POPC   C4A63582   1.982  11.266   7.364
 4988POPC   C1B63583   2.225  11.156   6.464
 4988POPC   C2B63584   2.207  11.190   6.764
 4988POPC   C3B63585   2.222  11.202   7.064
 4988POPC   C4B63586   2.216  11.196   7.364
 4989POPC   NC363587   1.995  29.125   5.564
 4989POPC   PO463588   1.978  29.183   5.864
 4989POPC   GL163589   2.036  29.184   6.164
 4989POPC   GL263590   1.880  29.128   6.164
 4989POPC   C1A63591   2.036  29.175   6.464
 4989POPC   D2A63592   2.028  29.114   6.764
 4989POPC   C3A63593   2.003  29.160   7.064
 4989POPC   C4A63594   1.964  29.147   7.364
 4989POPC   C1B63595   1.784  29.092   6.464
 4989POPC   C2B63596   1.752  29.061   6.764
 4989POPC   C3B63597   1.741  29.081   7.064
 4989POPC   C4B63598   1.779  29.091   7.364
 4990POPC   NC363599   5.904  28.341   5.564
 4990POPC   PO463600   5.882  28.404   5.864
 4990POPC   GL163601   5.820  28.320   6.164
 4990POPC   GL263602   5.769  28.267   6.164
 4990POPC   C1A63603   5.855  28.332   6.464
 4990POPC   D2A63604   5.917  28.390   6.764
 4990POPC   C3A63605   5.905  28.329   7.064
 4990POPC   C4A63606   5.918  28.396   7.364
 4990POPC   C1B63607   5.636  28.162   6.464
 4990POPC   C2B63608   5.676  28.168   6.764
 4990POPC   C3B63609   5.684  28.190   7.064
 4990POPC   C4B63610   5.669  28.237   7.364
 4991POPC   NC363611  14.399   2.752   5.564
 4991POPC   PO463612  14.376   2.788   5.864
 4991POPC   GL163613  14.372   2.773   6.164
 4991POPC   GL263614  14.383   2.691   6.164
 4991POPC   C1A63615  14.427   2.791   6.464
 4991POPC   D2A63616  14.451   2.730   6.764
 4991POPC   C3A63617  14.363   2.800   7.064
 4991POPC   C4A63618  14.397   2.731   7.364
 4991POPC   C1B63619  14.456   2.541   6.464
 4991POPC   C2B63620  14.440   2.497   6.764
 4991POPC   C3B63621  14.447   2.484   7.064
 4991POPC   C4B63622  14.433   2.492   7.364
 4992POPC   NC363623  12.819   2.771   5.564
 4992POPC   PO463624  12.859   2.807   5.864
 4992POPC   GL163625  12.898   2.769   6.164
 4992POPC   GL263626  12.914   2.883   6.164
 4992POPC   C1A63627  12.823   2.749   6.464
 4992POPC   D2A63628  12.880   2.774   6.764
 4992POPC   C3A63629  12.901   2.780   7.064
 4992POPC   C4A63630  12.839   2.803   7.364
 4992POPC   C1B63631  13.006   2.946   6.464
 4992POPC   C2B63632  13.067   2.987   6.764
 4992POPC   C3B63633  13.014   2.970   7.064
 4992POPC   C4B63634  13.014   2.900   7.364
 4993POPC   NC363635  16.754  22.191   5.564
 4993POPC   PO463636  16.779  22.156   5.864
 4993POPC   GL163637  16.721  22.200   6.164
 4993POPC   GL263638  16.761  22.300   6.164
 4993POPC   C1A63639  16.724  22.203   6.464
 4993POPC   D2A63640  16.724  22.205   6.764
 4993POPC   C3A63641  16.717  22.138   7.064
 4993POPC   C4A63642  16.713  22.143   7.364
 4993POPC   C1B63643  16.835  22.406   6.464
 4993POPC   C2B63644  16.837  22.398   6.764
 4993POPC   C3B63645  16.856  22.347   7.064
 4993POPC   C4B63646  16.792  22.428   7.364
 4994POPC   NC363647  12.030  30.647   5.564
 4994POPC   PO463648  12.123  30.649   5.864
 4994POPC   GL163649  12.126  30.684   6.164
 4994POPC   GL263650  12.004  30.824   6.164
 4994POPC   C1A63651  12.077  30.720   6.464
 4994POPC   D2A63652  12.034  30.741   6.764
 4994POPC   C3A63653  12.071  30.677   7.064
 4994POPC   C4A63654  12.093  30.696   7.364
 4994POPC   C1B63655  11.928  30.886   6.464
 4994POPC   C2B63656  11.859  30.830   6.764
 4994POPC   C3B63657  11.905  30.885   7.064
 4994POPC   C4B63658  11.919  30.890   7.364
 4995POPC   NC363659  36.942  14.406   5.564
 4995POPC   PO463660  36.930  14.362   5.864
 4995POPC   GL163661  36.920  14.386   6.164
 4995POPC   GL263662  36.820  14.346   6.164
 4995POPC   C1A63663  36.894  14.390   6.464
 4995POPC   D2A63664  36.939  14.408   6.764
 4995POPC   C3A63665  36.927  14.412   7.064
 4995POPC   C4A63666  36.947  14.425   7.364
 4995POPC   C1B63667  36.704  14.365   6.464
 4995POPC   C2B63668  36.654  14.335   6.764
 4995POPC   C3B63669  36.616  14.346   7.064
 4995POPC   C4B63670  36.691  14.324   7.364
 4996POPC   NC363671  26.853  42.358   5.564
 4996POPC   PO463672  26.847  42.308   5.864
 4996POPC   GL163673  26.845  42.368   6.164
 4996POPC   GL263674  26.753  42.251   6.164
 4996POPC   C1A63675  26.783  42.359   6.464
 4996POPC   D2A63676  26.768  42.352   6.764
 4996POPC   C3A63677  26.770  42.347   7.064
 4996POPC   C4A63678  26.823  42.332   7.364
 4996POPC   C1B63679  26.733  42.092   6.464
 4996POPC   C2B63680  26.780  42.106   6.764
 4996POPC   C3B63681  26.754  42.063   7.064
 4996POPC   C4B63682  26.725  42.121   7.364
 4997POPC   NC363683  14.369  26.819   5.564
 4997POPC   PO463684  14.424  26.830   5.864
 4997POPC   GL163685  14.387  26.769   6.164
 4997POPC   GL263686  14.325  26.709   6.164
 4997POPC   C1A63687  14.445  26.788   6.464
 4997POPC   D2A63688  14.407  26.849   6.764
 4997POPC   C3A63689  14.403  26.824   7.064
 4997POPC   C4A63690  14.431  26.774   7.364
 4997POPC   C1B63691  14.310  26.619   6.464
 4997POPC   C2B63692  14.233  26.558   6.764
 4997POPC   C3B63693  14.281  26.633   7.064
 4997POPC   C4B63694  14.316  26.606   7.364
 4998POPC   NC363695  42.375   4.319   5.564
 4998POPC   PO463696  42.373   4.349   5.864
 4998POPC   GL163697  42.340   4.331   6.164
 4998POPC   GL263698  42.239   4.419   6.164
 4998POPC   C1A63699  42.318   4.341   6.464
 4998POPC   D2A63700  42.378   4.349   6.764
 4998POPC   C3A63701  42.310   4.346   7.064
 4998POPC   C4A63702  42.318   4.302   7.364
 4998POPC   C1B63703  42.149   4.528   6.464
 4998POPC   C2B63704  42.226   4.510   6.764
 4998POPC   C3B63705  42.237   4.481   7.064
 4998POPC   C4B63706  42.191   4.486   7.364
 4999POPC   NC363707  11.340  39.977   5.564
 4999POPC   PO463708  11.268  40.031   5.864
 4999POPC   GL163709  11.263  40.017   6.164
 4999POPC   GL263710  11.190  40.127   6.164
 4999POPC   C1A63711  11.334  40.021   6.464
 4999POPC   D2A63712  11.321  40.010   6.764
 4999POPC   C3A63713  11.303  39.963   7.064
 4999POPC   C4A63714  11.271  39.970   7.364
 4999POPC   C1B63715  11.095  40.212   6.464
 4999POPC   C2B63716  11.158  40.229   6.764
 4999POPC   C3B63717  11.099  40.244   7.064
 4999POPC   C4B63718  11.143  40.202   7.364
 5000POPC   NC363719  16.771   1.981   5.564
 5000POPC   PO463720  16.767   1.965   5.864
 5000POPC   GL163721  16.691   2.027   6.164
 5000POPC   GL263722  16.650   2.020   6.164
 5000POPC   C1A63723  16.702   2.012   6.464
 5000POPC   D2A63724  16.708   1.968   6.764
 5000POPC   C3A63725  16.709   1.965   7.064
 5000POPC   C4A63726  16.770   2.037   7.364
 5000POPC   C1B63727  16.535   2.141   6.464
 5000POPC   C2B63728  16.478   2.102   6.764
 5000POPC   C3B63729  16.520   2.070   7.064
 5000POPC   C4B63730  16.489   2.146   7.364
 5001POPC   NC363731   1.252   5.053   5.564
 5001POPC   PO463732   1.202   5.140   5.864
 5001POPC   GL163733   1.179   5.104   6.164
 5001POPC   GL263734   1.283   4.957   6.164
 5001POPC   C1A63735   1.208   5.070   6.464
 5001POPC   D2A63736   1.216   5.054   6.764
 5001POPC   C3A63737   1.203   5.127   7.064
 5001POPC   C4A63738   1.261   5.124   7.364
 5001POPC   C1B63739   1.320   4.812   6.464
 5001POPC   C2B63740   1.302   4.802   6.764
 5001POPC   C3B63741   1.261   4.816   7.064
 5001POPC   C4B63742   1.309   4.806   7.364
 5002POPC   NC363743  19.837  10.494   5.564
 5002POPC   PO463744  19.785  10.531   5.864
 5002POPC   GL163745  19.873  10.496   6.164
 5002POPC   GL263746  19.787  10.599   6.164
 5002POPC   C1A63747  19.843  10.516   6.464
 5002POPC   D2A63748  19.858  10.527   6.764
 5002POPC   C3A63749  19.877  10.507   7.064
 5002POPC   C4A63750  19.820  10.545   7.364
 5002POPC   C1B63751  19.658  10.735   6.464
 5002POPC   C2B63752  19.684  10.732   6.764
 5002POPC   C3B63753  19.682  10.769   7.064
 5002POPC   C4B63754  19.642  10.757   7.364
 5003POPC   NC363755  32.981  32.210   5.564
 5003POPC   PO463756  33.049  32.260   5.864
 5003POPC   GL163757  32.991  32.230   6.164
 5003POPC   GL263758  33.113  32.161   6.164
 5003POPC   C1A63759  33.033  32.249   6.464
 5003POPC   D2A63760  33.012  32.218   6.764
 5003POPC   C3A63761  33.023  32.221   7.064
 5003POPC   C4A63762  32.981  32.210   7.364
 5003POPC   C1B63763  33.214  32.182   6.464
 5003POPC   C2B63764  33.271  32.176   6.764
 5003POPC   C3B63765  33.296  32.174   7.064
 5003POPC   C4B63766  33.263  32.162   7.364
 5004POPC   NC363767   1.208  30.675   5.564
 5004POPC   PO463768   1.190  30.702   5.864
 5004POPC   GL163769   1.186  30.655   6.164
 5004POPC   GL263770   1.125  30.602   6.164
 5004POPC   C1A63771   1.177  30.671   6.464
 5004POPC   D2A63772   1.164  30.728   6.764
 5004POPC   C3A63773   1.245  30.677   7.064
 5004POPC   C4A63774   1.215  30.734   7.364
 5004POPC   C1B63775   1.133  30.509   6.464
 5004POPC   C2B63776   1.099  30.483   6.764
 5004POPC   C3B63777   1.061  30.512   7.064
 5004POPC   C4B63778   1.056  30.510   7.364
 5005POPC   NC363779   2.746  27.627   5.564
 5005POPC   PO463780   2.810  27.640   5.864
 5005POPC   GL163781   2.744  27.617   6.164
 5005POPC   GL263782   2.854  27.442   6.164
 5005POPC   C1A63783   2.761  27.582   6.464
 5005POPC   D2A63784   2.737  27.544   6.764
 5005POPC   C3A63785   2.804  27.577   7.064
 5005POPC   C4A63786   2.751  27.572   7.364
 5005POPC   C1B63787   2.871  27.420   6.464
 5005POPC   C2B63788   2.906  27.383   6.764
 5005POPC   C3B63789   2.887  27.391   7.064
 5005POPC   C4B63790   2.945  27.427   7.364
 5006POPC   NC363791  36.918  29.098   5.564
 5006POPC   PO463792  36.927  29.113   5.864
 5006POPC   GL163793  36.951  29.190   6.164
 5006POPC   GL263794  36.894  29.044   6.164
 5006POPC   C1A63795  36.891  29.137   6.464
 5006POPC   D2A63796  36.945  29.135   6.764
 5006POPC   C3A63797  36.920  29.113   7.064
 5006POPC   C4A63798  36.910  29.146   7.364
 5006POPC   C1B63799  36.867  28.897   6.464
 5006POPC   C2B63800  36.910  28.935   6.764
 5006POPC   C3B63801  36.880  28.894   7.064
 5006POPC   C4B63802  36.880  28.928   7.364
 5007POPC   NC363803   4.331   5.905   5.564
 5007POPC   PO463804   4.333   5.911   5.864
 5007POPC   GL163805   4.364   5.853   6.164
 5007POPC   GL263806   4.380   6.016   6.164
 5007POPC   C1A63807   4.361   5.894   6.464
 5007POPC   D2A63808   4.343   5.832   6.764
 5007POPC   C3A63809   4.296   5.863   7.064
 5007POPC   C4A63810   4.330   5.903   7.364
 5007POPC   C1B63811   4.302   6.114   6.464
 5007POPC   C2B63812   4.369   6.148   6.764
 5007POPC   C3B63813   4.355   6.069   7.064
 5007POPC   C4B63814   4.343   6.163   7.364
 5008POPC   NC363815  40.030   5.139   5.564
 5008POPC   PO463816  39.970   5.066   5.864
 5008POPC   GL163817  40.020   5.090   6.164
 5008POPC   GL263818  39.880   5.167   6.164
 5008POPC   C1A63819  39.976   5.118   6.464
 5008POPC   D2A63820  40.015   5.101   6.764
 5008POPC   C3A63821  40.044   5.048   7.064
 5008POPC   C4A63822  40.032   5.122   7.364
 5008POPC   C1B63823  39.772   5.138   6.464
 5008POPC   C2B63824  39.782   5.182   6.764
 5008POPC   C3B63825  39.764   5.194   7.064
 5008POPC   C4B63826  39.757   5.175   7.364
 5009POPC   NC363827  35.399  26.811   5.564
 5009POPC   PO463828  35.363  26.841   5.864
 5009POPC   GL163829  35.382  26.804   6.164
 5009POPC   GL263830  35.449  26.897   6.164
 5009POPC   C1A63831  35.367  26.849   6.464
 5009POPC   D2A63832  35.312  26.779   6.764
 5009POPC   C3A63833  35.382  26.837   7.064
 5009POPC   C4A63834  35.303  26.831   7.364
 5009POPC   C1B63835  35.475  27.074   6.464
 5009POPC   C2B63836  35.445  27.035   6.764
 5009POPC   C3B63837  35.492  27.042   7.064
 5009POPC   C4B63838  35.509  27.048   7.364
 5010POPC   NC363839  40.766  34.581   5.564
 5010POPC   PO463840  40.817  34.557   5.864
 5010POPC   GL163841  40.753  34.576   6.164
 5010POPC   GL263842  40.669  34.595   6.164
 5010POPC   C1A63843  40.741  34.583   6.464
 5010POPC   D2A63844  40.747  34.571   6.764
 5010POPC   C3A63845  40.780  34.614   7.064
 5010POPC   C4A63846  40.814  34.544   7.364
 5010POPC   C1B63847  40.519  34.517   6.464
 5010POPC   C2B63848  40.500  34.472   6.764
 5010POPC   C3B63849  40.503  34.500   7.064
 5010POPC   C4B63850  40.504  34.546   7.364
 5011POPC   NC363851  19.012  39.189   5.564
 5011POPC   PO463852  19.088  39.280   5.864
 5011POPC   GL163853  19.082  39.242   6.164
 5011POPC   GL263854  18.972  39.117   6.164
 5011POPC   C1A63855  19.099  39.233   6.464
 5011POPC   D2A63856  19.019  39.267   6.764
 5011POPC   C3A63857  19.078  39.255   7.064
 5011POPC   C4A63858  19.085  39.243   7.364
 5011POPC   C1B63859  18.896  39.089   6.464
 5011POPC   C2B63860  18.880  39.063   6.764
 5011POPC   C3B63861  18.813  39.087   7.064
 5011POPC   C4B63862  18.878  39.146   7.364
 5012POPC   NC363863  32.230  22.176   5.564
 5012POPC   PO463864  32.244  22.113   5.864
 5012POPC   GL163865  32.296  22.160   6.164
 5012POPC   GL263866  32.349  22.115   6.164
 5012POPC   C1A63867  32.263  22.173   6.464
 5012POPC   D2A63868  32.227  22.165   6.764
 5012POPC   C3A63869  32.199  22.188   7.064
 5012POPC   C4A63870  32.240  22.179   7.364
 5012POPC   C1B63871  32.500  22.083   6.464
 5012POPC   C2B63872  32.510  22.028   6.764
 5012POPC   C3B63873  32.523  22.083   7.064
 5012POPC   C4B63874  32.475  22.083   7.364
 5013POPC   NC363875  36.080  33.760   5.564
 5013POPC   PO463876  36.139  33.804   5.864
 5013POPC   GL163877  36.103  33.760   6.164
 5013POPC   GL263878  36.298  33.806   6.164
 5013POPC   C1A63879  36.144  33.814   6.464
 5013POPC   D2A63880  36.125  33.843   6.764
 5013POPC   C3A63881  36.157  33.759   7.064
 5013POPC   C4A63882  36.144  33.752   7.364
 5013POPC   C1B63883  36.407  33.829   6.464
 5013POPC   C2B63884  36.417  33.820   6.764
 5013POPC   C3B63885  36.353  33.882   7.064
 5013POPC   C4B63886  36.399  33.811   7.364
 5014POPC   NC363887  26.776  25.253   5.564
 5014POPC   PO463888  26.795  25.297   5.864
 5014POPC   GL163889  26.775  25.277   6.164
 5014POPC   GL263890  26.766  25.120   6.164
 5014POPC   C1A63891  26.835  25.270   6.464
 5014POPC   D2A63892  26.856  25.298   6.764
 5014POPC   C3A63893  26.771  25.271   7.064
 5014POPC   C4A63894  26.807  25.302   7.364
 5014POPC   C1B63895  26.744  25.043   6.464
 5014POPC   C2B63896  26.821  25.062   6.764
 5014POPC   C3B63897  26.795  24.986   7.064
 5014POPC   C4B63898  26.781  25.060   7.364
 5015POPC   NC363899   1.985  21.414   5.564
 5015POPC   PO463900   1.987  21.425   5.864
 5015POPC   GL163901   1.988  21.346   6.164
 5015POPC   GL263902   2.098  21.383   6.164
 5015POPC   C1A63903   1.980  21.349   6.464
 5015POPC   D2A63904   2.037  21.339   6.764
 5015POPC   C3A63905   1.966  21.405   7.064
 5015POPC   C4A63906   1.953  21.413   7.364
 5015POPC   C1B63907   2.270  21.366   6.464
 5015POPC   C2B63908   2.210  21.430   6.764
 5015POPC   C3B63909   2.241  21.377   7.064
 5015POPC   C4B63910   2.262  21.431   7.364
 5016POPC   NC363911  12.106  23.738   5.564
 5016POPC   PO463912  12.031  23.735   5.864
 5016POPC   GL163913  12.069  23.726   6.164
 5016POPC   GL263914  12.182  23.758   6.164
 5016POPC   C1A63915  12.080  23.761   6.464
 5016POPC   D2A63916  12.121  23.665   6.764
 5016POPC   C3A63917  12.105  23.705   7.064
 5016POPC   C4A63918  12.085  23.749   7.364
 5016POPC   C1B63919  12.334  23.661   6.464
 5016POPC   C2B63920  12.363  23.729   6.764
 5016POPC   C3B63921  12.345  23.663   7.064
 5016POPC   C4B63922  12.341  23.670   7.364
 5017POPC   NC363923  21.376  39.269   5.564
 5017POPC   PO463924  21.432  39.250   5.864
 5017POPC   GL163925  21.361  39.207   6.164
 5017POPC   GL263926  21.343  39.397   6.164
 5017POPC   C1A63927  21.337  39.226   6.464
 5017POPC   D2A63928  21.420  39.215   6.764
 5017POPC   C3A63929  21.401  39.193   7.064
 5017POPC   C4A63930  21.351  39.192   7.364
 5017POPC   C1B63931  21.300  39.516   6.464
 5017POPC   C2B63932  21.288  39.445   6.764
 5017POPC   C3B63933  21.327  39.514   7.064
 5017POPC   C4B63934  21.321  39.484   7.364
 5018POPC   NC363935  38.439  38.487   5.564
 5018POPC   PO463936  38.441  38.485   5.864
 5018POPC   GL163937  38.406  38.419   6.164
 5018POPC   GL263938  38.351  38.499   6.164
 5018POPC   C1A63939  38.415  38.416   6.464
 5018POPC   D2A63940  38.406  38.458   6.764
 5018POPC   C3A63941  38.409  38.443   7.064
 5018POPC   C4A63942  38.473  38.449   7.364
 5018POPC   C1B63943  38.314  38.615   6.464
 5018POPC   C2B63944  38.318  38.595   6.764
 5018POPC   C3B63945  38.254  38.674   7.064
 5018POPC   C4B63946  38.243  38.614   7.364
 5019POPC   NC363947  26.025   1.986   5.564
 5019POPC   PO463948  26.054   2.024   5.864
 5019POPC   GL163949  26.058   1.952   6.164
 5019POPC   GL263950  25.909   1.918   6.164
 5019POPC   C1A63951  26.018   1.988   6.464
 5019POPC   D2A63952  26.081   2.020   6.764
 5019POPC   C3A63953  26.036   2.020   7.064
 5019POPC   C4A63954  26.028   1.986   7.364
 5019POPC   C1B63955  25.833   1.919   6.464
 5019POPC   C2B63956  25.759   1.952   6.764
 5019POPC   C3B63957  25.835   1.875   7.064
 5019POPC   C4B63958  25.849   1.941   7.364
 5020POPC   NC363959   0.416   6.635   5.564
 5020POPC   PO463960   0.477   6.628   5.864
 5020POPC   GL163961   0.397   6.629   6.164
 5020POPC   GL263962   0.510   6.543   6.164
 5020POPC   C1A63963   0.406   6.631   6.464
 5020POPC   D2A63964   0.418   6.614   6.764
 5020POPC   C3A63965   0.397   6.616   7.064
 5020POPC   C4A63966   0.413   6.687   7.364
 5020POPC   C1B63967   0.672   6.550   6.464
 5020POPC   C2B63968   0.666   6.507   6.764
 5020POPC   C3B63969   0.682   6.488   7.064
 5020POPC   C4B63970   0.662   6.518   7.364
 5021POPC   NC363971  10.494  26.773   5.564
 5021POPC   PO463972  10.506  26.848   5.864
 5021POPC   GL163973  10.541  26.822   6.164
 5021POPC   GL263974  10.537  26.671   6.164
 5021POPC   C1A63975  10.557  26.855   6.464
 5021POPC   D2A63976  10.514  26.785   6.764
 5021POPC   C3A63977  10.493  26.831   7.064
 5021POPC   C4A63978  10.537  26.792   7.364
 5021POPC   C1B63979  10.630  26.620   6.464
 5021POPC   C2B63980  10.577  26.607   6.764
 5021POPC   C3B63981  10.625  26.572   7.064
 5021POPC   C4B63982  10.576  26.555   7.364
 5022POPC   NC363983  40.784   6.617   5.564
 5022POPC   PO463984  40.760   6.684   5.864
 5022POPC   GL163985  40.812   6.606   6.164
 5022POPC   GL263986  40.883   6.486   6.164
 5022POPC   C1A63987  40.789   6.682   6.464
 5022POPC   D2A63988  40.737   6.604   6.764
 5022POPC   C3A63989  40.787   6.690   7.064
 5022POPC   C4A63990  40.763   6.686   7.364
 5022POPC   C1B63991  40.912   6.429   6.464
 5022POPC   C2B63992  40.882   6.367   6.764
 5022POPC   C3B63993  40.908   6.430   7.064
 5022POPC   C4B63994  40.876   6.424   7.364
 5023POPC   NC363995   8.189  25.259   5.564
 5023POPC   PO463996   8.147  25.235   5.864
 5023POPC   GL163997   8.205  25.253   6.164
 5023POPC   GL263998   8.358  25.180   6.164
 5023POPC   C1A63999   8.155  25.241   6.464
 5023POPC   D2A64000   8.195  25.259   6.764
 5023POPC   C3A64001   8.217  25.295   7.064
 5023POPC   C4A64002   8.165  25.265   7.364
 5023POPC   C1B64003   8.398  25.213   6.464
 5023POPC   C2B64004   8.429  25.122   6.764
 5023POPC   C3B64005   8.391  25.134   7.064
 5023POPC   C4B64006   8.442  25.142   7.364
 5024POPC   NC364007  28.338  44.696   5.564
 5024POPC   PO464008  28.366  44.662   5.864
 5024POPC   GL164009  28.404  44.669   6.164
 5024POPC   GL264010  28.273  44.718   6.164
 5024POPC   C1A64011  28.337  44.674   6.464
 5024POPC   D2A64012  28.354  44.697   6.764
 5024POPC   C3A64013  28.386  44.652   7.064
 5024POPC   C4A64014  28.369  44.664   7.364
 5024POPC   C1B64015  28.142  44.781   6.464
 5024POPC   C2B64016  28.185  44.759   6.764
 5024POPC   C3B64017  28.173  44.785   7.064
 5024POPC   C4B64018  28.164  44.760   7.364
 5025POPC   NC364019  13.653   0.413   5.564
 5025POPC   PO464020  13.609   0.395   5.864
 5025POPC   GL164021  13.665   0.389   6.164
 5025POPC   GL264022  13.602   0.337   6.164
 5025POPC   C1A64023  13.646   0.483   6.464
 5025POPC   D2A64024  13.627   0.469   6.764
 5025POPC   C3A64025  13.662   0.391   7.064
 5025POPC   C4A64026  13.629   0.466   7.364
 5025POPC   C1B64027  13.530   0.217   6.464
 5025POPC   C2B64028  13.448   0.234   6.764
 5025POPC   C3B64029  13.501   0.281   7.064
 5025POPC   C4B64030  13.440   0.187   7.364
 5026POPC   NC364031  15.983  36.861   5.564
 5026POPC   PO464032  15.942  36.925   5.864
 5026POPC   GL164033  15.947  36.912   6.164
 5026POPC   GL264034  16.045  36.790   6.164
 5026POPC   C1A64035  15.975  36.864   6.464
 5026POPC   D2A64036  15.934  36.896   6.764
 5026POPC   C3A64037  15.910  36.872   7.064
 5026POPC   C4A64038  16.000  36.935   7.364
 5026POPC   C1B64039  16.187  36.772   6.464
 5026POPC   C2B64040  16.176  36.748   6.764
 5026POPC   C3B64041  16.102  36.731   7.064
 5026POPC   C4B64042  16.122  36.729   7.364
 5027POPC   NC364043  15.916  29.881   5.564
 5027POPC   PO464044  15.918  29.944   5.864
 5027POPC   GL164045  15.930  29.911   6.164
 5027POPC   GL264046  15.995  29.993   6.164
 5027POPC   C1A64047  15.958  29.961   6.464
 5027POPC   D2A64048  15.951  29.914   6.764
 5027POPC   C3A64049  15.928  29.953   7.064
 5027POPC   C4A64050  15.992  29.879   7.364
 5027POPC   C1B64051  16.146  30.111   6.464
 5027POPC   C2B64052  16.073  30.120   6.764
 5027POPC   C3B64053  16.105  30.087   7.064
 5027POPC   C4B64054  16.082  30.097   7.364
 5028POPC   NC364055  37.679  26.041   5.564
 5028POPC   PO464056  37.720  25.998   5.864
 5028POPC   GL164057  37.715  26.045   6.164
 5028POPC   GL264058  37.799  26.053   6.164
 5028POPC   C1A64059  37.645  26.048   6.464
 5028POPC   D2A64060  37.723  26.081   6.764
 5028POPC   C3A64061  37.653  26.069   7.064
 5028POPC   C4A64062  37.712  26.006   7.364
 5028POPC   C1B64063  37.956  26.188   6.464
 5028POPC   C2B64064  37.940  26.118   6.764
 5028POPC   C3B64065  37.949  26.171   7.064
 5028POPC   C4B64066  37.930  26.182   7.364
 5029POPC   NC364067  19.796  12.119   5.564
 5029POPC   PO464068  19.837  12.098   5.864
 5029POPC   GL164069  19.805  12.096   6.164
 5029POPC   GL264070  19.739  12.176   6.164
 5029POPC   C1A64071  19.799  12.039   6.464
 5029POPC   D2A64072  19.844  12.045   6.764
 5029POPC   C3A64073  19.822  12.094   7.064
 5029POPC   C4A64074  19.826  12.115   7.364
 5029POPC   C1B64075  19.688  12.258   6.464
 5029POPC   C2B64076  19.664  12.318   6.764
 5029POPC   C3B64077  19.642  12.297   7.064
 5029POPC   C4B64078  19.648  12.315   7.364
 5030POPC   NC364079  43.105  39.206   5.564
 5030POPC   PO464080  43.148  39.200   5.864
 5030POPC   GL164081  43.118  39.212   6.164
 5030POPC   GL264082  42.965  39.293   6.164
 5030POPC   C1A64083  43.076  39.198   6.464
 5030POPC   D2A64084  43.135  39.271   6.764
 5030POPC   C3A64085  43.122  39.206   7.064
 5030POPC   C4A64086  43.099  39.279   7.364
 5030POPC   C1B64087  42.893  39.280   6.464
 5030POPC   C2B64088  42.883  39.295   6.764
 5030POPC   C3B64089  42.897  39.280   7.064
 5030POPC   C4B64090  42.890  39.307   7.364
 5031POPC   NC364091  12.071  11.271   5.564
 5031POPC   PO464092  12.069  11.265   5.864
 5031POPC   GL164093  12.074  11.282   6.164
 5031POPC   GL264094  11.996  11.235   6.164
 5031POPC   C1A64095  12.110  11.295   6.464
 5031POPC   D2A64096  12.077  11.344   6.764
 5031POPC   C3A64097  12.031  11.333   7.064
 5031POPC   C4A64098  12.048  11.334   7.364
 5031POPC   C1B64099  11.899  11.211   6.464
 5031POPC   C2B64100  11.842  11.156   6.764
 5031POPC   C3B64101  11.825  11.178   7.064
 5031POPC   C4B64102  11.838  11.194   7.364
 5032POPC   NC364103  30.696   1.259   5.564
 5032POPC   PO464104  30.671   1.237   5.864
 5032POPC   GL164105  30.692   1.239   6.164
 5032POPC   GL264106  30.700   1.088   6.164
 5032POPC   C1A64107  30.707   1.178   6.464
 5032POPC   D2A64108  30.716   1.262   6.764
 5032POPC   C3A64109  30.739   1.186   7.064
 5032POPC   C4A64110  30.706   1.167   7.364
 5032POPC   C1B64111  30.741   1.013   6.464
 5032POPC   C2B64112  30.727   0.951   6.764
 5032POPC   C3B64113  30.677   0.935   7.064
 5032POPC   C4B64114  30.751   1.002   7.364
 5033POPC   NC364115  22.195  22.891   5.564
 5033POPC   PO464116  22.173  22.966   5.864
 5033POPC   GL164117  22.180  22.979   6.164
 5033POPC   GL264118  22.055  22.890   6.164
 5033POPC   C1A64119  22.113  22.910   6.464
 5033POPC   D2A64120  22.134  22.901   6.764
 5033POPC   C3A64121  22.177  22.986   7.064
 5033POPC   C4A64122  22.132  22.955   7.364
 5033POPC   C1B64123  21.867  22.909   6.464
 5033POPC   C2B64124  21.923  22.903   6.764
 5033POPC   C3B64125  21.941  22.886   7.064
 5033POPC   C4B64126  21.965  22.903   7.364
 5034POPC   NC364127  29.167   8.942   5.564
 5034POPC   PO464128  29.114   8.993   5.864
 5034POPC   GL164129  29.127   8.935   6.164
 5034POPC   GL264130  29.231   9.101   6.164
 5034POPC   C1A64131  29.135   8.972   6.464
 5034POPC   D2A64132  29.189   8.956   6.764
 5034POPC   C3A64133  29.167   8.948   7.064
 5034POPC   C4A64134  29.191   8.973   7.364
 5034POPC   C1B64135  29.325   9.218   6.464
 5034POPC   C2B64136  29.272   9.147   6.764
 5034POPC   C3B64137  29.237   9.203   7.064
 5034POPC   C4B64138  29.317   9.215   7.364
 5035POPC   NC364139  25.994  43.867   5.564
 5035POPC   PO464140  26.089  43.907   5.864
 5035POPC   GL164141  26.073  43.850   6.164
 5035POPC   GL264142  26.167  43.840   6.164
 5035POPC   C1A64143  26.000  43.848   6.464
 5035POPC   D2A64144  26.042  43.898   6.764
 5035POPC   C3A64145  26.057  43.852   7.064
 5035POPC   C4A64146  26.085  43.872   7.364
 5035POPC   C1B64147  26.255  43.763   6.464
 5035POPC   C2B64148  26.275  43.689   6.764
 5035POPC   C3B64149  26.272  43.686   7.064
 5035POPC   C4B64150  26.211  43.742   7.364
 5036POPC   NC364151  41.545  19.080   5.564
 5036POPC   PO464152  41.554  19.093   5.864
 5036POPC   GL164153  41.547  19.072   6.164
 5036POPC   GL264154  41.678  19.130   6.164
 5036POPC   C1A64155  41.556  19.028   6.464
 5036POPC   D2A64156  41.579  19.034   6.764
 5036POPC   C3A64157  41.568  19.060   7.064
 5036POPC   C4A64158  41.586  19.012   7.364
 5036POPC   C1B64159  41.802  19.139   6.464
 5036POPC   C2B64160  41.801  19.140   6.764
 5036POPC   C3B64161  41.786  19.133   7.064
 5036POPC   C4B64162  41.816  19.202   7.364
 5037POPC   NC364163  27.614  40.806   5.564
 5037POPC   PO464164  27.605  40.823   5.864
 5037POPC   GL164165  27.594  40.814   6.164
 5037POPC   GL264166  27.589  40.884   6.164
 5037POPC   C1A64167  27.608  40.758   6.464
 5037POPC   D2A64168  27.595  40.752   6.764
 5037POPC   C3A64169  27.572  40.740   7.064
 5037POPC   C4A64170  27.569  40.734   7.364
 5037POPC   C1B64171  27.703  41.050   6.464
 5037POPC   C2B64172  27.667  40.981   6.764
 5037POPC   C3B64173  27.649  40.986   7.064
 5037POPC   C4B64174  27.608  41.014   7.364
 5038POPC   NC364175  22.983  22.128   5.564
 5038POPC   PO464176  22.972  22.154   5.864
 5038POPC   GL164177  22.924  22.134   6.164
 5038POPC   GL264178  22.985  22.284   6.164
 5038POPC   C1A64179  22.975  22.181   6.464
 5038POPC   D2A64180  22.943  22.182   6.764
 5038POPC   C3A64181  22.986  22.129   7.064
 5038POPC   C4A64182  22.911  22.135   7.364
 5038POPC   C1B64183  23.048  22.398   6.464
 5038POPC   C2B64184  23.045  22.449   6.764
 5038POPC   C3B64185  22.959  22.437   7.064
 5038POPC   C4B64186  22.988  22.379   7.364
 5039POPC   NC364187  44.692   4.353   5.564
 5039POPC   PO464188  44.620   4.304   5.864
 5039POPC   GL164189  44.700   4.363   6.164
 5039POPC   GL264190  44.663   4.153   6.164
 5039POPC   C1A64191  44.639   4.286   6.464
 5039POPC   D2A64192  44.700   4.295   6.764
 5039POPC   C3A64193  44.694   4.306   7.064
 5039POPC   C4A64194  44.651   4.313   7.364
 5039POPC   C1B64195  44.582   4.028   6.464
 5039POPC   C2B64196  44.597   4.118   6.764
 5039POPC   C3B64197  44.594   4.040   7.064
 5039POPC   C4B64198  44.562   4.098   7.364
 5040POPC   NC364199  33.757  27.600   5.564
 5040POPC   PO464200  33.757  27.548   5.864
 5040POPC   GL164201  33.794  27.595   6.164
 5040POPC   GL264202  33.892  27.493   6.164
 5040POPC   C1A64203  33.835  27.583   6.464
 5040POPC   D2A64204  33.840  27.632   6.764
 5040POPC   C3A64205  33.811  27.584   7.064
 5040POPC   C4A64206  33.834  27.560   7.364
 5040POPC   C1B64207  33.887  27.336   6.464
 5040POPC   C2B64208  33.883  27.390   6.764
 5040POPC   C3B64209  33.884  27.422   7.064
 5040POPC   C4B64210  33.953  27.334   7.364
 5041POPC   NC364211   2.769  15.132   5.564
 5041POPC   PO464212   2.736  15.176   5.864
 5041POPC   GL164213   2.763  15.209   6.164
 5041POPC   GL264214   2.861  15.324   6.164
 5041POPC   C1A64215   2.770  15.201   6.464
 5041POPC   D2A64216   2.807  15.141   6.764
 5041POPC   C3A64217   2.772  15.159   7.064
 5041POPC   C4A64218   2.735  15.152   7.364
 5041POPC   C1B64219   2.900  15.423   6.464
 5041POPC   C2B64220   2.916  15.407   6.764
 5041POPC   C3B64221   2.886  15.421   7.064
 5041POPC   C4B64222   2.874  15.402   7.364
 5042POPC   NC364223  16.722   3.568   5.564
 5042POPC   PO464224  16.722   3.570   5.864
 5042POPC   GL164225  16.734   3.544   6.164
 5042POPC   GL264226  16.775   3.640   6.164
 5042POPC   C1A64227  16.721   3.561   6.464
 5042POPC   D2A64228  16.730   3.566   6.764
 5042POPC   C3A64229  16.715   3.557   7.064
 5042POPC   C4A64230  16.729   3.574   7.364
 5042POPC   C1B64231  16.920   3.675   6.464
 5042POPC   C2B64232  16.909   3.768   6.764
 5042POPC   C3B64233  16.883   3.728   7.064
 5042POPC   C4B64234  16.925   3.767   7.364
 5043POPC   NC364235  32.238  13.638   5.564
 5043POPC   PO464236  32.274  13.636   5.864
 5043POPC   GL164237  32.271  13.610   6.164
 5043POPC   GL264238  32.338  13.604   6.164
 5043POPC   C1A64239  32.211  13.613   6.464
 5043POPC   D2A64240  32.202  13.652   6.764
 5043POPC   C3A64241  32.280  13.650   7.064
 5043POPC   C4A64242  32.217  13.648   7.364
 5043POPC   C1B64243  32.477  13.482   6.464
 5043POPC   C2B64244  32.501  13.452   6.764
 5043POPC   C3B64245  32.512  13.519   7.064
 5043POPC   C4B64246  32.448  13.483   7.364
 5044POPC   NC364247  38.409  12.806   5.564
 5044POPC   PO464248  38.411  12.844   5.864
 5044POPC   GL164249  38.444  12.834   6.164
 5044POPC   GL264250  38.536  12.796   6.164
 5044POPC   C1A64251  38.455  12.867   6.464
 5044POPC   D2A64252  38.504  12.865   6.764
 5044POPC   C3A64253  38.501  12.804   7.064
 5044POPC   C4A64254  38.411  12.865   7.364
 5044POPC   C1B64255  38.745  12.833   6.464
 5044POPC   C2B64256  38.741  12.853   6.764
 5044POPC   C3B64257  38.685  12.856   7.064
 5044POPC   C4B64258  38.752  12.845   7.364
 5045POPC   NC364259   5.905  18.251   5.564
 5045POPC   PO464260   5.916  18.235   5.864
 5045POPC   GL164261   5.888  18.298   6.164
 5045POPC   GL264262   5.836  18.197   6.164
 5045POPC   C1A64263   5.842  18.282   6.464
 5045POPC   D2A64264   5.861  18.266   6.764
 5045POPC   C3A64265   5.913  18.281   7.064
 5045POPC   C4A64266   5.912  18.299   7.364
 5045POPC   C1B64267   5.812  18.081   6.464
 5045POPC   C2B64268   5.872  17.993   6.764
 5045POPC   C3B64269   5.796  18.034   7.064
 5045POPC   C4B64270   5.799  18.029   7.364
 5046POPC   NC364271  28.385   8.958   5.564
 5046POPC   PO464272  28.398   8.996   5.864
 5046POPC   GL164273  28.337   8.934   6.164
 5046POPC   GL264274  28.332   8.817   6.164
 5046POPC   C1A64275  28.357   8.981   6.464
 5046POPC   D2A64276  28.329   8.946   6.764
 5046POPC   C3A64277  28.387   8.994   7.064
 5046POPC   C4A64278  28.408   9.018   7.364
 5046POPC   C1B64279  28.437   8.752   6.464
 5046POPC   C2B64280  28.405   8.693   6.764
 5046POPC   C3B64281  28.437   8.686   7.064
 5046POPC   C4B64282  28.435   8.706   7.364
 5047POPC   NC364283  12.841  22.116   5.564
 5047POPC   PO464284  12.901  22.146   5.864
 5047POPC   GL164285  12.832  22.162   6.164
 5047POPC   GL264286  12.930  22.197   6.164
 5047POPC   C1A64287  12.884  22.192   6.464
 5047POPC   D2A64288  12.869  22.165   6.764
 5047POPC   C3A64289  12.850  22.142   7.064
 5047POPC   C4A64290  12.901  22.175   7.364
 5047POPC   C1B64291  13.061  22.316   6.464
 5047POPC   C2B64292  13.024  22.247   6.764
 5047POPC   C3B64293  13.041  22.289   7.064
 5047POPC   C4B64294  13.095  22.312   7.364
 5048POPC   NC364295  20.604  20.650   5.564
 5048POPC   PO464296  20.567  20.655   5.864
 5048POPC   GL164297  20.637  20.637   6.164
 5048POPC   GL264298  20.535  20.484   6.164
 5048POPC   C1A64299  20.572  20.638   6.464
 5048POPC   D2A64300  20.612  20.592   6.764
 5048POPC   C3A64301  20.622  20.577   7.064
 5048POPC   C4A64302  20.591  20.572   7.364
 5048POPC   C1B64303  20.403  20.440   6.464
 5048POPC   C2B64304  20.394  20.441   6.764
 5048POPC   C3B64305  20.448  20.439   7.064
 5048POPC   C4B64306  20.412  20.387   7.364
 5049POPC   NC364307  27.545  33.824   5.564
 5049POPC   PO464308  27.600  33.830   5.864
 5049POPC   GL164309  27.544  33.835   6.164
 5049POPC   GL264310  27.725  33.775   6.164
 5049POPC   C1A64311  27.576  33.829   6.464
 5049POPC   D2A64312  27.622  33.804   6.764
 5049POPC   C3A64313  27.594  33.802   7.064
 5049POPC   C4A64314  27.567  33.807   7.364
 5049POPC   C1B64315  27.794  33.716   6.464
 5049POPC   C2B64316  27.823  33.767   6.764
 5049POPC   C3B64317  27.821  33.759   7.064
 5049POPC   C4B64318  27.883  33.727   7.364
 5050POPC   NC364319  39.187  11.265   5.564
 5050POPC   PO464320  39.216  11.291   5.864
 5050POPC   GL164321  39.204  11.312   6.164
 5050POPC   GL264322  39.320  11.377   6.164
 5050POPC   C1A64323  39.263  11.327   6.464
 5050POPC   D2A64324  39.263  11.304   6.764
 5050POPC   C3A64325  39.254  11.268   7.064
 5050POPC   C4A64326  39.244  11.333   7.364
 5050POPC   C1B64327  39.453  11.392   6.464
 5050POPC   C2B64328  39.483  11.448   6.764
 5050POPC   C3B64329  39.482  11.471   7.064
 5050POPC   C4B64330  39.453  11.470   7.364
 5051POPC   NC364331  19.879  27.599   5.564
 5051POPC   PO464332  19.859  27.637   5.864
 5051POPC   GL164333  19.860  27.546   6.164
 5051POPC   GL264334  19.853  27.513   6.164
 5051POPC   C1A64335  19.838  27.639   6.464
 5051POPC   D2A64336  19.820  27.612   6.764
 5051POPC   C3A64337  19.882  27.546   7.064
 5051POPC   C4A64338  19.864  27.614   7.364
 5051POPC   C1B64339  19.831  27.366   6.464
 5051POPC   C2B64340  19.816  27.319   6.764
 5051POPC   C3B64341  19.857  27.389   7.064
 5051POPC   C4B64342  19.839  27.351   7.364
 5052POPC   NC364343  36.148   9.754   5.564
 5052POPC   PO464344  36.082   9.784   5.864
 5052POPC   GL164345  36.119   9.771   6.164
 5052POPC   GL264346  36.049   9.798   6.164
 5052POPC   C1A64347  36.090   9.761   6.464
 5052POPC   D2A64348  36.171   9.747   6.764
 5052POPC   C3A64349  36.094   9.754   7.064
 5052POPC   C4A64350  36.084   9.722   7.364
 5052POPC   C1B64351  35.882   9.819   6.464
 5052POPC   C2B64352  35.857   9.816   6.764
 5052POPC   C3B64353  35.865   9.893   7.064
 5052POPC   C4B64354  35.875   9.901   7.364
 5053POPC   NC364355  17.479  17.484   5.564
 5053POPC   PO464356  17.525  17.552   5.864
 5053POPC   GL164357  17.548  17.551   6.164
 5053POPC   GL264358  17.530  17.417   6.164
 5053POPC   C1A64359  17.506  17.521   6.464
 5053POPC   D2A64360  17.463  17.535   6.764
 5053POPC   C3A64361  17.500  17.495   7.064
 5053POPC   C4A64362  17.514  17.464   7.364
 5053POPC   C1B64363  17.511  17.225   6.464
 5053POPC   C2B64364  17.523  17.301   6.764
 5053POPC   C3B64365  17.489  17.267   7.064
 5053POPC   C4B64366  17.528  17.302   7.364
 5054POPC   NC364367  11.304   1.210   5.564
 5054POPC   PO464368  11.270   1.193   5.864
 5054POPC   GL164369  11.283   1.243   6.164
 5054POPC   GL264370  11.327   1.125   6.164
 5054POPC   C1A64371  11.315   1.190   6.464
 5054POPC   D2A64372  11.277   1.244   6.764
 5054POPC   C3A64373  11.319   1.224   7.064
 5054POPC   C4A64374  11.258   1.239   7.364
 5054POPC   C1B64375  11.344   1.017   6.464
 5054POPC   C2B64376  11.327   0.959   6.764
 5054POPC   C3B64377  11.356   0.945   7.064
 5054POPC   C4B64378  11.369   0.940   7.364
 5055POPC   NC364379  40.006  18.329   5.564
 5055POPC   PO464380  40.015  18.313   5.864
 5055POPC   GL164381  40.032  18.274   6.164
 5055POPC   GL264382  40.090  18.246   6.164
 5055POPC   C1A64383  40.026  18.330   6.464
 5055POPC   D2A64384  40.031  18.288   6.764
 5055POPC   C3A64385  39.963  18.259   7.064
 5055POPC   C4A64386  40.034  18.247   7.364
 5055POPC   C1B64387  40.282  18.270   6.464
 5055POPC   C2B64388  40.274  18.303   6.764
 5055POPC   C3B64389  40.305  18.216   7.064
 5055POPC   C4B64390  40.254  18.289   7.364
 5056POPC   NC364391  16.734  35.331   5.564
 5056POPC   PO464392  16.702  35.381   5.864
 5056POPC   GL164393  16.720  35.337   6.164
 5056POPC   GL264394  16.830  35.484   6.164
 5056POPC   C1A64395  16.761  35.382   6.464
 5056POPC   D2A64396  16.743  35.389   6.764
 5056POPC   C3A64397  16.728  35.393   7.064
 5056POPC   C4A64398  16.722  35.303   7.364
 5056POPC   C1B64399  16.893  35.560   6.464
 5056POPC   C2B64400  16.873  35.579   6.764
 5056POPC   C3B64401  16.855  35.576   7.064
 5056POPC   C4B64402  16.894  35.547   7.364
 5057POPC   NC364403  11.308  25.259   5.564
 5057POPC   PO464404  11.348  25.288   5.864
 5057POPC   GL164405  11.296  25.283   6.164
 5057POPC   GL264406  11.166  25.273   6.164
 5057POPC   C1A64407  11.299  25.222   6.464
 5057POPC   D2A64408  11.276  25.217   6.764
 5057POPC   C3A64409  11.262  25.306   7.064
 5057POPC   C4A64410  11.277  25.225   7.364
 5057POPC   C1B64411  11.017  25.302   6.464
 5057POPC   C2B64412  11.047  25.279   6.764
 5057POPC   C3B64413  11.042  25.282   7.064
 5057POPC   C4B64414  11.004  25.313   7.364
 5058POPC   NC364415   6.682   3.544   5.564
 5058POPC   PO464416   6.688   3.496   5.864
 5058POPC   GL164417   6.647   3.571   6.164
 5058POPC   GL264418   6.528   3.519   6.164
 5058POPC   C1A64419   6.652   3.510   6.464
 5058POPC   D2A64420   6.641   3.561   6.764
 5058POPC   C3A64421   6.653   3.548   7.064
 5058POPC   C4A64422   6.689   3.542   7.364
 5058POPC   C1B64423   6.398   3.486   6.464
 5058POPC   C2B64424   6.403   3.548   6.764
 5058POPC   C3B64425   6.411   3.525   7.064
 5058POPC   C4B64426   6.412   3.533   7.364
 5059POPC   NC364427  29.161  17.511   5.564
 5059POPC   PO464428  29.114  17.497   5.864
 5059POPC   GL164429  29.170  17.472   6.164
 5059POPC   GL264430  29.286  17.520   6.164
 5059POPC   C1A64431  29.102  17.513   6.464
 5059POPC   D2A64432  29.164  17.462   6.764
 5059POPC   C3A64433  29.185  17.556   7.064
 5059POPC   C4A64434  29.116  17.469   7.364
 5059POPC   C1B64435  29.410  17.460   6.464
 5059POPC   C2B64436  29.394  17.444   6.764
 5059POPC   C3B64437  29.339  17.480   7.064
 5059POPC   C4B64438  29.435  17.457   7.364
 5060POPC   NC364439  12.075  41.537   5.564
 5060POPC   PO464440  12.071  41.590   5.864
 5060POPC   GL164441  12.059  41.537   6.164
 5060POPC   GL264442  12.163  41.620   6.164
 5060POPC   C1A64443  12.073  41.574   6.464
 5060POPC   D2A64444  12.058  41.554   6.764
 5060POPC   C3A64445  12.096  41.592   7.064
 5060POPC   C4A64446  12.028  41.603   7.364
 5060POPC   C1B64447  12.339  41.606   6.464
 5060POPC   C2B64448  12.268  41.684   6.764
 5060POPC   C3B64449  12.358  41.670   7.064
 5060POPC   C4B64450  12.345  41.638   7.364
 5061POPC   NC364451  29.187  36.108   5.564
 5061POPC   PO464452  29.114  36.146   5.864
 5061POPC   GL164453  29.142  36.132   6.164
 5061POPC   GL264454  29.282  36.074   6.164
 5061POPC   C1A64455  29.145  36.138   6.464
 5061POPC   D2A64456  29.099  36.098   6.764
 5061POPC   C3A64457  29.121  36.092   7.064
 5061POPC   C4A64458  29.112  36.154   7.364
 5061POPC   C1B64459  29.359  36.046   6.464
 5061POPC   C2B64460  29.410  36.027   6.764
 5061POPC   C3B64461  29.401  36.083   7.064
 5061POPC   C4B64462  29.349  36.101   7.364
 5062POPC   NC364463  12.894  30.671   5.564
 5062POPC   PO464464  12.821  30.732   5.864
 5062POPC   GL164465  12.874  30.741   6.164
 5062POPC   GL264466  12.956  30.662   6.164
 5062POPC   C1A64467  12.850  30.696   6.464
 5062POPC   D2A64468  12.850  30.676   6.764
 5062POPC   C3A64469  12.856  30.704   7.064
 5062POPC   C4A64470  12.850  30.722   7.364
 5062POPC   C1B64471  13.062  30.522   6.464
 5062POPC   C2B64472  13.088  30.601   6.764
 5062POPC   C3B64473  13.044  30.585   7.064
 5062POPC   C4B64474  13.042  30.591   7.364
 5063POPC   NC364475   2.744  33.034   5.564
 5063POPC   PO464476   2.716  32.977   5.864
 5063POPC   GL164477   2.750  32.986   6.164
 5063POPC   GL264478   2.708  32.960   6.164
 5063POPC   C1A64479   2.746  33.013   6.464
 5063POPC   D2A64480   2.740  33.003   6.764
 5063POPC   C3A64481   2.772  33.068   7.064
 5063POPC   C4A64482   2.761  32.995   7.364
 5063POPC   C1B64483   2.617  32.785   6.464
 5063POPC   C2B64484   2.667  32.816   6.764
 5063POPC   C3B64485   2.658  32.812   7.064
 5063POPC   C4B64486   2.584  32.853   7.364
 5064POPC   NC364487  12.062  18.260   5.564
 5064POPC   PO464488  12.095  18.258   5.864
 5064POPC   GL164489  12.099  18.304   6.164
 5064POPC   GL264490  11.916  18.284   6.164
 5064POPC   C1A64491  12.047  18.300   6.464
 5064POPC   D2A64492  12.026  18.260   6.764
 5064POPC   C3A64493  12.050  18.277   7.064
 5064POPC   C4A64494  12.084  18.255   7.364
 5064POPC   C1B64495  11.848  18.313   6.464
 5064POPC   C2B64496  11.826  18.287   6.764
 5064POPC   C3B64497  11.838  18.319   7.064
 5064POPC   C4B64498  11.856  18.311   7.364
 5065POPC   NC364499  28.333  10.504   5.564
 5065POPC   PO464500  28.327  10.532   5.864
 5065POPC   GL164501  28.411  10.509   6.164
 5065POPC   GL264502  28.287  10.588   6.164
 5065POPC   C1A64503  28.354  10.546   6.464
 5065POPC   D2A64504  28.386  10.571   6.764
 5065POPC   C3A64505  28.371  10.509   7.064
 5065POPC   C4A64506  28.374  10.564   7.364
 5065POPC   C1B64507  28.141  10.558   6.464
 5065POPC   C2B64508  28.129  10.626   6.764
 5065POPC   C3B64509  28.115  10.559   7.064
 5065POPC   C4B64510  28.122  10.538   7.364
 5066POPC   NC364511  29.927  18.315   5.564
 5066POPC   PO464512  29.879  18.270   5.864
 5066POPC   GL164513  29.940  18.316   6.164
 5066POPC   GL264514  29.876  18.372   6.164
 5066POPC   C1A64515  29.872  18.240   6.464
 5066POPC   D2A64516  29.955  18.237   6.764
 5066POPC   C3A64517  29.927  18.309   7.064
 5066POPC   C4A64518  29.915  18.307   7.364
 5066POPC   C1B64519  29.809  18.505   6.464
 5066POPC   C2B64520  29.808  18.431   6.764
 5066POPC   C3B64521  29.753  18.449   7.064
 5066POPC   C4B64522  29.724  18.464   7.364
 5067POPC   NC364523  12.112  39.202   5.564
 5067POPC   PO464524  12.071  39.276   5.864
 5067POPC   GL164525  12.061  39.193   6.164
 5067POPC   GL264526  12.091  39.117   6.164
 5067POPC   C1A64527  12.067  39.255   6.464
 5067POPC   D2A64528  12.112  39.222   6.764
 5067POPC   C3A64529  12.081  39.199   7.064
 5067POPC   C4A64530  12.038  39.237   7.364
 5067POPC   C1B64531  12.121  39.035   6.464
 5067POPC   C2B64532  12.186  39.022   6.764
 5067POPC   C3B64533  12.139  39.029   7.064
 5067POPC   C4B64534  12.192  39.008   7.364
 5068POPC   NC364535  16.773  31.431   5.564
 5068POPC   PO464536  16.749  31.429   5.864
 5068POPC   GL164537  16.769  31.464   6.164
 5068POPC   GL264538  16.742  31.563   6.164
 5068POPC   C1A64539  16.736  31.438   6.464
 5068POPC   D2A64540  16.708  31.460   6.764
 5068POPC   C3A64541  16.711  31.466   7.064
 5068POPC   C4A64542  16.700  31.445   7.364
 5068POPC   C1B64543  16.756  31.765   6.464
 5068POPC   C2B64544  16.684  31.701   6.764
 5068POPC   C3B64545  16.729  31.755   7.064
 5068POPC   C4B64546  16.736  31.726   7.364
 5069POPC   NC364547  40.006  14.444   5.564
 5069POPC   PO464548  40.052  14.395   5.864
 5069POPC   GL164549  40.030  14.400   6.164
 5069POPC   GL264550  39.937  14.264   6.164
 5069POPC   C1A64551  39.997  14.450   6.464
 5069POPC   D2A64552  39.991  14.368   6.764
 5069POPC   C3A64553  40.052  14.374   7.064
 5069POPC   C4A64554  40.053  14.414   7.364
 5069POPC   C1B64555  39.807  14.175   6.464
 5069POPC   C2B64556  39.824  14.161   6.764
 5069POPC   C3B64557  39.868  14.217   7.064
 5069POPC   C4B64558  39.804  14.234   7.364
 5070POPC   NC364559  15.922  26.011   5.564
 5070POPC   PO464560  15.991  25.997   5.864
 5070POPC   GL164561  15.953  26.023   6.164
 5070POPC   GL264562  15.910  26.129   6.164
 5070POPC   C1A64563  15.985  26.017   6.464
 5070POPC   D2A64564  16.001  26.063   6.764
 5070POPC   C3A64565  15.989  26.027   7.064
 5070POPC   C4A64566  16.001  26.035   7.364
 5070POPC   C1B64567  15.907  26.297   6.464
 5070POPC   C2B64568  15.935  26.308   6.764
 5070POPC   C3B64569  15.881  26.291   7.064
 5070POPC   C4B64570  15.928  26.297   7.364
 5071POPC   NC364571  22.127  33.000   5.564
 5071POPC   PO464572  22.120  33.001   5.864
 5071POPC   GL164573  22.186  33.043   6.164
 5071POPC   GL264574  22.161  33.092   6.164
 5071POPC   C1A64575  22.204  33.017   6.464
 5071POPC   D2A64576  22.127  33.064   6.764
 5071POPC   C3A64577  22.133  32.994   7.064
 5071POPC   C4A64578  22.147  33.073   7.364
 5071POPC   C1B64579  22.261  33.213   6.464
 5071POPC   C2B64580  22.288  33.282   6.764
 5071POPC   C3B64581  22.301  33.305   7.064
 5071POPC   C4B64582  22.281  33.258   7.364
 5072POPC   NC364583   5.103  29.967   5.564
 5072POPC   PO464584   5.046  29.960   5.864
 5072POPC   GL164585   5.089  29.911   6.164
 5072POPC   GL264586   5.109  29.779   6.164
 5072POPC   C1A64587   5.061  29.882   6.464
 5072POPC   D2A64588   5.092  29.902   6.764
 5072POPC   C3A64589   5.054  29.934   7.064
 5072POPC   C4A64590   5.081  29.930   7.364
 5072POPC   C1B64591   5.094  29.681   6.464
 5072POPC   C2B64592   5.129  29.683   6.764
 5072POPC   C3B64593   5.104  29.680   7.064
 5072POPC   C4B64594   5.167  29.696   7.364
 5073POPC   NC364595   2.726   0.426   5.564
 5073POPC   PO464596   2.769   0.465   5.864
 5073POPC   GL164597   2.806   0.431   6.164
 5073POPC   GL264598   2.660   0.391   6.164
 5073POPC   C1A64599   2.763   0.470   6.464
 5073POPC   D2A64600   2.724   0.445   6.764
 5073POPC   C3A64601   2.754   0.416   7.064
 5073POPC   C4A64602   2.783   0.461   7.364
 5073POPC   C1B64603   2.507   0.356   6.464
 5073POPC   C2B64604   2.583   0.356   6.764
 5073POPC   C3B64605   2.556   0.303   7.064
 5073POPC   C4B64606   2.497   0.318   7.364
 5074POPC   NC364607  17.504  26.841   5.564
 5074POPC   PO464608  17.526  26.848   5.864
 5074POPC   GL164609  17.499  26.845   6.164
 5074POPC   GL264610  17.419  26.896   6.164
 5074POPC   C1A64611  17.472  26.850   6.464
 5074POPC   D2A64612  17.523  26.773   6.764
 5074POPC   C3A64613  17.554  26.803   7.064
 5074POPC   C4A64614  17.496  26.834   7.364
 5074POPC   C1B64615  17.290  26.974   6.464
 5074POPC   C2B64616  17.245  26.962   6.764
 5074POPC   C3B64617  17.262  26.898   7.064
 5074POPC   C4B64618  17.326  26.912   7.364
 5075POPC   NC364619   1.203  34.562   5.564
 5075POPC   PO464620   1.166  34.538   5.864
 5075POPC   GL164621   1.175  34.578   6.164
 5075POPC   GL264622   1.271  34.618   6.164
 5075POPC   C1A64623   1.224  34.550   6.464
 5075POPC   D2A64624   1.202  34.565   6.764
 5075POPC   C3A64625   1.169  34.547   7.064
 5075POPC   C4A64626   1.246  34.570   7.364
 5075POPC   C1B64627   1.412  34.692   6.464
 5075POPC   C2B64628   1.428  34.670   6.764
 5075POPC   C3B64629   1.403  34.668   7.064
 5075POPC   C4B64630   1.409  34.759   7.364
 5076POPC   NC364631  13.624  19.086   5.564
 5076POPC   PO464632  13.613  19.022   5.864
 5076POPC   GL164633  13.677  19.107   6.164
 5076POPC   GL264634  13.598  18.976   6.164
 5076POPC   C1A64635  13.619  19.082   6.464
 5076POPC   D2A64636  13.661  19.024   6.764
 5076POPC   C3A64637  13.625  19.054   7.064
 5076POPC   C4A64638  13.659  19.088   7.364
 5076POPC   C1B64639  13.598  18.860   6.464
 5076POPC   C2B64640  13.582  18.799   6.764
 5076POPC   C3B64641  13.536  18.793   7.064
 5076POPC   C4B64642  13.613  18.851   7.364
 5077POPC   NC364643  11.349  32.987   5.564
 5077POPC   PO464644  11.348  33.038   5.864
 5077POPC   GL164645  11.299  33.059   6.164
 5077POPC   GL264646  11.194  33.138   6.164
 5077POPC   C1A64647  11.335  33.005   6.464
 5077POPC   D2A64648  11.288  33.069   6.764
 5077POPC   C3A64649  11.273  33.031   7.064
 5077POPC   C4A64650  11.269  32.987   7.364
 5077POPC   C1B64651  11.139  33.237   6.464
 5077POPC   C2B64652  11.076  33.209   6.764
 5077POPC   C3B64653  11.144  33.210   7.064
 5077POPC   C4B64654  11.068  33.233   7.364
 5078POPC   NC364655   5.885  19.011   5.564
 5078POPC   PO464656   5.890  19.042   5.864
 5078POPC   GL164657   5.918  19.029   6.164
 5078POPC   GL264658   5.957  19.074   6.164
 5078POPC   C1A64659   5.876  19.067   6.464
 5078POPC   D2A64660   5.886  19.062   6.764
 5078POPC   C3A64661   5.821  19.010   7.064
 5078POPC   C4A64662   5.854  19.039   7.364
 5078POPC   C1B64663   6.099  19.056   6.464
 5078POPC   C2B64664   6.079  19.016   6.764
 5078POPC   C3B64665   6.075  19.073   7.064
 5078POPC   C4B64666   6.120  18.982   7.364
 5079POPC   NC364667  16.722  41.597   5.564
 5079POPC   PO464668  16.704  41.542   5.864
 5079POPC   GL164669  16.712  41.512   6.164
 5079POPC   GL264670  16.620  41.635   6.164
 5079POPC   C1A64671  16.757  41.557   6.464
 5079POPC   D2A64672  16.772  41.551   6.764
 5079POPC   C3A64673  16.737  41.590   7.064
 5079POPC   C4A64674  16.728  41.514   7.364
 5079POPC   C1B64675  16.512  41.664   6.464
 5079POPC   C2B64676  16.451  41.668   6.764
 5079POPC   C3B64677  16.485  41.633   7.064
 5079POPC   C4B64678  16.520  41.612   7.364
 5080POPC   NC364679  11.280  28.383   5.564
 5080POPC   PO464680  11.255  28.347   5.864
 5080POPC   GL164681  11.334  28.385   6.164
 5080POPC   GL264682  11.311  28.196   6.164
 5080POPC   C1A64683  11.318  28.370   6.464
 5080POPC   D2A64684  11.284  28.395   6.764
 5080POPC   C3A64685  11.310  28.368   7.064
 5080POPC   C4A64686  11.298  28.396   7.364
 5080POPC   C1B64687  11.289  28.127   6.464
 5080POPC   C2B64688  11.304  28.138   6.764
 5080POPC   C3B64689  11.262  28.083   7.064
 5080POPC   C4B64690  11.282  28.091   7.364
 5081POPC   NC364691  40.760   0.484   5.564
 5081POPC   PO464692  40.740   0.469   5.864
 5081POPC   GL164693  40.827   0.425   6.164
 5081POPC   GL264694  40.821   0.528   6.164
 5081POPC   C1A64695  40.782   0.415   6.464
 5081POPC   D2A64696  40.804   0.440   6.764
 5081POPC   C3A64697  40.775   0.401   7.064
 5081POPC   C4A64698  40.818   0.447   7.364
 5081POPC   C1B64699  40.936   0.634   6.464
 5081POPC   C2B64700  40.968   0.650   6.764
 5081POPC   C3B64701  40.929   0.682   7.064
 5081POPC   C4B64702  40.935   0.620   7.364
 5082POPC   NC364703  40.775  29.150   5.564
 5082POPC   PO464704  40.764  29.176   5.864
 5082POPC   GL164705  40.758  29.187   6.164
 5082POPC   GL264706  40.876  29.040   6.164
 5082POPC   C1A64707  40.828  29.189   6.464
 5082POPC   D2A64708  40.786  29.143   6.764
 5082POPC   C3A64709  40.737  29.096   7.064
 5082POPC   C4A64710  40.826  29.131   7.364
 5082POPC   C1B64711  40.850  28.917   6.464
 5082POPC   C2B64712  40.890  28.926   6.764
 5082POPC   C3B64713  40.916  28.969   7.064
 5082POPC   C4B64714  40.939  28.932   7.364
 5083POPC   NC364715  30.671  21.363   5.564
 5083POPC   PO464716  30.739  21.433   5.864
 5083POPC   GL164717  30.690  21.369   6.164
 5083POPC   GL264718  30.757  21.522   6.164
 5083POPC   C1A64719  30.659  21.377   6.464
 5083POPC   D2A64720  30.653  21.391   6.764
 5083POPC   C3A64721  30.735  21.350   7.064
 5083POPC   C4A64722  30.688  21.418   7.364
 5083POPC   C1B64723  30.900  21.557   6.464
 5083POPC   C2B64724  30.836  21.548   6.764
 5083POPC   C3B64725  30.885  21.599   7.064
 5083POPC   C4B64726  30.888  21.602   7.364
 5084POPC   NC364727  35.314  38.484   5.564
 5084POPC   PO464728  35.379  38.496   5.864
 5084POPC   GL164729  35.378  38.412   6.164
 5084POPC   GL264730  35.373  38.536   6.164
 5084POPC   C1A64731  35.351  38.457   6.464
 5084POPC   D2A64732  35.311  38.435   6.764
 5084POPC   C3A64733  35.344  38.426   7.064
 5084POPC   C4A64734  35.364  38.483   7.364
 5084POPC   C1B64735  35.278  38.668   6.464
 5084POPC   C2B64736  35.343  38.746   6.764
 5084POPC   C3B64737  35.309  38.664   7.064
 5084POPC   C4B64738  35.268  38.708   7.364
 5085POPC   NC364739  30.704  19.024   5.564
 5085POPC   PO464740  30.664  19.073   5.864
 5085POPC   GL164741  30.703  19.061   6.164
 5085POPC   GL264742  30.750  19.169   6.164
 5085POPC   C1A64743  30.679  19.018   6.464
 5085POPC   D2A64744  30.710  19.076   6.764
 5085POPC   C3A64745  30.694  19.064   7.064
 5085POPC   C4A64746  30.694  19.049   7.364
 5085POPC   C1B64747  30.728  19.294   6.464
 5085POPC   C2B64748  30.768  19.268   6.764
 5085POPC   C3B64749  30.697  19.331   7.064
 5085POPC   C4B64750  30.715  19.351   7.364
 5086POPC   NC364751  19.843  28.360   5.564
 5086POPC   PO464752  19.851  28.329   5.864
 5086POPC   GL164753  19.880  28.375   6.164
 5086POPC   GL264754  19.970  28.468   6.164
 5086POPC   C1A64755  19.820  28.330   6.464
 5086POPC   D2A64756  19.787  28.344   6.764
 5086POPC   C3A64757  19.791  28.346   7.064
 5086POPC   C4A64758  19.848  28.417   7.364
 5086POPC   C1B64759  20.056  28.537   6.464
 5086POPC   C2B64760  20.007  28.481   6.764
 5086POPC   C3B64761  20.075  28.469   7.064
 5086POPC   C4B64762  20.025  28.525   7.364
 5087POPC   NC364763  37.636  41.558   5.564
 5087POPC   PO464764  37.696  41.524   5.864
 5087POPC   GL164765  37.644  41.509   6.164
 5087POPC   GL264766  37.564  41.676   6.164
 5087POPC   C1A64767  37.693  41.608   6.464
 5087POPC   D2A64768  37.711  41.512   6.764
 5087POPC   C3A64769  37.714  41.555   7.064
 5087POPC   C4A64770  37.694  41.513   7.364
 5087POPC   C1B64771  37.489  41.712   6.464
 5087POPC   C2B64772  37.486  41.738   6.764
 5087POPC   C3B64773  37.507  41.695   7.064
 5087POPC   C4B64774  37.470  41.759   7.364
 5088POPC   NC364775  25.221  44.706   5.564
 5088POPC   PO464776  25.263  44.613   5.864
 5088POPC   GL164777  25.313  44.630   6.164
 5088POPC   GL264778  25.183  44.570   6.164
 5088POPC   C1A64779  25.247  44.704   6.464
 5088POPC   D2A64780  25.217  44.682   6.764
 5088POPC   C3A64781  25.256  44.614   7.064
 5088POPC   C4A64782  25.264  44.614   7.364
 5088POPC   C1B64783  25.007  44.584   6.464
 5088POPC   C2B64784  25.020  44.516   6.764
 5088POPC   C3B64785  25.086  44.553   7.064
 5088POPC   C4B64786  25.044  44.603   7.364
 5089POPC   NC364787   2.004  12.865   5.564
 5089POPC   PO464788   1.965  12.825   5.864
 5089POPC   GL164789   2.029  12.889   6.164
 5089POPC   GL264790   1.883  12.846   6.164
 5089POPC   C1A64791   2.018  12.843   6.464
 5089POPC   D2A64792   1.948  12.876   6.764
 5089POPC   C3A64793   1.965  12.832   7.064
 5089POPC   C4A64794   2.016  12.879   7.364
 5089POPC   C1B64795   1.697  12.890   6.464
 5089POPC   C2B64796   1.736  12.869   6.764
 5089POPC   C3B64797   1.772  12.873   7.064
 5089POPC   C4B64798   1.794  12.897   7.364
 5090POPC   NC364799  22.916   5.867   5.564
 5090POPC   PO464800  22.963   5.841   5.864
 5090POPC   GL164801  22.923   5.832   6.164
 5090POPC   GL264802  23.017   5.916   6.164
 5090POPC   C1A64803  22.952   5.828   6.464
 5090POPC   D2A64804  22.903   5.889   6.764
 5090POPC   C3A64805  22.926   5.836   7.064
 5090POPC   C4A64806  22.959   5.906   7.364
 5090POPC   C1B64807  23.153   5.959   6.464
 5090POPC   C2B64808  23.154   5.988   6.764
 5090POPC   C3B64809  23.160   5.980   7.064
 5090POPC   C4B64810  23.195   5.963   7.364
 5091POPC   NC364811  11.262  10.573   5.564
 5091POPC   PO464812  11.315  10.497   5.864
 5091POPC   GL164813  11.350  10.573   6.164
 5091POPC   GL264814  11.413  10.455   6.164
 5091POPC   C1A64815  11.327  10.496   6.464
 5091POPC   D2A64816  11.272  10.528   6.764
 5091POPC   C3A64817  11.311  10.574   7.064
 5091POPC   C4A64818  11.282  10.539   7.364
 5091POPC   C1B64819  11.494  10.420   6.464
 5091POPC   C2B64820  11.502  10.389   6.764
 5091POPC   C3B64821  11.487  10.387   7.064
 5091POPC   C4B64822  11.511  10.399   7.364
 5092POPC   NC364823  20.592  44.626   5.564
 5092POPC   PO464824  20.583  44.693   5.864
 5092POPC   GL164825  20.589  44.668   6.164
 5092POPC   GL264826  20.551  44.533   6.164
 5092POPC   C1A64827  20.614  44.708   6.464
 5092POPC   D2A64828  20.568  44.712   6.764
 5092POPC   C3A64829  20.633  44.651   7.064
 5092POPC   C4A64830  20.657  44.707   7.364
 5092POPC   C1B64831  20.519  44.463   6.464
 5092POPC   C2B64832  20.550  44.392   6.764
 5092POPC   C3B64833  20.463  44.466   7.064
 5092POPC   C4B64834  20.466  44.395   7.364
 5093POPC   NC364835  41.600  33.020   5.564
 5093POPC   PO464836  41.512  33.049   5.864
 5093POPC   GL164837  41.603  33.064   6.164
 5093POPC   GL264838  41.523  32.930   6.164
 5093POPC   C1A64839  41.517  33.016   6.464
 5093POPC   D2A64840  41.546  33.047   6.764
 5093POPC   C3A64841  41.586  33.021   7.064
 5093POPC   C4A64842  41.601  33.024   7.364
 5093POPC   C1B64843  41.424  32.853   6.464
 5093POPC   C2B64844  41.435  32.856   6.764
 5093POPC   C3B64845  41.405  32.792   7.064
 5093POPC   C4B64846  41.378  32.830   7.364
 5094POPC   NC364847   1.222  29.112   5.564
 5094POPC   PO464848   1.224  29.185   5.864
 5094POPC   GL164849   1.195  29.125   6.164
 5094POPC   GL264850   1.098  29.138   6.164
 5094POPC   C1A64851   1.245  29.098   6.464
 5094POPC   D2A64852   1.189  29.110   6.764
 5094POPC   C3A64853   1.198  29.164   7.064
 5094POPC   C4A64854   1.199  29.162   7.364
 5094POPC   C1B64855   1.012  29.166   6.464
 5094POPC   C2B64856   0.971  29.143   6.764
 5094POPC   C3B64857   1.008  29.128   7.064
 5094POPC   C4B64858   0.962  29.212   7.364
 5095POPC   NC364859  36.124  40.786   5.564
 5095POPC   PO464860  36.141  40.743   5.864
 5095POPC   GL164861  36.169  40.825   6.164
 5095POPC   GL264862  36.033  40.822   6.164
 5095POPC   C1A64863  36.157  40.755   6.464
 5095POPC   D2A64864  36.080  40.807   6.764
 5095POPC   C3A64865  36.128  40.817   7.064
 5095POPC   C4A64866  36.115  40.742   7.364
 5095POPC   C1B64867  35.927  40.919   6.464
 5095POPC   C2B64868  35.878  40.905   6.764
 5095POPC   C3B64869  35.932  40.945   7.064
 5095POPC   C4B64870  35.918  40.883   7.364
 5096POPC   NC364871  21.407  29.958   5.564
 5096POPC   PO464872  21.433  29.905   5.864
 5096POPC   GL164873  21.354  29.958   6.164
 5096POPC   GL264874  21.488  30.035   6.164
 5096POPC   C1A64875  21.398  29.938   6.464
 5096POPC   D2A64876  21.385  29.887   6.764
 5096POPC   C3A64877  21.337  29.930   7.064
 5096POPC   C4A64878  21.436  29.971   7.364
 5096POPC   C1B64879  21.638  30.059   6.464
 5096POPC   C2B64880  21.595  30.071   6.764
 5096POPC   C3B64881  21.554  30.025   7.064
 5096POPC   C4B64882  21.615  30.104   7.364
 5097POPC   NC364883  18.288  36.091   5.564
 5097POPC   PO464884  18.255  36.150   5.864
 5097POPC   GL164885  18.289  36.136   6.164
 5097POPC   GL264886  18.209  36.108   6.164
 5097POPC   C1A64887  18.272  36.161   6.464
 5097POPC   D2A64888  18.271  36.156   6.764
 5097POPC   C3A64889  18.290  36.142   7.064
 5097POPC   C4A64890  18.302  36.087   7.364
 5097POPC   C1B64891  18.040  36.047   6.464
 5097POPC   C2B64892  18.078  36.090   6.764
 5097POPC   C3B64893  18.046  36.062   7.064
 5097POPC   C4B64894  18.034  36.009   7.364
 5098POPC   NC364895  24.461  34.617   5.564
 5098POPC   PO464896  24.538  34.597   5.864
 5098POPC   GL164897  24.498  34.529   6.164
 5098POPC   GL264898  24.596  34.604   6.164
 5098POPC   C1A64899  24.441  34.567   6.464
 5098POPC   D2A64900  24.449  34.550   6.764
 5098POPC   C3A64901  24.513  34.559   7.064
 5098POPC   C4A64902  24.490  34.602   7.364
 5098POPC   C1B64903  24.715  34.685   6.464
 5098POPC   C2B64904  24.682  34.730   6.764
 5098POPC   C3B64905  24.739  34.741   7.064
 5098POPC   C4B64906  24.687  34.756   7.364
 5099POPC   NC364907   3.500  12.116   5.564
 5099POPC   PO464908   3.492  12.081   5.864
 5099POPC   GL164909   3.562  12.100   6.164
 5099POPC   GL264910   3.644  12.167   6.164
 5099POPC   C1A64911   3.502  12.057   6.464
 5099POPC   D2A64912   3.516  12.124   6.764
 5099POPC   C3A64913   3.525  12.042   7.064
 5099POPC   C4A64914   3.590  12.063   7.364
 5099POPC   C1B64915   3.683  12.322   6.464
 5099POPC   C2B64916   3.710  12.318   6.764
 5099POPC   C3B64917   3.690  12.253   7.064
 5099POPC   C4B64918   3.653  12.325   7.364
 5100POPC   NC364919  35.346  19.020   5.564
 5100POPC   PO464920  35.398  19.046   5.864
 5100POPC   GL164921  35.336  19.105   6.164
 5100POPC   GL264922  35.304  18.910   6.164
 5100POPC   C1A64923  35.357  19.028   6.464
 5100POPC   D2A64924  35.317  19.043   6.764
 5100POPC   C3A64925  35.361  19.031   7.064
 5100POPC   C4A64926  35.386  19.069   7.364
 5100POPC   C1B64927  35.297  18.829   6.464
 5100POPC   C2B64928  35.323  18.832   6.764
 5100POPC   C3B64929  35.331  18.763   7.064
 5100POPC   C4B64930  35.337  18.848   7.364
 5101POPC   NC364931   7.398   2.777   5.564
 5101POPC   PO464932   7.453   2.813   5.864
 5101POPC   GL164933   7.397   2.815   6.164
 5101POPC   GL264934   7.500   2.689   6.164
 5101POPC   C1A64935   7.407   2.740   6.464
 5101POPC   D2A64936   7.383   2.810   6.764
 5101POPC   C3A64937   7.383   2.786   7.064
 5101POPC   C4A64938   7.421   2.746   7.364
 5101POPC   C1B64939   7.658   2.700   6.464
 5101POPC   C2B64940   7.608   2.611   6.764
 5101POPC   C3B64941   7.607   2.646   7.064
 5101POPC   C4B64942   7.637   2.609   7.364
 5102POPC   NC364943  34.609  44.711   5.564
 5102POPC   PO464944  34.543  44.707   5.864
 5102POPC   GL164945  34.619  44.671   6.164
 5102POPC   GL264946  34.446  44.652   6.164
 5102POPC   C1A64947  34.548  44.706   6.464
 5102POPC   D2A64948  34.545  44.665   6.764
 5102POPC   C3A64949  34.543  44.661   7.064
 5102POPC   C4A64950  34.534  44.663   7.364
 5102POPC   C1B64951  34.337  44.550   6.464
 5102POPC   C2B64952  34.342  44.559   6.764
 5102POPC   C3B64953  34.354  44.595   7.064
 5102POPC   C4B64954  34.349  44.569   7.364
 5103POPC   NC364955  33.053  40.050   5.564
 5103POPC   PO464956  33.018  40.052   5.864
 5103POPC   GL164957  33.065  40.004   6.164
 5103POPC   GL264958  33.193  40.049   6.164
 5103POPC   C1A64959  32.987  40.031   6.464
 5103POPC   D2A64960  33.045  40.039   6.764
 5103POPC   C3A64961  33.005  40.033   7.064
 5103POPC   C4A64962  33.045  39.999   7.364
 5103POPC   C1B64963  33.306  40.031   6.464
 5103POPC   C2B64964  33.220  40.103   6.764
 5103POPC   C3B64965  33.305  40.065   7.064
 5103POPC   C4B64966  33.293  40.097   7.364
 5104POPC   NC364967  26.073  44.629   5.564
 5104POPC   PO464968  26.013  44.708   5.864
 5104POPC   GL164969  26.023  44.616   6.164
 5104POPC   GL264970  26.161  44.659   6.164
 5104POPC   C1A64971  26.040  44.695   6.464
 5104POPC   D2A64972  26.069  44.640   6.764
 5104POPC   C3A64973  26.053  44.646   7.064
 5104POPC   C4A64974  26.021  44.640   7.364
 5104POPC   C1B64975  26.337  44.692   6.464
 5104POPC   C2B64976  26.246  44.668   6.764
 5104POPC   C3B64977  26.299  44.697   7.064
 5104POPC   C4B64978  26.266  44.721   7.364
 5105POPC   NC364979  22.960  25.292   5.564
 5105POPC   PO464980  22.963  25.224   5.864
 5105POPC   GL164981  22.922  25.264   6.164
 5105POPC   GL264982  22.944  25.367   6.164
 5105POPC   C1A64983  22.963  25.216   6.464
 5105POPC   D2A64984  22.939  25.240   6.764
 5105POPC   C3A64985  22.954  25.267   7.064
 5105POPC   C4A64986  22.957  25.243   7.364
 5105POPC   C1B64987  22.995  25.539   6.464
 5105POPC   C2B64988  23.040  25.529   6.764
 5105POPC   C3B64989  23.037  25.465   7.064
 5105POPC   C4B64990  23.039  25.543   7.364
 5106POPC   NC364991   3.553  37.697   5.564
 5106POPC   PO464992   3.517  37.641   5.864
 5106POPC   GL164993   3.574  37.667   6.164
 5106POPC   GL264994   3.460  37.728   6.164
 5106POPC   C1A64995   3.528  37.710   6.464
 5106POPC   D2A64996   3.589  37.652   6.764
 5106POPC   C3A64997   3.545  37.694   7.064
 5106POPC   C4A64998   3.500  37.704   7.364
 5106POPC   C1B64999   3.281  37.758   6.464
 5106POPC   C2B65000   3.268  37.768   6.764
 5106POPC   C3B65001   3.292  37.747   7.064
 5106POPC   C4B65002   3.344  37.812   7.364
 5107POPC   NC365003   7.375  19.068   5.564
 5107POPC   PO465004   7.400  19.061   5.864
 5107POPC   GL165005   7.406  19.036   6.164
 5107POPC   GL265006   7.352  18.950   6.164
 5107POPC   C1A65007   7.378  19.056   6.464
 5107POPC   D2A65008   7.417  19.031   6.764
 5107POPC   C3A65009   7.455  19.023   7.064
 5107POPC   C4A65010   7.381  19.080   7.364
 5107POPC   C1B65011   7.341  18.860   6.464
 5107POPC   C2B65012   7.326  18.810   6.764
 5107POPC   C3B65013   7.363  18.848   7.064
 5107POPC   C4B65014   7.322  18.866   7.364
 5108POPC   NC365015  22.908  23.678   5.564
 5108POPC   PO465016  22.980  23.673   5.864
 5108POPC   GL165017  22.968  23.741   6.164
 5108POPC   GL265018  22.871  23.793   6.164
 5108POPC   C1A65019  22.949  23.703   6.464
 5108POPC   D2A65020  22.938  23.680   6.764
 5108POPC   C3A65021  22.898  23.679   7.064
 5108POPC   C4A65022  22.975  23.695   7.364
 5108POPC   C1B65023  22.834  23.955   6.464
 5108POPC   C2B65024  22.783  23.979   6.764
 5108POPC   C3B65025  22.824  23.979   7.064
 5108POPC   C4B65026  22.813  23.980   7.364
 5109POPC   NC365027  14.425  43.113   5.564
 5109POPC   PO465028  14.425  43.069   5.864
 5109POPC   GL165029  14.391  43.129   6.164
 5109POPC   GL265030  14.277  43.053   6.164
 5109POPC   C1A65031  14.401  43.132   6.464
 5109POPC   D2A65032  14.355  43.094   6.764
 5109POPC   C3A65033  14.374  43.096   7.064
 5109POPC   C4A65034  14.436  43.076   7.364
 5109POPC   C1B65035  14.220  42.900   6.464
 5109POPC   C2B65036  14.203  42.884   6.764
 5109POPC   C3B65037  14.204  42.904   7.064
 5109POPC   C4B65038  14.248  42.942   7.364
 5110POPC   NC365039  24.477  12.871   5.564
 5110POPC   PO465040  24.481  12.825   5.864
 5110POPC   GL165041  24.499  12.852   6.164
 5110POPC   GL265042  24.385  12.725   6.164
 5110POPC   C1A65043  24.538  12.853   6.464
 5110POPC   D2A65044  24.510  12.895   6.764
 5110POPC   C3A65045  24.463  12.842   7.064
 5110POPC   C4A65046  24.508  12.831   7.364
 5110POPC   C1B65047  24.297  12.726   6.464
 5110POPC   C2B65048  24.275  12.722   6.764
 5110POPC   C3B65049  24.277  12.653   7.064
 5110POPC   C4B65050  24.296  12.671   7.364
 5111POPC   NC365051   5.122  10.557   5.564
 5111POPC   PO465052   5.105  10.474   5.864
 5111POPC   GL165053   5.097  10.514   6.164
 5111POPC   GL265054   4.967  10.417   6.164
 5111POPC   C1A65055   5.069  10.538   6.464
 5111POPC   D2A65056   5.100  10.541   6.764
 5111POPC   C3A65057   5.072  10.554   7.064
 5111POPC   C4A65058   5.111  10.568   7.364
 5111POPC   C1B65059   4.886  10.353   6.464
 5111POPC   C2B65060   4.922  10.344   6.764
 5111POPC   C3B65061   4.950  10.349   7.064
 5111POPC   C4B65062   4.869  10.334   7.364
 5112POPC   NC365063   6.598  33.843   5.564
 5112POPC   PO465064   6.687  33.823   5.864
 5112POPC   GL165065   6.666  33.805   6.164
 5112POPC   GL265066   6.531  33.798   6.164
 5112POPC   C1A65067   6.676  33.778   6.464
 5112POPC   D2A65068   6.650  33.800   6.764
 5112POPC   C3A65069   6.647  33.758   7.064
 5112POPC   C4A65070   6.648  33.793   7.364
 5112POPC   C1B65071   6.427  33.760   6.464
 5112POPC   C2B65072   6.352  33.734   6.764
 5112POPC   C3B65073   6.376  33.811   7.064
 5112POPC   C4B65074   6.431  33.800   7.364
 5113POPC   NC365075  19.017  11.267   5.564
 5113POPC   PO465076  19.108  11.309   5.864
 5113POPC   GL165077  19.053  11.332   6.164
 5113POPC   GL265078  19.100  11.401   6.164
 5113POPC   C1A65079  19.052  11.281   6.464
 5113POPC   D2A65080  19.066  11.314   6.764
 5113POPC   C3A65081  19.080  11.264   7.064
 5113POPC   C4A65082  19.047  11.309   7.364
 5113POPC   C1B65083  19.179  11.502   6.464
 5113POPC   C2B65084  19.263  11.461   6.764
 5113POPC   C3B65085  19.216  11.498   7.064
 5113POPC   C4B65086  19.265  11.455   7.364
 5114POPC   NC365087   4.283  39.970   5.564
 5114POPC   PO465088   4.281  39.980   5.864
 5114POPC   GL165089   4.302  39.968   6.164
 5114POPC   GL265090   4.346  39.872   6.164
 5114POPC   C1A65091   4.295  40.029   6.464
 5114POPC   D2A65092   4.312  39.979   6.764
 5114POPC   C3A65093   4.322  40.037   7.064
 5114POPC   C4A65094   4.328  39.998   7.364
 5114POPC   C1B65095   4.410  39.786   6.464
 5114POPC   C2B65096   4.479  39.746   6.764
 5114POPC   C3B65097   4.412  39.843   7.064
 5114POPC   C4B65098   4.421  39.746   7.364
 5115POPC   NC365099  41.586   0.391   5.564
 5115POPC   PO465100  41.600   0.430   5.864
 5115POPC   GL165101  41.577   0.418   6.164
 5115POPC   GL265102  41.508   0.508   6.164
 5115POPC   C1A65103  41.513   0.400   6.464
 5115POPC   D2A65104  41.603   0.481   6.764
 5115POPC   C3A65105  41.558   0.400   7.064
 5115POPC   C4A65106  41.535   0.479   7.364
 5115POPC   C1B65107  41.400   0.651   6.464
 5115POPC   C2B65108  41.478   0.660   6.764
 5115POPC   C3B65109  41.417   0.645   7.064
 5115POPC   C4B65110  41.463   0.673   7.364
 5116POPC   NC365111   6.630   7.388   5.564
 5116POPC   PO465112   6.689   7.372   5.864
 5116POPC   GL165113   6.609   7.445   6.164
 5116POPC   GL265114   6.558   7.462   6.164
 5116POPC   C1A65115   6.598   7.448   6.464
 5116POPC   D2A65116   6.670   7.450   6.764
 5116POPC   C3A65117   6.616   7.413   7.064
 5116POPC   C4A65118   6.633   7.461   7.364
 5116POPC   C1B65119   6.406   7.547   6.464
 5116POPC   C2B65120   6.438   7.576   6.764
 5116POPC   C3B65121   6.448   7.533   7.064
 5116POPC   C4B65122   6.450   7.557   7.364
 5117POPC   NC365123  24.506  12.106   5.564
 5117POPC   PO465124  24.460  12.032   5.864
 5117POPC   GL165125  24.538  12.085   6.164
 5117POPC   GL265126  24.423  12.027   6.164
 5117POPC   C1A65127  24.534  12.072   6.464
 5117POPC   D2A65128  24.523  12.066   6.764
 5117POPC   C3A65129  24.476  12.097   7.064
 5117POPC   C4A65130  24.533  12.121   7.364
 5117POPC   C1B65131  24.293  11.846   6.464
 5117POPC   C2B65132  24.319  11.908   6.764
 5117POPC   C3B65133  24.312  11.885   7.064
 5117POPC   C4B65134  24.309  11.853   7.364
 5118POPC   NC365135  26.809  20.598   5.564
 5118POPC   PO465136  26.841  20.569   5.864
 5118POPC   GL165137  26.791  20.567   6.164
 5118POPC   GL265138  26.695  20.681   6.164
 5118POPC   C1A65139  26.795  20.642   6.464
 5118POPC   D2A65140  26.848  20.594   6.764
 5118POPC   C3A65141  26.790  20.609   7.064
 5118POPC   C4A65142  26.774  20.631   7.364
 5118POPC   C1B65143  26.612  20.770   6.464
 5118POPC   C2B65144  26.582  20.748   6.764
 5118POPC   C3B65145  26.634  20.730   7.064
 5118POPC   C4B65146  26.576  20.779   7.364
 5119POPC   NC365147  27.585  25.230   5.564
 5119POPC   PO465148  27.579  25.285   5.864
 5119POPC   GL165149  27.601  25.217   6.164
 5119POPC   GL265150  27.711  25.196   6.164
 5119POPC   C1A65151  27.581  25.256   6.464
 5119POPC   D2A65152  27.604  25.286   6.764
 5119POPC   C3A65153  27.556  25.223   7.064
 5119POPC   C4A65154  27.615  25.218   7.364
 5119POPC   C1B65155  27.822  25.083   6.464
 5119POPC   C2B65156  27.754  25.129   6.764
 5119POPC   C3B65157  27.791  25.070   7.064
 5119POPC   C4B65158  27.776  25.088   7.364
 5120POPC   NC365159  36.148   8.924   5.564
 5120POPC   PO465160  36.154   8.975   5.864
 5120POPC   GL165161  36.173   8.929   6.164
 5120POPC   GL265162  36.051   8.861   6.164
 5120POPC   C1A65163  36.154   8.946   6.464
 5120POPC   D2A65164  36.124   9.013   6.764
 5120POPC   C3A65165  36.102   8.989   7.064
 5120POPC   C4A65166  36.107   8.941   7.364
 5120POPC   C1B65167  36.016   8.784   6.464
 5120POPC   C2B65168  36.033   8.758   6.764
 5120POPC   C3B65169  35.945   8.714   7.064
 5120POPC   C4B65170  35.984   8.757   7.364
 5121POPC   NC365171  24.537  43.144   5.564
 5121POPC   PO465172  24.476  43.096   5.864
 5121POPC   GL165173  24.522  43.078   6.164
 5121POPC   GL265174  24.343  43.175   6.164
 5121POPC   C1A65175  24.505  43.134   6.464
 5121POPC   D2A65176  24.484  43.160   6.764
 5121POPC   C3A65177  24.491  43.159   7.064
 5121POPC   C4A65178  24.494  43.149   7.364
 5121POPC   C1B65179  24.298  43.244   6.464
 5121POPC   C2B65180  24.265  43.271   6.764
 5121POPC   C3B65181  24.265  43.257   7.064
 5121POPC   C4B65182  24.310  43.224   7.364
 5122POPC   NC365183  40.013   9.018   5.564
 5122POPC   PO465184  39.962   8.976   5.864
 5122POPC   GL165185  40.034   8.923   6.164
 5122POPC   GL265186  40.122   9.040   6.164
 5122POPC   C1A65187  39.997   8.933   6.464
 5122POPC   D2A65188  39.972   9.002   6.764
 5122POPC   C3A65189  39.962   8.944   7.064
 5122POPC   C4A65190  39.968   8.951   7.364
 5122POPC   C1B65191  40.217   9.020   6.464
 5122POPC   C2B65192  40.233   9.037   6.764
 5122POPC   C3B65193  40.252   9.007   7.064
 5122POPC   C4B65194  40.205   8.997   7.364
 5123POPC   NC365195  44.712  33.751   5.564
 5123POPC   PO465196  44.701  33.839   5.864
 5123POPC   GL165197  44.695  33.823   6.164
 5123POPC   GL265198  44.560  33.813   6.164
 5123POPC   C1A65199  44.630  33.809   6.464
 5123POPC   D2A65200  44.640  33.829   6.764
 5123POPC   C3A65201  44.645  33.833   7.064
 5123POPC   C4A65202  44.625  33.773   7.364
 5123POPC   C1B65203  44.382  33.803   6.464
 5123POPC   C2B65204  44.415  33.834   6.764
 5123POPC   C3B65205  44.458  33.833   7.064
 5123POPC   C4B65206  44.430  33.819   7.364
 5124POPC   NC365207  33.797  26.043   5.564
 5124POPC   PO465208  33.793  26.076   5.864
 5124POPC   GL165209  33.831  26.091   6.164
 5124POPC   GL265210  33.868  25.879   6.164
 5124POPC   C1A65211  33.772  26.046   6.464
 5124POPC   D2A65212  33.850  26.038   6.764
 5124POPC   C3A65213  33.758  26.076   7.064
 5124POPC   C4A65214  33.766  26.083   7.364
 5124POPC   C1B65215  33.880  25.786   6.464
 5124POPC   C2B65216  33.937  25.826   6.764
 5124POPC   C3B65217  33.902  25.864   7.064
 5124POPC   C4B65218  33.908  25.796   7.364
 5125POPC   NC365219  11.314   8.976   5.564
 5125POPC   PO465220  11.264   8.967   5.864
 5125POPC   GL165221  11.295   8.971   6.164
 5125POPC   GL265222  11.272   9.049   6.164
 5125POPC   C1A65223  11.311   9.008   6.464
 5125POPC   D2A65224  11.315   8.989   6.764
 5125POPC   C3A65225  11.318   8.993   7.064
 5125POPC   C4A65226  11.260   8.970   7.364
 5125POPC   C1B65227  11.161   9.183   6.464
 5125POPC   C2B65228  11.139   9.189   6.764
 5125POPC   C3B65229  11.195   9.189   7.064
 5125POPC   C4B65230  11.188   9.208   7.364
 5126POPC   NC365231  36.921   3.523   5.564
 5126POPC   PO465232  36.930   3.549   5.864
 5126POPC   GL165233  36.884   3.562   6.164
 5126POPC   GL265234  37.051   3.599   6.164
 5126POPC   C1A65235  36.854   3.562   6.464
 5126POPC   D2A65236  36.912   3.492   6.764
 5126POPC   C3A65237  36.864   3.589   7.064
 5126POPC   C4A65238  36.949   3.553   7.364
 5126POPC   C1B65239  37.088   3.670   6.464
 5126POPC   C2B65240  37.128   3.688   6.764
 5126POPC   C3B65241  37.084   3.619   7.064
 5126POPC   C4B65242  37.086   3.687   7.364
 5127POPC   NC365243   1.175  36.085   5.564
 5127POPC   PO465244   1.199  36.095   5.864
 5127POPC   GL165245   1.220  36.171   6.164
 5127POPC   GL265246   1.246  36.207   6.164
 5127POPC   C1A65247   1.170  36.093   6.464
 5127POPC   D2A65248   1.190  36.159   6.764
 5127POPC   C3A65249   1.187  36.117   7.064
 5127POPC   C4A65250   1.243  36.146   7.364
 5127POPC   C1B65251   1.237  36.393   6.464
 5127POPC   C2B65252   1.327  36.359   6.764
 5127POPC   C3B65253   1.280  36.381   7.064
 5127POPC   C4B65254   1.277  36.330   7.364
 5128POPC   NC365255  30.737  27.584   5.564
 5128POPC   PO465256  30.665  27.593   5.864
 5128POPC   GL165257  30.689  27.606   6.164
 5128POPC   GL265258  30.606  27.531   6.164
 5128POPC   C1A65259  30.726  27.619   6.464
 5128POPC   D2A65260  30.679  27.593   6.764
 5128POPC   C3A65261  30.659  27.629   7.064
 5128POPC   C4A65262  30.650  27.576   7.364
 5128POPC   C1B65263  30.534  27.398   6.464
 5128POPC   C2B65264  30.488  27.371   6.764
 5128POPC   C3B65265  30.485  27.458   7.064
 5128POPC   C4B65266  30.558  27.376   7.364
 5129POPC   NC365267  23.665   5.094   5.564
 5129POPC   PO465268  23.747   5.065   5.864
 5129POPC   GL165269  23.735   5.141   6.164
 5129POPC   GL265270  23.724   5.222   6.164
 5129POPC   C1A65271  23.750   5.051   6.464
 5129POPC   D2A65272  23.735   5.054   6.764
 5129POPC   C3A65273  23.763   5.073   7.064
 5129POPC   C4A65274  23.731   5.073   7.364
 5129POPC   C1B65275  23.855   5.264   6.464
 5129POPC   C2B65276  23.839   5.286   6.764
 5129POPC   C3B65277  23.869   5.281   7.064
 5129POPC   C4B65278  23.830   5.348   7.364
 5130POPC   NC365279  30.694  11.319   5.564
 5130POPC   PO465280  30.695  11.284   5.864
 5130POPC   GL165281  30.654  11.263   6.164
 5130POPC   GL265282  30.644  11.424   6.164
 5130POPC   C1A65283  30.706  11.331   6.464
 5130POPC   D2A65284  30.686  11.250   6.764
 5130POPC   C3A65285  30.696  11.303   7.064
 5130POPC   C4A65286  30.693  11.343   7.364
 5130POPC   C1B65287  30.602  11.517   6.464
 5130POPC   C2B65288  30.622  11.553   6.764
 5130POPC   C3B65289  30.596  11.543   7.064
 5130POPC   C4B65290  30.686  11.563   7.364
 5131POPC   NC365291  16.687   4.316   5.564
 5131POPC   PO465292  16.727   4.351   5.864
 5131POPC   GL165293  16.681   4.339   6.164
 5131POPC   GL265294  16.745   4.201   6.164
 5131POPC   C1A65295  16.734   4.338   6.464
 5131POPC   D2A65296  16.683   4.314   6.764
 5131POPC   C3A65297  16.744   4.324   7.064
 5131POPC   C4A65298  16.718   4.298   7.364
 5131POPC   C1B65299  16.833   4.088   6.464
 5131POPC   C2B65300  16.781   4.035   6.764
 5131POPC   C3B65301  16.853   4.071   7.064
 5131POPC   C4B65302  16.823   4.056   7.364
 5132POPC   NC365303  21.375  10.502   5.564
 5132POPC   PO465304  21.394  10.560   5.864
 5132POPC   GL165305  21.345  10.555   6.164
 5132POPC   GL265306  21.386  10.366   6.164
 5132POPC   C1A65307  21.393  10.563   6.464
 5132POPC   D2A65308  21.369  10.552   6.764
 5132POPC   C3A65309  21.342  10.559   7.064
 5132POPC   C4A65310  21.435  10.542   7.364
 5132POPC   C1B65311  21.307  10.287   6.464
 5132POPC   C2B65312  21.355  10.240   6.764
 5132POPC   C3B65313  21.306  10.304   7.064
 5132POPC   C4B65314  21.302  10.325   7.364
 5133POPC   NC365315   3.561  15.946   5.564
 5133POPC   PO465316   3.507  15.981   5.864
 5133POPC   GL165317   3.576  15.907   6.164
 5133POPC   GL265318   3.448  15.929   6.164
 5133POPC   C1A65319   3.526  15.932   6.464
 5133POPC   D2A65320   3.555  15.960   6.764
 5133POPC   C3A65321   3.508  15.946   7.064
 5133POPC   C4A65322   3.553  15.913   7.364
 5133POPC   C1B65323   3.344  16.037   6.464
 5133POPC   C2B65324   3.291  15.959   6.764
 5133POPC   C3B65325   3.338  16.035   7.064
 5133POPC   C4B65326   3.320  16.001   7.364
 5134POPC   NC365327   5.117  29.096   5.564
 5134POPC   PO465328   5.104  29.137   5.864
 5134POPC   GL165329   5.129  29.166   6.164
 5134POPC   GL265330   5.114  29.068   6.164
 5134POPC   C1A65331   5.047  29.096   6.464
 5134POPC   D2A65332   5.099  29.122   6.764
 5134POPC   C3A65333   5.101  29.176   7.064
 5134POPC   C4A65334   5.126  29.186   7.364
 5134POPC   C1B65335   5.185  28.975   6.464
 5134POPC   C2B65336   5.222  28.910   6.764
 5134POPC   C3B65337   5.211  28.885   7.064
 5134POPC   C4B65338   5.209  28.937   7.364
 5135POPC   NC365339  43.093   8.935   5.564
 5135POPC   PO465340  43.159   8.995   5.864
 5135POPC   GL165341  43.116   9.008   6.164
 5135POPC   GL265342  43.021   9.090   6.164
 5135POPC   C1A65343  43.141   8.933   6.464
 5135POPC   D2A65344  43.073   8.948   6.764
 5135POPC   C3A65345  43.124   8.997   7.064
 5135POPC   C4A65346  43.108   8.966   7.364
 5135POPC   C1B65347  42.975   9.186   6.464
 5135POPC   C2B65348  43.020   9.157   6.764
 5135POPC   C3B65349  43.002   9.182   7.064
 5135POPC   C4B65350  42.976   9.219   7.364
 5136POPC   NC365351  11.266  13.639   5.564
 5136POPC   PO465352  11.349  13.646   5.864
 5136POPC   GL165353  11.272  13.581   6.164
 5136POPC   GL265354  11.412  13.723   6.164
 5136POPC   C1A65355  11.320  13.614   6.464
 5136POPC   D2A65356  11.310  13.612   6.764
 5136POPC   C3A65357  11.303  13.667   7.064
 5136POPC   C4A65358  11.328  13.642   7.364
 5136POPC   C1B65359  11.447  13.762   6.464
 5136POPC   C2B65360  11.482  13.832   6.764
 5136POPC   C3B65361  11.522  13.748   7.064
 5136POPC   C4B65362  11.492  13.783   7.364
 5137POPC   NC365363  12.803  31.447   5.564
 5137POPC   PO465364  12.826  31.437   5.864
 5137POPC   GL165365  12.805  31.470   6.164
 5137POPC   GL265366  12.920  31.374   6.164
 5137POPC   C1A65367  12.877  31.503   6.464
 5137POPC   D2A65368  12.832  31.487   6.764
 5137POPC   C3A65369  12.891  31.509   7.064
 5137POPC   C4A65370  12.809  31.493   7.364
 5137POPC   C1B65371  13.017  31.281   6.464
 5137POPC   C2B65372  12.962  31.250   6.764
 5137POPC   C3B65373  12.959  31.282   7.064
 5137POPC   C4B65374  13.017  31.270   7.364
 5138POPC   NC365375  14.420   9.706   5.564
 5138POPC   PO465376  14.433   9.705   5.864
 5138POPC   GL165377  14.363   9.771   6.164
 5138POPC   GL265378  14.307   9.679   6.164
 5138POPC   C1A65379  14.431   9.767   6.464
 5138POPC   D2A65380  14.383   9.739   6.764
 5138POPC   C3A65381  14.400   9.751   7.064
 5138POPC   C4A65382  14.391   9.761   7.364
 5138POPC   C1B65383  14.179   9.605   6.464
 5138POPC   C2B65384  14.164   9.613   6.764
 5138POPC   C3B65385  14.181   9.621   7.064
 5138POPC   C4B65386  14.206   9.575   7.364
 5139POPC   NC365387  25.248  43.839   5.564
 5139POPC   PO465388  25.310  43.925   5.864
 5139POPC   GL165389  25.218  43.885   6.164
 5139POPC   GL265390  25.352  44.001   6.164
 5139POPC   C1A65391  25.305  43.853   6.464
 5139POPC   D2A65392  25.294  43.894   6.764
 5139POPC   C3A65393  25.294  43.935   7.064
 5139POPC   C4A65394  25.231  43.859   7.364
 5139POPC   C1B65395  25.344  44.146   6.464
 5139POPC   C2B65396  25.351  44.087   6.764
 5139POPC   C3B65397  25.354  44.126   7.064
 5139POPC   C4B65398  25.314  44.080   7.364
 5140POPC   NC365399   4.272   8.225   5.564
 5140POPC   PO465400   4.333   8.174   5.864
 5140POPC   GL165401   4.329   8.209   6.164
 5140POPC   GL265402   4.389   8.282   6.164
 5140POPC   C1A65403   4.326   8.227   6.464
 5140POPC   D2A65404   4.343   8.149   6.764
 5140POPC   C3A65405   4.346   8.176   7.064
 5140POPC   C4A65406   4.343   8.177   7.364
 5140POPC   C1B65407   4.581   8.315   6.464
 5140POPC   C2B65408   4.559   8.297   6.764
 5140POPC   C3B65409   4.600   8.328   7.064
 5140POPC   C4B65410   4.577   8.306   7.364
 5141POPC   NC365411  28.408   9.740   5.564
 5141POPC   PO465412  28.399   9.735   5.864
 5141POPC   GL165413  28.385   9.770   6.164
 5141POPC   GL265414  28.417   9.635   6.164
 5141POPC   C1A65415  28.326   9.768   6.464
 5141POPC   D2A65416  28.367   9.769   6.764
 5141POPC   C3A65417  28.389   9.789   7.064
 5141POPC   C4A65418  28.348   9.754   7.364
 5141POPC   C1B65419  28.540   9.562   6.464
 5141POPC   C2B65420  28.492   9.588   6.764
 5141POPC   C3B65421  28.491   9.586   7.064
 5141POPC   C4B65422  28.547   9.542   7.364
 5142POPC   NC365423  36.864  27.636   5.564
 5142POPC   PO465424  36.898  27.562   5.864
 5142POPC   GL165425  36.892  27.580   6.164
 5142POPC   GL265426  36.981  27.607   6.164
 5142POPC   C1A65427  36.891  27.573   6.464
 5142POPC   D2A65428  36.915  27.606   6.764
 5142POPC   C3A65429  36.929  27.624   7.064
 5142POPC   C4A65430  36.870  27.624   7.364
 5142POPC   C1B65431  37.137  27.684   6.464
 5142POPC   C2B65432  37.145  27.656   6.764
 5142POPC   C3B65433  37.186  27.654   7.064
 5142POPC   C4B65434  37.119  27.720   7.364
 5143POPC   NC365435  19.041  15.222   5.564
 5143POPC   PO465436  19.065  15.192   5.864
 5143POPC   GL165437  19.046  15.147   6.164
 5143POPC   GL265438  18.925  15.271   6.164
 5143POPC   C1A65439  19.095  15.175   6.464
 5143POPC   D2A65440  19.033  15.183   6.764
 5143POPC   C3A65441  19.105  15.159   7.064
 5143POPC   C4A65442  19.067  15.221   7.364
 5143POPC   C1B65443  18.874  15.319   6.464
 5143POPC   C2B65444  18.809  15.336   6.764
 5143POPC   C3B65445  18.845  15.305   7.064
 5143POPC   C4B65446  18.818  15.344   7.364
 5144POPC   NC365447  27.565  36.153   5.564
 5144POPC   PO465448  27.618  36.172   5.864
 5144POPC   GL165449  27.639  36.124   6.164
 5144POPC   GL265450  27.587  36.261   6.164
 5144POPC   C1A65451  27.622  36.134   6.464
 5144POPC   D2A65452  27.570  36.136   6.764
 5144POPC   C3A65453  27.583  36.095   7.064
 5144POPC   C4A65454  27.583  36.124   7.364
 5144POPC   C1B65455  27.478  36.344   6.464
 5144POPC   C2B65456  27.502  36.341   6.764
 5144POPC   C3B65457  27.531  36.336   7.064
 5144POPC   C4B65458  27.488  36.384   7.364
 5145POPC   NC365459   2.036   3.520   5.564
 5145POPC   PO465460   2.033   3.509   5.864
 5145POPC   GL165461   1.982   3.509   6.164
 5145POPC   GL265462   1.932   3.468   6.164
 5145POPC   C1A65463   1.956   3.562   6.464
 5145POPC   D2A65464   2.037   3.521   6.764
 5145POPC   C3A65465   1.951   3.548   7.064
 5145POPC   C4A65466   2.008   3.505   7.364
 5145POPC   C1B65467   1.915   3.340   6.464
 5145POPC   C2B65468   1.953   3.269   6.764
 5145POPC   C3B65469   1.950   3.314   7.064
 5145POPC   C4B65470   1.950   3.331   7.364
 5146POPC   NC365471  42.316  34.581   5.564
 5146POPC   PO465472  42.334  34.580   5.864
 5146POPC   GL165473  42.367  34.553   6.164
 5146POPC   GL265474  42.410  34.643   6.164
 5146POPC   C1A65475  42.360  34.583   6.464
 5146POPC   D2A65476  42.349  34.597   6.764
 5146POPC   C3A65477  42.384  34.552   7.064
 5146POPC   C4A65478  42.331  34.572   7.364
 5146POPC   C1B65479  42.550  34.764   6.464
 5146POPC   C2B65480  42.556  34.691   6.764
 5146POPC   C3B65481  42.539  34.761   7.064
 5146POPC   C4B65482  42.528  34.731   7.364
 5147POPC   NC365483  11.286  27.585   5.564
 5147POPC   PO465484  11.295  27.597   5.864
 5147POPC   GL165485  11.332  27.608   6.164
 5147POPC   GL265486  11.161  27.505   6.164
 5147POPC   C1A65487  11.312  27.613   6.464
 5147POPC   D2A65488  11.252  27.607   6.764
 5147POPC   C3A65489  11.284  27.627   7.064
 5147POPC   C4A65490  11.329  27.618   7.364
 5147POPC   C1B65491  11.031  27.467   6.464
 5147POPC   C2B65492  11.063  27.461   6.764
 5147POPC   C3B65493  11.078  27.476   7.064
 5147POPC   C4B65494  11.085  27.495   7.364
 5148POPC   NC365495  44.655   2.785   5.564
 5148POPC   PO465496  44.657   2.772   5.864
 5148POPC   GL165497  44.656   2.736   6.164
 5148POPC   GL265498  44.597   2.638   6.164
 5148POPC   C1A65499  44.654   2.773   6.464
 5148POPC   D2A65500  44.649   2.745   6.764
 5148POPC   C3A65501  44.692   2.814   7.064
 5148POPC   C4A65502  44.671   2.810   7.364
 5148POPC   C1B65503  44.579   2.524   6.464
 5148POPC   C2B65504  44.569   2.556   6.764
 5148POPC   C3B65505  44.485   2.563   7.064
 5148POPC   C4B65506  44.511   2.594   7.364
 5149POPC   NC365507  18.252   4.334   5.564
 5149POPC   PO465508  18.323   4.326   5.864
 5149POPC   GL165509  18.319   4.271   6.164
 5149POPC   GL265510  18.171   4.391   6.164
 5149POPC   C1A65511  18.264   4.285   6.464
 5149POPC   D2A65512  18.290   4.338   6.764
 5149POPC   C3A65513  18.290   4.364   7.064
 5149POPC   C4A65514  18.316   4.301   7.364
 5149POPC   C1B65515  18.107   4.517   6.464
 5149POPC   C2B65516  18.120   4.562   6.764
 5149POPC   C3B65517  18.122   4.535   7.064
 5149POPC   C4B65518  18.126   4.534   7.364
 5150POPC   NC365519   8.213  27.593   5.564
 5150POPC   PO465520   8.156  27.551   5.864
 5150POPC   GL165521   8.152  27.637   6.164
 5150POPC   GL265522   8.308  27.657   6.164
 5150POPC   C1A65523   8.200  27.641   6.464
 5150POPC   D2A65524   8.160  27.606   6.764
 5150POPC   C3A65525   8.182  27.642   7.064
 5150POPC   C4A65526   8.180  27.603   7.364
 5150POPC   C1B65527   8.398  27.784   6.464
 5150POPC   C2B65528   8.349  27.775   6.764
 5150POPC   C3B65529   8.346  27.751   7.064
 5150POPC   C4B65530   8.382  27.811   7.364
 5151POPC   NC365531  37.708  40.797   5.564
 5151POPC   PO465532  37.707  40.831   5.864
 5151POPC   GL165533  37.633  40.800   6.164
 5151POPC   GL265534  37.604  40.802   6.164
 5151POPC   C1A65535  37.729  40.771   6.464
 5151POPC   D2A65536  37.699  40.741   6.764
 5151POPC   C3A65537  37.728  40.733   7.064
 5151POPC   C4A65538  37.691  40.738   7.364
 5151POPC   C1B65539  37.474  40.762   6.464
 5151POPC   C2B65540  37.383  40.768   6.764
 5151POPC   C3B65541  37.474  40.748   7.064
 5151POPC   C4B65542  37.390  40.760   7.364
 5152POPC   NC365543   5.118  39.276   5.564
 5152POPC   PO465544   5.115  39.281   5.864
 5152POPC   GL165545   5.074  39.253   6.164
 5152POPC   GL265546   5.035  39.252   6.164
 5152POPC   C1A65547   5.048  39.225   6.464
 5152POPC   D2A65548   5.073  39.225   6.764
 5152POPC   C3A65549   5.141  39.234   7.064
 5152POPC   C4A65550   5.097  39.256   7.364
 5152POPC   C1B65551   4.897  39.407   6.464
 5152POPC   C2B65552   4.841  39.380   6.764
 5152POPC   C3B65553   4.906  39.359   7.064
 5152POPC   C4B65554   4.833  39.325   7.364
 5153POPC   NC365555  17.471  26.024   5.564
 5153POPC   PO465556  17.521  26.046   5.864
 5153POPC   GL165557  17.529  26.037   6.164
 5153POPC   GL265558  17.466  26.190   6.164
 5153POPC   C1A65559  17.483  26.051   6.464
 5153POPC   D2A65560  17.519  26.067   6.764
 5153POPC   C3A65561  17.502  26.065   7.064
 5153POPC   C4A65562  17.525  26.004   7.364
 5153POPC   C1B65563  17.529  26.341   6.464
 5153POPC   C2B65564  17.486  26.304   6.764
 5153POPC   C3B65565  17.473  26.253   7.064
 5153POPC   C4B65566  17.486  26.308   7.364
 5154POPC   NC365567  22.200  16.697   5.564
 5154POPC   PO465568  22.147  16.740   5.864
 5154POPC   GL165569  22.165  16.769   6.164
 5154POPC   GL265570  22.155  16.874   6.164
 5154POPC   C1A65571  22.117  16.725   6.464
 5154POPC   D2A65572  22.175  16.709   6.764
 5154POPC   C3A65573  22.136  16.702   7.064
 5154POPC   C4A65574  22.141  16.775   7.364
 5154POPC   C1B65575  22.186  17.025   6.464
 5154POPC   C2B65576  22.117  16.959   6.764
 5154POPC   C3B65577  22.172  16.984   7.064
 5154POPC   C4B65578  22.114  17.028   7.364
 5155POPC   NC365579   7.463   1.218   5.564
 5155POPC   PO465580   7.413   1.166   5.864
 5155POPC   GL165581   7.444   1.229   6.164
 5155POPC   GL265582   7.246   1.193   6.164
 5155POPC   C1A65583   7.460   1.167   6.464
 5155POPC   D2A65584   7.404   1.224   6.764
 5155POPC   C3A65585   7.445   1.169   7.064
 5155POPC   C4A65586   7.389   1.208   7.364
 5155POPC   C1B65587   7.142   1.246   6.464
 5155POPC   C2B65588   7.129   1.183   6.764
 5155POPC   C3B65589   7.217   1.238   7.064
 5155POPC   C4B65590   7.154   1.230   7.364
 5156POPC   NC365591  31.426  38.417   5.564
 5156POPC   PO465592  31.522  38.425   5.864
 5156POPC   GL165593  31.494  38.415   6.164
 5156POPC   GL265594  31.346  38.453   6.164
 5156POPC   C1A65595  31.443  38.427   6.464
 5156POPC   D2A65596  31.446  38.437   6.764
 5156POPC   C3A65597  31.437  38.422   7.064
 5156POPC   C4A65598  31.427  38.485   7.364
 5156POPC   C1B65599  31.264  38.453   6.464
 5156POPC   C2B65600  31.187  38.363   6.764
 5156POPC   C3B65601  31.234  38.368   7.064
 5156POPC   C4B65602  31.235  38.386   7.364
 5157POPC   NC365603  38.454   9.779   5.564
 5157POPC   PO465604  38.411   9.701   5.864
 5157POPC   GL165605  38.451   9.765   6.164
 5157POPC   GL265606  38.532   9.610   6.164
 5157POPC   C1A65607  38.436   9.756   6.464
 5157POPC   D2A65608  38.493   9.702   6.764
 5157POPC   C3A65609  38.479   9.712   7.064
 5157POPC   C4A65610  38.464   9.719   7.364
 5157POPC   C1B65611  38.583   9.536   6.464
 5157POPC   C2B65612  38.530   9.529   6.764
 5157POPC   C3B65613  38.532   9.496   7.064
 5157POPC   C4B65614  38.516   9.513   7.364
 5158POPC   NC365615  12.066  39.970   5.564
 5158POPC   PO465616  12.078  40.056   5.864
 5158POPC   GL165617  12.112  40.031   6.164
 5158POPC   GL265618  12.213  40.122   6.164
 5158POPC   C1A65619  12.053  40.049   6.464
 5158POPC   D2A65620  12.113  39.959   6.764
 5158POPC   C3A65621  12.113  40.030   7.064
 5158POPC   C4A65622  12.105  39.975   7.364
 5158POPC   C1B65623  12.314  40.190   6.464
 5158POPC   C2B65624  12.238  40.127   6.764
 5158POPC   C3B65625  12.296  40.188   7.064
 5158POPC   C4B65626  12.232  40.136   7.364
 5159POPC   NC365627  38.426  34.576   5.564
 5159POPC   PO465628  38.505  34.605   5.864
 5159POPC   GL165629  38.408  34.533   6.164
 5159POPC   GL265630  38.610  34.536   6.164
 5159POPC   C1A65631  38.429  34.617   6.464
 5159POPC   D2A65632  38.495  34.533   6.764
 5159POPC   C3A65633  38.483  34.623   7.064
 5159POPC   C4A65634  38.459  34.562   7.364
 5159POPC   C1B65635  38.651  34.519   6.464
 5159POPC   C2B65636  38.686  34.489   6.764
 5159POPC   C3B65637  38.714  34.530   7.064
 5159POPC   C4B65638  38.728  34.493   7.364
 5160POPC   NC365639   5.097   9.738   5.564
 5160POPC   PO465640   5.102   9.797   5.864
 5160POPC   GL165641   5.092   9.733   6.164
 5160POPC   GL265642   5.143   9.851   6.164
 5160POPC   C1A65643   5.052   9.711   6.464
 5160POPC   D2A65644   5.118   9.781   6.764
 5160POPC   C3A65645   5.102   9.762   7.064
 5160POPC   C4A65646   5.090   9.728   7.364
 5160POPC   C1B65647   5.228   9.903   6.464
 5160POPC   C2B65648   5.257   9.978   6.764
 5160POPC   C3B65649   5.243   9.932   7.064
 5160POPC   C4B65650   5.235   9.972   7.364
 5161POPC   NC365651  35.362  12.856   5.564
 5161POPC   PO465652  35.316  12.867   5.864
 5161POPC   GL165653  35.355  12.881   6.164
 5161POPC   GL265654  35.481  12.899   6.164
 5161POPC   C1A65655  35.384  12.853   6.464
 5161POPC   D2A65656  35.377  12.877   6.764
 5161POPC   C3A65657  35.384  12.886   7.064
 5161POPC   C4A65658  35.306  12.880   7.364
 5161POPC   C1B65659  35.561  12.952   6.464
 5161POPC   C2B65660  35.586  12.933   6.764
 5161POPC   C3B65661  35.605  12.975   7.064
 5161POPC   C4B65662  35.571  12.959   7.364
 5162POPC   NC365663  27.592   0.462   5.564
 5162POPC   PO465664  27.642   0.469   5.864
 5162POPC   GL165665  27.598   0.479   6.164
 5162POPC   GL265666  27.494   0.487   6.164
 5162POPC   C1A65667  27.636   0.441   6.464
 5162POPC   D2A65668  27.610   0.459   6.764
 5162POPC   C3A65669  27.641   0.449   7.064
 5162POPC   C4A65670  27.584   0.460   7.364
 5162POPC   C1B65671  27.415   0.672   6.464
 5162POPC   C2B65672  27.387   0.590   6.764
 5162POPC   C3B65673  27.464   0.580   7.064
 5162POPC   C4B65674  27.383   0.621   7.364
 5163POPC   NC365675  21.426  26.055   5.564
 5163POPC   PO465676  21.379  25.999   5.864
 5163POPC   GL165677  21.375  26.000   6.164
 5163POPC   GL265678  21.479  26.004   6.164
 5163POPC   C1A65679  21.434  26.052   6.464
 5163POPC   D2A65680  21.361  26.058   6.764
 5163POPC   C3A65681  21.395  26.008   7.064
 5163POPC   C4A65682  21.434  26.082   7.364
 5163POPC   C1B65683  21.629  26.065   6.464
 5163POPC   C2B65684  21.680  26.022   6.764
 5163POPC   C3B65685  21.587  26.010   7.064
 5163POPC   C4B65686  21.662  26.080   7.364
 5164POPC   NC365687   9.701  24.447   5.564
 5164POPC   PO465688   9.785  24.510   5.864
 5164POPC   GL165689   9.719  24.451   6.164
 5164POPC   GL265690   9.612  24.408   6.164
 5164POPC   C1A65691   9.762  24.517   6.464
 5164POPC   D2A65692   9.701  24.449   6.764
 5164POPC   C3A65693   9.766  24.494   7.064
 5164POPC   C4A65694   9.739  24.445   7.364
 5164POPC   C1B65695   9.576  24.368   6.464
 5164POPC   C2B65696   9.522  24.337   6.764
 5164POPC   C3B65697   9.580  24.336   7.064
 5164POPC   C4B65698   9.507  24.299   7.364
 5165POPC   NC365699  22.962  12.834   5.564
 5165POPC   PO465700  22.903  12.882   5.864
 5165POPC   GL165701  22.949  12.838   6.164
 5165POPC   GL265702  22.878  12.736   6.164
 5165POPC   C1A65703  22.950  12.893   6.464
 5165POPC   D2A65704  22.966  12.897   6.764
 5165POPC   C3A65705  22.895  12.808   7.064
 5165POPC   C4A65706  22.892  12.853   7.364
 5165POPC   C1B65707  22.827  12.698   6.464
 5165POPC   C2B65708  22.820  12.622   6.764
 5165POPC   C3B65709  22.827  12.609   7.064
 5165POPC   C4B65710  22.734  12.682   7.364
 5166POPC   NC365711  13.669  11.251   5.564
 5166POPC   PO465712  13.661  11.300   5.864
 5166POPC   GL165713  13.655  11.280   6.164
 5166POPC   GL265714  13.493  11.401   6.164
 5166POPC   C1A65715  13.612  11.275   6.464
 5166POPC   D2A65716  13.595  11.279   6.764
 5166POPC   C3A65717  13.673  11.291   7.064
 5166POPC   C4A65718  13.615  11.267   7.364
 5166POPC   C1B65719  13.454  11.509   6.464
 5166POPC   C2B65720  13.417  11.425   6.764
 5166POPC   C3B65721  13.417  11.481   7.064
 5166POPC   C4B65722  13.434  11.481   7.364
 5167POPC   NC365723  32.262  29.176   5.564
 5167POPC   PO465724  32.217  29.175   5.864
 5167POPC   GL165725  32.245  29.165   6.164
 5167POPC   GL265726  32.224  29.272   6.164
 5167POPC   C1A65727  32.203  29.120   6.464
 5167POPC   D2A65728  32.270  29.165   6.764
 5167POPC   C3A65729  32.273  29.141   7.064
 5167POPC   C4A65730  32.288  29.182   7.364
 5167POPC   C1B65731  32.119  29.322   6.464
 5167POPC   C2B65732  32.123  29.368   6.764
 5167POPC   C3B65733  32.143  29.333   7.064
 5167POPC   C4B65734  32.096  29.312   7.364
 5168POPC   NC365735  44.665  43.092   5.564
 5168POPC   PO465736  44.652  43.127   5.864
 5168POPC   GL165737  44.685  43.139   6.164
 5168POPC   GL265738  44.632  43.218   6.164
 5168POPC   C1A65739  44.709  43.110   6.464
 5168POPC   D2A65740  44.660  43.079   6.764
 5168POPC   C3A65741  44.694  43.139   7.064
 5168POPC   C4A65742  44.703  43.110   7.364
 5168POPC   C1B65743  44.648  43.380   6.464
 5168POPC   C2B65744  44.595  43.307   6.764
 5168POPC   C3B65745  44.561  43.389   7.064
 5168POPC   C4B65746  44.599  43.394   7.364
 5169POPC   NC365747   8.976  36.122   5.564
 5169POPC   PO465748   8.971  36.133   5.864
 5169POPC   GL165749   8.981  36.148   6.164
 5169POPC   GL265750   9.000  36.040   6.164
 5169POPC   C1A65751   8.970  36.119   6.464
 5169POPC   D2A65752   8.971  36.141   6.764
 5169POPC   C3A65753   9.005  36.101   7.064
 5169POPC   C4A65754   9.004  36.147   7.364
 5169POPC   C1B65755   8.929  35.916   6.464
 5169POPC   C2B65756   8.993  35.832   6.764
 5169POPC   C3B65757   8.974  35.918   7.064
 5169POPC   C4B65758   8.962  35.866   7.364
 5170POPC   NC365759  26.854  28.337   5.564
 5170POPC   PO465760  26.816  28.373   5.864
 5170POPC   GL165761  26.772  28.338   6.164
 5170POPC   GL265762  26.895  28.472   6.164
 5170POPC   C1A65763  26.768  28.412   6.464
 5170POPC   D2A65764  26.777  28.329   6.764
 5170POPC   C3A65765  26.824  28.335   7.064
 5170POPC   C4A65766  26.819  28.361   7.364
 5170POPC   C1B65767  27.064  28.510   6.464
 5170POPC   C2B65768  27.013  28.548   6.764
 5170POPC   C3B65769  27.024  28.497   7.064
 5170POPC   C4B65770  27.049  28.486   7.364
 5171POPC   NC365771  40.048  36.171   5.564
 5171POPC   PO465772  40.005  36.145   5.864
 5171POPC   GL165773  39.964  36.089   6.164
 5171POPC   GL265774  40.105  36.029   6.164
 5171POPC   C1A65775  40.034  36.139   6.464
 5171POPC   D2A65776  40.030  36.151   6.764
 5171POPC   C3A65777  39.964  36.099   7.064
 5171POPC   C4A65778  39.993  36.081   7.364
 5171POPC   C1B65779  40.113  35.900   6.464
 5171POPC   C2B65780  40.154  35.955   6.764
 5171POPC   C3B65781  40.143  35.959   7.064
 5171POPC   C4B65782  40.154  35.921   7.364
 5172POPC   NC365783  26.014  13.649   5.564
 5172POPC   PO465784  26.075  13.662   5.864
 5172POPC   GL165785  26.086  13.658   6.164
 5172POPC   GL265786  26.103  13.761   6.164
 5172POPC   C1A65787  26.057  13.610   6.464
 5172POPC   D2A65788  26.088  13.649   6.764
 5172POPC   C3A65789  26.046  13.665   7.064
 5172POPC   C4A65790  26.035  13.639   7.364
 5172POPC   C1B65791  26.194  13.843   6.464
 5172POPC   C2B65792  26.194  13.845   6.764
 5172POPC   C3B65793  26.175  13.821   7.064
 5172POPC   C4B65794  26.220  13.767   7.364
 5173POPC   NC365795  12.096  43.865   5.564
 5173POPC   PO465796  12.036  43.897   5.864
 5173POPC   GL165797  12.077  43.887   6.164
 5173POPC   GL265798  12.142  43.753   6.164
 5173POPC   C1A65799  12.114  43.872   6.464
 5173POPC   D2A65800  12.120  43.876   6.764
 5173POPC   C3A65801  12.075  43.912   7.064
 5173POPC   C4A65802  12.054  43.874   7.364
 5173POPC   C1B65803  12.243  43.680   6.464
 5173POPC   C2B65804  12.263  43.717   6.764
 5173POPC   C3B65805  12.295  43.758   7.064
 5173POPC   C4B65806  12.274  43.683   7.364
 5174POPC   NC365807  20.632  34.527   5.564
 5174POPC   PO465808  20.574  34.574   5.864
 5174POPC   GL165809  20.576  34.604   6.164
 5174POPC   GL265810  20.571  34.725   6.164
 5174POPC   C1A65811  20.596  34.608   6.464
 5174POPC   D2A65812  20.634  34.614   6.764
 5174POPC   C3A65813  20.562  34.593   7.064
 5174POPC   C4A65814  20.659  34.536   7.364
 5174POPC   C1B65815  20.510  34.787   6.464
 5174POPC   C2B65816  20.475  34.838   6.764
 5174POPC   C3B65817  20.488  34.808   7.064
 5174POPC   C4B65818  20.531  34.752   7.364
 5175POPC   NC365819  12.074  22.118   5.564
 5175POPC   PO465820  12.079  22.208   5.864
 5175POPC   GL165821  12.031  22.134   6.164
 5175POPC   GL265822  11.982  22.201   6.164
 5175POPC   C1A65823  12.069  22.203   6.464
 5175POPC   D2A65824  12.066  22.126   6.764
 5175POPC   C3A65825  12.082  22.163   7.064
 5175POPC   C4A65826  12.115  22.140   7.364
 5175POPC   C1B65827  11.835  22.243   6.464
 5175POPC   C2B65828  11.879  22.317   6.764
 5175POPC   C3B65829  11.905  22.241   7.064
 5175POPC   C4B65830  11.813  22.327   7.364
 5176POPC   NC365831  32.277  33.834   5.564
 5176POPC   PO465832  32.294  33.849   5.864
 5176POPC   GL165833  32.295  33.826   6.164
 5176POPC   GL265834  32.306  33.852   6.164
 5176POPC   C1A65835  32.201  33.761   6.464
 5176POPC   D2A65836  32.244  33.820   6.764
 5176POPC   C3A65837  32.211  33.778   7.064
 5176POPC   C4A65838  32.259  33.793   7.364
 5176POPC   C1B65839  32.416  33.975   6.464
 5176POPC   C2B65840  32.441  33.888   6.764
 5176POPC   C3B65841  32.443  33.951   7.064
 5176POPC   C4B65842  32.503  33.930   7.364
 5177POPC   NC365843  18.240   0.437   5.564
 5177POPC   PO465844  18.250   0.475   5.864
 5177POPC   GL165845  18.236   0.446   6.164
 5177POPC   GL265846  18.323   0.289   6.164
 5177POPC   C1A65847  18.289   0.419   6.464
 5177POPC   D2A65848  18.284   0.439   6.764
 5177POPC   C3A65849  18.277   0.404   7.064
 5177POPC   C4A65850  18.260   0.432   7.364
 5177POPC   C1B65851  18.315   0.169   6.464
 5177POPC   C2B65852  18.314   0.174   6.764
 5177POPC   C3B65853  18.243   0.188   7.064
 5177POPC   C4B65854  18.326   0.172   7.364
 5178POPC   NC365855  33.763   8.994   5.564
 5178POPC   PO465856  33.760   8.998   5.864
 5178POPC   GL165857  33.834   8.948   6.164
 5178POPC   GL265858  33.730   8.842   6.164
 5178POPC   C1A65859  33.773   9.009   6.464
 5178POPC   D2A65860  33.783   8.949   6.764
 5178POPC   C3A65861  33.795   8.935   7.064
 5178POPC   C4A65862  33.805   8.988   7.364
 5178POPC   C1B65863  33.789   8.778   6.464
 5178POPC   C2B65864  33.764   8.680   6.764
 5178POPC   C3B65865  33.724   8.752   7.064
 5178POPC   C4B65866  33.736   8.766   7.364
 5179POPC   NC365867  22.145  21.381   5.564
 5179POPC   PO465868  22.135  21.392   5.864
 5179POPC   GL165869  22.179  21.348   6.164
 5179POPC   GL265870  22.060  21.544   6.164
 5179POPC   C1A65871  22.133  21.416   6.464
 5179POPC   D2A65872  22.161  21.385   6.764
 5179POPC   C3A65873  22.124  21.405   7.064
 5179POPC   C4A65874  22.194  21.390   7.364
 5179POPC   C1B65875  22.072  21.646   6.464
 5179POPC   C2B65876  22.015  21.559   6.764
 5179POPC   C3B65877  22.031  21.605   7.064
 5179POPC   C4B65878  22.008  21.644   7.364
 5180POPC   NC365879  15.160  23.727   5.564
 5180POPC   PO465880  15.179  23.688   5.864
 5180POPC   GL165881  15.149  23.673   6.164
 5180POPC   GL265882  15.216  23.567   6.164
 5180POPC   C1A65883  15.208  23.759   6.464
 5180POPC   D2A65884  15.159  23.747   6.764
 5180POPC   C3A65885  15.169  23.746   7.064
 5180POPC   C4A65886  15.162  23.757   7.364
 5180POPC   C1B65887  15.225  23.484   6.464
 5180POPC   C2B65888  15.254  23.497   6.764
 5180POPC   C3B65889  15.227  23.507   7.064
 5180POPC   C4B65890  15.206  23.516   7.364
 5181POPC   NC365891  15.161  37.638   5.564
 5181POPC   PO465892  15.183  37.722   5.864
 5181POPC   GL165893  15.152  37.636   6.164
 5181POPC   GL265894  15.330  37.706   6.164
 5181POPC   C1A65895  15.194  37.706   6.464
 5181POPC   D2A65896  15.211  37.637   6.764
 5181POPC   C3A65897  15.195  37.694   7.064
 5181POPC   C4A65898  15.171  37.635   7.364
 5181POPC   C1B65899  15.424  37.672   6.464
 5181POPC   C2B65900  15.447  37.612   6.764
 5181POPC   C3B65901  15.432  37.667   7.064
 5181POPC   C4B65902  15.449  37.614   7.364
 5182POPC   NC365903  16.753  36.116   5.564
 5182POPC   PO465904  16.775  36.134   5.864
 5182POPC   GL165905  16.690  36.085   6.164
 5182POPC   GL265906  16.603  36.109   6.164
 5182POPC   C1A65907  16.748  36.143   6.464
 5182POPC   D2A65908  16.701  36.166   6.764
 5182POPC   C3A65909  16.746  36.098   7.064
 5182POPC   C4A65910  16.737  36.081   7.364
 5182POPC   C1B65911  16.450  36.151   6.464
 5182POPC   C2B65912  16.508  36.202   6.764
 5182POPC   C3B65913  16.446  36.140   7.064
 5182POPC   C4B65914  16.437  36.183   7.364
 5183POPC   NC365915  36.079  42.294   5.564
 5183POPC   PO465916  36.149  42.344   5.864
 5183POPC   GL165917  36.162  42.376   6.164
 5183POPC   GL265918  36.149  42.445   6.164
 5183POPC   C1A65919  36.099  42.300   6.464
 5183POPC   D2A65920  36.119  42.341   6.764
 5183POPC   C3A65921  36.097  42.315   7.064
 5183POPC   C4A65922  36.132  42.371   7.364
 5183POPC   C1B65923  36.156  42.537   6.464
 5183POPC   C2B65924  36.161  42.592   6.764
 5183POPC   C3B65925  36.121  42.550   7.064
 5183POPC   C4B65926  36.138  42.588   7.364
 5184POPC   NC365927   6.615  27.616   5.564
 5184POPC   PO465928   6.658  27.560   5.864
 5184POPC   GL165929   6.639  27.544   6.164
 5184POPC   GL265930   6.720  27.460   6.164
 5184POPC   C1A65931   6.601  27.590   6.464
 5184POPC   D2A65932   6.599  27.582   6.764
 5184POPC   C3A65933   6.690  27.631   7.064
 5184POPC   C4A65934   6.612  27.624   7.364
 5184POPC   C1B65935   6.774  27.368   6.464
 5184POPC   C2B65936   6.785  27.376   6.764
 5184POPC   C3B65937   6.786  27.407   7.064
 5184POPC   C4B65938   6.780  27.317   7.364
 5185POPC   NC365939  37.723  35.372   5.564
 5185POPC   PO465940  37.702  35.302   5.864
 5185POPC   GL165941  37.688  35.310   6.164
 5185POPC   GL265942  37.822  35.249   6.164
 5185POPC   C1A65943  37.697  35.327   6.464
 5185POPC   D2A65944  37.723  35.360   6.764
 5185POPC   C3A65945  37.669  35.391   7.064
 5185POPC   C4A65946  37.716  35.325   7.364
 5185POPC   C1B65947  37.943  35.271   6.464
 5185POPC   C2B65948  37.853  35.278   6.764
 5185POPC   C3B65949  37.848  35.190   7.064
 5185POPC   C4B65950  37.893  35.231   7.364
 5186POPC   NC365951  36.906  35.385   5.564
 5186POPC   PO465952  36.897  35.318   5.864
 5186POPC   GL165953  36.854  35.357   6.164
 5186POPC   GL265954  37.016  35.295   6.164
 5186POPC   C1A65955  36.888  35.350   6.464
 5186POPC   D2A65956  36.881  35.327   6.764
 5186POPC   C3A65957  36.951  35.401   7.064
 5186POPC   C4A65958  36.948  35.395   7.364
 5186POPC   C1B65959  37.121  35.331   6.464
 5186POPC   C2B65960  37.138  35.333   6.764
 5186POPC   C3B65961  37.160  35.364   7.064
 5186POPC   C4B65962  37.187  35.362   7.364
 5187POPC   NC365963  29.906  34.580   5.564
 5187POPC   PO465964  29.938  34.543   5.864
 5187POPC   GL165965  29.924  34.604   6.164
 5187POPC   GL265966  29.926  34.485   6.164
 5187POPC   C1A65967  29.913  34.620   6.464
 5187POPC   D2A65968  29.969  34.614   6.764
 5187POPC   C3A65969  29.926  34.544   7.064
 5187POPC   C4A65970  29.896  34.561   7.364
 5187POPC   C1B65971  29.975  34.367   6.464
 5187POPC   C2B65972  29.993  34.323   6.764
 5187POPC   C3B65973  30.008  34.376   7.064
 5187POPC   C4B65974  30.048  34.340   7.364
 5188POPC   NC365975  36.899  41.515   5.564
 5188POPC   PO465976  36.941  41.520   5.864
 5188POPC   GL165977  36.906  41.567   6.164
 5188POPC   GL265978  36.822  41.484   6.164
 5188POPC   C1A65979  36.922  41.580   6.464
 5188POPC   D2A65980  36.934  41.573   6.764
 5188POPC   C3A65981  36.945  41.568   7.064
 5188POPC   C4A65982  36.878  41.594   7.364
 5188POPC   C1B65983  36.710  41.485   6.464
 5188POPC   C2B65984  36.687  41.445   6.764
 5188POPC   C3B65985  36.710  41.463   7.064
 5188POPC   C4B65986  36.711  41.430   7.364
 5189POPC   NC365987  19.862  24.512   5.564
 5189POPC   PO465988  19.866  24.447   5.864
 5189POPC   GL165989  19.856  24.524   6.164
 5189POPC   GL265990  19.701  24.511   6.164
 5189POPC   C1A65991  19.820  24.483   6.464
 5189POPC   D2A65992  19.791  24.528   6.764
 5189POPC   C3A65993  19.818  24.448   7.064
 5189POPC   C4A65994  19.842  24.462   7.364
 5189POPC   C1B65995  19.609  24.511   6.464
 5189POPC   C2B65996  19.569  24.521   6.764
 5189POPC   C3B65997  19.602  24.586   7.064
 5189POPC   C4B65998  19.628  24.592   7.364
 5190POPC   NC365999   3.526  19.871   5.564
 5190POPC   PO466000   3.557  19.835   5.864
 5190POPC   GL166001   3.544  19.879   6.164
 5190POPC   GL266002   3.656  19.924   6.164
 5190POPC   C1A66003   3.552  19.854   6.464
 5190POPC   D2A66004   3.544  19.865   6.764
 5190POPC   C3A66005   3.527  19.848   7.064
 5190POPC   C4A66006   3.571  19.874   7.364
 5190POPC   C1B66007   3.669  20.020   6.464
 5190POPC   C2B66008   3.659  20.060   6.764
 5190POPC   C3B66009   3.683  20.044   7.064
 5190POPC   C4B66010   3.696  20.068   7.364
 5191POPC   NC366011   5.903  43.092   5.564
 5191POPC   PO466012   5.907  43.077   5.864
 5191POPC   GL166013   5.850  43.154   6.164
 5191POPC   GL266014   5.947  43.174   6.164
 5191POPC   C1A66015   5.841  43.078   6.464
 5191POPC   D2A66016   5.847  43.093   6.764
 5191POPC   C3A66017   5.835  43.090   7.064
 5191POPC   C4A66018   5.831  43.097   7.364
 5191POPC   C1B66019   6.048  43.343   6.464
 5191POPC   C2B66020   5.997  43.258   6.764
 5191POPC   C3B66021   6.005  43.325   7.064
 5191POPC   C4B66022   6.002  43.266   7.364
 5192POPC   NC366023   5.126  41.538   5.564
 5192POPC   PO466024   5.059  41.544   5.864
 5192POPC   GL166025   5.101  41.608   6.164
 5192POPC   GL266026   4.951  41.488   6.164
 5192POPC   C1A66027   5.064  41.511   6.464
 5192POPC   D2A66028   5.129  41.519   6.764
 5192POPC   C3A66029   5.130  41.585   7.064
 5192POPC   C4A66030   5.062  41.569   7.364
 5192POPC   C1B66031   4.799  41.461   6.464
 5192POPC   C2B66032   4.838  41.545   6.764
 5192POPC   C3B66033   4.847  41.484   7.064
 5192POPC   C4B66034   4.850  41.488   7.364
 5193POPC   NC366035  12.845  43.892   5.564
 5193POPC   PO466036  12.859  43.837   5.864
 5193POPC   GL166037  12.854  43.892   6.164
 5193POPC   GL266038  12.747  43.780   6.164
 5193POPC   C1A66039  12.897  43.896   6.464
 5193POPC   D2A66040  12.802  43.928   6.764
 5193POPC   C3A66041  12.853  43.910   7.064
 5193POPC   C4A66042  12.812  43.918   7.364
 5193POPC   C1B66043  12.615  43.791   6.464
 5193POPC   C2B66044  12.595  43.729   6.764
 5193POPC   C3B66045  12.637  43.758   7.064
 5193POPC   C4B66046  12.661  43.709   7.364
 5194POPC   NC366047   0.417   5.107   5.564
 5194POPC   PO466048   0.439   5.072   5.864
 5194POPC   GL166049   0.461   5.108   6.164
 5194POPC   GL266050   0.395   5.252   6.164
 5194POPC   C1A66051   0.409   5.052   6.464
 5194POPC   D2A66052   0.443   5.066   6.764
 5194POPC   C3A66053   0.401   5.104   7.064
 5194POPC   C4A66054   0.456   5.085   7.364
 5194POPC   C1B66055   0.376   5.308   6.464
 5194POPC   C2B66056   0.364   5.367   6.764
 5194POPC   C3B66057   0.421   5.339   7.064
 5194POPC   C4B66058   0.410   5.291   7.364
 5195POPC   NC366059  13.664   8.943   5.564
 5195POPC   PO466060  13.662   8.978   5.864
 5195POPC   GL166061  13.593   8.966   6.164
 5195POPC   GL266062  13.642   9.088   6.164
 5195POPC   C1A66063  13.621   8.981   6.464
 5195POPC   D2A66064  13.660   8.928   6.764
 5195POPC   C3A66065  13.606   9.010   7.064
 5195POPC   C4A66066  13.584   8.938   7.364
 5195POPC   C1B66067  13.557   9.255   6.464
 5195POPC   C2B66068  13.625   9.190   6.764
 5195POPC   C3B66069  13.577   9.169   7.064
 5195POPC   C4B66070  13.622   9.246   7.364
 5196POPC   NC366071  13.595  22.908   5.564
 5196POPC   PO466072  13.664  22.900   5.864
 5196POPC   GL166073  13.588  22.975   6.164
 5196POPC   GL266074  13.619  23.082   6.164
 5196POPC   C1A66075  13.601  22.987   6.464
 5196POPC   D2A66076  13.648  22.947   6.764
 5196POPC   C3A66077  13.605  22.963   7.064
 5196POPC   C4A66078  13.667  22.944   7.364
 5196POPC   C1B66079  13.670  23.140   6.464
 5196POPC   C2B66080  13.658  23.186   6.764
 5196POPC   C3B66081  13.667  23.178   7.064
 5196POPC   C4B66082  13.669  23.174   7.364
 5197POPC   NC366083  17.543  24.445   5.564
 5197POPC   PO466084  17.500  24.520   5.864
 5197POPC   GL166085  17.537  24.517   6.164
 5197POPC   GL266086  17.556  24.343   6.164
 5197POPC   C1A66087  17.484  24.524   6.464
 5197POPC   D2A66088  17.504  24.523   6.764
 5197POPC   C3A66089  17.535  24.475   7.064
 5197POPC   C4A66090  17.540  24.468   7.364
 5197POPC   C1B66091  17.706  24.325   6.464
 5197POPC   C2B66092  17.686  24.285   6.764
 5197POPC   C3B66093  17.692  24.267   7.064
 5197POPC   C4B66094  17.685  24.307   7.364
 5198POPC   NC366095  28.408  15.981   5.564
 5198POPC   PO466096  28.377  15.992   5.864
 5198POPC   GL166097  28.400  15.923   6.164
 5198POPC   GL266098  28.266  15.854   6.164
 5198POPC   C1A66099  28.375  15.953   6.464
 5198POPC   D2A66100  28.319  15.985   6.764
 5198POPC   C3A66101  28.365  15.957   7.064
 5198POPC   C4A66102  28.393  15.968   7.364
 5198POPC   C1B66103  28.210  15.776   6.464
 5198POPC   C2B66104  28.233  15.772   6.764
 5198POPC   C3B66105  28.273  15.702   7.064
 5198POPC   C4B66106  28.213  15.754   7.364
 5199POPC   NC366107  28.378  41.527   5.564
 5199POPC   PO466108  28.411  41.601   5.864
 5199POPC   GL166109  28.369  41.527   6.164
 5199POPC   GL266110  28.222  41.518   6.164
 5199POPC   C1A66111  28.353  41.540   6.464
 5199POPC   D2A66112  28.394  41.554   6.764
 5199POPC   C3A66113  28.407  41.534   7.064
 5199POPC   C4A66114  28.321  41.597   7.364
 5199POPC   C1B66115  28.143  41.604   6.464
 5199POPC   C2B66116  28.072  41.580   6.764
 5199POPC   C3B66117  28.086  41.530   7.064
 5199POPC   C4B66118  28.105  41.579   7.364
 5200POPC   NC366119  24.497  22.913   5.564
 5200POPC   PO466120  24.529  22.899   5.864
 5200POPC   GL166121  24.527  22.946   6.164
 5200POPC   GL266122  24.376  23.059   6.164
 5200POPC   C1A66123  24.471  22.976   6.464
 5200POPC   D2A66124  24.470  22.987   6.764
 5200POPC   C3A66125  24.472  22.942   7.064
 5200POPC   C4A66126  24.525  22.940   7.364
 5200POPC   C1B66127  24.298  23.069   6.464
 5200POPC   C2B66128  24.349  23.083   6.764
 5200POPC   C3B66129  24.276  23.129   7.064
 5200POPC   C4B66130  24.274  23.144   7.364
 5201POPC   NC366131   5.142   6.665   5.564
 5201POPC   PO466132   5.091   6.621   5.864
 5201POPC   GL166133   5.049   6.607   6.164
 5201POPC   GL266134   4.979   6.563   6.164
 5201POPC   C1A66135   5.116   6.613   6.464
 5201POPC   D2A66136   5.082   6.666   6.764
 5201POPC   C3A66137   5.126   6.687   7.064
 5201POPC   C4A66138   5.128   6.692   7.364
 5201POPC   C1B66139   4.913   6.510   6.464
 5201POPC   C2B66140   4.936   6.519   6.764
 5201POPC   C3B66141   4.947   6.483   7.064
 5201POPC   C4B66142   4.938   6.460   7.364
 5202POPC   NC366143  19.883  19.066   5.564
 5202POPC   PO466144  19.857  19.087   5.864
 5202POPC   GL166145  19.860  19.064   6.164
 5202POPC   GL266146  19.850  19.214   6.164
 5202POPC   C1A66147  19.854  19.011   6.464
 5202POPC   D2A66148  19.866  19.039   6.764
 5202POPC   C3A66149  19.870  19.039   7.064
 5202POPC   C4A66150  19.816  19.041   7.364
 5202POPC   C1B66151  19.926  19.334   6.464
 5202POPC   C2B66152  19.846  19.343   6.764
 5202POPC   C3B66153  19.874  19.336   7.064
 5202POPC   C4B66154  19.860  19.343   7.364
 5203POPC   NC366155  40.793  21.371   5.564
 5203POPC   PO466156  40.809  21.429   5.864
 5203POPC   GL166157  40.741  21.396   6.164
 5203POPC   GL266158  40.950  21.378   6.164
 5203POPC   C1A66159  40.791  21.432   6.464
 5203POPC   D2A66160  40.798  21.428   6.764
 5203POPC   C3A66161  40.824  21.357   7.064
 5203POPC   C4A66162  40.785  21.425   7.364
 5203POPC   C1B66163  41.016  21.401   6.464
 5203POPC   C2B66164  40.995  21.352   6.764
 5203POPC   C3B66165  41.007  21.400   7.064
 5203POPC   C4B66166  41.074  21.389   7.364
 5204POPC   NC366167  17.464  36.161   5.564
 5204POPC   PO466168  17.547  36.171   5.864
 5204POPC   GL166169  17.506  36.085   6.164
 5204POPC   GL266170  17.535  35.972   6.164
 5204POPC   C1A66171  17.549  36.174   6.464
 5204POPC   D2A66172  17.479  36.087   6.764
 5204POPC   C3A66173  17.499  36.149   7.064
 5204POPC   C4A66174  17.490  36.156   7.364
 5204POPC   C1B66175  17.653  35.911   6.464
 5204POPC   C2B66176  17.651  35.860   6.764
 5204POPC   C3B66177  17.666  35.882   7.064
 5204POPC   C4B66178  17.673  35.908   7.364
 5205POPC   NC366179  36.116   1.984   5.564
 5205POPC   PO466180  36.144   1.959   5.864
 5205POPC   GL166181  36.101   2.015   6.164
 5205POPC   GL266182  36.213   1.959   6.164
 5205POPC   C1A66183  36.127   1.943   6.464
 5205POPC   D2A66184  36.141   2.009   6.764
 5205POPC   C3A66185  36.094   2.035   7.064
 5205POPC   C4A66186  36.155   1.996   7.364
 5205POPC   C1B66187  36.394   1.863   6.464
 5205POPC   C2B66188  36.359   1.846   6.764
 5205POPC   C3B66189  36.390   1.881   7.064
 5205POPC   C4B66190  36.326   1.862   7.364
 5206POPC   NC366191  40.805  36.864   5.564
 5206POPC   PO466192  40.749  36.935   5.864
 5206POPC   GL166193  40.791  36.896   6.164
 5206POPC   GL266194  40.743  36.835   6.164
 5206POPC   C1A66195  40.755  36.900   6.464
 5206POPC   D2A66196  40.767  36.912   6.764
 5206POPC   C3A66197  40.794  36.875   7.064
 5206POPC   C4A66198  40.798  36.943   7.364
 5206POPC   C1B66199  40.594  36.673   6.464
 5206POPC   C2B66200  40.573  36.758   6.764
 5206POPC   C3B66201  40.586  36.755   7.064
 5206POPC   C4B66202  40.660  36.744   7.364
 5207POPC   NC366203  11.287  19.024   5.564
 5207POPC   PO466204  11.322  19.028   5.864
 5207POPC   GL166205  11.341  19.037   6.164
 5207POPC   GL266206  11.410  19.016   6.164
 5207POPC   C1A66207  11.262  19.079   6.464
 5207POPC   D2A66208  11.299  19.080   6.764
 5207POPC   C3A66209  11.315  19.079   7.064
 5207POPC   C4A66210  11.307  19.041   7.364
 5207POPC   C1B66211  11.520  18.839   6.464
 5207POPC   C2B66212  11.523  18.875   6.764
 5207POPC   C3B66213  11.430  18.846   7.064
 5207POPC   C4B66214  11.515  18.854   7.364
 5208POPC   NC366215  31.481   5.069   5.564
 5208POPC   PO466216  31.441   5.101   5.864
 5208POPC   GL166217  31.475   5.121   6.164
 5208POPC   GL266218  31.633   5.050   6.164
 5208POPC   C1A66219  31.454   5.127   6.464
 5208POPC   D2A66220  31.485   5.066   6.764
 5208POPC   C3A66221  31.478   5.065   7.064
 5208POPC   C4A66222  31.455   5.122   7.364
 5208POPC   C1B66223  31.692   5.043   6.464
 5208POPC   C2B66224  31.705   5.113   6.764
 5208POPC   C3B66225  31.743   5.068   7.064
 5208POPC   C4B66226  31.740   5.111   7.364
 5209POPC   NC366227  28.345   4.290   5.564
 5209POPC   PO466228  28.392   4.300   5.864
 5209POPC   GL166229  28.330   4.314   6.164
 5209POPC   GL266230  28.311   4.257   6.164
 5209POPC   C1A66231  28.350   4.310   6.464
 5209POPC   D2A66232  28.348   4.356   6.764
 5209POPC   C3A66233  28.388   4.298   7.064
 5209POPC   C4A66234  28.344   4.362   7.364
 5209POPC   C1B66235  28.212   4.111   6.464
 5209POPC   C2B66236  28.205   4.153   6.764
 5209POPC   C3B66237  28.203   4.075   7.064
 5209POPC   C4B66238  28.255   4.103   7.364
 5210POPC   NC366239   1.261   3.556   5.564
 5210POPC   PO466240   1.208   3.507   5.864
 5210POPC   GL166241   1.185   3.508   6.164
 5210POPC   GL266242   1.325   3.475   6.164
 5210POPC   C1A66243   1.199   3.578   6.464
 5210POPC   D2A66244   1.241   3.527   6.764
 5210POPC   C3A66245   1.240   3.536   7.064
 5210POPC   C4A66246   1.192   3.502   7.364
 5210POPC   C1B66247   1.389   3.316   6.464
 5210POPC   C2B66248   1.416   3.366   6.764
 5210POPC   C3B66249   1.332   3.362   7.064
 5210POPC   C4B66250   1.347   3.391   7.364
 5211POPC   NC366251  40.735  17.467   5.564
 5211POPC   PO466252  40.736  17.537   5.864
 5211POPC   GL166253  40.778  17.489   6.164
 5211POPC   GL266254  40.811  17.414   6.164
 5211POPC   C1A66255  40.739  17.493   6.464
 5211POPC   D2A66256  40.827  17.548   6.764
 5211POPC   C3A66257  40.768  17.526   7.064
 5211POPC   C4A66258  40.789  17.502   7.364
 5211POPC   C1B66259  40.717  17.288   6.464
 5211POPC   C2B66260  40.795  17.264   6.764
 5211POPC   C3B66261  40.745  17.299   7.064
 5211POPC   C4B66262  40.773  17.217   7.364
 5212POPC   NC366263  12.845  43.134   5.564
 5212POPC   PO466264  12.867  43.064   5.864
 5212POPC   GL166265  12.901  43.118   6.164
 5212POPC   GL266266  12.944  43.159   6.164
 5212POPC   C1A66267  12.822  43.098   6.464
 5212POPC   D2A66268  12.893  43.102   6.764
 5212POPC   C3A66269  12.890  43.104   7.064
 5212POPC   C4A66270  12.832  43.158   7.364
 5212POPC   C1B66271  13.067  43.248   6.464
 5212POPC   C2B66272  13.086  43.160   6.764
 5212POPC   C3B66273  13.055  43.252   7.064
 5212POPC   C4B66274  13.050  43.186   7.364
 5213POPC   NC366275  24.503  25.244   5.564
 5213POPC   PO466276  24.485  25.306   5.864
 5213POPC   GL166277  24.482  25.296   6.164
 5213POPC   GL266278  24.463  25.398   6.164
 5213POPC   C1A66279  24.448  25.267   6.464
 5213POPC   D2A66280  24.444  25.294   6.764
 5213POPC   C3A66281  24.530  25.239   7.064
 5213POPC   C4A66282  24.498  25.221   7.364
 5213POPC   C1B66283  24.371  25.447   6.464
 5213POPC   C2B66284  24.362  25.443   6.764
 5213POPC   C3B66285  24.379  25.446   7.064
 5213POPC   C4B66286  24.327  25.473   7.364
 5214POPC   NC366287  33.794  39.986   5.564
 5214POPC   PO466288  33.812  39.962   5.864
 5214POPC   GL166289  33.830  39.964   6.164
 5214POPC   GL266290  33.828  39.852   6.164
 5214POPC   C1A66291  33.792  39.993   6.464
 5214POPC   D2A66292  33.790  40.028   6.764
 5214POPC   C3A66293  33.787  40.041   7.064
 5214POPC   C4A66294  33.844  40.011   7.364
 5214POPC   C1B66295  33.875  39.740   6.464
 5214POPC   C2B66296  33.849  39.788   6.764
 5214POPC   C3B66297  33.825  39.787   7.064
 5214POPC   C4B66298  33.853  39.755   7.364
 5215POPC   NC366299   8.972  42.355   5.564
 5215POPC   PO466300   8.972  42.314   5.864
 5215POPC   GL166301   8.993  42.340   6.164
 5215POPC   GL266302   9.110  42.347   6.164
 5215POPC   C1A66303   8.963  42.376   6.464
 5215POPC   D2A66304   8.942  42.328   6.764
 5215POPC   C3A66305   8.992  42.375   7.064
 5215POPC   C4A66306   9.002  42.354   7.364
 5215POPC   C1B66307   9.172  42.271   6.464
 5215POPC   C2B66308   9.223  42.317   6.764
 5215POPC   C3B66309   9.209  42.275   7.064
 5215POPC   C4B66310   9.177  42.292   7.364
 5216POPC   NC366311  22.986  18.274   5.564
 5216POPC   PO466312  22.896  18.242   5.864
 5216POPC   GL166313  22.946  18.272   6.164
 5216POPC   GL266314  22.885  18.232   6.164
 5216POPC   C1A66315  22.974  18.242   6.464
 5216POPC   D2A66316  22.962  18.330   6.764
 5216POPC   C3A66317  22.970  18.244   7.064
 5216POPC   C4A66318  22.888  18.306   7.364
 5216POPC   C1B66319  22.751  18.053   6.464
 5216POPC   C2B66320  22.823  18.127   6.764
 5216POPC   C3B66321  22.739  18.080   7.064
 5216POPC   C4B66322  22.815  18.066   7.364
 5217POPC   NC366323  28.334  43.076   5.564
 5217POPC   PO466324  28.406  43.099   5.864
 5217POPC   GL166325  28.408  43.078   6.164
 5217POPC   GL266326  28.412  42.957   6.164
 5217POPC   C1A66327  28.390  43.086   6.464
 5217POPC   D2A66328  28.345  43.158   6.764
 5217POPC   C3A66329  28.345  43.118   7.064
 5217POPC   C4A66330  28.415  43.135   7.364
 5217POPC   C1B66331  28.534  42.939   6.464
 5217POPC   C2B66332  28.526  42.884   6.764
 5217POPC   C3B66333  28.460  42.936   7.064
 5217POPC   C4B66334  28.517  42.944   7.364
 5218POPC   NC366335  25.252  35.379   5.564
 5218POPC   PO466336  25.308  35.402   5.864
 5218POPC   GL166337  25.224  35.335   6.164
 5218POPC   GL266338  25.279  35.455   6.164
 5218POPC   C1A66339  25.223  35.317   6.464
 5218POPC   D2A66340  25.238  35.379   6.764
 5218POPC   C3A66341  25.247  35.379   7.064
 5218POPC   C4A66342  25.267  35.391   7.364
 5218POPC   C1B66343  25.364  35.581   6.464
 5218POPC   C2B66344  25.376  35.603   6.764
 5218POPC   C3B66345  25.384  35.594   7.064
 5218POPC   C4B66346  25.350  35.574   7.364
 5219POPC   NC366347  40.762  36.170   5.564
 5219POPC   PO466348  40.823  36.120   5.864
 5219POPC   GL166349  40.818  36.146   6.164
 5219POPC   GL266350  40.761  36.005   6.164
 5219POPC   C1A66351  40.782  36.165   6.464
 5219POPC   D2A66352  40.827  36.095   6.764
 5219POPC   C3A66353  40.734  36.161   7.064
 5219POPC   C4A66354  40.762  36.112   7.364
 5219POPC   C1B66355  40.813  35.893   6.464
 5219POPC   C2B66356  40.771  35.848   6.764
 5219POPC   C3B66357  40.769  35.854   7.064
 5219POPC   C4B66358  40.829  35.830   7.364
 5220POPC   NC366359  15.213  44.690   5.564
 5220POPC   PO466360  15.198  44.685   5.864
 5220POPC   GL166361  15.158  44.640   6.164
 5220POPC   GL266362  15.147  44.539   6.164
 5220POPC   C1A66363  15.133  44.679   6.464
 5220POPC   D2A66364  15.155  44.694   6.764
 5220POPC   C3A66365  15.183  44.680   7.064
 5220POPC   C4A66366  15.207  44.637   7.364
 5220POPC   C1B66367  15.084  44.483   6.464
 5220POPC   C2B66368  15.061  44.427   6.764
 5220POPC   C3B66369  15.012  44.445   7.064
 5220POPC   C4B66370  15.046  44.407   7.364
 5221POPC   NC366371   0.440  37.636   5.564
 5221POPC   PO466372   0.477  37.678   5.864
 5221POPC   GL166373   0.449  37.690   6.164
 5221POPC   GL266374   0.393  37.609   6.164
 5221POPC   C1A66375   0.448  37.678   6.464
 5221POPC   D2A66376   0.458  37.657   6.764
 5221POPC   C3A66377   0.465  37.701   7.064
 5221POPC   C4A66378   0.427  37.648   7.364
 5221POPC   C1B66379   0.244  37.452   6.464
 5221POPC   C2B66380   0.321  37.496   6.764
 5221POPC   C3B66381   0.307  37.460   7.064
 5221POPC   C4B66382   0.250  37.450   7.364
 5222POPC   NC366383  32.217  12.884   5.564
 5222POPC   PO466384  32.236  12.821   5.864
 5222POPC   GL166385  32.255  12.895   6.164
 5222POPC   GL266386  32.182  12.703   6.164
 5222POPC   C1A66387  32.253  12.821   6.464
 5222POPC   D2A66388  32.206  12.901   6.764
 5222POPC   C3A66389  32.254  12.887   7.064
 5222POPC   C4A66390  32.215  12.837   7.364
 5222POPC   C1B66391  32.149  12.601   6.464
 5222POPC   C2B66392  32.113  12.653   6.764
 5222POPC   C3B66393  32.096  12.672   7.064
 5222POPC   C4B66394  32.139  12.672   7.364
 5223POPC   NC366395   1.223   1.979   5.564
 5223POPC   PO466396   1.223   1.993   5.864
 5223POPC   GL166397   1.216   2.038   6.164
 5223POPC   GL266398   1.296   2.042   6.164
 5223POPC   C1A66399   1.259   1.945   6.464
 5223POPC   D2A66400   1.221   2.012   6.764
 5223POPC   C3A66401   1.246   1.999   7.064
 5223POPC   C4A66402   1.251   1.999   7.364
 5223POPC   C1B66403   1.327   2.235   6.464
 5223POPC   C2B66404   1.370   2.204   6.764
 5223POPC   C3B66405   1.318   2.156   7.064
 5223POPC   C4B66406   1.367   2.192   7.364
 5224POPC   NC366407  12.841  10.496   5.564
 5224POPC   PO466408  12.817  10.561   5.864
 5224POPC   GL166409  12.808  10.552   6.164
 5224POPC   GL266410  12.827  10.407   6.164
 5224POPC   C1A66411  12.879  10.490   6.464
 5224POPC   D2A66412  12.889  10.516   6.764
 5224POPC   C3A66413  12.809  10.494   7.064
 5224POPC   C4A66414  12.877  10.531   7.364
 5224POPC   C1B66415  12.919  10.256   6.464
 5224POPC   C2B66416  12.868  10.314   6.764
 5224POPC   C3B66417  12.846  10.262   7.064
 5224POPC   C4B66418  12.889  10.230   7.364
 5225POPC   NC366419  13.617   5.110   5.564
 5225POPC   PO466420  13.640   5.047   5.864
 5225POPC   GL166421  13.651   5.110   6.164
 5225POPC   GL266422  13.465   5.086   6.164
 5225POPC   C1A66423  13.605   5.047   6.464
 5225POPC   D2A66424  13.617   5.073   6.764
 5225POPC   C3A66425  13.608   5.129   7.064
 5225POPC   C4A66426  13.595   5.049   7.364
 5225POPC   C1B66427  13.367   5.065   6.464
 5225POPC   C2B66428  13.353   5.043   6.764
 5225POPC   C3B66429  13.339   5.004   7.064
 5225POPC   C4B66430  13.339   5.047   7.364
 5226POPC   NC366431  44.684   3.494   5.564
 5226POPC   PO466432  44.653   3.525   5.864
 5226POPC   GL166433  44.648   3.547   6.164
 5226POPC   GL266434  44.730   3.642   6.164
 5226POPC   C1A66435  44.617   3.586   6.464
 5226POPC   D2A66436  44.636   3.505   6.764
 5226POPC   C3A66437  44.636   3.524   7.064
 5226POPC   C4A66438  44.638   3.508   7.364
 5226POPC   C1B66439  44.688   3.766   6.464
 5226POPC   C2B66440  44.764   3.812   6.764
 5226POPC   C3B66441  44.710   3.760   7.064
 5226POPC   C4B66442  44.762   3.833   7.364
 5227POPC   NC366443  29.903  19.805   5.564
 5227POPC   PO466444  29.916  19.801   5.864
 5227POPC   GL166445  29.908  19.872   6.164
 5227POPC   GL266446  30.005  19.806   6.164
 5227POPC   C1A66447  29.920  19.865   6.464
 5227POPC   D2A66448  29.919  19.814   6.764
 5227POPC   C3A66449  29.876  19.837   7.064
 5227POPC   C4A66450  29.939  19.796   7.364
 5227POPC   C1B66451  30.122  19.789   6.464
 5227POPC   C2B66452  30.182  19.743   6.764
 5227POPC   C3B66453  30.130  19.739   7.064
 5227POPC   C4B66454  30.126  19.791   7.364
 5228POPC   NC366455  39.235  32.262   5.564
 5228POPC   PO466456  39.183  32.239   5.864
 5228POPC   GL166457  39.215  32.224   6.164
 5228POPC   GL266458  39.243  32.393   6.164
 5228POPC   C1A66459  39.279  32.282   6.464
 5228POPC   D2A66460  39.276  32.231   6.764
 5228POPC   C3A66461  39.182  32.210   7.064
 5228POPC   C4A66462  39.223  32.276   7.364
 5228POPC   C1B66463  39.290  32.530   6.464
 5228POPC   C2B66464  39.311  32.528   6.764
 5228POPC   C3B66465  39.312  32.471   7.064
 5228POPC   C4B66466  39.302  32.530   7.364
 5229POPC   NC366467  26.023   0.414   5.564
 5229POPC   PO466468  26.036   0.406   5.864
 5229POPC   GL166469  26.049   0.398   6.164
 5229POPC   GL266470  26.158   0.365   6.164
 5229POPC   C1A66471  26.005   0.449   6.464
 5229POPC   D2A66472  26.020   0.437   6.764
 5229POPC   C3A66473  26.028   0.464   7.064
 5229POPC   C4A66474  26.008   0.477   7.364
 5229POPC   C1B66475  26.208   0.239   6.464
 5229POPC   C2B66476  26.285   0.288   6.764
 5229POPC   C3B66477  26.276   0.304   7.064
 5229POPC   C4B66478  26.219   0.241   7.364
 5230POPC   NC366479  19.057  36.129   5.564
 5230POPC   PO466480  19.013  36.118   5.864
 5230POPC   GL166481  19.048  36.132   6.164
 5230POPC   GL266482  19.136  36.267   6.164
 5230POPC   C1A66483  19.010  36.109   6.464
 5230POPC   D2A66484  19.108  36.106   6.764
 5230POPC   C3A66485  19.068  36.141   7.064
 5230POPC   C4A66486  19.015  36.092   7.364
 5230POPC   C1B66487  19.187  36.324   6.464
 5230POPC   C2B66488  19.165  36.339   6.764
 5230POPC   C3B66489  19.181  36.340   7.064
 5230POPC   C4B66490  19.198  36.321   7.364
 5231POPC   NC366491  13.637  29.135   5.564
 5231POPC   PO466492  13.635  29.189   5.864
 5231POPC   GL166493  13.607  29.193   6.164
 5231POPC   GL266494  13.733  29.067   6.164
 5231POPC   C1A66495  13.622  29.135   6.464
 5231POPC   D2A66496  13.606  29.178   6.764
 5231POPC   C3A66497  13.621  29.095   7.064
 5231POPC   C4A66498  13.665  29.138   7.364
 5231POPC   C1B66499  13.773  28.929   6.464
 5231POPC   C2B66500  13.822  28.999   6.764
 5231POPC   C3B66501  13.838  28.919   7.064
 5231POPC   C4B66502  13.833  28.935   7.364
 5232POPC   NC366503  26.778  43.131   5.564
 5232POPC   PO466504  26.847  43.091   5.864
 5232POPC   GL166505  26.835  43.075   6.164
 5232POPC   GL266506  26.972  43.092   6.164
 5232POPC   C1A66507  26.794  43.091   6.464
 5232POPC   D2A66508  26.768  43.152   6.764
 5232POPC   C3A66509  26.822  43.121   7.064
 5232POPC   C4A66510  26.796  43.145   7.364
 5232POPC   C1B66511  27.021  43.074   6.464
 5232POPC   C2B66512  27.081  43.033   6.764
 5232POPC   C3B66513  27.111  43.092   7.064
 5232POPC   C4B66514  27.084  43.028   7.364
 5233POPC   NC366515  10.571  26.021   5.564
 5233POPC   PO466516  10.514  26.023   5.864
 5233POPC   GL166517  10.536  26.008   6.164
 5233POPC   GL266518  10.592  25.899   6.164
 5233POPC   C1A66519  10.486  26.068   6.464
 5233POPC   D2A66520  10.556  26.085   6.764
 5233POPC   C3A66521  10.561  26.068   7.064
 5233POPC   C4A66522  10.543  25.997   7.364
 5233POPC   C1B66523  10.571  25.835   6.464
 5233POPC   C2B66524  10.594  25.825   6.764
 5233POPC   C3B66525  10.613  25.753   7.064
 5233POPC   C4B66526  10.617  25.752   7.364
 5234POPC   NC366527  29.892  19.091   5.564
 5234POPC   PO466528  29.903  19.065   5.864
 5234POPC   GL166529  29.898  19.054   6.164
 5234POPC   GL266530  30.037  19.135   6.164
 5234POPC   C1A66531  29.901  19.069   6.464
 5234POPC   D2A66532  29.962  19.071   6.764
 5234POPC   C3A66533  29.914  19.092   7.064
 5234POPC   C4A66534  29.947  19.023   7.364
 5234POPC   C1B66535  30.042  19.217   6.464
 5234POPC   C2B66536  30.100  19.304   6.764
 5234POPC   C3B66537  30.064  19.296   7.064
 5234POPC   C4B66538  30.058  19.231   7.364
 5235POPC   NC366539  43.110  25.305   5.564
 5235POPC   PO466540  43.096  25.230   5.864
 5235POPC   GL166541  43.133  25.239   6.164
 5235POPC   GL266542  43.099  25.184   6.164
 5235POPC   C1A66543  43.135  25.306   6.464
 5235POPC   D2A66544  43.154  25.265   6.764
 5235POPC   C3A66545  43.158  25.266   7.064
 5235POPC   C4A66546  43.089  25.270   7.364
 5235POPC   C1B66547  43.040  25.018   6.464
 5235POPC   C2B66548  43.069  25.051   6.764
 5235POPC   C3B66549  43.123  24.992   7.064
 5235POPC   C4B66550  43.074  25.038   7.364
 5236POPC   NC366551  41.550  25.314   5.564
 5236POPC   PO466552  41.520  25.272   5.864
 5236POPC   GL166553  41.587  25.246   6.164
 5236POPC   GL266554  41.650  25.164   6.164
 5236POPC   C1A66555  41.603  25.271   6.464
 5236POPC   D2A66556  41.570  25.268   6.764
 5236POPC   C3A66557  41.536  25.245   7.064
 5236POPC   C4A66558  41.588  25.216   7.364
 5236POPC   C1B66559  41.695  25.029   6.464
 5236POPC   C2B66560  41.731  25.072   6.764
 5236POPC   C3B66561  41.681  25.058   7.064
 5236POPC   C4B66562  41.670  25.022   7.364
 5237POPC   NC366563  28.350  29.900   5.564
 5237POPC   PO466564  28.413  29.935   5.864
 5237POPC   GL166565  28.359  29.880   6.164
 5237POPC   GL266566  28.358  29.806   6.164
 5237POPC   C1A66567  28.410  29.908   6.464
 5237POPC   D2A66568  28.394  29.926   6.764
 5237POPC   C3A66569  28.376  29.924   7.064
 5237POPC   C4A66570  28.398  29.924   7.364
 5237POPC   C1B66571  28.274  29.687   6.464
 5237POPC   C2B66572  28.269  29.664   6.764
 5237POPC   C3B66573  28.206  29.729   7.064
 5237POPC   C4B66574  28.216  29.659   7.364
 5238POPC   NC366575   9.701  26.825   5.564
 5238POPC   PO466576   9.758  26.834   5.864
 5238POPC   GL166577   9.732  26.768   6.164
 5238POPC   GL266578   9.834  26.724   6.164
 5238POPC   C1A66579   9.719  26.840   6.464
 5238POPC   D2A66580   9.791  26.769   6.764
 5238POPC   C3A66581   9.765  26.811   7.064
 5238POPC   C4A66582   9.783  26.772   7.364
 5238POPC   C1B66583   9.956  26.609   6.464
 5238POPC   C2B66584   9.970  26.660   6.764
 5238POPC   C3B66585   9.908  26.682   7.064
 5238POPC   C4B66586   9.960  26.605   7.364
 5239POPC   NC366587  31.476  14.415   5.564
 5239POPC   PO466588  31.431  14.358   5.864
 5239POPC   GL166589  31.507  14.423   6.164
 5239POPC   GL266590  31.379  14.500   6.164
 5239POPC   C1A66591  31.436  14.407   6.464
 5239POPC   D2A66592  31.493  14.384   6.764
 5239POPC   C3A66593  31.499  14.365   7.064
 5239POPC   C4A66594  31.506  14.424   7.364
 5239POPC   C1B66595  31.299  14.571   6.464
 5239POPC   C2B66596  31.288  14.575   6.764
 5239POPC   C3B66597  31.265  14.499   7.064
 5239POPC   C4B66598  31.230  14.545   7.364
 5240POPC   NC366599  29.885  22.183   5.564
 5240POPC   PO466600  29.912  22.139   5.864
 5240POPC   GL166601  29.895  22.112   6.164
 5240POPC   GL266602  29.808  22.193   6.164
 5240POPC   C1A66603  29.939  22.136   6.464
 5240POPC   D2A66604  29.873  22.124   6.764
 5240POPC   C3A66605  29.956  22.203   7.064
 5240POPC   C4A66606  29.891  22.211   7.364
 5240POPC   C1B66607  29.720  22.308   6.464
 5240POPC   C2B66608  29.665  22.275   6.764
 5240POPC   C3B66609  29.727  22.249   7.064
 5240POPC   C4B66610  29.661  22.294   7.364
 5241POPC   NC366611  27.591  12.037   5.564
 5241POPC   PO466612  27.591  12.062   5.864
 5241POPC   GL166613  27.588  12.121   6.164
 5241POPC   GL266614  27.586  12.226   6.164
 5241POPC   C1A66615  27.620  12.047   6.464
 5241POPC   D2A66616  27.611  12.090   6.764
 5241POPC   C3A66617  27.618  12.120   7.064
 5241POPC   C4A66618  27.617  12.111   7.364
 5241POPC   C1B66619  27.676  12.321   6.464
 5241POPC   C2B66620  27.720  12.305   6.764
 5241POPC   C3B66621  27.660  12.301   7.064
 5241POPC   C4B66622  27.633  12.316   7.364
 5242POPC   NC366623   3.542  16.704   5.564
 5242POPC   PO466624   3.575  16.706   5.864
 5242POPC   GL166625   3.545  16.696   6.164
 5242POPC   GL266626   3.369  16.684   6.164
 5242POPC   C1A66627   3.500  16.767   6.464
 5242POPC   D2A66628   3.527  16.719   6.764
 5242POPC   C3A66629   3.588  16.744   7.064
 5242POPC   C4A66630   3.497  16.749   7.364
 5242POPC   C1B66631   3.242  16.700   6.464
 5242POPC   C2B66632   3.246  16.748   6.764
 5242POPC   C3B66633   3.321  16.744   7.064
 5242POPC   C4B66634   3.293  16.668   7.364
 5243POPC   NC366635  31.499  24.484   5.564
 5243POPC   PO466636  31.445  24.485   5.864
 5243POPC   GL166637  31.494  24.448   6.164
 5243POPC   GL266638  31.596  24.456   6.164
 5243POPC   C1A66639  31.478  24.472   6.464
 5243POPC   D2A66640  31.486  24.464   6.764
 5243POPC   C3A66641  31.480  24.474   7.064
 5243POPC   C4A66642  31.517  24.475   7.364
 5243POPC   C1B66643  31.629  24.289   6.464
 5243POPC   C2B66644  31.680  24.332   6.764
 5243POPC   C3B66645  31.617  24.374   7.064
 5243POPC   C4B66646  31.655  24.373   7.364
 5244POPC   NC366647   5.901  10.482   5.564
 5244POPC   PO466648   5.889  10.538   5.864
 5244POPC   GL166649   5.867  10.533   6.164
 5244POPC   GL266650   5.849  10.651   6.164
 5244POPC   C1A66651   5.819  10.537   6.464
 5244POPC   D2A66652   5.866  10.484   6.764
 5244POPC   C3A66653   5.908  10.565   7.064
 5244POPC   C4A66654   5.869  10.551   7.364
 5244POPC   C1B66655   5.759  10.749   6.464
 5244POPC   C2B66656   5.776  10.777   6.764
 5244POPC   C3B66657   5.751  10.742   7.064
 5244POPC   C4B66658   5.726  10.698   7.364
 5245POPC   NC366659  36.128  31.436   5.564
 5245POPC   PO466660  36.116  31.500   5.864
 5245POPC   GL166661  36.172  31.486   6.164
 5245POPC   GL266662  36.241  31.527   6.164
 5245POPC   C1A66663  36.123  31.438   6.464
 5245POPC   D2A66664  36.128  31.423   6.764
 5245POPC   C3A66665  36.105  31.425   7.064
 5245POPC   C4A66666  36.137  31.466   7.364
 5245POPC   C1B66667  36.355  31.627   6.464
 5245POPC   C2B66668  36.285  31.636   6.764
 5245POPC   C3B66669  36.322  31.640   7.064
 5245POPC   C4B66670  36.358  31.616   7.364
 5246POPC   NC366671  35.303  43.086   5.564
 5246POPC   PO466672  35.380  43.069   5.864
 5246POPC   GL166673  35.387  43.080   6.164
 5246POPC   GL266674  35.322  43.021   6.164
 5246POPC   C1A66675  35.387  43.132   6.464
 5246POPC   D2A66676  35.360  43.133   6.764
 5246POPC   C3A66677  35.308  43.115   7.064
 5246POPC   C4A66678  35.305  43.081   7.364
 5246POPC   C1B66679  35.419  42.864   6.464
 5246POPC   C2B66680  35.400  42.911   6.764
 5246POPC   C3B66681  35.337  42.816   7.064
 5246POPC   C4B66682  35.431  42.835   7.364
 5247POPC   NC366683  43.926  22.122   5.564
 5247POPC   PO466684  43.920  22.173   5.864
 5247POPC   GL166685  43.877  22.179   6.164
 5247POPC   GL266686  43.766  22.211   6.164
 5247POPC   C1A66687  43.895  22.134   6.464
 5247POPC   D2A66688  43.917  22.186   6.764
 5247POPC   C3A66689  43.841  22.156   7.064
 5247POPC   C4A66690  43.881  22.154   7.364
 5247POPC   C1B66691  43.607  22.137   6.464
 5247POPC   C2B66692  43.664  22.187   6.764
 5247POPC   C3B66693  43.658  22.125   7.064
 5247POPC   C4B66694  43.649  22.166   7.364
 5248POPC   NC366695  17.547  28.347   5.564
 5248POPC   PO466696  17.530  28.360   5.864
 5248POPC   GL166697  17.531  28.411   6.164
 5248POPC   GL266698  17.407  28.307   6.164
 5248POPC   C1A66699  17.550  28.328   6.464
 5248POPC   D2A66700  17.554  28.400   6.764
 5248POPC   C3A66701  17.534  28.355   7.064
 5248POPC   C4A66702  17.523  28.385   7.364
 5248POPC   C1B66703  17.306  28.254   6.464
 5248POPC   C2B66704  17.285  28.279   6.764
 5248POPC   C3B66705  17.272  28.196   7.064
 5248POPC   C4B66706  17.273  28.221   7.364
 5249POPC   NC366707   7.400  12.805   5.564
 5249POPC   PO466708   7.447  12.877   5.864
 5249POPC   GL166709   7.376  12.879   6.164
 5249POPC   GL266710   7.453  12.728   6.164
 5249POPC   C1A66711   7.397  12.822   6.464
 5249POPC   D2A66712   7.444  12.821   6.764
 5249POPC   C3A66713   7.392  12.886   7.064
 5249POPC   C4A66714   7.380  12.850   7.364
 5249POPC   C1B66715   7.551  12.694   6.464
 5249POPC   C2B66716   7.590  12.655   6.764
 5249POPC   C3B66717   7.546  12.650   7.064
 5249POPC   C4B66718   7.544  12.696   7.364
 5250POPC   NC366719  24.480  17.544   5.564
 5250POPC   PO466720  24.454  17.524   5.864
 5250POPC   GL166721  24.518  17.530   6.164
 5250POPC   GL266722  24.490  17.438   6.164
 5250POPC   C1A66723  24.504  17.504   6.464
 5250POPC   D2A66724  24.480  17.555   6.764
 5250POPC   C3A66725  24.536  17.522   7.064
 5250POPC   C4A66726  24.486  17.505   7.364
 5250POPC   C1B66727  24.616  17.260   6.464
 5250POPC   C2B66728  24.592  17.227   6.764
 5250POPC   C3B66729  24.587  17.317   7.064
 5250POPC   C4B66730  24.559  17.251   7.364
 5251POPC   NC366731  35.351  30.713   5.564
 5251POPC   PO466732  35.311  30.704   5.864
 5251POPC   GL166733  35.356  30.651   6.164
 5251POPC   GL266734  35.267  30.827   6.164
 5251POPC   C1A66735  35.356  30.738   6.464
 5251POPC   D2A66736  35.362  30.712   6.764
 5251POPC   C3A66737  35.305  30.726   7.064
 5251POPC   C4A66738  35.305  30.741   7.364
 5251POPC   C1B66739  35.242  30.960   6.464
 5251POPC   C2B66740  35.233  30.916   6.764
 5251POPC   C3B66741  35.244  30.979   7.064
 5251POPC   C4B66742  35.290  30.952   7.364
 5252POPC   NC366743   3.541   5.830   5.564
 5252POPC   PO466744   3.520   5.859   5.864
 5252POPC   GL166745   3.523   5.894   6.164
 5252POPC   GL266746   3.568   5.718   6.164
 5252POPC   C1A66747   3.556   5.852   6.464
 5252POPC   D2A66748   3.564   5.871   6.764
 5252POPC   C3A66749   3.517   5.894   7.064
 5252POPC   C4A66750   3.575   5.893   7.364
 5252POPC   C1B66751   3.584   5.624   6.464
 5252POPC   C2B66752   3.617   5.645   6.764
 5252POPC   C3B66753   3.600   5.645   7.064
 5252POPC   C4B66754   3.573   5.646   7.364
 5253POPC   NC366755   6.646  15.982   5.564
 5253POPC   PO466756   6.611  15.970   5.864
 5253POPC   GL166757   6.617  15.969   6.164
 5253POPC   GL266758   6.548  16.023   6.164
 5253POPC   C1A66759   6.613  15.947   6.464
 5253POPC   D2A66760   6.603  16.000   6.764
 5253POPC   C3A66761   6.691  15.918   7.064
 5253POPC   C4A66762   6.605  15.955   7.364
 5253POPC   C1B66763   6.480  16.126   6.464
 5253POPC   C2B66764   6.484  16.137   6.764
 5253POPC   C3B66765   6.439  16.126   7.064
 5253POPC   C4B66766   6.391  16.115   7.364
 5254POPC   NC366767  40.023  43.082   5.564
 5254POPC   PO466768  40.049  43.157   5.864
 5254POPC   GL166769  40.040  43.068   6.164
 5254POPC   GL266770  40.087  43.024   6.164
 5254POPC   C1A66771  40.022  43.064   6.464
 5254POPC   D2A66772  39.981  43.132   6.764
 5254POPC   C3A66773  39.978  43.084   7.064
 5254POPC   C4A66774  40.000  43.110   7.364
 5254POPC   C1B66775  40.185  42.915   6.464
 5254POPC   C2B66776  40.169  42.910   6.764
 5254POPC   C3B66777  40.153  42.912   7.064
 5254POPC   C4B66778  40.110  42.947   7.364
 5255POPC   NC366779  39.193  26.829   5.564
 5255POPC   PO466780  39.264  26.768   5.864
 5255POPC   GL166781  39.195  26.791   6.164
 5255POPC   GL266782  39.214  26.676   6.164
 5255POPC   C1A66783  39.243  26.847   6.464
 5255POPC   D2A66784  39.212  26.818   6.764
 5255POPC   C3A66785  39.263  26.779   7.064
 5255POPC   C4A66786  39.247  26.864   7.364
 5255POPC   C1B66787  39.269  26.598   6.464
 5255POPC   C2B66788  39.179  26.543   6.764
 5255POPC   C3B66789  39.264  26.540   7.064
 5255POPC   C4B66790  39.180  26.555   7.364
 5256POPC   NC366791  27.549  37.695   5.564
 5256POPC   PO466792  27.625  37.640   5.864
 5256POPC   GL166793  27.584  37.697   6.164
 5256POPC   GL266794  27.625  37.746   6.164
 5256POPC   C1A66795  27.638  37.630   6.464
 5256POPC   D2A66796  27.615  37.644   6.764
 5256POPC   C3A66797  27.566  37.686   7.064
 5256POPC   C4A66798  27.631  37.700   7.364
 5256POPC   C1B66799  27.680  37.906   6.464
 5256POPC   C2B66800  27.706  37.923   6.764
 5256POPC   C3B66801  27.711  37.872   7.064
 5256POPC   C4B66802  27.722  37.934   7.364
 5257POPC   NC366803   9.705  14.420   5.564
 5257POPC   PO466804   9.737  14.419   5.864
 5257POPC   GL166805   9.754  14.421   6.164
 5257POPC   GL266806   9.852  14.484   6.164
 5257POPC   C1A66807   9.747  14.441   6.464
 5257POPC   D2A66808   9.742  14.410   6.764
 5257POPC   C3A66809   9.747  14.354   7.064
 5257POPC   C4A66810   9.734  14.383   7.364
 5257POPC   C1B66811   9.923  14.581   6.464
 5257POPC   C2B66812   9.956  14.557   6.764
 5257POPC   C3B66813   9.924  14.616   7.064
 5257POPC   C4B66814   9.898  14.611   7.364
 5258POPC   NC366815   7.444   8.931   5.564
 5258POPC   PO466816   7.388   9.022   5.864
 5258POPC   GL166817   7.410   9.007   6.164
 5258POPC   GL266818   7.327   8.975   6.164
 5258POPC   C1A66819   7.462   8.950   6.464
 5258POPC   D2A66820   7.433   9.018   6.764
 5258POPC   C3A66821   7.444   8.939   7.064
 5258POPC   C4A66822   7.455   8.982   7.364
 5258POPC   C1B66823   7.201   8.893   6.464
 5258POPC   C2B66824   7.125   8.958   6.764
 5258POPC   C3B66825   7.147   8.925   7.064
 5258POPC   C4B66826   7.175   8.888   7.364
 5259POPC   NC366827  44.710  39.182   5.564
 5259POPC   PO466828  44.697  39.228   5.864
 5259POPC   GL166829  44.665  39.220   6.164
 5259POPC   GL266830  44.567  39.319   6.164
 5259POPC   C1A66831  44.638  39.222   6.464
 5259POPC   D2A66832  44.671  39.227   6.764
 5259POPC   C3A66833  44.686  39.209   7.064
 5259POPC   C4A66834  44.637  39.243   7.364
 5259POPC   C1B66835  44.483  39.454   6.464
 5259POPC   C2B66836  44.561  39.395   6.764
 5259POPC   C3B66837  44.550  39.410   7.064
 5259POPC   C4B66838  44.577  39.409   7.364
 5260POPC   NC366839  22.895  43.107   5.564
 5260POPC   PO466840  22.981  43.101   5.864
 5260POPC   GL166841  22.918  43.118   6.164
 5260POPC   GL266842  23.101  43.112   6.164
 5260POPC   C1A66843  22.908  43.077   6.464
 5260POPC   D2A66844  22.946  43.105   6.764
 5260POPC   C3A66845  22.915  43.123   7.064
 5260POPC   C4A66846  22.937  43.108   7.364
 5260POPC   C1B66847  23.206  43.037   6.464
 5260POPC   C2B66848  23.209  43.060   6.764
 5260POPC   C3B66849  23.206  43.018   7.064
 5260POPC   C4B66850  23.226  43.056   7.364
 5261POPC   NC366851  10.542  23.756   5.564
 5261POPC   PO466852  10.499  23.759   5.864
 5261POPC   GL166853  10.503  23.755   6.164
 5261POPC   GL266854  10.551  23.801   6.164
 5261POPC   C1A66855  10.498  23.721   6.464
 5261POPC   D2A66856  10.533  23.743   6.764
 5261POPC   C3A66857  10.476  23.722   7.064
 5261POPC   C4A66858  10.488  23.709   7.364
 5261POPC   C1B66859  10.576  23.953   6.464
 5261POPC   C2B66860  10.561  23.949   6.764
 5261POPC   C3B66861  10.586  23.909   7.064
 5261POPC   C4B66862  10.616  23.999   7.364
 5262POPC   NC366863  43.896  19.847   5.564
 5262POPC   PO466864  43.929  19.814   5.864
 5262POPC   GL166865  43.836  19.866   6.164
 5262POPC   GL266866  43.863  19.745   6.164
 5262POPC   C1A66867  43.873  19.882   6.464
 5262POPC   D2A66868  43.906  19.806   6.764
 5262POPC   C3A66869  43.877  19.869   7.064
 5262POPC   C4A66870  43.838  19.811   7.364
 5262POPC   C1B66871  43.757  19.610   6.464
 5262POPC   C2B66872  43.762  19.558   6.764
 5262POPC   C3B66873  43.757  19.559   7.064
 5262POPC   C4B66874  43.835  19.632   7.364
 5263POPC   NC366875  42.286   8.150   5.564
 5263POPC   PO466876  42.362   8.231   5.864
 5263POPC   GL166877  42.360   8.222   6.164
 5263POPC   GL266878  42.451   8.187   6.164
 5263POPC   C1A66879  42.311   8.194   6.464
 5263POPC   D2A66880  42.381   8.228   6.764
 5263POPC   C3A66881  42.291   8.152   7.064
 5263POPC   C4A66882  42.291   8.185   7.364
 5263POPC   C1B66883  42.578   8.149   6.464
 5263POPC   C2B66884  42.573   8.092   6.764
 5263POPC   C3B66885  42.589   8.142   7.064
 5263POPC   C4B66886  42.549   8.101   7.364
 5264POPC   NC366887  23.692  26.813   5.564
 5264POPC   PO466888  23.689  26.770   5.864
 5264POPC   GL166889  23.675  26.840   6.164
 5264POPC   GL266890  23.760  26.959   6.164
 5264POPC   C1A66891  23.690  26.796   6.464
 5264POPC   D2A66892  23.680  26.788   6.764
 5264POPC   C3A66893  23.680  26.784   7.064
 5264POPC   C4A66894  23.672  26.774   7.364
 5264POPC   C1B66895  23.911  27.035   6.464
 5264POPC   C2B66896  23.872  27.019   6.764
 5264POPC   C3B66897  23.896  26.987   7.064
 5264POPC   C4B66898  23.868  27.021   7.364
 5265POPC   NC366899  16.712   2.782   5.564
 5265POPC   PO466900  16.740   2.791   5.864
 5265POPC   GL166901  16.683   2.722   6.164
 5265POPC   GL266902  16.607   2.817   6.164
 5265POPC   C1A66903  16.774   2.778   6.464
 5265POPC   D2A66904  16.759   2.755   6.764
 5265POPC   C3A66905  16.688   2.797   7.064
 5265POPC   C4A66906  16.758   2.766   7.364
 5265POPC   C1B66907  16.480   2.860   6.464
 5265POPC   C2B66908  16.540   2.863   6.764
 5265POPC   C3B66909  16.467   2.798   7.064
 5265POPC   C4B66910  16.449   2.851   7.364
 5266POPC   NC366911  40.013  29.150   5.564
 5266POPC   PO466912  39.998  29.194   5.864
 5266POPC   GL166913  39.963  29.113   6.164
 5266POPC   GL266914  39.962  29.207   6.164
 5266POPC   C1A66915  39.967  29.133   6.464
 5266POPC   D2A66916  39.999  29.116   6.764
 5266POPC   C3A66917  40.044  29.194   7.064
 5266POPC   C4A66918  39.996  29.133   7.364
 5266POPC   C1B66919  39.868  29.329   6.464
 5266POPC   C2B66920  39.790  29.361   6.764
 5266POPC   C3B66921  39.793  29.316   7.064
 5266POPC   C4B66922  39.865  29.366   7.364
 5267POPC   NC366923  10.510  33.769   5.564
 5267POPC   PO466924  10.530  33.780   5.864
 5267POPC   GL166925  10.514  33.756   6.164
 5267POPC   GL266926  10.482  33.903   6.164
 5267POPC   C1A66927  10.517  33.833   6.464
 5267POPC   D2A66928  10.560  33.803   6.764
 5267POPC   C3A66929  10.550  33.838   7.064
 5267POPC   C4A66930  10.561  33.773   7.364
 5267POPC   C1B66931  10.444  33.997   6.464
 5267POPC   C2B66932  10.389  33.974   6.764
 5267POPC   C3B66933  10.394  33.968   7.064
 5267POPC   C4B66934  10.425  33.983   7.364
 5268POPC   NC366935  25.235  39.245   5.564
 5268POPC   PO466936  25.233  39.206   5.864
 5268POPC   GL166937  25.222  39.276   6.164
 5268POPC   GL266938  25.206  39.065   6.164
 5268POPC   C1A66939  25.232  39.209   6.464
 5268POPC   D2A66940  25.254  39.182   6.764
 5268POPC   C3A66941  25.310  39.192   7.064
 5268POPC   C4A66942  25.271  39.264   7.364
 5268POPC   C1B66943  25.209  38.947   6.464
 5268POPC   C2B66944  25.225  38.970   6.764
 5268POPC   C3B66945  25.198  38.952   7.064
 5268POPC   C4B66946  25.171  39.013   7.364
 5269POPC   NC366947  10.560   9.745   5.564
 5269POPC   PO466948  10.567   9.734   5.864
 5269POPC   GL166949  10.499   9.732   6.164
 5269POPC   GL266950  10.531   9.647   6.164
 5269POPC   C1A66951  10.492   9.748   6.464
 5269POPC   D2A66952  10.493   9.732   6.764
 5269POPC   C3A66953  10.550   9.760   7.064
 5269POPC   C4A66954  10.500   9.768   7.364
 5269POPC   C1B66955  10.437   9.475   6.464
 5269POPC   C2B66956  10.417   9.560   6.764
 5269POPC   C3B66957  10.442   9.559   7.064
 5269POPC   C4B66958  10.451   9.536   7.364
 5270POPC   NC366959  13.647  25.286   5.564
 5270POPC   PO466960  13.598  25.303   5.864
 5270POPC   GL166961  13.623  25.222   6.164
 5270POPC   GL266962  13.542  25.382   6.164
 5270POPC   C1A66963  13.578  25.223   6.464
 5270POPC   D2A66964  13.583  25.287   6.764
 5270POPC   C3A66965  13.634  25.304   7.064
 5270POPC   C4A66966  13.665  25.301   7.364
 5270POPC   C1B66967  13.434  25.460   6.464
 5270POPC   C2B66968  13.441  25.403   6.764
 5270POPC   C3B66969  13.469  25.415   7.064
 5270POPC   C4B66970  13.395  25.379   7.364
 5271POPC   NC366971  37.636   2.743   5.564
 5271POPC   PO466972  37.702   2.814   5.864
 5271POPC   GL166973  37.675   2.767   6.164
 5271POPC   GL266974  37.736   2.676   6.164
 5271POPC   C1A66975  37.697   2.755   6.464
 5271POPC   D2A66976  37.648   2.813   6.764
 5271POPC   C3A66977  37.729   2.741   7.064
 5271POPC   C4A66978  37.635   2.734   7.364
 5271POPC   C1B66979  37.833   2.542   6.464
 5271POPC   C2B66980  37.832   2.536   6.764
 5271POPC   C3B66981  37.823   2.595   7.064
 5271POPC   C4B66982  37.786   2.589   7.364
 5272POPC   NC366983  43.063   5.837   5.564
 5272POPC   PO466984  43.097   5.868   5.864
 5272POPC   GL166985  43.116   5.875   6.164
 5272POPC   GL266986  42.954   5.845   6.164
 5272POPC   C1A66987  43.074   5.866   6.464
 5272POPC   D2A66988  43.147   5.833   6.764
 5272POPC   C3A66989  43.159   5.869   7.064
 5272POPC   C4A66990  43.072   5.855   7.364
 5272POPC   C1B66991  42.868   5.854   6.464
 5272POPC   C2B66992  42.859   5.904   6.764
 5272POPC   C3B66993  42.817   5.879   7.064
 5272POPC   C4B66994  42.843   5.833   7.364
 5273POPC   NC366995  40.829  16.697   5.564
 5273POPC   PO466996  40.750  16.748   5.864
 5273POPC   GL166997  40.746  16.694   6.164
 5273POPC   GL266998  40.623  16.702   6.164
 5273POPC   C1A66999  40.757  16.779   6.464
 5273POPC   D2A67000  40.747  16.753   6.764
 5273POPC   C3A67001  40.757  16.753   7.064
 5273POPC   C4A67002  40.777  16.775   7.364
 5273POPC   C1B67003  40.555  16.689   6.464
 5273POPC   C2B67004  40.526  16.688   6.764
 5273POPC   C3B67005  40.561  16.715   7.064
 5273POPC   C4B67006  40.512  16.714   7.364
 5274POPC   NC367007  13.657  38.413   5.564
 5274POPC   PO467008  13.645  38.428   5.864
 5274POPC   GL167009  13.580  38.490   6.164
 5274POPC   GL267010  13.777  38.365   6.164
 5274POPC   C1A67011  13.652  38.430   6.464
 5274POPC   D2A67012  13.610  38.474   6.764
 5274POPC   C3A67013  13.593  38.491   7.064
 5274POPC   C4A67014  13.651  38.463   7.364
 5274POPC   C1B67015  13.878  38.382   6.464
 5274POPC   C2B67016  13.872  38.353   6.764
 5274POPC   C3B67017  13.912  38.378   7.064
 5274POPC   C4B67018  13.818  38.363   7.364
 5275POPC   NC367019  26.063  41.586   5.564
 5275POPC   PO467020  25.996  41.589   5.864
 5275POPC   GL167021  26.002  41.542   6.164
 5275POPC   GL267022  26.085  41.423   6.164
 5275POPC   C1A67023  26.058  41.522   6.464
 5275POPC   D2A67024  26.064  41.574   6.764
 5275POPC   C3A67025  26.070  41.572   7.064
 5275POPC   C4A67026  25.992  41.596   7.364
 5275POPC   C1B67027  26.105  41.300   6.464
 5275POPC   C2B67028  26.130  41.296   6.764
 5275POPC   C3B67029  26.116  41.309   7.064
 5275POPC   C4B67030  26.048  41.311   7.364
 5276POPC   NC367031   9.711   1.992   5.564
 5276POPC   PO467032   9.754   2.018   5.864
 5276POPC   GL167033   9.712   1.950   6.164
 5276POPC   GL267034   9.661   1.955   6.164
 5276POPC   C1A67035   9.769   1.945   6.464
 5276POPC   D2A67036   9.726   1.958   6.764
 5276POPC   C3A67037   9.715   1.988   7.064
 5276POPC   C4A67038   9.747   2.038   7.364
 5276POPC   C1B67039   9.531   1.992   6.464
 5276POPC   C2B67040   9.536   2.041   6.764
 5276POPC   C3B67041   9.494   1.995   7.064
 5276POPC   C4B67042   9.490   2.011   7.364
 5277POPC   NC367043  42.321   7.412   5.564
 5277POPC   PO467044  42.290   7.444   5.864
 5277POPC   GL167045  42.302   7.415   6.164
 5277POPC   GL267046  42.195   7.485   6.164
 5277POPC   C1A67047  42.295   7.438   6.464
 5277POPC   D2A67048  42.328   7.423   6.764
 5277POPC   C3A67049  42.304   7.461   7.064
 5277POPC   C4A67050  42.360   7.435   7.364
 5277POPC   C1B67051  42.067   7.556   6.464
 5277POPC   C2B67052  42.062   7.520   6.764
 5277POPC   C3B67053  42.139   7.560   7.064
 5277POPC   C4B67054  42.121   7.555   7.364
 5278POPC   NC367055  20.603   8.150   5.564
 5278POPC   PO467056  20.596   8.147   5.864
 5278POPC   GL167057  20.605   8.230   6.164
 5278POPC   GL267058  20.627   8.054   6.164
 5278POPC   C1A67059  20.576   8.222   6.464
 5278POPC   D2A67060  20.654   8.181   6.764
 5278POPC   C3A67061  20.568   8.162   7.064
 5278POPC   C4A67062  20.656   8.238   7.364
 5278POPC   C1B67063  20.589   7.958   6.464
 5278POPC   C2B67064  20.547   7.965   6.764
 5278POPC   C3B67065  20.565   7.937   7.064
 5278POPC   C4B67066  20.604   7.982   7.364
 5279POPC   NC367067  28.399  28.375   5.564
 5279POPC   PO467068  28.329  28.375   5.864
 5279POPC   GL167069  28.401  28.380   6.164
 5279POPC   GL267070  28.438  28.481   6.164
 5279POPC   C1A67071  28.353  28.376   6.464
 5279POPC   D2A67072  28.386  28.348   6.764
 5279POPC   C3A67073  28.386  28.378   7.064
 5279POPC   C4A67074  28.344  28.396   7.364
 5279POPC   C1B67075  28.461  28.624   6.464
 5279POPC   C2B67076  28.459  28.561   6.764
 5279POPC   C3B67077  28.456  28.643   7.064
 5279POPC   C4B67078  28.464  28.618   7.364
 5280POPC   NC367079   4.273  33.067   5.564
 5280POPC   PO467080   4.349  32.977   5.864
 5280POPC   GL167081   4.275  33.011   6.164
 5280POPC   GL267082   4.324  33.120   6.164
 5280POPC   C1A67083   4.339  32.993   6.464
 5280POPC   D2A67084   4.326  33.067   6.764
 5280POPC   C3A67085   4.294  32.990   7.064
 5280POPC   C4A67086   4.326  32.999   7.364
 5280POPC   C1B67087   4.283  33.242   6.464
 5280POPC   C2B67088   4.238  33.222   6.764
 5280POPC   C3B67089   4.257  33.215   7.064
 5280POPC   C4B67090   4.206  33.248   7.364
 5281POPC   NC367091  17.460   0.456   5.564
 5281POPC   PO467092  17.505   0.445   5.864
 5281POPC   GL167093  17.517   0.422   6.164
 5281POPC   GL267094  17.417   0.357   6.164
 5281POPC   C1A67095  17.484   0.487   6.464
 5281POPC   D2A67096  17.470   0.401   6.764
 5281POPC   C3A67097  17.544   0.443   7.064
 5281POPC   C4A67098  17.529   0.451   7.364
 5281POPC   C1B67099  17.339   0.221   6.464
 5281POPC   C2B67100  17.309   0.240   6.764
 5281POPC   C3B67101  17.305   0.220   7.064
 5281POPC   C4B67102  17.364   0.250   7.364
 5282POPC   NC367103   5.120  35.369   5.564
 5282POPC   PO467104   5.131  35.395   5.864
 5282POPC   GL167105   5.117  35.307   6.164
 5282POPC   GL267106   4.992  35.314   6.164
 5282POPC   C1A67107   5.127  35.321   6.464
 5282POPC   D2A67108   5.076  35.344   6.764
 5282POPC   C3A67109   5.121  35.351   7.064
 5282POPC   C4A67110   5.137  35.341   7.364
 5282POPC   C1B67111   4.908  35.220   6.464
 5282POPC   C2B67112   4.870  35.142   6.764
 5282POPC   C3B67113   4.910  35.177   7.064
 5282POPC   C4B67114   4.954  35.157   7.364
 5283POPC   NC367115   1.230  26.831   5.564
 5283POPC   PO467116   1.183  26.797   5.864
 5283POPC   GL167117   1.199  26.852   6.164
 5283POPC   GL267118   1.067  26.701   6.164
 5283POPC   C1A67119   1.197  26.833   6.464
 5283POPC   D2A67120   1.222  26.863   6.764
 5283POPC   C3A67121   1.260  26.824   7.064
 5283POPC   C4A67122   1.236  26.768   7.364
 5283POPC   C1B67123   0.977  26.613   6.464
 5283POPC   C2B67124   0.990  26.646   6.764
 5283POPC   C3B67125   1.057  26.650   7.064
 5283POPC   C4B67126   1.021  26.678   7.364
 5284POPC   NC367127  12.809  15.923   5.564
 5284POPC   PO467128  12.874  15.994   5.864
 5284POPC   GL167129  12.884  15.990   6.164
 5284POPC   GL267130  12.794  16.101   6.164
 5284POPC   C1A67131  12.890  15.909   6.464
 5284POPC   D2A67132  12.865  15.937   6.764
 5284POPC   C3A67133  12.833  15.952   7.064
 5284POPC   C4A67134  12.888  15.996   7.364
 5284POPC   C1B67135  12.745  16.203   6.464
 5284POPC   C2B67136  12.707  16.147   6.764
 5284POPC   C3B67137  12.706  16.122   7.064
 5284POPC   C4B67138  12.730  16.181   7.364
 5285POPC   NC367139  32.256  15.909   5.564
 5285POPC   PO467140  32.256  15.961   5.864
 5285POPC   GL167141  32.247  15.993   6.164
 5285POPC   GL267142  32.173  16.041   6.164
 5285POPC   C1A67143  32.267  15.956   6.464
 5285POPC   D2A67144  32.267  15.923   6.764
 5285POPC   C3A67145  32.238  15.972   7.064
 5285POPC   C4A67146  32.215  15.944   7.364
 5285POPC   C1B67147  32.069  16.125   6.464
 5285POPC   C2B67148  32.090  16.189   6.764
 5285POPC   C3B67149  32.164  16.179   7.064
 5285POPC   C4B67150  32.106  16.166   7.364
 5286POPC   NC367151  24.516  42.369   5.564
 5286POPC   PO467152  24.538  42.378   5.864
 5286POPC   GL167153  24.534  42.376   6.164
 5286POPC   GL267154  24.574  42.261   6.164
 5286POPC   C1A67155  24.457  42.384   6.464
 5286POPC   D2A67156  24.452  42.358   6.764
 5286POPC   C3A67157  24.533  42.327   7.064
 5286POPC   C4A67158  24.473  42.291   7.364
 5286POPC   C1B67159  24.719  42.250   6.464
 5286POPC   C2B67160  24.701  42.298   6.764
 5286POPC   C3B67161  24.683  42.286   7.064
 5286POPC   C4B67162  24.779  42.264   7.364
 5287POPC   NC367163  31.435  39.959   5.564
 5287POPC   PO467164  31.476  39.983   5.864
 5287POPC   GL167165  31.433  39.957   6.164
 5287POPC   GL267166  31.414  40.165   6.164
 5287POPC   C1A67167  31.449  40.035   6.464
 5287POPC   D2A67168  31.492  40.019   6.764
 5287POPC   C3A67169  31.522  39.970   7.064
 5287POPC   C4A67170  31.437  40.018   7.364
 5287POPC   C1B67171  31.442  40.245   6.464
 5287POPC   C2B67172  31.404  40.303   6.764
 5287POPC   C3B67173  31.459  40.274   7.064
 5287POPC   C4B67174  31.454  40.237   7.364
 5288POPC   NC367175  19.838   3.512   5.564
 5288POPC   PO467176  19.796   3.528   5.864
 5288POPC   GL167177  19.823   3.536   6.164
 5288POPC   GL267178  19.794   3.431   6.164
 5288POPC   C1A67179  19.867   3.524   6.464
 5288POPC   D2A67180  19.788   3.569   6.764
 5288POPC   C3A67181  19.858   3.579   7.064
 5288POPC   C4A67182  19.809   3.561   7.364
 5288POPC   C1B67183  19.813   3.341   6.464
 5288POPC   C2B67184  19.857   3.254   6.764
 5288POPC   C3B67185  19.834   3.253   7.064
 5288POPC   C4B67186  19.850   3.271   7.364
 5289POPC   NC367187  43.909  32.271   5.564
 5289POPC   PO467188  43.872  32.203   5.864
 5289POPC   GL167189  43.861  32.239   6.164
 5289POPC   GL267190  43.940  32.123   6.164
 5289POPC   C1A67191  43.894  32.267   6.464
 5289POPC   D2A67192  43.876  32.230   6.764
 5289POPC   C3A67193  43.895  32.240   7.064
 5289POPC   C4A67194  43.926  32.221   7.364
 5289POPC   C1B67195  43.956  31.994   6.464
 5289POPC   C2B67196  43.968  32.010   6.764
 5289POPC   C3B67197  43.940  32.034   7.064
 5289POPC   C4B67198  43.947  32.034   7.364
 5290POPC   NC367199   6.674   5.827   5.564
 5290POPC   PO467200   6.600   5.919   5.864
 5290POPC   GL167201   6.690   5.899   6.164
 5290POPC   GL267202   6.559   5.805   6.164
 5290POPC   C1A67203   6.655   5.872   6.464
 5290POPC   D2A67204   6.670   5.822   6.764
 5290POPC   C3A67205   6.689   5.907   7.064
 5290POPC   C4A67206   6.661   5.886   7.364
 5290POPC   C1B67207   6.488   5.660   6.464
 5290POPC   C2B67208   6.502   5.650   6.764
 5290POPC   C3B67209   6.544   5.680   7.064
 5290POPC   C4B67210   6.548   5.676   7.364
 5291POPC   NC367211  35.331   1.215   5.564
 5291POPC   PO467212  35.359   1.173   5.864
 5291POPC   GL167213  35.319   1.225   6.164
 5291POPC   GL267214  35.316   1.082   6.164
 5291POPC   C1A67215  35.400   1.210   6.464
 5291POPC   D2A67216  35.315   1.224   6.764
 5291POPC   C3A67217  35.302   1.184   7.064
 5291POPC   C4A67218  35.309   1.205   7.364
 5291POPC   C1B67219  35.236   1.025   6.464
 5291POPC   C2B67220  35.229   1.055   6.764
 5291POPC   C3B67221  35.150   1.060   7.064
 5291POPC   C4B67222  35.239   1.041   7.364
 5292POPC   NC367223  22.988  36.942   5.564
 5292POPC   PO467224  22.908  36.949   5.864
 5292POPC   GL167225  22.952  36.897   6.164
 5292POPC   GL267226  23.027  36.989   6.164
 5292POPC   C1A67227  22.925  36.854   6.464
 5292POPC   D2A67228  22.956  36.869   6.764
 5292POPC   C3A67229  22.902  36.919   7.064
 5292POPC   C4A67230  22.981  36.924   7.364
 5292POPC   C1B67231  23.059  37.135   6.464
 5292POPC   C2B67232  23.051  37.078   6.764
 5292POPC   C3B67233  23.019  37.144   7.064
 5292POPC   C4B67234  23.038  37.136   7.364
 5293POPC   NC367235  33.767  17.479   5.564
 5293POPC   PO467236  33.792  17.488   5.864
 5293POPC   GL167237  33.805  17.517   6.164
 5293POPC   GL267238  33.732  17.543   6.164
 5293POPC   C1A67239  33.780  17.488   6.464
 5293POPC   D2A67240  33.846  17.518   6.764
 5293POPC   C3A67241  33.773  17.489   7.064
 5293POPC   C4A67242  33.837  17.533   7.364
 5293POPC   C1B67243  33.553  17.651   6.464
 5293POPC   C2B67244  33.616  17.641   6.764
 5293POPC   C3B67245  33.566  17.577   7.064
 5293POPC   C4B67246  33.583  17.628   7.364
 5294POPC   NC367247  34.593  37.717   5.564
 5294POPC   PO467248  34.623  37.678   5.864
 5294POPC   GL167249  34.595  37.689   6.164
 5294POPC   GL267250  34.700  37.580   6.164
 5294POPC   C1A67251  34.558  37.692   6.464
 5294POPC   D2A67252  34.572  37.636   6.764
 5294POPC   C3A67253  34.615  37.725   7.064
 5294POPC   C4A67254  34.593  37.689   7.364
 5294POPC   C1B67255  34.696  37.478   6.464
 5294POPC   C2B67256  34.770  37.470   6.764
 5294POPC   C3B67257  34.700  37.482   7.064
 5294POPC   C4B67258  34.782  37.504   7.364
 5295POPC   NC367259  37.713  29.956   5.564
 5295POPC   PO467260  37.714  29.965   5.864
 5295POPC   GL167261  37.680  29.952   6.164
 5295POPC   GL267262  37.767  29.994   6.164
 5295POPC   C1A67263  37.718  29.946   6.464
 5295POPC   D2A67264  37.669  29.912   6.764
 5295POPC   C3A67265  37.674  29.889   7.064
 5295POPC   C4A67266  37.670  29.968   7.364
 5295POPC   C1B67267  37.918  30.009   6.464
 5295POPC   C2B67268  37.932  30.005   6.764
 5295POPC   C3B67269  37.907  29.976   7.064
 5295POPC   C4B67270  37.921  30.018   7.364
 5296POPC   NC367271  42.380   5.116   5.564
 5296POPC   PO467272  42.299   5.053   5.864
 5296POPC   GL167273  42.376   5.140   6.164
 5296POPC   GL267274  42.217   5.186   6.164
 5296POPC   C1A67275  42.324   5.056   6.464
 5296POPC   D2A67276  42.324   5.098   6.764
 5296POPC   C3A67277  42.374   5.107   7.064
 5296POPC   C4A67278  42.352   5.065   7.364
 5296POPC   C1B67279  42.133   5.322   6.464
 5296POPC   C2B67280  42.224   5.268   6.764
 5296POPC   C3B67281  42.140   5.253   7.064
 5296POPC   C4B67282  42.217   5.333   7.364
 5297POPC   NC367283  21.364   7.395   5.564
 5297POPC   PO467284  21.368   7.373   5.864
 5297POPC   GL167285  21.400   7.407   6.164
 5297POPC   GL267286  21.387   7.322   6.164
 5297POPC   C1A67287  21.364   7.422   6.464
 5297POPC   D2A67288  21.432   7.375   6.764
 5297POPC   C3A67289  21.368   7.416   7.064
 5297POPC   C4A67290  21.346   7.460   7.364
 5297POPC   C1B67291  21.335   7.124   6.464
 5297POPC   C2B67292  21.318   7.210   6.764
 5297POPC   C3B67293  21.369   7.202   7.064
 5297POPC   C4B67294  21.399   7.175   7.364
 5298POPC   NC367295  33.831   1.212   5.564
 5298POPC   PO467296  33.753   1.258   5.864
 5298POPC   GL167297  33.819   1.196   6.164
 5298POPC   GL267298  33.746   1.258   6.164
 5298POPC   C1A67299  33.798   1.186   6.464
 5298POPC   D2A67300  33.788   1.250   6.764
 5298POPC   C3A67301  33.804   1.256   7.064
 5298POPC   C4A67302  33.821   1.191   7.364
 5298POPC   C1B67303  33.677   1.375   6.464
 5298POPC   C2B67304  33.597   1.354   6.764
 5298POPC   C3B67305  33.666   1.366   7.064
 5298POPC   C4B67306  33.606   1.444   7.364
 5299POPC   NC367307   5.883   2.755   5.564
 5299POPC   PO467308   5.858   2.753   5.864
 5299POPC   GL167309   5.874   2.768   6.164
 5299POPC   GL267310   5.769   2.846   6.164
 5299POPC   C1A67311   5.825   2.746   6.464
 5299POPC   D2A67312   5.865   2.731   6.764
 5299POPC   C3A67313   5.918   2.807   7.064
 5299POPC   C4A67314   5.847   2.749   7.364
 5299POPC   C1B67315   5.666   2.843   6.464
 5299POPC   C2B67316   5.620   2.897   6.764
 5299POPC   C3B67317   5.606   2.845   7.064
 5299POPC   C4B67318   5.631   2.835   7.364
 5300POPC   NC367319   5.088  11.321   5.564
 5300POPC   PO467320   5.140  11.326   5.864
 5300POPC   GL167321   5.094  11.333   6.164
 5300POPC   GL267322   5.208  11.321   6.164
 5300POPC   C1A67323   5.135  11.315   6.464
 5300POPC   D2A67324   5.106  11.299   6.764
 5300POPC   C3A67325   5.066  11.253   7.064
 5300POPC   C4A67326   5.045  11.263   7.364
 5300POPC   C1B67327   5.381  11.318   6.464
 5300POPC   C2B67328   5.301  11.402   6.764
 5300POPC   C3B67329   5.288  11.317   7.064
 5300POPC   C4B67330   5.346  11.315   7.364
 5301POPC   NC367331  19.870  26.030   5.564
 5301POPC   PO467332  19.839  25.999   5.864
 5301POPC   GL167333  19.851  25.997   6.164
 5301POPC   GL267334  19.921  26.098   6.164
 5301POPC   C1A67335  19.806  26.052   6.464
 5301POPC   D2A67336  19.799  26.061   6.764
 5301POPC   C3A67337  19.882  26.083   7.064
 5301POPC   C4A67338  19.863  26.008   7.364
 5301POPC   C1B67339  20.027  26.176   6.464
 5301POPC   C2B67340  20.068  26.133   6.764
 5301POPC   C3B67341  20.026  26.208   7.064
 5301POPC   C4B67342  20.094  26.167   7.364
 5302POPC   NC367343  36.141  32.286   5.564
 5302POPC   PO467344  36.175  32.244   5.864
 5302POPC   GL167345  36.122  32.231   6.164
 5302POPC   GL267346  36.291  32.164   6.164
 5302POPC   C1A67347  36.122  32.238   6.464
 5302POPC   D2A67348  36.089  32.289   6.764
 5302POPC   C3A67349  36.174  32.204   7.064
 5302POPC   C4A67350  36.137  32.281   7.364
 5302POPC   C1B67351  36.405  32.116   6.464
 5302POPC   C2B67352  36.386  32.162   6.764
 5302POPC   C3B67353  36.330  32.127   7.064
 5302POPC   C4B67354  36.404  32.211   7.364
 5303POPC   NC367355  17.468  38.406   5.564
 5303POPC   PO467356  17.521  38.445   5.864
 5303POPC   GL167357  17.466  38.412   6.164
 5303POPC   GL267358  17.597  38.410   6.164
 5303POPC   C1A67359  17.523  38.414   6.464
 5303POPC   D2A67360  17.518  38.493   6.764
 5303POPC   C3A67361  17.483  38.464   7.064
 5303POPC   C4A67362  17.490  38.483   7.364
 5303POPC   C1B67363  17.707  38.402   6.464
 5303POPC   C2B67364  17.743  38.456   6.764
 5303POPC   C3B67365  17.749  38.418   7.064
 5303POPC   C4B67366  17.782  38.477   7.364
 5304POPC   NC367367  29.944  25.248   5.564
 5304POPC   PO467368  29.942  25.256   5.864
 5304POPC   GL167369  29.938  25.303   6.164
 5304POPC   GL267370  29.896  25.168   6.164
 5304POPC   C1A67371  29.965  25.259   6.464
 5304POPC   D2A67372  29.887  25.298   6.764
 5304POPC   C3A67373  29.887  25.307   7.064
 5304POPC   C4A67374  29.963  25.218   7.364
 5304POPC   C1B67375  29.834  25.089   6.464
 5304POPC   C2B67376  29.810  25.082   6.764
 5304POPC   C3B67377  29.767  25.047   7.064
 5304POPC   C4B67378  29.789  25.029   7.364
 5305POPC   NC367379   8.216  16.774   5.564
 5305POPC   PO467380   8.239  16.741   5.864
 5305POPC   GL167381   8.214  16.697   6.164
 5305POPC   GL267382   8.061  16.807   6.164
 5305POPC   C1A67383   8.183  16.781   6.464
 5305POPC   D2A67384   8.220  16.750   6.764
 5305POPC   C3A67385   8.246  16.741   7.064
 5305POPC   C4A67386   8.171  16.770   7.364
 5305POPC   C1B67387   7.937  16.825   6.464
 5305POPC   C2B67388   7.971  16.771   6.764
 5305POPC   C3B67389   7.976  16.842   7.064
 5305POPC   C4B67390   7.987  16.822   7.364
 5306POPC   NC367391  34.597  11.281   5.564
 5306POPC   PO467392  34.557  11.276   5.864
 5306POPC   GL167393  34.531  11.332   6.164
 5306POPC   GL267394  34.524  11.430   6.164
 5306POPC   C1A67395  34.552  11.321   6.464
 5306POPC   D2A67396  34.545  11.299   6.764
 5306POPC   C3A67397  34.542  11.279   7.064
 5306POPC   C4A67398  34.529  11.265   7.364
 5306POPC   C1B67399  34.513  11.573   6.464
 5306POPC   C2B67400  34.497  11.523   6.764
 5306POPC   C3B67401  34.433  11.526   7.064
 5306POPC   C4B67402  34.498  11.497   7.364
 5307POPC   NC367403   5.863  21.376   5.564
 5307POPC   PO467404   5.837  21.398   5.864
 5307POPC   GL167405   5.820  21.388   6.164
 5307POPC   GL267406   5.953  21.237   6.164
 5307POPC   C1A67407   5.839  21.391   6.464
 5307POPC   D2A67408   5.873  21.431   6.764
 5307POPC   C3A67409   5.876  21.344   7.064
 5307POPC   C4A67410   5.916  21.405   7.364
 5307POPC   C1B67411   5.985  21.183   6.464
 5307POPC   C2B67412   5.957  21.208   6.764
 5307POPC   C3B67413   5.966  21.156   7.064
 5307POPC   C4B67414   5.962  21.137   7.364
 5308POPC   NC367415  21.388  42.326   5.564
 5308POPC   PO467416  21.358  42.341   5.864
 5308POPC   GL167417  21.379  42.312   6.164
 5308POPC   GL267418  21.492  42.271   6.164
 5308POPC   C1A67419  21.374  42.333   6.464
 5308POPC   D2A67420  21.343  42.355   6.764
 5308POPC   C3A67421  21.341  42.372   7.064
 5308POPC   C4A67422  21.416  42.373   7.364
 5308POPC   C1B67423  21.544  42.158   6.464
 5308POPC   C2B67424  21.542  42.188   6.764
 5308POPC   C3B67425  21.543  42.160   7.064
 5308POPC   C4B67426  21.572  42.136   7.364
 5309POPC   NC367427   7.449  36.871   5.564
 5309POPC   PO467428   7.384  36.882   5.864
 5309POPC   GL167429   7.401  36.923   6.164
 5309POPC   GL267430   7.412  36.982   6.164
 5309POPC   C1A67431   7.464  36.937   6.464
 5309POPC   D2A67432   7.448  36.900   6.764
 5309POPC   C3A67433   7.466  36.892   7.064
 5309POPC   C4A67434   7.399  36.908   7.364
 5309POPC   C1B67435   7.431  37.196   6.464
 5309POPC   C2B67436   7.339  37.198   6.764
 5309POPC   C3B67437   7.424  37.175   7.064
 5309POPC   C4B67438   7.392  37.128   7.364
 5310POPC   NC367439  12.811  41.531   5.564
 5310POPC   PO467440  12.832  41.528   5.864
 5310POPC   GL167441  12.842  41.555   6.164
 5310POPC   GL267442  12.792  41.437   6.164
 5310POPC   C1A67443  12.853  41.602   6.464
 5310POPC   D2A67444  12.803  41.568   6.764
 5310POPC   C3A67445  12.834  41.514   7.064
 5310POPC   C4A67446  12.812  41.598   7.364
 5310POPC   C1B67447  12.795  41.343   6.464
 5310POPC   C2B67448  12.867  41.342   6.764
 5310POPC   C3B67449  12.782  41.325   7.064
 5310POPC   C4B67450  12.777  41.261   7.364
 5311POPC   NC367451   1.208  12.115   5.564
 5311POPC   PO467452   1.207  12.048   5.864
 5311POPC   GL167453   1.256  12.069   6.164
 5311POPC   GL267454   1.101  11.997   6.164
 5311POPC   C1A67455   1.224  12.041   6.464
 5311POPC   D2A67456   1.222  12.115   6.764
 5311POPC   C3A67457   1.227  12.041   7.064
 5311POPC   C4A67458   1.247  12.031   7.364
 5311POPC   C1B67459   0.978  11.979   6.464
 5311POPC   C2B67460   0.981  12.035   6.764
 5311POPC   C3B67461   1.010  11.955   7.064
 5311POPC   C4B67462   0.934  11.945   7.364
 5312POPC   NC367463  40.801   7.433   5.564
 5312POPC   PO467464  40.780   7.408   5.864
 5312POPC   GL167465  40.799   7.392   6.164
 5312POPC   GL267466  40.857   7.335   6.164
 5312POPC   C1A67467  40.788   7.443   6.464
 5312POPC   D2A67468  40.791   7.396   6.764
 5312POPC   C3A67469  40.774   7.396   7.064
 5312POPC   C4A67470  40.802   7.394   7.364
 5312POPC   C1B67471  40.829   7.211   6.464
 5312POPC   C2B67472  40.909   7.201   6.764
 5312POPC   C3B67473  40.889   7.170   7.064
 5312POPC   C4B67474  40.875   7.215   7.364
 5313POPC   NC367475  40.773  31.432   5.564
 5313POPC   PO467476  40.810  31.429   5.864
 5313POPC   GL167477  40.832  31.494   6.164
 5313POPC   GL267478  40.694  31.400   6.164
 5313POPC   C1A67479  40.819  31.477   6.464
 5313POPC   D2A67480  40.746  31.489   6.764
 5313POPC   C3A67481  40.784  31.466   7.064
 5313POPC   C4A67482  40.762  31.502   7.364
 5313POPC   C1B67483  40.636  31.303   6.464
 5313POPC   C2B67484  40.603  31.263   6.764
 5313POPC   C3B67485  40.612  31.290   7.064
 5313POPC   C4B67486  40.690  31.277   7.364
 5314POPC   NC367487  17.487  16.765   5.564
 5314POPC   PO467488  17.545  16.699   5.864
 5314POPC   GL167489  17.461  16.702   6.164
 5314POPC   GL267490  17.394  16.673   6.164
 5314POPC   C1A67491  17.473  16.735   6.464
 5314POPC   D2A67492  17.500  16.699   6.764
 5314POPC   C3A67493  17.489  16.744   7.064
 5314POPC   C4A67494  17.476  16.709   7.364
 5314POPC   C1B67495  17.227  16.621   6.464
 5314POPC   C2B67496  17.297  16.688   6.764
 5314POPC   C3B67497  17.301  16.646   7.064
 5314POPC   C4B67498  17.304  16.664   7.364
 5315POPC   NC367499  41.559  22.159   5.564
 5315POPC   PO467500  41.554  22.178   5.864
 5315POPC   GL167501  41.510  22.113   6.164
 5315POPC   GL267502  41.446  22.028   6.164
 5315POPC   C1A67503  41.532  22.200   6.464
 5315POPC   D2A67504  41.606  22.141   6.764
 5315POPC   C3A67505  41.564  22.194   7.064
 5315POPC   C4A67506  41.555  22.167   7.364
 5315POPC   C1B67507  41.408  21.973   6.464
 5315POPC   C2B67508  41.405  21.942   6.764
 5315POPC   C3B67509  41.435  21.971   7.064
 5315POPC   C4B67510  41.356  21.981   7.364
 5316POPC   NC367511  14.437  22.891   5.564
 5316POPC   PO467512  14.362  22.924   5.864
 5316POPC   GL167513  14.363  22.950   6.164
 5316POPC   GL267514  14.360  23.003   6.164
 5316POPC   C1A67515  14.409  22.900   6.464
 5316POPC   D2A67516  14.427  22.916   6.764
 5316POPC   C3A67517  14.375  22.890   7.064
 5316POPC   C4A67518  14.394  22.948   7.364
 5316POPC   C1B67519  14.243  23.167   6.464
 5316POPC   C2B67520  14.321  23.141   6.764
 5316POPC   C3B67521  14.290  23.136   7.064
 5316POPC   C4B67522  14.243  23.169   7.364
 5317POPC   NC367523  43.886  33.042   5.564
 5317POPC   PO467524  43.844  33.058   5.864
 5317POPC   GL167525  43.845  33.020   6.164
 5317POPC   GL267526  43.798  33.117   6.164
 5317POPC   C1A67527  43.901  33.071   6.464
 5317POPC   D2A67528  43.885  32.987   6.764
 5317POPC   C3A67529  43.929  33.068   7.064
 5317POPC   C4A67530  43.864  33.036   7.364
 5317POPC   C1B67531  43.687  33.209   6.464
 5317POPC   C2B67532  43.718  33.172   6.764
 5317POPC   C3B67533  43.717  33.239   7.064
 5317POPC   C4B67534  43.705  33.219   7.364
 5318POPC   NC367535   0.392  23.675   5.564
 5318POPC   PO467536   0.475  23.702   5.864
 5318POPC   GL167537   0.433  23.747   6.164
 5318POPC   GL267538   0.352  23.645   6.164
 5318POPC   C1A67539   0.408  23.681   6.464
 5318POPC   D2A67540   0.391  23.750   6.764
 5318POPC   C3A67541   0.433  23.763   7.064
 5318POPC   C4A67542   0.469  23.706   7.364
 5318POPC   C1B67543   0.161  23.677   6.464
 5318POPC   C2B67544   0.198  23.678   6.764
 5318POPC   C3B67545   0.225  23.679   7.064
 5318POPC   C4B67546   0.180  23.619   7.364
 5319POPC   NC367547  28.354   3.577   5.564
 5319POPC   PO467548  28.393   3.555   5.864
 5319POPC   GL167549  28.388   3.497   6.164
 5319POPC   GL267550  28.231   3.432   6.164
 5319POPC   C1A67551  28.369   3.549   6.464
 5319POPC   D2A67552  28.409   3.589   6.764
 5319POPC   C3A67553  28.382   3.563   7.064
 5319POPC   C4A67554  28.325   3.496   7.364
 5319POPC   C1B67555  28.181   3.379   6.464
 5319POPC   C2B67556  28.131   3.431   6.764
 5319POPC   C3B67557  28.165   3.450   7.064
 5319POPC   C4B67558  28.189   3.380   7.364
 5320POPC   NC367559  43.141  28.328   5.564
 5320POPC   PO467560  43.111  28.412   5.864
 5320POPC   GL167561  43.063  28.385   6.164
 5320POPC   GL267562  43.124  28.472   6.164
 5320POPC   C1A67563  43.111  28.359   6.464
 5320POPC   D2A67564  43.158  28.320   6.764
 5320POPC   C3A67565  43.125  28.333   7.064
 5320POPC   C4A67566  43.087  28.376   7.364
 5320POPC   C1B67567  43.069  28.573   6.464
 5320POPC   C2B67568  43.145  28.573   6.764
 5320POPC   C3B67569  43.075  28.646   7.064
 5320POPC   C4B67570  43.140  28.587   7.364
 5321POPC   NC367571  39.993   0.467   5.564
 5321POPC   PO467572  39.969   0.459   5.864
 5321POPC   GL167573  39.969   0.482   6.164
 5321POPC   GL267574  39.913   0.342   6.164
 5321POPC   C1A67575  39.992   0.388   6.464
 5321POPC   D2A67576  40.027   0.393   6.764
 5321POPC   C3A67577  39.979   0.421   7.064
 5321POPC   C4A67578  39.981   0.465   7.364
 5321POPC   C1B67579  39.815   0.292   6.464
 5321POPC   C2B67580  39.822   0.250   6.764
 5321POPC   C3B67581  39.763   0.276   7.064
 5321POPC   C4B67582  39.852   0.329   7.364
 5322POPC   NC367583  30.699  37.698   5.564
 5322POPC   PO467584  30.689  37.649   5.864
 5322POPC   GL167585  30.652  37.682   6.164
 5322POPC   GL267586  30.643  37.606   6.164
 5322POPC   C1A67587  30.719  37.703   6.464
 5322POPC   D2A67588  30.699  37.649   6.764
 5322POPC   C3A67589  30.654  37.642   7.064
 5322POPC   C4A67590  30.695  37.664   7.364
 5322POPC   C1B67591  30.512  37.507   6.464
 5322POPC   C2B67592  30.551  37.530   6.764
 5322POPC   C3B67593  30.503  37.457   7.064
 5322POPC   C4B67594  30.559  37.470   7.364
 5323POPC   NC367595  22.950  33.039   5.564
 5323POPC   PO467596  22.894  33.062   5.864
 5323POPC   GL167597  22.899  33.023   6.164
 5323POPC   GL267598  23.086  33.081   6.164
 5323POPC   C1A67599  22.975  33.022   6.464
 5323POPC   D2A67600  22.935  33.072   6.764
 5323POPC   C3A67601  22.918  33.044   7.064
 5323POPC   C4A67602  22.911  33.042   7.364
 5323POPC   C1B67603  23.198  33.201   6.464
 5323POPC   C2B67604  23.190  33.141   6.764
 5323POPC   C3B67605  23.152  33.133   7.064
 5323POPC   C4B67606  23.162  33.159   7.364
 5324POPC   NC367607  20.618   1.254   5.564
 5324POPC   PO467608  20.587   1.187   5.864
 5324POPC   GL167609  20.645   1.231   6.164
 5324POPC   GL267610  20.598   1.064   6.164
 5324POPC   C1A67611  20.567   1.240   6.464
 5324POPC   D2A67612  20.607   1.246   6.764
 5324POPC   C3A67613  20.575   1.179   7.064
 5324POPC   C4A67614  20.595   1.198   7.364
 5324POPC   C1B67615  20.524   1.032   6.464
 5324POPC   C2B67616  20.463   0.987   6.764
 5324POPC   C3B67617  20.511   0.973   7.064
 5324POPC   C4B67618  20.522   0.992   7.364
 5325POPC   NC367619  41.517  29.935   5.564
 5325POPC   PO467620  41.560  29.896   5.864
 5325POPC   GL167621  41.527  29.888   6.164
 5325POPC   GL267622  41.598  30.032   6.164
 5325POPC   C1A67623  41.533  29.871   6.464
 5325POPC   D2A67624  41.511  29.936   6.764
 5325POPC   C3A67625  41.591  29.967   7.064
 5325POPC   C4A67626  41.598  29.944   7.364
 5325POPC   C1B67627  41.610  30.168   6.464
 5325POPC   C2B67628  41.636  30.195   6.764
 5325POPC   C3B67629  41.614  30.124   7.064
 5325POPC   C4B67630  41.631  30.114   7.364
 5326POPC   NC367631  33.066  11.340   5.564
 5326POPC   PO467632  32.997  11.271   5.864
 5326POPC   GL167633  33.059  11.316   6.164
 5326POPC   GL267634  32.946  11.311   6.164
 5326POPC   C1A67635  32.981  11.265   6.464
 5326POPC   D2A67636  33.048  11.257   6.764
 5326POPC   C3A67637  33.048  11.294   7.064
 5326POPC   C4A67638  33.043  11.310   7.364
 5326POPC   C1B67639  32.823  11.377   6.464
 5326POPC   C2B67640  32.848  11.379   6.764
 5326POPC   C3B67641  32.790  11.398   7.064
 5326POPC   C4B67642  32.836  11.404   7.364
 5327POPC   NC367643  12.041  26.795   5.564
 5327POPC   PO467644  12.027  26.849   5.864
 5327POPC   GL167645  12.038  26.802   6.164
 5327POPC   GL267646  11.953  26.764   6.164
 5327POPC   C1A67647  12.092  26.820   6.464
 5327POPC   D2A67648  12.101  26.851   6.764
 5327POPC   C3A67649  12.098  26.798   7.064
 5327POPC   C4A67650  12.037  26.801   7.364
 5327POPC   C1B67651  11.888  26.652   6.464
 5327POPC   C2B67652  11.808  26.728   6.764
 5327POPC   C3B67653  11.832  26.730   7.064
 5327POPC   C4B67654  11.870  26.666   7.364
 5328POPC   NC367655  19.065   0.430   5.564
 5328POPC   PO467656  19.024   0.465   5.864
 5328POPC   GL167657  19.027   0.422   6.164
 5328POPC   GL267658  19.160   0.501   6.164
 5328POPC   C1A67659  19.105   0.422   6.464
 5328POPC   D2A67660  19.019   0.438   6.764
 5328POPC   C3A67661  19.041   0.423   7.064
 5328POPC   C4A67662  19.032   0.480   7.364
 5328POPC   C1B67663  19.305   0.482   6.464
 5328POPC   C2B67664  19.297   0.478   6.764
 5328POPC   C3B67665  19.269   0.491   7.064
 5328POPC   C4B67666  19.332   0.550   7.364
 5329POPC   NC367667   2.751  15.969   5.564
 5329POPC   PO467668   2.799  15.945   5.864
 5329POPC   GL167669   2.782  15.966   6.164
 5329POPC   GL267670   2.904  15.986   6.164
 5329POPC   C1A67671   2.787  15.928   6.464
 5329POPC   D2A67672   2.753  15.929   6.764
 5329POPC   C3A67673   2.791  15.954   7.064
 5329POPC   C4A67674   2.735  15.916   7.364
 5329POPC   C1B67675   3.039  15.973   6.464
 5329POPC   C2B67676   2.974  15.960   6.764
 5329POPC   C3B67677   2.977  16.029   7.064
 5329POPC   C4B67678   2.990  15.967   7.364
 5330POPC   NC367679  19.814  36.859   5.564
 5330POPC   PO467680  19.802  36.864   5.864
 5330POPC   GL167681  19.881  36.896   6.164
 5330POPC   GL267682  19.945  37.010   6.164
 5330POPC   C1A67683  19.819  36.862   6.464
 5330POPC   D2A67684  19.845  36.943   6.764
 5330POPC   C3A67685  19.789  36.953   7.064
 5330POPC   C4A67686  19.862  36.868   7.364
 5330POPC   C1B67687  19.980  37.080   6.464
 5330POPC   C2B67688  19.983  37.152   6.764
 5330POPC   C3B67689  20.004  37.131   7.064
 5330POPC   C4B67690  19.950  37.078   7.364
 5331POPC   NC367691  19.012  17.481   5.564
 5331POPC   PO467692  19.105  17.487   5.864
 5331POPC   GL167693  19.045  17.553   6.164
 5331POPC   GL267694  19.128  17.592   6.164
 5331POPC   C1A67695  19.066  17.525   6.464
 5331POPC   D2A67696  19.070  17.530   6.764
 5331POPC   C3A67697  19.013  17.487   7.064
 5331POPC   C4A67698  19.091  17.508   7.364
 5331POPC   C1B67699  19.208  17.674   6.464
 5331POPC   C2B67700  19.209  17.687   6.764
 5331POPC   C3B67701  19.206  17.646   7.064
 5331POPC   C4B67702  19.229  17.626   7.364
 5332POPC   NC367703  40.785  44.616   5.564
 5332POPC   PO467704  40.746  44.661   5.864
 5332POPC   GL167705  40.737  44.612   6.164
 5332POPC   GL267706  40.907  44.739   6.164
 5332POPC   C1A67707  40.788  44.658   6.464
 5332POPC   D2A67708  40.825  44.660   6.764
 5332POPC   C3A67709  40.786  44.712   7.064
 5332POPC   C4A67710  40.822  44.692   7.364
 5332POPC   C1B67711  41.047  44.780   6.464
 5332POPC   C2B67712  40.959  44.744   6.764
 5332POPC   C3B67713  41.013  44.819   7.064
 5332POPC   C4B67714  41.003  44.781   7.364
 5333POPC   NC367715  15.963   2.748   5.564
 5333POPC   PO467716  15.963   2.790   5.864
 5333POPC   GL167717  15.967   2.750   6.164
 5333POPC   GL267718  15.805   2.751   6.164
 5333POPC   C1A67719  15.965   2.766   6.464
 5333POPC   D2A67720  15.979   2.721   6.764
 5333POPC   C3A67721  15.909   2.807   7.064
 5333POPC   C4A67722  15.963   2.781   7.364
 5333POPC   C1B67723  15.668   2.850   6.464
 5333POPC   C2B67724  15.663   2.813   6.764
 5333POPC   C3B67725  15.683   2.807   7.064
 5333POPC   C4B67726  15.724   2.863   7.364
 5334POPC   NC367727  29.906  31.432   5.564
 5334POPC   PO467728  29.934  31.431   5.864
 5334POPC   GL167729  29.882  31.432   6.164
 5334POPC   GL267730  29.904  31.627   6.164
 5334POPC   C1A67731  29.940  31.471   6.464
 5334POPC   D2A67732  29.918  31.493   6.764
 5334POPC   C3A67733  29.930  31.481   7.064
 5334POPC   C4A67734  29.944  31.490   7.364
 5334POPC   C1B67735  29.908  31.741   6.464
 5334POPC   C2B67736  29.869  31.677   6.764
 5334POPC   C3B67737  29.878  31.675   7.064
 5334POPC   C4B67738  29.894  31.688   7.364
 5335POPC   NC367739  18.285  24.514   5.564
 5335POPC   PO467740  18.258  24.534   5.864
 5335POPC   GL167741  18.312  24.447   6.164
 5335POPC   GL267742  18.455  24.530   6.164
 5335POPC   C1A67743  18.252  24.534   6.464
 5335POPC   D2A67744  18.293  24.522   6.764
 5335POPC   C3A67745  18.320  24.468   7.064
 5335POPC   C4A67746  18.234  24.453   7.364
 5335POPC   C1B67747  18.552  24.551   6.464
 5335POPC   C2B67748  18.489  24.511   6.764
 5335POPC   C3B67749  18.577  24.504   7.064
 5335POPC   C4B67750  18.549  24.499   7.364
 5336POPC   NC367751   1.184   5.833   5.564
 5336POPC   PO467752   1.204   5.861   5.864
 5336POPC   GL167753   1.256   5.860   6.164
 5336POPC   GL267754   1.116   5.752   6.164
 5336POPC   C1A67755   1.165   5.880   6.464
 5336POPC   D2A67756   1.204   5.911   6.764
 5336POPC   C3A67757   1.172   5.910   7.064
 5336POPC   C4A67758   1.173   5.853   7.364
 5336POPC   C1B67759   1.044   5.653   6.464
 5336POPC   C2B67760   1.023   5.627   6.764
 5336POPC   C3B67761   1.062   5.703   7.064
 5336POPC   C4B67762   1.057   5.662   7.364
 5337POPC   NC367763  44.615   1.987   5.564
 5337POPC   PO467764  44.654   1.948   5.864
 5337POPC   GL167765  44.618   1.976   6.164
 5337POPC   GL267766  44.617   2.092   6.164
 5337POPC   C1A67767  44.703   1.973   6.464
 5337POPC   D2A67768  44.701   1.952   6.764
 5337POPC   C3A67769  44.682   1.985   7.064
 5337POPC   C4A67770  44.647   1.941   7.364
 5337POPC   C1B67771  44.507   2.162   6.464
 5337POPC   C2B67772  44.575   2.224   6.764
 5337POPC   C3B67773  44.567   2.175   7.064
 5337POPC   C4B67774  44.549   2.157   7.364
 5338POPC   NC367775  14.372   5.834   5.564
 5338POPC   PO467776  14.370   5.875   5.864
 5338POPC   GL167777  14.384   5.827   6.164
 5338POPC   GL267778  14.531   5.789   6.164
 5338POPC   C1A67779  14.446   5.918   6.464
 5338POPC   D2A67780  14.432   5.836   6.764
 5338POPC   C3A67781  14.425   5.898   7.064
 5338POPC   C4A67782  14.387   5.838   7.364
 5338POPC   C1B67783  14.574   5.702   6.464
 5338POPC   C2B67784  14.640   5.717   6.764
 5338POPC   C3B67785  14.652   5.747   7.064
 5338POPC   C4B67786  14.602   5.744   7.364
 5339POPC   NC367787   2.798   1.164   5.564
 5339POPC   PO467788   2.801   1.177   5.864
 5339POPC   GL167789   2.795   1.190   6.164
 5339POPC   GL267790   2.874   1.155   6.164
 5339POPC   C1A67791   2.764   1.231   6.464
 5339POPC   D2A67792   2.733   1.249   6.764
 5339POPC   C3A67793   2.783   1.214   7.064
 5339POPC   C4A67794   2.803   1.240   7.364
 5339POPC   C1B67795   2.931   1.021   6.464
 5339POPC   C2B67796   2.992   1.040   6.764
 5339POPC   C3B67797   2.928   1.048   7.064
 5339POPC   C4B67798   2.983   1.066   7.364
 5340POPC   NC367799   3.496  12.847   5.564
 5340POPC   PO467800   3.584  12.833   5.864
 5340POPC   GL167801   3.566  12.868   6.164
 5340POPC   GL267802   3.629  12.846   6.164
 5340POPC   C1A67803   3.576  12.878   6.464
 5340POPC   D2A67804   3.542  12.841   6.764
 5340POPC   C3A67805   3.512  12.841   7.064
 5340POPC   C4A67806   3.527  12.878   7.364
 5340POPC   C1B67807   3.826  12.787   6.464
 5340POPC   C2B67808   3.781  12.794   6.764
 5340POPC   C3B67809   3.808  12.827   7.064
 5340POPC   C4B67810   3.762  12.814   7.364
 5341POPC   NC367811  42.361   8.946   5.564
 5341POPC   PO467812  42.364   8.979   5.864
 5341POPC   GL167813  42.322   8.985   6.164
 5341POPC   GL267814  42.407   8.899   6.164
 5341POPC   C1A67815  42.362   8.953   6.464
 5341POPC   D2A67816  42.332   9.010   6.764
 5341POPC   C3A67817  42.300   9.001   7.064
 5341POPC   C4A67818  42.299   9.011   7.364
 5341POPC   C1B67819  42.369   8.711   6.464
 5341POPC   C2B67820  42.397   8.695   6.764
 5341POPC   C3B67821  42.408   8.728   7.064
 5341POPC   C4B67822  42.396   8.734   7.364
 5342POPC   NC367823  43.889   2.748   5.564
 5342POPC   PO467824  43.929   2.738   5.864
 5342POPC   GL167825  43.892   2.771   6.164
 5342POPC   GL267826  43.835   2.660   6.164
 5342POPC   C1A67827  43.918   2.727   6.464
 5342POPC   D2A67828  43.885   2.746   6.764
 5342POPC   C3A67829  43.837   2.803   7.064
 5342POPC   C4A67830  43.912   2.795   7.364
 5342POPC   C1B67831  43.881   2.538   6.464
 5342POPC   C2B67832  43.854   2.565   6.764
 5342POPC   C3B67833  43.890   2.478   7.064
 5342POPC   C4B67834  43.879   2.545   7.364
 5343POPC   NC367835  12.122  32.998   5.564
 5343POPC   PO467836  12.112  33.054   5.864
 5343POPC   GL167837  12.085  33.010   6.164
 5343POPC   GL267838  12.213  33.141   6.164
 5343POPC   C1A67839  12.050  33.016   6.464
 5343POPC   D2A67840  12.075  33.007   6.764
 5343POPC   C3A67841  12.026  32.988   7.064
 5343POPC   C4A67842  12.093  33.049   7.364
 5343POPC   C1B67843  12.242  33.198   6.464
 5343POPC   C2B67844  12.260  33.236   6.764
 5343POPC   C3B67845  12.234  33.174   7.064
 5343POPC   C4B67846  12.308  33.180   7.364
 5344POPC   NC367847  23.740  30.661   5.564
 5344POPC   PO467848  23.703  30.740   5.864
 5344POPC   GL167849  23.726  30.692   6.164
 5344POPC   GL267850  23.561  30.620   6.164
 5344POPC   C1A67851  23.727  30.725   6.464
 5344POPC   D2A67852  23.754  30.706   6.764
 5344POPC   C3A67853  23.761  30.682   7.064
 5344POPC   C4A67854  23.668  30.738   7.364
 5344POPC   C1B67855  23.464  30.652   6.464
 5344POPC   C2B67856  23.466  30.595   6.764
 5344POPC   C3B67857  23.519  30.668   7.064
 5344POPC   C4B67858  23.432  30.660   7.364
 5345POPC   NC367859  42.333  20.577   5.564
 5345POPC   PO467860  42.346  20.608   5.864
 5345POPC   GL167861  42.329  20.641   6.164
 5345POPC   GL267862  42.380  20.715   6.164
 5345POPC   C1A67863  42.352  20.633   6.464
 5345POPC   D2A67864  42.372  20.610   6.764
 5345POPC   C3A67865  42.328  20.574   7.064
 5345POPC   C4A67866  42.293  20.598   7.364
 5345POPC   C1B67867  42.448  20.836   6.464
 5345POPC   C2B67868  42.396  20.830   6.764
 5345POPC   C3B67869  42.375  20.857   7.064
 5345POPC   C4B67870  42.436  20.895   7.364
 5346POPC   NC367871  31.468  33.043   5.564
 5346POPC   PO467872  31.437  33.041   5.864
 5346POPC   GL167873  31.464  33.038   6.164
 5346POPC   GL267874  31.417  32.911   6.164
 5346POPC   C1A67875  31.503  33.065   6.464
 5346POPC   D2A67876  31.471  32.986   6.764
 5346POPC   C3A67877  31.456  32.985   7.064
 5346POPC   C4A67878  31.451  33.002   7.364
 5346POPC   C1B67879  31.351  32.883   6.464
 5346POPC   C2B67880  31.311  32.866   6.764
 5346POPC   C3B67881  31.346  32.792   7.064
 5346POPC   C4B67882  31.332  32.864   7.364
 5347POPC   NC367883  32.250  26.771   5.564
 5347POPC   PO467884  32.236  26.799   5.864
 5347POPC   GL167885  32.205  26.784   6.164
 5347POPC   GL267886  32.209  26.661   6.164
 5347POPC   C1A67887  32.220  26.844   6.464
 5347POPC   D2A67888  32.259  26.812   6.764
 5347POPC   C3A67889  32.200  26.837   7.064
 5347POPC   C4A67890  32.293  26.846   7.364
 5347POPC   C1B67891  32.218  26.596   6.464
 5347POPC   C2B67892  32.162  26.537   6.764
 5347POPC   C3B67893  32.181  26.532   7.064
 5347POPC   C4B67894  32.128  26.587   7.364
 5348POPC   NC367895  15.970  36.175   5.564
 5348POPC   PO467896  15.971  36.130   5.864
 5348POPC   GL167897  15.977  36.143   6.164
 5348POPC   GL267898  15.816  36.167   6.164
 5348POPC   C1A67899  15.911  36.153   6.464
 5348POPC   D2A67900  15.979  36.080   6.764
 5348POPC   C3A67901  15.964  36.096   7.064
 5348POPC   C4A67902  15.940  36.167   7.364
 5348POPC   C1B67903  15.697  36.122   6.464
 5348POPC   C2B67904  15.711  36.168   6.764
 5348POPC   C3B67905  15.689  36.126   7.064
 5348POPC   C4B67906  15.731  36.079   7.364
 5349POPC   NC367907   1.260  40.768   5.564
 5349POPC   PO467908   1.229  40.749   5.864
 5349POPC   GL167909   1.183  40.766   6.164
 5349POPC   GL267910   1.137  40.776   6.164
 5349POPC   C1A67911   1.244  40.806   6.464
 5349POPC   D2A67912   1.221  40.755   6.764
 5349POPC   C3A67913   1.178  40.742   7.064
 5349POPC   C4A67914   1.179  40.737   7.364
 5349POPC   C1B67915   0.951  40.668   6.464
 5349POPC   C2B67916   1.012  40.739   6.764
 5349POPC   C3B67917   0.942  40.675   7.064
 5349POPC   C4B67918   0.977  40.695   7.364
 5350POPC   NC367919  22.184  12.066   5.564
 5350POPC   PO467920  22.124  12.112   5.864
 5350POPC   GL167921  22.139  12.089   6.164
 5350POPC   GL267922  22.101  12.136   6.164
 5350POPC   C1A67923  22.177  12.041   6.464
 5350POPC   D2A67924  22.166  12.062   6.764
 5350POPC   C3A67925  22.193  12.070   7.064
 5350POPC   C4A67926  22.157  12.045   7.364
 5350POPC   C1B67927  22.002  12.226   6.464
 5350POPC   C2B67928  21.932  12.223   6.764
 5350POPC   C3B67929  21.957  12.279   7.064
 5350POPC   C4B67930  21.969  12.240   7.364
 5351POPC   NC367931  22.199  17.476   5.564
 5351POPC   PO467932  22.211  17.515   5.864
 5351POPC   GL167933  22.124  17.477   6.164
 5351POPC   GL267934  22.157  17.371   6.164
 5351POPC   C1A67935  22.172  17.476   6.464
 5351POPC   D2A67936  22.115  17.554   6.764
 5351POPC   C3A67937  22.128  17.552   7.064
 5351POPC   C4A67938  22.150  17.547   7.364
 5351POPC   C1B67939  22.201  17.294   6.464
 5351POPC   C2B67940  22.213  17.295   6.764
 5351POPC   C3B67941  22.254  17.310   7.064
 5351POPC   C4B67942  22.264  17.291   7.364
 5352POPC   NC367943  43.088  39.971   5.564
 5352POPC   PO467944  43.101  39.969   5.864
 5352POPC   GL167945  43.118  39.963   6.164
 5352POPC   GL267946  42.939  40.037   6.164
 5352POPC   C1A67947  43.114  40.013   6.464
 5352POPC   D2A67948  43.073  39.997   6.764
 5352POPC   C3A67949  43.085  40.017   7.064
 5352POPC   C4A67950  43.160  39.995   7.364
 5352POPC   C1B67951  42.877  39.996   6.464
 5352POPC   C2B67952  42.870  39.979   6.764
 5352POPC   C3B67953  42.872  40.002   7.064
 5352POPC   C4B67954  42.855  39.978   7.364
 5353POPC   NC367955  34.608   5.896   5.564
 5353POPC   PO467956  34.572   5.874   5.864
 5353POPC   GL167957  34.603   5.869   6.164
 5353POPC   GL267958  34.650   5.938   6.164
 5353POPC   C1A67959  34.529   5.888   6.464
 5353POPC   D2A67960  34.610   5.884   6.764
 5353POPC   C3A67961  34.604   5.899   7.064
 5353POPC   C4A67962  34.603   5.826   7.364
 5353POPC   C1B67963  34.764   5.975   6.464
 5353POPC   C2B67964  34.806   5.976   6.764
 5353POPC   C3B67965  34.787   5.940   7.064
 5353POPC   C4B67966  34.794   5.923   7.364
 5354POPC   NC367967  30.652  22.116   5.564
 5354POPC   PO467968  30.654  22.138   5.864
 5354POPC   GL167969  30.700  22.127   6.164
 5354POPC   GL267970  30.765  22.296   6.164
 5354POPC   C1A67971  30.681  22.192   6.464
 5354POPC   D2A67972  30.673  22.181   6.764
 5354POPC   C3A67973  30.715  22.189   7.064
 5354POPC   C4A67974  30.739  22.165   7.364
 5354POPC   C1B67975  30.762  22.441   6.464
 5354POPC   C2B67976  30.786  22.399   6.764
 5354POPC   C3B67977  30.770  22.372   7.064
 5354POPC   C4B67978  30.750  22.422   7.364
 5355POPC   NC367979   8.961  11.255   5.564
 5355POPC   PO467980   9.011  11.343   5.864
 5355POPC   GL167981   8.940  11.325   6.164
 5355POPC   GL267982   9.127  11.304   6.164
 5355POPC   C1A67983   8.969  11.312   6.464
 5355POPC   D2A67984   9.003  11.265   6.764
 5355POPC   C3A67985   8.954  11.257   7.064
 5355POPC   C4A67986   8.995  11.265   7.364
 5355POPC   C1B67987   9.173  11.198   6.464
 5355POPC   C2B67988   9.195  11.190   6.764
 5355POPC   C3B67989   9.233  11.234   7.064
 5355POPC   C4B67990   9.172  11.207   7.364
 5356POPC   NC367991   0.405   8.221   5.564
 5356POPC   PO467992   0.453   8.148   5.864
 5356POPC   GL167993   0.453   8.211   6.164
 5356POPC   GL267994   0.444   8.365   6.164
 5356POPC   C1A67995   0.475   8.217   6.464
 5356POPC   D2A67996   0.451   8.162   6.764
 5356POPC   C3A67997   0.466   8.218   7.064
 5356POPC   C4A67998   0.405   8.239   7.364
 5356POPC   C1B67999   0.379   8.394   6.464
 5356POPC   C2B68000   0.355   8.435   6.764
 5356POPC   C3B68001   0.319   8.472   7.064
 5356POPC   C4B68002   0.367   8.429   7.364
 5357POPC   NC368003  43.100   2.738   5.564
 5357POPC   PO468004  43.155   2.808   5.864
 5357POPC   GL168005  43.108   2.805   6.164
 5357POPC   GL268006  43.275   2.772   6.164
 5357POPC   C1A68007  43.105   2.811   6.464
 5357POPC   D2A68008  43.117   2.815   6.764
 5357POPC   C3A68009  43.079   2.764   7.064
 5357POPC   C4A68010  43.139   2.760   7.364
 5357POPC   C1B68011  43.370   2.631   6.464
 5357POPC   C2B68012  43.374   2.649   6.764
 5357POPC   C3B68013  43.297   2.662   7.064
 5357POPC   C4B68014  43.338   2.637   7.364
 5358POPC   NC368015   8.926   0.432   5.564
 5358POPC   PO468016   8.944   0.402   5.864
 5358POPC   GL168017   8.969   0.483   6.164
 5358POPC   GL268018   9.085   0.506   6.164
 5358POPC   C1A68019   9.007   0.476   6.464
 5358POPC   D2A68020   8.951   0.476   6.764
 5358POPC   C3A68021   9.014   0.394   7.064
 5358POPC   C4A68022   9.006   0.442   7.364
 5358POPC   C1B68023   9.131   0.655   6.464
 5358POPC   C2B68024   9.125   0.669   6.764
 5358POPC   C3B68025   9.189   0.600   7.064
 5358POPC   C4B68026   9.103   0.578   7.364
 5359POPC   NC368027   3.513  23.763   5.564
 5359POPC   PO468028   3.516  23.685   5.864
 5359POPC   GL168029   3.531  23.711   6.164
 5359POPC   GL268030   3.453  23.697   6.164
 5359POPC   C1A68031   3.502  23.734   6.464
 5359POPC   D2A68032   3.527  23.725   6.764
 5359POPC   C3A68033   3.563  23.733   7.064
 5359POPC   C4A68034   3.573  23.745   7.364
 5359POPC   C1B68035   3.358  23.573   6.464
 5359POPC   C2B68036   3.344  23.540   6.764
 5359POPC   C3B68037   3.364  23.618   7.064
 5359POPC   C4B68038   3.306  23.540   7.364
 5360POPC   NC368039  12.860   8.229   5.564
 5360POPC   PO468040  12.815   8.229   5.864
 5360POPC   GL168041  12.809   8.192   6.164
 5360POPC   GL268042  12.707   8.169   6.164
 5360POPC   C1A68043  12.836   8.202   6.464
 5360POPC   D2A68044  12.866   8.170   6.764
 5360POPC   C3A68045  12.833   8.173   7.064
 5360POPC   C4A68046  12.872   8.223   7.364
 5360POPC   C1B68047  12.659   8.072   6.464
 5360POPC   C2B68048  12.677   8.064   6.764
 5360POPC   C3B68049  12.674   8.047   7.064
 5360POPC   C4B68050  12.625   8.079   7.364
 5361POPC   NC368051   9.769  40.022   5.564
 5361POPC   PO468052   9.753  40.044   5.864
 5361POPC   GL168053   9.777  39.974   6.164
 5361POPC   GL268054   9.670  39.968   6.164
 5361POPC   C1A68055   9.709  40.011   6.464
 5361POPC   D2A68056   9.724  39.988   6.764
 5361POPC   C3A68057   9.712  40.025   7.064
 5361POPC   C4A68058   9.723  40.029   7.364
 5361POPC   C1B68059   9.596  39.862   6.464
 5361POPC   C2B68060   9.568  39.859   6.764
 5361POPC   C3B68061   9.524  39.813   7.064
 5361POPC   C4B68062   9.574  39.844   7.364
 5362POPC   NC368063   0.419  31.456   5.564
 5362POPC   PO468064   0.462  31.490   5.864
 5362POPC   GL168065   0.426  31.460   6.164
 5362POPC   GL268066   0.428  31.334   6.164
 5362POPC   C1A68067   0.443  31.520   6.464
 5362POPC   D2A68068   0.450  31.482   6.764
 5362POPC   C3A68069   0.392  31.519   7.064
 5362POPC   C4A68070   0.478  31.496   7.364
 5362POPC   C1B68071   0.374  31.281   6.464
 5362POPC   C2B68072   0.313  31.209   6.764
 5362POPC   C3B68073   0.327  31.192   7.064
 5362POPC   C4B68074   0.321  31.240   7.364
 5363POPC   NC368075  39.192   9.703   5.564
 5363POPC   PO468076  39.255   9.750   5.864
 5363POPC   GL168077  39.218   9.749   6.164
 5363POPC   GL268078  39.368   9.665   6.164
 5363POPC   C1A68079  39.273   9.709   6.464
 5363POPC   D2A68080  39.248   9.793   6.764
 5363POPC   C3A68081  39.208   9.787   7.064
 5363POPC   C4A68082  39.252   9.771   7.364
 5363POPC   C1B68083  39.395   9.565   6.464
 5363POPC   C2B68084  39.422   9.550   6.764
 5363POPC   C3B68085  39.412   9.619   7.064
 5363POPC   C4B68086  39.377   9.623   7.364
 5364POPC   NC368087  35.332  25.267   5.564
 5364POPC   PO468088  35.376  25.290   5.864
 5364POPC   GL168089  35.350  25.278   6.164
 5364POPC   GL268090  35.213  25.361   6.164
 5364POPC   C1A68091  35.376  25.220   6.464
 5364POPC   D2A68092  35.317  25.241   6.764
 5364POPC   C3A68093  35.365  25.315   7.064
 5364POPC   C4A68094  35.335  25.281   7.364
 5364POPC   C1B68095  35.201  25.470   6.464
 5364POPC   C2B68096  35.151  25.413   6.764
 5364POPC   C3B68097  35.221  25.455   7.064
 5364POPC   C4B68098  35.132  25.412   7.364
 5365POPC   NC368099  24.457  33.774   5.564
 5365POPC   PO468100  24.456  33.829   5.864
 5365POPC   GL168101  24.498  33.798   6.164
 5365POPC   GL268102  24.523  33.921   6.164
 5365POPC   C1A68103  24.491  33.803   6.464
 5365POPC   D2A68104  24.507  33.792   6.764
 5365POPC   C3A68105  24.487  33.805   7.064
 5365POPC   C4A68106  24.488  33.761   7.364
 5365POPC   C1B68107  24.601  34.056   6.464
 5365POPC   C2B68108  24.623  34.043   6.764
 5365POPC   C3B68109  24.620  34.023   7.064
 5365POPC   C4B68110  24.590  34.042   7.364
 5366POPC   NC368111  41.598  23.737   5.564
 5366POPC   PO468112  41.527  23.680   5.864
 5366POPC   GL168113  41.531  23.678   6.164
 5366POPC   GL268114  41.713  23.759   6.164
 5366POPC   C1A68115  41.561  23.685   6.464
 5366POPC   D2A68116  41.596  23.762   6.764
 5366POPC   C3A68117  41.511  23.666   7.064
 5366POPC   C4A68118  41.566  23.700   7.364
 5366POPC   C1B68119  41.828  23.793   6.464
 5366POPC   C2B68120  41.835  23.840   6.764
 5366POPC   C3B68121  41.792  23.833   7.064
 5366POPC   C4B68122  41.787  23.839   7.364
 5367POPC   NC368123  39.191  35.310   5.564
 5367POPC   PO468124  39.199  35.389   5.864
 5367POPC   GL168125  39.250  35.398   6.164
 5367POPC   GL268126  39.206  35.223   6.164
 5367POPC   C1A68127  39.208  35.387   6.464
 5367POPC   D2A68128  39.195  35.398   6.764
 5367POPC   C3A68129  39.248  35.392   7.064
 5367POPC   C4A68130  39.185  35.322   7.364
 5367POPC   C1B68131  39.284  35.107   6.464
 5367POPC   C2B68132  39.250  35.075   6.764
 5367POPC   C3B68133  39.246  35.146   7.064
 5367POPC   C4B68134  39.289  35.147   7.364
 5368POPC   NC368135  25.231  26.857   5.564
 5368POPC   PO468136  25.256  26.789   5.864
 5368POPC   GL168137  25.310  26.791   6.164
 5368POPC   GL268138  25.319  26.714   6.164
 5368POPC   C1A68139  25.299  26.855   6.464
 5368POPC   D2A68140  25.305  26.798   6.764
 5368POPC   C3A68141  25.305  26.777   7.064
 5368POPC   C4A68142  25.246  26.768   7.364
 5368POPC   C1B68143  25.446  26.621   6.464
 5368POPC   C2B68144  25.420  26.610   6.764
 5368POPC   C3B68145  25.396  26.639   7.064
 5368POPC   C4B68146  25.379  26.613   7.364
 5369POPC   NC368147   5.846  27.547   5.564
 5369POPC   PO468148   5.912  27.637   5.864
 5369POPC   GL168149   5.904  27.563   6.164
 5369POPC   GL268150   5.939  27.440   6.164
 5369POPC   C1A68151   5.829  27.610   6.464
 5369POPC   D2A68152   5.828  27.546   6.764
 5369POPC   C3A68153   5.896  27.609   7.064
 5369POPC   C4A68154   5.862  27.595   7.364
 5369POPC   C1B68155   5.952  27.315   6.464
 5369POPC   C2B68156   6.010  27.407   6.764
 5369POPC   C3B68157   5.982  27.375   7.064
 5369POPC   C4B68158   5.938  27.348   7.364
 5370POPC   NC368159  41.546  17.525   5.564
 5370POPC   PO468160  41.583  17.514   5.864
 5370POPC   GL168161  41.532  17.491   6.164
 5370POPC   GL268162  41.679  17.566   6.164
 5370POPC   C1A68163  41.584  17.517   6.464
 5370POPC   D2A68164  41.584  17.480   6.764
 5370POPC   C3A68165  41.568  17.509   7.064
 5370POPC   C4A68166  41.568  17.550   7.364
 5370POPC   C1B68167  41.761  17.630   6.464
 5370POPC   C2B68168  41.746  17.640   6.764
 5370POPC   C3B68169  41.776  17.570   7.064
 5370POPC   C4B68170  41.784  17.616   7.364
 5371POPC   NC368171  29.097  32.293   5.564
 5371POPC   PO468172  29.150  32.204   5.864
 5371POPC   GL168173  29.159  32.250   6.164
 5371POPC   GL268174  29.065  32.329   6.164
 5371POPC   C1A68175  29.144  32.255   6.464
 5371POPC   D2A68176  29.147  32.275   6.764
 5371POPC   C3A68177  29.183  32.270   7.064
 5371POPC   C4A68178  29.144  32.232   7.364
 5371POPC   C1B68179  29.070  32.498   6.464
 5371POPC   C2B68180  29.048  32.497   6.764
 5371POPC   C3B68181  29.054  32.469   7.064
 5371POPC   C4B68182  29.058  32.502   7.364
 5372POPC   NC368183  38.408  32.247   5.564
 5372POPC   PO468184  38.435  32.255   5.864
 5372POPC   GL168185  38.490  32.297   6.164
 5372POPC   GL268186  38.344  32.116   6.164
 5372POPC   C1A68187  38.418  32.249   6.464
 5372POPC   D2A68188  38.440  32.220   6.764
 5372POPC   C3A68189  38.465  32.202   7.064
 5372POPC   C4A68190  38.456  32.255   7.364
 5372POPC   C1B68191  38.255  32.076   6.464
 5372POPC   C2B68192  38.290  32.126   6.764
 5372POPC   C3B68193  38.246  32.032   7.064
 5372POPC   C4B68194  38.228  32.067   7.364
 5373POPC   NC368195  15.152  20.584   5.564
 5373POPC   PO468196  15.215  20.623   5.864
 5373POPC   GL168197  15.165  20.643   6.164
 5373POPC   GL268198  15.195  20.758   6.164
 5373POPC   C1A68199  15.138  20.598   6.464
 5373POPC   D2A68200  15.211  20.586   6.764
 5373POPC   C3A68201  15.210  20.634   7.064
 5373POPC   C4A68202  15.176  20.581   7.364
 5373POPC   C1B68203  15.133  20.829   6.464
 5373POPC   C2B68204  15.158  20.895   6.764
 5373POPC   C3B68205  15.152  20.849   7.064
 5373POPC   C4B68206  15.154  20.903   7.364
 5374POPC   NC368207  30.652  32.278   5.564
 5374POPC   PO468208  30.741  32.220   5.864
 5374POPC   GL168209  30.724  32.263   6.164
 5374POPC   GL268210  30.780  32.246   6.164
 5374POPC   C1A68211  30.688  32.200   6.464
 5374POPC   D2A68212  30.689  32.247   6.764
 5374POPC   C3A68213  30.675  32.227   7.064
 5374POPC   C4A68214  30.647  32.288   7.364
 5374POPC   C1B68215  30.931  32.168   6.464
 5374POPC   C2B68216  30.984  32.190   6.764
 5374POPC   C3B68217  30.896  32.142   7.064
 5374POPC   C4B68218  30.962  32.206   7.364
 5375POPC   NC368219  18.251  21.400   5.564
 5375POPC   PO468220  18.277  21.375   5.864
 5375POPC   GL168221  18.235  21.419   6.164
 5375POPC   GL268222  18.215  21.307   6.164
 5375POPC   C1A68223  18.233  21.426   6.464
 5375POPC   D2A68224  18.241  21.383   6.764
 5375POPC   C3A68225  18.249  21.418   7.064
 5375POPC   C4A68226  18.262  21.363   7.364
 5375POPC   C1B68227  18.170  21.156   6.464
 5375POPC   C2B68228  18.186  21.216   6.764
 5375POPC   C3B68229  18.202  21.184   7.064
 5375POPC   C4B68230  18.146  21.192   7.364
 5376POPC   NC368231  24.468  32.254   5.564
 5376POPC   PO468232  24.504  32.242   5.864
 5376POPC   GL168233  24.504  32.243   6.164
 5376POPC   GL268234  24.571  32.170   6.164
 5376POPC   C1A68235  24.538  32.237   6.464
 5376POPC   D2A68236  24.479  32.289   6.764
 5376POPC   C3A68237  24.464  32.290   7.064
 5376POPC   C4A68238  24.507  32.218   7.364
 5376POPC   C1B68239  24.673  32.041   6.464
 5376POPC   C2B68240  24.670  32.065   6.764
 5376POPC   C3B68241  24.684  32.050   7.064
 5376POPC   C4B68242  24.624  32.090   7.364
 5377POPC   NC368243  29.969  32.985   5.564
 5377POPC   PO468244  29.910  33.024   5.864
 5377POPC   GL168245  29.932  33.029   6.164
 5377POPC   GL268246  29.997  33.072   6.164
 5377POPC   C1A68247  29.886  33.027   6.464
 5377POPC   D2A68248  29.882  33.013   6.764
 5377POPC   C3A68249  29.944  32.989   7.064
 5377POPC   C4A68250  29.894  33.018   7.364
 5377POPC   C1B68251  30.150  33.116   6.464
 5377POPC   C2B68252  30.206  33.106   6.764
 5377POPC   C3B68253  30.175  33.128   7.064
 5377POPC   C4B68254  30.156  33.138   7.364
 5378POPC   NC368255  26.794  18.288   5.564
 5378POPC   PO468256  26.770  18.243   5.864
 5378POPC   GL168257  26.773  18.238   6.164
 5378POPC   GL268258  26.925  18.163   6.164
 5378POPC   C1A68259  26.791  18.296   6.464
 5378POPC   D2A68260  26.778  18.264   6.764
 5378POPC   C3A68261  26.794  18.262   7.064
 5378POPC   C4A68262  26.850  18.259   7.364
 5378POPC   C1B68263  26.976  18.143   6.464
 5378POPC   C2B68264  27.022  18.082   6.764
 5378POPC   C3B68265  26.972  18.138   7.064
 5378POPC   C4B68266  27.029  18.159   7.364
 5379POPC   NC368267  23.741  40.756   5.564
 5379POPC   PO468268  23.748  40.806   5.864
 5379POPC   GL168269  23.731  40.778   6.164
 5379POPC   GL268270  23.568  40.895   6.164
 5379POPC   C1A68271  23.670  40.745   6.464
 5379POPC   D2A68272  23.708  40.813   6.764
 5379POPC   C3A68273  23.727  40.790   7.064
 5379POPC   C4A68274  23.677  40.822   7.364
 5379POPC   C1B68275  23.538  40.967   6.464
 5379POPC   C2B68276  23.536  40.978   6.764
 5379POPC   C3B68277  23.476  40.889   7.064
 5379POPC   C4B68278  23.466  40.930   7.364
 5380POPC   NC368279  35.326  40.830   5.564
 5380POPC   PO468280  35.388  40.735   5.864
 5380POPC   GL168281  35.341  40.763   6.164
 5380POPC   GL268282  35.378  40.615   6.164
 5380POPC   C1A68283  35.331  40.744   6.464
 5380POPC   D2A68284  35.341  40.783   6.764
 5380POPC   C3A68285  35.356  40.754   7.064
 5380POPC   C4A68286  35.377  40.790   7.364
 5380POPC   C1B68287  35.429  40.492   6.464
 5380POPC   C2B68288  35.430  40.529   6.764
 5380POPC   C3B68289  35.359  40.576   7.064
 5380POPC   C4B68290  35.372  40.525   7.364
 5381POPC   NC368291  26.845   0.407   5.564
 5381POPC   PO468292  26.824   0.486   5.864
 5381POPC   GL168293  26.861   0.463   6.164
 5381POPC   GL268294  26.880   0.346   6.164
 5381POPC   C1A68295  26.791   0.416   6.464
 5381POPC   D2A68296  26.850   0.423   6.764
 5381POPC   C3A68297  26.855   0.415   7.064
 5381POPC   C4A68298  26.779   0.388   7.364
 5381POPC   C1B68299  26.980   0.194   6.464
 5381POPC   C2B68300  26.983   0.257   6.764
 5381POPC   C3B68301  26.891   0.206   7.064
 5381POPC   C4B68302  26.960   0.238   7.364
 5382POPC   NC368303  17.499  36.945   5.564
 5382POPC   PO468304  17.458  36.896   5.864
 5382POPC   GL168305  17.507  36.899   6.164
 5382POPC   GL268306  17.651  36.843   6.164
 5382POPC   C1A68307  17.461  36.905   6.464
 5382POPC   D2A68308  17.514  36.873   6.764
 5382POPC   C3A68309  17.458  36.901   7.064
 5382POPC   C4A68310  17.504  36.949   7.364
 5382POPC   C1B68311  17.763  36.768   6.464
 5382POPC   C2B68312  17.778  36.758   6.764
 5382POPC   C3B68313  17.724  36.776   7.064
 5382POPC   C4B68314  17.756  36.827   7.364
 5383POPC   NC368315  43.084  36.130   5.564
 5383POPC   PO468316  43.065  36.081   5.864
 5383POPC   GL168317  43.132  36.099   6.164
 5383POPC   GL268318  43.048  36.196   6.164
 5383POPC   C1A68319  43.074  36.078   6.464
 5383POPC   D2A68320  43.079  36.121   6.764
 5383POPC   C3A68321  43.114  36.139   7.064
 5383POPC   C4A68322  43.093  36.145   7.364
 5383POPC   C1B68323  43.072  36.376   6.464
 5383POPC   C2B68324  42.998  36.369   6.764
 5383POPC   C3B68325  42.996  36.382   7.064
 5383POPC   C4B68326  42.978  36.326   7.364
 5384POPC   NC368327   4.345  43.110   5.564
 5384POPC   PO468328   4.337  43.099   5.864
 5384POPC   GL168329   4.363  43.152   6.164
 5384POPC   GL268330   4.204  43.078   6.164
 5384POPC   C1A68331   4.303  43.085   6.464
 5384POPC   D2A68332   4.342  43.114   6.764
 5384POPC   C3A68333   4.298  43.159   7.064
 5384POPC   C4A68334   4.351  43.096   7.364
 5384POPC   C1B68335   4.093  43.139   6.464
 5384POPC   C2B68336   4.072  43.122   6.764
 5384POPC   C3B68337   4.104  43.124   7.064
 5384POPC   C4B68338   4.063  43.080   7.364
 5385POPC   NC368339  37.689  32.978   5.564
 5385POPC   PO468340  37.662  33.063   5.864
 5385POPC   GL168341  37.664  33.050   6.164
 5385POPC   GL268342  37.820  33.051   6.164
 5385POPC   C1A68343  37.659  32.990   6.464
 5385POPC   D2A68344  37.650  33.071   6.764
 5385POPC   C3A68345  37.643  33.033   7.064
 5385POPC   C4A68346  37.698  32.994   7.364
 5385POPC   C1B68347  37.939  33.097   6.464
 5385POPC   C2B68348  37.930  33.112   6.764
 5385POPC   C3B68349  37.877  33.085   7.064
 5385POPC   C4B68350  37.904  33.117   7.364
 5386POPC   NC368351  11.324  39.261   5.564
 5386POPC   PO468352  11.316  39.273   5.864
 5386POPC   GL168353  11.296  39.262   6.164
 5386POPC   GL268354  11.313  39.361   6.164
 5386POPC   C1A68355  11.329  39.241   6.464
 5386POPC   D2A68356  11.290  39.225   6.764
 5386POPC   C3A68357  11.308  39.253   7.064
 5386POPC   C4A68358  11.256  39.192   7.364
 5386POPC   C1B68359  11.306  39.527   6.464
 5386POPC   C2B68360  11.263  39.433   6.764
 5386POPC   C3B68361  11.332  39.439   7.064
 5386POPC   C4B68362  11.329  39.460   7.364
 5387POPC   NC368363  23.758   0.402   5.564
 5387POPC   PO468364  23.754   0.395   5.864
 5387POPC   GL168365  23.746   0.433   6.164
 5387POPC   GL268366  23.735   0.582   6.164
 5387POPC   C1A68367  23.737   0.482   6.464
 5387POPC   D2A68368  23.682   0.440   6.764
 5387POPC   C3A68369  23.738   0.403   7.064
 5387POPC   C4A68370  23.741   0.453   7.364
 5387POPC   C1B68371  23.872   0.654   6.464
 5387POPC   C2B68372  23.872   0.611   6.764
 5387POPC   C3B68373  23.867   0.597   7.064
 5387POPC   C4B68374  23.866   0.601   7.364
 5388POPC   NC368375  18.247  26.059   5.564
 5388POPC   PO468376  18.293  26.073   5.864
 5388POPC   GL168377  18.256  25.999   6.164
 5388POPC   GL268378  18.239  25.949   6.164
 5388POPC   C1A68379  18.305  26.047   6.464
 5388POPC   D2A68380  18.253  26.003   6.764
 5388POPC   C3A68381  18.263  25.997   7.064
 5388POPC   C4A68382  18.286  26.023   7.364
 5388POPC   C1B68383  18.098  25.883   6.464
 5388POPC   C2B68384  18.140  25.809   6.764
 5388POPC   C3B68385  18.111  25.830   7.064
 5388POPC   C4B68386  18.125  25.838   7.364
 5389POPC   NC368387  43.885  15.172   5.564
 5389POPC   PO468388  43.877  15.144   5.864
 5389POPC   GL168389  43.875  15.211   6.164
 5389POPC   GL268390  43.817  15.201   6.164
 5389POPC   C1A68391  43.911  15.140   6.464
 5389POPC   D2A68392  43.880  15.134   6.764
 5389POPC   C3A68393  43.926  15.142   7.064
 5389POPC   C4A68394  43.905  15.222   7.364
 5389POPC   C1B68395  43.631  15.266   6.464
 5389POPC   C2B68396  43.612  15.280   6.764
 5389POPC   C3B68397  43.672  15.300   7.064
 5389POPC   C4B68398  43.637  15.295   7.364
 5390POPC   NC368399  20.656  36.896   5.564
 5390POPC   PO468400  20.579  36.928   5.864
 5390POPC   GL168401  20.658  36.859   6.164
 5390POPC   GL268402  20.570  37.038   6.164
 5390POPC   C1A68403  20.608  36.882   6.464
 5390POPC   D2A68404  20.585  36.859   6.764
 5390POPC   C3A68405  20.584  36.912   7.064
 5390POPC   C4A68406  20.630  36.858   7.364
 5390POPC   C1B68407  20.482  37.148   6.464
 5390POPC   C2B68408  20.468  37.075   6.764
 5390POPC   C3B68409  20.484  37.069   7.064
 5390POPC   C4B68410  20.434  37.092   7.364
 5391POPC   NC368411   8.963  28.334   5.564
 5391POPC   PO468412   8.937  28.358   5.864
 5391POPC   GL168413   8.975  28.336   6.164
 5391POPC   GL268414   9.065  28.404   6.164
 5391POPC   C1A68415   9.018  28.353   6.464
 5391POPC   D2A68416   8.971  28.416   6.764
 5391POPC   C3A68417   8.997  28.370   7.064
 5391POPC   C4A68418   8.994  28.336   7.364
 5391POPC   C1B68419   9.220  28.460   6.464
 5391POPC   C2B68420   9.181  28.527   6.764
 5391POPC   C3B68421   9.179  28.432   7.064
 5391POPC   C4B68422   9.245  28.455   7.364
 5392POPC   NC368423   1.213  18.299   5.564
 5392POPC   PO468424   1.230  18.280   5.864
 5392POPC   GL168425   1.200  18.270   6.164
 5392POPC   GL268426   1.321  18.193   6.164
 5392POPC   C1A68427   1.189  18.241   6.464
 5392POPC   D2A68428   1.262  18.314   6.764
 5392POPC   C3A68429   1.189  18.274   7.064
 5392POPC   C4A68430   1.247  18.276   7.364
 5392POPC   C1B68431   1.399  18.106   6.464
 5392POPC   C2B68432   1.378  18.075   6.764
 5392POPC   C3B68433   1.420  18.074   7.064
 5392POPC   C4B68434   1.357  18.057   7.364
 5393POPC   NC368435  41.578  21.347   5.564
 5393POPC   PO468436  41.572  21.434   5.864
 5393POPC   GL168437  41.558  21.391   6.164
 5393POPC   GL268438  41.420  21.442   6.164
 5393POPC   C1A68439  41.587  21.414   6.464
 5393POPC   D2A68440  41.591  21.367   6.764
 5393POPC   C3A68441  41.594  21.426   7.064
 5393POPC   C4A68442  41.595  21.358   7.364
 5393POPC   C1B68443  41.316  21.510   6.464
 5393POPC   C2B68444  41.343  21.534   6.764
 5393POPC   C3B68445  41.409  21.576   7.064
 5393POPC   C4B68446  41.375  21.496   7.364
 5394POPC   NC368447   2.811  34.529   5.564
 5394POPC   PO468448   2.759  34.596   5.864
 5394POPC   GL168449   2.738  34.540   6.164
 5394POPC   GL268450   2.856  34.688   6.164
 5394POPC   C1A68451   2.728  34.570   6.464
 5394POPC   D2A68452   2.781  34.574   6.764
 5394POPC   C3A68453   2.734  34.551   7.064
 5394POPC   C4A68454   2.806  34.531   7.364
 5394POPC   C1B68455   2.965  34.739   6.464
 5394POPC   C2B68456   2.934  34.733   6.764
 5394POPC   C3B68457   2.910  34.740   7.064
 5394POPC   C4B68458   2.973  34.727   7.364
 5395POPC   NC368459  12.097  36.086   5.564
 5395POPC   PO468460  12.029  36.158   5.864
 5395POPC   GL168461  12.117  36.147   6.164
 5395POPC   GL268462  12.046  35.995   6.164
 5395POPC   C1A68463  12.033  36.158   6.464
 5395POPC   D2A68464  12.086  36.167   6.764
 5395POPC   C3A68465  12.121  36.084   7.064
 5395POPC   C4A68466  12.058  36.130   7.364
 5395POPC   C1B68467  11.907  35.872   6.464
 5395POPC   C2B68468  11.954  35.917   6.764
 5395POPC   C3B68469  11.959  35.896   7.064
 5395POPC   C4B68470  11.923  35.941   7.364
 5396POPC   NC368471  42.337  40.762   5.564
 5396POPC   PO468472  42.351  40.733   5.864
 5396POPC   GL168473  42.316  40.757   6.164
 5396POPC   GL268474  42.230  40.699   6.164
 5396POPC   C1A68475  42.344  40.787   6.464
 5396POPC   D2A68476  42.323  40.786   6.764
 5396POPC   C3A68477  42.335  40.763   7.064
 5396POPC   C4A68478  42.346  40.781   7.364
 5396POPC   C1B68479  42.253  40.588   6.464
 5396POPC   C2B68480  42.200  40.546   6.764
 5396POPC   C3B68481  42.193  40.529   7.064
 5396POPC   C4B68482  42.201  40.532   7.364
 5397POPC   NC368483  36.934  30.649   5.564
 5397POPC   PO468484  36.869  30.712   5.864
 5397POPC   GL168485  36.854  30.746   6.164
 5397POPC   GL268486  36.872  30.553   6.164
 5397POPC   C1A68487  36.911  30.690   6.464
 5397POPC   D2A68488  36.935  30.708   6.764
 5397POPC   C3A68489  36.932  30.743   7.064
 5397POPC   C4A68490  36.862  30.650   7.364
 5397POPC   C1B68491  36.873  30.475   6.464
 5397POPC   C2B68492  36.887  30.437   6.764
 5397POPC   C3B68493  36.869  30.444   7.064
 5397POPC   C4B68494  36.859  30.453   7.364
 5398POPC   NC368495  20.590  35.322   5.564
 5398POPC   PO468496  20.601  35.383   5.864
 5398POPC   GL168497  20.609  35.307   6.164
 5398POPC   GL268498  20.668  35.466   6.164
 5398POPC   C1A68499  20.647  35.320   6.464
 5398POPC   D2A68500  20.646  35.352   6.764
 5398POPC   C3A68501  20.623  35.331   7.064
 5398POPC   C4A68502  20.642  35.370   7.364
 5398POPC   C1B68503  20.762  35.508   6.464
 5398POPC   C2B68504  20.801  35.556   6.764
 5398POPC   C3B68505  20.766  35.489   7.064
 5398POPC   C4B68506  20.779  35.549   7.364
 5399POPC   NC368507  31.439  22.210   5.564
 5399POPC   PO468508  31.480  22.123   5.864
 5399POPC   GL168509  31.452  22.115   6.164
 5399POPC   GL268510  31.570  22.195   6.164
 5399POPC   C1A68511  31.441  22.121   6.464
 5399POPC   D2A68512  31.444  22.141   6.764
 5399POPC   C3A68513  31.484  22.169   7.064
 5399POPC   C4A68514  31.509  22.161   7.364
 5399POPC   C1B68515  31.633  22.311   6.464
 5399POPC   C2B68516  31.720  22.276   6.764
 5399POPC   C3B68517  31.656  22.334   7.064
 5399POPC   C4B68518  31.697  22.270   7.364
 5400POPC   NC368519  22.137  42.373   5.564
 5400POPC   PO468520  22.118  42.368   5.864
 5400POPC   GL168521  22.154  42.325   6.164
 5400POPC   GL268522  22.290  42.296   6.164
 5400POPC   C1A68523  22.172  42.292   6.464
 5400POPC   D2A68524  22.132  42.295   6.764
 5400POPC   C3A68525  22.128  42.380   7.064
 5400POPC   C4A68526  22.211  42.369   7.364
 5400POPC   C1B68527  22.384  42.267   6.464
 5400POPC   C2B68528  22.431  42.200   6.764
 5400POPC   C3B68529  22.390  42.216   7.064
 5400POPC   C4B68530  22.418  42.245   7.364
 5401POPC   NC368531   1.211  20.577   5.564
 5401POPC   PO468532   1.257  20.652   5.864
 5401POPC   GL168533   1.176  20.625   6.164
 5401POPC   GL268534   1.115  20.527   6.164
 5401POPC   C1A68535   1.189  20.606   6.464
 5401POPC   D2A68536   1.171  20.561   6.764
 5401POPC   C3A68537   1.242  20.619   7.064
 5401POPC   C4A68538   1.249  20.621   7.364
 5401POPC   C1B68539   0.964  20.497   6.464
 5401POPC   C2B68540   0.999  20.442   6.764
 5401POPC   C3B68541   1.006  20.496   7.064
 5401POPC   C4B68542   1.045  20.451   7.364
 5402POPC   NC368543   9.766  35.389   5.564
 5402POPC   PO468544   9.748  35.391   5.864
 5402POPC   GL168545   9.727  35.378   6.164
 5402POPC   GL268546   9.649  35.289   6.164
 5402POPC   C1A68547   9.764  35.363   6.464
 5402POPC   D2A68548   9.763  35.330   6.764
 5402POPC   C3A68549   9.709  35.390   7.064
 5402POPC   C4A68550   9.727  35.371   7.364
 5402POPC   C1B68551   9.666  35.102   6.464
 5402POPC   C2B68552   9.666  35.136   6.764
 5402POPC   C3B68553   9.610  35.124   7.064
 5402POPC   C4B68554   9.618  35.087   7.364
 5403POPC   NC368555  36.086  11.313   5.564
 5403POPC   PO468556  36.120  11.277   5.864
 5403POPC   GL168557  36.091  11.336   6.164
 5403POPC   GL268558  36.197  11.349   6.164
 5403POPC   C1A68559  36.147  11.309   6.464
 5403POPC   D2A68560  36.114  11.251   6.764
 5403POPC   C3A68561  36.082  11.316   7.064
 5403POPC   C4A68562  36.109  11.252   7.364
 5403POPC   C1B68563  36.387  11.369   6.464
 5403POPC   C2B68564  36.380  11.379   6.764
 5403POPC   C3B68565  36.345  11.354   7.064
 5403POPC   C4B68566  36.409  11.373   7.364
 5404POPC   NC368567  43.931  25.284   5.564
 5404POPC   PO468568  43.857  25.312   5.864
 5404POPC   GL168569  43.838  25.264   6.164
 5404POPC   GL268570  43.755  25.344   6.164
 5404POPC   C1A68571  43.889  25.231   6.464
 5404POPC   D2A68572  43.872  25.294   6.764
 5404POPC   C3A68573  43.876  25.278   7.064
 5404POPC   C4A68574  43.902  25.218   7.364
 5404POPC   C1B68575  43.713  25.410   6.464
 5404POPC   C2B68576  43.708  25.375   6.764
 5404POPC   C3B68577  43.666  25.385   7.064
 5404POPC   C4B68578  43.672  25.388   7.364
 5405POPC   NC368579  39.280  15.130   5.564
 5405POPC   PO468580  39.205  15.133   5.864
 5405POPC   GL168581  39.257  15.209   6.164
 5405POPC   GL268582  39.131  15.224   6.164
 5405POPC   C1A68583  39.208  15.175   6.464
 5405POPC   D2A68584  39.249  15.216   6.764
 5405POPC   C3A68585  39.196  15.200   7.064
 5405POPC   C4A68586  39.207  15.176   7.364
 5405POPC   C1B68587  38.951  15.217   6.464
 5405POPC   C2B68588  38.960  15.251   6.764
 5405POPC   C3B68589  39.009  15.183   7.064
 5405POPC   C4B68590  39.026  15.186   7.364
 5406POPC   NC368591  25.269  20.639   5.564
 5406POPC   PO468592  25.217  20.603   5.864
 5406POPC   GL168593  25.298  20.617   6.164
 5406POPC   GL268594  25.352  20.547   6.164
 5406POPC   C1A68595  25.302  20.566   6.464
 5406POPC   D2A68596  25.291  20.634   6.764
 5406POPC   C3A68597  25.268  20.592   7.064
 5406POPC   C4A68598  25.225  20.659   7.364
 5406POPC   C1B68599  25.497  20.488   6.464
 5406POPC   C2B68600  25.465  20.515   6.764
 5406POPC   C3B68601  25.495  20.490   7.064
 5406POPC   C4B68602  25.461  20.521   7.364
 5407POPC   NC368603  33.008  24.525   5.564
 5407POPC   PO468604  33.065  24.476   5.864
 5407POPC   GL168605  32.985  24.515   6.164
 5407POPC   GL268606  33.194  24.474   6.164
 5407POPC   C1A68607  33.067  24.504   6.464
 5407POPC   D2A68608  32.987  24.467   6.764
 5407POPC   C3A68609  33.070  24.490   7.064
 5407POPC   C4A68610  33.064  24.525   7.364
 5407POPC   C1B68611  33.291  24.574   6.464
 5407POPC   C2B68612  33.269  24.525   6.764
 5407POPC   C3B68613  33.233  24.517   7.064
 5407POPC   C4B68614  33.292  24.560   7.364
 5408POPC   NC368615  14.414  43.911   5.564
 5408POPC   PO468616  14.448  43.907   5.864
 5408POPC   GL168617  14.415  43.839   6.164
 5408POPC   GL268618  14.355  44.012   6.164
 5408POPC   C1A68619  14.410  43.902   6.464
 5408POPC   D2A68620  14.453  43.858   6.764
 5408POPC   C3A68621  14.416  43.900   7.064
 5408POPC   C4A68622  14.381  43.840   7.364
 5408POPC   C1B68623  14.321  44.120   6.464
 5408POPC   C2B68624  14.374  44.115   6.764
 5408POPC   C3B68625  14.362  44.104   7.064
 5408POPC   C4B68626  14.351  44.083   7.364
 5409POPC   NC368627  12.111  10.505   5.564
 5409POPC   PO468628  12.116  10.505   5.864
 5409POPC   GL168629  12.029  10.532   6.164
 5409POPC   GL268630  12.151  10.378   6.164
 5409POPC   C1A68631  12.115  10.567   6.464
 5409POPC   D2A68632  12.065  10.486   6.764
 5409POPC   C3A68633  12.094  10.492   7.064
 5409POPC   C4A68634  12.050  10.545   7.364
 5409POPC   C1B68635  12.144  10.319   6.464
 5409POPC   C2B68636  12.098  10.287   6.764
 5409POPC   C3B68637  12.128  10.231   7.064
 5409POPC   C4B68638  12.144  10.314   7.364
 5410POPC   NC368639  17.495  44.636   5.564
 5410POPC   PO468640  17.493  44.703   5.864
 5410POPC   GL168641  17.506  44.649   6.164
 5410POPC   GL268642  17.476  44.803   6.164
 5410POPC   C1A68643  17.511  44.692   6.464
 5410POPC   D2A68644  17.491  44.645   6.764
 5410POPC   C3A68645  17.514  44.668   7.064
 5410POPC   C4A68646  17.509  44.705   7.364
 5410POPC   C1B68647  17.527  44.863   6.464
 5410POPC   C2B68648  17.482  44.908   6.764
 5410POPC   C3B68649  17.494  44.947   7.064
 5410POPC   C4B68650  17.516  44.879   7.364
 5411POPC   NC368651  26.037  38.464   5.564
 5411POPC   PO468652  26.071  38.457   5.864
 5411POPC   GL168653  26.005  38.462   6.164
 5411POPC   GL268654  26.098  38.602   6.164
 5411POPC   C1A68655  26.087  38.432   6.464
 5411POPC   D2A68656  26.043  38.427   6.764
 5411POPC   C3A68657  26.000  38.431   7.064
 5411POPC   C4A68658  26.046  38.432   7.364
 5411POPC   C1B68659  26.117  38.713   6.464
 5411POPC   C2B68660  26.166  38.727   6.764
 5411POPC   C3B68661  26.169  38.645   7.064
 5411POPC   C4B68662  26.152  38.663   7.364
 5412POPC   NC368663   4.310  15.144   5.564
 5412POPC   PO468664   4.336  15.201   5.864
 5412POPC   GL168665   4.363  15.172   6.164
 5412POPC   GL268666   4.320  15.348   6.164
 5412POPC   C1A68667   4.336  15.145   6.464
 5412POPC   D2A68668   4.274  15.165   6.764
 5412POPC   C3A68669   4.344  15.197   7.064
 5412POPC   C4A68670   4.301  15.153   7.364
 5412POPC   C1B68671   4.356  15.448   6.464
 5412POPC   C2B68672   4.416  15.401   6.764
 5412POPC   C3B68673   4.339  15.374   7.064
 5412POPC   C4B68674   4.385  15.406   7.364
 5413POPC   NC368675   0.470  29.102   5.564
 5413POPC   PO468676   0.398  29.149   5.864
 5413POPC   GL168677   0.481  29.180   6.164
 5413POPC   GL268678   0.297  29.176   6.164
 5413POPC   C1A68679   0.433  29.192   6.464
 5413POPC   D2A68680   0.443  29.098   6.764
 5413POPC   C3A68681   0.435  29.128   7.064
 5413POPC   C4A68682   0.408  29.141   7.364
 5413POPC   C1B68683   0.214  29.241   6.464
 5413POPC   C2B68684   0.196  29.180   6.764
 5413POPC   C3B68685   0.163  29.204   7.064
 5413POPC   C4B68686   0.169  29.178   7.364
 5414POPC   NC368687   8.186  37.697   5.564
 5414POPC   PO468688   8.201  37.711   5.864
 5414POPC   GL168689   8.198  37.635   6.164
 5414POPC   GL268690   8.246  37.530   6.164
 5414POPC   C1A68691   8.208  37.651   6.464
 5414POPC   D2A68692   8.164  37.648   6.764
 5414POPC   C3A68693   8.225  37.642   7.064
 5414POPC   C4A68694   8.150  37.712   7.364
 5414POPC   C1B68695   8.335  37.454   6.464
 5414POPC   C2B68696   8.328  37.442   6.764
 5414POPC   C3B68697   8.340  37.445   7.064
 5414POPC   C4B68698   8.335  37.499   7.364
 5415POPC   NC368699  22.919   4.268   5.564
 5415POPC   PO468700  22.909   4.361   5.864
 5415POPC   GL168701  22.905   4.357   6.164
 5415POPC   GL268702  22.894   4.466   6.164
 5415POPC   C1A68703  22.915   4.316   6.464
 5415POPC   D2A68704  22.975   4.281   6.764
 5415POPC   C3A68705  22.960   4.366   7.064
 5415POPC   C4A68706  22.963   4.276   7.364
 5415POPC   C1B68707  22.924   4.580   6.464
 5415POPC   C2B68708  22.933   4.544   6.764
 5415POPC   C3B68709  22.952   4.580   7.064
 5415POPC   C4B68710  22.934   4.517   7.364
 5416POPC   NC368711   5.915  14.394   5.564
 5416POPC   PO468712   5.860  14.450   5.864
 5416POPC   GL168713   5.834  14.408   6.164
 5416POPC   GL268714   5.754  14.416   6.164
 5416POPC   C1A68715   5.845  14.414   6.464
 5416POPC   D2A68716   5.899  14.390   6.764
 5416POPC   C3A68717   5.852  14.435   7.064
 5416POPC   C4A68718   5.897  14.446   7.364
 5416POPC   C1B68719   5.605  14.382   6.464
 5416POPC   C2B68720   5.654  14.381   6.764
 5416POPC   C3B68721   5.598  14.367   7.064
 5416POPC   C4B68722   5.664  14.383   7.364
 5417POPC   NC368723   3.559  41.516   5.564
 5417POPC   PO468724   3.495  41.568   5.864
 5417POPC   GL168725   3.568  41.545   6.164
 5417POPC   GL268726   3.626  41.485   6.164
 5417POPC   C1A68727   3.590  41.567   6.464
 5417POPC   D2A68728   3.515  41.523   6.764
 5417POPC   C3A68729   3.564  41.517   7.064
 5417POPC   C4A68730   3.497  41.559   7.364
 5417POPC   C1B68731   3.667  41.324   6.464
 5417POPC   C2B68732   3.598  41.297   6.764
 5417POPC   C3B68733   3.614  41.368   7.064
 5417POPC   C4B68734   3.669  41.340   7.364
 5418POPC   NC368735   4.301  19.884   5.564
 5418POPC   PO468736   4.307  19.850   5.864
 5418POPC   GL168737   4.357  19.858   6.164
 5418POPC   GL268738   4.187  19.758   6.164
 5418POPC   C1A68739   4.303  19.875   6.464
 5418POPC   D2A68740   4.297  19.871   6.764
 5418POPC   C3A68741   4.352  19.825   7.064
 5418POPC   C4A68742   4.282  19.805   7.364
 5418POPC   C1B68743   4.120  19.656   6.464
 5418POPC   C2B68744   4.109  19.667   6.764
 5418POPC   C3B68745   4.090  19.645   7.064
 5418POPC   C4B68746   4.128  19.669   7.364
 5419POPC   NC368747  37.675   0.390   5.564
 5419POPC   PO468748  37.701   0.480   5.864
 5419POPC   GL168749  37.695   0.394   6.164
 5419POPC   GL268750  37.816   0.388   6.164
 5419POPC   C1A68751  37.703   0.484   6.464
 5419POPC   D2A68752  37.691   0.443   6.764
 5419POPC   C3A68753  37.708   0.451   7.064
 5419POPC   C4A68754  37.643   0.389   7.364
 5419POPC   C1B68755  37.941   0.376   6.464
 5419POPC   C2B68756  37.923   0.441   6.764
 5419POPC   C3B68757  37.923   0.408   7.064
 5419POPC   C4B68758  37.882   0.365   7.364
 5420POPC   NC368759  10.542  22.949   5.564
 5420POPC   PO468760  10.521  22.916   5.864
 5420POPC   GL168761  10.570  22.920   6.164
 5420POPC   GL268762  10.494  22.849   6.164
 5420POPC   C1A68763  10.527  22.938   6.464
 5420POPC   D2A68764  10.523  22.914   6.764
 5420POPC   C3A68765  10.477  22.896   7.064
 5420POPC   C4A68766  10.546  22.982   7.364
 5420POPC   C1B68767  10.449  22.723   6.464
 5420POPC   C2B68768  10.463  22.711   6.764
 5420POPC   C3B68769  10.481  22.673   7.064
 5420POPC   C4B68770  10.451  22.724   7.364
 5421POPC   NC368771  32.991  25.231   5.564
 5421POPC   PO468772  32.984  25.278   5.864
 5421POPC   GL168773  33.030  25.300   6.164
 5421POPC   GL268774  32.973  25.181   6.164
 5421POPC   C1A68775  33.061  25.267   6.464
 5421POPC   D2A68776  33.026  25.309   6.764
 5421POPC   C3A68777  33.037  25.296   7.064
 5421POPC   C4A68778  32.994  25.226   7.364
 5421POPC   C1B68779  32.951  24.981   6.464
 5421POPC   C2B68780  33.008  25.046   6.764
 5421POPC   C3B68781  33.003  25.021   7.064
 5421POPC   C4B68782  32.948  25.041   7.364
 5422POPC   NC368783  36.102  15.959   5.564
 5422POPC   PO468784  36.142  15.950   5.864
 5422POPC   GL168785  36.085  15.917   6.164
 5422POPC   GL268786  35.970  15.985   6.164
 5422POPC   C1A68787  36.175  15.942   6.464
 5422POPC   D2A68788  36.141  15.969   6.764
 5422POPC   C3A68789  36.126  15.993   7.064
 5422POPC   C4A68790  36.099  15.915   7.364
 5422POPC   C1B68791  35.857  15.913   6.464
 5422POPC   C2B68792  35.900  15.920   6.764
 5422POPC   C3B68793  35.848  15.888   7.064
 5422POPC   C4B68794  35.839  15.931   7.364
 5423POPC   NC368795   1.229   1.226   5.564
 5423POPC   PO468796   1.187   1.180   5.864
 5423POPC   GL168797   1.227   1.218   6.164
 5423POPC   GL268798   1.292   1.171   6.164
 5423POPC   C1A68799   1.214   1.176   6.464
 5423POPC   D2A68800   1.180   1.187   6.764
 5423POPC   C3A68801   1.252   1.166   7.064
 5423POPC   C4A68802   1.168   1.210   7.364
 5423POPC   C1B68803   1.454   1.156   6.464
 5423POPC   C2B68804   1.441   1.129   6.764
 5423POPC   C3B68805   1.495   1.145   7.064
 5423POPC   C4B68806   1.446   1.169   7.364
 5424POPC   NC368807  44.679  36.894   5.564
 5424POPC   PO468808  44.656  36.860   5.864
 5424POPC   GL168809  44.678  36.866   6.164
 5424POPC   GL268810  44.816  36.867   6.164
 5424POPC   C1A68811  44.654  36.940   6.464
 5424POPC   D2A68812  44.633  36.871   6.764
 5424POPC   C3A68813  44.622  36.904   7.064
 5424POPC   C4A68814  44.670  36.950   7.364
 5424POPC   C1B68815  44.903  36.828   6.464
 5424POPC   C2B68816  44.867  36.781   6.764
 5424POPC   C3B68817  44.933  36.789   7.064
 5424POPC   C4B68818  44.844  36.839   7.364
 5425POPC   NC368819  42.322   2.769   5.564
 5425POPC   PO468820  42.291   2.786   5.864
 5425POPC   GL168821  42.301   2.807   6.164
 5425POPC   GL268822  42.416   2.745   6.164
 5425POPC   C1A68823  42.326   2.721   6.464
 5425POPC   D2A68824  42.315   2.725   6.764
 5425POPC   C3A68825  42.325   2.716   7.064
 5425POPC   C4A68826  42.321   2.793   7.364
 5425POPC   C1B68827  42.600   2.684   6.464
 5425POPC   C2B68828  42.527   2.636   6.764
 5425POPC   C3B68829  42.610   2.620   7.064
 5425POPC   C4B68830  42.599   2.697   7.364
 5426POPC   NC368831  38.498  29.947   5.564
 5426POPC   PO468832  38.437  29.928   5.864
 5426POPC   GL168833  38.469  29.965   6.164
 5426POPC   GL268834  38.383  30.039   6.164
 5426POPC   C1A68835  38.433  29.904   6.464
 5426POPC   D2A68836  38.480  29.919   6.764
 5426POPC   C3A68837  38.421  29.963   7.064
 5426POPC   C4A68838  38.425  29.968   7.364
 5426POPC   C1B68839  38.367  30.179   6.464
 5426POPC   C2B68840  38.290  30.110   6.764
 5426POPC   C3B68841  38.361  30.180   7.064
 5426POPC   C4B68842  38.300  30.126   7.364
 5427POPC   NC368843  17.520   8.971   5.564
 5427POPC   PO468844  17.472   8.953   5.864
 5427POPC   GL168845  17.540   8.992   6.164
 5427POPC   GL268846  17.435   9.030   6.164
 5427POPC   C1A68847  17.476   9.005   6.464
 5427POPC   D2A68848  17.458   8.959   6.764
 5427POPC   C3A68849  17.516   8.959   7.064
 5427POPC   C4A68850  17.521   8.929   7.364
 5427POPC   C1B68851  17.272   9.139   6.464
 5427POPC   C2B68852  17.282   9.125   6.764
 5427POPC   C3B68853  17.281   9.137   7.064
 5427POPC   C4B68854  17.343   9.141   7.364
 5428POPC   NC368855  28.412  19.873   5.564
 5428POPC   PO468856  28.372  19.842   5.864
 5428POPC   GL168857  28.341  19.794   6.164
 5428POPC   GL268858  28.406  19.700   6.164
 5428POPC   C1A68859  28.376  19.863   6.464
 5428POPC   D2A68860  28.368  19.861   6.764
 5428POPC   C3A68861  28.399  19.883   7.064
 5428POPC   C4A68862  28.367  19.851   7.364
 5428POPC   C1B68863  28.438  19.574   6.464
 5428POPC   C2B68864  28.432  19.618   6.764
 5428POPC   C3B68865  28.431  19.608   7.064
 5428POPC   C4B68866  28.382  19.570   7.364
 5429POPC   NC368867  15.141  19.063   5.564
 5429POPC   PO468868  15.169  19.030   5.864
 5429POPC   GL168869  15.209  19.011   6.164
 5429POPC   GL268870  15.273  19.105   6.164
 5429POPC   C1A68871  15.133  19.027   6.464
 5429POPC   D2A68872  15.193  19.016   6.764
 5429POPC   C3A68873  15.158  19.032   7.064
 5429POPC   C4A68874  15.216  19.072   7.364
 5429POPC   C1B68875  15.399  19.087   6.464
 5429POPC   C2B68876  15.426  19.071   6.764
 5429POPC   C3B68877  15.472  19.074   7.064
 5429POPC   C4B68878  15.436  19.069   7.364
 5430POPC   NC368879  25.303  31.499   5.564
 5430POPC   PO468880  25.291  31.514   5.864
 5430POPC   GL168881  25.260  31.434   6.164
 5430POPC   GL268882  25.200  31.341   6.164
 5430POPC   C1A68883  25.226  31.492   6.464
 5430POPC   D2A68884  25.243  31.511   6.764
 5430POPC   C3A68885  25.281  31.511   7.064
 5430POPC   C4A68886  25.267  31.487   7.364
 5430POPC   C1B68887  25.211  31.231   6.464
 5430POPC   C2B68888  25.249  31.258   6.764
 5430POPC   C3B68889  25.233  31.228   7.064
 5430POPC   C4B68890  25.246  31.217   7.364
 5431POPC   NC368891  25.281  11.261   5.564
 5431POPC   PO468892  25.282  11.347   5.864
 5431POPC   GL168893  25.256  11.254   6.164
 5431POPC   GL268894  25.167  11.260   6.164
 5431POPC   C1A68895  25.257  11.312   6.464
 5431POPC   D2A68896  25.278  11.341   6.764
 5431POPC   C3A68897  25.298  11.316   7.064
 5431POPC   C4A68898  25.238  11.290   7.364
 5431POPC   C1B68899  25.118  11.124   6.464
 5431POPC   C2B68900  25.072  11.168   6.764
 5431POPC   C3B68901  25.125  11.146   7.064
 5431POPC   C4B68902  25.036  11.137   7.364
 5432POPC   NC368903  18.263  22.175   5.564
 5432POPC   PO468904  18.309  22.212   5.864
 5432POPC   GL168905  18.308  22.163   6.164
 5432POPC   GL268906  18.248  22.306   6.164
 5432POPC   C1A68907  18.266  22.167   6.464
 5432POPC   D2A68908  18.255  22.195   6.764
 5432POPC   C3A68909  18.332  22.139   7.064
 5432POPC   C4A68910  18.304  22.198   7.364
 5432POPC   C1B68911  18.303  22.411   6.464
 5432POPC   C2B68912  18.266  22.455   6.764
 5432POPC   C3B68913  18.213  22.398   7.064
 5432POPC   C4B68914  18.211  22.369   7.364
 5433POPC   NC368915  15.908  29.186   5.564
 5433POPC   PO468916  15.979  29.108   5.864
 5433POPC   GL168917  15.937  29.134   6.164
 5433POPC   GL268918  15.868  29.106   6.164
 5433POPC   C1A68919  15.960  29.180   6.464
 5433POPC   D2A68920  15.913  29.103   6.764
 5433POPC   C3A68921  15.981  29.118   7.064
 5433POPC   C4A68922  15.936  29.105   7.364
 5433POPC   C1B68923  15.696  29.109   6.464
 5433POPC   C2B68924  15.671  29.136   6.764
 5433POPC   C3B68925  15.688  29.150   7.064
 5433POPC   C4B68926  15.669  29.080   7.364
 5434POPC   NC368927  15.935  27.615   5.564
 5434POPC   PO468928  15.945  27.551   5.864
 5434POPC   GL168929  15.906  27.566   6.164
 5434POPC   GL268930  15.878  27.504   6.164
 5434POPC   C1A68931  15.969  27.584   6.464
 5434POPC   D2A68932  15.976  27.621   6.764
 5434POPC   C3A68933  15.948  27.566   7.064
 5434POPC   C4A68934  15.955  27.577   7.364
 5434POPC   C1B68935  15.709  27.448   6.464
 5434POPC   C2B68936  15.711  27.443   6.764
 5434POPC   C3B68937  15.682  27.458   7.064
 5434POPC   C4B68938  15.725  27.491   7.364
 5435POPC   NC368939  28.337  36.894   5.564
 5435POPC   PO468940  28.394  36.910   5.864
 5435POPC   GL168941  28.417  36.926   6.164
 5435POPC   GL268942  28.287  36.945   6.164
 5435POPC   C1A68943  28.336  36.876   6.464
 5435POPC   D2A68944  28.400  36.892   6.764
 5435POPC   C3A68945  28.324  36.912   7.064
 5435POPC   C4A68946  28.330  36.886   7.364
 5435POPC   C1B68947  28.127  36.970   6.464
 5435POPC   C2B68948  28.165  36.917   6.764
 5435POPC   C3B68949  28.162  36.923   7.064
 5435POPC   C4B68950  28.160  36.976   7.364
 5436POPC   NC368951  34.581   8.979   5.564
 5436POPC   PO468952  34.543   9.000   5.864
 5436POPC   GL168953  34.536   8.982   6.164
 5436POPC   GL268954  34.740   8.899   6.164
 5436POPC   C1A68955  34.607   8.969   6.464
 5436POPC   D2A68956  34.527   8.953   6.764
 5436POPC   C3A68957  34.594   8.947   7.064
 5436POPC   C4A68958  34.583   8.950   7.364
 5436POPC   C1B68959  34.836   8.878   6.464
 5436POPC   C2B68960  34.806   8.866   6.764
 5436POPC   C3B68961  34.850   8.881   7.064
 5436POPC   C4B68962  34.840   8.916   7.364
 5437POPC   NC368963  30.683  40.736   5.564
 5437POPC   PO468964  30.651  40.817   5.864
 5437POPC   GL168965  30.689  40.749   6.164
 5437POPC   GL268966  30.620  40.814   6.164
 5437POPC   C1A68967  30.696  40.781   6.464
 5437POPC   D2A68968  30.741  40.802   6.764
 5437POPC   C3A68969  30.674  40.739   7.064
 5437POPC   C4A68970  30.711  40.785   7.364
 5437POPC   C1B68971  30.444  40.897   6.464
 5437POPC   C2B68972  30.428  40.901   6.764
 5437POPC   C3B68973  30.481  40.916   7.064
 5437POPC   C4B68974  30.474  40.891   7.364
 5438POPC   NC368975  26.793  41.538   5.564
 5438POPC   PO468976  26.824  41.558   5.864
 5438POPC   GL168977  26.829  41.509   6.164
 5438POPC   GL268978  26.904  41.602   6.164
 5438POPC   C1A68979  26.830  41.515   6.464
 5438POPC   D2A68980  26.846  41.554   6.764
 5438POPC   C3A68981  26.787  41.550   7.064
 5438POPC   C4A68982  26.860  41.529   7.364
 5438POPC   C1B68983  26.978  41.769   6.464
 5438POPC   C2B68984  27.017  41.735   6.764
 5438POPC   C3B68985  26.993  41.688   7.064
 5438POPC   C4B68986  27.003  41.713   7.364
 5439POPC   NC368987  31.486   1.245   5.564
 5439POPC   PO468988  31.482   1.176   5.864
 5439POPC   GL168989  31.513   1.190   6.164
 5439POPC   GL268990  31.514   1.354   6.164
 5439POPC   C1A68991  31.445   1.209   6.464
 5439POPC   D2A68992  31.447   1.169   6.764
 5439POPC   C3A68993  31.475   1.253   7.064
 5439POPC   C4A68994  31.503   1.178   7.364
 5439POPC   C1B68995  31.508   1.445   6.464
 5439POPC   C2B68996  31.520   1.438   6.764
 5439POPC   C3B68997  31.449   1.506   7.064
 5439POPC   C4B68998  31.532   1.470   7.364
 5440POPC   NC368999  10.514  40.806   5.564
 5440POPC   PO469000  10.502  40.755   5.864
 5440POPC   GL169001  10.516  40.783   6.164
 5440POPC   GL269002  10.458  40.762   6.164
 5440POPC   C1A69003  10.570  40.736   6.464
 5440POPC   D2A69004  10.518  40.776   6.764
 5440POPC   C3A69005  10.512  40.814   7.064
 5440POPC   C4A69006  10.560  40.802   7.364
 5440POPC   C1B69007  10.333  40.727   6.464
 5440POPC   C2B69008  10.273  40.638   6.764
 5440POPC   C3B69009  10.337  40.694   7.064
 5440POPC   C4B69010  10.302  40.650   7.364
 5441POPC   NC369011  12.066  19.843   5.564
 5441POPC   PO469012  12.124  19.864   5.864
 5441POPC   GL169013  12.032  19.815   6.164
 5441POPC   GL269014  12.214  19.783   6.164
 5441POPC   C1A69015  12.079  19.810   6.464
 5441POPC   D2A69016  12.102  19.842   6.764
 5441POPC   C3A69017  12.064  19.811   7.064
 5441POPC   C4A69018  12.087  19.829   7.364
 5441POPC   C1B69019  12.217  19.629   6.464
 5441POPC   C2B69020  12.301  19.631   6.764
 5441POPC   C3B69021  12.264  19.643   7.064
 5441POPC   C4B69022  12.307  19.712   7.364
 5442POPC   NC369023  11.331  26.036   5.564
 5442POPC   PO469024  11.295  26.074   5.864
 5442POPC   GL169025  11.325  26.073   6.164
 5442POPC   GL269026  11.375  26.201   6.164
 5442POPC   C1A69027  11.334  26.082   6.464
 5442POPC   D2A69028  11.330  26.081   6.764
 5442POPC   C3A69029  11.259  26.077   7.064
 5442POPC   C4A69030  11.281  26.032   7.364
 5442POPC   C1B69031  11.364  26.281   6.464
 5442POPC   C2B69032  11.334  26.305   6.764
 5442POPC   C3B69033  11.314  26.285   7.064
 5442POPC   C4B69034  11.335  26.289   7.364
 5443POPC   NC369035  36.094  43.907   5.564
 5443POPC   PO469036  36.087  43.913   5.864
 5443POPC   GL169037  36.157  43.840   6.164
 5443POPC   GL269038  36.018  43.804   6.164
 5443POPC   C1A69039  36.092  43.848   6.464
 5443POPC   D2A69040  36.122  43.896   6.764
 5443POPC   C3A69041  36.106  43.927   7.064
 5443POPC   C4A69042  36.145  43.886   7.364
 5443POPC   C1B69043  35.990  43.646   6.464
 5443POPC   C2B69044  35.951  43.642   6.764
 5443POPC   C3B69045  35.981  43.693   7.064
 5443POPC   C4B69046  36.032  43.648   7.364
 5444POPC   NC369047  10.526  11.348   5.564
 5444POPC   PO469048  10.545  11.328   5.864
 5444POPC   GL169049  10.475  11.289   6.164
 5444POPC   GL269050  10.635  11.244   6.164
 5444POPC   C1A69051  10.563  11.334   6.464
 5444POPC   D2A69052  10.526  11.323   6.764
 5444POPC   C3A69053  10.491  11.300   7.064
 5444POPC   C4A69054  10.495  11.297   7.364
 5444POPC   C1B69055  10.763  11.182   6.464
 5444POPC   C2B69056  10.735  11.146   6.764
 5444POPC   C3B69057  10.706  11.201   7.064
 5444POPC   C4B69058  10.768  11.133   7.364
 5445POPC   NC369059  40.821  32.297   5.564
 5445POPC   PO469060  40.822  32.251   5.864
 5445POPC   GL169061  40.823  32.289   6.164
 5445POPC   GL269062  40.803  32.168   6.164
 5445POPC   C1A69063  40.740  32.257   6.464
 5445POPC   D2A69064  40.773  32.274   6.764
 5445POPC   C3A69065  40.761  32.297   7.064
 5445POPC   C4A69066  40.733  32.275   7.364
 5445POPC   C1B69067  40.700  32.043   6.464
 5445POPC   C2B69068  40.724  32.005   6.764
 5445POPC   C3B69069  40.740  31.988   7.064
 5445POPC   C4B69070  40.729  32.046   7.364
 5446POPC   NC369071   8.245   5.893   5.564
 5446POPC   PO469072   8.157   5.859   5.864
 5446POPC   GL169073   8.232   5.905   6.164
 5446POPC   GL269074   8.115   5.831   6.164
 5446POPC   C1A69075   8.165   5.886   6.464
 5446POPC   D2A69076   8.163   5.829   6.764
 5446POPC   C3A69077   8.225   5.907   7.064
 5446POPC   C4A69078   8.187   5.897   7.364
 5446POPC   C1B69079   7.926   5.786   6.464
 5446POPC   C2B69080   7.998   5.793   6.764
 5446POPC   C3B69081   7.933   5.779   7.064
 5446POPC   C4B69082   8.008   5.752   7.364
 5447POPC   NC369083   2.737   1.967   5.564
 5447POPC   PO469084   2.720   1.960   5.864
 5447POPC   GL169085   2.750   1.971   6.164
 5447POPC   GL269086   2.643   1.997   6.164
 5447POPC   C1A69087   2.745   2.030   6.464
 5447POPC   D2A69088   2.814   1.980   6.764
 5447POPC   C3A69089   2.719   1.980   7.064
 5447POPC   C4A69090   2.769   2.033   7.364
 5447POPC   C1B69091   2.584   2.065   6.464
 5447POPC   C2B69092   2.543   2.090   6.764
 5447POPC   C3B69093   2.489   2.046   7.064
 5447POPC   C4B69094   2.573   2.089   7.364
 5448POPC   NC369095   1.984  33.064   5.564
 5448POPC   PO469096   2.031  33.068   5.864
 5448POPC   GL169097   1.968  32.979   6.164
 5448POPC   GL269098   1.991  32.881   6.164
 5448POPC   C1A69099   2.032  33.065   6.464
 5448POPC   D2A69100   2.021  33.020   6.764
 5448POPC   C3A69101   2.012  32.997   7.064
 5448POPC   C4A69102   1.952  33.047   7.364
 5448POPC   C1B69103   2.033  32.815   6.464
 5448POPC   C2B69104   2.107  32.773   6.764
 5448POPC   C3B69105   2.079  32.802   7.064
 5448POPC   C4B69106   2.111  32.818   7.364
 5449POPC   NC369107  44.618  17.483   5.564
 5449POPC   PO469108  44.703  17.526   5.864
 5449POPC   GL169109  44.705  17.469   6.164
 5449POPC   GL269110  44.703  17.650   6.164
 5449POPC   C1A69111  44.636  17.519   6.464
 5449POPC   D2A69112  44.616  17.479   6.764
 5449POPC   C3A69113  44.622  17.466   7.064
 5449POPC   C4A69114  44.697  17.547   7.364
 5449POPC   C1B69115  44.693  17.708   6.464
 5449POPC   C2B69116  44.763  17.752   6.764
 5449POPC   C3B69117  44.675  17.732   7.064
 5449POPC   C4B69118  44.752  17.746   7.364
 5450POPC   NC369119  32.982   4.334   5.564
 5450POPC   PO469120  32.988   4.318   5.864
 5450POPC   GL169121  33.047   4.290   6.164
 5450POPC   GL269122  32.966   4.367   6.164
 5450POPC   C1A69123  33.012   4.297   6.464
 5450POPC   D2A69124  32.994   4.276   6.764
 5450POPC   C3A69125  33.042   4.346   7.064
 5450POPC   C4A69126  33.012   4.299   7.364
 5450POPC   C1B69127  32.820   4.532   6.464
 5450POPC   C2B69128  32.897   4.525   6.764
 5450POPC   C3B69129  32.884   4.485   7.064
 5450POPC   C4B69130  32.851   4.551   7.364
 5451POPC   NC369131  32.986   3.531   5.564
 5451POPC   PO469132  33.048   3.500   5.864
 5451POPC   GL169133  33.026   3.549   6.164
 5451POPC   GL269134  33.003   3.399   6.164
 5451POPC   C1A69135  33.074   3.555   6.464
 5451POPC   D2A69136  33.039   3.524   6.764
 5451POPC   C3A69137  32.977   3.561   7.064
 5451POPC   C4A69138  33.020   3.541   7.364
 5451POPC   C1B69139  32.835   3.385   6.464
 5451POPC   C2B69140  32.889   3.293   6.764
 5451POPC   C3B69141  32.875   3.294   7.064
 5451POPC   C4B69142  32.863   3.351   7.364
 5452POPC   NC369143  43.154  21.341   5.564
 5452POPC   PO469144  43.121  21.412   5.864
 5452POPC   GL169145  43.103  21.342   6.164
 5452POPC   GL269146  43.260  21.408   6.164
 5452POPC   C1A69147  43.098  21.342   6.464
 5452POPC   D2A69148  43.147  21.405   6.764
 5452POPC   C3A69149  43.067  21.392   7.064
 5452POPC   C4A69150  43.088  21.411   7.364
 5452POPC   C1B69151  43.338  21.510   6.464
 5452POPC   C2B69152  43.317  21.490   6.764
 5452POPC   C3B69153  43.290  21.472   7.064
 5452POPC   C4B69154  43.325  21.516   7.364
 5453POPC   NC369155  22.141  33.793   5.564
 5453POPC   PO469156  22.210  33.794   5.864
 5453POPC   GL169157  22.187  33.830   6.164
 5453POPC   GL269158  22.225  33.878   6.164
 5453POPC   C1A69159  22.134  33.760   6.464
 5453POPC   D2A69160  22.187  33.781   6.764
 5453POPC   C3A69161  22.179  33.773   7.064
 5453POPC   C4A69162  22.180  33.789   7.364
 5453POPC   C1B69163  22.197  34.020   6.464
 5453POPC   C2B69164  22.160  34.019   6.764
 5453POPC   C3B69165  22.169  34.067   7.064
 5453POPC   C4B69166  22.227  34.054   7.364
 5454POPC   NC369167  42.353  12.027   5.564
 5454POPC   PO469168  42.314  12.103   5.864
 5454POPC   GL169169  42.368  12.072   6.164
 5454POPC   GL269170  42.223  12.104   6.164
 5454POPC   C1A69171  42.344  12.040   6.464
 5454POPC   D2A69172  42.362  12.038   6.764
 5454POPC   C3A69173  42.358  12.116   7.064
 5454POPC   C4A69174  42.372  12.052   7.364
 5454POPC   C1B69175  42.153  12.176   6.464
 5454POPC   C2B69176  42.082  12.160   6.764
 5454POPC   C3B69177  42.112  12.235   7.064
 5454POPC   C4B69178  42.085  12.228   7.364
 5455POPC   NC369179   3.516  14.389   5.564
 5455POPC   PO469180   3.548  14.390   5.864
 5455POPC   GL169181   3.566  14.412   6.164
 5455POPC   GL269182   3.624  14.422   6.164
 5455POPC   C1A69183   3.587  14.447   6.464
 5455POPC   D2A69184   3.501  14.383   6.764
 5455POPC   C3A69185   3.578  14.410   7.064
 5455POPC   C4A69186   3.590  14.412   7.364
 5455POPC   C1B69187   3.763  14.529   6.464
 5455POPC   C2B69188   3.754  14.508   6.764
 5455POPC   C3B69189   3.724  14.580   7.064
 5455POPC   C4B69190   3.703  14.541   7.364
 5456POPC   NC369191   2.021  31.453   5.564
 5456POPC   PO469192   1.948  31.447   5.864
 5456POPC   GL169193   1.999  31.476   6.164
 5456POPC   GL269194   1.935  31.606   6.164
 5456POPC   C1A69195   2.011  31.461   6.464
 5456POPC   D2A69196   2.000  31.441   6.764
 5456POPC   C3A69197   2.025  31.440   7.064
 5456POPC   C4A69198   1.962  31.454   7.364
 5456POPC   C1B69199   1.820  31.713   6.464
 5456POPC   C2B69200   1.794  31.639   6.764
 5456POPC   C3B69201   1.808  31.624   7.064
 5456POPC   C4B69202   1.874  31.630   7.364
 5457POPC   NC369203  17.472   6.616   5.564
 5457POPC   PO469204  17.471   6.653   5.864
 5457POPC   GL169205  17.497   6.666   6.164
 5457POPC   GL269206  17.648   6.734   6.164
 5457POPC   C1A69207  17.463   6.684   6.464
 5457POPC   D2A69208  17.469   6.639   6.764
 5457POPC   C3A69209  17.462   6.598   7.064
 5457POPC   C4A69210  17.470   6.636   7.364
 5457POPC   C1B69211  17.697   6.817   6.464
 5457POPC   C2B69212  17.731   6.809   6.764
 5457POPC   C3B69213  17.669   6.806   7.064
 5457POPC   C4B69214  17.717   6.777   7.364
 5458POPC   NC369215  23.751  34.612   5.564
 5458POPC   PO469216  23.754  34.544   5.864
 5458POPC   GL169217  23.676  34.602   6.164
 5458POPC   GL269218  23.783  34.548   6.164
 5458POPC   C1A69219  23.700  34.567   6.464
 5458POPC   D2A69220  23.707  34.617   6.764
 5458POPC   C3A69221  23.740  34.564   7.064
 5458POPC   C4A69222  23.681  34.531   7.364
 5458POPC   C1B69223  23.897  34.455   6.464
 5458POPC   C2B69224  23.953  34.513   6.764
 5458POPC   C3B69225  23.994  34.479   7.064
 5458POPC   C4B69226  23.930  34.478   7.364
 5459POPC   NC369227   6.686  24.503   5.564
 5459POPC   PO469228   6.602  24.480   5.864
 5459POPC   GL169229   6.692  24.505   6.164
 5459POPC   GL269230   6.597  24.650   6.164
 5459POPC   C1A69231   6.598  24.457   6.464
 5459POPC   D2A69232   6.672  24.535   6.764
 5459POPC   C3A69233   6.624  24.526   7.064
 5459POPC   C4A69234   6.608  24.458   7.364
 5459POPC   C1B69235   6.612  24.775   6.464
 5459POPC   C2B69236   6.590  24.769   6.764
 5459POPC   C3B69237   6.559  24.747   7.064
 5459POPC   C4B69238   6.616  24.687   7.364
 5460POPC   NC369239  27.579  33.034   5.564
 5460POPC   PO469240  27.556  33.033   5.864
 5460POPC   GL169241  27.639  33.045   6.164
 5460POPC   GL269242  27.542  33.169   6.164
 5460POPC   C1A69243  27.556  33.025   6.464
 5460POPC   D2A69244  27.575  33.032   6.764
 5460POPC   C3A69245  27.604  33.030   7.064
 5460POPC   C4A69246  27.558  33.058   7.364
 5460POPC   C1B69247  27.538  33.280   6.464
 5460POPC   C2B69248  27.575  33.253   6.764
 5460POPC   C3B69249  27.552  33.298   7.064
 5460POPC   C4B69250  27.623  33.237   7.364
 5461POPC   NC369251  33.822  12.092   5.564
 5461POPC   PO469252  33.804  12.047   5.864
 5461POPC   GL169253  33.781  12.060   6.164
 5461POPC   GL269254  33.962  12.057   6.164
 5461POPC   C1A69255  33.815  12.104   6.464
 5461POPC   D2A69256  33.763  12.050   6.764
 5461POPC   C3A69257  33.794  12.102   7.064
 5461POPC   C4A69258  33.784  12.097   7.364
 5461POPC   C1B69259  34.084  12.008   6.464
 5461POPC   C2B69260  34.083  12.011   6.764
 5461POPC   C3B69261  34.049  11.993   7.064
 5461POPC   C4B69262  34.082  12.007   7.364
 5462POPC   NC369263  29.187  42.294   5.564
 5462POPC   PO469264  29.126  42.329   5.864
 5462POPC   GL169265  29.124  42.359   6.164
 5462POPC   GL269266  29.020  42.471   6.164
 5462POPC   C1A69267  29.194  42.341   6.464
 5462POPC   D2A69268  29.177  42.304   6.764
 5462POPC   C3A69269  29.097  42.314   7.064
 5462POPC   C4A69270  29.126  42.302   7.364
 5462POPC   C1B69271  28.960  42.533   6.464
 5462POPC   C2B69272  28.927  42.553   6.764
 5462POPC   C3B69273  29.012  42.491   7.064
 5462POPC   C4B69274  29.011  42.514   7.364
 5463POPC   NC369275  29.955  35.348   5.564
 5463POPC   PO469276  29.949  35.350   5.864
 5463POPC   GL169277  29.907  35.395   6.164
 5463POPC   GL269278  29.839  35.371   6.164
 5463POPC   C1A69279  29.880  35.356   6.464
 5463POPC   D2A69280  29.934  35.387   6.764
 5463POPC   C3A69281  29.912  35.350   7.064
 5463POPC   C4A69282  29.910  35.372   7.364
 5463POPC   C1B69283  29.670  35.396   6.464
 5463POPC   C2B69284  29.665  35.389   6.764
 5463POPC   C3B69285  29.647  35.385   7.064
 5463POPC   C4B69286  29.694  35.392   7.364
 5464POPC   NC369287  31.453  43.881   5.564
 5464POPC   PO469288  31.431  43.871   5.864
 5464POPC   GL169289  31.509  43.860   6.164
 5464POPC   GL269290  31.467  43.977   6.164
 5464POPC   C1A69291  31.506  43.904   6.464
 5464POPC   D2A69292  31.486  43.857   6.764
 5464POPC   C3A69293  31.441  43.890   7.064
 5464POPC   C4A69294  31.496  43.891   7.364
 5464POPC   C1B69295  31.566  44.115   6.464
 5464POPC   C2B69296  31.519  44.115   6.764
 5464POPC   C3B69297  31.516  44.165   7.064
 5464POPC   C4B69298  31.566  44.137   7.364
 5465POPC   NC369299  26.069  39.969   5.564
 5465POPC   PO469300  26.066  39.970   5.864
 5465POPC   GL169301  26.083  39.972   6.164
 5465POPC   GL269302  25.880  39.934   6.164
 5465POPC   C1A69303  26.023  40.033   6.464
 5465POPC   D2A69304  25.992  39.979   6.764
 5465POPC   C3A69305  26.061  40.028   7.064
 5465POPC   C4A69306  26.071  40.011   7.364
 5465POPC   C1B69307  25.835  39.943   6.464
 5465POPC   C2B69308  25.783  39.891   6.764
 5465POPC   C3B69309  25.848  39.885   7.064
 5465POPC   C4B69310  25.837  39.921   7.364
 5466POPC   NC369311   0.432   4.358   5.564
 5466POPC   PO469312   0.411   4.334   5.864
 5466POPC   GL169313   0.411   4.326   6.164
 5466POPC   GL269314   0.441   4.226   6.164
 5466POPC   C1A69315   0.412   4.302   6.464
 5466POPC   D2A69316   0.454   4.325   6.764
 5466POPC   C3A69317   0.486   4.328   7.064
 5466POPC   C4A69318   0.389   4.365   7.364
 5466POPC   C1B69319   0.429   4.061   6.464
 5466POPC   C2B69320   0.337   4.093   6.764
 5466POPC   C3B69321   0.427   4.069   7.064
 5466POPC   C4B69322   0.347   4.090   7.364
 5467POPC   NC369323   2.762  40.743   5.564
 5467POPC   PO469324   2.798  40.784   5.864
 5467POPC   GL169325   2.736  40.777   6.164
 5467POPC   GL269326   2.838  40.711   6.164
 5467POPC   C1A69327   2.766  40.758   6.464
 5467POPC   D2A69328   2.762  40.801   6.764
 5467POPC   C3A69329   2.764  40.755   7.064
 5467POPC   C4A69330   2.726  40.761   7.364
 5467POPC   C1B69331   2.908  40.556   6.464
 5467POPC   C2B69332   2.912  40.583   6.764
 5467POPC   C3B69333   2.954  40.594   7.064
 5467POPC   C4B69334   2.861  40.575   7.364
 5468POPC   NC369335  34.613  38.471   5.564
 5468POPC   PO469336  34.575  38.415   5.864
 5468POPC   GL169337  34.554  38.416   6.164
 5468POPC   GL269338  34.675  38.509   6.164
 5468POPC   C1A69339  34.623  38.448   6.464
 5468POPC   D2A69340  34.531  38.447   6.764
 5468POPC   C3A69341  34.527  38.499   7.064
 5468POPC   C4A69342  34.558  38.441   7.364
 5468POPC   C1B69343  34.783  38.516   6.464
 5468POPC   C2B69344  34.852  38.534   6.764
 5468POPC   C3B69345  34.834  38.548   7.064
 5468POPC   C4B69346  34.806  38.529   7.364
 5469POPC   NC369347  23.681  24.529   5.564
 5469POPC   PO469348  23.667  24.458   5.864
 5469POPC   GL169349  23.664  24.515   6.164
 5469POPC   GL269350  23.567  24.606   6.164
 5469POPC   C1A69351  23.679  24.514   6.464
 5469POPC   D2A69352  23.735  24.442   6.764
 5469POPC   C3A69353  23.722  24.537   7.064
 5469POPC   C4A69354  23.704  24.451   7.364
 5469POPC   C1B69355  23.508  24.674   6.464
 5469POPC   C2B69356  23.519  24.643   6.764
 5469POPC   C3B69357  23.469  24.676   7.064
 5469POPC   C4B69358  23.469  24.586   7.364
 5470POPC   NC369359  19.802  34.592   5.564
 5470POPC   PO469360  19.866  34.618   5.864
 5470POPC   GL169361  19.865  34.602   6.164
 5470POPC   GL269362  19.715  34.579   6.164
 5470POPC   C1A69363  19.836  34.586   6.464
 5470POPC   D2A69364  19.829  34.619   6.764
 5470POPC   C3A69365  19.833  34.597   7.064
 5470POPC   C4A69366  19.818  34.601   7.364
 5470POPC   C1B69367  19.595  34.612   6.464
 5470POPC   C2B69368  19.597  34.585   6.764
 5470POPC   C3B69369  19.610  34.588   7.064
 5470POPC   C4B69370  19.623  34.533   7.364
 5471POPC   NC369371  29.105  23.756   5.564
 5471POPC   PO469372  29.185  23.700   5.864
 5471POPC   GL169373  29.194  23.761   6.164
 5471POPC   GL269374  29.141  23.859   6.164
 5471POPC   C1A69375  29.162  23.702   6.464
 5471POPC   D2A69376  29.151  23.670   6.764
 5471POPC   C3A69377  29.137  23.732   7.064
 5471POPC   C4A69378  29.112  23.746   7.364
 5471POPC   C1B69379  29.067  23.919   6.464
 5471POPC   C2B69380  29.050  23.945   6.764
 5471POPC   C3B69381  29.054  23.968   7.064
 5471POPC   C4B69382  29.063  23.926   7.364
 5472POPC   NC369383  26.849  36.869   5.564
 5472POPC   PO469384  26.847  36.865   5.864
 5472POPC   GL169385  26.819  36.855   6.164
 5472POPC   GL269386  26.701  37.018   6.164
 5472POPC   C1A69387  26.843  36.905   6.464
 5472POPC   D2A69388  26.787  36.913   6.764
 5472POPC   C3A69389  26.796  36.919   7.064
 5472POPC   C4A69390  26.795  36.914   7.364
 5472POPC   C1B69391  26.663  37.115   6.464
 5472POPC   C2B69392  26.624  37.129   6.764
 5472POPC   C3B69393  26.672  37.090   7.064
 5472POPC   C4B69394  26.674  37.056   7.364
 5473POPC   NC369395  42.358  37.702   5.564
 5473POPC   PO469396  42.345  37.690   5.864
 5473POPC   GL169397  42.364  37.647   6.164
 5473POPC   GL269398  42.361  37.832   6.164
 5473POPC   C1A69399  42.380  37.714   6.464
 5473POPC   D2A69400  42.377  37.665   6.764
 5473POPC   C3A69401  42.380  37.662   7.064
 5473POPC   C4A69402  42.303  37.691   7.364
 5473POPC   C1B69403  42.343  37.910   6.464
 5473POPC   C2B69404  42.350  37.888   6.764
 5473POPC   C3B69405  42.308  37.927   7.064
 5473POPC   C4B69406  42.349  37.901   7.364
 5474POPC   NC369407  33.849  15.189   5.564
 5474POPC   PO469408  33.847  15.134   5.864
 5474POPC   GL169409  33.813  15.205   6.164
 5474POPC   GL269410  33.932  15.098   6.164
 5474POPC   C1A69411  33.838  15.134   6.464
 5474POPC   D2A69412  33.823  15.186   6.764
 5474POPC   C3A69413  33.788  15.187   7.064
 5474POPC   C4A69414  33.768  15.134   7.364
 5474POPC   C1B69415  34.060  15.041   6.464
 5474POPC   C2B69416  34.077  15.039   6.764
 5474POPC   C3B69417  34.066  15.123   7.064
 5474POPC   C4B69418  33.991  15.081   7.364
 5475POPC   NC369419  26.787   3.591   5.564
 5475POPC   PO469420  26.833   3.573   5.864
 5475POPC   GL169421  26.774   3.587   6.164
 5475POPC   GL269422  26.748   3.446   6.164
 5475POPC   C1A69423  26.864   3.501   6.464
 5475POPC   D2A69424  26.850   3.530   6.764
 5475POPC   C3A69425  26.806   3.546   7.064
 5475POPC   C4A69426  26.840   3.580   7.364
 5475POPC   C1B69427  26.766   3.328   6.464
 5475POPC   C2B69428  26.729   3.339   6.764
 5475POPC   C3B69429  26.725   3.284   7.064
 5475POPC   C4B69430  26.720   3.310   7.364
 5476POPC   NC369431   5.091  32.229   5.564
 5476POPC   PO469432   5.078  32.213   5.864
 5476POPC   GL169433   5.104  32.280   6.164
 5476POPC   GL269434   4.956  32.291   6.164
 5476POPC   C1A69435   5.060  32.217   6.464
 5476POPC   D2A69436   5.109  32.210   6.764
 5476POPC   C3A69437   5.143  32.240   7.064
 5476POPC   C4A69438   5.089  32.296   7.364
 5476POPC   C1B69439   4.849  32.233   6.464
 5476POPC   C2B69440   4.797  32.296   6.764
 5476POPC   C3B69441   4.824  32.314   7.064
 5476POPC   C4B69442   4.837  32.325   7.364
 5477POPC   NC369443  22.171  43.837   5.564
 5477POPC   PO469444  22.177  43.897   5.864
 5477POPC   GL169445  22.147  43.845   6.164
 5477POPC   GL269446  22.176  43.743   6.164
 5477POPC   C1A69447  22.201  43.884   6.464
 5477POPC   D2A69448  22.176  43.862   6.764
 5477POPC   C3A69449  22.200  43.873   7.064
 5477POPC   C4A69450  22.212  43.923   7.364
 5477POPC   C1B69451  22.117  43.659   6.464
 5477POPC   C2B69452  22.111  43.614   6.764
 5477POPC   C3B69453  22.131  43.674   7.064
 5477POPC   C4B69454  22.149  43.597   7.364
 5478POPC   NC369455  18.237  15.154   5.564
 5478POPC   PO469456  18.298  15.131   5.864
 5478POPC   GL169457  18.294  15.158   6.164
 5478POPC   GL269458  18.305  15.271   6.164
 5478POPC   C1A69459  18.265  15.149   6.464
 5478POPC   D2A69460  18.283  15.223   6.764
 5478POPC   C3A69461  18.265  15.194   7.064
 5478POPC   C4A69462  18.289  15.223   7.364
 5478POPC   C1B69463  18.418  15.445   6.464
 5478POPC   C2B69464  18.370  15.406   6.764
 5478POPC   C3B69465  18.419  15.394   7.064
 5478POPC   C4B69466  18.417  15.365   7.364
 5479POPC   NC369467  25.229   6.627   5.564
 5479POPC   PO469468  25.265   6.694   5.864
 5479POPC   GL169469  25.232   6.601   6.164
 5479POPC   GL269470  25.300   6.810   6.164
 5479POPC   C1A69471  25.222   6.680   6.464
 5479POPC   D2A69472  25.250   6.598   6.764
 5479POPC   C3A69473  25.315   6.648   7.064
 5479POPC   C4A69474  25.278   6.645   7.364
 5479POPC   C1B69475  25.390   6.912   6.464
 5479POPC   C2B69476  25.401   6.877   6.764
 5479POPC   C3B69477  25.359   6.830   7.064
 5479POPC   C4B69478  25.371   6.866   7.364
 5480POPC   NC369479  42.321  36.081   5.564
 5480POPC   PO469480  42.355  36.081   5.864
 5480POPC   GL169481  42.341  36.098   6.164
 5480POPC   GL269482  42.228  36.226   6.164
 5480POPC   C1A69483  42.377  36.134   6.464
 5480POPC   D2A69484  42.351  36.122   6.764
 5480POPC   C3A69485  42.300  36.163   7.064
 5480POPC   C4A69486  42.380  36.125   7.364
 5480POPC   C1B69487  42.158  36.318   6.464
 5480POPC   C2B69488  42.112  36.278   6.764
 5480POPC   C3B69489  42.186  36.319   7.064
 5480POPC   C4B69490  42.183  36.285   7.364
 5481POPC   NC369491  31.460  39.249   5.564
 5481POPC   PO469492  31.448  39.202   5.864
 5481POPC   GL169493  31.522  39.252   6.164
 5481POPC   GL269494  31.315  39.245   6.164
 5481POPC   C1A69495  31.423  39.225   6.464
 5481POPC   D2A69496  31.434  39.245   6.764
 5481POPC   C3A69497  31.476  39.270   7.064
 5481POPC   C4A69498  31.441  39.231   7.364
 5481POPC   C1B69499  31.218  39.195   6.464
 5481POPC   C2B69500  31.258  39.225   6.764
 5481POPC   C3B69501  31.252  39.207   7.064
 5481POPC   C4B69502  31.179  39.190   7.364
 5482POPC   NC369503   2.744  20.579   5.564
 5482POPC   PO469504   2.782  20.660   5.864
 5482POPC   GL169505   2.809  20.639   6.164
 5482POPC   GL269506   2.838  20.519   6.164
 5482POPC   C1A69507   2.718  20.582   6.464
 5482POPC   D2A69508   2.767  20.627   6.764
 5482POPC   C3A69509   2.803  20.647   7.064
 5482POPC   C4A69510   2.737  20.645   7.364
 5482POPC   C1B69511   2.934  20.385   6.464
 5482POPC   C2B69512   2.879  20.365   6.764
 5482POPC   C3B69513   2.864  20.393   7.064
 5482POPC   C4B69514   2.883  20.404   7.364
 5483POPC   NC369515   9.720   6.610   5.564
 5483POPC   PO469516   9.698   6.599   5.864
 5483POPC   GL169517   9.738   6.672   6.164
 5483POPC   GL269518   9.770   6.485   6.164
 5483POPC   C1A69519   9.777   6.648   6.464
 5483POPC   D2A69520   9.794   6.651   6.764
 5483POPC   C3A69521   9.750   6.688   7.064
 5483POPC   C4A69522   9.793   6.642   7.364
 5483POPC   C1B69523   9.897   6.422   6.464
 5483POPC   C2B69524   9.804   6.376   6.764
 5483POPC   C3B69525   9.870   6.430   7.064
 5483POPC   C4B69526   9.818   6.438   7.364
 5484POPC   NC369527  28.368  38.430   5.564
 5484POPC   PO469528  28.337  38.447   5.864
 5484POPC   GL169529  28.333  38.431   6.164
 5484POPC   GL269530  28.263  38.434   6.164
 5484POPC   C1A69531  28.362  38.420   6.464
 5484POPC   D2A69532  28.408  38.434   6.764
 5484POPC   C3A69533  28.409  38.461   7.064
 5484POPC   C4A69534  28.395  38.473   7.364
 5484POPC   C1B69535  28.086  38.440   6.464
 5484POPC   C2B69536  28.162  38.409   6.764
 5484POPC   C3B69537  28.099  38.412   7.064
 5484POPC   C4B69538  28.113  38.442   7.364
 5485POPC   NC369539  22.175   6.604   5.564
 5485POPC   PO469540  22.186   6.679   5.864
 5485POPC   GL169541  22.200   6.602   6.164
 5485POPC   GL269542  22.212   6.558   6.164
 5485POPC   C1A69543  22.186   6.630   6.464
 5485POPC   D2A69544  22.116   6.600   6.764
 5485POPC   C3A69545  22.204   6.607   7.064
 5485POPC   C4A69546  22.181   6.611   7.364
 5485POPC   C1B69547  22.264   6.410   6.464
 5485POPC   C2B69548  22.226   6.395   6.764
 5485POPC   C3B69549  22.218   6.392   7.064
 5485POPC   C4B69550  22.286   6.361   7.364
 5486POPC   NC369551  34.546   2.814   5.564
 5486POPC   PO469552  34.622   2.760   5.864
 5486POPC   GL169553  34.526   2.740   6.164
 5486POPC   GL269554  34.519   2.901   6.164
 5486POPC   C1A69555  34.544   2.812   6.464
 5486POPC   D2A69556  34.617   2.733   6.764
 5486POPC   C3A69557  34.557   2.772   7.064
 5486POPC   C4A69558  34.527   2.720   7.364
 5486POPC   C1B69559  34.434   3.006   6.464
 5486POPC   C2B69560  34.435   2.971   6.764
 5486POPC   C3B69561  34.418   2.992   7.064
 5486POPC   C4B69562  34.417   3.016   7.364
 5487POPC   NC369563  29.111   9.738   5.564
 5487POPC   PO469564  29.193   9.712   5.864
 5487POPC   GL169565  29.171   9.778   6.164
 5487POPC   GL269566  28.997   9.797   6.164
 5487POPC   C1A69567  29.112   9.736   6.464
 5487POPC   D2A69568  29.100   9.741   6.764
 5487POPC   C3A69569  29.106   9.748   7.064
 5487POPC   C4A69570  29.170   9.724   7.364
 5487POPC   C1B69571  28.869   9.858   6.464
 5487POPC   C2B69572  28.940   9.788   6.764
 5487POPC   C3B69573  28.858   9.804   7.064
 5487POPC   C4B69574  28.878   9.860   7.364
 5488POPC   NC369575   8.935  18.269   5.564
 5488POPC   PO469576   8.958  18.265   5.864
 5488POPC   GL169577   8.928  18.263   6.164
 5488POPC   GL269578   9.051  18.371   6.164
 5488POPC   C1A69579   8.936  18.277   6.464
 5488POPC   D2A69580   8.952  18.273   6.764
 5488POPC   C3A69581   8.947  18.286   7.064
 5488POPC   C4A69582   8.930  18.286   7.364
 5488POPC   C1B69583   9.079  18.516   6.464
 5488POPC   C2B69584   9.058  18.491   6.764
 5488POPC   C3B69585   9.069  18.520   7.064
 5488POPC   C4B69586   9.119  18.527   7.364
 5489POPC   NC369587  12.115  32.230   5.564
 5489POPC   PO469588  12.037  32.216   5.864
 5489POPC   GL169589  12.122  32.222   6.164
 5489POPC   GL269590  12.104  32.153   6.164
 5489POPC   C1A69591  12.075  32.230   6.464
 5489POPC   D2A69592  12.050  32.280   6.764
 5489POPC   C3A69593  12.060  32.253   7.064
 5489POPC   C4A69594  12.032  32.212   7.364
 5489POPC   C1B69595  12.109  32.000   6.464
 5489POPC   C2B69596  12.109  32.016   6.764
 5489POPC   C3B69597  12.158  31.963   7.064
 5489POPC   C4B69598  12.093  31.982   7.364
 5490POPC   NC369599  15.193  24.530   5.564
 5490POPC   PO469600  15.136  24.451   5.864
 5490POPC   GL169601  15.222  24.508   6.164
 5490POPC   GL269602  15.006  24.461   6.164
 5490POPC   C1A69603  15.224  24.485   6.464
 5490POPC   D2A69604  15.186  24.479   6.764
 5490POPC   C3A69605  15.226  24.501   7.064
 5490POPC   C4A69606  15.178  24.527   7.364
 5490POPC   C1B69607  14.895  24.478   6.464
 5490POPC   C2B69608  14.914  24.481   6.764
 5490POPC   C3B69609  14.957  24.483   7.064
 5490POPC   C4B69610  14.882  24.529   7.364
 5491POPC   NC369611   5.134  23.718   5.564
 5491POPC   PO469612   5.097  23.746   5.864
 5491POPC   GL169613   5.080  23.665   6.164
 5491POPC   GL269614   5.034  23.837   6.164
 5491POPC   C1A69615   5.061  23.677   6.464
 5491POPC   D2A69616   5.046  23.707   6.764
 5491POPC   C3A69617   5.044  23.728   7.064
 5491POPC   C4A69618   5.134  23.744   7.364
 5491POPC   C1B69619   4.953  23.955   6.464
 5491POPC   C2B69620   5.012  23.905   6.764
 5491POPC   C3B69621   4.927  23.908   7.064
 5491POPC   C4B69622   4.976  23.938   7.364
 5492POPC   NC369623   4.332  16.702   5.564
 5492POPC   PO469624   4.306  16.778   5.864
 5492POPC   GL169625   4.316  16.780   6.164
 5492POPC   GL269626   4.393  16.644   6.164
 5492POPC   C1A69627   4.330  16.747   6.464
 5492POPC   D2A69628   4.323  16.763   6.764
 5492POPC   C3A69629   4.308  16.764   7.064
 5492POPC   C4A69630   4.286  16.723   7.364
 5492POPC   C1B69631   4.540  16.530   6.464
 5492POPC   C2B69632   4.535  16.574   6.764
 5492POPC   C3B69633   4.520  16.573   7.064
 5492POPC   C4B69634   4.498  16.528   7.364
 5493POPC   NC369635  36.151   0.484   5.564
 5493POPC   PO469636  36.155   0.461   5.864
 5493POPC   GL169637  36.079   0.485   6.164
 5493POPC   GL269638  35.984   0.416   6.164
 5493POPC   C1A69639  36.135   0.423   6.464
 5493POPC   D2A69640  36.089   0.410   6.764
 5493POPC   C3A69641  36.090   0.427   7.064
 5493POPC   C4A69642  36.081   0.410   7.364
 5493POPC   C1B69643  35.839   0.409   6.464
 5493POPC   C2B69644  35.862   0.449   6.764
 5493POPC   C3B69645  35.901   0.451   7.064
 5493POPC   C4B69646  35.835   0.486   7.364
 5494POPC   NC369647  29.902  12.891   5.564
 5494POPC   PO469648  29.940  12.849   5.864
 5494POPC   GL169649  29.932  12.871   6.164
 5494POPC   GL269650  29.918  12.778   6.164
 5494POPC   C1A69651  29.946  12.897   6.464
 5494POPC   D2A69652  29.939  12.901   6.764
 5494POPC   C3A69653  29.925  12.858   7.064
 5494POPC   C4A69654  29.896  12.895   7.364
 5494POPC   C1B69655  30.025  12.627   6.464
 5494POPC   C2B69656  29.950  12.657   6.764
 5494POPC   C3B69657  29.962  12.656   7.064
 5494POPC   C4B69658  30.021  12.617   7.364
 5495POPC   NC369659   2.772   5.892   5.564
 5495POPC   PO469660   2.753   5.872   5.864
 5495POPC   GL169661   2.771   5.841   6.164
 5495POPC   GL269662   2.676   5.828   6.164
 5495POPC   C1A69663   2.741   5.904   6.464
 5495POPC   D2A69664   2.723   5.901   6.764
 5495POPC   C3A69665   2.767   5.913   7.064
 5495POPC   C4A69666   2.799   5.905   7.364
 5495POPC   C1B69667   2.534   5.906   6.464
 5495POPC   C2B69668   2.475   5.825   6.764
 5495POPC   C3B69669   2.513   5.817   7.064
 5495POPC   C4B69670   2.503   5.884   7.364
 5496POPC   NC369671  43.866   1.191   5.564
 5496POPC   PO469672  43.864   1.205   5.864
 5496POPC   GL169673  43.841   1.244   6.164
 5496POPC   GL269674  43.932   1.044   6.164
 5496POPC   C1A69675  43.892   1.233   6.464
 5496POPC   D2A69676  43.933   1.217   6.764
 5496POPC   C3A69677  43.880   1.189   7.064
 5496POPC   C4A69678  43.931   1.251   7.364
 5496POPC   C1B69679  43.900   0.964   6.464
 5496POPC   C2B69680  43.952   0.956   6.764
 5496POPC   C3B69681  43.945   0.963   7.064
 5496POPC   C4B69682  43.907   0.989   7.364
 5497POPC   NC369683   6.681  22.131   5.564
 5497POPC   PO469684   6.631  22.137   5.864
 5497POPC   GL169685   6.623  22.122   6.164
 5497POPC   GL269686   6.709  22.196   6.164
 5497POPC   C1A69687   6.602  22.209   6.464
 5497POPC   D2A69688   6.614  22.193   6.764
 5497POPC   C3A69689   6.671  22.117   7.064
 5497POPC   C4A69690   6.624  22.117   7.364
 5497POPC   C1B69691   6.902  22.253   6.464
 5497POPC   C2B69692   6.901  22.226   6.764
 5497POPC   C3B69693   6.872  22.271   7.064
 5497POPC   C4B69694   6.915  22.277   7.364
 5498POPC   NC369695  33.013  28.373   5.564
 5498POPC   PO469696  32.975  28.410   5.864
 5498POPC   GL169697  33.061  28.328   6.164
 5498POPC   GL269698  32.877  28.380   6.164
 5498POPC   C1A69699  33.065  28.334   6.464
 5498POPC   D2A69700  33.040  28.335   6.764
 5498POPC   C3A69701  33.022  28.388   7.064
 5498POPC   C4A69702  33.004  28.342   7.364
 5498POPC   C1B69703  32.760  28.338   6.464
 5498POPC   C2B69704  32.753  28.372   6.764
 5498POPC   C3B69705  32.777  28.424   7.064
 5498POPC   C4B69706  32.760  28.426   7.364
 5499POPC   NC369707  35.365  16.743   5.564
 5499POPC   PO469708  35.370  16.762   5.864
 5499POPC   GL169709  35.376  16.683   6.164
 5499POPC   GL269710  35.420  16.606   6.164
 5499POPC   C1A69711  35.311  16.766   6.464
 5499POPC   D2A69712  35.306  16.742   6.764
 5499POPC   C3A69713  35.333  16.687   7.064
 5499POPC   C4A69714  35.379  16.727   7.364
 5499POPC   C1B69715  35.396  16.465   6.464
 5499POPC   C2B69716  35.449  16.476   6.764
 5499POPC   C3B69717  35.432  16.486   7.064
 5499POPC   C4B69718  35.427  16.515   7.364
 5500POPC   NC369719  30.678  15.143   5.564
 5500POPC   PO469720  30.652  15.207   5.864
 5500POPC   GL169721  30.710  15.166   6.164
 5500POPC   GL269722  30.662  15.093   6.164
 5500POPC   C1A69723  30.683  15.166   6.464
 5500POPC   D2A69724  30.676  15.142   6.764
 5500POPC   C3A69725  30.736  15.165   7.064
 5500POPC   C4A69726  30.679  15.153   7.364
 5500POPC   C1B69727  30.616  14.915   6.464
 5500POPC   C2B69728  30.593  14.966   6.764
 5500POPC   C3B69729  30.584  14.984   7.064
 5500POPC   C4B69730  30.621  14.990   7.364
 5501POPC   NC369731  43.113   0.480   5.564
 5501POPC   PO469732  43.100   0.457   5.864
 5501POPC   GL169733  43.062   0.423   6.164
 5501POPC   GL269734  43.150   0.558   6.164
 5501POPC   C1A69735  43.154   0.405   6.464
 5501POPC   D2A69736  43.085   0.452   6.764
 5501POPC   C3A69737  43.105   0.404   7.064
 5501POPC   C4A69738  43.091   0.415   7.364
 5501POPC   C1B69739  43.260   0.686   6.464
 5501POPC   C2B69740  43.225   0.607   6.764
 5501POPC   C3B69741  43.212   0.667   7.064
 5501POPC   C4B69742  43.262   0.667   7.364
 5502POPC   NC369743   3.582  39.965   5.564
 5502POPC   PO469744   3.578  39.998   5.864
 5502POPC   GL169745   3.513  39.971   6.164
 5502POPC   GL269746   3.411  39.994   6.164
 5502POPC   C1A69747   3.574  40.009   6.464
 5502POPC   D2A69748   3.575  40.012   6.764
 5502POPC   C3A69749   3.577  40.040   7.064
 5502POPC   C4A69750   3.563  39.975   7.364
 5502POPC   C1B69751   3.274  39.992   6.464
 5502POPC   C2B69752   3.314  40.021   6.764
 5502POPC   C3B69753   3.332  39.968   7.064
 5502POPC   C4B69754   3.314  39.995   7.364
 5503POPC   NC369755  34.527  28.353   5.564
 5503POPC   PO469756  34.588  28.383   5.864
 5503POPC   GL169757  34.609  28.343   6.164
 5503POPC   GL269758  34.646  28.424   6.164
 5503POPC   C1A69759  34.575  28.327   6.464
 5503POPC   D2A69760  34.605  28.379   6.764
 5503POPC   C3A69761  34.547  28.350   7.064
 5503POPC   C4A69762  34.596  28.329   7.364
 5503POPC   C1B69763  34.755  28.505   6.464
 5503POPC   C2B69764  34.762  28.504   6.764
 5503POPC   C3B69765  34.726  28.542   7.064
 5503POPC   C4B69766  34.734  28.523   7.364
 5504POPC   NC369767   7.406  17.545   5.564
 5504POPC   PO469768   7.437  17.496   5.864
 5504POPC   GL169769   7.466  17.479   6.164
 5504POPC   GL269770   7.493  17.653   6.164
 5504POPC   C1A69771   7.387  17.486   6.464
 5504POPC   D2A69772   7.448  17.510   6.764
 5504POPC   C3A69773   7.421  17.479   7.064
 5504POPC   C4A69774   7.423  17.489   7.364
 5504POPC   C1B69775   7.593  17.682   6.464
 5504POPC   C2B69776   7.587  17.769   6.764
 5504POPC   C3B69777   7.527  17.710   7.064
 5504POPC   C4B69778   7.556  17.719   7.364
 5505POPC   NC369779  14.360  30.705   5.564
 5505POPC   PO469780  14.427  30.738   5.864
 5505POPC   GL169781  14.413  30.714   6.164
 5505POPC   GL269782  14.357  30.827   6.164
 5505POPC   C1A69783  14.403  30.741   6.464
 5505POPC   D2A69784  14.364  30.693   6.764
 5505POPC   C3A69785  14.426  30.706   7.064
 5505POPC   C4A69786  14.392  30.709   7.364
 5505POPC   C1B69787  14.318  30.967   6.464
 5505POPC   C2B69788  14.323  30.899   6.764
 5505POPC   C3B69789  14.336  30.970   7.064
 5505POPC   C4B69790  14.410  30.948   7.364
 5506POPC   NC369791  40.054  22.160   5.564
 5506POPC   PO469792  40.029  22.211   5.864
 5506POPC   GL169793  40.051  22.159   6.164
 5506POPC   GL269794  39.855  22.114   6.164
 5506POPC   C1A69795  39.983  22.127   6.464
 5506POPC   D2A69796  40.011  22.198   6.764
 5506POPC   C3A69797  40.019  22.157   7.064
 5506POPC   C4A69798  39.986  22.136   7.364
 5506POPC   C1B69799  39.793  22.104   6.464
 5506POPC   C2B69800  39.709  22.175   6.764
 5506POPC   C3B69801  39.749  22.159   7.064
 5506POPC   C4B69802  39.722  22.106   7.364
 5507POPC   NC369803  15.928  34.539   5.564
 5507POPC   PO469804  15.929  34.557   5.864
 5507POPC   GL169805  15.968  34.587   6.164
 5507POPC   GL269806  15.906  34.490   6.164
 5507POPC   C1A69807  15.935  34.566   6.464
 5507POPC   D2A69808  15.957  34.545   6.764
 5507POPC   C3A69809  15.928  34.602   7.064
 5507POPC   C4A69810  15.967  34.574   7.364
 5507POPC   C1B69811  15.853  34.383   6.464
 5507POPC   C2B69812  15.794  34.339   6.764
 5507POPC   C3B69813  15.826  34.309   7.064
 5507POPC   C4B69814  15.793  34.352   7.364
 5508POPC   NC369815  43.116  27.616   5.564
 5508POPC   PO469816  43.159  27.587   5.864
 5508POPC   GL169817  43.100  27.566   6.164
 5508POPC   GL269818  43.199  27.656   6.164
 5508POPC   C1A69819  43.125  27.619   6.464
 5508POPC   D2A69820  43.101  27.548   6.764
 5508POPC   C3A69821  43.109  27.633   7.064
 5508POPC   C4A69822  43.066  27.548   7.364
 5508POPC   C1B69823  43.290  27.741   6.464
 5508POPC   C2B69824  43.277  27.724   6.764
 5508POPC   C3B69825  43.324  27.756   7.064
 5508POPC   C4B69826  43.341  27.711   7.364
 5509POPC   NC369827  21.421  25.243   5.564
 5509POPC   PO469828  21.342  25.231   5.864
 5509POPC   GL169829  21.381  25.297   6.164
 5509POPC   GL269830  21.368  25.417   6.164
 5509POPC   C1A69831  21.415  25.269   6.464
 5509POPC   D2A69832  21.356  25.293   6.764
 5509POPC   C3A69833  21.364  25.247   7.064
 5509POPC   C4A69834  21.364  25.224   7.364
 5509POPC   C1B69835  21.378  25.534   6.464
 5509POPC   C2B69836  21.382  25.495   6.764
 5509POPC   C3B69837  21.328  25.503   7.064
 5509POPC   C4B69838  21.363  25.517   7.364
 5510POPC   NC369839  16.002  41.595   5.564
 5510POPC   PO469840  15.936  41.575   5.864
 5510POPC   GL169841  15.945  41.521   6.164
 5510POPC   GL269842  15.799  41.540   6.164
 5510POPC   C1A69843  15.950  41.601   6.464
 5510POPC   D2A69844  15.979  41.583   6.764
 5510POPC   C3A69845  15.911  41.515   7.064
 5510POPC   C4A69846  15.938  41.511   7.364
 5510POPC   C1B69847  15.736  41.562   6.464
 5510POPC   C2B69848  15.682  41.530   6.764
 5510POPC   C3B69849  15.664  41.540   7.064
 5510POPC   C4B69850  15.700  41.556   7.364
 5511POPC   NC369851  19.848   2.719   5.564
 5511POPC   PO469852  19.785   2.811   5.864
 5511POPC   GL169853  19.854   2.813   6.164
 5511POPC   GL269854  19.971   2.806   6.164
 5511POPC   C1A69855  19.853   2.727   6.464
 5511POPC   D2A69856  19.791   2.798   6.764
 5511POPC   C3A69857  19.844   2.784   7.064
 5511POPC   C4A69858  19.786   2.751   7.364
 5511POPC   C1B69859  20.076   2.773   6.464
 5511POPC   C2B69860  20.043   2.767   6.764
 5511POPC   C3B69861  20.118   2.858   7.064
 5511POPC   C4B69862  20.048   2.818   7.364
 5512POPC   NC369863  12.857  18.262   5.564
 5512POPC   PO469864  12.844  18.244   5.864
 5512POPC   GL169865  12.886  18.271   6.164
 5512POPC   GL269866  12.905  18.157   6.164
 5512POPC   C1A69867  12.812  18.315   6.464
 5512POPC   D2A69868  12.808  18.282   6.764
 5512POPC   C3A69869  12.868  18.262   7.064
 5512POPC   C4A69870  12.844  18.253   7.364
 5512POPC   C1B69871  12.945  18.038   6.464
 5512POPC   C2B69872  12.932  18.025   6.764
 5512POPC   C3B69873  12.986  18.034   7.064
 5512POPC   C4B69874  12.972  18.005   7.364
 5513POPC   NC369875  43.924  31.458   5.564
 5513POPC   PO469876  43.924  31.501   5.864
 5513POPC   GL169877  43.863  31.512   6.164
 5513POPC   GL269878  44.001  31.381   6.164
 5513POPC   C1A69879  43.919  31.474   6.464
 5513POPC   D2A69880  43.930  31.460   6.764
 5513POPC   C3A69881  43.873  31.464   7.064
 5513POPC   C4A69882  43.893  31.467   7.364
 5513POPC   C1B69883  44.128  31.299   6.464
 5513POPC   C2B69884  44.086  31.293   6.764
 5513POPC   C3B69885  44.133  31.296   7.064
 5513POPC   C4B69886  44.048  31.329   7.364
 5514POPC   NC369887  22.117  25.302   5.564
 5514POPC   PO469888  22.200  25.227   5.864
 5514POPC   GL169889  22.179  25.241   6.164
 5514POPC   GL269890  22.058  25.207   6.164
 5514POPC   C1A69891  22.207  25.272   6.464
 5514POPC   D2A69892  22.163  25.218   6.764
 5514POPC   C3A69893  22.140  25.280   7.064
 5514POPC   C4A69894  22.138  25.236   7.364
 5514POPC   C1B69895  22.010  25.107   6.464
 5514POPC   C2B69896  21.945  25.100   6.764
 5514POPC   C3B69897  22.008  25.098   7.064
 5514POPC   C4B69898  21.953  25.131   7.364
 5515POPC   NC369899   0.458  14.453   5.564
 5515POPC   PO469900   0.416  14.363   5.864
 5515POPC   GL169901   0.468  14.443   6.164
 5515POPC   GL269902   0.419  14.474   6.164
 5515POPC   C1A69903   0.417  14.369   6.464
 5515POPC   D2A69904   0.453  14.423   6.764
 5515POPC   C3A69905   0.427  14.403   7.064
 5515POPC   C4A69906   0.461  14.357   7.364
 5515POPC   C1B69907   0.344  14.658   6.464
 5515POPC   C2B69908   0.353  14.627   6.764
 5515POPC   C3B69909   0.328  14.579   7.064
 5515POPC   C4B69910   0.306  14.632   7.364
 5516POPC   NC369911  13.673  26.082   5.564
 5516POPC   PO469912  13.635  25.999   5.864
 5516POPC   GL169913  13.591  26.029   6.164
 5516POPC   GL269914  13.548  26.134   6.164
 5516POPC   C1A69915  13.645  26.014   6.464
 5516POPC   D2A69916  13.592  26.080   6.764
 5516POPC   C3A69917  13.663  26.024   7.064
 5516POPC   C4A69918  13.599  26.074   7.364
 5516POPC   C1B69919  13.409  26.100   6.464
 5516POPC   C2B69920  13.391  26.093   6.764
 5516POPC   C3B69921  13.435  26.174   7.064
 5516POPC   C4B69922  13.420  26.142   7.364
 5517POPC   NC369923  43.886  13.675   5.564
 5517POPC   PO469924  43.844  13.642   5.864
 5517POPC   GL169925  43.906  13.629   6.164
 5517POPC   GL269926  43.835  13.479   6.164
 5517POPC   C1A69927  43.916  13.650   6.464
 5517POPC   D2A69928  43.863  13.630   6.764
 5517POPC   C3A69929  43.886  13.632   7.064
 5517POPC   C4A69930  43.888  13.654   7.364
 5517POPC   C1B69931  43.758  13.349   6.464
 5517POPC   C2B69932  43.782  13.399   6.764
 5517POPC   C3B69933  43.779  13.396   7.064
 5517POPC   C4B69934  43.794  13.433   7.364
 5518POPC   NC369935  28.405  40.049   5.564
 5518POPC   PO469936  28.332  40.000   5.864
 5518POPC   GL169937  28.372  40.010   6.164
 5518POPC   GL269938  28.432  39.853   6.164
 5518POPC   C1A69939  28.397  40.045   6.464
 5518POPC   D2A69940  28.372  40.008   6.764
 5518POPC   C3A69941  28.341  39.988   7.064
 5518POPC   C4A69942  28.375  40.006   7.364
 5518POPC   C1B69943  28.416  39.760   6.464
 5518POPC   C2B69944  28.411  39.808   6.764
 5518POPC   C3B69945  28.493  39.783   7.064
 5518POPC   C4B69946  28.474  39.778   7.364
 5519POPC   NC369947  24.465  37.677   5.564
 5519POPC   PO469948  24.531  37.642   5.864
 5519POPC   GL169949  24.482  37.629   6.164
 5519POPC   GL269950  24.448  37.839   6.164
 5519POPC   C1A69951  24.511  37.700   6.464
 5519POPC   D2A69952  24.442  37.643   6.764
 5519POPC   C3A69953  24.519  37.646   7.064
 5519POPC   C4A69954  24.537  37.638   7.364
 5519POPC   C1B69955  24.511  37.976   6.464
 5519POPC   C2B69956  24.449  37.907   6.764
 5519POPC   C3B69957  24.482  37.931   7.064
 5519POPC   C4B69958  24.485  37.927   7.364
 5520POPC   NC369959   3.563  24.442   5.564
 5520POPC   PO469960   3.569  24.505   5.864
 5520POPC   GL169961   3.549  24.503   6.164
 5520POPC   GL269962   3.644  24.354   6.164
 5520POPC   C1A69963   3.565  24.502   6.464
 5520POPC   D2A69964   3.589  24.513   6.764
 5520POPC   C3A69965   3.555  24.481   7.064
 5520POPC   C4A69966   3.529  24.513   7.364
 5520POPC   C1B69967   3.681  24.238   6.464
 5520POPC   C2B69968   3.717  24.308   6.764
 5520POPC   C3B69969   3.700  24.266   7.064
 5520POPC   C4B69970   3.710  24.248   7.364
 5521POPC   NC369971  33.056  43.143   5.564
 5521POPC   PO469972  32.997  43.093   5.864
 5521POPC   GL169973  33.024  43.141   6.164
 5521POPC   GL269974  32.962  43.031   6.164
 5521POPC   C1A69975  33.044  43.093   6.464
 5521POPC   D2A69976  33.007  43.129   6.764
 5521POPC   C3A69977  33.056  43.118   7.064
 5521POPC   C4A69978  33.056  43.089   7.364
 5521POPC   C1B69979  32.861  42.863   6.464
 5521POPC   C2B69980  32.837  42.889   6.764
 5521POPC   C3B69981  32.852  42.916   7.064
 5521POPC   C4B69982  32.876  42.881   7.364
 5522POPC   NC369983  25.304  21.343   5.564
 5522POPC   PO469984  25.313  21.435   5.864
 5522POPC   GL169985  25.258  21.369   6.164
 5522POPC   GL269986  25.188  21.512   6.164
 5522POPC   C1A69987  25.302  21.363   6.464
 5522POPC   D2A69988  25.266  21.425   6.764
 5522POPC   C3A69989  25.276  21.431   7.064
 5522POPC   C4A69990  25.301  21.338   7.364
 5522POPC   C1B69991  25.192  21.673   6.464
 5522POPC   C2B69992  25.168  21.619   6.764
 5522POPC   C3B69993  25.203  21.632   7.064
 5522POPC   C4B69994  25.203  21.620   7.364
 5523POPC   NC369995   2.742  36.162   5.564
 5523POPC   PO469996   2.748  36.141   5.864
 5523POPC   GL169997   2.810  36.085   6.164
 5523POPC   GL269998   2.735  36.263   6.164
 5523POPC   C1A69999   2.764  36.173   6.464
 5523POPC   D2A70000   2.771  36.175   6.764
 5523POPC   C3A70001   2.773  36.147   7.064
 5523POPC   C4A70002   2.774  36.163   7.364
 5523POPC   C1B70003   2.769  36.389   6.464
 5523POPC   C2B70004   2.771  36.406   6.764
 5523POPC   C3B70005   2.772  36.345   7.064
 5523POPC   C4B70006   2.810  36.332   7.364
 5524POPC   NC370007   6.631  35.343   5.564
 5524POPC   PO470008   6.647  35.327   5.864
 5524POPC   GL170009   6.609  35.320   6.164
 5524POPC   GL270010   6.660  35.196   6.164
 5524POPC   C1A70011   6.690  35.386   6.464
 5524POPC   D2A70012   6.603  35.366   6.764
 5524POPC   C3A70013   6.639  35.314   7.064
 5524POPC   C4A70014   6.673  35.350   7.364
 5524POPC   C1B70015   6.780  35.156   6.464
 5524POPC   C2B70016   6.739  35.126   6.764
 5524POPC   C3B70017   6.764  35.084   7.064
 5524POPC   C4B70018   6.802  35.114   7.364
 5525POPC   NC370019   5.044  39.978   5.564
 5525POPC   PO470020   5.088  39.958   5.864
 5525POPC   GL170021   5.132  40.054   6.164
 5525POPC   GL270022   4.945  39.970   6.164
 5525POPC   C1A70023   5.102  40.032   6.464
 5525POPC   D2A70024   5.074  40.043   6.764
 5525POPC   C3A70025   5.053  40.034   7.064
 5525POPC   C4A70026   5.090  40.025   7.364
 5525POPC   C1B70027   4.907  39.860   6.464
 5525POPC   C2B70028   4.918  39.816   6.764
 5525POPC   C3B70029   4.937  39.862   7.064
 5525POPC   C4B70030   4.897  39.903   7.364
 5526POPC   NC370031   2.775  21.351   5.564
 5526POPC   PO470032   2.809  21.395   5.864
 5526POPC   GL170033   2.771  21.378   6.164
 5526POPC   GL270034   2.838  21.232   6.164
 5526POPC   C1A70035   2.812  21.435   6.464
 5526POPC   D2A70036   2.734  21.396   6.764
 5526POPC   C3A70037   2.718  21.413   7.064
 5526POPC   C4A70038   2.790  21.379   7.364
 5526POPC   C1B70039   2.890  21.192   6.464
 5526POPC   C2B70040   2.873  21.160   6.764
 5526POPC   C3B70041   2.862  21.161   7.064
 5526POPC   C4B70042   2.837  21.123   7.364
 5527POPC   NC370043   1.991  30.745   5.564
 5527POPC   PO470044   1.953  30.735   5.864
 5527POPC   GL170045   2.034  30.671   6.164
 5527POPC   GL270046   1.954  30.624   6.164
 5527POPC   C1A70047   2.004  30.680   6.464
 5527POPC   D2A70048   1.993  30.706   6.764
 5527POPC   C3A70049   2.036  30.668   7.064
 5527POPC   C4A70050   1.981  30.654   7.364
 5527POPC   C1B70051   1.908  30.439   6.464
 5527POPC   C2B70052   1.843  30.438   6.764
 5527POPC   C3B70053   1.896  30.497   7.064
 5527POPC   C4B70054   1.865  30.463   7.364
 5528POPC   NC370055  21.386  30.649   5.564
 5528POPC   PO470056  21.371  30.718   5.864
 5528POPC   GL170057  21.352  30.664   6.164
 5528POPC   GL270058  21.285  30.740   6.164
 5528POPC   C1A70059  21.407  30.686   6.464
 5528POPC   D2A70060  21.402  30.710   6.764
 5528POPC   C3A70061  21.431  30.657   7.064
 5528POPC   C4A70062  21.412  30.722   7.364
 5528POPC   C1B70063  21.168  30.768   6.464
 5528POPC   C2B70064  21.100  30.706   6.764
 5528POPC   C3B70065  21.091  30.722   7.064
 5528POPC   C4B70066  21.094  30.685   7.364
 5529POPC   NC370067  22.924  15.980   5.564
 5529POPC   PO470068  22.913  15.951   5.864
 5529POPC   GL170069  22.927  15.925   6.164
 5529POPC   GL270070  22.843  15.928   6.164
 5529POPC   C1A70071  22.919  15.946   6.464
 5529POPC   D2A70072  22.938  15.968   6.764
 5529POPC   C3A70073  22.922  15.978   7.064
 5529POPC   C4A70074  22.965  15.993   7.364
 5529POPC   C1B70075  22.727  15.917   6.464
 5529POPC   C2B70076  22.686  15.936   6.764
 5529POPC   C3B70077  22.721  15.921   7.064
 5529POPC   C4B70078  22.639  15.959   7.364
 5530POPC   NC370079  30.723  29.937   5.564
 5530POPC   PO470080  30.658  29.933   5.864
 5530POPC   GL170081  30.717  29.932   6.164
 5530POPC   GL270082  30.551  29.907   6.164
 5530POPC   C1A70083  30.672  29.892   6.464
 5530POPC   D2A70084  30.648  29.932   6.764
 5530POPC   C3A70085  30.712  29.899   7.064
 5530POPC   C4A70086  30.742  29.926   7.364
 5530POPC   C1B70087  30.456  29.980   6.464
 5530POPC   C2B70088  30.415  29.981   6.764
 5530POPC   C3B70089  30.469  29.973   7.064
 5530POPC   C4B70090  30.421  30.017   7.364
 5531POPC   NC370091  12.060  36.882   5.564
 5531POPC   PO470092  12.033  36.933   5.864
 5531POPC   GL170093  12.094  36.908   6.164
 5531POPC   GL270094  12.208  36.888   6.164
 5531POPC   C1A70095  12.083  36.865   6.464
 5531POPC   D2A70096  12.034  36.953   6.764
 5531POPC   C3A70097  12.078  36.918   7.064
 5531POPC   C4A70098  12.034  36.897   7.364
 5531POPC   C1B70099  12.360  36.880   6.464
 5531POPC   C2B70100  12.365  36.969   6.764
 5531POPC   C3B70101  12.353  36.923   7.064
 5531POPC   C4B70102  12.295  36.903   7.364
 5532POPC   NC370103  15.210  39.247   5.564
 5532POPC   PO470104  15.159  39.236   5.864
 5532POPC   GL170105  15.207  39.266   6.164
 5532POPC   GL270106  15.195  39.306   6.164
 5532POPC   C1A70107  15.211  39.196   6.464
 5532POPC   D2A70108  15.197  39.209   6.764
 5532POPC   C3A70109  15.193  39.220   7.064
 5532POPC   C4A70110  15.213  39.201   7.364
 5532POPC   C1B70111  15.244  39.438   6.464
 5532POPC   C2B70112  15.200  39.436   6.764
 5532POPC   C3B70113  15.228  39.489   7.064
 5532POPC   C4B70114  15.193  39.474   7.364
 5533POPC   NC370115  19.795  19.825   5.564
 5533POPC   PO470116  19.861  19.823   5.864
 5533POPC   GL170117  19.857  19.787   6.164
 5533POPC   GL270118  19.846  19.988   6.164
 5533POPC   C1A70119  19.884  19.834   6.464
 5533POPC   D2A70120  19.828  19.857   6.764
 5533POPC   C3A70121  19.857  19.795   7.064
 5533POPC   C4A70122  19.854  19.790   7.364
 5533POPC   C1B70123  19.908  20.041   6.464
 5533POPC   C2B70124  19.985  20.036   6.764
 5533POPC   C3B70125  19.955  20.029   7.064
 5533POPC   C4B70126  19.961  20.041   7.364
 5534POPC   NC370127   6.641  25.271   5.564
 5534POPC   PO470128   6.639  25.262   5.864
 5534POPC   GL170129   6.609  25.249   6.164
 5534POPC   GL270130   6.592  25.146   6.164
 5534POPC   C1A70131   6.618  25.267   6.464
 5534POPC   D2A70132   6.604  25.314   6.764
 5534POPC   C3A70133   6.692  25.302   7.064
 5534POPC   C4A70134   6.691  25.254   7.364
 5534POPC   C1B70135   6.561  24.990   6.464
 5534POPC   C2B70136   6.539  25.078   6.764
 5534POPC   C3B70137   6.562  25.037   7.064
 5534POPC   C4B70138   6.562  25.070   7.364
 5535POPC   NC370139  34.532  19.033   5.564
 5535POPC   PO470140  34.608  19.037   5.864
 5535POPC   GL170141  34.587  19.048   6.164
 5535POPC   GL270142  34.691  19.185   6.164
 5535POPC   C1A70143  34.573  19.040   6.464
 5535POPC   D2A70144  34.573  19.018   6.764
 5535POPC   C3A70145  34.543  19.087   7.064
 5535POPC   C4A70146  34.529  19.091   7.364
 5535POPC   C1B70147  34.759  19.202   6.464
 5535POPC   C2B70148  34.793  19.187   6.764
 5535POPC   C3B70149  34.787  19.200   7.064
 5535POPC   C4B70150  34.732  19.269   7.364
 5536POPC   NC370151  10.484   1.206   5.564
 5536POPC   PO470152  10.502   1.194   5.864
 5536POPC   GL170153  10.563   1.187   6.164
 5536POPC   GL270154  10.606   1.258   6.164
 5536POPC   C1A70155  10.567   1.188   6.464
 5536POPC   D2A70156  10.491   1.227   6.764
 5536POPC   C3A70157  10.568   1.228   7.064
 5536POPC   C4A70158  10.546   1.176   7.364
 5536POPC   C1B70159  10.783   1.293   6.464
 5536POPC   C2B70160  10.749   1.323   6.764
 5536POPC   C3B70161  10.717   1.358   7.064
 5536POPC   C4B70162  10.729   1.370   7.364
 5537POPC   NC370163   6.629  16.759   5.564
 5537POPC   PO470164   6.681  16.751   5.864
 5537POPC   GL170165   6.670  16.699   6.164
 5537POPC   GL270166   6.674  16.578   6.164
 5537POPC   C1A70167   6.600  16.687   6.464
 5537POPC   D2A70168   6.647  16.716   6.764
 5537POPC   C3A70169   6.608  16.682   7.064
 5537POPC   C4A70170   6.598  16.761   7.364
 5537POPC   C1B70171   6.637  16.485   6.464
 5537POPC   C2B70172   6.587  16.456   6.764
 5537POPC   C3B70173   6.659  16.442   7.064
 5537POPC   C4B70174   6.586  16.501   7.364
 5538POPC   NC370175  29.160  34.529   5.564
 5538POPC   PO470176  29.135  34.623   5.864
 5538POPC   GL170177  29.130  34.560   6.164
 5538POPC   GL270178  29.236  34.566   6.164
 5538POPC   C1A70179  29.138  34.584   6.464
 5538POPC   D2A70180  29.145  34.569   6.764
 5538POPC   C3A70181  29.147  34.600   7.064
 5538POPC   C4A70182  29.164  34.609   7.364
 5538POPC   C1B70183  29.387  34.533   6.464
 5538POPC   C2B70184  29.385  34.559   6.764
 5538POPC   C3B70185  29.396  34.598   7.064
 5538POPC   C4B70186  29.426  34.596   7.364
 5539POPC   NC370187  44.654  30.650   5.564
 5539POPC   PO470188  44.666  30.707   5.864
 5539POPC   GL170189  44.654  30.663   6.164
 5539POPC   GL270190  44.595  30.624   6.164
 5539POPC   C1A70191  44.671  30.715   6.464
 5539POPC   D2A70192  44.704  30.744   6.764
 5539POPC   C3A70193  44.637  30.675   7.064
 5539POPC   C4A70194  44.671  30.664   7.364
 5539POPC   C1B70195  44.559  30.510   6.464
 5539POPC   C2B70196  44.564  30.419   6.764
 5539POPC   C3B70197  44.521  30.501   7.064
 5539POPC   C4B70198  44.546  30.431   7.364
 5540POPC   NC370199  33.819  22.957   5.564
 5540POPC   PO470200  33.771  22.968   5.864
 5540POPC   GL170201  33.817  22.939   6.164
 5540POPC   GL270202  33.713  22.807   6.164
 5540POPC   C1A70203  33.821  22.978   6.464
 5540POPC   D2A70204  33.790  22.944   6.764
 5540POPC   C3A70205  33.761  22.969   7.064
 5540POPC   C4A70206  33.815  22.969   7.364
 5540POPC   C1B70207  33.570  22.787   6.464
 5540POPC   C2B70208  33.569  22.776   6.764
 5540POPC   C3B70209  33.619  22.734   7.064
 5540POPC   C4B70210  33.665  22.783   7.364
 5541POPC   NC370211  17.463   1.217   5.564
 5541POPC   PO470212  17.544   1.191   5.864
 5541POPC   GL170213  17.474   1.260   6.164
 5541POPC   GL270214  17.615   1.265   6.164
 5541POPC   C1A70215  17.494   1.210   6.464
 5541POPC   D2A70216  17.474   1.205   6.764
 5541POPC   C3A70217  17.497   1.246   7.064
 5541POPC   C4A70218  17.544   1.255   7.364
 5541POPC   C1B70219  17.649   1.389   6.464
 5541POPC   C2B70220  17.645   1.428   6.764
 5541POPC   C3B70221  17.660   1.349   7.064
 5541POPC   C4B70222  17.673   1.425   7.364
 5542POPC   NC370223   5.832  32.977   5.564
 5542POPC   PO470224   5.844  33.059   5.864
 5542POPC   GL170225   5.880  32.981   6.164
 5542POPC   GL270226   5.702  33.006   6.164
 5542POPC   C1A70227   5.910  33.046   6.464
 5542POPC   D2A70228   5.854  33.003   6.764
 5542POPC   C3A70229   5.862  33.009   7.064
 5542POPC   C4A70230   5.894  33.004   7.364
 5542POPC   C1B70231   5.676  32.978   6.464
 5542POPC   C2B70232   5.679  32.962   6.764
 5542POPC   C3B70233   5.677  32.899   7.064
 5542POPC   C4B70234   5.664  32.948   7.364
 5543POPC   NC370235  26.827  14.436   5.564
 5543POPC   PO470236  26.836  14.411   5.864
 5543POPC   GL170237  26.864  14.406   6.164
 5543POPC   GL270238  26.881  14.316   6.164
 5543POPC   C1A70239  26.798  14.414   6.464
 5543POPC   D2A70240  26.788  14.356   6.764
 5543POPC   C3A70241  26.835  14.402   7.064
 5543POPC   C4A70242  26.859  14.450   7.364
 5543POPC   C1B70243  26.975  14.215   6.464
 5543POPC   C2B70244  26.907  14.165   6.764
 5543POPC   C3B70245  26.920  14.206   7.064
 5543POPC   C4B70246  26.971  14.172   7.364
 5544POPC   NC370247  39.219  10.525   5.564
 5544POPC   PO470248  39.195  10.545   5.864
 5544POPC   GL170249  39.205  10.518   6.164
 5544POPC   GL270250  39.261  10.665   6.164
 5544POPC   C1A70251  39.204  10.515   6.464
 5544POPC   D2A70252  39.232  10.480   6.764
 5544POPC   C3A70253  39.265  10.563   7.064
 5544POPC   C4A70254  39.265  10.551   7.364
 5544POPC   C1B70255  39.142  10.813   6.464
 5544POPC   C2B70256  39.207  10.763   6.764
 5544POPC   C3B70257  39.143  10.779   7.064
 5544POPC   C4B70258  39.240  10.803   7.364
 5545POPC   NC370259  36.105  43.109   5.564
 5545POPC   PO470260  36.099  43.122   5.864
 5545POPC   GL170261  36.084  43.157   6.164
 5545POPC   GL270262  36.048  43.038   6.164
 5545POPC   C1A70263  36.090  43.095   6.464
 5545POPC   D2A70264  36.156  43.107   6.764
 5545POPC   C3A70265  36.132  43.121   7.064
 5545POPC   C4A70266  36.127  43.095   7.364
 5545POPC   C1B70267  35.985  42.969   6.464
 5545POPC   C2B70268  35.904  42.912   6.764
 5545POPC   C3B70269  35.982  42.892   7.064
 5545POPC   C4B70270  35.957  42.922   7.364
 5546POPC   NC370271  25.999  29.945   5.564
 5546POPC   PO470272  26.091  29.889   5.864
 5546POPC   GL170273  26.015  29.884   6.164
 5546POPC   GL270274  26.025  29.847   6.164
 5546POPC   C1A70275  26.076  29.921   6.464
 5546POPC   D2A70276  25.998  29.871   6.764
 5546POPC   C3A70277  26.056  29.905   7.064
 5546POPC   C4A70278  26.039  29.898   7.364
 5546POPC   C1B70279  25.926  29.698   6.464
 5546POPC   C2B70280  25.945  29.708   6.764
 5546POPC   C3B70281  25.992  29.660   7.064
 5546POPC   C4B70282  25.934  29.700   7.364
 5547POPC   NC370283  37.653  38.407   5.564
 5547POPC   PO470284  37.636  38.461   5.864
 5547POPC   GL170285  37.658  38.459   6.164
 5547POPC   GL270286  37.629  38.517   6.164
 5547POPC   C1A70287  37.643  38.435   6.464
 5547POPC   D2A70288  37.682  38.413   6.764
 5547POPC   C3A70289  37.643  38.411   7.064
 5547POPC   C4A70290  37.666  38.466   7.364
 5547POPC   C1B70291  37.567  38.649   6.464
 5547POPC   C2B70292  37.524  38.705   6.764
 5547POPC   C3B70293  37.607  38.710   7.064
 5547POPC   C4B70294  37.596  38.723   7.364
 5548POPC   NC370295   8.161  41.574   5.564
 5548POPC   PO470296   8.229  41.524   5.864
 5548POPC   GL170297   8.151  41.586   6.164
 5548POPC   GL270298   8.260  41.634   6.164
 5548POPC   C1A70299   8.169  41.582   6.464
 5548POPC   D2A70300   8.224  41.510   6.764
 5548POPC   C3A70301   8.245  41.538   7.064
 5548POPC   C4A70302   8.192  41.532   7.364
 5548POPC   C1B70303   8.391  41.714   6.464
 5548POPC   C2B70304   8.407  41.708   6.764
 5548POPC   C3B70305   8.428  41.696   7.064
 5548POPC   C4B70306   8.392  41.733   7.364
 5549POPC   NC370307  27.610  36.886   5.564
 5549POPC   PO470308  27.634  36.916   5.864
 5549POPC   GL170309  27.619  36.877   6.164
 5549POPC   GL270310  27.644  36.781   6.164
 5549POPC   C1A70311  27.595  36.908   6.464
 5549POPC   D2A70312  27.558  36.862   6.764
 5549POPC   C3A70313  27.616  36.938   7.064
 5549POPC   C4A70314  27.583  36.861   7.364
 5549POPC   C1B70315  27.746  36.723   6.464
 5549POPC   C2B70316  27.790  36.792   6.764
 5549POPC   C3B70317  27.823  36.786   7.064
 5549POPC   C4B70318  27.745  36.728   7.364
 5550POPC   NC370319  39.984   2.755   5.564
 5550POPC   PO470320  40.015   2.770   5.864
 5550POPC   GL170321  40.042   2.750   6.164
 5550POPC   GL270322  40.085   2.648   6.164
 5550POPC   C1A70323  40.042   2.785   6.464
 5550POPC   D2A70324  39.973   2.758   6.764
 5550POPC   C3A70325  39.971   2.800   7.064
 5550POPC   C4A70326  39.968   2.762   7.364
 5550POPC   C1B70327  40.168   2.572   6.464
 5550POPC   C2B70328  40.134   2.578   6.764
 5550POPC   C3B70329  40.175   2.536   7.064
 5550POPC   C4B70330  40.131   2.584   7.364
 5551POPC   NC370331  41.545  15.141   5.564
 5551POPC   PO470332  41.591  15.136   5.864
 5551POPC   GL170333  41.568  15.152   6.164
 5551POPC   GL270334  41.527  15.098   6.164
 5551POPC   C1A70335  41.511  15.183   6.464
 5551POPC   D2A70336  41.606  15.213   6.764
 5551POPC   C3A70337  41.588  15.153   7.064
 5551POPC   C4A70338  41.527  15.167   7.364
 5551POPC   C1B70339  41.605  14.928   6.464
 5551POPC   C2B70340  41.607  14.978   6.764
 5551POPC   C3B70341  41.541  14.918   7.064
 5551POPC   C4B70342  41.515  14.909   7.364
 5552POPC   NC370343   4.355  32.254   5.564
 5552POPC   PO470344   4.337  32.199   5.864
 5552POPC   GL170345   4.286  32.229   6.164
 5552POPC   GL270346   4.240  32.162   6.164
 5552POPC   C1A70347   4.340  32.252   6.464
 5552POPC   D2A70348   4.357  32.290   6.764
 5552POPC   C3A70349   4.354  32.226   7.064
 5552POPC   C4A70350   4.291  32.269   7.364
 5552POPC   C1B70351   4.213  32.045   6.464
 5552POPC   C2B70352   4.168  32.095   6.764
 5552POPC   C3B70353   4.195  32.096   7.064
 5552POPC   C4B70354   4.124  32.026   7.364
 5553POPC   NC370355  18.307  33.782   5.564
 5553POPC   PO470356  18.258  33.771   5.864
 5553POPC   GL170357  18.317  33.797   6.164
 5553POPC   GL270358  18.205  33.723   6.164
 5553POPC   C1A70359  18.273  33.770   6.464
 5553POPC   D2A70360  18.259  33.846   6.764
 5553POPC   C3A70361  18.248  33.792   7.064
 5553POPC   C4A70362  18.293  33.767   7.364
 5553POPC   C1B70363  18.019  33.647   6.464
 5553POPC   C2B70364  18.073  33.638   6.764
 5553POPC   C3B70365  18.071  33.627   7.064
 5553POPC   C4B70366  18.109  33.662   7.364
 5554POPC   NC370367  25.255  32.979   5.564
 5554POPC   PO470368  25.240  33.056   5.864
 5554POPC   GL170369  25.277  33.030   6.164
 5554POPC   GL270370  25.107  33.034   6.164
 5554POPC   C1A70371  25.252  32.992   6.464
 5554POPC   D2A70372  25.314  32.983   6.764
 5554POPC   C3A70373  25.288  32.988   7.064
 5554POPC   C4A70374  25.264  32.975   7.364
 5554POPC   C1B70375  24.998  33.071   6.464
 5554POPC   C2B70376  25.048  33.034   6.764
 5554POPC   C3B70377  25.054  33.025   7.064
 5554POPC   C4B70378  24.984  33.048   7.364
 5555POPC   NC370379  28.408   1.215   5.564
 5555POPC   PO470380  28.390   1.243   5.864
 5555POPC   GL170381  28.399   1.182   6.164
 5555POPC   GL270382  28.317   1.122   6.164
 5555POPC   C1A70383  28.345   1.263   6.464
 5555POPC   D2A70384  28.337   1.203   6.764
 5555POPC   C3A70385  28.383   1.182   7.064
 5555POPC   C4A70386  28.368   1.236   7.364
 5555POPC   C1B70387  28.245   1.034   6.464
 5555POPC   C2B70388  28.213   0.974   6.764
 5555POPC   C3B70389  28.211   0.996   7.064
 5555POPC   C4B70390  28.299   0.962   7.364
 5556POPC   NC370391  41.578  40.828   5.564
 5556POPC   PO470392  41.543  40.761   5.864
 5556POPC   GL170393  41.555  40.796   6.164
 5556POPC   GL270394  41.684  40.839   6.164
 5556POPC   C1A70395  41.566  40.828   6.464
 5556POPC   D2A70396  41.590  40.781   6.764
 5556POPC   C3A70397  41.526  40.768   7.064
 5556POPC   C4A70398  41.597  40.734   7.364
 5556POPC   C1B70399  41.789  40.890   6.464
 5556POPC   C2B70400  41.770  40.891   6.764
 5556POPC   C3B70401  41.805  40.921   7.064
 5556POPC   C4B70402  41.821  40.895   7.364
 5557POPC   NC370403  26.026  36.084   5.564
 5557POPC   PO470404  26.034  36.147   5.864
 5557POPC   GL170405  26.022  36.161   6.164
 5557POPC   GL270406  25.989  35.974   6.164
 5557POPC   C1A70407  26.008  36.094   6.464
 5557POPC   D2A70408  26.081  36.106   6.764
 5557POPC   C3A70409  25.998  36.078   7.064
 5557POPC   C4A70410  26.018  36.079   7.364
 5557POPC   C1B70411  26.032  35.873   6.464
 5557POPC   C2B70412  26.003  35.924   6.764
 5557POPC   C3B70413  26.073  35.893   7.064
 5557POPC   C4B70414  26.035  35.906   7.364
 5558POPC   NC370415  16.736  22.906   5.564
 5558POPC   PO470416  16.745  22.985   5.864
 5558POPC   GL170417  16.693  22.922   6.164
 5558POPC   GL270418  16.804  22.884   6.164
 5558POPC   C1A70419  16.687  22.952   6.464
 5558POPC   D2A70420  16.704  22.890   6.764
 5558POPC   C3A70421  16.686  22.949   7.064
 5558POPC   C4A70422  16.736  22.889   7.364
 5558POPC   C1B70423  16.903  22.759   6.464
 5558POPC   C2B70424  16.867  22.703   6.764
 5558POPC   C3B70425  16.867  22.764   7.064
 5558POPC   C4B70426  16.869  22.702   7.364
 5559POPC   NC370427   7.425  34.550   5.564
 5559POPC   PO470428   7.438  34.573   5.864
 5559POPC   GL170429   7.405  34.597   6.164
 5559POPC   GL270430   7.448  34.665   6.164
 5559POPC   C1A70431   7.390  34.536   6.464
 5559POPC   D2A70432   7.401  34.536   6.764
 5559POPC   C3A70433   7.440  34.526   7.064
 5559POPC   C4A70434   7.435  34.589   7.364
 5559POPC   C1B70435   7.362  34.845   6.464
 5559POPC   C2B70436   7.395  34.777   6.764
 5559POPC   C3B70437   7.418  34.830   7.064
 5559POPC   C4B70438   7.418  34.781   7.364
 5560POPC   NC370439  36.938  24.506   5.564
 5560POPC   PO470440  36.890  24.540   5.864
 5560POPC   GL170441  36.939  24.491   6.164
 5560POPC   GL270442  36.916  24.583   6.164
 5560POPC   C1A70443  36.911  24.518   6.464
 5560POPC   D2A70444  36.898  24.480   6.764
 5560POPC   C3A70445  36.860  24.517   7.064
 5560POPC   C4A70446  36.915  24.487   7.364
 5560POPC   C1B70447  36.979  24.772   6.464
 5560POPC   C2B70448  36.901  24.702   6.764
 5560POPC   C3B70449  36.932  24.694   7.064
 5560POPC   C4B70450  36.898  24.773   7.364
 5561POPC   NC370451  18.321  39.974   5.564
 5561POPC   PO470452  18.327  39.978   5.864
 5561POPC   GL170453  18.320  39.978   6.164
 5561POPC   GL270454  18.186  40.035   6.164
 5561POPC   C1A70455  18.293  40.038   6.464
 5561POPC   D2A70456  18.268  40.005   6.764
 5561POPC   C3A70457  18.310  40.056   7.064
 5561POPC   C4A70458  18.259  40.041   7.364
 5561POPC   C1B70459  18.013  39.990   6.464
 5561POPC   C2B70460  18.006  40.052   6.764
 5561POPC   C3B70461  18.066  39.981   7.064
 5561POPC   C4B70462  18.028  40.060   7.364
 5562POPC   NC370463   5.098  31.470   5.564
 5562POPC   PO470464   5.125  31.448   5.864
 5562POPC   GL170465   5.134  31.427   6.164
 5562POPC   GL270466   5.018  31.423   6.164
 5562POPC   C1A70467   5.090  31.436   6.464
 5562POPC   D2A70468   5.054  31.485   6.764
 5562POPC   C3A70469   5.104  31.459   7.064
 5562POPC   C4A70470   5.093  31.476   7.364
 5562POPC   C1B70471   4.921  31.287   6.464
 5562POPC   C2B70472   4.848  31.374   6.764
 5562POPC   C3B70473   4.845  31.298   7.064
 5562POPC   C4B70474   4.843  31.304   7.364
 5563POPC   NC370475   2.814  23.741   5.564
 5563POPC   PO470476   2.723  23.703   5.864
 5563POPC   GL170477   2.740  23.745   6.164
 5563POPC   GL270478   2.682  23.726   6.164
 5563POPC   C1A70479   2.735  23.746   6.464
 5563POPC   D2A70480   2.804  23.705   6.764
 5563POPC   C3A70481   2.736  23.709   7.064
 5563POPC   C4A70482   2.746  23.752   7.364
 5563POPC   C1B70483   2.562  23.675   6.464
 5563POPC   C2B70484   2.537  23.764   6.764
 5563POPC   C3B70485   2.519  23.713   7.064
 5563POPC   C4B70486   2.495  23.757   7.364
 5564POPC   NC370487  31.451  43.142   5.564
 5564POPC   PO470488  31.520  43.110   5.864
 5564POPC   GL170489  31.499  43.087   6.164
 5564POPC   GL270490  31.361  43.078   6.164
 5564POPC   C1A70491  31.494  43.089   6.464
 5564POPC   D2A70492  31.438  43.155   6.764
 5564POPC   C3A70493  31.481  43.149   7.064
 5564POPC   C4A70494  31.432  43.109   7.364
 5564POPC   C1B70495  31.306  42.985   6.464
 5564POPC   C2B70496  31.286  43.017   6.764
 5564POPC   C3B70497  31.297  42.966   7.064
 5564POPC   C4B70498  31.259  43.015   7.364
 5565POPC   NC370499  15.198  21.354   5.564
 5565POPC   PO470500  15.145  21.346   5.864
 5565POPC   GL170501  15.143  21.405   6.164
 5565POPC   GL270502  15.275  21.441   6.164
 5565POPC   C1A70503  15.171  21.412   6.464
 5565POPC   D2A70504  15.209  21.336   6.764
 5565POPC   C3A70505  15.166  21.417   7.064
 5565POPC   C4A70506  15.145  21.346   7.364
 5565POPC   C1B70507  15.376  21.506   6.464
 5565POPC   C2B70508  15.455  21.494   6.764
 5565POPC   C3B70509  15.381  21.488   7.064
 5565POPC   C4B70510  15.381  21.431   7.364
 5566POPC   NC370511   2.035  37.648   5.564
 5566POPC   PO470512   1.941  37.635   5.864
 5566POPC   GL170513   1.977  37.702   6.164
 5566POPC   GL270514   2.014  37.787   6.164
 5566POPC   C1A70515   2.030  37.630   6.464
 5566POPC   D2A70516   2.010  37.723   6.764
 5566POPC   C3A70517   1.979  37.702   7.064
 5566POPC   C4A70518   2.015  37.705   7.364
 5566POPC   C1B70519   2.071  37.903   6.464
 5566POPC   C2B70520   2.103  37.960   6.764
 5566POPC   C3B70521   2.092  37.925   7.064
 5566POPC   C4B70522   2.040  37.956   7.364
 5567POPC   NC370523   5.133  33.765   5.564
 5567POPC   PO470524   5.138  33.824   5.864
 5567POPC   GL170525   5.073  33.767   6.164
 5567POPC   GL270526   5.035  33.908   6.164
 5567POPC   C1A70527   5.091  33.770   6.464
 5567POPC   D2A70528   5.128  33.807   6.764
 5567POPC   C3A70529   5.112  33.770   7.064
 5567POPC   C4A70530   5.089  33.849   7.364
 5567POPC   C1B70531   4.960  34.044   6.464
 5567POPC   C2B70532   4.921  34.025   6.764
 5567POPC   C3B70533   4.979  33.970   7.064
 5567POPC   C4B70534   4.952  33.955   7.364
 5568POPC   NC370535  12.107  35.338   5.564
 5568POPC   PO470536  12.118  35.400   5.864
 5568POPC   GL170537  12.044  35.373   6.164
 5568POPC   GL270538  11.943  35.424   6.164
 5568POPC   C1A70539  12.115  35.355   6.464
 5568POPC   D2A70540  12.044  35.319   6.764
 5568POPC   C3A70541  12.069  35.392   7.064
 5568POPC   C4A70542  12.076  35.344   7.364
 5568POPC   C1B70543  11.911  35.498   6.464
 5568POPC   C2B70544  11.872  35.533   6.764
 5568POPC   C3B70545  11.888  35.507   7.064
 5568POPC   C4B70546  11.876  35.472   7.364
 5569POPC   NC370547  26.031  40.797   5.564
 5569POPC   PO470548  26.039  40.794   5.864
 5569POPC   GL170549  26.085  40.766   6.164
 5569POPC   GL270550  25.990  40.644   6.164
 5569POPC   C1A70551  26.039  40.764   6.464
 5569POPC   D2A70552  26.030  40.797   6.764
 5569POPC   C3A70553  26.083  40.824   7.064
 5569POPC   C4A70554  26.030  40.758   7.364
 5569POPC   C1B70555  25.882  40.599   6.464
 5569POPC   C2B70556  25.918  40.531   6.764
 5569POPC   C3B70557  25.889  40.599   7.064
 5569POPC   C4B70558  25.975  40.580   7.364
 5570POPC   NC370559  29.873  38.471   5.564
 5570POPC   PO470560  29.881  38.445   5.864
 5570POPC   GL170561  29.929  38.426   6.164
 5570POPC   GL270562  29.839  38.408   6.164
 5570POPC   C1A70563  29.969  38.456   6.464
 5570POPC   D2A70564  29.880  38.460   6.764
 5570POPC   C3A70565  29.960  38.434   7.064
 5570POPC   C4A70566  29.879  38.423   7.364
 5570POPC   C1B70567  29.788  38.309   6.464
 5570POPC   C2B70568  29.725  38.305   6.764
 5570POPC   C3B70569  29.742  38.272   7.064
 5570POPC   C4B70570  29.771  38.259   7.364
 5571POPC   NC370571   5.837  25.246   5.564
 5571POPC   PO470572   5.871  25.253   5.864
 5571POPC   GL170573   5.823  25.233   6.164
 5571POPC   GL270574   6.008  25.368   6.164
 5571POPC   C1A70575   5.824  25.311   6.464
 5571POPC   D2A70576   5.837  25.270   6.764
 5571POPC   C3A70577   5.863  25.238   7.064
 5571POPC   C4A70578   5.873  25.282   7.364
 5571POPC   C1B70579   6.077  25.367   6.464
 5571POPC   C2B70580   6.115  25.398   6.764
 5571POPC   C3B70581   6.099  25.388   7.064
 5571POPC   C4B70582   6.124  25.339   7.364
 5572POPC   NC370583   1.250   7.435   5.564
 5572POPC   PO470584   1.202   7.459   5.864
 5572POPC   GL170585   1.189   7.419   6.164
 5572POPC   GL270586   1.229   7.583   6.164
 5572POPC   C1A70587   1.254   7.437   6.464
 5572POPC   D2A70588   1.243   7.443   6.764
 5572POPC   C3A70589   1.165   7.415   7.064
 5572POPC   C4A70590   1.262   7.411   7.364
 5572POPC   C1B70591   1.281   7.662   6.464
 5572POPC   C2B70592   1.316   7.658   6.764
 5572POPC   C3B70593   1.270   7.653   7.064
 5572POPC   C4B70594   1.285   7.622   7.364
 5573POPC   NC370595  12.867  11.268   5.564
 5573POPC   PO470596  12.803  11.340   5.864
 5573POPC   GL170597  12.865  11.292   6.164
 5573POPC   GL270598  12.947  11.257   6.164
 5573POPC   C1A70599  12.807  11.334   6.464
 5573POPC   D2A70600  12.869  11.293   6.764
 5573POPC   C3A70601  12.815  11.285   7.064
 5573POPC   C4A70602  12.857  11.270   7.364
 5573POPC   C1B70603  13.072  11.195   6.464
 5573POPC   C2B70604  13.059  11.167   6.764
 5573POPC   C3B70605  13.087  11.151   7.064
 5573POPC   C4B70606  13.016  11.193   7.364
 5574POPC   NC370607  29.948  10.516   5.564
 5574POPC   PO470608  29.895  10.535   5.864
 5574POPC   GL170609  29.888  10.505   6.164
 5574POPC   GL270610  29.871  10.680   6.164
 5574POPC   C1A70611  29.967  10.572   6.464
 5574POPC   D2A70612  29.958  10.572   6.764
 5574POPC   C3A70613  29.940  10.530   7.064
 5574POPC   C4A70614  29.904  10.521   7.364
 5574POPC   C1B70615  29.832  10.746   6.464
 5574POPC   C2B70616  29.785  10.705   6.764
 5574POPC   C3B70617  29.814  10.707   7.064
 5574POPC   C4B70618  29.812  10.769   7.364
 5575POPC   NC370619  43.160  20.654   5.564
 5575POPC   PO470620  43.123  20.581   5.864
 5575POPC   GL170621  43.157  20.623   6.164
 5575POPC   GL270622  43.010  20.660   6.164
 5575POPC   C1A70623  43.154  20.577   6.464
 5575POPC   D2A70624  43.156  20.590   6.764
 5575POPC   C3A70625  43.102  20.592   7.064
 5575POPC   C4A70626  43.111  20.635   7.364
 5575POPC   C1B70627  42.902  20.767   6.464
 5575POPC   C2B70628  42.941  20.726   6.764
 5575POPC   C3B70629  42.863  20.710   7.064
 5575POPC   C4B70630  42.866  20.709   7.364
 5576POPC   NC370631  37.646  19.844   5.564
 5576POPC   PO470632  37.634  19.839   5.864
 5576POPC   GL170633  37.664  19.824   6.164
 5576POPC   GL270634  37.761  19.916   6.164
 5576POPC   C1A70635  37.696  19.864   6.464
 5576POPC   D2A70636  37.634  19.808   6.764
 5576POPC   C3A70637  37.643  19.825   7.064
 5576POPC   C4A70638  37.700  19.833   7.364
 5576POPC   C1B70639  37.830  20.084   6.464
 5576POPC   C2B70640  37.846  20.010   6.764
 5576POPC   C3B70641  37.827  20.057   7.064
 5576POPC   C4B70642  37.855  20.042   7.364
 5577POPC   NC370643   4.328  26.796   5.564
 5577POPC   PO470644   4.290  26.768   5.864
 5577POPC   GL170645   4.322  26.803   6.164
 5577POPC   GL270646   4.410  26.788   6.164
 5577POPC   C1A70647   4.276  26.779   6.464
 5577POPC   D2A70648   4.289  26.851   6.764
 5577POPC   C3A70649   4.274  26.823   7.064
 5577POPC   C4A70650   4.358  26.797   7.364
 5577POPC   C1B70651   4.609  26.811   6.464
 5577POPC   C2B70652   4.558  26.828   6.764
 5577POPC   C3B70653   4.525  26.825   7.064
 5577POPC   C4B70654   4.536  26.768   7.364
 5578POPC   NC370655  35.335  44.675   5.564
 5578POPC   PO470656  35.306  44.656   5.864
 5578POPC   GL170657  35.303  44.649   6.164
 5578POPC   GL270658  35.495  44.553   6.164
 5578POPC   C1A70659  35.344  44.712   6.464
 5578POPC   D2A70660  35.394  44.640   6.764
 5578POPC   C3A70661  35.381  44.629   7.064
 5578POPC   C4A70662  35.315  44.636   7.364
 5578POPC   C1B70663  35.579  44.517   6.464
 5578POPC   C2B70664  35.578  44.520   6.764
 5578POPC   C3B70665  35.535  44.505   7.064
 5578POPC   C4B70666  35.548  44.556   7.364
 5579POPC   NC370667  24.458  19.090   5.564
 5579POPC   PO470668  24.488  19.018   5.864
 5579POPC   GL170669  24.493  19.042   6.164
 5579POPC   GL270670  24.386  19.069   6.164
 5579POPC   C1A70671  24.538  19.037   6.464
 5579POPC   D2A70672  24.529  19.100   6.764
 5579POPC   C3A70673  24.515  19.055   7.064
 5579POPC   C4A70674  24.452  19.041   7.364
 5579POPC   C1B70675  24.280  19.072   6.464
 5579POPC   C2B70676  24.236  19.152   6.764
 5579POPC   C3B70677  24.203  19.098   7.064
 5579POPC   C4B70678  24.265  19.128   7.364
 5580POPC   NC370679   4.333   8.927   5.564
 5580POPC   PO470680   4.274   8.988   5.864
 5580POPC   GL170681   4.278   8.956   6.164
 5580POPC   GL270682   4.167   8.925   6.164
 5580POPC   C1A70683   4.273   8.987   6.464
 5580POPC   D2A70684   4.351   8.995   6.764
 5580POPC   C3A70685   4.366   8.995   7.064
 5580POPC   C4A70686   4.344   8.962   7.364
 5580POPC   C1B70687   4.057   8.849   6.464
 5580POPC   C2B70688   4.119   8.888   6.764
 5580POPC   C3B70689   4.089   8.827   7.064
 5580POPC   C4B70690   4.075   8.864   7.364
 5581POPC   NC370691  19.031   8.186   5.564
 5581POPC   PO470692  19.101   8.189   5.864
 5581POPC   GL170693  19.049   8.188   6.164
 5581POPC   GL270694  19.082   8.272   6.164
 5581POPC   C1A70695  19.078   8.192   6.464
 5581POPC   D2A70696  19.011   8.159   6.764
 5581POPC   C3A70697  19.093   8.193   7.064
 5581POPC   C4A70698  19.087   8.166   7.364
 5581POPC   C1B70699  19.002   8.489   6.464
 5581POPC   C2B70700  19.047   8.461   6.764
 5581POPC   C3B70701  19.053   8.469   7.064
 5581POPC   C4B70702  19.034   8.459   7.364
 5582POPC   NC370703  31.479  30.693   5.564
 5582POPC   PO470704  31.464  30.702   5.864
 5582POPC   GL170705  31.449  30.691   6.164
 5582POPC   GL270706  31.336  30.680   6.164
 5582POPC   C1A70707  31.438  30.665   6.464
 5582POPC   D2A70708  31.487  30.652   6.764
 5582POPC   C3A70709  31.481  30.738   7.064
 5582POPC   C4A70710  31.468  30.670   7.364
 5582POPC   C1B70711  31.260  30.628   6.464
 5582POPC   C2B70712  31.251  30.643   6.764
 5582POPC   C3B70713  31.235  30.645   7.064
 5582POPC   C4B70714  31.264  30.615   7.364
 5583POPC   NC370715  14.375   8.161   5.564
 5583POPC   PO470716  14.407   8.210   5.864
 5583POPC   GL170717  14.422   8.232   6.164
 5583POPC   GL270718  14.474   8.268   6.164
 5583POPC   C1A70719  14.396   8.212   6.464
 5583POPC   D2A70720  14.425   8.239   6.764
 5583POPC   C3A70721  14.420   8.198   7.064
 5583POPC   C4A70722  14.397   8.246   7.364
 5583POPC   C1B70723  14.655   8.328   6.464
 5583POPC   C2B70724  14.567   8.376   6.764
 5583POPC   C3B70725  14.610   8.283   7.064
 5583POPC   C4B70726  14.632   8.301   7.364
 5584POPC   NC370727  36.120  34.561   5.564
 5584POPC   PO470728  36.083  34.537   5.864
 5584POPC   GL170729  36.174  34.538   6.164
 5584POPC   GL270730  36.020  34.492   6.164
 5584POPC   C1A70731  36.155  34.547   6.464
 5584POPC   D2A70732  36.098  34.614   6.764
 5584POPC   C3A70733  36.134  34.617   7.064
 5584POPC   C4A70734  36.174  34.540   7.364
 5584POPC   C1B70735  35.911  34.445   6.464
 5584POPC   C2B70736  35.960  34.428   6.764
 5584POPC   C3B70737  35.874  34.424   7.064
 5584POPC   C4B70738  35.962  34.456   7.364
 5585POPC   NC370739  12.115  12.118   5.564
 5585POPC   PO470740  12.044  12.047   5.864
 5585POPC   GL170741  12.040  12.109   6.164
 5585POPC   GL270742  12.025  11.983   6.164
 5585POPC   C1A70743  12.049  12.046   6.464
 5585POPC   D2A70744  12.076  12.122   6.764
 5585POPC   C3A70745  12.065  12.070   7.064
 5585POPC   C4A70746  12.071  12.083   7.364
 5585POPC   C1B70747  12.052  11.837   6.464
 5585POPC   C2B70748  12.054  11.846   6.764
 5585POPC   C3B70749  11.970  11.823   7.064
 5585POPC   C4B70750  12.029  11.829   7.364
 5586POPC   NC370751   6.662  10.493   5.564
 5586POPC   PO470752   6.623  10.495   5.864
 5586POPC   GL170753   6.655  10.492   6.164
 5586POPC   GL270754   6.723  10.513   6.164
 5586POPC   C1A70755   6.679  10.522   6.464
 5586POPC   D2A70756   6.615  10.474   6.764
 5586POPC   C3A70757   6.603  10.506   7.064
 5586POPC   C4A70758   6.656  10.494   7.364
 5586POPC   C1B70759   6.858  10.591   6.464
 5586POPC   C2B70760   6.878  10.575   6.764
 5586POPC   C3B70761   6.935  10.612   7.064
 5586POPC   C4B70762   6.913  10.575   7.364
 5587POPC   NC370763  29.140  22.913   5.564
 5587POPC   PO470764  29.114  22.910   5.864
 5587POPC   GL170765  29.183  22.913   6.164
 5587POPC   GL270766  29.253  22.987   6.164
 5587POPC   C1A70767  29.180  22.942   6.464
 5587POPC   D2A70768  29.131  22.963   6.764
 5587POPC   C3A70769  29.173  22.945   7.064
 5587POPC   C4A70770  29.133  22.945   7.364
 5587POPC   C1B70771  29.329  23.071   6.464
 5587POPC   C2B70772  29.342  23.067   6.764
 5587POPC   C3B70773  29.347  23.044   7.064
 5587POPC   C4B70774  29.313  23.043   7.364
 5588POPC   NC370775  35.355  17.544   5.564
 5588POPC   PO470776  35.354  17.541   5.864
 5588POPC   GL170777  35.341  17.502   6.164
 5588POPC   GL270778  35.305  17.369   6.164
 5588POPC   C1A70779  35.377  17.516   6.464
 5588POPC   D2A70780  35.373  17.529   6.764
 5588POPC   C3A70781  35.334  17.485   7.064
 5588POPC   C4A70782  35.303  17.461   7.364
 5588POPC   C1B70783  35.302  17.260   6.464
 5588POPC   C2B70784  35.376  17.265   6.764
 5588POPC   C3B70785  35.316  17.277   7.064
 5588POPC   C4B70786  35.367  17.238   7.364
 5589POPC   NC370787  40.819  28.357   5.564
 5589POPC   PO470788  40.769  28.387   5.864
 5589POPC   GL170789  40.791  28.332   6.164
 5589POPC   GL270790  40.658  28.258   6.164
 5589POPC   C1A70791  40.748  28.355   6.464
 5589POPC   D2A70792  40.797  28.401   6.764
 5589POPC   C3A70793  40.822  28.342   7.064
 5589POPC   C4A70794  40.767  28.377   7.364
 5589POPC   C1B70795  40.541  28.243   6.464
 5589POPC   C2B70796  40.568  28.184   6.764
 5589POPC   C3B70797  40.550  28.200   7.064
 5589POPC   C4B70798  40.581  28.221   7.364
 5590POPC   NC370799  30.677  23.688   5.564
 5590POPC   PO470800  30.734  23.697   5.864
 5590POPC   GL170801  30.695  23.709   6.164
 5590POPC   GL270802  30.603  23.640   6.164
 5590POPC   C1A70803  30.708  23.674   6.464
 5590POPC   D2A70804  30.690  23.665   6.764
 5590POPC   C3A70805  30.714  23.667   7.064
 5590POPC   C4A70806  30.733  23.664   7.364
 5590POPC   C1B70807  30.485  23.611   6.464
 5590POPC   C2B70808  30.466  23.685   6.764
 5590POPC   C3B70809  30.480  23.655   7.064
 5590POPC   C4B70810  30.426  23.680   7.364
 5591POPC   NC370811  41.592  28.415   5.564
 5591POPC   PO470812  41.545  28.358   5.864
 5591POPC   GL170813  41.605  28.335   6.164
 5591POPC   GL270814  41.404  28.417   6.164
 5591POPC   C1A70815  41.554  28.380   6.464
 5591POPC   D2A70816  41.571  28.323   6.764
 5591POPC   C3A70817  41.576  28.329   7.064
 5591POPC   C4A70818  41.589  28.396   7.364
 5591POPC   C1B70819  41.286  28.436   6.464
 5591POPC   C2B70820  41.315  28.340   6.764
 5591POPC   C3B70821  41.313  28.428   7.064
 5591POPC   C4B70822  41.301  28.384   7.364
 5592POPC   NC370823  20.635   9.721   5.564
 5592POPC   PO470824  20.570   9.794   5.864
 5592POPC   GL170825  20.638   9.779   6.164
 5592POPC   GL270826  20.622   9.583   6.164
 5592POPC   C1A70827  20.587   9.757   6.464
 5592POPC   D2A70828  20.595   9.722   6.764
 5592POPC   C3A70829  20.644   9.706   7.064
 5592POPC   C4A70830  20.607   9.792   7.364
 5592POPC   C1B70831  20.650   9.517   6.464
 5592POPC   C2B70832  20.636   9.462   6.764
 5592POPC   C3B70833  20.715   9.498   7.064
 5592POPC   C4B70834  20.642   9.551   7.364
 5593POPC   NC370835  31.473   4.284   5.564
 5593POPC   PO470836  31.468   4.353   5.864
 5593POPC   GL170837  31.445   4.274   6.164
 5593POPC   GL270838  31.521   4.424   6.164
 5593POPC   C1A70839  31.446   4.327   6.464
 5593POPC   D2A70840  31.504   4.332   6.764
 5593POPC   C3A70841  31.520   4.326   7.064
 5593POPC   C4A70842  31.458   4.286   7.364
 5593POPC   C1B70843  31.615   4.528   6.464
 5593POPC   C2B70844  31.631   4.563   6.764
 5593POPC   C3B70845  31.628   4.535   7.064
 5593POPC   C4B70846  31.622   4.473   7.364
 5594POPC   NC370847  29.903  40.734   5.564
 5594POPC   PO470848  29.948  40.751   5.864
 5594POPC   GL170849  29.933  40.745   6.164
 5594POPC   GL270850  29.794  40.765   6.164
 5594POPC   C1A70851  29.898  40.831   6.464
 5594POPC   D2A70852  29.914  40.782   6.764
 5594POPC   C3A70853  29.940  40.801   7.064
 5594POPC   C4A70854  29.954  40.784   7.364
 5594POPC   C1B70855  29.692  40.757   6.464
 5594POPC   C2B70856  29.708  40.759   6.764
 5594POPC   C3B70857  29.654  40.695   7.064
 5594POPC   C4B70858  29.627  40.758   7.364
 5595POPC   NC370859  16.755  19.010   5.564
 5595POPC   PO470860  16.756  19.072   5.864
 5595POPC   GL170861  16.770  19.050   6.164
 5595POPC   GL270862  16.832  18.926   6.164
 5595POPC   C1A70863  16.771  19.063   6.464
 5595POPC   D2A70864  16.732  19.095   6.764
 5595POPC   C3A70865  16.710  19.052   7.064
 5595POPC   C4A70866  16.699  19.059   7.364
 5595POPC   C1B70867  16.885  18.806   6.464
 5595POPC   C2B70868  16.879  18.786   6.764
 5595POPC   C3B70869  16.825  18.877   7.064
 5595POPC   C4B70870  16.884  18.869   7.364
 5596POPC   NC370871   6.621   0.395   5.564
 5596POPC   PO470872   6.664   0.418   5.864
 5596POPC   GL170873   6.643   0.428   6.164
 5596POPC   GL270874   6.797   0.439   6.164
 5596POPC   C1A70875   6.619   0.487   6.464
 5596POPC   D2A70876   6.659   0.406   6.764
 5596POPC   C3A70877   6.674   0.476   7.064
 5596POPC   C4A70878   6.677   0.419   7.364
 5596POPC   C1B70879   6.855   0.413   6.464
 5596POPC   C2B70880   6.876   0.346   6.764
 5596POPC   C3B70881   6.869   0.383   7.064
 5596POPC   C4B70882   6.845   0.415   7.364
 5597POPC   NC370883  22.126  19.057   5.564
 5597POPC   PO470884  22.132  19.053   5.864
 5597POPC   GL170885  22.164  19.013   6.164
 5597POPC   GL270886  22.107  18.916   6.164
 5597POPC   C1A70887  22.201  19.097   6.464
 5597POPC   D2A70888  22.156  19.021   6.764
 5597POPC   C3A70889  22.159  19.029   7.064
 5597POPC   C4A70890  22.142  19.106   7.364
 5597POPC   C1B70891  22.087  18.823   6.464
 5597POPC   C2B70892  22.045  18.882   6.764
 5597POPC   C3B70893  22.059  18.888   7.064
 5597POPC   C4B70894  22.014  18.805   7.364
 5598POPC   NC370895  26.857  10.489   5.564
 5598POPC   PO470896  26.775  10.547   5.864
 5598POPC   GL170897  26.793  10.531   6.164
 5598POPC   GL270898  26.721  10.598   6.164
 5598POPC   C1A70899  26.801  10.493   6.464
 5598POPC   D2A70900  26.792  10.524   6.764
 5598POPC   C3A70901  26.804  10.475   7.064
 5598POPC   C4A70902  26.834  10.564   7.364
 5598POPC   C1B70903  26.608  10.645   6.464
 5598POPC   C2B70904  26.616  10.671   6.764
 5598POPC   C3B70905  26.603  10.711   7.064
 5598POPC   C4B70906  26.667  10.648   7.364
 5599POPC   NC370907   9.735  25.263   5.564
 5599POPC   PO470908   9.735  25.263   5.864
 5599POPC   GL170909   9.722  25.227   6.164
 5599POPC   GL270910   9.814  25.357   6.164
 5599POPC   C1A70911   9.725  25.273   6.464
 5599POPC   D2A70912   9.746  25.241   6.764
 5599POPC   C3A70913   9.703  25.275   7.064
 5599POPC   C4A70914   9.715  25.292   7.364
 5599POPC   C1B70915   9.841  25.514   6.464
 5599POPC   C2B70916   9.821  25.511   6.764
 5599POPC   C3B70917   9.902  25.495   7.064
 5599POPC   C4B70918   9.844  25.503   7.364
 5600POPC   NC370919  30.716  13.673   5.564
 5600POPC   PO470920  30.744  13.675   5.864
 5600POPC   GL170921  30.716  13.610   6.164
 5600POPC   GL270922  30.828  13.656   6.164
 5600POPC   C1A70923  30.720  13.675   6.464
 5600POPC   D2A70924  30.683  13.658   6.764
 5600POPC   C3A70925  30.669  13.615   7.064
 5600POPC   C4A70926  30.694  13.593   7.364
 5600POPC   C1B70927  30.898  13.729   6.464
 5600POPC   C2B70928  30.896  13.731   6.764
 5600POPC   C3B70929  30.928  13.734   7.064
 5600POPC   C4B70930  30.918  13.722   7.364
 5601POPC   NC370931  34.605  12.088   5.564
 5601POPC   PO470932  34.551  12.125   5.864
 5601POPC   GL170933  34.540  12.056   6.164
 5601POPC   GL270934  34.443  12.135   6.164
 5601POPC   C1A70935  34.564  12.090   6.464
 5601POPC   D2A70936  34.604  12.092   6.764
 5601POPC   C3A70937  34.601  12.029   7.064
 5601POPC   C4A70938  34.562  12.042   7.364
 5601POPC   C1B70939  34.282  12.130   6.464
 5601POPC   C2B70940  34.376  12.129   6.764
 5601POPC   C3B70941  34.365  12.074   7.064
 5601POPC   C4B70942  34.344  12.095   7.364
 5602POPC   NC370943  21.423  27.603   5.564
 5602POPC   PO470944  21.370  27.559   5.864
 5602POPC   GL170945  21.346  27.548   6.164
 5602POPC   GL270946  21.476  27.722   6.164
 5602POPC   C1A70947  21.427  27.634   6.464
 5602POPC   D2A70948  21.349  27.607   6.764
 5602POPC   C3A70949  21.420  27.642   7.064
 5602POPC   C4A70950  21.394  27.561   7.364
 5602POPC   C1B70951  21.428  27.811   6.464
 5602POPC   C2B70952  21.489  27.867   6.764
 5602POPC   C3B70953  21.466  27.871   7.064
 5602POPC   C4B70954  21.526  27.788   7.364
 5603POPC   NC370955  29.910  17.553   5.564
 5603POPC   PO470956  29.944  17.520   5.864
 5603POPC   GL170957  29.931  17.469   6.164
 5603POPC   GL270958  29.865  17.373   6.164
 5603POPC   C1A70959  29.935  17.543   6.464
 5603POPC   D2A70960  29.962  17.546   6.764
 5603POPC   C3A70961  29.918  17.473   7.064
 5603POPC   C4A70962  29.898  17.494   7.364
 5603POPC   C1B70963  29.788  17.370   6.464
 5603POPC   C2B70964  29.749  17.304   6.764
 5603POPC   C3B70965  29.733  17.378   7.064
 5603POPC   C4B70966  29.737  17.368   7.364
 5604POPC   NC370967  29.964   0.484   5.564
 5604POPC   PO470968  29.895   0.444   5.864
 5604POPC   GL170969  29.925   0.417   6.164
 5604POPC   GL270970  30.077   0.404   6.164
 5604POPC   C1A70971  29.911   0.476   6.464
 5604POPC   D2A70972  29.954   0.423   6.764
 5604POPC   C3A70973  29.946   0.414   7.064
 5604POPC   C4A70974  29.954   0.458   7.364
 5604POPC   C1B70975  30.121   0.364   6.464
 5604POPC   C2B70976  30.201   0.356   6.764
 5604POPC   C3B70977  30.192   0.433   7.064
 5604POPC   C4B70978  30.208   0.364   7.364
 5605POPC   NC370979  26.860  39.272   5.564
 5605POPC   PO470980  26.820  39.184   5.864
 5605POPC   GL170981  26.858  39.281   6.164
 5605POPC   GL270982  26.860  39.067   6.164
 5605POPC   C1A70983  26.769  39.274   6.464
 5605POPC   D2A70984  26.817  39.212   6.764
 5605POPC   C3A70985  26.779  39.210   7.064
 5605POPC   C4A70986  26.768  39.200   7.364
 5605POPC   C1B70987  26.945  38.963   6.464
 5605POPC   C2B70988  26.881  38.963   6.764
 5605POPC   C3B70989  26.857  39.032   7.064
 5605POPC   C4B70990  26.913  39.045   7.364
 5606POPC   NC370991  12.806  27.563   5.564
 5606POPC   PO470992  12.854  27.579   5.864
 5606POPC   GL170993  12.820  27.587   6.164
 5606POPC   GL270994  12.889  27.514   6.164
 5606POPC   C1A70995  12.818  27.636   6.464
 5606POPC   D2A70996  12.900  27.630   6.764
 5606POPC   C3A70997  12.858  27.593   7.064
 5606POPC   C4A70998  12.861  27.617   7.364
 5606POPC   C1B70999  12.840  27.313   6.464
 5606POPC   C2B71000  12.925  27.359   6.764
 5606POPC   C3B71001  12.849  27.318   7.064
 5606POPC   C4B71002  12.858  27.380   7.364
 5607POPC   NC371003   3.525  39.266   5.564
 5607POPC   PO471004   3.557  39.257   5.864
 5607POPC   GL171005   3.555  39.263   6.164
 5607POPC   GL271006   3.636  39.334   6.164
 5607POPC   C1A71007   3.576  39.194   6.464
 5607POPC   D2A71008   3.525  39.214   6.764
 5607POPC   C3A71009   3.579  39.252   7.064
 5607POPC   C4A71010   3.492  39.271   7.364
 5607POPC   C1B71011   3.785  39.323   6.464
 5607POPC   C2B71012   3.809  39.309   6.764
 5607POPC   C3B71013   3.729  39.293   7.064
 5607POPC   C4B71014   3.729  39.293   7.364
 5608POPC   NC371015  27.589   4.280   5.564
 5608POPC   PO471016  27.621   4.284   5.864
 5608POPC   GL171017  27.582   4.278   6.164
 5608POPC   GL271018  27.665   4.200   6.164
 5608POPC   C1A71019  27.627   4.359   6.464
 5608POPC   D2A71020  27.573   4.343   6.764
 5608POPC   C3A71021  27.582   4.286   7.064
 5608POPC   C4A71022  27.605   4.347   7.364
 5608POPC   C1B71023  27.763   4.127   6.464
 5608POPC   C2B71024  27.722   4.069   6.764
 5608POPC   C3B71025  27.724   4.137   7.064
 5608POPC   C4B71026  27.769   4.140   7.364
 5609POPC   NC371027  26.069  26.850   5.564
 5609POPC   PO471028  26.021  26.779   5.864
 5609POPC   GL171029  26.011  26.865   6.164
 5609POPC   GL271030  25.930  26.787   6.164
 5609POPC   C1A71031  26.021  26.769   6.464
 5609POPC   D2A71032  26.053  26.855   6.764
 5609POPC   C3A71033  26.073  26.792   7.064
 5609POPC   C4A71034  26.091  26.848   7.364
 5609POPC   C1B71035  25.798  26.739   6.464
 5609POPC   C2B71036  25.810  26.725   6.764
 5609POPC   C3B71037  25.815  26.666   7.064
 5609POPC   C4B71038  25.792  26.714   7.364
 5610POPC   NC371039   0.409  26.050   5.564
 5610POPC   PO471040   0.456  26.008   5.864
 5610POPC   GL171041   0.436  26.035   6.164
 5610POPC   GL271042   0.342  26.123   6.164
 5610POPC   C1A71043   0.485  26.056   6.464
 5610POPC   D2A71044   0.475  26.076   6.764
 5610POPC   C3A71045   0.479  26.046   7.064
 5610POPC   C4A71046   0.457  26.040   7.364
 5610POPC   C1B71047   0.290  26.259   6.464
 5610POPC   C2B71048   0.261  26.211   6.764
 5610POPC   C3B71049   0.254  26.198   7.064
 5610POPC   C4B71050   0.273  26.205   7.364
 5611POPC   NC371051  19.016  13.639   5.564
 5611POPC   PO471052  19.032  13.610   5.864
 5611POPC   GL171053  19.046  13.669   6.164
 5611POPC   GL271054  19.096  13.534   6.164
 5611POPC   C1A71055  19.083  13.617   6.464
 5611POPC   D2A71056  19.102  13.625   6.764
 5611POPC   C3A71057  19.078  13.665   7.064
 5611POPC   C4A71058  19.068  13.608   7.364
 5611POPC   C1B71059  19.058  13.372   6.464
 5611POPC   C2B71060  19.040  13.414   6.764
 5611POPC   C3B71061  19.064  13.331   7.064
 5611POPC   C4B71062  19.076  13.352   7.364
 5612POPC   NC371063   6.658  28.399   5.564
 5612POPC   PO471064   6.693  28.323   5.864
 5612POPC   GL171065   6.693  28.354   6.164
 5612POPC   GL271066   6.761  28.356   6.164
 5612POPC   C1A71067   6.642  28.404   6.464
 5612POPC   D2A71068   6.597  28.388   6.764
 5612POPC   C3A71069   6.609  28.346   7.064
 5612POPC   C4A71070   6.626  28.376   7.364
 5612POPC   C1B71071   6.855  28.276   6.464
 5612POPC   C2B71072   6.848  28.265   6.764
 5612POPC   C3B71073   6.844  28.269   7.064
 5612POPC   C4B71074   6.878  28.294   7.364
 5613POPC   NC371075  29.186  25.225   5.564
 5613POPC   PO471076  29.097  25.252   5.864
 5613POPC   GL171077  29.191  25.274   6.164
 5613POPC   GL271078  29.128  25.384   6.164
 5613POPC   C1A71079  29.135  25.291   6.464
 5613POPC   D2A71080  29.171  25.230   6.764
 5613POPC   C3A71081  29.171  25.275   7.064
 5613POPC   C4A71082  29.169  25.269   7.364
 5613POPC   C1B71083  29.013  25.522   6.464
 5613POPC   C2B71084  29.067  25.467   6.764
 5613POPC   C3B71085  29.010  25.470   7.064
 5613POPC   C4B71086  29.027  25.523   7.364
 5614POPC   NC371087  30.706  16.746   5.564
 5614POPC   PO471088  30.687  16.775   5.864
 5614POPC   GL171089  30.655  16.700   6.164
 5614POPC   GL271090  30.534  16.705   6.164
 5614POPC   C1A71091  30.708  16.757   6.464
 5614POPC   D2A71092  30.730  16.741   6.764
 5614POPC   C3A71093  30.656  16.729   7.064
 5614POPC   C4A71094  30.745  16.768   7.364
 5614POPC   C1B71095  30.438  16.696   6.464
 5614POPC   C2B71096  30.453  16.737   6.764
 5614POPC   C3B71097  30.449  16.738   7.064
 5614POPC   C4B71098  30.443  16.711   7.364
 5615POPC   NC371099  20.588  25.266   5.564
 5615POPC   PO471100  20.645  25.254   5.864
 5615POPC   GL171101  20.591  25.289   6.164
 5615POPC   GL271102  20.740  25.357   6.164
 5615POPC   C1A71103  20.564  25.297   6.464
 5615POPC   D2A71104  20.591  25.225   6.764
 5615POPC   C3A71105  20.601  25.253   7.064
 5615POPC   C4A71106  20.576  25.299   7.364
 5615POPC   C1B71107  20.840  25.373   6.464
 5615POPC   C2B71108  20.816  25.407   6.764
 5615POPC   C3B71109  20.780  25.401   7.064
 5615POPC   C4B71110  20.847  25.373   7.364
 5616POPC   NC371111  26.825  21.356   5.564
 5616POPC   PO471112  26.791  21.430   5.864
 5616POPC   GL171113  26.786  21.413   6.164
 5616POPC   GL271114  26.907  21.380   6.164
 5616POPC   C1A71115  26.860  21.364   6.464
 5616POPC   D2A71116  26.785  21.409   6.764
 5616POPC   C3A71117  26.854  21.346   7.064
 5616POPC   C4A71118  26.811  21.387   7.364
 5616POPC   C1B71119  27.064  21.450   6.464
 5616POPC   C2B71120  27.062  21.356   6.764
 5616POPC   C3B71121  27.041  21.383   7.064
 5616POPC   C4B71122  27.055  21.449   7.364
 5617POPC   NC371123  22.919  29.936   5.564
 5617POPC   PO471124  22.905  29.934   5.864
 5617POPC   GL171125  22.971  29.962   6.164
 5617POPC   GL271126  22.892  30.014   6.164
 5617POPC   C1A71127  22.892  29.947   6.464
 5617POPC   D2A71128  22.909  29.967   6.764
 5617POPC   C3A71129  22.968  29.967   7.064
 5617POPC   C4A71130  22.947  29.939   7.364
 5617POPC   C1B71131  22.814  30.181   6.464
 5617POPC   C2B71132  22.839  30.115   6.764
 5617POPC   C3B71133  22.850  30.167   7.064
 5617POPC   C4B71134  22.835  30.151   7.364
 5618POPC   NC371135  29.887  13.608   5.564
 5618POPC   PO471136  29.966  13.594   5.864
 5618POPC   GL171137  29.938  13.676   6.164
 5618POPC   GL271138  30.027  13.692   6.164
 5618POPC   C1A71139  29.966  13.594   6.464
 5618POPC   D2A71140  29.878  13.617   6.764
 5618POPC   C3A71141  29.908  13.580   7.064
 5618POPC   C4A71142  29.967  13.674   7.364
 5618POPC   C1B71143  30.182  13.696   6.464
 5618POPC   C2B71144  30.134  13.675   6.764
 5618POPC   C3B71145  30.181  13.681   7.064
 5618POPC   C4B71146  30.134  13.686   7.364
 5619POPC   NC371147  40.800  29.895   5.564
 5619POPC   PO471148  40.796  29.879   5.864
 5619POPC   GL171149  40.734  29.893   6.164
 5619POPC   GL271150  40.789  29.792   6.164
 5619POPC   C1A71151  40.751  29.886   6.464
 5619POPC   D2A71152  40.802  29.875   6.764
 5619POPC   C3A71153  40.806  29.969   7.064
 5619POPC   C4A71154  40.806  29.922   7.364
 5619POPC   C1B71155  40.782  29.686   6.464
 5619POPC   C2B71156  40.815  29.668   6.764
 5619POPC   C3B71157  40.791  29.705   7.064
 5619POPC   C4B71158  40.786  29.657   7.364
 5620POPC   NC371159  21.396  40.782   5.564
 5620POPC   PO471160  21.389  40.814   5.864
 5620POPC   GL171161  21.410  40.787   6.164
 5620POPC   GL271162  21.293  40.638   6.164
 5620POPC   C1A71163  21.386  40.821   6.464
 5620POPC   D2A71164  21.369  40.753   6.764
 5620POPC   C3A71165  21.376  40.792   7.064
 5620POPC   C4A71166  21.345  40.797   7.364
 5620POPC   C1B71167  21.231  40.595   6.464
 5620POPC   C2B71168  21.270  40.627   6.764
 5620POPC   C3B71169  21.269  40.545   7.064
 5620POPC   C4B71170  21.224  40.608   7.364
 5621POPC   NC371171   5.095  21.404   5.564
 5621POPC   PO471172   5.075  21.396   5.864
 5621POPC   GL171173   5.124  21.406   6.164
 5621POPC   GL271174   5.181  21.292   6.164
 5621POPC   C1A71175   5.118  21.374   6.464
 5621POPC   D2A71176   5.078  21.390   6.764
 5621POPC   C3A71177   5.056  21.386   7.064
 5621POPC   C4A71178   5.090  21.395   7.364
 5621POPC   C1B71179   5.254  21.175   6.464
 5621POPC   C2B71180   5.289  21.174   6.764
 5621POPC   C3B71181   5.251  21.248   7.064
 5621POPC   C4B71182   5.246  21.190   7.364
 5622POPC   NC371183   7.424  43.130   5.564
 5622POPC   PO471184   7.412  43.113   5.864
 5622POPC   GL171185   7.419  43.080   6.164
 5622POPC   GL271186   7.275  43.030   6.164
 5622POPC   C1A71187   7.463  43.079   6.464
 5622POPC   D2A71188   7.421  43.121   6.764
 5622POPC   C3A71189   7.431  43.117   7.064
 5622POPC   C4A71190   7.392  43.066   7.364
 5622POPC   C1B71191   7.212  43.032   6.464
 5622POPC   C2B71192   7.248  43.028   6.764
 5622POPC   C3B71193   7.174  43.030   7.064
 5622POPC   C4B71194   7.186  43.031   7.364
 5623POPC   NC371195  21.376  19.819   5.564
 5623POPC   PO471196  21.424  19.816   5.864
 5623POPC   GL171197  21.381  19.869   6.164
 5623POPC   GL271198  21.296  19.794   6.164
 5623POPC   C1A71199  21.420  19.869   6.464
 5623POPC   D2A71200  21.353  19.824   6.764
 5623POPC   C3A71201  21.384  19.827   7.064
 5623POPC   C4A71202  21.372  19.832   7.364
 5623POPC   C1B71203  21.141  19.783   6.464
 5623POPC   C2B71204  21.130  19.800   6.764
 5623POPC   C3B71205  21.087  19.835   7.064
 5623POPC   C4B71206  21.161  19.836   7.364
 5624POPC   NC371207  29.901  39.270   5.564
 5624POPC   PO471208  29.888  39.199   5.864
 5624POPC   GL171209  29.918  39.212   6.164
 5624POPC   GL271210  29.835  39.093   6.164
 5624POPC   C1A71211  29.884  39.262   6.464
 5624POPC   D2A71212  29.894  39.206   6.764
 5624POPC   C3A71213  29.951  39.210   7.064
 5624POPC   C4A71214  29.904  39.252   7.364
 5624POPC   C1B71215  29.778  39.052   6.464
 5624POPC   C2B71216  29.718  39.030   6.764
 5624POPC   C3B71217  29.784  39.017   7.064
 5624POPC   C4B71218  29.747  39.047   7.364
 5625POPC   NC371219  21.347  14.402   5.564
 5625POPC   PO471220  21.352  14.425   5.864
 5625POPC   GL171221  21.362  14.359   6.164
 5625POPC   GL271222  21.556  14.363   6.164
 5625POPC   C1A71223  21.406  14.377   6.464
 5625POPC   D2A71224  21.342  14.431   6.764
 5625POPC   C3A71225  21.368  14.427   7.064
 5625POPC   C4A71226  21.342  14.376   7.364
 5625POPC   C1B71227  21.629  14.344   6.464
 5625POPC   C2B71228  21.597  14.362   6.764
 5625POPC   C3B71229  21.605  14.420   7.064
 5625POPC   C4B71230  21.637  14.364   7.364
 5626POPC   NC371231  37.646  31.500   5.564
 5626POPC   PO471232  37.718  31.474   5.864
 5626POPC   GL171233  37.719  31.463   6.164
 5626POPC   GL271234  37.788  31.594   6.164
 5626POPC   C1A71235  37.645  31.467   6.464
 5626POPC   D2A71236  37.659  31.456   6.764
 5626POPC   C3A71237  37.639  31.471   7.064
 5626POPC   C4A71238  37.679  31.429   7.364
 5626POPC   C1B71239  37.878  31.632   6.464
 5626POPC   C2B71240  37.892  31.614   6.764
 5626POPC   C3B71241  37.851  31.624   7.064
 5626POPC   C4B71242  37.835  31.683   7.364
 5627POPC   NC371243  10.553   2.734   5.564
 5627POPC   PO471244  10.573   2.756   5.864
 5627POPC   GL171245  10.505   2.719   6.164
 5627POPC   GL271246  10.423   2.750   6.164
 5627POPC   C1A71247  10.493   2.726   6.464
 5627POPC   D2A71248  10.571   2.733   6.764
 5627POPC   C3A71249  10.514   2.760   7.064
 5627POPC   C4A71250  10.573   2.747   7.364
 5627POPC   C1B71251  10.299   2.766   6.464
 5627POPC   C2B71252  10.299   2.751   6.764
 5627POPC   C3B71253  10.306   2.720   7.064
 5627POPC   C4B71254  10.267   2.731   7.364
 5628POPC   NC371255   7.413  15.966   5.564
 5628POPC   PO471256   7.442  15.990   5.864
 5628POPC   GL171257   7.440  15.964   6.164
 5628POPC   GL271258   7.524  15.931   6.164
 5628POPC   C1A71259   7.385  15.948   6.464
 5628POPC   D2A71260   7.398  15.957   6.764
 5628POPC   C3A71261   7.462  15.921   7.064
 5628POPC   C4A71262   7.466  15.938   7.364
 5628POPC   C1B71263   7.676  15.900   6.464
 5628POPC   C2B71264   7.683  15.887   6.764
 5628POPC   C3B71265   7.631  15.838   7.064
 5628POPC   C4B71266   7.643  15.837   7.364
 5629POPC   NC371267  19.095  40.044   5.564
 5629POPC   PO471268  19.091  39.980   5.864
 5629POPC   GL171269  19.030  39.976   6.164
 5629POPC   GL271270  19.148  40.103   6.164
 5629POPC   C1A71271  19.028  40.032   6.464
 5629POPC   D2A71272  19.037  40.010   6.764
 5629POPC   C3A71273  19.088  39.998   7.064
 5629POPC   C4A71274  19.036  40.006   7.364
 5629POPC   C1B71275  19.272  40.143   6.464
 5629POPC   C2B71276  19.286  40.178   6.764
 5629POPC   C3B71277  19.277  40.171   7.064
 5629POPC   C4B71278  19.318  40.164   7.364
 5630POPC   NC371279  19.803  39.993   5.564
 5630POPC   PO471280  19.857  39.997   5.864
 5630POPC   GL171281  19.792  40.005   6.164
 5630POPC   GL271282  19.731  39.959   6.164
 5630POPC   C1A71283  19.830  40.050   6.464
 5630POPC   D2A71284  19.841  39.966   6.764
 5630POPC   C3A71285  19.870  39.962   7.064
 5630POPC   C4A71286  19.879  40.015   7.364
 5630POPC   C1B71287  19.661  39.832   6.464
 5630POPC   C2B71288  19.668  39.859   6.764
 5630POPC   C3B71289  19.649  39.866   7.064
 5630POPC   C4B71290  19.613  39.855   7.364
 5631POPC   NC371291   5.120  25.244   5.564
 5631POPC   PO471292   5.081  25.255   5.864
 5631POPC   GL171293   5.060  25.262   6.164
 5631POPC   GL271294   5.248  25.340   6.164
 5631POPC   C1A71295   5.131  25.266   6.464
 5631POPC   D2A71296   5.105  25.227   6.764
 5631POPC   C3A71297   5.141  25.233   7.064
 5631POPC   C4A71298   5.131  25.296   7.364
 5631POPC   C1B71299   5.257  25.353   6.464
 5631POPC   C2B71300   5.315  25.389   6.764
 5631POPC   C3B71301   5.263  25.362   7.064
 5631POPC   C4B71302   5.341  25.449   7.364
 5632POPC   NC371303  39.205  22.176   5.564
 5632POPC   PO471304  39.268  22.174   5.864
 5632POPC   GL171305  39.270  22.181   6.164
 5632POPC   GL271306  39.338  22.116   6.164
 5632POPC   C1A71307  39.255  22.146   6.464
 5632POPC   D2A71308  39.215  22.175   6.764
 5632POPC   C3A71309  39.279  22.129   7.064
 5632POPC   C4A71310  39.193  22.128   7.364
 5632POPC   C1B71311  39.468  22.078   6.464
 5632POPC   C2B71312  39.472  22.012   6.764
 5632POPC   C3B71313  39.433  22.072   7.064
 5632POPC   C4B71314  39.467  22.012   7.364
 5633POPC   NC371315  43.079  43.909   5.564
 5633POPC   PO471316  43.139  43.844   5.864
 5633POPC   GL171317  43.119  43.901   6.164
 5633POPC   GL271318  43.016  43.982   6.164
 5633POPC   C1A71319  43.065  43.854   6.464
 5633POPC   D2A71320  43.124  43.853   6.764
 5633POPC   C3A71321  43.135  43.905   7.064
 5633POPC   C4A71322  43.100  43.868   7.364
 5633POPC   C1B71323  42.957  44.055   6.464
 5633POPC   C2B71324  42.902  44.088   6.764
 5633POPC   C3B71325  42.981  44.111   7.064
 5633POPC   C4B71326  42.918  44.076   7.364
 5634POPC   NC371327  17.540  22.979   5.564
 5634POPC   PO471328  17.521  22.946   5.864
 5634POPC   GL171329  17.483  22.986   6.164
 5634POPC   GL271330  17.384  22.898   6.164
 5634POPC   C1A71331  17.545  22.951   6.464
 5634POPC   D2A71332  17.555  22.915   6.764
 5634POPC   C3A71333  17.490  22.920   7.064
 5634POPC   C4A71334  17.547  22.892   7.364
 5634POPC   C1B71335  17.305  22.942   6.464
 5634POPC   C2B71336  17.272  22.876   6.764
 5634POPC   C3B71337  17.289  22.873   7.064
 5634POPC   C4B71338  17.279  22.947   7.364
 5635POPC   NC371339  11.274   9.786   5.564
 5635POPC   PO471340  11.285   9.734   5.864
 5635POPC   GL171341  11.255   9.715   6.164
 5635POPC   GL271342  11.232   9.632   6.164
 5635POPC   C1A71343  11.293   9.722   6.464
 5635POPC   D2A71344  11.268   9.748   6.764
 5635POPC   C3A71345  11.261   9.777   7.064
 5635POPC   C4A71346  11.322   9.795   7.364
 5635POPC   C1B71347  11.150   9.492   6.464
 5635POPC   C2B71348  11.120   9.533   6.764
 5635POPC   C3B71349  11.162   9.515   7.064
 5635POPC   C4B71350  11.149   9.515   7.364
 5636POPC   NC371351  13.651  22.175   5.564
 5636POPC   PO471352  13.580  22.148   5.864
 5636POPC   GL171353  13.643  22.125   6.164
 5636POPC   GL271354  13.762  22.250   6.164
 5636POPC   C1A71355  13.608  22.188   6.464
 5636POPC   D2A71356  13.619  22.123   6.764
 5636POPC   C3A71357  13.654  22.182   7.064
 5636POPC   C4A71358  13.607  22.169   7.364
 5636POPC   C1B71359  13.865  22.299   6.464
 5636POPC   C2B71360  13.874  22.300   6.764
 5636POPC   C3B71361  13.822  22.341   7.064
 5636POPC   C4B71362  13.800  22.293   7.364
 5637POPC   NC371363  42.288  42.340   5.564
 5637POPC   PO471364  42.349  42.320   5.864
 5637POPC   GL171365  42.361  42.285   6.164
 5637POPC   GL271366  42.266  42.452   6.164
 5637POPC   C1A71367  42.360  42.294   6.464
 5637POPC   D2A71368  42.353  42.285   6.764
 5637POPC   C3A71369  42.315  42.328   7.064
 5637POPC   C4A71370  42.288  42.294   7.364
 5637POPC   C1B71371  42.199  42.518   6.464
 5637POPC   C2B71372  42.143  42.512   6.764
 5637POPC   C3B71373  42.205  42.541   7.064
 5637POPC   C4B71374  42.180  42.508   7.364
 5638POPC   NC371375   0.481  15.216   5.564
 5638POPC   PO471376   0.419  15.137   5.864
 5638POPC   GL171377   0.428  15.182   6.164
 5638POPC   GL271378   0.517  15.279   6.164
 5638POPC   C1A71379   0.410  15.213   6.464
 5638POPC   D2A71380   0.433  15.183   6.764
 5638POPC   C3A71381   0.413  15.131   7.064
 5638POPC   C4A71382   0.488  15.179   7.364
 5638POPC   C1B71383   0.549  15.425   6.464
 5638POPC   C2B71384   0.489  15.398   6.764
 5638POPC   C3B71385   0.530  15.423   7.064
 5638POPC   C4B71386   0.479  15.459   7.364
 5639POPC   NC371387  29.904  11.277   5.564
 5639POPC   PO471388  29.952  11.265   5.864
 5639POPC   GL171389  29.934  11.267   6.164
 5639POPC   GL271390  29.935  11.412   6.164
 5639POPC   C1A71391  29.872  11.279   6.464
 5639POPC   D2A71392  29.921  11.321   6.764
 5639POPC   C3A71393  29.905  11.278   7.064
 5639POPC   C4A71394  29.933  11.329   7.364
 5639POPC   C1B71395  30.043  11.509   6.464
 5639POPC   C2B71396  29.983  11.581   6.764
 5639POPC   C3B71397  29.977  11.490   7.064
 5639POPC   C4B71398  30.033  11.532   7.364
 5640POPC   NC371399  28.361  16.776   5.564
 5640POPC   PO471400  28.369  16.757   5.864
 5640POPC   GL171401  28.327  16.751   6.164
 5640POPC   GL271402  28.335  16.826   6.164
 5640POPC   C1A71403  28.360  16.771   6.464
 5640POPC   D2A71404  28.410  16.765   6.764
 5640POPC   C3A71405  28.355  16.747   7.064
 5640POPC   C4A71406  28.391  16.756   7.364
 5640POPC   C1B71407  28.241  16.920   6.464
 5640POPC   C2B71408  28.284  16.931   6.764
 5640POPC   C3B71409  28.232  16.901   7.064
 5640POPC   C4B71410  28.221  16.977   7.364
 5641POPC   NC371411  27.642  26.002   5.564
 5641POPC   PO471412  27.553  25.993   5.864
 5641POPC   GL171413  27.604  26.061   6.164
 5641POPC   GL271414  27.625  25.941   6.164
 5641POPC   C1A71415  27.619  26.002   6.464
 5641POPC   D2A71416  27.560  26.009   6.764
 5641POPC   C3A71417  27.636  25.998   7.064
 5641POPC   C4A71418  27.625  26.072   7.364
 5641POPC   C1B71419  27.703  25.809   6.464
 5641POPC   C2B71420  27.726  25.859   6.764
 5641POPC   C3B71421  27.734  25.822   7.064
 5641POPC   C4B71422  27.701  25.856   7.364
 5642POPC   NC371423  14.441  35.369   5.564
 5642POPC   PO471424  14.408  35.324   5.864
 5642POPC   GL171425  14.435  35.304   6.164
 5642POPC   GL271426  14.550  35.388   6.164
 5642POPC   C1A71427  14.423  35.322   6.464
 5642POPC   D2A71428  14.434  35.361   6.764
 5642POPC   C3A71429  14.425  35.304   7.064
 5642POPC   C4A71430  14.432  35.351   7.364
 5642POPC   C1B71431  14.610  35.430   6.464
 5642POPC   C2B71432  14.653  35.385   6.764
 5642POPC   C3B71433  14.667  35.444   7.064
 5642POPC   C4B71434  14.692  35.432   7.364
 5643POPC   NC371435   2.758   7.417   5.564
 5643POPC   PO471436   2.737   7.455   5.864
 5643POPC   GL171437   2.768   7.386   6.164
 5643POPC   GL271438   2.607   7.433   6.164
 5643POPC   C1A71439   2.804   7.464   6.464
 5643POPC   D2A71440   2.771   7.384   6.764
 5643POPC   C3A71441   2.813   7.380   7.064
 5643POPC   C4A71442   2.758   7.391   7.364
 5643POPC   C1B71443   2.559   7.508   6.464
 5643POPC   C2B71444   2.530   7.479   6.764
 5643POPC   C3B71445   2.528   7.439   7.064
 5643POPC   C4B71446   2.484   7.488   7.364
 5644POPC   NC371447   6.618  19.048   5.564
 5644POPC   PO471448   6.611  19.016   5.864
 5644POPC   GL171449   6.677  19.064   6.164
 5644POPC   GL271450   6.744  19.002   6.164
 5644POPC   C1A71451   6.660  19.013   6.464
 5644POPC   D2A71452   6.682  19.105   6.764
 5644POPC   C3A71453   6.605  19.104   7.064
 5644POPC   C4A71454   6.681  19.103   7.364
 5644POPC   C1B71455   6.821  18.853   6.464
 5644POPC   C2B71456   6.791  18.865   6.764
 5644POPC   C3B71457   6.858  18.854   7.064
 5644POPC   C4B71458   6.795  18.860   7.364
 5645POPC   NC371459   5.112  22.969   5.564
 5645POPC   PO471460   5.113  22.933   5.864
 5645POPC   GL171461   5.076  22.892   6.164
 5645POPC   GL271462   5.208  22.880   6.164
 5645POPC   C1A71463   5.070  22.900   6.464
 5645POPC   D2A71464   5.057  22.958   6.764
 5645POPC   C3A71465   5.095  22.921   7.064
 5645POPC   C4A71466   5.073  22.909   7.364
 5645POPC   C1B71467   5.259  22.824   6.464
 5645POPC   C2B71468   5.276  22.769   6.764
 5645POPC   C3B71469   5.320  22.835   7.064
 5645POPC   C4B71470   5.339  22.768   7.364
 5646POPC   NC371471  41.546   6.608   5.564
 5646POPC   PO471472  41.516   6.666   5.864
 5646POPC   GL171473  41.547   6.634   6.164
 5646POPC   GL271474  41.473   6.675   6.164
 5646POPC   C1A71475  41.564   6.596   6.464
 5646POPC   D2A71476  41.604   6.635   6.764
 5646POPC   C3A71477  41.528   6.695   7.064
 5646POPC   C4A71478  41.565   6.623   7.364
 5646POPC   C1B71479  41.315   6.777   6.464
 5646POPC   C2B71480  41.372   6.744   6.764
 5646POPC   C3B71481  41.385   6.818   7.064
 5646POPC   C4B71482  41.372   6.806   7.364
 5647POPC   NC371483  25.268  30.704   5.564
 5647POPC   PO471484  25.283  30.709   5.864
 5647POPC   GL171485  25.265  30.722   6.164
 5647POPC   GL271486  25.405  30.684   6.164
 5647POPC   C1A71487  25.234  30.671   6.464
 5647POPC   D2A71488  25.248  30.713   6.764
 5647POPC   C3A71489  25.232  30.688   7.064
 5647POPC   C4A71490  25.314  30.663   7.364
 5647POPC   C1B71491  25.513  30.700   6.464
 5647POPC   C2B71492  25.519  30.784   6.764
 5647POPC   C3B71493  25.485  30.785   7.064
 5647POPC   C4B71494  25.538  30.726   7.364
 5648POPC   NC371495  19.044  18.290   5.564
 5648POPC   PO471496  19.042  18.310   5.864
 5648POPC   GL171497  19.083  18.274   6.164
 5648POPC   GL271498  18.905  18.204   6.164
 5648POPC   C1A71499  19.075  18.277   6.464
 5648POPC   D2A71500  19.011  18.293   6.764
 5648POPC   C3A71501  19.101  18.301   7.064
 5648POPC   C4A71502  19.083  18.271   7.364
 5648POPC   C1B71503  18.881  18.128   6.464
 5648POPC   C2B71504  18.840  18.211   6.764
 5648POPC   C3B71505  18.803  18.122   7.064
 5648POPC   C4B71506  18.865  18.147   7.364
 5649POPC   NC371507  27.609  27.609   5.564
 5649POPC   PO471508  27.553  27.608   5.864
 5649POPC   GL171509  27.628  27.560   6.164
 5649POPC   GL271510  27.451  27.675   6.164
 5649POPC   C1A71511  27.569  27.575   6.464
 5649POPC   D2A71512  27.604  27.607   6.764
 5649POPC   C3A71513  27.588  27.605   7.064
 5649POPC   C4A71514  27.573  27.642   7.364
 5649POPC   C1B71515  27.392  27.770   6.464
 5649POPC   C2B71516  27.377  27.777   6.764
 5649POPC   C3B71517  27.435  27.748   7.064
 5649POPC   C4B71518  27.423  27.691   7.364
 5650POPC   NC371519  12.852  28.349   5.564
 5650POPC   PO471520  12.830  28.366   5.864
 5650POPC   GL171521  12.872  28.349   6.164
 5650POPC   GL271522  12.990  28.347   6.164
 5650POPC   C1A71523  12.870  28.355   6.464
 5650POPC   D2A71524  12.838  28.391   6.764
 5650POPC   C3A71525  12.817  28.333   7.064
 5650POPC   C4A71526  12.865  28.343   7.364
 5650POPC   C1B71527  13.117  28.382   6.464
 5650POPC   C2B71528  13.061  28.384   6.764
 5650POPC   C3B71529  13.072  28.328   7.064
 5650POPC   C4B71530  13.089  28.391   7.364
 5651POPC   NC371531   8.219   9.012   5.564
 5651POPC   PO471532   8.148   8.994   5.864
 5651POPC   GL171533   8.214   8.996   6.164
 5651POPC   GL271534   8.067   9.058   6.164
 5651POPC   C1A71535   8.244   8.935   6.464
 5651POPC   D2A71536   8.180   9.007   6.764
 5651POPC   C3A71537   8.197   8.927   7.064
 5651POPC   C4A71538   8.196   8.947   7.364
 5651POPC   C1B71539   8.022   9.115   6.464
 5651POPC   C2B71540   8.019   9.204   6.764
 5651POPC   C3B71541   8.005   9.145   7.064
 5651POPC   C4B71542   8.041   9.121   7.364
 5652POPC   NC371543   3.521  29.919   5.564
 5652POPC   PO471544   3.520  29.912   5.864
 5652POPC   GL171545   3.499  29.909   6.164
 5652POPC   GL271546   3.394  30.004   6.164
 5652POPC   C1A71547   3.511  29.878   6.464
 5652POPC   D2A71548   3.566  29.895   6.764
 5652POPC   C3A71549   3.553  29.892   7.064
 5652POPC   C4A71550   3.519  29.880   7.364
 5652POPC   C1B71551   3.289  30.075   6.464
 5652POPC   C2B71552   3.360  30.024   6.764
 5652POPC   C3B71553   3.376  30.014   7.064
 5652POPC   C4B71554   3.285  30.033   7.364
 5653POPC   NC371555  29.137  28.332   5.564
 5653POPC   PO471556  29.096  28.355   5.864
 5653POPC   GL171557  29.126  28.342   6.164
 5653POPC   GL271558  29.042  28.392   6.164
 5653POPC   C1A71559  29.182  28.365   6.464
 5653POPC   D2A71560  29.161  28.407   6.764
 5653POPC   C3A71561  29.138  28.337   7.064
 5653POPC   C4A71562  29.120  28.338   7.364
 5653POPC   C1B71563  28.938  28.343   6.464
 5653POPC   C2B71564  28.854  28.333   6.764
 5653POPC   C3B71565  28.861  28.355   7.064
 5653POPC   C4B71566  28.884  28.376   7.364
 5654POPC   NC371567   1.200  14.441   5.564
 5654POPC   PO471568   1.237  14.392   5.864
 5654POPC   GL171569   1.227  14.414   6.164
 5654POPC   GL271570   1.267  14.276   6.164
 5654POPC   C1A71571   1.189  14.384   6.464
 5654POPC   D2A71572   1.204  14.415   6.764
 5654POPC   C3A71573   1.192  14.435   7.064
 5654POPC   C4A71574   1.258  14.446   7.364
 5654POPC   C1B71575   1.341  14.151   6.464
 5654POPC   C2B71576   1.284  14.176   6.764
 5654POPC   C3B71577   1.366  14.184   7.064
 5654POPC   C4B71578   1.274  14.191   7.364
 5655POPC   NC371579  19.813  21.371   5.564
 5655POPC   PO471580  19.869  21.391   5.864
 5655POPC   GL171581  19.835  21.435   6.164
 5655POPC   GL271582  19.934  21.361   6.164
 5655POPC   C1A71583  19.809  21.433   6.464
 5655POPC   D2A71584  19.879  21.416   6.764
 5655POPC   C3A71585  19.788  21.353   7.064
 5655POPC   C4A71586  19.878  21.343   7.364
 5655POPC   C1B71587  20.083  21.344   6.464
 5655POPC   C2B71588  20.079  21.420   6.764
 5655POPC   C3B71589  20.116  21.345   7.064
 5655POPC   C4B71590  20.065  21.420   7.364
 5656POPC   NC371591  27.565  11.250   5.564
 5656POPC   PO471592  27.632  11.310   5.864
 5656POPC   GL171593  27.546  11.286   6.164
 5656POPC   GL271594  27.626  11.160   6.164
 5656POPC   C1A71595  27.632  11.317   6.464
 5656POPC   D2A71596  27.633  11.270   6.764
 5656POPC   C3A71597  27.584  11.275   7.064
 5656POPC   C4A71598  27.560  11.277   7.364
 5656POPC   C1B71599  27.741  11.065   6.464
 5656POPC   C2B71600  27.799  11.069   6.764
 5656POPC   C3B71601  27.775  11.115   7.064
 5656POPC   C4B71602  27.763  11.146   7.364
 5657POPC   NC371603  12.895   8.996   5.564
 5657POPC   PO471604  12.825   8.956   5.864
 5657POPC   GL171605  12.823   8.960   6.164
 5657POPC   GL271606  12.875   8.889   6.164
 5657POPC   C1A71607  12.893   8.971   6.464
 5657POPC   D2A71608  12.858   8.931   6.764
 5657POPC   C3A71609  12.843   8.985   7.064
 5657POPC   C4A71610  12.856   8.948   7.364
 5657POPC   C1B71611  13.022   8.746   6.464
 5657POPC   C2B71612  13.011   8.767   6.764
 5657POPC   C3B71613  12.989   8.756   7.064
 5657POPC   C4B71614  12.949   8.719   7.364
 5658POPC   NC371615  14.446   6.612   5.564
 5658POPC   PO471616  14.385   6.692   5.864
 5658POPC   GL171617  14.371   6.657   6.164
 5658POPC   GL271618  14.323   6.511   6.164
 5658POPC   C1A71619  14.405   6.693   6.464
 5658POPC   D2A71620  14.354   6.655   6.764
 5658POPC   C3A71621  14.443   6.611   7.064
 5658POPC   C4A71622  14.386   6.654   7.364
 5658POPC   C1B71623  14.208   6.461   6.464
 5658POPC   C2B71624  14.230   6.519   6.764
 5658POPC   C3B71625  14.199   6.517   7.064
 5658POPC   C4B71626  14.205   6.426   7.364
 5659POPC   NC371627  21.419  13.582   5.564
 5659POPC   PO471628  21.370  13.625   5.864
 5659POPC   GL171629  21.371  13.630   6.164
 5659POPC   GL271630  21.285  13.695   6.164
 5659POPC   C1A71631  21.435  13.640   6.464
 5659POPC   D2A71632  21.372  13.628   6.764
 5659POPC   C3A71633  21.417  13.654   7.064
 5659POPC   C4A71634  21.425  13.655   7.364
 5659POPC   C1B71635  21.110  13.645   6.464
 5659POPC   C2B71636  21.135  13.651   6.764
 5659POPC   C3B71637  21.116  13.717   7.064
 5659POPC   C4B71638  21.125  13.675   7.364
 5660POPC   NC371639   1.196  28.385   5.564
 5660POPC   PO471640   1.186  28.330   5.864
 5660POPC   GL171641   1.212  28.362   6.164
 5660POPC   GL271642   1.067  28.350   6.164
 5660POPC   C1A71643   1.247  28.386   6.464
 5660POPC   D2A71644   1.247  28.361   6.764
 5660POPC   C3A71645   1.169  28.337   7.064
 5660POPC   C4A71646   1.167  28.370   7.364
 5660POPC   C1B71647   0.920  28.371   6.464
 5660POPC   C2B71648   1.010  28.375   6.764
 5660POPC   C3B71649   0.948  28.379   7.064
 5660POPC   C4B71650   0.958  28.349   7.364
 5661POPC   NC371651  41.538  27.640   5.564
 5661POPC   PO471652  41.539  27.581   5.864
 5661POPC   GL171653  41.559  27.585   6.164
 5661POPC   GL271654  41.460  27.640   6.164
 5661POPC   C1A71655  41.579  27.546   6.464
 5661POPC   D2A71656  41.568  27.599   6.764
 5661POPC   C3A71657  41.596  27.549   7.064
 5661POPC   C4A71658  41.598  27.624   7.364
 5661POPC   C1B71659  41.293  27.554   6.464
 5661POPC   C2B71660  41.296  27.564   6.764
 5661POPC   C3B71661  41.268  27.598   7.064
 5661POPC   C4B71662  41.278  27.605   7.364
 5662POPC   NC371663   3.534  29.164   5.564
 5662POPC   PO471664   3.563  29.152   5.864
 5662POPC   GL171665   3.538  29.169   6.164
 5662POPC   GL271666   3.433  29.171   6.164
 5662POPC   C1A71667   3.552  29.151   6.464
 5662POPC   D2A71668   3.500  29.108   6.764
 5662POPC   C3A71669   3.528  29.170   7.064
 5662POPC   C4A71670   3.505  29.145   7.364
 5662POPC   C1B71671   3.265  29.160   6.464
 5662POPC   C2B71672   3.304  29.157   6.764
 5662POPC   C3B71673   3.252  29.131   7.064
 5662POPC   C4B71674   3.323  29.184   7.364
 5663POPC   NC371675  15.976   3.498   5.564
 5663POPC   PO471676  15.944   3.499   5.864
 5663POPC   GL171677  15.982   3.495   6.164
 5663POPC   GL271678  16.095   3.630   6.164
 5663POPC   C1A71679  15.951   3.509   6.464
 5663POPC   D2A71680  15.935   3.563   6.764
 5663POPC   C3A71681  15.972   3.572   7.064
 5663POPC   C4A71682  15.969   3.503   7.364
 5663POPC   C1B71683  16.182   3.704   6.464
 5663POPC   C2B71684  16.130   3.656   6.764
 5663POPC   C3B71685  16.129   3.690   7.064
 5663POPC   C4B71686  16.137   3.676   7.364
 5664POPC   NC371687  38.482   1.965   5.564
 5664POPC   PO471688  38.500   1.977   5.864
 5664POPC   GL171689  38.479   1.965   6.164
 5664POPC   GL271690  38.378   1.869   6.164
 5664POPC   C1A71691  38.435   2.013   6.464
 5664POPC   D2A71692  38.453   2.026   6.764
 5664POPC   C3A71693  38.460   1.962   7.064
 5664POPC   C4A71694  38.442   1.964   7.364
 5664POPC   C1B71695  38.392   1.759   6.464
 5664POPC   C2B71696  38.389   1.763   6.764
 5664POPC   C3B71697  38.343   1.782   7.064
 5664POPC   C4B71698  38.425   1.754   7.364
 5665POPC   NC371699   2.020   5.085   5.564
 5665POPC   PO471700   1.944   5.077   5.864
 5665POPC   GL171701   2.013   5.044   6.164
 5665POPC   GL271702   2.103   5.158   6.164
 5665POPC   C1A71703   1.996   5.093   6.464
 5665POPC   D2A71704   1.940   5.062   6.764
 5665POPC   C3A71705   1.960   5.085   7.064
 5665POPC   C4A71706   1.975   5.055   7.364
 5665POPC   C1B71707   2.228   5.188   6.464
 5665POPC   C2B71708   2.256   5.163   6.764
 5665POPC   C3B71709   2.259   5.252   7.064
 5665POPC   C4B71710   2.198   5.225   7.364
 5666POPC   NC371711   2.768  26.859   5.564
 5666POPC   PO471712   2.790  26.823   5.864
 5666POPC   GL171713   2.729  26.788   6.164
 5666POPC   GL271714   2.774  26.967   6.164
 5666POPC   C1A71715   2.722  26.781   6.464
 5666POPC   D2A71716   2.766  26.806   6.764
 5666POPC   C3A71717   2.754  26.804   7.064
 5666POPC   C4A71718   2.805  26.814   7.364
 5666POPC   C1B71719   2.711  27.045   6.464
 5666POPC   C2B71720   2.766  27.072   6.764
 5666POPC   C3B71721   2.780  27.058   7.064
 5666POPC   C4B71722   2.788  27.095   7.364
 5667POPC   NC371723  20.577  39.208   5.564
 5667POPC   PO471724  20.561  39.219   5.864
 5667POPC   GL171725  20.620  39.229   6.164
 5667POPC   GL271726  20.693  39.217   6.164
 5667POPC   C1A71727  20.647  39.273   6.464
 5667POPC   D2A71728  20.609  39.225   6.764
 5667POPC   C3A71729  20.650  39.201   7.064
 5667POPC   C4A71730  20.632  39.201   7.364
 5667POPC   C1B71731  20.876  39.162   6.464
 5667POPC   C2B71732  20.812  39.206   6.764
 5667POPC   C3B71733  20.827  39.165   7.064
 5667POPC   C4B71734  20.897  39.166   7.364
 5668POPC   NC371735  23.718  42.381   5.564
 5668POPC   PO471736  23.727  42.368   5.864
 5668POPC   GL171737  23.719  42.303   6.164
 5668POPC   GL271738  23.790  42.362   6.164
 5668POPC   C1A71739  23.743  42.292   6.464
 5668POPC   D2A71740  23.753  42.378   6.764
 5668POPC   C3A71741  23.671  42.299   7.064
 5668POPC   C4A71742  23.694  42.331   7.364
 5668POPC   C1B71743  23.944  42.350   6.464
 5668POPC   C2B71744  23.999  42.370   6.764
 5668POPC   C3B71745  23.911  42.345   7.064
 5668POPC   C4B71746  23.959  42.402   7.364
 5669POPC   NC371747  37.678  43.066   5.564
 5669POPC   PO471748  37.715  43.094   5.864
 5669POPC   GL171749  37.713  43.097   6.164
 5669POPC   GL271750  37.771  43.170   6.164
 5669POPC   C1A71751  37.651  43.095   6.464
 5669POPC   D2A71752  37.680  43.133   6.764
 5669POPC   C3A71753  37.717  43.077   7.064
 5669POPC   C4A71754  37.683  43.128   7.364
 5669POPC   C1B71755  37.863  43.228   6.464
 5669POPC   C2B71756  37.886  43.286   6.764
 5669POPC   C3B71757  37.873  43.220   7.064
 5669POPC   C4B71758  37.871  43.272   7.364
 5670POPC   NC371759  26.074  16.762   5.564
 5670POPC   PO471760  26.091  16.727   5.864
 5670POPC   GL171761  26.046  16.715   6.164
 5670POPC   GL271762  25.994  16.847   6.164
 5670POPC   C1A71763  26.006  16.720   6.464
 5670POPC   D2A71764  26.013  16.689   6.764
 5670POPC   C3A71765  25.994  16.684   7.064
 5670POPC   C4A71766  26.024  16.732   7.364
 5670POPC   C1B71767  26.016  17.010   6.464
 5670POPC   C2B71768  26.025  17.008   6.764
 5670POPC   C3B71769  26.016  16.986   7.064
 5670POPC   C4B71770  26.018  16.977   7.364
 5671POPC   NC371771  18.270  39.271   5.564
 5671POPC   PO471772  18.307  39.226   5.864
 5671POPC   GL171773  18.318  39.213   6.164
 5671POPC   GL271774  18.340  39.323   6.164
 5671POPC   C1A71775  18.300  39.243   6.464
 5671POPC   D2A71776  18.321  39.247   6.764
 5671POPC   C3A71777  18.261  39.258   7.064
 5671POPC   C4A71778  18.260  39.232   7.364
 5671POPC   C1B71779  18.506  39.371   6.464
 5671POPC   C2B71780  18.500  39.439   6.764
 5671POPC   C3B71781  18.444  39.431   7.064
 5671POPC   C4B71782  18.493  39.340   7.364
 5672POPC   NC371783  36.879   0.482   5.564
 5672POPC   PO471784  36.951   0.487   5.864
 5672POPC   GL171785  36.948   0.445   6.164
 5672POPC   GL271786  36.992   0.377   6.164
 5672POPC   C1A71787  36.883   0.446   6.464
 5672POPC   D2A71788  36.866   0.426   6.764
 5672POPC   C3A71789  36.897   0.443   7.064
 5672POPC   C4A71790  36.932   0.457   7.364
 5672POPC   C1B71791  37.124   0.263   6.464
 5672POPC   C2B71792  37.135   0.317   6.764
 5672POPC   C3B71793  37.111   0.323   7.064
 5672POPC   C4B71794  37.095   0.280   7.364
 5673POPC   NC371795  15.981   1.228   5.564
 5673POPC   PO471796  15.919   1.251   5.864
 5673POPC   GL171797  15.932   1.186   6.164
 5673POPC   GL271798  16.046   1.246   6.164
 5673POPC   C1A71799  15.929   1.214   6.464
 5673POPC   D2A71800  15.988   1.174   6.764
 5673POPC   C3A71801  15.987   1.176   7.064
 5673POPC   C4A71802  15.974   1.237   7.364
 5673POPC   C1B71803  16.136   1.361   6.464
 5673POPC   C2B71804  16.188   1.395   6.764
 5673POPC   C3B71805  16.130   1.389   7.064
 5673POPC   C4B71806  16.119   1.406   7.364
 5674POPC   NC371807  40.002  36.858   5.564
 5674POPC   PO471808  39.986  36.885   5.864
 5674POPC   GL171809  40.055  36.920   6.164
 5674POPC   GL271810  40.068  36.738   6.164
 5674POPC   C1A71811  39.977  36.866   6.464
 5674POPC   D2A71812  39.996  36.868   6.764
 5674POPC   C3A71813  39.957  36.898   7.064
 5674POPC   C4A71814  40.007  36.944   7.364
 5674POPC   C1B71815  40.038  36.707   6.464
 5674POPC   C2B71816  40.035  36.700   6.764
 5674POPC   C3B71817  40.061  36.615   7.064
 5674POPC   C4B71818  40.014  36.619   7.364
 5675POPC   NC371819  22.940  28.380   5.564
 5675POPC   PO471820  22.911  28.332   5.864
 5675POPC   GL171821  22.918  28.388   6.164
 5675POPC   GL271822  22.978  28.518   6.164
 5675POPC   C1A71823  22.932  28.321   6.464
 5675POPC   D2A71824  22.927  28.379   6.764
 5675POPC   C3A71825  22.952  28.345   7.064
 5675POPC   C4A71826  22.981  28.369   7.364
 5675POPC   C1B71827  22.937  28.634   6.464
 5675POPC   C2B71828  22.970  28.666   6.764
 5675POPC   C3B71829  22.967  28.662   7.064
 5675POPC   C4B71830  22.945  28.662   7.364
 5676POPC   NC371831  24.508   4.319   5.564
 5676POPC   PO471832  24.529   4.338   5.864
 5676POPC   GL171833  24.471   4.302   6.164
 5676POPC   GL271834  24.485   4.208   6.164
 5676POPC   C1A71835  24.450   4.323   6.464
 5676POPC   D2A71836  24.453   4.330   6.764
 5676POPC   C3A71837  24.480   4.276   7.064
 5676POPC   C4A71838  24.476   4.292   7.364
 5676POPC   C1B71839  24.529   4.065   6.464
 5676POPC   C2B71840  24.600   4.112   6.764
 5676POPC   C3B71841  24.532   4.121   7.064
 5676POPC   C4B71842  24.583   4.076   7.364
 5677POPC   NC371843   5.888  36.100   5.564
 5677POPC   PO471844   5.858  36.092   5.864
 5677POPC   GL171845   5.914  36.093   6.164
 5677POPC   GL271846   5.781  36.060   6.164
 5677POPC   C1A71847   5.864  36.175   6.464
 5677POPC   D2A71848   5.877  36.141   6.764
 5677POPC   C3A71849   5.850  36.160   7.064
 5677POPC   C4A71850   5.903  36.164   7.364
 5677POPC   C1B71851   5.593  36.032   6.464
 5677POPC   C2B71852   5.627  36.021   6.764
 5677POPC   C3B71853   5.662  36.015   7.064
 5677POPC   C4B71854   5.596  36.073   7.364
 5678POPC   NC371855  31.489  15.933   5.564
 5678POPC   PO471856  31.468  15.959   5.864
 5678POPC   GL171857  31.505  15.962   6.164
 5678POPC   GL271858  31.411  15.848   6.164
 5678POPC   C1A71859  31.516  16.005   6.464
 5678POPC   D2A71860  31.448  15.927   6.764
 5678POPC   C3A71861  31.487  15.942   7.064
 5678POPC   C4A71862  31.440  15.997   7.364
 5678POPC   C1B71863  31.237  15.850   6.464
 5678POPC   C2B71864  31.286  15.831   6.764
 5678POPC   C3B71865  31.274  15.861   7.064
 5678POPC   C4B71866  31.225  15.839   7.364
 5679POPC   NC371867  44.685  33.047   5.564
 5679POPC   PO471868  44.699  32.988   5.864
 5679POPC   GL171869  44.707  32.977   6.164
 5679POPC   GL271870  44.566  33.002   6.164
 5679POPC   C1A71871  44.674  33.024   6.464
 5679POPC   D2A71872  44.653  33.009   6.764
 5679POPC   C3A71873  44.619  32.997   7.064
 5679POPC   C4A71874  44.659  32.976   7.364
 5679POPC   C1B71875  44.440  32.891   6.464
 5679POPC   C2B71876  44.442  32.909   6.764
 5679POPC   C3B71877  44.457  32.920   7.064
 5679POPC   C4B71878  44.459  32.973   7.364
 5680POPC   NC371879  20.653   4.332   5.564
 5680POPC   PO471880  20.638   4.288   5.864
 5680POPC   GL171881  20.620   4.280   6.164
 5680POPC   GL271882  20.483   4.257   6.164
 5680POPC   C1A71883  20.590   4.323   6.464
 5680POPC   D2A71884  20.642   4.302   6.764
 5680POPC   C3A71885  20.610   4.273   7.064
 5680POPC   C4A71886  20.591   4.302   7.364
 5680POPC   C1B71887  20.406   4.242   6.464
 5680POPC   C2B71888  20.404   4.249   6.764
 5680POPC   C3B71889  20.328   4.265   7.064
 5680POPC   C4B71890  20.357   4.314   7.364
 5681POPC   NC371891  40.021  32.282   5.564
 5681POPC   PO471892  39.981  32.247   5.864
 5681POPC   GL171893  40.040  32.205   6.164
 5681POPC   GL271894  40.035  32.157   6.164
 5681POPC   C1A71895  39.990  32.287   6.464
 5681POPC   D2A71896  40.039  32.216   6.764
 5681POPC   C3A71897  39.958  32.261   7.064
 5681POPC   C4A71898  40.007  32.263   7.364
 5681POPC   C1B71899  39.940  32.004   6.464
 5681POPC   C2B71900  39.951  31.962   6.764
 5681POPC   C3B71901  39.939  32.046   7.064
 5681POPC   C4B71902  40.002  32.023   7.364
 5682POPC   NC371903  20.617  33.836   5.564
 5682POPC   PO471904  20.564  33.788   5.864
 5682POPC   GL171905  20.616  33.759   6.164
 5682POPC   GL271906  20.643  33.891   6.164
 5682POPC   C1A71907  20.626  33.846   6.464
 5682POPC   D2A71908  20.626  33.840   6.764
 5682POPC   C3A71909  20.628  33.847   7.064
 5682POPC   C4A71910  20.596  33.786   7.364
 5682POPC   C1B71911  20.804  33.985   6.464
 5682POPC   C2B71912  20.785  33.987   6.764
 5682POPC   C3B71913  20.788  33.954   7.064
 5682POPC   C4B71914  20.762  33.950   7.364
 5683POPC   NC371915  23.729  16.730   5.564
 5683POPC   PO471916  23.761  16.746   5.864
 5683POPC   GL171917  23.715  16.681   6.164
 5683POPC   GL271918  23.592  16.745   6.164
 5683POPC   C1A71919  23.688  16.689   6.464
 5683POPC   D2A71920  23.703  16.721   6.764
 5683POPC   C3A71921  23.733  16.699   7.064
 5683POPC   C4A71922  23.745  16.777   7.364
 5683POPC   C1B71923  23.439  16.757   6.464
 5683POPC   C2B71924  23.515  16.748   6.764
 5683POPC   C3B71925  23.511  16.753   7.064
 5683POPC   C4B71926  23.460  16.771   7.364
 5684POPC   NC371927   9.726   9.736   5.564
 5684POPC   PO471928   9.716   9.746   5.864
 5684POPC   GL171929   9.724   9.699   6.164
 5684POPC   GL271930   9.728   9.604   6.164
 5684POPC   C1A71931   9.727   9.790   6.464
 5684POPC   D2A71932   9.715   9.751   6.764
 5684POPC   C3A71933   9.771   9.778   7.064
 5684POPC   C4A71934   9.763   9.734   7.364
 5684POPC   C1B71935   9.639   9.528   6.464
 5684POPC   C2B71936   9.690   9.532   6.764
 5684POPC   C3B71937   9.621   9.494   7.064
 5684POPC   C4B71938   9.662   9.479   7.364
 5685POPC   NC371939   0.441  22.160   5.564
 5685POPC   PO471940   0.487  22.127   5.864
 5685POPC   GL171941   0.483  22.126   6.164
 5685POPC   GL271942   0.394  22.040   6.164
 5685POPC   C1A71943   0.469  22.191   6.464
 5685POPC   D2A71944   0.424  22.156   6.764
 5685POPC   C3A71945   0.483  22.121   7.064
 5685POPC   C4A71946   0.403  22.116   7.364
 5685POPC   C1B71947   0.439  21.878   6.464
 5685POPC   C2B71948   0.387  21.874   6.764
 5685POPC   C3B71949   0.479  21.877   7.064
 5685POPC   C4B71950   0.409  21.899   7.364
 5686POPC   NC371951   1.232  12.803   5.564
 5686POPC   PO471952   1.237  12.849   5.864
 5686POPC   GL171953   1.250  12.886   6.164
 5686POPC   GL271954   1.317  12.852   6.164
 5686POPC   C1A71955   1.234  12.894   6.464
 5686POPC   D2A71956   1.198  12.830   6.764
 5686POPC   C3A71957   1.232  12.851   7.064
 5686POPC   C4A71958   1.260  12.866   7.364
 5686POPC   C1B71959   1.442  12.996   6.464
 5686POPC   C2B71960   1.455  12.946   6.764
 5686POPC   C3B71961   1.443  12.981   7.064
 5686POPC   C4B71962   1.432  12.977   7.364
 5687POPC   NC371963  43.881   3.551   5.564
 5687POPC   PO471964  43.869   3.522   5.864
 5687POPC   GL171965  43.897   3.497   6.164
 5687POPC   GL271966  43.961   3.639   6.164
 5687POPC   C1A71967  43.913   3.496   6.464
 5687POPC   D2A71968  43.862   3.552   6.764
 5687POPC   C3A71969  43.848   3.500   7.064
 5687POPC   C4A71970  43.906   3.533   7.364
 5687POPC   C1B71971  43.898   3.826   6.464
 5687POPC   C2B71972  43.987   3.795   6.764
 5687POPC   C3B71973  43.982   3.804   7.064
 5687POPC   C4B71974  43.903   3.798   7.364
 5688POPC   NC371975   2.809  26.008   5.564
 5688POPC   PO471976   2.809  26.071   5.864
 5688POPC   GL171977   2.727  26.011   6.164
 5688POPC   GL271978   2.701  25.944   6.164
 5688POPC   C1A71979   2.788  25.998   6.464
 5688POPC   D2A71980   2.816  26.028   6.764
 5688POPC   C3A71981   2.777  26.019   7.064
 5688POPC   C4A71982   2.770  26.064   7.364
 5688POPC   C1B71983   2.540  25.878   6.464
 5688POPC   C2B71984   2.521  25.852   6.764
 5688POPC   C3B71985   2.603  25.931   7.064
 5688POPC   C4B71986   2.537  25.893   7.364
 5689POPC   NC371987  36.907  29.968   5.564
 5689POPC   PO471988  36.907  29.888   5.864
 5689POPC   GL171989  36.888  29.934   6.164
 5689POPC   GL271990  36.994  29.948   6.164
 5689POPC   C1A71991  36.875  29.893   6.464
 5689POPC   D2A71992  36.937  29.963   6.764
 5689POPC   C3A71993  36.887  29.963   7.064
 5689POPC   C4A71994  36.911  29.909   7.364
 5689POPC   C1B71995  37.142  30.090   6.464
 5689POPC   C2B71996  37.066  30.066   6.764
 5689POPC   C3B71997  37.102  30.121   7.064
 5689POPC   C4B71998  37.054  30.073   7.364
 5690POPC   NC371999  19.046  37.707   5.564
 5690POPC   PO472000  19.084  37.651   5.864
 5690POPC   GL172001  19.081  37.675   6.164
 5690POPC   GL272002  19.019  37.524   6.164
 5690POPC   C1A72003  19.068  37.657   6.464
 5690POPC   D2A72004  19.102  37.677   6.764
 5690POPC   C3A72005  19.046  37.699   7.064
 5690POPC   C4A72006  19.087  37.631   7.364
 5690POPC   C1B72007  18.983  37.501   6.464
 5690POPC   C2B72008  18.931  37.503   6.764
 5690POPC   C3B72009  18.895  37.430   7.064
 5690POPC   C4B72010  18.966  37.411   7.364
 5691POPC   NC372011   5.082   8.973   5.564
 5691POPC   PO472012   5.080   8.931   5.864
 5691POPC   GL172013   5.083   8.923   6.164
 5691POPC   GL272014   4.983   9.018   6.164
 5691POPC   C1A72015   5.124   8.957   6.464
 5691POPC   D2A72016   5.113   9.004   6.764
 5691POPC   C3A72017   5.107   8.978   7.064
 5691POPC   C4A72018   5.051   8.965   7.364
 5691POPC   C1B72019   4.888   9.089   6.464
 5691POPC   C2B72020   4.858   9.120   6.764
 5691POPC   C3B72021   4.888   9.059   7.064
 5691POPC   C4B72022   4.915   9.149   7.364
 5692POPC   NC372023  38.481  10.556   5.564
 5692POPC   PO472024  38.439  10.498   5.864
 5692POPC   GL172025  38.498  10.474   6.164
 5692POPC   GL272026  38.324  10.654   6.164
 5692POPC   C1A72027  38.476  10.526   6.464
 5692POPC   D2A72028  38.472  10.512   6.764
 5692POPC   C3A72029  38.494  10.540   7.064
 5692POPC   C4A72030  38.439  10.524   7.364
 5692POPC   C1B72031  38.299  10.643   6.464
 5692POPC   C2B72032  38.244  10.710   6.764
 5692POPC   C3B72033  38.229  10.690   7.064
 5692POPC   C4B72034  38.261  10.719   7.364
 5693POPC   NC372035  11.289   3.546   5.564
 5693POPC   PO472036  11.339   3.575   5.864
 5693POPC   GL172037  11.299   3.571   6.164
 5693POPC   GL272038  11.250   3.632   6.164
 5693POPC   C1A72039  11.301   3.496   6.464
 5693POPC   D2A72040  11.322   3.546   6.764
 5693POPC   C3A72041  11.317   3.537   7.064
 5693POPC   C4A72042  11.336   3.577   7.364
 5693POPC   C1B72043  11.122   3.699   6.464
 5693POPC   C2B72044  11.165   3.722   6.764
 5693POPC   C3B72045  11.107   3.718   7.064
 5693POPC   C4B72046  11.121   3.753   7.364
 5694POPC   NC372047  41.608   7.470   5.564
 5694POPC   PO472048  41.595   7.385   5.864
 5694POPC   GL172049  41.594   7.382   6.164
 5694POPC   GL272050  41.714   7.431   6.164
 5694POPC   C1A72051  41.535   7.464   6.464
 5694POPC   D2A72052  41.597   7.376   6.764
 5694POPC   C3A72053  41.548   7.394   7.064
 5694POPC   C4A72054  41.571   7.406   7.364
 5694POPC   C1B72055  41.839   7.439   6.464
 5694POPC   C2B72056  41.776   7.436   6.764
 5694POPC   C3B72057  41.835   7.429   7.064
 5694POPC   C4B72058  41.843   7.379   7.364
 5695POPC   NC372059  43.878  16.709   5.564
 5695POPC   PO472060  43.900  16.701   5.864
 5695POPC   GL172061  43.870  16.687   6.164
 5695POPC   GL272062  43.975  16.854   6.164
 5695POPC   C1A72063  43.882  16.716   6.464
 5695POPC   D2A72064  43.843  16.703   6.764
 5695POPC   C3A72065  43.849  16.773   7.064
 5695POPC   C4A72066  43.854  16.750   7.364
 5695POPC   C1B72067  44.074  16.884   6.464
 5695POPC   C2B72068  44.067  16.883   6.764
 5695POPC   C3B72069  44.132  16.845   7.064
 5695POPC   C4B72070  44.034  16.914   7.364
 5696POPC   NC372071  13.585  27.631   5.564
 5696POPC   PO472072  13.583  27.574   5.864
 5696POPC   GL172073  13.607  27.615   6.164
 5696POPC   GL272074  13.706  27.484   6.164
 5696POPC   C1A72075  13.631  27.573   6.464
 5696POPC   D2A72076  13.633  27.587   6.764
 5696POPC   C3A72077  13.633  27.601   7.064
 5696POPC   C4A72078  13.674  27.568   7.364
 5696POPC   C1B72079  13.811  27.426   6.464
 5696POPC   C2B72080  13.748  27.401   6.764
 5696POPC   C3B72081  13.833  27.449   7.064
 5696POPC   C4B72082  13.794  27.401   7.364
 5697POPC   NC372083  34.548  16.771   5.564
 5697POPC   PO472084  34.596  16.685   5.864
 5697POPC   GL172085  34.595  16.701   6.164
 5697POPC   GL272086  34.700  16.666   6.164
 5697POPC   C1A72087  34.578  16.746   6.464
 5697POPC   D2A72088  34.557  16.713   6.764
 5697POPC   C3A72089  34.534  16.751   7.064
 5697POPC   C4A72090  34.531  16.730   7.364
 5697POPC   C1B72091  34.786  16.544   6.464
 5697POPC   C2B72092  34.761  16.604   6.764
 5697POPC   C3B72093  34.777  16.557   7.064
 5697POPC   C4B72094  34.803  16.602   7.364
 5698POPC   NC372095  10.520  30.664   5.564
 5698POPC   PO472096  10.556  30.717   5.864
 5698POPC   GL172097  10.572  30.673   6.164
 5698POPC   GL272098  10.573  30.653   6.164
 5698POPC   C1A72099  10.485  30.689   6.464
 5698POPC   D2A72100  10.574  30.650   6.764
 5698POPC   C3A72101  10.573  30.678   7.064
 5698POPC   C4A72102  10.560  30.702   7.364
 5698POPC   C1B72103  10.692  30.487   6.464
 5698POPC   C2B72104  10.703  30.556   6.764
 5698POPC   C3B72105  10.705  30.546   7.064
 5698POPC   C4B72106  10.702  30.505   7.364
 5699POPC   NC372107  33.050  26.799   5.564
 5699POPC   PO472108  33.071  26.770   5.864
 5699POPC   GL172109  33.043  26.842   6.164
 5699POPC   GL272110  32.939  26.878   6.164
 5699POPC   C1A72111  33.013  26.820   6.464
 5699POPC   D2A72112  32.975  26.852   6.764
 5699POPC   C3A72113  32.988  26.861   7.064
 5699POPC   C4A72114  33.039  26.810   7.364
 5699POPC   C1B72115  32.844  26.998   6.464
 5699POPC   C2B72116  32.787  26.997   6.764
 5699POPC   C3B72117  32.847  26.955   7.064
 5699POPC   C4B72118  32.864  26.982   7.364
 5700POPC   NC372119  15.182  43.067   5.564
 5700POPC   PO472120  15.202  43.100   5.864
 5700POPC   GL172121  15.157  43.156   6.164
 5700POPC   GL272122  15.099  43.030   6.164
 5700POPC   C1A72123  15.181  43.100   6.464
 5700POPC   D2A72124  15.191  43.149   6.764
 5700POPC   C3A72125  15.216  43.141   7.064
 5700POPC   C4A72126  15.197  43.097   7.364
 5700POPC   C1B72127  15.092  42.888   6.464
 5700POPC   C2B72128  15.101  42.912   6.764
 5700POPC   C3B72129  15.065  42.868   7.064
 5700POPC   C4B72130  15.134  42.868   7.364
 5701POPC   NC372131  31.444  27.639   5.564
 5701POPC   PO472132  31.508  27.554   5.864
 5701POPC   GL172133  31.446  27.570   6.164
 5701POPC   GL272134  31.440  27.428   6.164
 5701POPC   C1A72135  31.455  27.607   6.464
 5701POPC   D2A72136  31.513  27.582   6.764
 5701POPC   C3A72137  31.426  27.574   7.064
 5701POPC   C4A72138  31.487  27.550   7.364
 5701POPC   C1B72139  31.334  27.367   6.464
 5701POPC   C2B72140  31.341  27.364   6.764
 5701POPC   C3B72141  31.411  27.319   7.064
 5701POPC   C4B72142  31.411  27.374   7.364
 5702POPC   NC372143  31.496  19.872   5.564
 5702POPC   PO472144  31.517  19.790   5.864
 5702POPC   GL172145  31.505  19.841   6.164
 5702POPC   GL272146  31.407  19.912   6.164
 5702POPC   C1A72147  31.456  19.821   6.464
 5702POPC   D2A72148  31.444  19.849   6.764
 5702POPC   C3A72149  31.433  19.830   7.064
 5702POPC   C4A72150  31.447  19.852   7.364
 5702POPC   C1B72151  31.323  19.953   6.464
 5702POPC   C2B72152  31.312  19.947   6.764
 5702POPC   C3B72153  31.313  20.030   7.064
 5702POPC   C4B72154  31.263  20.006   7.364
 5703POPC   NC372155  26.088  25.257   5.564
 5703POPC   PO472156  26.059  25.283   5.864
 5703POPC   GL172157  26.073  25.292   6.164
 5703POPC   GL272158  26.013  25.370   6.164
 5703POPC   C1A72159  26.045  25.261   6.464
 5703POPC   D2A72160  26.007  25.250   6.764
 5703POPC   C3A72161  26.006  25.308   7.064
 5703POPC   C4A72162  26.085  25.230   7.364
 5703POPC   C1B72163  25.846  25.472   6.464
 5703POPC   C2B72164  25.858  25.436   6.764
 5703POPC   C3B72165  25.899  25.462   7.064
 5703POPC   C4B72166  25.925  25.420   7.364
 5704POPC   NC372167  25.294   5.885   5.564
 5704POPC   PO472168  25.261   5.837   5.864
 5704POPC   GL172169  25.267   5.828   6.164
 5704POPC   GL272170  25.311   6.002   6.164
 5704POPC   C1A72171  25.223   5.836   6.464
 5704POPC   D2A72172  25.277   5.903   6.764
 5704POPC   C3A72173  25.296   5.825   7.064
 5704POPC   C4A72174  25.282   5.849   7.364
 5704POPC   C1B72175  25.318   6.099   6.464
 5704POPC   C2B72176  25.391   6.109   6.764
 5704POPC   C3B72177  25.330   6.150   7.064
 5704POPC   C4B72178  25.341   6.078   7.364
 5705POPC   NC372179   9.740   1.176   5.564
 5705POPC   PO472180   9.727   1.202   5.864
 5705POPC   GL172181   9.738   1.224   6.164
 5705POPC   GL272182   9.866   1.154   6.164
 5705POPC   C1A72183   9.755   1.260   6.464
 5705POPC   D2A72184   9.761   1.254   6.764
 5705POPC   C3A72185   9.738   1.241   7.064
 5705POPC   C4A72186   9.777   1.168   7.364
 5705POPC   C1B72187   9.899   1.062   6.464
 5705POPC   C2B72188   9.979   1.015   6.764
 5705POPC   C3B72189   9.976   1.015   7.064
 5705POPC   C4B72190   9.958   1.093   7.364
 5706POPC   NC372191  29.109  33.047   5.564
 5706POPC   PO472192  29.193  33.028   5.864
 5706POPC   GL172193  29.117  33.053   6.164
 5706POPC   GL272194  29.172  32.906   6.164
 5706POPC   C1A72195  29.192  32.981   6.464
 5706POPC   D2A72196  29.172  33.048   6.764
 5706POPC   C3A72197  29.168  33.041   7.064
 5706POPC   C4A72198  29.132  33.071   7.364
 5706POPC   C1B72199  29.068  32.818   6.464
 5706POPC   C2B72200  29.105  32.758   6.764
 5706POPC   C3B72201  29.146  32.786   7.064
 5706POPC   C4B72202  29.139  32.792   7.364
 5707POPC   NC372203  12.043  19.061   5.564
 5707POPC   PO472204  12.119  19.057   5.864
 5707POPC   GL172205  12.087  19.026   6.164
 5707POPC   GL272206  12.207  18.991   6.164
 5707POPC   C1A72207  12.044  19.083   6.464
 5707POPC   D2A72208  12.098  19.084   6.764
 5707POPC   C3A72209  12.113  19.010   7.064
 5707POPC   C4A72210  12.123  19.011   7.364
 5707POPC   C1B72211  12.310  19.004   6.464
 5707POPC   C2B72212  12.278  19.007   6.764
 5707POPC   C3B72213  12.317  19.004   7.064
 5707POPC   C4B72214  12.307  18.970   7.364
 5708POPC   NC372215  23.756  20.644   5.564
 5708POPC   PO472216  23.671  20.566   5.864
 5708POPC   GL172217  23.713  20.626   6.164
 5708POPC   GL272218  23.616  20.672   6.164
 5708POPC   C1A72219  23.732  20.642   6.464
 5708POPC   D2A72220  23.706  20.583   6.764
 5708POPC   C3A72221  23.723  20.622   7.064
 5708POPC   C4A72222  23.707  20.572   7.364
 5708POPC   C1B72223  23.449  20.676   6.464
 5708POPC   C2B72224  23.508  20.686   6.764
 5708POPC   C3B72225  23.462  20.669   7.064
 5708POPC   C4B72226  23.478  20.720   7.364
 5709POPC   NC372227   9.732   7.434   5.564
 5709POPC   PO472228   9.793   7.431   5.864
 5709POPC   GL172229   9.764   7.385   6.164
 5709POPC   GL272230   9.832   7.335   6.164
 5709POPC   C1A72231   9.726   7.453   6.464
 5709POPC   D2A72232   9.723   7.381   6.764
 5709POPC   C3A72233   9.704   7.390   7.064
 5709POPC   C4A72234   9.736   7.396   7.364
 5709POPC   C1B72235   9.967   7.288   6.464
 5709POPC   C2B72236   9.964   7.240   6.764
 5709POPC   C3B72237   9.951   7.203   7.064
 5709POPC   C4B72238   9.930   7.288   7.364
 5710POPC   NC372239  43.858  29.880   5.564
 5710POPC   PO472240  43.925  29.880   5.864
 5710POPC   GL172241  43.900  29.891   6.164
 5710POPC   GL272242  43.873  29.752   6.164
 5710POPC   C1A72243  43.917  29.916   6.464
 5710POPC   D2A72244  43.929  29.887   6.764
 5710POPC   C3A72245  43.886  29.964   7.064
 5710POPC   C4A72246  43.840  29.953   7.364
 5710POPC   C1B72247  43.832  29.705   6.464
 5710POPC   C2B72248  43.915  29.674   6.764
 5710POPC   C3B72249  43.861  29.662   7.064
 5710POPC   C4B72250  43.918  29.628   7.364
 5711POPC   NC372251  26.035   1.247   5.564
 5711POPC   PO472252  26.088   1.262   5.864
 5711POPC   GL172253  26.007   1.222   6.164
 5711POPC   GL272254  25.960   1.125   6.164
 5711POPC   C1A72255  26.076   1.240   6.464
 5711POPC   D2A72256  25.996   1.206   6.764
 5711POPC   C3A72257  26.058   1.216   7.064
 5711POPC   C4A72258  26.081   1.242   7.364
 5711POPC   C1B72259  25.882   1.028   6.464
 5711POPC   C2B72260  25.858   1.070   6.764
 5711POPC   C3B72261  25.903   1.006   7.064
 5711POPC   C4B72262  25.872   1.005   7.364
 5712POPC   NC372263   5.110  27.631   5.564
 5712POPC   PO472264   5.093  27.550   5.864
 5712POPC   GL172265   5.047  27.623   6.164
 5712POPC   GL272266   4.948  27.607   6.164
 5712POPC   C1A72267   5.093  27.624   6.464
 5712POPC   D2A72268   5.129  27.631   6.764
 5712POPC   C3A72269   5.072  27.576   7.064
 5712POPC   C4A72270   5.070  27.546   7.364
 5712POPC   C1B72271   4.816  27.631   6.464
 5712POPC   C2B72272   4.884  27.624   6.764
 5712POPC   C3B72273   4.866  27.625   7.064
 5712POPC   C4B72274   4.845  27.607   7.364
 5713POPC   NC372275  25.230  25.992   5.564
 5713POPC   PO472276  25.308  26.078   5.864
 5713POPC   GL172277  25.313  26.005   6.164
 5713POPC   GL272278  25.207  25.974   6.164
 5713POPC   C1A72279  25.268  26.013   6.464
 5713POPC   D2A72280  25.276  26.009   6.764
 5713POPC   C3A72281  25.246  26.059   7.064
 5713POPC   C4A72282  25.256  26.087   7.364
 5713POPC   C1B72283  25.096  25.859   6.464
 5713POPC   C2B72284  25.064  25.857   6.764
 5713POPC   C3B72285  25.067  25.917   7.064
 5713POPC   C4B72286  25.017  25.862   7.364
 5714POPC   NC372287  11.264  30.731   5.564
 5714POPC   PO472288  11.316  30.694   5.864
 5714POPC   GL172289  11.293  30.713   6.164
 5714POPC   GL272290  11.172  30.593   6.164
 5714POPC   C1A72291  11.284  30.738   6.464
 5714POPC   D2A72292  11.251  30.702   6.764
 5714POPC   C3A72293  11.285  30.743   7.064
 5714POPC   C4A72294  11.328  30.716   7.364
 5714POPC   C1B72295  11.059  30.572   6.464
 5714POPC   C2B72296  11.057  30.522   6.764
 5714POPC   C3B72297  11.145  30.540   7.064
 5714POPC   C4B72298  11.056  30.533   7.364
 5715POPC   NC372299   9.707  25.992   5.564
 5715POPC   PO472300   9.747  26.009   5.864
 5715POPC   GL172301   9.760  26.069   6.164
 5715POPC   GL272302   9.832  26.072   6.164
 5715POPC   C1A72303   9.734  26.035   6.464
 5715POPC   D2A72304   9.702  26.060   6.764
 5715POPC   C3A72305   9.773  26.064   7.064
 5715POPC   C4A72306   9.755  26.038   7.364
 5715POPC   C1B72307  10.006  26.031   6.464
 5715POPC   C2B72308  10.039  26.025   6.764
 5715POPC   C3B72309   9.976  26.022   7.064
 5715POPC   C4B72310  10.017  26.015   7.364
 5716POPC   NC372311  37.646  14.417   5.564
 5716POPC   PO472312  37.702  14.385   5.864
 5716POPC   GL172313  37.696  14.450   6.164
 5716POPC   GL272314  37.820  14.464   6.164
 5716POPC   C1A72315  37.711  14.407   6.464
 5716POPC   D2A72316  37.654  14.434   6.764
 5716POPC   C3A72317  37.704  14.365   7.064
 5716POPC   C4A72318  37.659  14.397   7.364
 5716POPC   C1B72319  37.930  14.474   6.464
 5716POPC   C2B72320  37.925  14.479   6.764
 5716POPC   C3B72321  37.887  14.402   7.064
 5716POPC   C4B72322  37.935  14.410   7.364
 5717POPC   NC372323  39.255  13.597   5.564
 5717POPC   PO472324  39.203  13.608   5.864
 5717POPC   GL172325  39.274  13.663   6.164
 5717POPC   GL272326  39.209  13.493   6.164
 5717POPC   C1A72327  39.245  13.671   6.464
 5717POPC   D2A72328  39.187  13.623   6.764
 5717POPC   C3A72329  39.241  13.668   7.064
 5717POPC   C4A72330  39.223  13.623   7.364
 5717POPC   C1B72331  39.170  13.405   6.464
 5717POPC   C2B72332  39.145  13.414   6.764
 5717POPC   C3B72333  39.173  13.395   7.064
 5717POPC   C4B72334  39.137  13.382   7.364
 5718POPC   NC372335   7.424  16.720   5.564
 5718POPC   PO472336   7.378  16.719   5.864
 5718POPC   GL172337   7.381  16.741   6.164
 5718POPC   GL272338   7.525  16.757   6.164
 5718POPC   C1A72339   7.467  16.764   6.464
 5718POPC   D2A72340   7.404  16.720   6.764
 5718POPC   C3A72341   7.395  16.759   7.064
 5718POPC   C4A72342   7.410  16.775   7.364
 5718POPC   C1B72343   7.699  16.760   6.464
 5718POPC   C2B72344   7.694  16.779   6.764
 5718POPC   C3B72345   7.623  16.707   7.064
 5718POPC   C4B72346   7.643  16.711   7.364
 5719POPC   NC372347  41.604  24.492   5.564
 5719POPC   PO472348  41.603  24.467   5.864
 5719POPC   GL172349  41.585  24.453   6.164
 5719POPC   GL272350  41.645  24.326   6.164
 5719POPC   C1A72351  41.565  24.475   6.464
 5719POPC   D2A72352  41.527  24.449   6.764
 5719POPC   C3A72353  41.518  24.443   7.064
 5719POPC   C4A72354  41.526  24.481   7.364
 5719POPC   C1B72355  41.705  24.256   6.464
 5719POPC   C2B72356  41.671  24.281   6.764
 5719POPC   C3B72357  41.651  24.262   7.064
 5719POPC   C4B72358  41.638  24.274   7.364
 5720POPC   NC372359  36.858  42.375   5.564
 5720POPC   PO472360  36.945  42.302   5.864
 5720POPC   GL172361  36.905  42.304   6.164
 5720POPC   GL272362  36.826  42.321   6.164
 5720POPC   C1A72363  36.857  42.313   6.464
 5720POPC   D2A72364  36.926  42.355   6.764
 5720POPC   C3A72365  36.936  42.314   7.064
 5720POPC   C4A72366  36.921  42.342   7.364
 5720POPC   C1B72367  36.631  42.388   6.464
 5720POPC   C2B72368  36.672  42.367   6.764
 5720POPC   C3B72369  36.667  42.430   7.064
 5720POPC   C4B72370  36.696  42.380   7.364
 5721POPC   NC372371  43.856   2.007   5.564
 5721POPC   PO472372  43.902   1.948   5.864
 5721POPC   GL172373  43.914   1.997   6.164
 5721POPC   GL272374  44.027   2.010   6.164
 5721POPC   C1A72375  43.936   1.976   6.464
 5721POPC   D2A72376  43.910   1.957   6.764
 5721POPC   C3A72377  43.869   1.995   7.064
 5721POPC   C4A72378  43.883   1.978   7.364
 5721POPC   C1B72379  44.159   1.950   6.464
 5721POPC   C2B72380  44.157   1.961   6.764
 5721POPC   C3B72381  44.154   1.937   7.064
 5721POPC   C4B72382  44.171   1.896   7.364
 5722POPC   NC372383  31.513  21.383   5.564
 5722POPC   PO472384  31.489  21.364   5.864
 5722POPC   GL172385  31.464  21.366   6.164
 5722POPC   GL272386  31.589  21.249   6.164
 5722POPC   C1A72387  31.504  21.405   6.464
 5722POPC   D2A72388  31.442  21.426   6.764
 5722POPC   C3A72389  31.496  21.418   7.064
 5722POPC   C4A72390  31.470  21.373   7.364
 5722POPC   C1B72391  31.661  21.218   6.464
 5722POPC   C2B72392  31.619  21.240   6.764
 5722POPC   C3B72393  31.675  21.245   7.064
 5722POPC   C4B72394  31.644  21.227   7.364
 5723POPC   NC372395  12.866  17.516   5.564
 5723POPC   PO472396  12.808  17.488   5.864
 5723POPC   GL172397  12.855  17.490   6.164
 5723POPC   GL272398  12.771  17.433   6.164
 5723POPC   C1A72399  12.808  17.553   6.464
 5723POPC   D2A72400  12.805  17.465   6.764
 5723POPC   C3A72401  12.833  17.480   7.064
 5723POPC   C4A72402  12.829  17.470   7.364
 5723POPC   C1B72403  12.690  17.297   6.464
 5723POPC   C2B72404  12.752  17.310   6.764
 5723POPC   C3B72405  12.716  17.299   7.064
 5723POPC   C4B72406  12.737  17.331   7.364
 5724POPC   NC372407   5.855  15.923   5.564
 5724POPC   PO472408   5.835  15.999   5.864
 5724POPC   GL172409   5.917  16.004   6.164
 5724POPC   GL272410   5.973  15.907   6.164
 5724POPC   C1A72411   5.844  16.003   6.464
 5724POPC   D2A72412   5.908  15.942   6.764
 5724POPC   C3A72413   5.849  15.969   7.064
 5724POPC   C4A72414   5.916  15.957   7.364
 5724POPC   C1B72415   6.051  15.774   6.464
 5724POPC   C2B72416   6.064  15.818   6.764
 5724POPC   C3B72417   6.097  15.859   7.064
 5724POPC   C4B72418   6.041  15.807   7.364
 5725POPC   NC372419  37.716  42.286   5.564
 5725POPC   PO472420  37.694  42.294   5.864
 5725POPC   GL172421  37.655  42.293   6.164
 5725POPC   GL272422  37.762  42.429   6.164
 5725POPC   C1A72423  37.705  42.347   6.464
 5725POPC   D2A72424  37.638  42.356   6.764
 5725POPC   C3A72425  37.691  42.288   7.064
 5725POPC   C4A72426  37.675  42.353   7.364
 5725POPC   C1B72427  37.893  42.494   6.464
 5725POPC   C2B72428  37.871  42.533   6.764
 5725POPC   C3B72429  37.890  42.527   7.064
 5725POPC   C4B72430  37.835  42.496   7.364
 5726POPC   NC372431  27.571  23.665   5.564
 5726POPC   PO472432  27.628  23.757   5.864
 5726POPC   GL172433  27.587  23.752   6.164
 5726POPC   GL272434  27.663  23.701   6.164
 5726POPC   C1A72435  27.601  23.760   6.464
 5726POPC   D2A72436  27.634  23.707   6.764
 5726POPC   C3A72437  27.626  23.673   7.064
 5726POPC   C4A72438  27.549  23.707   7.364
 5726POPC   C1B72439  27.832  23.666   6.464
 5726POPC   C2B72440  27.849  23.649   6.764
 5726POPC   C3B72441  27.816  23.651   7.064
 5726POPC   C4B72442  27.826  23.651   7.364
 5727POPC   NC372443  30.661  43.078   5.564
 5727POPC   PO472444  30.678  43.139   5.864
 5727POPC   GL172445  30.671  43.135   6.164
 5727POPC   GL272446  30.638  42.992   6.164
 5727POPC   C1A72447  30.719  43.147   6.464
 5727POPC   D2A72448  30.667  43.096   6.764
 5727POPC   C3A72449  30.655  43.078   7.064
 5727POPC   C4A72450  30.681  43.070   7.364
 5727POPC   C1B72451  30.650  42.873   6.464
 5727POPC   C2B72452  30.640  42.882   6.764
 5727POPC   C3B72453  30.638  42.822   7.064
 5727POPC   C4B72454  30.636  42.864   7.364
 5728POPC   NC372455   2.028   5.849   5.564
 5728POPC   PO472456   2.027   5.859   5.864
 5728POPC   GL172457   1.990   5.882   6.164
 5728POPC   GL272458   2.017   5.753   6.164
 5728POPC   C1A72459   1.947   5.902   6.464
 5728POPC   D2A72460   2.015   5.854   6.764
 5728POPC   C3A72461   1.989   5.881   7.064
 5728POPC   C4A72462   2.022   5.837   7.364
 5728POPC   C1B72463   2.066   5.679   6.464
 5728POPC   C2B72464   2.103   5.638   6.764
 5728POPC   C3B72465   2.147   5.628   7.064
 5728POPC   C4B72466   2.096   5.681   7.364
 5729POPC   NC372467  19.817   2.001   5.564
 5729POPC   PO472468  19.814   1.960   5.864
 5729POPC   GL172469  19.822   2.031   6.164
 5729POPC   GL272470  19.932   1.988   6.164
 5729POPC   C1A72471  19.849   1.964   6.464
 5729POPC   D2A72472  19.792   2.025   6.764
 5729POPC   C3A72473  19.804   2.030   7.064
 5729POPC   C4A72474  19.844   1.980   7.364
 5729POPC   C1B72475  20.070   2.015   6.464
 5729POPC   C2B72476  20.035   2.043   6.764
 5729POPC   C3B72477  20.058   2.068   7.064
 5729POPC   C4B72478  20.107   2.112   7.364
 5730POPC   NC372479  25.261  27.555   5.564
 5730POPC   PO472480  25.278  27.631   5.864
 5730POPC   GL172481  25.280  27.591   6.164
 5730POPC   GL272482  25.329  27.667   6.164
 5730POPC   C1A72483  25.307  27.603   6.464
 5730POPC   D2A72484  25.309  27.640   6.764
 5730POPC   C3A72485  25.297  27.575   7.064
 5730POPC   C4A72486  25.259  27.577   7.364
 5730POPC   C1B72487  25.470  27.779   6.464
 5730POPC   C2B72488  25.475  27.766   6.764
 5730POPC   C3B72489  25.494  27.741   7.064
 5730POPC   C4B72490  25.497  27.778   7.364
 5731POPC   NC372491  36.161   8.218   5.564
 5731POPC   PO472492  36.124   8.245   5.864
 5731POPC   GL172493  36.108   8.154   6.164
 5731POPC   GL272494  36.295   8.182   6.164
 5731POPC   C1A72495  36.108   8.205   6.464
 5731POPC   D2A72496  36.127   8.193   6.764
 5731POPC   C3A72497  36.089   8.172   7.064
 5731POPC   C4A72498  36.139   8.198   7.364
 5731POPC   C1B72499  36.361   8.287   6.464
 5731POPC   C2B72500  36.337   8.212   6.764
 5731POPC   C3B72501  36.394   8.223   7.064
 5731POPC   C4B72502  36.350   8.291   7.364
 5732POPC   NC372503  29.917  24.524   5.564
 5732POPC   PO472504  29.961  24.517   5.864
 5732POPC   GL172505  29.884  24.453   6.164
 5732POPC   GL272506  29.861  24.552   6.164
 5732POPC   C1A72507  29.943  24.516   6.464
 5732POPC   D2A72508  29.955  24.459   6.764
 5732POPC   C3A72509  29.902  24.517   7.064
 5732POPC   C4A72510  29.912  24.516   7.364
 5732POPC   C1B72511  29.821  24.670   6.464
 5732POPC   C2B72512  29.802  24.710   6.764
 5732POPC   C3B72513  29.826  24.752   7.064
 5732POPC   C4B72514  29.822  24.680   7.364
 5733POPC   NC372515  39.235   8.949   5.564
 5733POPC   PO472516  39.220   8.955   5.864
 5733POPC   GL172517  39.250   8.961   6.164
 5733POPC   GL272518  39.277   8.874   6.164
 5733POPC   C1A72519  39.220   8.971   6.464
 5733POPC   D2A72520  39.224   8.958   6.764
 5733POPC   C3A72521  39.220   8.974   7.064
 5733POPC   C4A72522  39.230   9.016   7.364
 5733POPC   C1B72523  39.393   8.801   6.464
 5733POPC   C2B72524  39.393   8.759   6.764
 5733POPC   C3B72525  39.411   8.728   7.064
 5733POPC   C4B72526  39.356   8.731   7.364
 5734POPC   NC372527  27.591  16.767   5.564
 5734POPC   PO472528  27.629  16.698   5.864
 5734POPC   GL172529  27.570  16.772   6.164
 5734POPC   GL272530  27.467  16.765   6.164
 5734POPC   C1A72531  27.617  16.708   6.464
 5734POPC   D2A72532  27.637  16.757   6.764
 5734POPC   C3A72533  27.630  16.765   7.064
 5734POPC   C4A72534  27.610  16.780   7.364
 5734POPC   C1B72535  27.363  16.675   6.464
 5734POPC   C2B72536  27.300  16.765   6.764
 5734POPC   C3B72537  27.367  16.676   7.064
 5734POPC   C4B72538  27.323  16.746   7.364
 5735POPC   NC372539   3.557  26.067   5.564
 5735POPC   PO472540   3.572  26.032   5.864
 5735POPC   GL172541   3.571  26.010   6.164
 5735POPC   GL272542   3.568  25.867   6.164
 5735POPC   C1A72543   3.575  26.091   6.464
 5735POPC   D2A72544   3.568  26.013   6.764
 5735POPC   C3A72545   3.522  26.034   7.064
 5735POPC   C4A72546   3.496  26.064   7.364
 5735POPC   C1B72547   3.506  25.824   6.464
 5735POPC   C2B72548   3.482  25.768   6.764
 5735POPC   C3B72549   3.513  25.772   7.064
 5735POPC   C4B72550   3.551  25.761   7.364
 5736POPC   NC372551   3.577   4.356   5.564
 5736POPC   PO472552   3.565   4.312   5.864
 5736POPC   GL172553   3.580   4.341   6.164
 5736POPC   GL272554   3.535   4.234   6.164
 5736POPC   C1A72555   3.568   4.280   6.464
 5736POPC   D2A72556   3.515   4.347   6.764
 5736POPC   C3A72557   3.519   4.325   7.064
 5736POPC   C4A72558   3.493   4.328   7.364
 5736POPC   C1B72559   3.538   4.017   6.464
 5736POPC   C2B72560   3.508   4.080   6.764
 5736POPC   C3B72561   3.580   4.022   7.064
 5736POPC   C4B72562   3.531   4.037   7.364
 5737POPC   NC372563  11.322  36.915   5.564
 5737POPC   PO472564  11.263  36.934   5.864
 5737POPC   GL172565  11.285  36.883   6.164
 5737POPC   GL272566  11.221  36.912   6.164
 5737POPC   C1A72567  11.256  36.905   6.464
 5737POPC   D2A72568  11.268  36.923   6.764
 5737POPC   C3A72569  11.274  36.883   7.064
 5737POPC   C4A72570  11.289  36.877   7.364
 5737POPC   C1B72571  11.008  36.804   6.464
 5737POPC   C2B72572  11.055  36.814   6.764
 5737POPC   C3B72573  11.086  36.881   7.064
 5737POPC   C4B72574  11.057  36.897   7.364
 5738POPC   NC372575  29.953  36.892   5.564
 5738POPC   PO472576  29.899  36.934   5.864
 5738POPC   GL172577  29.960  36.916   6.164
 5738POPC   GL272578  29.822  36.899   6.164
 5738POPC   C1A72579  29.902  36.858   6.464
 5738POPC   D2A72580  29.901  36.888   6.764
 5738POPC   C3A72581  29.893  36.885   7.064
 5738POPC   C4A72582  29.902  36.885   7.364
 5738POPC   C1B72583  29.724  36.832   6.464
 5738POPC   C2B72584  29.742  36.756   6.764
 5738POPC   C3B72585  29.724  36.793   7.064
 5738POPC   C4B72586  29.704  36.829   7.364
 5739POPC   NC372587  39.192  36.881   5.564
 5739POPC   PO472588  39.222  36.951   5.864
 5739POPC   GL172589  39.224  36.936   6.164
 5739POPC   GL272590  39.307  36.749   6.164
 5739POPC   C1A72591  39.211  36.943   6.464
 5739POPC   D2A72592  39.276  36.934   6.764
 5739POPC   C3A72593  39.201  36.880   7.064
 5739POPC   C4A72594  39.265  36.909   7.364
 5739POPC   C1B72595  39.305  36.637   6.464
 5739POPC   C2B72596  39.302  36.670   6.764
 5739POPC   C3B72597  39.292  36.648   7.064
 5739POPC   C4B72598  39.341  36.653   7.364
 5740POPC   NC372599  20.568   5.127   5.564
 5740POPC   PO472600  20.626   5.055   5.864
 5740POPC   GL172601  20.647   5.141   6.164
 5740POPC   GL272602  20.693   5.082   6.164
 5740POPC   C1A72603  20.602   5.108   6.464
 5740POPC   D2A72604  20.598   5.081   6.764
 5740POPC   C3A72605  20.605   5.059   7.064
 5740POPC   C4A72606  20.600   5.088   7.364
 5740POPC   C1B72607  20.837   5.084   6.464
 5740POPC   C2B72608  20.884   5.104   6.764
 5740POPC   C3B72609  20.859   5.048   7.064
 5740POPC   C4B72610  20.844   5.084   7.364
 5741POPC   NC372611   5.073   5.090   5.564
 5741POPC   PO472612   5.110   5.048   5.864
 5741POPC   GL172613   5.066   5.136   6.164
 5741POPC   GL272614   5.040   4.962   6.164
 5741POPC   C1A72615   5.085   5.081   6.464
 5741POPC   D2A72616   5.067   5.092   6.764
 5741POPC   C3A72617   5.087   5.139   7.064
 5741POPC   C4A72618   5.068   5.123   7.364
 5741POPC   C1B72619   4.995   4.875   6.464
 5741POPC   C2B72620   5.007   4.868   6.764
 5741POPC   C3B72621   5.017   4.861   7.064
 5741POPC   C4B72622   4.989   4.912   7.364
 5742POPC   NC372623  11.311  43.142   5.564
 5742POPC   PO472624  11.341  43.106   5.864
 5742POPC   GL172625  11.337  43.124   6.164
 5742POPC   GL272626  11.380  43.031   6.164
 5742POPC   C1A72627  11.276  43.093   6.464
 5742POPC   D2A72628  11.298  43.063   6.764
 5742POPC   C3A72629  11.308  43.130   7.064
 5742POPC   C4A72630  11.299  43.099   7.364
 5742POPC   C1B72631  11.526  43.068   6.464
 5742POPC   C2B72632  11.586  43.066   6.764
 5742POPC   C3B72633  11.512  43.021   7.064
 5742POPC   C4B72634  11.511  43.010   7.364
 5743POPC   NC372635   4.334  23.752   5.564
 5743POPC   PO472636   4.335  23.761   5.864
 5743POPC   GL172637   4.309  23.762   6.164
 5743POPC   GL272638   4.227  23.650   6.164
 5743POPC   C1A72639   4.321  23.737   6.464
 5743POPC   D2A72640   4.354  23.691   6.764
 5743POPC   C3A72641   4.334  23.752   7.064
 5743POPC   C4A72642   4.348  23.692   7.364
 5743POPC   C1B72643   4.079  23.689   6.464
 5743POPC   C2B72644   4.085  23.642   6.764
 5743POPC   C3B72645   4.064  23.670   7.064
 5743POPC   C4B72646   4.092  23.678   7.364
 5744POPC   NC372647  41.534  29.155   5.564
 5744POPC   PO472648  41.576  29.103   5.864
 5744POPC   GL172649  41.567  29.160   6.164
 5744POPC   GL272650  41.495  29.080   6.164
 5744POPC   C1A72651  41.522  29.179   6.464
 5744POPC   D2A72652  41.585  29.125   6.764
 5744POPC   C3A72653  41.551  29.152   7.064
 5744POPC   C4A72654  41.598  29.158   7.364
 5744POPC   C1B72655  41.392  28.910   6.464
 5744POPC   C2B72656  41.459  28.880   6.764
 5744POPC   C3B72657  41.458  28.883   7.064
 5744POPC   C4B72658  41.418  28.894   7.364
 5745POPC   NC372659   8.230  12.876   5.564
 5745POPC   PO472660   8.238  12.856   5.864
 5745POPC   GL172661   8.168  12.886   6.164
 5745POPC   GL272662   8.098  12.723   6.164
 5745POPC   C1A72663   8.160  12.871   6.464
 5745POPC   D2A72664   8.187  12.901   6.764
 5745POPC   C3A72665   8.211  12.896   7.064
 5745POPC   C4A72666   8.232  12.879   7.364
 5745POPC   C1B72667   8.044  12.589   6.464
 5745POPC   C2B72668   8.125  12.664   6.764
 5745POPC   C3B72669   8.074  12.591   7.064
 5745POPC   C4B72670   8.063  12.612   7.364
 5746POPC   NC372671  29.952  37.652   5.564
 5746POPC   PO472672  29.946  37.660   5.864
 5746POPC   GL172673  29.933  37.720   6.164
 5746POPC   GL272674  29.774  37.691   6.164
 5746POPC   C1A72675  29.929  37.683   6.464
 5746POPC   D2A72676  29.890  37.647   6.764
 5746POPC   C3A72677  29.941  37.675   7.064
 5746POPC   C4A72678  29.879  37.673   7.364
 5746POPC   C1B72679  29.634  37.581   6.464
 5746POPC   C2B72680  29.679  37.591   6.764
 5746POPC   C3B72681  29.706  37.653   7.064
 5746POPC   C4B72682  29.628  37.640   7.364
 5747POPC   NC372683   4.268  15.965   5.564
 5747POPC   PO472684   4.293  15.926   5.864
 5747POPC   GL172685   4.316  15.992   6.164
 5747POPC   GL272686   4.424  15.980   6.164
 5747POPC   C1A72687   4.336  15.974   6.464
 5747POPC   D2A72688   4.339  15.919   6.764
 5747POPC   C3A72689   4.354  15.923   7.064
 5747POPC   C4A72690   4.335  15.968   7.364
 5747POPC   C1B72691   4.541  16.105   6.464
 5747POPC   C2B72692   4.513  16.044   6.764
 5747POPC   C3B72693   4.558  16.093   7.064
 5747POPC   C4B72694   4.568  16.038   7.364
 5748POPC   NC372695   5.078  37.685   5.564
 5748POPC   PO472696   5.099  37.658   5.864
 5748POPC   GL172697   5.077  37.707   6.164
 5748POPC   GL272698   4.935  37.581   6.164
 5748POPC   C1A72699   5.105  37.663   6.464
 5748POPC   D2A72700   5.107  37.709   6.764
 5748POPC   C3A72701   5.082  37.654   7.064
 5748POPC   C4A72702   5.134  37.631   7.364
 5748POPC   C1B72703   4.827  37.533   6.464
 5748POPC   C2B72704   4.853  37.548   6.764
 5748POPC   C3B72705   4.906  37.554   7.064
 5748POPC   C4B72706   4.923  37.543   7.364
 5749POPC   NC372707   9.722  13.597   5.564
 5749POPC   PO472708   9.765  13.667   5.864
 5749POPC   GL172709   9.741  13.676   6.164
 5749POPC   GL272710   9.859  13.768   6.164
 5749POPC   C1A72711   9.731  13.617   6.464
 5749POPC   D2A72712   9.798  13.644   6.764
 5749POPC   C3A72713   9.790  13.646   7.064
 5749POPC   C4A72714   9.720  13.648   7.364
 5749POPC   C1B72715   9.933  13.810   6.464
 5749POPC   C2B72716   9.917  13.841   6.764
 5749POPC   C3B72717   9.874  13.770   7.064
 5749POPC   C4B72718   9.883  13.783   7.364
 5750POPC   NC372719  44.619   5.867   5.564
 5750POPC   PO472720  44.668   5.896   5.864
 5750POPC   GL172721  44.671   5.831   6.164
 5750POPC   GL272722  44.770   5.760   6.164
 5750POPC   C1A72723  44.677   5.894   6.464
 5750POPC   D2A72724  44.665   5.860   6.764
 5750POPC   C3A72725  44.664   5.886   7.064
 5750POPC   C4A72726  44.707   5.856   7.364
 5750POPC   C1B72727  44.827   5.664   6.464
 5750POPC   C2B72728  44.775   5.662   6.764
 5750POPC   C3B72729  44.784   5.654   7.064
 5750POPC   C4B72730  44.819   5.622   7.364
 5751POPC   NC372731  25.266   1.208   5.564
 5751POPC   PO472732  25.251   1.247   5.864
 5751POPC   GL172733  25.307   1.206   6.164
 5751POPC   GL272734  25.393   1.216   6.164
 5751POPC   C1A72735  25.267   1.210   6.464
 5751POPC   D2A72736  25.247   1.184   6.764
 5751POPC   C3A72737  25.234   1.184   7.064
 5751POPC   C4A72738  25.273   1.197   7.364
 5751POPC   C1B72739  25.474   1.089   6.464
 5751POPC   C2B72740  25.550   1.124   6.764
 5751POPC   C3B72741  25.553   1.096   7.064
 5751POPC   C4B72742  25.531   1.124   7.364
 5752POPC   NC372743  28.370  31.471   5.564
 5752POPC   PO472744  28.348  31.474   5.864
 5752POPC   GL172745  28.361  31.453   6.164
 5752POPC   GL272746  28.369  31.382   6.164
 5752POPC   C1A72747  28.373  31.462   6.464
 5752POPC   D2A72748  28.354  31.491   6.764
 5752POPC   C3A72749  28.380  31.513   7.064
 5752POPC   C4A72750  28.398  31.459   7.364
 5752POPC   C1B72751  28.388  31.223   6.464
 5752POPC   C2B72752  28.411  31.251   6.764
 5752POPC   C3B72753  28.474  31.272   7.064
 5752POPC   C4B72754  28.409  31.199   7.364
 5753POPC   NC372755   0.458  29.897   5.564
 5753POPC   PO472756   0.474  29.962   5.864
 5753POPC   GL172757   0.435  29.889   6.164
 5753POPC   GL272758   0.554  30.034   6.164
 5753POPC   C1A72759   0.397  29.885   6.464
 5753POPC   D2A72760   0.455  29.872   6.764
 5753POPC   C3A72761   0.421  29.872   7.064
 5753POPC   C4A72762   0.460  29.905   7.364
 5753POPC   C1B72763   0.631  30.044   6.464
 5753POPC   C2B72764   0.631  30.038   6.764
 5753POPC   C3B72765   0.643  30.072   7.064
 5753POPC   C4B72766   0.679  30.121   7.364
 5754POPC   NC372767  39.269  31.457   5.564
 5754POPC   PO472768  39.264  31.480   5.864
 5754POPC   GL172769  39.257  31.442   6.164
 5754POPC   GL272770  39.402  31.488   6.164
 5754POPC   C1A72771  39.272  31.487   6.464
 5754POPC   D2A72772  39.231  31.434   6.764
 5754POPC   C3A72773  39.183  31.439   7.064
 5754POPC   C4A72774  39.279  31.473   7.364
 5754POPC   C1B72775  39.525  31.445   6.464
 5754POPC   C2B72776  39.523  31.375   6.764
 5754POPC   C3B72777  39.476  31.465   7.064
 5754POPC   C4B72778  39.502  31.405   7.364
 5755POPC   NC372779   2.000  42.305   5.564
 5755POPC   PO472780   1.958  42.311   5.864
 5755POPC   GL172781   1.989  42.378   6.164
 5755POPC   GL272782   2.025  42.430   6.164
 5755POPC   C1A72783   1.965  42.295   6.464
 5755POPC   D2A72784   2.034  42.316   6.764
 5755POPC   C3A72785   2.009  42.355   7.064
 5755POPC   C4A72786   1.961  42.331   7.364
 5755POPC   C1B72787   2.152  42.568   6.464
 5755POPC   C2B72788   2.171  42.510   6.764
 5755POPC   C3B72789   2.150  42.477   7.064
 5755POPC   C4B72790   2.141  42.489   7.364
 5756POPC   NC372791   7.430  28.355   5.564
 5756POPC   PO472792   7.414  28.393   5.864
 5756POPC   GL172793   7.411  28.327   6.164
 5756POPC   GL272794   7.308  28.434   6.164
 5756POPC   C1A72795   7.461  28.336   6.464
 5756POPC   D2A72796   7.388  28.337   6.764
 5756POPC   C3A72797   7.403  28.378   7.064
 5756POPC   C4A72798   7.455  28.397   7.364
 5756POPC   C1B72799   7.152  28.441   6.464
 5756POPC   C2B72800   7.166  28.398   6.764
 5756POPC   C3B72801   7.125  28.397   7.064
 5756POPC   C4B72802   7.175  28.418   7.364
 5757POPC   NC372803  32.272  19.104   5.564
 5757POPC   PO472804  32.273  19.047   5.864
 5757POPC   GL172805  32.215  19.050   6.164
 5757POPC   GL272806  32.324  19.131   6.164
 5757POPC   C1A72807  32.283  19.069   6.464
 5757POPC   D2A72808  32.295  19.066   6.764
 5757POPC   C3A72809  32.289  19.026   7.064
 5757POPC   C4A72810  32.221  19.010   7.364
 5757POPC   C1B72811  32.457  19.145   6.464
 5757POPC   C2B72812  32.446  19.222   6.764
 5757POPC   C3B72813  32.488  19.141   7.064
 5757POPC   C4B72814  32.486  19.133   7.364
 5758POPC   NC372815  10.552  28.409   5.564
 5758POPC   PO472816  10.489  28.355   5.864
 5758POPC   GL172817  10.495  28.384   6.164
 5758POPC   GL272818  10.593  28.480   6.164
 5758POPC   C1A72819  10.548  28.403   6.464
 5758POPC   D2A72820  10.508  28.375   6.764
 5758POPC   C3A72821  10.524  28.334   7.064
 5758POPC   C4A72822  10.530  28.395   7.364
 5758POPC   C1B72823  10.580  28.564   6.464
 5758POPC   C2B72824  10.628  28.634   6.764
 5758POPC   C3B72825  10.537  28.590   7.064
 5758POPC   C4B72826  10.585  28.640   7.364
 5759POPC   NC372827  28.408  35.389   5.564
 5759POPC   PO472828  28.329  35.341   5.864
 5759POPC   GL172829  28.417  35.384   6.164
 5759POPC   GL272830  28.440  35.288   6.164
 5759POPC   C1A72831  28.360  35.354   6.464
 5759POPC   D2A72832  28.394  35.398   6.764
 5759POPC   C3A72833  28.350  35.329   7.064
 5759POPC   C4A72834  28.325  35.382   7.364
 5759POPC   C1B72835  28.594  35.229   6.464
 5759POPC   C2B72836  28.550  35.198   6.764
 5759POPC   C3B72837  28.578  35.164   7.064
 5759POPC   C4B72838  28.544  35.153   7.364
 5760POPC   NC372839  37.651  12.805   5.564
 5760POPC   PO472840  37.686  12.867   5.864
 5760POPC   GL172841  37.648  12.862   6.164
 5760POPC   GL272842  37.613  12.926   6.164
 5760POPC   C1A72843  37.684  12.855   6.464
 5760POPC   D2A72844  37.657  12.879   6.764
 5760POPC   C3A72845  37.652  12.876   7.064
 5760POPC   C4A72846  37.659  12.832   7.364
 5760POPC   C1B72847  37.466  13.057   6.464
 5760POPC   C2B72848  37.510  13.016   6.764
 5760POPC   C3B72849  37.537  13.055   7.064
 5760POPC   C4B72850  37.502  13.013   7.364
 5761POPC   NC372851  29.171  14.396   5.564
 5761POPC   PO472852  29.172  14.393   5.864
 5761POPC   GL172853  29.184  14.425   6.164
 5761POPC   GL272854  29.051  14.395   6.164
 5761POPC   C1A72855  29.096  14.404   6.464
 5761POPC   D2A72856  29.115  14.441   6.764
 5761POPC   C3A72857  29.141  14.448   7.064
 5761POPC   C4A72858  29.147  14.395   7.364
 5761POPC   C1B72859  28.901  14.485   6.464
 5761POPC   C2B72860  28.861  14.519   6.764
 5761POPC   C3B72861  28.878  14.442   7.064
 5761POPC   C4B72862  28.932  14.495   7.364
 5762POPC   NC372863  28.365  40.734   5.564
 5762POPC   PO472864  28.397  40.795   5.864
 5762POPC   GL172865  28.380  40.786   6.164
 5762POPC   GL272866  28.416  40.887   6.164
 5762POPC   C1A72867  28.356  40.789   6.464
 5762POPC   D2A72868  28.383  40.766   6.764
 5762POPC   C3A72869  28.411  40.757   7.064
 5762POPC   C4A72870  28.374  40.826   7.364
 5762POPC   C1B72871  28.506  40.966   6.464
 5762POPC   C2B72872  28.480  41.001   6.764
 5762POPC   C3B72873  28.489  41.022   7.064
 5762POPC   C4B72874  28.481  41.002   7.364
 5763POPC   NC372875  33.752  43.887   5.564
 5763POPC   PO472876  33.789  43.844   5.864
 5763POPC   GL172877  33.836  43.891   6.164
 5763POPC   GL272878  33.656  43.975   6.164
 5763POPC   C1A72879  33.772  43.861   6.464
 5763POPC   D2A72880  33.776  43.889   6.764
 5763POPC   C3A72881  33.752  43.894   7.064
 5763POPC   C4A72882  33.829  43.921   7.364
 5763POPC   C1B72883  33.647  44.034   6.464
 5763POPC   C2B72884  33.632  44.014   6.764
 5763POPC   C3B72885  33.577  44.017   7.064
 5763POPC   C4B72886  33.585  44.002   7.364
 5764POPC   NC372887  23.715  40.023   5.564
 5764POPC   PO472888  23.764  40.015   5.864
 5764POPC   GL172889  23.744  40.009   6.164
 5764POPC   GL272890  23.576  39.973   6.164
 5764POPC   C1A72891  23.704  40.009   6.464
 5764POPC   D2A72892  23.723  39.982   6.764
 5764POPC   C3A72893  23.676  40.056   7.064
 5764POPC   C4A72894  23.744  40.021   7.364
 5764POPC   C1B72895  23.460  39.916   6.464
 5764POPC   C2B72896  23.498  39.857   6.764
 5764POPC   C3B72897  23.535  39.840   7.064
 5764POPC   C4B72898  23.532  39.895   7.364
 5765POPC   NC372899  26.791  30.744   5.564
 5765POPC   PO472900  26.861  30.683   5.864
 5765POPC   GL172901  26.791  30.702   6.164
 5765POPC   GL272902  26.705  30.704   6.164
 5765POPC   C1A72903  26.777  30.698   6.464
 5765POPC   D2A72904  26.777  30.671   6.764
 5765POPC   C3A72905  26.835  30.679   7.064
 5765POPC   C4A72906  26.815  30.652   7.364
 5765POPC   C1B72907  26.557  30.653   6.464
 5765POPC   C2B72908  26.529  30.745   6.764
 5765POPC   C3B72909  26.518  30.737   7.064
 5765POPC   C4B72910  26.534  30.674   7.364
 5766POPC   NC372911   3.523  13.630   5.564
 5766POPC   PO472912   3.572  13.662   5.864
 5766POPC   GL172913   3.560  13.634   6.164
 5766POPC   GL272914   3.432  13.551   6.164
 5766POPC   C1A72915   3.545  13.664   6.464
 5766POPC   D2A72916   3.506  13.649   6.764
 5766POPC   C3A72917   3.563  13.670   7.064
 5766POPC   C4A72918   3.588  13.665   7.364
 5766POPC   C1B72919   3.445  13.386   6.464
 5766POPC   C2B72920   3.411  13.392   6.764
 5766POPC   C3B72921   3.442  13.403   7.064
 5766POPC   C4B72922   3.375  13.442   7.364
 5767POPC   NC372923  20.565   2.745   5.564
 5767POPC   PO472924  20.643   2.779   5.864
 5767POPC   GL172925  20.600   2.809   6.164
 5767POPC   GL272926  20.702   2.733   6.164
 5767POPC   C1A72927  20.635   2.736   6.464
 5767POPC   D2A72928  20.619   2.803   6.764
 5767POPC   C3A72929  20.632   2.773   7.064
 5767POPC   C4A72930  20.589   2.802   7.364
 5767POPC   C1B72931  20.836   2.844   6.464
 5767POPC   C2B72932  20.873   2.843   6.764
 5767POPC   C3B72933  20.817   2.792   7.064
 5767POPC   C4B72934  20.836   2.835   7.364
 5768POPC   NC372935  19.052  15.996   5.564
 5768POPC   PO472936  19.086  15.936   5.864
 5768POPC   GL172937  19.039  15.990   6.164
 5768POPC   GL272938  18.920  15.935   6.164
 5768POPC   C1A72939  19.071  15.979   6.464
 5768POPC   D2A72940  19.042  15.938   6.764
 5768POPC   C3A72941  19.019  15.926   7.064
 5768POPC   C4A72942  19.048  15.943   7.364
 5768POPC   C1B72943  18.853  15.862   6.464
 5768POPC   C2B72944  18.785  15.874   6.764
 5768POPC   C3B72945  18.793  15.913   7.064
 5768POPC   C4B72946  18.808  15.870   7.364
 5769POPC   NC372947  40.045  30.723   5.564
 5769POPC   PO472948  40.040  30.651   5.864
 5769POPC   GL172949  40.034  30.669   6.164
 5769POPC   GL272950  39.930  30.779   6.164
 5769POPC   C1A72951  40.006  30.673   6.464
 5769POPC   D2A72952  40.051  30.722   6.764
 5769POPC   C3A72953  39.976  30.679   7.064
 5769POPC   C4A72954  39.986  30.671   7.364
 5769POPC   C1B72955  39.808  30.761   6.464
 5769POPC   C2B72956  39.821  30.769   6.764
 5769POPC   C3B72957  39.729  30.829   7.064
 5769POPC   C4B72958  39.821  30.840   7.364
 5770POPC   NC372959  30.683  26.821   5.564
 5770POPC   PO472960  30.656  26.775   5.864
 5770POPC   GL172961  30.651  26.799   6.164
 5770POPC   GL272962  30.702  26.944   6.164
 5770POPC   C1A72963  30.735  26.827   6.464
 5770POPC   D2A72964  30.745  26.804   6.764
 5770POPC   C3A72965  30.710  26.832   7.064
 5770POPC   C4A72966  30.732  26.823   7.364
 5770POPC   C1B72967  30.764  27.083   6.464
 5770POPC   C2B72968  30.722  27.041   6.764
 5770POPC   C3B72969  30.761  27.077   7.064
 5770POPC   C4B72970  30.708  27.082   7.364
 5771POPC   NC372971  19.107  34.610   5.564
 5771POPC   PO472972  19.099  34.612   5.864
 5771POPC   GL172973  19.017  34.619   6.164
 5771POPC   GL272974  19.108  34.455   6.164
 5771POPC   C1A72975  19.020  34.548   6.464
 5771POPC   D2A72976  19.058  34.615   6.764
 5771POPC   C3A72977  19.020  34.554   7.064
 5771POPC   C4A72978  19.081  34.563   7.364
 5771POPC   C1B72979  19.131  34.349   6.464
 5771POPC   C2B72980  19.055  34.337   6.764
 5771POPC   C3B72981  19.093  34.288   7.064
 5771POPC   C4B72982  19.054  34.331   7.364
 5772POPC   NC372983  33.038  23.709   5.564
 5772POPC   PO472984  33.038  23.744   5.864
 5772POPC   GL172985  33.014  23.692   6.164
 5772POPC   GL272986  33.036  23.573   6.164
 5772POPC   C1A72987  33.068  23.715   6.464
 5772POPC   D2A72988  32.984  23.686   6.764
 5772POPC   C3A72989  32.979  23.718   7.064
 5772POPC   C4A72990  32.981  23.706   7.364
 5772POPC   C1B72991  33.076  23.511   6.464
 5772POPC   C2B72992  33.121  23.478   6.764
 5772POPC   C3B72993  33.106  23.488   7.064
 5772POPC   C4B72994  33.106  23.438   7.364
 5773POPC   NC372995   6.601  42.297   5.564
 5773POPC   PO472996   6.622  42.289   5.864
 5773POPC   GL172997   6.684  42.368   6.164
 5773POPC   GL272998   6.713  42.284   6.164
 5773POPC   C1A72999   6.674  42.379   6.464
 5773POPC   D2A73000   6.612  42.344   6.764
 5773POPC   C3A73001   6.695  42.357   7.064
 5773POPC   C4A73002   6.654  42.333   7.364
 5773POPC   C1B73003   6.857  42.141   6.464
 5773POPC   C2B73004   6.836  42.163   6.764
 5773POPC   C3B73005   6.839  42.161   7.064
 5773POPC   C4B73006   6.869  42.142   7.364
 5774POPC   NC373007   0.464  28.397   5.564
 5774POPC   PO473008   0.426  28.392   5.864
 5774POPC   GL173009   0.423  28.411   6.164
 5774POPC   GL273010   0.531  28.481   6.164
 5774POPC   C1A73011   0.475  28.378   6.464
 5774POPC   D2A73012   0.450  28.332   6.764
 5774POPC   C3A73013   0.485  28.364   7.064
 5774POPC   C4A73014   0.456  28.376   7.364
 5774POPC   C1B73015   0.622  28.530   6.464
 5774POPC   C2B73016   0.576  28.540   6.764
 5774POPC   C3B73017   0.635  28.573   7.064
 5774POPC   C4B73018   0.643  28.605   7.364
 5775POPC   NC373019  24.459  19.862   5.564
 5775POPC   PO473020  24.461  19.875   5.864
 5775POPC   GL173021  24.509  19.826   6.164
 5775POPC   GL273022  24.515  19.760   6.164
 5775POPC   C1A73023  24.514  19.860   6.464
 5775POPC   D2A73024  24.471  19.797   6.764
 5775POPC   C3A73025  24.507  19.883   7.064
 5775POPC   C4A73026  24.483  19.802   7.364
 5775POPC   C1B73027  24.666  19.633   6.464
 5775POPC   C2B73028  24.597  19.613   6.764
 5775POPC   C3B73029  24.652  19.653   7.064
 5775POPC   C4B73030  24.673  19.668   7.364
 5776POPC   NC373031  31.472  18.297   5.564
 5776POPC   PO473032  31.496  18.328   5.864
 5776POPC   GL173033  31.450  18.272   6.164
 5776POPC   GL273034  31.436  18.190   6.164
 5776POPC   C1A73035  31.445  18.299   6.464
 5776POPC   D2A73036  31.517  18.298   6.764
 5776POPC   C3A73037  31.507  18.273   7.064
 5776POPC   C4A73038  31.481  18.242   7.364
 5776POPC   C1B73039  31.339  18.106   6.464
 5776POPC   C2B73040  31.334  18.107   6.764
 5776POPC   C3B73041  31.297  18.114   7.064
 5776POPC   C4B73042  31.311  18.085   7.364
 5777POPC   NC373043  39.243   7.412   5.564
 5777POPC   PO473044  39.266   7.451   5.864
 5777POPC   GL173045  39.268   7.427   6.164
 5777POPC   GL273046  39.105   7.501   6.164
 5777POPC   C1A73047  39.266   7.412   6.464
 5777POPC   D2A73048  39.236   7.401   6.764
 5777POPC   C3A73049  39.193   7.412   7.064
 5777POPC   C4A73050  39.205   7.373   7.364
 5777POPC   C1B73051  39.002   7.541   6.464
 5777POPC   C2B73052  38.957   7.476   6.764
 5777POPC   C3B73053  39.027   7.473   7.064
 5777POPC   C4B73054  39.030   7.464   7.364
 5778POPC   NC373055   5.890   8.224   5.564
 5778POPC   PO473056   5.917   8.228   5.864
 5778POPC   GL173057   5.850   8.181   6.164
 5778POPC   GL273058   6.042   8.247   6.164
 5778POPC   C1A73059   5.834   8.214   6.464
 5778POPC   D2A73060   5.914   8.167   6.764
 5778POPC   C3A73061   5.837   8.204   7.064
 5778POPC   C4A73062   5.890   8.164   7.364
 5778POPC   C1B73063   6.072   8.269   6.464
 5778POPC   C2B73064   6.127   8.208   6.764
 5778POPC   C3B73065   6.093   8.186   7.064
 5778POPC   C4B73066   6.088   8.191   7.364
 5779POPC   NC373067   5.912  26.773   5.564
 5779POPC   PO473068   5.906  26.814   5.864
 5779POPC   GL173069   5.833  26.803   6.164
 5779POPC   GL273070   5.932  26.660   6.164
 5779POPC   C1A73071   5.840  26.805   6.464
 5779POPC   D2A73072   5.889  26.777   6.764
 5779POPC   C3A73073   5.910  26.823   7.064
 5779POPC   C4A73074   5.888  26.797   7.364
 5779POPC   C1B73075   5.954  26.598   6.464
 5779POPC   C2B73076   5.923  26.606   6.764
 5779POPC   C3B73077   5.927  26.535   7.064
 5779POPC   C4B73078   5.942  26.554   7.364
 5780POPC   NC373079  24.519  13.595   5.564
 5780POPC   PO473080  24.538  13.611   5.864
 5780POPC   GL173081  24.457  13.600   6.164
 5780POPC   GL273082  24.484  13.701   6.164
 5780POPC   C1A73083  24.531  13.636   6.464
 5780POPC   D2A73084  24.529  13.667   6.764
 5780POPC   C3A73085  24.442  13.657   7.064
 5780POPC   C4A73086  24.512  13.667   7.364
 5780POPC   C1B73087  24.579  13.823   6.464
 5780POPC   C2B73088  24.608  13.852   6.764
 5780POPC   C3B73089  24.538  13.841   7.064
 5780POPC   C4B73090  24.549  13.882   7.364
 5781POPC   NC373091  30.661   3.546   5.564
 5781POPC   PO473092  30.683   3.589   5.864
 5781POPC   GL173093  30.665   3.513   6.164
 5781POPC   GL273094  30.541   3.600   6.164
 5781POPC   C1A73095  30.729   3.497   6.464
 5781POPC   D2A73096  30.673   3.528   6.764
 5781POPC   C3A73097  30.719   3.549   7.064
 5781POPC   C4A73098  30.703   3.498   7.364
 5781POPC   C1B73099  30.465   3.586   6.464
 5781POPC   C2B73100  30.467   3.595   6.764
 5781POPC   C3B73101  30.428   3.568   7.064
 5781POPC   C4B73102  30.432   3.582   7.364
 5782POPC   NC373103   5.876  40.772   5.564
 5782POPC   PO473104   5.833  40.782   5.864
 5782POPC   GL173105   5.870  40.773   6.164
 5782POPC   GL273106   5.829  40.923   6.164
 5782POPC   C1A73107   5.862  40.791   6.464
 5782POPC   D2A73108   5.895  40.810   6.764
 5782POPC   C3A73109   5.892  40.818   7.064
 5782POPC   C4A73110   5.869  40.789   7.364
 5782POPC   C1B73111   5.741  40.990   6.464
 5782POPC   C2B73112   5.714  41.005   6.764
 5782POPC   C3B73113   5.707  40.954   7.064
 5782POPC   C4B73114   5.792  41.030   7.364
 5783POPC   NC373115   1.262  29.875   5.564
 5783POPC   PO473116   1.197  29.940   5.864
 5783POPC   GL173117   1.255  29.958   6.164
 5783POPC   GL273118   1.322  29.972   6.164
 5783POPC   C1A73119   1.166  29.970   6.464
 5783POPC   D2A73120   1.203  29.935   6.764
 5783POPC   C3A73121   1.201  29.884   7.064
 5783POPC   C4A73122   1.164  29.891   7.364
 5783POPC   C1B73123   1.416  30.038   6.464
 5783POPC   C2B73124   1.379  30.081   6.764
 5783POPC   C3B73125   1.420  30.036   7.064
 5783POPC   C4B73126   1.406  30.079   7.364
 5784POPC   NC373127  19.097  24.535   5.564
 5784POPC   PO473128  19.098  24.498   5.864
 5784POPC   GL173129  19.051  24.441   6.164
 5784POPC   GL273130  18.941  24.529   6.164
 5784POPC   C1A73131  19.100  24.511   6.464
 5784POPC   D2A73132  19.094  24.521   6.764
 5784POPC   C3A73133  19.039  24.537   7.064
 5784POPC   C4A73134  19.009  24.443   7.364
 5784POPC   C1B73135  18.894  24.657   6.464
 5784POPC   C2B73136  18.875  24.609   6.764
 5784POPC   C3B73137  18.856  24.625   7.064
 5784POPC   C4B73138  18.878  24.614   7.364
 5785POPC   NC373139  38.461  39.259   5.564
 5785POPC   PO473140  38.497  39.189   5.864
 5785POPC   GL173141  38.500  39.208   6.164
 5785POPC   GL273142  38.608  39.234   6.164
 5785POPC   C1A73143  38.437  39.242   6.464
 5785POPC   D2A73144  38.470  39.194   6.764
 5785POPC   C3A73145  38.448  39.214   7.064
 5785POPC   C4A73146  38.457  39.269   7.364
 5785POPC   C1B73147  38.673  39.270   6.464
 5785POPC   C2B73148  38.723  39.287   6.764
 5785POPC   C3B73149  38.689  39.230   7.064
 5785POPC   C4B73150  38.667  39.281   7.364
 5786POPC   NC373151  39.197  34.619   5.564
 5786POPC   PO473152  39.258  34.544   5.864
 5786POPC   GL173153  39.270  34.567   6.164
 5786POPC   GL273154  39.144  34.488   6.164
 5786POPC   C1A73155  39.196  34.625   6.464
 5786POPC   D2A73156  39.262  34.612   6.764
 5786POPC   C3A73157  39.195  34.535   7.064
 5786POPC   C4A73158  39.215  34.563   7.364
 5786POPC   C1B73159  39.026  34.497   6.464
 5786POPC   C2B73160  39.046  34.451   6.764
 5786POPC   C3B73161  39.015  34.496   7.064
 5786POPC   C4B73162  38.973  34.460   7.364
 5787POPC   NC373163  36.094  16.778   5.564
 5787POPC   PO473164  36.122  16.765   5.864
 5787POPC   GL173165  36.080  16.695   6.164
 5787POPC   GL273166  36.061  16.789   6.164
 5787POPC   C1A73167  36.135  16.773   6.464
 5787POPC   D2A73168  36.085  16.774   6.764
 5787POPC   C3A73169  36.080  16.704   7.064
 5787POPC   C4A73170  36.100  16.766   7.364
 5787POPC   C1B73171  35.959  16.841   6.464
 5787POPC   C2B73172  35.905  16.822   6.764
 5787POPC   C3B73173  35.890  16.870   7.064
 5787POPC   C4B73174  35.958  16.850   7.364
 5788POPC   NC373175  32.974  14.403   5.564
 5788POPC   PO473176  33.071  14.443   5.864
 5788POPC   GL173177  33.053  14.390   6.164
 5788POPC   GL273178  33.110  14.444   6.164
 5788POPC   C1A73179  33.041  14.370   6.464
 5788POPC   D2A73180  33.045  14.434   6.764
 5788POPC   C3A73181  33.022  14.435   7.064
 5788POPC   C4A73182  33.069  14.365   7.364
 5788POPC   C1B73183  33.202  14.550   6.464
 5788POPC   C2B73184  33.264  14.534   6.764
 5788POPC   C3B73185  33.235  14.530   7.064
 5788POPC   C4B73186  33.289  14.548   7.364
 5789POPC   NC373187  10.547  36.910   5.564
 5789POPC   PO473188  10.532  36.930   5.864
 5789POPC   GL173189  10.495  36.878   6.164
 5789POPC   GL273190  10.657  36.941   6.164
 5789POPC   C1A73191  10.510  36.881   6.464
 5789POPC   D2A73192  10.519  36.876   6.764
 5789POPC   C3A73193  10.493  36.936   7.064
 5789POPC   C4A73194  10.476  36.880   7.364
 5789POPC   C1B73195  10.793  36.979   6.464
 5789POPC   C2B73196  10.768  37.033   6.764
 5789POPC   C3B73197  10.805  37.011   7.064
 5789POPC   C4B73198  10.732  37.025   7.364
 5790POPC   NC373199  21.368  22.145   5.564
 5790POPC   PO473200  21.365  22.172   5.864
 5790POPC   GL173201  21.362  22.130   6.164
 5790POPC   GL273202  21.303  22.148   6.164
 5790POPC   C1A73203  21.393  22.212   6.464
 5790POPC   D2A73204  21.363  22.180   6.764
 5790POPC   C3A73205  21.417  22.121   7.064
 5790POPC   C4A73206  21.397  22.192   7.364
 5790POPC   C1B73207  21.197  22.046   6.464
 5790POPC   C2B73208  21.197  22.069   6.764
 5790POPC   C3B73209  21.123  22.075   7.064
 5790POPC   C4B73210  21.114  22.054   7.364
 5791POPC   NC373211  27.548  32.277   5.564
 5791POPC   PO473212  27.620  32.235   5.864
 5791POPC   GL173213  27.584  32.257   6.164
 5791POPC   GL273214  27.545  32.371   6.164
 5791POPC   C1A73215  27.585  32.283   6.464
 5791POPC   D2A73216  27.618  32.259   6.764
 5791POPC   C3A73217  27.615  32.203   7.064
 5791POPC   C4A73218  27.617  32.258   7.364
 5791POPC   C1B73219  27.492  32.490   6.464
 5791POPC   C2B73220  27.443  32.469   6.764
 5791POPC   C3B73221  27.494  32.473   7.064
 5791POPC   C4B73222  27.506  32.503   7.364
 5792POPC   NC373223  18.245  41.566   5.564
 5792POPC   PO473224  18.239  41.536   5.864
 5792POPC   GL173225  18.328  41.537   6.164
 5792POPC   GL273226  18.126  41.544   6.164
 5792POPC   C1A73227  18.256  41.581   6.464
 5792POPC   D2A73228  18.272  41.604   6.764
 5792POPC   C3A73229  18.241  41.527   7.064
 5792POPC   C4A73230  18.261  41.515   7.364
 5792POPC   C1B73231  18.085  41.615   6.464
 5792POPC   C2B73232  18.057  41.562   6.764
 5792POPC   C3B73233  18.059  41.562   7.064
 5792POPC   C4B73234  18.077  41.636   7.364
 5793POPC   NC373235  43.105  31.473   5.564
 5793POPC   PO473236  43.140  31.442   5.864
 5793POPC   GL173237  43.100  31.449   6.164
 5793POPC   GL273238  43.239  31.458   6.164
 5793POPC   C1A73239  43.111  31.480   6.464
 5793POPC   D2A73240  43.074  31.448   6.764
 5793POPC   C3A73241  43.153  31.462   7.064
 5793POPC   C4A73242  43.110  31.440   7.364
 5793POPC   C1B73243  43.303  31.380   6.464
 5793POPC   C2B73244  43.322  31.352   6.764
 5793POPC   C3B73245  43.376  31.402   7.064
 5793POPC   C4B73246  43.288  31.373   7.364
 5794POPC   NC373247  11.305   8.210   5.564
 5794POPC   PO473248  11.287   8.171   5.864
 5794POPC   GL173249  11.282   8.243   6.164
 5794POPC   GL273250  11.350   8.143   6.164
 5794POPC   C1A73251  11.283   8.187   6.464
 5794POPC   D2A73252  11.266   8.246   6.764
 5794POPC   C3A73253  11.330   8.217   7.064
 5794POPC   C4A73254  11.331   8.156   7.364
 5794POPC   C1B73255  11.484   7.998   6.464
 5794POPC   C2B73256  11.507   8.075   6.764
 5794POPC   C3B73257  11.537   8.024   7.064
 5794POPC   C4B73258  11.463   8.025   7.364
 5795POPC   NC373259  12.100  24.443   5.564
 5795POPC   PO473260  12.125  24.517   5.864
 5795POPC   GL173261  12.044  24.524   6.164
 5795POPC   GL273262  12.071  24.394   6.164
 5795POPC   C1A73263  12.031  24.490   6.464
 5795POPC   D2A73264  12.052  24.514   6.764
 5795POPC   C3A73265  12.112  24.500   7.064
 5795POPC   C4A73266  12.114  24.462   7.364
 5795POPC   C1B73267  12.035  24.213   6.464
 5795POPC   C2B73268  12.073  24.255   6.764
 5795POPC   C3B73269  12.039  24.260   7.064
 5795POPC   C4B73270  12.116  24.271   7.364
 5796POPC   NC373271  35.302  35.362   5.564
 5796POPC   PO473272  35.324  35.305   5.864
 5796POPC   GL173273  35.333  35.348   6.164
 5796POPC   GL273274  35.394  35.429   6.164
 5796POPC   C1A73275  35.374  35.390   6.464
 5796POPC   D2A73276  35.342  35.321   6.764
 5796POPC   C3A73277  35.338  35.329   7.064
 5796POPC   C4A73278  35.344  35.377   7.364
 5796POPC   C1B73279  35.437  35.630   6.464
 5796POPC   C2B73280  35.403  35.586   6.764
 5796POPC   C3B73281  35.380  35.590   7.064
 5796POPC   C4B73282  35.381  35.594   7.364
 5797POPC   NC373283  39.232  29.879   5.564
 5797POPC   PO473284  39.223  29.924   5.864
 5797POPC   GL173285  39.247  29.957   6.164
 5797POPC   GL273286  39.201  29.798   6.164
 5797POPC   C1A73287  39.238  29.873   6.464
 5797POPC   D2A73288  39.190  29.956   6.764
 5797POPC   C3A73289  39.237  29.881   7.064
 5797POPC   C4A73290  39.202  29.902   7.364
 5797POPC   C1B73291  39.119  29.673   6.464
 5797POPC   C2B73292  39.061  29.710   6.764
 5797POPC   C3B73293  39.135  29.674   7.064
 5797POPC   C4B73294  39.045  29.710   7.364
 5798POPC   NC373295  44.707  29.904   5.564
 5798POPC   PO473296  44.663  29.952   5.864
 5798POPC   GL173297  44.642  29.896   6.164
 5798POPC   GL273298  44.568  29.919   6.164
 5798POPC   C1A73299  44.647  29.909   6.464
 5798POPC   D2A73300  44.666  29.891   6.764
 5798POPC   C3A73301  44.691  29.888   7.064
 5798POPC   C4A73302  44.695  29.887   7.364
 5798POPC   C1B73303  44.385  29.931   6.464
 5798POPC   C2B73304  44.381  29.936   6.764
 5798POPC   C3B73305  44.382  29.885   7.064
 5798POPC   C4B73306  44.403  29.948   7.364
 5799POPC   NC373307  41.570   8.218   5.564
 5799POPC   PO473308  41.537   8.243   5.864
 5799POPC   GL173309  41.589   8.155   6.164
 5799POPC   GL273310  41.428   8.153   6.164
 5799POPC   C1A73311  41.577   8.151   6.464
 5799POPC   D2A73312  41.526   8.206   6.764
 5799POPC   C3A73313  41.530   8.246   7.064
 5799POPC   C4A73314  41.551   8.194   7.364
 5799POPC   C1B73315  41.278   8.108   6.464
 5799POPC   C2B73316  41.293   8.170   6.764
 5799POPC   C3B73317  41.354   8.193   7.064
 5799POPC   C4B73318  41.360   8.193   7.364
 5800POPC   NC373319  16.704  36.922   5.564
 5800POPC   PO473320  16.705  36.952   5.864
 5800POPC   GL173321  16.690  36.948   6.164
 5800POPC   GL273322  16.765  36.760   6.164
 5800POPC   C1A73323  16.704  36.942   6.464
 5800POPC   D2A73324  16.741  36.953   6.764
 5800POPC   C3A73325  16.709  36.891   7.064
 5800POPC   C4A73326  16.715  36.942   7.364
 5800POPC   C1B73327  16.833  36.711   6.464
 5800POPC   C2B73328  16.908  36.662   6.764
 5800POPC   C3B73329  16.839  36.662   7.064
 5800POPC   C4B73330  16.826  36.654   7.364
 5801POPC   NC373331  24.452   0.401   5.564
 5801POPC   PO473332  24.481   0.464   5.864
 5801POPC   GL173333  24.456   0.407   6.164
 5801POPC   GL273334  24.370   0.393   6.164
 5801POPC   C1A73335  24.500   0.440   6.464
 5801POPC   D2A73336  24.491   0.390   6.764
 5801POPC   C3A73337  24.465   0.424   7.064
 5801POPC   C4A73338  24.486   0.413   7.364
 5801POPC   C1B73339  24.274   0.260   6.464
 5801POPC   C2B73340  24.319   0.223   6.764
 5801POPC   C3B73341  24.335   0.269   7.064
 5801POPC   C4B73342  24.349   0.255   7.364
 5802POPC   NC373343  38.456  28.394   5.564
 5802POPC   PO473344  38.449  28.369   5.864
 5802POPC   GL173345  38.412  28.352   6.164
 5802POPC   GL273346  38.559  28.353   6.164
 5802POPC   C1A73347  38.504  28.387   6.464
 5802POPC   D2A73348  38.421  28.418   6.764
 5802POPC   C3A73349  38.441  28.323   7.064
 5802POPC   C4A73350  38.429  28.324   7.364
 5802POPC   C1B73351  38.686  28.229   6.464
 5802POPC   C2B73352  38.658  28.229   6.764
 5802POPC   C3B73353  38.686  28.262   7.064
 5802POPC   C4B73354  38.718  28.212   7.364
 5803POPC   NC373355  22.924  37.715   5.564
 5803POPC   PO473356  22.923  37.720   5.864
 5803POPC   GL173357  22.972  37.703   6.164
 5803POPC   GL273358  22.875  37.555   6.164
 5803POPC   C1A73359  22.943  37.652   6.464
 5803POPC   D2A73360  22.927  37.680   6.764
 5803POPC   C3A73361  22.939  37.651   7.064
 5803POPC   C4A73362  22.933  37.682   7.364
 5803POPC   C1B73363  22.791  37.481   6.464
 5803POPC   C2B73364  22.841  37.441   6.764
 5803POPC   C3B73365  22.830  37.509   7.064
 5803POPC   C4B73366  22.829  37.472   7.364
 5804POPC   NC373367  19.800  44.649   5.564
 5804POPC   PO473368  19.870  44.705   5.864
 5804POPC   GL173369  19.882  44.614   6.164
 5804POPC   GL273370  19.835  44.741   6.164
 5804POPC   C1A73371  19.864  44.657   6.464
 5804POPC   D2A73372  19.847  44.687   6.764
 5804POPC   C3A73373  19.818  44.637   7.064
 5804POPC   C4A73374  19.869  44.632   7.364
 5804POPC   C1B73375  19.909  44.929   6.464
 5804POPC   C2B73376  19.910  44.930   6.764
 5804POPC   C3B73377  19.866  44.914   7.064
 5804POPC   C4B73378  19.911  44.916   7.364
 5805POPC   NC373379  34.594  13.651   5.564
 5805POPC   PO473380  34.563  13.663   5.864
 5805POPC   GL173381  34.585  13.632   6.164
 5805POPC   GL273382  34.423  13.594   6.164
 5805POPC   C1A73383  34.617  13.654   6.464
 5805POPC   D2A73384  34.622  13.650   6.764
 5805POPC   C3A73385  34.585  13.581   7.064
 5805POPC   C4A73386  34.613  13.645   7.364
 5805POPC   C1B73387  34.352  13.469   6.464
 5805POPC   C2B73388  34.399  13.538   6.764
 5805POPC   C3B73389  34.407  13.513   7.064
 5805POPC   C4B73390  34.377  13.518   7.364
 5806POPC   NC373391  35.303  18.237   5.564
 5806POPC   PO473392  35.380  18.324   5.864
 5806POPC   GL173393  35.361  18.298   6.164
 5806POPC   GL273394  35.439  18.240   6.164
 5806POPC   C1A73395  35.315  18.249   6.464
 5806POPC   D2A73396  35.314  18.282   6.764
 5806POPC   C3A73397  35.334  18.300   7.064
 5806POPC   C4A73398  35.377  18.288   7.364
 5806POPC   C1B73399  35.645  18.247   6.464
 5806POPC   C2B73400  35.604  18.261   6.764
 5806POPC   C3B73401  35.628  18.244   7.064
 5806POPC   C4B73402  35.647  18.316   7.364
 5807POPC   NC373403  29.140  19.075   5.564
 5807POPC   PO473404  29.128  19.033   5.864
 5807POPC   GL173405  29.099  19.031   6.164
 5807POPC   GL273406  29.048  18.927   6.164
 5807POPC   C1A73407  29.109  19.090   6.464
 5807POPC   D2A73408  29.105  19.047   6.764
 5807POPC   C3A73409  29.101  19.031   7.064
 5807POPC   C4A73410  29.190  19.052   7.364
 5807POPC   C1B73411  28.997  18.822   6.464
 5807POPC   C2B73412  28.994  18.859   6.764
 5807POPC   C3B73413  28.997  18.864   7.064
 5807POPC   C4B73414  29.015  18.817   7.364
 5808POPC   NC373415  22.925  24.491   5.564
 5808POPC   PO473416  22.897  24.457   5.864
 5808POPC   GL173417  22.951  24.501   6.164
 5808POPC   GL273418  22.993  24.647   6.164
 5808POPC   C1A73419  22.909  24.539   6.464
 5808POPC   D2A73420  22.984  24.462   6.764
 5808POPC   C3A73421  22.900  24.533   7.064
 5808POPC   C4A73422  22.912  24.538   7.364
 5808POPC   C1B73423  22.923  24.716   6.464
 5808POPC   C2B73424  22.931  24.733   6.764
 5808POPC   C3B73425  22.908  24.748   7.064
 5808POPC   C4B73426  22.973  24.703   7.364
 5809POPC   NC373427  21.373  41.580   5.564
 5809POPC   PO473428  21.349  41.552   5.864
 5809POPC   GL173429  21.381  41.544   6.164
 5809POPC   GL273430  21.511  41.489   6.164
 5809POPC   C1A73431  21.408  41.591   6.464
 5809POPC   D2A73432  21.387  41.526   6.764
 5809POPC   C3A73433  21.362  41.566   7.064
 5809POPC   C4A73434  21.411  41.542   7.364
 5809POPC   C1B73435  21.565  41.408   6.464
 5809POPC   C2B73436  21.535  41.361   6.764
 5809POPC   C3B73437  21.537  41.350   7.064
 5809POPC   C4B73438  21.580  41.437   7.364
 5810POPC   NC373439  15.943  31.453   5.564
 5810POPC   PO473440  15.936  31.491   5.864
 5810POPC   GL173441  15.997  31.510   6.164
 5810POPC   GL273442  15.850  31.425   6.164
 5810POPC   C1A73443  15.981  31.507   6.464
 5810POPC   D2A73444  15.917  31.522   6.764
 5810POPC   C3A73445  15.990  31.486   7.064
 5810POPC   C4A73446  15.993  31.485   7.364
 5810POPC   C1B73447  15.716  31.340   6.464
 5810POPC   C2B73448  15.778  31.348   6.764
 5810POPC   C3B73449  15.701  31.299   7.064
 5810POPC   C4B73450  15.712  31.344   7.364
 5811POPC   NC373451   9.712  43.125   5.564
 5811POPC   PO473452   9.782  43.138   5.864
 5811POPC   GL173453   9.710  43.110   6.164
 5811POPC   GL273454   9.847  43.145   6.164
 5811POPC   C1A73455   9.711  43.107   6.464
 5811POPC   D2A73456   9.715  43.107   6.764
 5811POPC   C3A73457   9.738  43.160   7.064
 5811POPC   C4A73458   9.712  43.126   7.364
 5811POPC   C1B73459   9.999  43.130   6.464
 5811POPC   C2B73460  10.017  43.134   6.764
 5811POPC   C3B73461  10.011  43.131   7.064
 5811POPC   C4B73462   9.941  43.203   7.364
 5812POPC   NC373463  14.362   8.976   5.564
 5812POPC   PO473464  14.381   9.015   5.864
 5812POPC   GL173465  14.385   8.949   6.164
 5812POPC   GL273466  14.516   9.004   6.164
 5812POPC   C1A73467  14.431   8.944   6.464
 5812POPC   D2A73468  14.392   8.991   6.764
 5812POPC   C3A73469  14.365   8.998   7.064
 5812POPC   C4A73470  14.449   9.019   7.364
 5812POPC   C1B73471  14.696   8.984   6.464
 5812POPC   C2B73472  14.606   8.953   6.764
 5812POPC   C3B73473  14.656   8.907   7.064
 5812POPC   C4B73474  14.633   8.916   7.364
 5813POPC   NC373475  25.309  36.934   5.564
 5813POPC   PO473476  25.274  36.865   5.864
 5813POPC   GL173477  25.263  36.913   6.164
 5813POPC   GL273478  25.180  36.918   6.164
 5813POPC   C1A73479  25.290  36.877   6.464
 5813POPC   D2A73480  25.262  36.872   6.764
 5813POPC   C3A73481  25.303  36.888   7.064
 5813POPC   C4A73482  25.307  36.856   7.364
 5813POPC   C1B73483  24.990  36.916   6.464
 5813POPC   C2B73484  25.052  36.926   6.764
 5813POPC   C3B73485  24.977  36.989   7.064
 5813POPC   C4B73486  24.994  36.984   7.364
 5814POPC   NC373487  13.623  26.862   5.564
 5814POPC   PO473488  13.578  26.792   5.864
 5814POPC   GL173489  13.665  26.814   6.164
 5814POPC   GL273490  13.542  26.888   6.164
 5814POPC   C1A73491  13.619  26.855   6.464
 5814POPC   D2A73492  13.583  26.830   6.764
 5814POPC   C3A73493  13.595  26.794   7.064
 5814POPC   C4A73494  13.661  26.860   7.364
 5814POPC   C1B73495  13.367  26.849   6.464
 5814POPC   C2B73496  13.372  26.895   6.764
 5814POPC   C3B73497  13.419  26.883   7.064
 5814POPC   C4B73498  13.398  26.892   7.364
 5815POPC   NC373499  28.374  15.207   5.564
 5815POPC   PO473500  28.398  15.228   5.864
 5815POPC   GL173501  28.360  15.224   6.164
 5815POPC   GL273502  28.473  15.096   6.164
 5815POPC   C1A73503  28.413  15.181   6.464
 5815POPC   D2A73504  28.358  15.219   6.764
 5815POPC   C3A73505  28.327  15.170   7.064
 5815POPC   C4A73506  28.355  15.169   7.364
 5815POPC   C1B73507  28.534  14.930   6.464
 5815POPC   C2B73508  28.502  14.925   6.764
 5815POPC   C3B73509  28.461  14.986   7.064
 5815POPC   C4B73510  28.523  14.985   7.364
 5816POPC   NC373511  27.615   5.070   5.564
 5816POPC   PO473512  27.609   5.047   5.864
 5816POPC   GL173513  27.576   5.105   6.164
 5816POPC   GL273514  27.699   5.089   6.164
 5816POPC   C1A73515  27.584   5.104   6.464
 5816POPC   D2A73516  27.627   5.107   6.764
 5816POPC   C3A73517  27.547   5.047   7.064
 5816POPC   C4A73518  27.629   5.080   7.364
 5816POPC   C1B73519  27.843   5.003   6.464
 5816POPC   C2B73520  27.777   5.018   6.764
 5816POPC   C3B73521  27.836   5.000   7.064
 5816POPC   C4B73522  27.811   4.987   7.364
 5817POPC   NC373523  25.230  37.642   5.564
 5817POPC   PO473524  25.282  37.705   5.864
 5817POPC   GL173525  25.223  37.648   6.164
 5817POPC   GL273526  25.312  37.826   6.164
 5817POPC   C1A73527  25.254  37.687   6.464
 5817POPC   D2A73528  25.221  37.641   6.764
 5817POPC   C3A73529  25.228  37.712   7.064
 5817POPC   C4A73530  25.274  37.721   7.364
 5817POPC   C1B73531  25.372  37.862   6.464
 5817POPC   C2B73532  25.372  37.914   6.764
 5817POPC   C3B73533  25.338  37.872   7.064
 5817POPC   C4B73534  25.342  37.909   7.364
 5818POPC   NC373535  30.715  24.505   5.564
 5818POPC   PO473536  30.738  24.528   5.864
 5818POPC   GL173537  30.690  24.540   6.164
 5818POPC   GL273538  30.762  24.590   6.164
 5818POPC   C1A73539  30.674  24.526   6.464
 5818POPC   D2A73540  30.663  24.492   6.764
 5818POPC   C3A73541  30.698  24.509   7.064
 5818POPC   C4A73542  30.702  24.518   7.364
 5818POPC   C1B73543  30.899  24.637   6.464
 5818POPC   C2B73544  30.856  24.679   6.764
 5818POPC   C3B73545  30.836  24.648   7.064
 5818POPC   C4B73546  30.863  24.692   7.364
 5819POPC   NC373547  43.061  36.942   5.564
 5819POPC   PO473548  43.066  36.906   5.864
 5819POPC   GL173549  43.124  36.865   6.164
 5819POPC   GL273550  43.220  36.802   6.164
 5819POPC   C1A73551  43.099  36.937   6.464
 5819POPC   D2A73552  43.074  36.871   6.764
 5819POPC   C3A73553  43.099  36.898   7.064
 5819POPC   C4A73554  43.117  36.925   7.364
 5819POPC   C1B73555  43.379  36.785   6.464
 5819POPC   C2B73556  43.314  36.759   6.764
 5819POPC   C3B73557  43.293  36.800   7.064
 5819POPC   C4B73558  43.304  36.741   7.364
 5820POPC   NC373559   1.238  22.152   5.564
 5820POPC   PO473560   1.242  22.188   5.864
 5820POPC   GL173561   1.251  22.203   6.164
 5820POPC   GL273562   1.145  22.266   6.164
 5820POPC   C1A73563   1.228  22.200   6.464
 5820POPC   D2A73564   1.259  22.152   6.764
 5820POPC   C3A73565   1.164  22.118   7.064
 5820POPC   C4A73566   1.185  22.181   7.364
 5820POPC   C1B73567   0.980  22.252   6.464
 5820POPC   C2B73568   0.947  22.327   6.764
 5820POPC   C3B73569   0.947  22.280   7.064
 5820POPC   C4B73570   0.977  22.271   7.364
 5821POPC   NC373571  19.047  19.796   5.564
 5821POPC   PO473572  19.018  19.856   5.864
 5821POPC   GL173573  19.078  19.834   6.164
 5821POPC   GL273574  19.208  19.712   6.164
 5821POPC   C1A73575  19.010  19.881   6.464
 5821POPC   D2A73576  19.030  19.834   6.764
 5821POPC   C3A73577  19.017  19.831   7.064
 5821POPC   C4A73578  19.019  19.822   7.364
 5821POPC   C1B73579  19.262  19.690   6.464
 5821POPC   C2B73580  19.281  19.709   6.764
 5821POPC   C3B73581  19.220  19.650   7.064
 5821POPC   C4B73582  19.308  19.688   7.364
 5822POPC   NC373583  14.448  28.405   5.564
 5822POPC   PO473584  14.383  28.377   5.864
 5822POPC   GL173585  14.393  28.411   6.164
 5822POPC   GL273586  14.522  28.404   6.164
 5822POPC   C1A73587  14.405  28.366   6.464
 5822POPC   D2A73588  14.389  28.363   6.764
 5822POPC   C3A73589  14.361  28.324   7.064
 5822POPC   C4A73590  14.411  28.356   7.364
 5822POPC   C1B73591  14.583  28.529   6.464
 5822POPC   C2B73592  14.625  28.531   6.764
 5822POPC   C3B73593  14.673  28.520   7.064
 5822POPC   C4B73594  14.617  28.501   7.364
 5823POPC   NC373595   5.139  26.785   5.564
 5823POPC   PO473596   5.121  26.850   5.864
 5823POPC   GL173597   5.050  26.810   6.164
 5823POPC   GL273598   5.019  26.901   6.164
 5823POPC   C1A73599   5.129  26.829   6.464
 5823POPC   D2A73600   5.058  26.825   6.764
 5823POPC   C3A73601   5.124  26.845   7.064
 5823POPC   C4A73602   5.087  26.784   7.364
 5823POPC   C1B73603   4.857  26.932   6.464
 5823POPC   C2B73604   4.897  26.851   6.764
 5823POPC   C3B73605   4.839  26.853   7.064
 5823POPC   C4B73606   4.846  26.906   7.364
 5824POPC   NC373607  25.992   2.815   5.564
 5824POPC   PO473608  26.008   2.789   5.864
 5824POPC   GL173609  26.018   2.721   6.164
 5824POPC   GL273610  25.909   2.817   6.164
 5824POPC   C1A73611  26.003   2.725   6.464
 5824POPC   D2A73612  26.005   2.801   6.764
 5824POPC   C3A73613  26.072   2.782   7.064
 5824POPC   C4A73614  25.994   2.716   7.364
 5824POPC   C1B73615  25.803   2.866   6.464
 5824POPC   C2B73616  25.771   2.838   6.764
 5824POPC   C3B73617  25.760   2.827   7.064
 5824POPC   C4B73618  25.853   2.868   7.364
 5825POPC   NC373619  37.703  39.254   5.564
 5825POPC   PO473620  37.704  39.242   5.864
 5825POPC   GL173621  37.668  39.197   6.164
 5825POPC   GL273622  37.589  39.104   6.164
 5825POPC   C1A73623  37.713  39.281   6.464
 5825POPC   D2A73624  37.647  39.248   6.764
 5825POPC   C3A73625  37.699  39.272   7.064
 5825POPC   C4A73626  37.695  39.278   7.364
 5825POPC   C1B73627  37.522  39.025   6.464
 5825POPC   C2B73628  37.447  39.060   6.764
 5825POPC   C3B73629  37.479  39.074   7.064
 5825POPC   C4B73630  37.527  39.041   7.364
 5826POPC   NC373631  41.511  31.518   5.564
 5826POPC   PO473632  41.597  31.473   5.864
 5826POPC   GL173633  41.580  31.449   6.164
 5826POPC   GL273634  41.727  31.480   6.164
 5826POPC   C1A73635  41.600  31.498   6.464
 5826POPC   D2A73636  41.578  31.484   6.764
 5826POPC   C3A73637  41.512  31.519   7.064
 5826POPC   C4A73638  41.568  31.459   7.364
 5826POPC   C1B73639  41.803  31.474   6.464
 5826POPC   C2B73640  41.796  31.447   6.764
 5826POPC   C3B73641  41.850  31.457   7.064
 5826POPC   C4B73642  41.795  31.397   7.364
 5827POPC   NC373643   1.238   2.767   5.564
 5827POPC   PO473644   1.200   2.805   5.864
 5827POPC   GL173645   1.170   2.798   6.164
 5827POPC   GL273646   1.318   2.839   6.164
 5827POPC   C1A73647   1.222   2.739   6.464
 5827POPC   D2A73648   1.222   2.793   6.764
 5827POPC   C3A73649   1.183   2.746   7.064
 5827POPC   C4A73650   1.243   2.728   7.364
 5827POPC   C1B73651   1.412   2.895   6.464
 5827POPC   C2B73652   1.424   2.847   6.764
 5827POPC   C3B73653   1.442   2.830   7.064
 5827POPC   C4B73654   1.413   2.881   7.364
 5828POPC   NC373655  16.750   0.458   5.564
 5828POPC   PO473656  16.700   0.480   5.864
 5828POPC   GL173657  16.756   0.488   6.164
 5828POPC   GL273658  16.748   0.570   6.164
 5828POPC   C1A73659  16.755   0.461   6.464
 5828POPC   D2A73660  16.706   0.444   6.764
 5828POPC   C3A73661  16.706   0.482   7.064
 5828POPC   C4A73662  16.688   0.466   7.364
 5828POPC   C1B73663  16.864   0.618   6.464
 5828POPC   C2B73664  16.887   0.633   6.764
 5828POPC   C3B73665  16.905   0.663   7.064
 5828POPC   C4B73666  16.897   0.618   7.364
 5829POPC   NC373667  16.695   5.826   5.564
 5829POPC   PO473668  16.682   5.867   5.864
 5829POPC   GL173669  16.780   5.906   6.164
 5829POPC   GL273670  16.633   5.941   6.164
 5829POPC   C1A73671  16.736   5.866   6.464
 5829POPC   D2A73672  16.702   5.830   6.764
 5829POPC   C3A73673  16.705   5.838   7.064
 5829POPC   C4A73674  16.720   5.832   7.364
 5829POPC   C1B73675  16.478   6.051   6.464
 5829POPC   C2B73676  16.510   6.033   6.764
 5829POPC   C3B73677  16.559   6.035   7.064
 5829POPC   C4B73678  16.500   6.035   7.364
 5830POPC   NC373679  13.668  15.933   5.564
 5830POPC   PO473680  13.649  15.914   5.864
 5830POPC   GL173681  13.586  15.974   6.164
 5830POPC   GL273682  13.724  16.051   6.164
 5830POPC   C1A73683  13.646  15.974   6.464
 5830POPC   D2A73684  13.666  15.918   6.764
 5830POPC   C3A73685  13.585  15.993   7.064
 5830POPC   C4A73686  13.617  15.930   7.364
 5830POPC   C1B73687  13.698  16.216   6.464
 5830POPC   C2B73688  13.694  16.221   6.764
 5830POPC   C3B73689  13.758  16.221   7.064
 5830POPC   C4B73690  13.776  16.185   7.364
 5831POPC   NC373691   2.032  12.076   5.564
 5831POPC   PO473692   1.975  12.047   5.864
 5831POPC   GL173693   1.951  12.059   6.164
 5831POPC   GL273694   1.986  11.906   6.164
 5831POPC   C1A73695   1.980  12.032   6.464
 5831POPC   D2A73696   1.962  12.105   6.764
 5831POPC   C3A73697   2.003  12.070   7.064
 5831POPC   C4A73698   2.009  12.087   7.364
 5831POPC   C1B73699   1.928  11.796   6.464
 5831POPC   C2B73700   1.997  11.842   6.764
 5831POPC   C3B73701   2.011  11.861   7.064
 5831POPC   C4B73702   1.974  11.811   7.364
 5832POPC   NC373703  28.383   5.907   5.564
 5832POPC   PO473704  28.415   5.881   5.864
 5832POPC   GL173705  28.402   5.895   6.164
 5832POPC   GL273706  28.479   5.818   6.164
 5832POPC   C1A73707  28.363   5.843   6.464
 5832POPC   D2A73708  28.349   5.824   6.764
 5832POPC   C3A73709  28.323   5.853   7.064
 5832POPC   C4A73710  28.374   5.889   7.364
 5832POPC   C1B73711  28.664   5.812   6.464
 5832POPC   C2B73712  28.622   5.894   6.764
 5832POPC   C3B73713  28.667   5.880   7.064
 5832POPC   C4B73714  28.579   5.840   7.364
 5833POPC   NC373715  14.407  20.615   5.564
 5833POPC   PO473716  14.377  20.624   5.864
 5833POPC   GL173717  14.401  20.595   6.164
 5833POPC   GL273718  14.236  20.618   6.164
 5833POPC   C1A73719  14.398  20.600   6.464
 5833POPC   D2A73720  14.426  20.577   6.764
 5833POPC   C3A73721  14.390  20.573   7.064
 5833POPC   C4A73722  14.398  20.582   7.364
 5833POPC   C1B73723  14.168  20.546   6.464
 5833POPC   C2B73724  14.187  20.568   6.764
 5833POPC   C3B73725  14.193  20.498   7.064
 5833POPC   C4B73726  14.156  20.572   7.364
 5834POPC   NC373727   7.452  37.639   5.564
 5834POPC   PO473728   7.441  37.687   5.864
 5834POPC   GL173729   7.461  37.633   6.164
 5834POPC   GL273730   7.326  37.798   6.164
 5834POPC   C1A73731   7.413  37.646   6.464
 5834POPC   D2A73732   7.459  37.687   6.764
 5834POPC   C3A73733   7.393  37.700   7.064
 5834POPC   C4A73734   7.467  37.650   7.364
 5834POPC   C1B73735   7.221  37.855   6.464
 5834POPC   C2B73736   7.221  37.859   6.764
 5834POPC   C3B73737   7.219  37.787   7.064
 5834POPC   C4B73738   7.220  37.868   7.364
 5835POPC   NC373739  22.947  19.108   5.564
 5835POPC   PO473740  22.907  19.050   5.864
 5835POPC   GL173741  22.905  19.012   6.164
 5835POPC   GL273742  22.860  19.170   6.164
 5835POPC   C1A73743  22.946  19.071   6.464
 5835POPC   D2A73744  22.908  19.106   6.764
 5835POPC   C3A73745  22.909  19.055   7.064
 5835POPC   C4A73746  22.959  19.025   7.364
 5835POPC   C1B73747  22.810  19.278   6.464
 5835POPC   C2B73748  22.774  19.227   6.764
 5835POPC   C3B73749  22.763  19.264   7.064
 5835POPC   C4B73750  22.781  19.274   7.364
 5836POPC   NC373751   5.046  15.178   5.564
 5836POPC   PO473752   5.111  15.159   5.864
 5836POPC   GL173753   5.107  15.207   6.164
 5836POPC   GL273754   4.973  15.187   6.164
 5836POPC   C1A73755   5.085  15.166   6.464
 5836POPC   D2A73756   5.067  15.225   6.764
 5836POPC   C3A73757   5.134  15.179   7.064
 5836POPC   C4A73758   5.096  15.153   7.364
 5836POPC   C1B73759   4.875  15.199   6.464
 5836POPC   C2B73760   4.799  15.128   6.764
 5836POPC   C3B73761   4.829  15.166   7.064
 5836POPC   C4B73762   4.839  15.172   7.364
 5837POPC   NC373763  42.291  43.102   5.564
 5837POPC   PO473764  42.352  43.074   5.864
 5837POPC   GL173765  42.310  43.095   6.164
 5837POPC   GL273766  42.270  43.229   6.164
 5837POPC   C1A73767  42.352  43.083   6.464
 5837POPC   D2A73768  42.358  43.092   6.764
 5837POPC   C3A73769  42.370  43.076   7.064
 5837POPC   C4A73770  42.337  43.090   7.364
 5837POPC   C1B73771  42.172  43.332   6.464
 5837POPC   C2B73772  42.206  43.325   6.764
 5837POPC   C3B73773  42.185  43.335   7.064
 5837POPC   C4B73774  42.146  43.251   7.364
 5838POPC   NC373775  44.657  25.279   5.564
 5838POPC   PO473776  44.701  25.260   5.864
 5838POPC   GL173777  44.626  25.299   6.164
 5838POPC   GL273778  44.759  25.293   6.164
 5838POPC   C1A73779  44.630  25.265   6.464
 5838POPC   D2A73780  44.684  25.262   6.764
 5838POPC   C3A73781  44.615  25.294   7.064
 5838POPC   C4A73782  44.673  25.218   7.364
 5838POPC   C1B73783  44.909  25.375   6.464
 5838POPC   C2B73784  44.927  25.367   6.764
 5838POPC   C3B73785  44.865  25.321   7.064
 5838POPC   C4B73786  44.906  25.314   7.364
 5839POPC   NC373787  33.789   0.438   5.564
 5839POPC   PO473788  33.815   0.446   5.864
 5839POPC   GL173789  33.843   0.414   6.164
 5839POPC   GL273790  33.847   0.592   6.164
 5839POPC   C1A73791  33.806   0.427   6.464
 5839POPC   D2A73792  33.814   0.461   6.764
 5839POPC   C3A73793  33.807   0.416   7.064
 5839POPC   C4A73794  33.813   0.437   7.364
 5839POPC   C1B73795  33.978   0.642   6.464
 5839POPC   C2B73796  33.896   0.674   6.764
 5839POPC   C3B73797  33.931   0.669   7.064
 5839POPC   C4B73798  33.947   0.694   7.364
 5840POPC   NC373799  21.434  19.106   5.564
 5840POPC   PO473800  21.427  19.056   5.864
 5840POPC   GL173801  21.422  19.068   6.164
 5840POPC   GL273802  21.288  18.959   6.164
 5840POPC   C1A73803  21.344  19.022   6.464
 5840POPC   D2A73804  21.426  19.108   6.764
 5840POPC   C3A73805  21.343  19.089   7.064
 5840POPC   C4A73806  21.375  19.055   7.364
 5840POPC   C1B73807  21.235  18.827   6.464
 5840POPC   C2B73808  21.203  18.873   6.764
 5840POPC   C3B73809  21.201  18.874   7.064
 5840POPC   C4B73810  21.298  18.823   7.364
 5841POPC   NC373811  29.128   2.776   5.564
 5841POPC   PO473812  29.191   2.760   5.864
 5841POPC   GL173813  29.183   2.750   6.164
 5841POPC   GL273814  29.220   2.888   6.164
 5841POPC   C1A73815  29.123   2.793   6.464
 5841POPC   D2A73816  29.150   2.722   6.764
 5841POPC   C3A73817  29.110   2.771   7.064
 5841POPC   C4A73818  29.171   2.735   7.364
 5841POPC   C1B73819  29.275   3.029   6.464
 5841POPC   C2B73820  29.198   2.960   6.764
 5841POPC   C3B73821  29.234   3.027   7.064
 5841POPC   C4B73822  29.187   2.968   7.364
 5842POPC   NC373823  10.573   0.435   5.564
 5842POPC   PO473824  10.551   0.485   5.864
 5842POPC   GL173825  10.484   0.456   6.164
 5842POPC   GL273826  10.611   0.326   6.164
 5842POPC   C1A73827  10.545   0.483   6.464
 5842POPC   D2A73828  10.487   0.427   6.764
 5842POPC   C3A73829  10.543   0.455   7.064
 5842POPC   C4A73830  10.567   0.413   7.364
 5842POPC   C1B73831  10.657   0.188   6.464
 5842POPC   C2B73832  10.665   0.229   6.764
 5842POPC   C3B73833  10.640   0.266   7.064
 5842POPC   C4B73834  10.651   0.213   7.364
 5843POPC   NC373835   1.165  40.040   5.564
 5843POPC   PO473836   1.213  40.041   5.864
 5843POPC   GL173837   1.214  40.031   6.164
 5843POPC   GL273838   1.156  39.878   6.164
 5843POPC   C1A73839   1.201  40.031   6.464
 5843POPC   D2A73840   1.218  39.966   6.764
 5843POPC   C3A73841   1.181  40.025   7.064
 5843POPC   C4A73842   1.233  39.958   7.364
 5843POPC   C1B73843   1.106  39.799   6.464
 5843POPC   C2B73844   1.156  39.815   6.764
 5843POPC   C3B73845   1.133  39.729   7.064
 5843POPC   C4B73846   1.160  39.760   7.364
 5844POPC   NC373847  24.458  29.151   5.564
 5844POPC   PO473848  24.538  29.192   5.864
 5844POPC   GL173849  24.445  29.168   6.164
 5844POPC   GL273850  24.534  29.278   6.164
 5844POPC   C1A73851  24.469  29.177   6.464
 5844POPC   D2A73852  24.498  29.122   6.764
 5844POPC   C3A73853  24.447  29.163   7.064
 5844POPC   C4A73854  24.530  29.170   7.364
 5844POPC   C1B73855  24.551  29.406   6.464
 5844POPC   C2B73856  24.647  29.417   6.764
 5844POPC   C3B73857  24.557  29.363   7.064
 5844POPC   C4B73858  24.625  29.333   7.364
 5845POPC   NC373859  14.436  36.152   5.564
 5845POPC   PO473860  14.360  36.168   5.864
 5845POPC   GL173861  14.413  36.167   6.164
 5845POPC   GL273862  14.268  36.188   6.164
 5845POPC   C1A73863  14.443  36.107   6.464
 5845POPC   D2A73864  14.362  36.159   6.764
 5845POPC   C3A73865  14.418  36.094   7.064
 5845POPC   C4A73866  14.395  36.171   7.364
 5845POPC   C1B73867  14.196  36.149   6.464
 5845POPC   C2B73868  14.196  36.194   6.764
 5845POPC   C3B73869  14.197  36.162   7.064
 5845POPC   C4B73870  14.190  36.150   7.364
 5846POPC   NC373871  32.232  33.070   5.564
 5846POPC   PO473872  32.240  33.012   5.864
 5846POPC   GL173873  32.237  33.028   6.164
 5846POPC   GL273874  32.166  32.888   6.164
 5846POPC   C1A73875  32.249  33.067   6.464
 5846POPC   D2A73876  32.298  33.025   6.764
 5846POPC   C3A73877  32.206  33.027   7.064
 5846POPC   C4A73878  32.263  33.049   7.364
 5846POPC   C1B73879  32.088  32.801   6.464
 5846POPC   C2B73880  32.094  32.862   6.764
 5846POPC   C3B73881  32.061  32.816   7.064
 5846POPC   C4B73882  32.105  32.858   7.364
 5847POPC   NC373883  18.300  44.613   5.564
 5847POPC   PO473884  18.256  44.688   5.864
 5847POPC   GL173885  18.306  44.668   6.164
 5847POPC   GL273886  18.181  44.556   6.164
 5847POPC   C1A73887  18.326  44.639   6.464
 5847POPC   D2A73888  18.234  44.650   6.764
 5847POPC   C3A73889  18.286  44.640   7.064
 5847POPC   C4A73890  18.314  44.667   7.364
 5847POPC   C1B73891  18.080  44.510   6.464
 5847POPC   C2B73892  18.143  44.432   6.764
 5847POPC   C3B73893  18.156  44.464   7.064
 5847POPC   C4B73894  18.109  44.449   7.364
 5848POPC   NC373895  38.428  43.872   5.564
 5848POPC   PO473896  38.489  43.881   5.864
 5848POPC   GL173897  38.493  43.867   6.164
 5848POPC   GL273898  38.447  43.800   6.164
 5848POPC   C1A73899  38.429  43.870   6.464
 5848POPC   D2A73900  38.462  43.887   6.764
 5848POPC   C3A73901  38.470  43.933   7.064
 5848POPC   C4A73902  38.492  43.926   7.364
 5848POPC   C1B73903  38.407  43.626   6.464
 5848POPC   C2B73904  38.405  43.597   6.764
 5848POPC   C3B73905  38.453  43.623   7.064
 5848POPC   C4B73906  38.452  43.674   7.364
 5849POPC   NC373907   5.099  33.028   5.564
 5849POPC   PO473908   5.117  33.005   5.864
 5849POPC   GL173909   5.077  33.005   6.164
 5849POPC   GL273910   5.079  33.120   6.164
 5849POPC   C1A73911   5.068  33.028   6.464
 5849POPC   D2A73912   5.112  32.980   6.764
 5849POPC   C3A73913   5.116  33.013   7.064
 5849POPC   C4A73914   5.120  33.002   7.364
 5849POPC   C1B73915   4.935  33.266   6.464
 5849POPC   C2B73916   4.989  33.272   6.764
 5849POPC   C3B73917   4.949  33.203   7.064
 5849POPC   C4B73918   4.973  33.252   7.364
 5850POPC   NC373919  10.557  37.724   5.564
 5850POPC   PO473920  10.551  37.664   5.864
 5850POPC   GL173921  10.522  37.665   6.164
 5850POPC   GL273922  10.638  37.558   6.164
 5850POPC   C1A73923  10.486  37.697   6.464
 5850POPC   D2A73924  10.511  37.653   6.764
 5850POPC   C3A73925  10.539  37.726   7.064
 5850POPC   C4A73926  10.501  37.634   7.364
 5850POPC   C1B73927  10.747  37.529   6.464
 5850POPC   C2B73928  10.654  37.541   6.764
 5850POPC   C3B73929  10.736  37.496   7.064
 5850POPC   C4B73930  10.702  37.544   7.364
 5851POPC   NC373931  26.005  30.671   5.564
 5851POPC   PO473932  26.039  30.669   5.864
 5851POPC   GL173933  26.018  30.705   6.164
 5851POPC   GL273934  26.026  30.854   6.164
 5851POPC   C1A73935  26.066  30.741   6.464
 5851POPC   D2A73936  26.091  30.698   6.764
 5851POPC   C3A73937  26.058  30.721   7.064
 5851POPC   C4A73938  26.070  30.684   7.364
 5851POPC   C1B73939  25.991  30.987   6.464
 5851POPC   C2B73940  25.985  30.894   6.764
 5851POPC   C3B73941  25.992  30.933   7.064
 5851POPC   C4B73942  25.944  30.935   7.364
 5852POPC   NC373943  32.244   0.411   5.564
 5852POPC   PO473944  32.245   0.445   5.864
 5852POPC   GL173945  32.275   0.424   6.164
 5852POPC   GL273946  32.140   0.452   6.164
 5852POPC   C1A73947  32.251   0.432   6.464
 5852POPC   D2A73948  32.238   0.471   6.764
 5852POPC   C3A73949  32.232   0.417   7.064
 5852POPC   C4A73950  32.226   0.431   7.364
 5852POPC   C1B73951  31.963   0.392   6.464
 5852POPC   C2B73952  32.037   0.411   6.764
 5852POPC   C3B73953  32.033   0.376   7.064
 5852POPC   C4B73954  32.027   0.387   7.364
 5853POPC   NC373955  33.017  26.048   5.564
 5853POPC   PO473956  32.980  26.081   5.864
 5853POPC   GL173957  33.033  26.031   6.164
 5853POPC   GL273958  33.190  26.074   6.164
 5853POPC   C1A73959  33.011  26.062   6.464
 5853POPC   D2A73960  32.976  26.015   6.764
 5853POPC   C3A73961  33.035  26.015   7.064
 5853POPC   C4A73962  33.011  26.028   7.364
 5853POPC   C1B73963  33.299  26.137   6.464
 5853POPC   C2B73964  33.231  26.161   6.764
 5853POPC   C3B73965  33.260  26.138   7.064
 5853POPC   C4B73966  33.274  26.144   7.364
 5854POPC   NC373967  25.256  15.920   5.564
 5854POPC   PO473968  25.226  15.936   5.864
 5854POPC   GL173969  25.304  15.924   6.164
 5854POPC   GL273970  25.313  16.110   6.164
 5854POPC   C1A73971  25.243  15.948   6.464
 5854POPC   D2A73972  25.299  15.937   6.764
 5854POPC   C3A73973  25.247  15.905   7.064
 5854POPC   C4A73974  25.225  15.954   7.364
 5854POPC   C1B73975  25.242  16.211   6.464
 5854POPC   C2B73976  25.220  16.195   6.764
 5854POPC   C3B73977  25.243  16.200   7.064
 5854POPC   C4B73978  25.225  16.204   7.364
 5855POPC   NC373979  34.608  31.467   5.564
 5855POPC   PO473980  34.597  31.497   5.864
 5855POPC   GL173981  34.587  31.431   6.164
 5855POPC   GL273982  34.710  31.351   6.164
 5855POPC   C1A73983  34.575  31.519   6.464
 5855POPC   D2A73984  34.527  31.470   6.764
 5855POPC   C3A73985  34.565  31.456   7.064
 5855POPC   C4A73986  34.607  31.444   7.364
 5855POPC   C1B73987  34.789  31.324   6.464
 5855POPC   C2B73988  34.721  31.266   6.764
 5855POPC   C3B73989  34.754  31.343   7.064
 5855POPC   C4B73990  34.747  31.335   7.364
 5856POPC   NC373991   7.423  15.221   5.564
 5856POPC   PO473992   7.434  15.137   5.864
 5856POPC   GL173993   7.387  15.196   6.164
 5856POPC   GL273994   7.319  15.118   6.164
 5856POPC   C1A73995   7.392  15.189   6.464
 5856POPC   D2A73996   7.444  15.167   6.764
 5856POPC   C3A73997   7.395  15.208   7.064
 5856POPC   C4A73998   7.420  15.134   7.364
 5856POPC   C1B73999   7.217  15.014   6.464
 5856POPC   C2B74000   7.172  15.071   6.764
 5856POPC   C3B74001   7.204  15.027   7.064
 5856POPC   C4B74002   7.180  15.096   7.364
 5857POPC   NC374003  20.570  22.192   5.564
 5857POPC   PO474004  20.609  22.190   5.864
 5857POPC   GL174005  20.659  22.159   6.164
 5857POPC   GL274006  20.486  22.128   6.164
 5857POPC   C1A74007  20.641  22.169   6.464
 5857POPC   D2A74008  20.604  22.164   6.764
 5857POPC   C3A74009  20.635  22.153   7.064
 5857POPC   C4A74010  20.640  22.209   7.364
 5857POPC   C1B74011  20.318  22.148   6.464
 5857POPC   C2B74012  20.400  22.156   6.764
 5857POPC   C3B74013  20.326  22.156   7.064
 5857POPC   C4B74014  20.357  22.221   7.364
 5858POPC   NC374015   5.140  15.933   5.564
 5858POPC   PO474016   5.142  15.916   5.864
 5858POPC   GL174017   5.125  16.002   6.164
 5858POPC   GL274018   5.125  16.072   6.164
 5858POPC   C1A74019   5.090  15.953   6.464
 5858POPC   D2A74020   5.099  15.965   6.764
 5858POPC   C3A74021   5.113  15.970   7.064
 5858POPC   C4A74022   5.073  15.948   7.364
 5858POPC   C1B74023   5.041  16.245   6.464
 5858POPC   C2B74024   5.087  16.234   6.764
 5858POPC   C3B74025   5.102  16.156   7.064
 5858POPC   C4B74026   5.075  16.243   7.364
 5859POPC   NC374027  36.165  12.896   5.564
 5859POPC   PO474028  36.156  12.821   5.864
 5859POPC   GL174029  36.143  12.892   6.164
 5859POPC   GL274030  36.231  12.839   6.164
 5859POPC   C1A74031  36.164  12.811   6.464
 5859POPC   D2A74032  36.155  12.886   6.764
 5859POPC   C3A74033  36.157  12.883   7.064
 5859POPC   C4A74034  36.147  12.864   7.364
 5859POPC   C1B74035  36.396  12.942   6.464
 5859POPC   C2B74036  36.334  12.950   6.764
 5859POPC   C3B74037  36.383  12.923   7.064
 5859POPC   C4B74038  36.337  12.946   7.364
 5860POPC   NC374039  43.118  26.776   5.564
 5860POPC   PO474040  43.115  26.847   5.864
 5860POPC   GL174041  43.103  26.861   6.164
 5860POPC   GL274042  43.225  26.924   6.164
 5860POPC   C1A74043  43.119  26.834   6.464
 5860POPC   D2A74044  43.098  26.794   6.764
 5860POPC   C3A74045  43.133  26.840   7.064
 5860POPC   C4A74046  43.108  26.808   7.364
 5860POPC   C1B74047  43.366  26.974   6.464
 5860POPC   C2B74048  43.278  26.953   6.764
 5860POPC   C3B74049  43.306  26.947   7.064
 5860POPC   C4B74050  43.305  26.931   7.364
 5861POPC   NC374051  18.265   1.180   5.564
 5861POPC   PO474052  18.247   1.237   5.864
 5861POPC   GL174053  18.284   1.168   6.164
 5861POPC   GL274054  18.370   1.077   6.164
 5861POPC   C1A74055  18.308   1.220   6.464
 5861POPC   D2A74056  18.270   1.203   6.764
 5861POPC   C3A74057  18.235   1.168   7.064
 5861POPC   C4A74058  18.295   1.223   7.364
 5861POPC   C1B74059  18.381   0.940   6.464
 5861POPC   C2B74060  18.412   0.963   6.764
 5861POPC   C3B74061  18.396   0.961   7.064
 5861POPC   C4B74062  18.348   0.971   7.364
 5862POPC   NC374063   1.966  15.916   5.564
 5862POPC   PO474064   2.035  15.925   5.864
 5862POPC   GL174065   1.994  15.976   6.164
 5862POPC   GL274066   1.901  15.864   6.164
 5862POPC   C1A74067   2.005  15.966   6.464
 5862POPC   D2A74068   2.010  15.959   6.764
 5862POPC   C3A74069   1.950  15.954   7.064
 5862POPC   C4A74070   2.018  15.932   7.364
 5862POPC   C1B74071   1.844  15.727   6.464
 5862POPC   C2B74072   1.898  15.732   6.764
 5862POPC   C3B74073   1.897  15.728   7.064
 5862POPC   C4B74074   1.908  15.763   7.364
 5863POPC   NC374075  38.496  11.275   5.564
 5863POPC   PO474076  38.504  11.307   5.864
 5863POPC   GL174077  38.440  11.304   6.164
 5863POPC   GL274078  38.389  11.382   6.164
 5863POPC   C1A74079  38.419  11.331   6.464
 5863POPC   D2A74080  38.455  11.333   6.764
 5863POPC   C3A74081  38.462  11.285   7.064
 5863POPC   C4A74082  38.483  11.330   7.364
 5863POPC   C1B74083  38.278  11.500   6.464
 5863POPC   C2B74084  38.345  11.446   6.764
 5863POPC   C3B74085  38.255  11.528   7.064
 5863POPC   C4B74086  38.285  11.487   7.364
 5864POPC   NC374087  28.406  33.761   5.564
 5864POPC   PO474088  28.402  33.752   5.864
 5864POPC   GL174089  28.351  33.843   6.164
 5864POPC   GL274090  28.435  33.893   6.164
 5864POPC   C1A74091  28.361  33.769   6.464
 5864POPC   D2A74092  28.333  33.825   6.764
 5864POPC   C3A74093  28.334  33.784   7.064
 5864POPC   C4A74094  28.326  33.784   7.364
 5864POPC   C1B74095  28.412  34.065   6.464
 5864POPC   C2B74096  28.484  34.027   6.764
 5864POPC   C3B74097  28.415  34.023   7.064
 5864POPC   C4B74098  28.511  33.995   7.364
 5865POPC   NC374099   5.850  17.527   5.564
 5865POPC   PO474100   5.875  17.486   5.864
 5865POPC   GL174101   5.831  17.484   6.164
 5865POPC   GL274102   5.928  17.431   6.164
 5865POPC   C1A74103   5.870  17.499   6.464
 5865POPC   D2A74104   5.839  17.500   6.764
 5865POPC   C3A74105   5.902  17.493   7.064
 5865POPC   C4A74106   5.862  17.552   7.364
 5865POPC   C1B74107   6.071  17.372   6.464
 5865POPC   C2B74108   6.010  17.300   6.764
 5865POPC   C3B74109   6.042  17.348   7.064
 5865POPC   C4B74110   6.095  17.387   7.364
 5866POPC   NC374111  26.051  12.881   5.564
 5866POPC   PO474112  26.052  12.875   5.864
 5866POPC   GL174113  26.007  12.852   6.164
 5866POPC   GL274114  26.056  12.925   6.164
 5866POPC   C1A74115  26.035  12.819   6.464
 5866POPC   D2A74116  26.074  12.882   6.764
 5866POPC   C3A74117  26.039  12.805   7.064
 5866POPC   C4A74118  26.086  12.811   7.364
 5866POPC   C1B74119  26.026  13.065   6.464
 5866POPC   C2B74120  26.023  13.068   6.764
 5866POPC   C3B74121  25.986  13.137   7.064
 5866POPC   C4B74122  25.967  13.127   7.364
 5867POPC   NC374123  11.333  23.677   5.564
 5867POPC   PO474124  11.250  23.743   5.864
 5867POPC   GL174125  11.280  23.676   6.164
 5867POPC   GL274126  11.221  23.639   6.164
 5867POPC   C1A74127  11.342  23.740   6.464
 5867POPC   D2A74128  11.260  23.737   6.764
 5867POPC   C3A74129  11.349  23.696   7.064
 5867POPC   C4A74130  11.330  23.760   7.364
 5867POPC   C1B74131  11.114  23.620   6.464
 5867POPC   C2B74132  11.124  23.548   6.764
 5867POPC   C3B74133  11.088  23.584   7.064
 5867POPC   C4B74134  11.041  23.601   7.364
 5868POPC   NC374135  37.661   1.211   5.564
 5868POPC   PO474136  37.727   1.209   5.864
 5868POPC   GL174137  37.709   1.239   6.164
 5868POPC   GL274138  37.585   1.121   6.164
 5868POPC   C1A74139  37.715   1.223   6.464
 5868POPC   D2A74140  37.640   1.263   6.764
 5868POPC   C3A74141  37.700   1.178   7.064
 5868POPC   C4A74142  37.657   1.170   7.364
 5868POPC   C1B74143  37.459   1.043   6.464
 5868POPC   C2B74144  37.487   0.992   6.764
 5868POPC   C3B74145  37.491   1.089   7.064
 5868POPC   C4B74146  37.498   1.003   7.364
 5869POPC   NC374147   2.008   1.164   5.564
 5869POPC   PO474148   1.943   1.168   5.864
 5869POPC   GL174149   1.943   1.178   6.164
 5869POPC   GL274150   2.066   1.269   6.164
 5869POPC   C1A74151   1.977   1.172   6.464
 5869POPC   D2A74152   2.021   1.241   6.764
 5869POPC   C3A74153   1.956   1.179   7.064
 5869POPC   C4A74154   1.992   1.239   7.364
 5869POPC   C1B74155   2.204   1.258   6.464
 5869POPC   C2B74156   2.240   1.288   6.764
 5869POPC   C3B74157   2.178   1.347   7.064
 5869POPC   C4B74158   2.252   1.318   7.364
 5870POPC   NC374159  34.553  17.495   5.564
 5870POPC   PO474160  34.614  17.520   5.864
 5870POPC   GL174161  34.608  17.518   6.164
 5870POPC   GL274162  34.467  17.625   6.164
 5870POPC   C1A74163  34.572  17.548   6.464
 5870POPC   D2A74164  34.624  17.459   6.764
 5870POPC   C3A74165  34.583  17.511   7.064
 5870POPC   C4A74166  34.526  17.551   7.364
 5870POPC   C1B74167  34.447  17.723   6.464
 5870POPC   C2B74168  34.460  17.689   6.764
 5870POPC   C3B74169  34.469  17.754   7.064
 5870POPC   C4B74170  34.442  17.744   7.364
 5871POPC   NC374171  39.247   8.175   5.564
 5871POPC   PO474172  39.261   8.234   5.864
 5871POPC   GL174173  39.189   8.180   6.164
 5871POPC   GL274174  39.076   8.163   6.164
 5871POPC   C1A74175  39.216   8.189   6.464
 5871POPC   D2A74176  39.220   8.200   6.764
 5871POPC   C3A74177  39.240   8.243   7.064
 5871POPC   C4A74178  39.205   8.154   7.364
 5871POPC   C1B74179  38.969   8.228   6.464
 5871POPC   C2B74180  39.023   8.251   6.764
 5871POPC   C3B74181  38.971   8.204   7.064
 5871POPC   C4B74182  38.976   8.257   7.364
 5872POPC   NC374183  15.918  39.190   5.564
 5872POPC   PO474184  15.951  39.262   5.864
 5872POPC   GL174185  15.977  39.250   6.164
 5872POPC   GL274186  16.099  39.283   6.164
 5872POPC   C1A74187  15.955  39.191   6.464
 5872POPC   D2A74188  16.002  39.198   6.764
 5872POPC   C3A74189  15.936  39.263   7.064
 5872POPC   C4A74190  15.947  39.247   7.364
 5872POPC   C1B74191  16.146  39.333   6.464
 5872POPC   C2B74192  16.153  39.326   6.764
 5872POPC   C3B74193  16.187  39.312   7.064
 5872POPC   C4B74194  16.230  39.326   7.364
 5873POPC   NC374195  26.048  28.402   5.564
 5873POPC   PO474196  25.994  28.382   5.864
 5873POPC   GL174197  26.008  28.351   6.164
 5873POPC   GL274198  26.036  28.246   6.164
 5873POPC   C1A74199  26.059  28.370   6.464
 5873POPC   D2A74200  25.997  28.384   6.764
 5873POPC   C3A74201  26.058  28.381   7.064
 5873POPC   C4A74202  26.081  28.320   7.364
 5873POPC   C1B74203  26.087  28.116   6.464
 5873POPC   C2B74204  26.109  28.090   6.764
 5873POPC   C3B74205  26.075  28.161   7.064
 5873POPC   C4B74206  26.116  28.143   7.364
 5874POPC   NC374207  24.498  28.413   5.564
 5874POPC   PO474208  24.509  28.347   5.864
 5874POPC   GL174209  24.538  28.336   6.164
 5874POPC   GL274210  24.332  28.455   6.164
 5874POPC   C1A74211  24.479  28.352   6.464
 5874POPC   D2A74212  24.506  28.367   6.764
 5874POPC   C3A74213  24.469  28.390   7.064
 5874POPC   C4A74214  24.519  28.325   7.364
 5874POPC   C1B74215  24.324  28.450   6.464
 5874POPC   C2B74216  24.303  28.489   6.764
 5874POPC   C3B74217  24.304  28.449   7.064
 5874POPC   C4B74218  24.264  28.538   7.364
 5875POPC   NC374219  11.337  11.331   5.564
 5875POPC   PO474220  11.303  11.307   5.864
 5875POPC   GL174221  11.294  11.314   6.164
 5875POPC   GL274222  11.415  11.306   6.164
 5875POPC   C1A74223  11.255  11.343   6.464
 5875POPC   D2A74224  11.292  11.329   6.764
 5875POPC   C3A74225  11.281  11.343   7.064
 5875POPC   C4A74226  11.300  11.342   7.364
 5875POPC   C1B74227  11.576  11.216   6.464
 5875POPC   C2B74228  11.506  11.196   6.764
 5875POPC   C3B74229  11.534  11.213   7.064
 5875POPC   C4B74230  11.572  11.265   7.364
 5876POPC   NC374231  40.003  44.651   5.564
 5876POPC   PO474232  40.011  44.692   5.864
 5876POPC   GL174233  39.993  44.677   6.164
 5876POPC   GL274234  40.051  44.517   6.164
 5876POPC   C1A74235  39.992  44.626   6.464
 5876POPC   D2A74236  39.962  44.653   6.764
 5876POPC   C3A74237  39.960  44.699   7.064
 5876POPC   C4A74238  39.982  44.701   7.364
 5876POPC   C1B74239  40.142  44.475   6.464
 5876POPC   C2B74240  40.094  44.468   6.764
 5876POPC   C3B74241  40.080  44.437   7.064
 5876POPC   C4B74242  40.087  44.398   7.364
 5877POPC   NC374243  38.462  12.049   5.564
 5877POPC   PO474244  38.432  12.077   5.864
 5877POPC   GL174245  38.419  12.091   6.164
 5877POPC   GL274246  38.560  11.990   6.164
 5877POPC   C1A74247  38.483  12.033   6.464
 5877POPC   D2A74248  38.462  12.059   6.764
 5877POPC   C3A74249  38.422  12.077   7.064
 5877POPC   C4A74250  38.429  12.071   7.364
 5877POPC   C1B74251  38.562  11.877   6.464
 5877POPC   C2B74252  38.626  11.849   6.764
 5877POPC   C3B74253  38.617  11.842   7.064
 5877POPC   C4B74254  38.582  11.845   7.364
 5878POPC   NC374255  18.304   3.552   5.564
 5878POPC   PO474256  18.294   3.495   5.864
 5878POPC   GL174257  18.312   3.562   6.164
 5878POPC   GL274258  18.164   3.488   6.164
 5878POPC   C1A74259  18.271   3.585   6.464
 5878POPC   D2A74260  18.304   3.586   6.764
 5878POPC   C3A74261  18.332   3.546   7.064
 5878POPC   C4A74262  18.326   3.517   7.364
 5878POPC   C1B74263  18.052   3.524   6.464
 5878POPC   C2B74264  17.994   3.464   6.764
 5878POPC   C3B74265  18.036   3.464   7.064
 5878POPC   C4B74266  18.069   3.475   7.364
 5879POPC   NC374267  39.967  35.365   5.564
 5879POPC   PO474268  40.005  35.314   5.864
 5879POPC   GL174269  40.032  35.350   6.164
 5879POPC   GL274270  39.970  35.179   6.164
 5879POPC   C1A74271  40.006  35.315   6.464
 5879POPC   D2A74272  40.053  35.402   6.764
 5879POPC   C3A74273  40.034  35.340   7.064
 5879POPC   C4A74274  40.018  35.335   7.364
 5879POPC   C1B74275  40.052  35.142   6.464
 5879POPC   C2B74276  39.980  35.100   6.764
 5879POPC   C3B74277  39.979  35.126   7.064
 5879POPC   C4B74278  40.034  35.130   7.364
 5880POPC   NC374279  20.644  12.110   5.564
 5880POPC   PO474280  20.600  12.125   5.864
 5880POPC   GL174281  20.578  12.051   6.164
 5880POPC   GL274282  20.481  12.059   6.164
 5880POPC   C1A74283  20.641  12.049   6.464
 5880POPC   D2A74284  20.581  12.101   6.764
 5880POPC   C3A74285  20.614  12.046   7.064
 5880POPC   C4A74286  20.565  12.100   7.364
 5880POPC   C1B74287  20.344  11.947   6.464
 5880POPC   C2B74288  20.397  12.012   6.764
 5880POPC   C3B74289  20.377  11.961   7.064
 5880POPC   C4B74290  20.412  11.965   7.364
 5881POPC   NC374291  26.028  26.047   5.564
 5881POPC   PO474292  26.003  26.017   5.864
 5881POPC   GL174293  25.999  26.031   6.164
 5881POPC   GL274294  26.021  25.966   6.164
 5881POPC   C1A74295  26.008  26.013   6.464
 5881POPC   D2A74296  26.037  26.061   6.764
 5881POPC   C3A74297  26.077  26.063   7.064
 5881POPC   C4A74298  26.019  26.030   7.364
 5881POPC   C1B74299  25.940  25.772   6.464
 5881POPC   C2B74300  25.903  25.818   6.764
 5881POPC   C3B74301  25.979  25.830   7.064
 5881POPC   C4B74302  25.993  25.854   7.364
 5882POPC   NC374303  23.692  22.936   5.564
 5882POPC   PO474304  23.709  22.975   5.864
 5882POPC   GL174305  23.679  22.973   6.164
 5882POPC   GL274306  23.606  22.897   6.164
 5882POPC   C1A74307  23.710  22.930   6.464
 5882POPC   D2A74308  23.700  22.936   6.764
 5882POPC   C3A74309  23.703  22.948   7.064
 5882POPC   C4A74310  23.720  22.933   7.364
 5882POPC   C1B74311  23.446  22.851   6.464
 5882POPC   C2B74312  23.518  22.831   6.764
 5882POPC   C3B74313  23.465  22.863   7.064
 5882POPC   C4B74314  23.441  22.846   7.364
 5883POPC   NC374315  33.844  15.999   5.564
 5883POPC   PO474316  33.806  15.919   5.864
 5883POPC   GL174317  33.815  15.911   6.164
 5883POPC   GL274318  33.864  16.044   6.164
 5883POPC   C1A74319  33.807  15.995   6.464
 5883POPC   D2A74320  33.804  15.975   6.764
 5883POPC   C3A74321  33.829  15.921   7.064
 5883POPC   C4A74322  33.764  15.921   7.364
 5883POPC   C1B74323  33.920  16.196   6.464
 5883POPC   C2B74324  33.903  16.226   6.764
 5883POPC   C3B74325  33.906  16.171   7.064
 5883POPC   C4B74326  33.866  16.152   7.364
 5884POPC   NC374327  23.668  11.258   5.564
 5884POPC   PO474328  23.704  11.314   5.864
 5884POPC   GL174329  23.691  11.298   6.164
 5884POPC   GL274330  23.639  11.415   6.164
 5884POPC   C1A74331  23.731  11.308   6.464
 5884POPC   D2A74332  23.712  11.262   6.764
 5884POPC   C3A74333  23.680  11.287   7.064
 5884POPC   C4A74334  23.747  11.288   7.364
 5884POPC   C1B74335  23.635  11.518   6.464
 5884POPC   C2B74336  23.661  11.562   6.764
 5884POPC   C3B74337  23.665  11.584   7.064
 5884POPC   C4B74338  23.627  11.562   7.364
 5885POPC   NC374339  43.129  13.646   5.564
 5885POPC   PO474340  43.118  13.650   5.864
 5885POPC   GL174341  43.152  13.630   6.164
 5885POPC   GL274342  43.146  13.763   6.164
 5885POPC   C1A74343  43.122  13.616   6.464
 5885POPC   D2A74344  43.094  13.581   6.764
 5885POPC   C3A74345  43.069  13.628   7.064
 5885POPC   C4A74346  43.064  13.668   7.364
 5885POPC   C1B74347  43.117  13.856   6.464
 5885POPC   C2B74348  43.141  13.838   6.764
 5885POPC   C3B74349  43.103  13.866   7.064
 5885POPC   C4B74350  43.148  13.841   7.364
 5886POPC   NC374351  12.063  25.218   5.564
 5886POPC   PO474352  12.028  25.216   5.864
 5886POPC   GL174353  12.103  25.234   6.164
 5886POPC   GL274354  11.973  25.146   6.164
 5886POPC   C1A74355  12.076  25.286   6.464
 5886POPC   D2A74356  12.106  25.275   6.764
 5886POPC   C3A74357  12.052  25.232   7.064
 5886POPC   C4A74358  12.117  25.278   7.364
 5886POPC   C1B74359  11.961  25.074   6.464
 5886POPC   C2B74360  11.906  25.034   6.764
 5886POPC   C3B74361  11.934  25.109   7.064
 5886POPC   C4B74362  11.967  25.102   7.364
 5887POPC   NC374363  43.076  35.365   5.564
 5887POPC   PO474364  43.115  35.344   5.864
 5887POPC   GL174365  43.137  35.336   6.164
 5887POPC   GL274366  43.107  35.508   6.164
 5887POPC   C1A74367  43.159  35.311   6.464
 5887POPC   D2A74368  43.094  35.363   6.764
 5887POPC   C3A74369  43.106  35.362   7.064
 5887POPC   C4A74370  43.099  35.367   7.364
 5887POPC   C1B74371  43.147  35.599   6.464
 5887POPC   C2B74372  43.146  35.563   6.764
 5887POPC   C3B74373  43.124  35.622   7.064
 5887POPC   C4B74374  43.116  35.630   7.364
 5888POPC   NC374375  20.650  26.025   5.564
 5888POPC   PO474376  20.620  26.066   5.864
 5888POPC   GL174377  20.654  26.091   6.164
 5888POPC   GL274378  20.662  26.154   6.164
 5888POPC   C1A74379  20.614  26.048   6.464
 5888POPC   D2A74380  20.644  26.011   6.764
 5888POPC   C3A74381  20.633  26.069   7.064
 5888POPC   C4A74382  20.636  26.026   7.364
 5888POPC   C1B74383  20.750  26.245   6.464
 5888POPC   C2B74384  20.819  26.239   6.764
 5888POPC   C3B74385  20.815  26.241   7.064
 5888POPC   C4B74386  20.828  26.195   7.364
 5889POPC   NC374387  12.814  22.952   5.564
 5889POPC   PO474388  12.898  22.922   5.864
 5889POPC   GL174389  12.849  22.945   6.164
 5889POPC   GL274390  12.745  22.873   6.164
 5889POPC   C1A74391  12.825  22.975   6.464
 5889POPC   D2A74392  12.854  22.961   6.764
 5889POPC   C3A74393  12.895  22.921   7.064
 5889POPC   C4A74394  12.897  22.953   7.364
 5889POPC   C1B74395  12.721  22.697   6.464
 5889POPC   C2B74396  12.754  22.703   6.764
 5889POPC   C3B74397  12.743  22.687   7.064
 5889POPC   C4B74398  12.757  22.719   7.364
 5890POPC   NC374399  44.665  26.841   5.564
 5890POPC   PO474400  44.702  26.867   5.864
 5890POPC   GL174401  44.617  26.840   6.164
 5890POPC   GL274402  44.691  26.687   6.164
 5890POPC   C1A74403  44.687  26.847   6.464
 5890POPC   D2A74404  44.677  26.796   6.764
 5890POPC   C3A74405  44.687  26.843   7.064
 5890POPC   C4A74406  44.709  26.812   7.364
 5890POPC   C1B74407  44.609  26.526   6.464
 5890POPC   C2B74408  44.597  26.580   6.764
 5890POPC   C3B74409  44.595  26.546   7.064
 5890POPC   C4B74410  44.630  26.541   7.364
 5891POPC   NC374411  23.666  37.660   5.564
 5891POPC   PO474412  23.667  37.708   5.864
 5891POPC   GL174413  23.707  37.655   6.164
 5891POPC   GL274414  23.808  37.634   6.164
 5891POPC   C1A74415  23.691  37.720   6.464
 5891POPC   D2A74416  23.756  37.722   6.764
 5891POPC   C3A74417  23.704  37.664   7.064
 5891POPC   C4A74418  23.679  37.685   7.364
 5891POPC   C1B74419  23.995  37.570   6.464
 5891POPC   C2B74420  23.982  37.563   6.764
 5891POPC   C3B74421  23.931  37.572   7.064
 5891POPC   C4B74422  23.954  37.590   7.364
 5892POPC   NC374423  24.526   2.026   5.564
 5892POPC   PO474424  24.529   2.001   5.864
 5892POPC   GL174425  24.484   1.957   6.164
 5892POPC   GL274426  24.567   2.009   6.164
 5892POPC   C1A74427  24.460   2.002   6.464
 5892POPC   D2A74428  24.499   1.953   6.764
 5892POPC   C3A74429  24.473   1.997   7.064
 5892POPC   C4A74430  24.446   1.986   7.364
 5892POPC   C1B74431  24.698   2.011   6.464
 5892POPC   C2B74432  24.772   2.039   6.764
 5892POPC   C3B74433  24.720   1.990   7.064
 5892POPC   C4B74434  24.751   2.044   7.364
 5893POPC   NC374435  29.894  33.773   5.564
 5893POPC   PO474436  29.902  33.842   5.864
 5893POPC   GL174437  29.934  33.824   6.164
 5893POPC   GL274438  29.849  33.703   6.164
 5893POPC   C1A74439  29.931  33.829   6.464
 5893POPC   D2A74440  29.936  33.782   6.764
 5893POPC   C3A74441  29.953  33.799   7.064
 5893POPC   C4A74442  29.945  33.792   7.364
 5893POPC   C1B74443  29.798  33.603   6.464
 5893POPC   C2B74444  29.793  33.654   6.764
 5893POPC   C3B74445  29.719  33.580   7.064
 5893POPC   C4B74446  29.768  33.657   7.364
 5894POPC   NC374447   8.229   1.181   5.564
 5894POPC   PO474448   8.194   1.236   5.864
 5894POPC   GL174449   8.183   1.250   6.164
 5894POPC   GL274450   8.255   1.343   6.164
 5894POPC   C1A74451   8.180   1.245   6.464
 5894POPC   D2A74452   8.210   1.179   6.764
 5894POPC   C3A74453   8.221   1.191   7.064
 5894POPC   C4A74454   8.160   1.227   7.364
 5894POPC   C1B74455   8.285   1.455   6.464
 5894POPC   C2B74456   8.258   1.492   6.764
 5894POPC   C3B74457   8.254   1.410   7.064
 5894POPC   C4B74458   8.251   1.478   7.364
 5895POPC   NC374459  44.618  20.634   5.564
 5895POPC   PO474460  44.638  20.654   5.864
 5895POPC   GL174461  44.631  20.606   6.164
 5895POPC   GL274462  44.736  20.512   6.164
 5895POPC   C1A74463  44.633  20.607   6.464
 5895POPC   D2A74464  44.692  20.648   6.764
 5895POPC   C3A74465  44.691  20.637   7.064
 5895POPC   C4A74466  44.651  20.576   7.364
 5895POPC   C1B74467  44.888  20.440   6.464
 5895POPC   C2B74468  44.832  20.474   6.764
 5895POPC   C3B74469  44.848  20.415   7.064
 5895POPC   C4B74470  44.834  20.410   7.364
 5896POPC   NC374471   5.822  12.110   5.564
 5896POPC   PO474472   5.884  12.072   5.864
 5896POPC   GL174473   5.835  12.071   6.164
 5896POPC   GL274474   5.843  11.983   6.164
 5896POPC   C1A74475   5.844  12.066   6.464
 5896POPC   D2A74476   5.858  12.107   6.764
 5896POPC   C3A74477   5.839  12.030   7.064
 5896POPC   C4A74478   5.844  12.088   7.364
 5896POPC   C1B74479   5.941  11.851   6.464
 5896POPC   C2B74480   5.913  11.831   6.764
 5896POPC   C3B74481   5.850  11.874   7.064
 5896POPC   C4B74482   5.858  11.839   7.364
 5897POPC   NC374483  12.079   0.402   5.564
 5897POPC   PO474484  12.057   0.435   5.864
 5897POPC   GL174485  12.106   0.423   6.164
 5897POPC   GL274486  12.008   0.274   6.164
 5897POPC   C1A74487  12.110   0.435   6.464
 5897POPC   D2A74488  12.076   0.405   6.764
 5897POPC   C3A74489  12.124   0.406   7.064
 5897POPC   C4A74490  12.080   0.405   7.364
 5897POPC   C1B74491  12.001   0.249   6.464
 5897POPC   C2B74492  12.023   0.219   6.764
 5897POPC   C3B74493  11.963   0.165   7.064
 5897POPC   C4B74494  11.935   0.221   7.364
 5898POPC   NC374495  26.059  15.202   5.564
 5898POPC   PO474496  26.024  15.138   5.864
 5898POPC   GL174497  26.058  15.206   6.164
 5898POPC   GL274498  26.106  15.245   6.164
 5898POPC   C1A74499  26.060  15.164   6.464
 5898POPC   D2A74500  26.036  15.158   6.764
 5898POPC   C3A74501  26.000  15.140   7.064
 5898POPC   C4A74502  26.022  15.176   7.364
 5898POPC   C1B74503  26.235  15.324   6.464
 5898POPC   C2B74504  26.211  15.338   6.764
 5898POPC   C3B74505  26.184  15.386   7.064
 5898POPC   C4B74506  26.281  15.374   7.364
 5899POPC   NC374507  39.245  23.693   5.564
 5899POPC   PO474508  39.260  23.669   5.864
 5899POPC   GL174509  39.250  23.677   6.164
 5899POPC   GL274510  39.285  23.599   6.164
 5899POPC   C1A74511  39.247  23.717   6.464
 5899POPC   D2A74512  39.200  23.685   6.764
 5899POPC   C3A74513  39.204  23.759   7.064
 5899POPC   C4A74514  39.186  23.706   7.364
 5899POPC   C1B74515  39.305  23.475   6.464
 5899POPC   C2B74516  39.347  23.526   6.764
 5899POPC   C3B74517  39.328  23.524   7.064
 5899POPC   C4B74518  39.352  23.455   7.364
 5900POPC   NC374519  13.630  36.873   5.564
 5900POPC   PO474520  13.591  36.946   5.864
 5900POPC   GL174521  13.645  36.865   6.164
 5900POPC   GL274522  13.578  36.945   6.164
 5900POPC   C1A74523  13.621  36.854   6.464
 5900POPC   D2A74524  13.639  36.903   6.764
 5900POPC   C3A74525  13.620  36.934   7.064
 5900POPC   C4A74526  13.638  36.926   7.364
 5900POPC   C1B74527  13.414  37.080   6.464
 5900POPC   C2B74528  13.476  37.028   6.764
 5900POPC   C3B74529  13.455  37.020   7.064
 5900POPC   C4B74530  13.435  37.046   7.364
 5901POPC   NC374531  25.250  29.912   5.564
 5901POPC   PO474532  25.283  29.901   5.864
 5901POPC   GL174533  25.228  29.929   6.164
 5901POPC   GL274534  25.351  29.937   6.164
 5901POPC   C1A74535  25.272  29.884   6.464
 5901POPC   D2A74536  25.261  29.945   6.764
 5901POPC   C3A74537  25.313  29.896   7.064
 5901POPC   C4A74538  25.298  29.890   7.364
 5901POPC   C1B74539  25.520  29.905   6.464
 5901POPC   C2B74540  25.516  29.859   6.764
 5901POPC   C3B74541  25.542  29.889   7.064
 5901POPC   C4B74542  25.486  29.925   7.364
 5902POPC   NC374543  26.062  22.913   5.564
 5902POPC   PO474544  26.051  22.935   5.864
 5902POPC   GL174545  26.013  22.894   6.164
 5902POPC   GL274546  25.934  22.974   6.164
 5902POPC   C1A74547  26.028  22.890   6.464
 5902POPC   D2A74548  26.009  22.966   6.764
 5902POPC   C3A74549  26.080  22.973   7.064
 5902POPC   C4A74550  26.043  22.980   7.364
 5902POPC   C1B74551  25.807  23.107   6.464
 5902POPC   C2B74552  25.822  23.117   6.764
 5902POPC   C3B74553  25.834  23.148   7.064
 5902POPC   C4B74554  25.803  23.128   7.364
 5903POPC   NC374555   8.168  23.664   5.564
 5903POPC   PO474556   8.191  23.758   5.864
 5903POPC   GL174557   8.178  23.673   6.164
 5903POPC   GL274558   8.185  23.794   6.164
 5903POPC   C1A74559   8.170  23.713   6.464
 5903POPC   D2A74560   8.179  23.665   6.764
 5903POPC   C3A74561   8.238  23.689   7.064
 5903POPC   C4A74562   8.212  23.737   7.364
 5903POPC   C1B74563   8.206  24.005   6.464
 5903POPC   C2B74564   8.219  23.959   6.764
 5903POPC   C3B74565   8.184  24.012   7.064
 5903POPC   C4B74566   8.174  23.962   7.364
 5904POPC   NC374567  13.638  28.335   5.564
 5904POPC   PO474568  13.644  28.374   5.864
 5904POPC   GL174569  13.648  28.378   6.164
 5904POPC   GL274570  13.641  28.238   6.164
 5904POPC   C1A74571  13.596  28.357   6.464
 5904POPC   D2A74572  13.621  28.418   6.764
 5904POPC   C3A74573  13.669  28.329   7.064
 5904POPC   C4A74574  13.670  28.331   7.364
 5904POPC   C1B74575  13.603  28.089   6.464
 5904POPC   C2B74576  13.621  28.105   6.764
 5904POPC   C3B74577  13.569  28.122   7.064
 5904POPC   C4B74578  13.596  28.144   7.364
 5905POPC   NC374579  33.781  13.600   5.564
 5905POPC   PO474580  33.818  13.592   5.864
 5905POPC   GL174581  33.831  13.593   6.164
 5905POPC   GL274582  33.708  13.577   6.164
 5905POPC   C1A74583  33.845  13.674   6.464
 5905POPC   D2A74584  33.795  13.662   6.764
 5905POPC   C3A74585  33.837  13.641   7.064
 5905POPC   C4A74586  33.817  13.647   7.364
 5905POPC   C1B74587  33.596  13.611   6.464
 5905POPC   C2B74588  33.557  13.602   6.764
 5905POPC   C3B74589  33.529  13.566   7.064
 5905POPC   C4B74590  33.527  13.565   7.364
 5906POPC   NC374591  26.859  35.327   5.564
 5906POPC   PO474592  26.781  35.359   5.864
 5906POPC   GL174593  26.865  35.302   6.164
 5906POPC   GL274594  26.651  35.380   6.164
 5906POPC   C1A74595  26.800  35.326   6.464
 5906POPC   D2A74596  26.799  35.398   6.764
 5906POPC   C3A74597  26.831  35.353   7.064
 5906POPC   C4A74598  26.867  35.386   7.364
 5906POPC   C1B74599  26.545  35.401   6.464
 5906POPC   C2B74600  26.609  35.392   6.764
 5906POPC   C3B74601  26.590  35.483   7.064
 5906POPC   C4B74602  26.599  35.410   7.364
 5907POPC   NC374603   2.009  19.865   5.564
 5907POPC   PO474604   2.031  19.855   5.864
 5907POPC   GL174605   2.018  19.859   6.164
 5907POPC   GL274606   2.004  19.771   6.164
 5907POPC   C1A74607   1.983  19.836   6.464
 5907POPC   D2A74608   2.017  19.798   6.764
 5907POPC   C3A74609   2.015  19.806   7.064
 5907POPC   C4A74610   1.999  19.853   7.364
 5907POPC   C1B74611   2.137  19.577   6.464
 5907POPC   C2B74612   2.092  19.591   6.764
 5907POPC   C3B74613   2.086  19.617   7.064
 5907POPC   C4B74614   2.134  19.571   7.364
 5908POPC   NC374615  39.259  40.825   5.564
 5908POPC   PO474616  39.185  40.811   5.864
 5908POPC   GL174617  39.218  40.768   6.164
 5908POPC   GL274618  39.136  40.883   6.164
 5908POPC   C1A74619  39.215  40.769   6.464
 5908POPC   D2A74620  39.223  40.780   6.764
 5908POPC   C3A74621  39.198  40.808   7.064
 5908POPC   C4A74622  39.187  40.757   7.364
 5908POPC   C1B74623  39.105  40.959   6.464
 5908POPC   C2B74624  39.143  40.961   6.764
 5908POPC   C3B74625  39.054  40.956   7.064
 5908POPC   C4B74626  39.050  40.945   7.364
 5909POPC   NC374627  26.838   2.808   5.564
 5909POPC   PO474628  26.822   2.759   5.864
 5909POPC   GL174629  26.821   2.741   6.164
 5909POPC   GL274630  26.753   2.691   6.164
 5909POPC   C1A74631  26.848   2.723   6.464
 5909POPC   D2A74632  26.848   2.803   6.764
 5909POPC   C3A74633  26.822   2.720   7.064
 5909POPC   C4A74634  26.819   2.750   7.364
 5909POPC   C1B74635  26.602   2.610   6.464
 5909POPC   C2B74636  26.633   2.626   6.764
 5909POPC   C3B74637  26.631   2.640   7.064
 5909POPC   C4B74638  26.566   2.673   7.364
 5910POPC   NC374639  33.783   4.301   5.564
 5910POPC   PO474640  33.783   4.289   5.864
 5910POPC   GL174641  33.824   4.276   6.164
 5910POPC   GL274642  33.740   4.362   6.164
 5910POPC   C1A74643  33.835   4.287   6.464
 5910POPC   D2A74644  33.818   4.269   6.764
 5910POPC   C3A74645  33.847   4.336   7.064
 5910POPC   C4A74646  33.830   4.318   7.364
 5910POPC   C1B74647  33.593   4.456   6.464
 5910POPC   C2B74648  33.581   4.523   6.764
 5910POPC   C3B74649  33.599   4.516   7.064
 5910POPC   C4B74650  33.645   4.520   7.364
 5911POPC   NC374651  12.829  16.713   5.564
 5911POPC   PO474652  12.806  16.751   5.864
 5911POPC   GL174653  12.835  16.721   6.164
 5911POPC   GL274654  12.691  16.659   6.164
 5911POPC   C1A74655  12.835  16.695   6.464
 5911POPC   D2A74656  12.830  16.770   6.764
 5911POPC   C3A74657  12.850  16.726   7.064
 5911POPC   C4A74658  12.881  16.702   7.364
 5911POPC   C1B74659  12.624  16.649   6.464
 5911POPC   C2B74660  12.630  16.626   6.764
 5911POPC   C3B74661  12.639  16.638   7.064
 5911POPC   C4B74662  12.591  16.723   7.364
 5912POPC   NC374663  16.754  25.283   5.564
 5912POPC   PO474664  16.690  25.273   5.864
 5912POPC   GL174665  16.730  25.274   6.164
 5912POPC   GL274666  16.584  25.306   6.164
 5912POPC   C1A74667  16.772  25.290   6.464
 5912POPC   D2A74668  16.768  25.311   6.764
 5912POPC   C3A74669  16.715  25.254   7.064
 5912POPC   C4A74670  16.751  25.221   7.364
 5912POPC   C1B74671  16.459  25.310   6.464
 5912POPC   C2B74672  16.458  25.301   6.764
 5912POPC   C3B74673  16.457  25.293   7.064
 5912POPC   C4B74674  16.464  25.356   7.364
 5913POPC   NC374675  19.073  43.929   5.564
 5913POPC   PO474676  19.089  43.921   5.864
 5913POPC   GL174677  19.068  43.862   6.164
 5913POPC   GL274678  19.133  43.939   6.164
 5913POPC   C1A74679  19.046  43.887   6.464
 5913POPC   D2A74680  19.079  43.866   6.764
 5913POPC   C3A74681  19.088  43.881   7.064
 5913POPC   C4A74682  19.022  43.896   7.364
 5913POPC   C1B74683  19.256  44.058   6.464
 5913POPC   C2B74684  19.211  44.115   6.764
 5913POPC   C3B74685  19.228  44.110   7.064
 5913POPC   C4B74686  19.226  44.066   7.364
 5914POPC   NC374687  43.152  12.836   5.564
 5914POPC   PO474688  43.074  12.897   5.864
 5914POPC   GL174689  43.101  12.852   6.164
 5914POPC   GL274690  43.192  12.967   6.164
 5914POPC   C1A74691  43.116  12.851   6.464
 5914POPC   D2A74692  43.073  12.819   6.764
 5914POPC   C3A74693  43.085  12.836   7.064
 5914POPC   C4A74694  43.088  12.858   7.364
 5914POPC   C1B74695  43.238  13.058   6.464
 5914POPC   C2B74696  43.278  13.009   6.764
 5914POPC   C3B74697  43.253  13.016   7.064
 5914POPC   C4B74698  43.215  13.022   7.364
 5915POPC   NC374699  10.570  12.079   5.564
 5915POPC   PO474700  10.534  12.046   5.864
 5915POPC   GL174701  10.573  12.105   6.164
 5915POPC   GL274702  10.524  11.932   6.164
 5915POPC   C1A74703  10.540  12.118   6.464
 5915POPC   D2A74704  10.478  12.124   6.764
 5915POPC   C3A74705  10.528  12.069   7.064
 5915POPC   C4A74706  10.505  12.065   7.364
 5915POPC   C1B74707  10.531  11.836   6.464
 5915POPC   C2B74708  10.531  11.852   6.764
 5915POPC   C3B74709  10.550  11.873   7.064
 5915POPC   C4B74710  10.611  11.865   7.364
 5916POPC   NC374711  31.432  28.379   5.564
 5916POPC   PO474712  31.451  28.357   5.864
 5916POPC   GL174713  31.445  28.365   6.164
 5916POPC   GL274714  31.544  28.371   6.164
 5916POPC   C1A74715  31.484  28.327   6.464
 5916POPC   D2A74716  31.474  28.359   6.764
 5916POPC   C3A74717  31.434  28.400   7.064
 5916POPC   C4A74718  31.449  28.380   7.364
 5916POPC   C1B74719  31.739  28.284   6.464
 5916POPC   C2B74720  31.708  28.315   6.764
 5916POPC   C3B74721  31.697  28.300   7.064
 5916POPC   C4B74722  31.724  28.292   7.364
 5917POPC   NC374723  26.082   4.316   5.564
 5917POPC   PO474724  26.000   4.348   5.864
 5917POPC   GL174725  26.048   4.328   6.164
 5917POPC   GL274726  25.932   4.415   6.164
 5917POPC   C1A74727  26.043   4.353   6.464
 5917POPC   D2A74728  26.077   4.352   6.764
 5917POPC   C3A74729  26.070   4.336   7.064
 5917POPC   C4A74730  25.999   4.286   7.364
 5917POPC   C1B74731  25.911   4.507   6.464
 5917POPC   C2B74732  25.888   4.508   6.764
 5917POPC   C3B74733  25.889   4.483   7.064
 5917POPC   C4B74734  25.895   4.555   7.364
 5918POPC   NC374735  10.549  15.173   5.564
 5918POPC   PO474736  10.505  15.215   5.864
 5918POPC   GL174737  10.496  15.165   6.164
 5918POPC   GL274738  10.678  15.147   6.164
 5918POPC   C1A74739  10.476  15.194   6.464
 5918POPC   D2A74740  10.503  15.161   6.764
 5918POPC   C3A74741  10.516  15.205   7.064
 5918POPC   C4A74742  10.541  15.192   7.364
 5918POPC   C1B74743  10.810  15.159   6.464
 5918POPC   C2B74744  10.726  15.185   6.764
 5918POPC   C3B74745  10.815  15.184   7.064
 5918POPC   C4B74746  10.766  15.207   7.364
 5919POPC   NC374747  43.917   0.410   5.564
 5919POPC   PO474748  43.923   0.476   5.864
 5919POPC   GL174749  43.837   0.455   6.164
 5919POPC   GL274750  43.765   0.452   6.164
 5919POPC   C1A74751  43.842   0.469   6.464
 5919POPC   D2A74752  43.888   0.407   6.764
 5919POPC   C3A74753  43.885   0.488   7.064
 5919POPC   C4A74754  43.922   0.422   7.364
 5919POPC   C1B74755  43.650   0.605   6.464
 5919POPC   C2B74756  43.670   0.528   6.764
 5919POPC   C3B74757  43.634   0.522   7.064
 5919POPC   C4B74758  43.634   0.590   7.364
 5920POPC   NC374759   5.139  42.322   5.564
 5920POPC   PO474760   5.082  42.354   5.864
 5920POPC   GL174761   5.048  42.359   6.164
 5920POPC   GL274762   5.169  42.272   6.164
 5920POPC   C1A74763   5.075  42.369   6.464
 5920POPC   D2A74764   5.126  42.357   6.764
 5920POPC   C3A74765   5.098  42.294   7.064
 5920POPC   C4A74766   5.116  42.381   7.364
 5920POPC   C1B74767   5.254  42.220   6.464
 5920POPC   C2B74768   5.317  42.163   6.764
 5920POPC   C3B74769   5.346  42.235   7.064
 5920POPC   C4B74770   5.330  42.157   7.364
 5921POPC   NC374771  16.710  29.153   5.564
 5921POPC   PO474772  16.702  29.120   5.864
 5921POPC   GL174773  16.687  29.164   6.164
 5921POPC   GL274774  16.667  29.282   6.164
 5921POPC   C1A74775  16.772  29.110   6.464
 5921POPC   D2A74776  16.765  29.151   6.764
 5921POPC   C3A74777  16.693  29.105   7.064
 5921POPC   C4A74778  16.731  29.111   7.364
 5921POPC   C1B74779  16.637  29.342   6.464
 5921POPC   C2B74780  16.624  29.387   6.764
 5921POPC   C3B74781  16.650  29.419   7.064
 5921POPC   C4B74782  16.705  29.406   7.364
 5922POPC   NC374783   4.271   4.278   5.564
 5922POPC   PO474784   4.273   4.278   5.864
 5922POPC   GL174785   4.288   4.320   6.164
 5922POPC   GL274786   4.404   4.273   6.164
 5922POPC   C1A74787   4.314   4.356   6.464
 5922POPC   D2A74788   4.302   4.302   6.764
 5922POPC   C3A74789   4.323   4.335   7.064
 5922POPC   C4A74790   4.351   4.297   7.364
 5922POPC   C1B74791   4.550   4.242   6.464
 5922POPC   C2B74792   4.563   4.342   6.764
 5922POPC   C3B74793   4.571   4.296   7.064
 5922POPC   C4B74794   4.556   4.336   7.364
 5923POPC   NC374795  15.971  43.127   5.564
 5923POPC   PO474796  15.994  43.079   5.864
 5923POPC   GL174797  15.960  43.084   6.164
 5923POPC   GL274798  15.926  43.032   6.164
 5923POPC   C1A74799  15.938  43.076   6.464
 5923POPC   D2A74800  15.996  43.092   6.764
 5923POPC   C3A74801  15.915  43.103   7.064
 5923POPC   C4A74802  15.966  43.140   7.364
 5923POPC   C1B74803  15.901  42.894   6.464
 5923POPC   C2B74804  15.910  42.831   6.764
 5923POPC   C3B74805  15.855  42.840   7.064
 5923POPC   C4B74806  15.844  42.843   7.364
 5924POPC   NC374807  42.346  30.706   5.564
 5924POPC   PO474808  42.378  30.695   5.864
 5924POPC   GL174809  42.323  30.699   6.164
 5924POPC   GL274810  42.298  30.792   6.164
 5924POPC   C1A74811  42.339  30.714   6.464
 5924POPC   D2A74812  42.380  30.699   6.764
 5924POPC   C3A74813  42.362  30.648   7.064
 5924POPC   C4A74814  42.342  30.733   7.364
 5924POPC   C1B74815  42.309  30.981   6.464
 5924POPC   C2B74816  42.325  30.905   6.764
 5924POPC   C3B74817  42.343  30.943   7.064
 5924POPC   C4B74818  42.323  30.968   7.364
 5925POPC   NC374819  34.609  43.072   5.564
 5925POPC   PO474820  34.612  43.119   5.864
 5925POPC   GL174821  34.534  43.109   6.164
 5925POPC   GL274822  34.431  43.096   6.164
 5925POPC   C1A74823  34.527  43.096   6.464
 5925POPC   D2A74824  34.624  43.156   6.764
 5925POPC   C3A74825  34.557  43.128   7.064
 5925POPC   C4A74826  34.591  43.111   7.364
 5925POPC   C1B74827  34.324  43.085   6.464
 5925POPC   C2B74828  34.359  43.149   6.764
 5925POPC   C3B74829  34.361  43.088   7.064
 5925POPC   C4B74830  34.290  43.104   7.364
 5926POPC   NC374831   1.205  23.749   5.564
 5926POPC   PO474832   1.172  23.696   5.864
 5926POPC   GL174833   1.179  23.727   6.164
 5926POPC   GL274834   1.087  23.715   6.164
 5926POPC   C1A74835   1.243  23.699   6.464
 5926POPC   D2A74836   1.241  23.701   6.764
 5926POPC   C3A74837   1.165  23.755   7.064
 5926POPC   C4A74838   1.206  23.715   7.364
 5926POPC   C1B74839   0.949  23.800   6.464
 5926POPC   C2B74840   0.948  23.737   6.764
 5926POPC   C3B74841   0.974  23.801   7.064
 5926POPC   C4B74842   0.982  23.714   7.364
 5927POPC   NC374843  12.874  24.487   5.564
 5927POPC   PO474844  12.808  24.510   5.864
 5927POPC   GL174845  12.883  24.463   6.164
 5927POPC   GL274846  12.716  24.515   6.164
 5927POPC   C1A74847  12.807  24.483   6.464
 5927POPC   D2A74848  12.879  24.522   6.764
 5927POPC   C3A74849  12.806  24.456   7.064
 5927POPC   C4A74850  12.855  24.537   7.364
 5927POPC   C1B74851  12.603  24.558   6.464
 5927POPC   C2B74852  12.639  24.570   6.764
 5927POPC   C3B74853  12.562  24.538   7.064
 5927POPC   C4B74854  12.614  24.591   7.364
 5928POPC   NC374855  10.531   8.184   5.564
 5928POPC   PO474856  10.556   8.224   5.864
 5928POPC   GL174857  10.557   8.196   6.164
 5928POPC   GL274858  10.646   8.248   6.164
 5928POPC   C1A74859  10.551   8.242   6.464
 5928POPC   D2A74860  10.504   8.178   6.764
 5928POPC   C3A74861  10.495   8.179   7.064
 5928POPC   C4A74862  10.524   8.227   7.364
 5928POPC   C1B74863  10.708   8.368   6.464
 5928POPC   C2B74864  10.646   8.355   6.764
 5928POPC   C3B74865  10.684   8.423   7.064
 5928POPC   C4B74866  10.737   8.417   7.364
 5929POPC   NC374867  19.860   4.357   5.564
 5929POPC   PO474868  19.812   4.352   5.864
 5929POPC   GL174869  19.797   4.273   6.164
 5929POPC   GL274870  19.928   4.250   6.164
 5929POPC   C1A74871  19.824   4.331   6.464
 5929POPC   D2A74872  19.792   4.327   6.764
 5929POPC   C3A74873  19.811   4.323   7.064
 5929POPC   C4A74874  19.863   4.337   7.364
 5929POPC   C1B74875  20.010   4.102   6.464
 5929POPC   C2B74876  20.044   4.166   6.764
 5929POPC   C3B74877  20.029   4.147   7.064
 5929POPC   C4B74878  20.039   4.151   7.364
 5930POPC   NC374879  34.589   1.988   5.564
 5930POPC   PO474880  34.558   2.025   5.864
 5930POPC   GL174881  34.560   2.023   6.164
 5930POPC   GL274882  34.570   1.892   6.164
 5930POPC   C1A74883  34.531   2.013   6.464
 5930POPC   D2A74884  34.553   2.007   6.764
 5930POPC   C3A74885  34.574   1.942   7.064
 5930POPC   C4A74886  34.624   1.951   7.364
 5930POPC   C1B74887  34.551   1.719   6.464
 5930POPC   C2B74888  34.499   1.750   6.764
 5930POPC   C3B74889  34.522   1.790   7.064
 5930POPC   C4B74890  34.580   1.715   7.364
 5931POPC   NC374891  14.381  40.822   5.564
 5931POPC   PO474892  14.390  40.754   5.864
 5931POPC   GL174893  14.441  40.809   6.164
 5931POPC   GL274894  14.237  40.838   6.164
 5931POPC   C1A74895  14.411  40.744   6.464
 5931POPC   D2A74896  14.418  40.806   6.764
 5931POPC   C3A74897  14.382  40.814   7.064
 5931POPC   C4A74898  14.386  40.795   7.364
 5931POPC   C1B74899  14.173  40.866   6.464
 5931POPC   C2B74900  14.151  40.825   6.764
 5931POPC   C3B74901  14.154  40.812   7.064
 5931POPC   C4B74902  14.171  40.811   7.364
 5932POPC   NC374903   1.246   0.475   5.564
 5932POPC   PO474904   1.241   0.411   5.864
 5932POPC   GL174905   1.215   0.409   6.164
 5932POPC   GL274906   1.137   0.537   6.164
 5932POPC   C1A74907   1.213   0.397   6.464
 5932POPC   D2A74908   1.245   0.470   6.764
 5932POPC   C3A74909   1.212   0.435   7.064
 5932POPC   C4A74910   1.172   0.434   7.364
 5932POPC   C1B74911   1.074   0.624   6.464
 5932POPC   C2B74912   1.084   0.591   6.764
 5932POPC   C3B74913   1.061   0.605   7.064
 5932POPC   C4B74914   1.017   0.631   7.364
 5933POPC   NC374915  36.871  43.865   5.564
 5933POPC   PO474916  36.927  43.868   5.864
 5933POPC   GL174917  36.937  43.873   6.164
 5933POPC   GL274918  36.796  43.737   6.164
 5933POPC   C1A74919  36.896  43.931   6.464
 5933POPC   D2A74920  36.895  43.928   6.764
 5933POPC   C3A74921  36.944  43.858   7.064
 5933POPC   C4A74922  36.933  43.874   7.364
 5933POPC   C1B74923  36.784  43.714   6.464
 5933POPC   C2B74924  36.750  43.728   6.764
 5933POPC   C3B74925  36.804  43.671   7.064
 5933POPC   C4B74926  36.795  43.638   7.364
 5934POPC   NC374927  26.832  44.665   5.564
 5934POPC   PO474928  26.808  44.657   5.864
 5934POPC   GL174929  26.781  44.668   6.164
 5934POPC   GL274930  26.750  44.749   6.164
 5934POPC   C1A74931  26.861  44.624   6.464
 5934POPC   D2A74932  26.864  44.665   6.764
 5934POPC   C3A74933  26.825  44.644   7.064
 5934POPC   C4A74934  26.799  44.699   7.364
 5934POPC   C1B74935  26.668  44.824   6.464
 5934POPC   C2B74936  26.609  44.891   6.764
 5934POPC   C3B74937  26.704  44.810   7.064
 5934POPC   C4B74938  26.638  44.831   7.364
 5935POPC   NC374939  40.029   5.862   5.564
 5935POPC   PO474940  40.035   5.867   5.864
 5935POPC   GL174941  39.967   5.912   6.164
 5935POPC   GL274942  40.084   5.876   6.164
 5935POPC   C1A74943  39.964   5.891   6.464
 5935POPC   D2A74944  40.023   5.900   6.764
 5935POPC   C3A74945  39.980   5.851   7.064
 5935POPC   C4A74946  39.988   5.901   7.364
 5935POPC   C1B74947  40.235   5.921   6.464
 5935POPC   C2B74948  40.295   5.877   6.764
 5935POPC   C3B74949  40.245   5.862   7.064
 5935POPC   C4B74950  40.213   5.921   7.364
 5936POPC   NC374951   2.779  18.309   5.564
 5936POPC   PO474952   2.778  18.276   5.864
 5936POPC   GL174953   2.802  18.243   6.164
 5936POPC   GL274954   2.707  18.444   6.164
 5936POPC   C1A74955   2.739  18.262   6.464
 5936POPC   D2A74956   2.740  18.315   6.764
 5936POPC   C3A74957   2.746  18.253   7.064
 5936POPC   C4A74958   2.753  18.257   7.364
 5936POPC   C1B74959   2.706  18.495   6.464
 5936POPC   C2B74960   2.684  18.566   6.764
 5936POPC   C3B74961   2.751  18.541   7.064
 5936POPC   C4B74962   2.685  18.505   7.364
 5937POPC   NC374963  38.407  26.036   5.564
 5937POPC   PO474964  38.462  26.024   5.864
 5937POPC   GL174965  38.441  26.014   6.164
 5937POPC   GL274966  38.457  26.125   6.164
 5937POPC   C1A74967  38.415  26.071   6.464
 5937POPC   D2A74968  38.460  25.997   6.764
 5937POPC   C3A74969  38.414  26.004   7.064
 5937POPC   C4A74970  38.429  26.029   7.364
 5937POPC   C1B74971  38.539  26.301   6.464
 5937POPC   C2B74972  38.584  26.275   6.764
 5937POPC   C3B74973  38.557  26.285   7.064
 5937POPC   C4B74974  38.585  26.225   7.364
 5938POPC   NC374975  43.103  14.393   5.564
 5938POPC   PO474976  43.079  14.440   5.864
 5938POPC   GL174977  43.089  14.435   6.164
 5938POPC   GL274978  43.026  14.410   6.164
 5938POPC   C1A74979  43.069  14.427   6.464
 5938POPC   D2A74980  43.072  14.403   6.764
 5938POPC   C3A74981  43.130  14.447   7.064
 5938POPC   C4A74982  43.105  14.362   7.364
 5938POPC   C1B74983  42.871  14.428   6.464
 5938POPC   C2B74984  42.861  14.359   6.764
 5938POPC   C3B74985  42.835  14.361   7.064
 5938POPC   C4B74986  42.825  14.394   7.364
 5939POPC   NC374987  25.224   3.557   5.564
 5939POPC   PO474988  25.272   3.512   5.864
 5939POPC   GL174989  25.263   3.589   6.164
 5939POPC   GL274990  25.240   3.400   6.164
 5939POPC   C1A74991  25.272   3.509   6.464
 5939POPC   D2A74992  25.256   3.552   6.764
 5939POPC   C3A74993  25.246   3.520   7.064
 5939POPC   C4A74994  25.291   3.562   7.364
 5939POPC   C1B74995  25.314   3.293   6.464
 5939POPC   C2B74996  25.310   3.332   6.764
 5939POPC   C3B74997  25.264   3.266   7.064
 5939POPC   C4B74998  25.271   3.263   7.364
 5940POPC   NC374999  11.275  37.697   5.564
 5940POPC   PO475000  11.261  37.704   5.864
 5940POPC   GL175001  11.303  37.719   6.164
 5940POPC   GL275002  11.134  37.707   6.164
 5940POPC   C1A75003  11.319  37.696   6.464
 5940POPC   D2A75004  11.323  37.722   6.764
 5940POPC   C3A75005  11.324  37.687   7.064
 5940POPC   C4A75006  11.269  37.719   7.364
 5940POPC   C1B75007  11.069  37.714   6.464
 5940POPC   C2B75008  11.011  37.668   6.764
 5940POPC   C3B75009  11.006  37.738   7.064
 5940POPC   C4B75010  11.017  37.725   7.364
 5941POPC   NC375011  36.902  43.122   5.564
 5941POPC   PO475012  36.947  43.115   5.864
 5941POPC   GL175013  36.926  43.081   6.164
 5941POPC   GL275014  36.759  43.189   6.164
 5941POPC   C1A75015  36.855  43.091   6.464
 5941POPC   D2A75016  36.929  43.062   6.764
 5941POPC   C3A75017  36.924  43.081   7.064
 5941POPC   C4A75018  36.868  43.117   7.364
 5941POPC   C1B75019  36.722  43.288   6.464
 5941POPC   C2B75020  36.738  43.269   6.764
 5941POPC   C3B75021  36.718  43.248   7.064
 5941POPC   C4B75022  36.703  43.304   7.364
 5942POPC   NC375023  33.842   3.579   5.564
 5942POPC   PO475024  33.838   3.494   5.864
 5942POPC   GL175025  33.760   3.590   6.164
 5942POPC   GL275026  33.925   3.465   6.164
 5942POPC   C1A75027  33.796   3.537   6.464
 5942POPC   D2A75028  33.799   3.502   6.764
 5942POPC   C3A75029  33.770   3.514   7.064
 5942POPC   C4A75030  33.806   3.510   7.364
 5942POPC   C1B75031  33.970   3.372   6.464
 5942POPC   C2B75032  33.989   3.342   6.764
 5942POPC   C3B75033  34.000   3.383   7.064
 5942POPC   C4B75034  33.953   3.330   7.364
 5943POPC   NC375035   0.470  33.778   5.564
 5943POPC   PO475036   0.400  33.784   5.864
 5943POPC   GL175037   0.411  33.803   6.164
 5943POPC   GL275038   0.525  33.890   6.164
 5943POPC   C1A75039   0.427  33.771   6.464
 5943POPC   D2A75040   0.477  33.840   6.764
 5943POPC   C3A75041   0.401  33.771   7.064
 5943POPC   C4A75042   0.432  33.772   7.364
 5943POPC   C1B75043   0.569  33.996   6.464
 5943POPC   C2B75044   0.546  34.049   6.764
 5943POPC   C3B75045   0.586  33.967   7.064
 5943POPC   C4B75046   0.587  34.007   7.364
 5944POPC   NC375047  11.259  22.893   5.564
 5944POPC   PO475048  11.269  22.970   5.864
 5944POPC   GL175049  11.303  22.910   6.164
 5944POPC   GL275050  11.258  22.868   6.164
 5944POPC   C1A75051  11.306  22.914   6.464
 5944POPC   D2A75052  11.267  22.987   6.764
 5944POPC   C3A75053  11.284  22.985   7.064
 5944POPC   C4A75054  11.275  22.948   7.364
 5944POPC   C1B75055  11.188  22.757   6.464
 5944POPC   C2B75056  11.159  22.773   6.764
 5944POPC   C3B75057  11.142  22.776   7.064
 5944POPC   C4B75058  11.117  22.741   7.364
 5945POPC   NC375059  42.296   9.730   5.564
 5945POPC   PO475060  42.337   9.700   5.864
 5945POPC   GL175061  42.298   9.744   6.164
 5945POPC   GL275062  42.334   9.663   6.164
 5945POPC   C1A75063  42.289   9.732   6.464
 5945POPC   D2A75064  42.368   9.716   6.764
 5945POPC   C3A75065  42.300   9.698   7.064
 5945POPC   C4A75066  42.347   9.739   7.364
 5945POPC   C1B75067  42.218   9.519   6.464
 5945POPC   C2B75068  42.289   9.467   6.764
 5945POPC   C3B75069  42.269   9.485   7.064
 5945POPC   C4B75070  42.225   9.469   7.364
 5946POPC   NC375071  12.850  25.287   5.564
 5946POPC   PO475072  12.879  25.221   5.864
 5946POPC   GL175073  12.884  25.296   6.164
 5946POPC   GL275074  12.944  25.275   6.164
 5946POPC   C1A75075  12.877  25.273   6.464
 5946POPC   D2A75076  12.872  25.309   6.764
 5946POPC   C3A75077  12.875  25.219   7.064
 5946POPC   C4A75078  12.832  25.303   7.364
 5946POPC   C1B75079  13.089  25.242   6.464
 5946POPC   C2B75080  13.110  25.275   6.764
 5946POPC   C3B75081  13.140  25.262   7.064
 5946POPC   C4B75082  13.093  25.256   7.364
 5947POPC   NC375083  25.262   2.748   5.564
 5947POPC   PO475084  25.273   2.733   5.864
 5947POPC   GL175085  25.292   2.809   6.164
 5947POPC   GL275086  25.224   2.662   6.164
 5947POPC   C1A75087  25.257   2.780   6.464
 5947POPC   D2A75088  25.302   2.778   6.764
 5947POPC   C3A75089  25.227   2.792   7.064
 5947POPC   C4A75090  25.234   2.771   7.364
 5947POPC   C1B75091  25.163   2.557   6.464
 5947POPC   C2B75092  25.211   2.498   6.764
 5947POPC   C3B75093  25.203   2.538   7.064
 5947POPC   C4B75094  25.230   2.486   7.364
 5948POPC   NC375095   0.481   3.528   5.564
 5948POPC   PO475096   0.476   3.496   5.864
 5948POPC   GL175097   0.422   3.497   6.164
 5948POPC   GL275098   0.401   3.389   6.164
 5948POPC   C1A75099   0.437   3.493   6.464
 5948POPC   D2A75100   0.473   3.539   6.764
 5948POPC   C3A75101   0.425   3.546   7.064
 5948POPC   C4A75102   0.395   3.581   7.364
 5948POPC   C1B75103   0.338   3.277   6.464
 5948POPC   C2B75104   0.271   3.295   6.764
 5948POPC   C3B75105   0.274   3.337   7.064
 5948POPC   C4B75106   0.310   3.369   7.364
 5949POPC   NC375107  35.332  10.573   5.564
 5949POPC   PO475108  35.396  10.532   5.864
 5949POPC   GL175109  35.330  10.541   6.164
 5949POPC   GL275110  35.504  10.570   6.164
 5949POPC   C1A75111  35.383  10.561   6.464
 5949POPC   D2A75112  35.372  10.494   6.764
 5949POPC   C3A75113  35.368  10.477   7.064
 5949POPC   C4A75114  35.344  10.570   7.364
 5949POPC   C1B75115  35.570  10.515   6.464
 5949POPC   C2B75116  35.579  10.486   6.764
 5949POPC   C3B75117  35.618  10.521   7.064
 5949POPC   C4B75118  35.577  10.508   7.364
 5950POPC   NC375119  15.227  36.096   5.564
 5950POPC   PO475120  15.179  36.152   5.864
 5950POPC   GL175121  15.162  36.093   6.164
 5950POPC   GL275122  15.152  36.005   6.164
 5950POPC   C1A75123  15.192  36.177   6.464
 5950POPC   D2A75124  15.143  36.142   6.764
 5950POPC   C3A75125  15.155  36.144   7.064
 5950POPC   C4A75126  15.181  36.147   7.364
 5950POPC   C1B75127  15.022  35.927   6.464
 5950POPC   C2B75128  15.022  35.899   6.764
 5950POPC   C3B75129  15.015  35.898   7.064
 5950POPC   C4B75130  15.103  35.925   7.364
 5951POPC   NC375131  10.520  27.582   5.564
 5951POPC   PO475132  10.574  27.582   5.864
 5951POPC   GL175133  10.493  27.569   6.164
 5951POPC   GL275134  10.379  27.597   6.164
 5951POPC   C1A75135  10.572  27.573   6.464
 5951POPC   D2A75136  10.538  27.588   6.764
 5951POPC   C3A75137  10.494  27.584   7.064
 5951POPC   C4A75138  10.476  27.543   7.364
 5951POPC   C1B75139  10.309  27.554   6.464
 5951POPC   C2B75140  10.295  27.592   6.764
 5951POPC   C3B75141  10.261  27.587   7.064
 5951POPC   C4B75142  10.270  27.632   7.364
 5952POPC   NC375143  33.761  10.505   5.564
 5952POPC   PO475144  33.780  10.494   5.864
 5952POPC   GL175145  33.770  10.478   6.164
 5952POPC   GL275146  33.829  10.640   6.164
 5952POPC   C1A75147  33.817  10.506   6.464
 5952POPC   D2A75148  33.750  10.508   6.764
 5952POPC   C3A75149  33.839  10.568   7.064
 5952POPC   C4A75150  33.816  10.503   7.364
 5952POPC   C1B75151  33.904  10.741   6.464
 5952POPC   C2B75152  33.821  10.763   6.764
 5952POPC   C3B75153  33.818  10.787   7.064
 5952POPC   C4B75154  33.910  10.774   7.364
 5953POPC   NC375155   1.169  41.543   5.564
 5953POPC   PO475156   1.231  41.588   5.864
 5953POPC   GL175157   1.254  41.587   6.164
 5953POPC   GL275158   1.175  41.466   6.164
 5953POPC   C1A75159   1.196  41.527   6.464
 5953POPC   D2A75160   1.169  41.529   6.764
 5953POPC   C3A75161   1.225  41.527   7.064
 5953POPC   C4A75162   1.214  41.601   7.364
 5953POPC   C1B75163   1.223  41.347   6.464
 5953POPC   C2B75164   1.213  41.355   6.764
 5953POPC   C3B75165   1.211  41.263   7.064
 5953POPC   C4B75166   1.213  41.274   7.364
 5954POPC   NC375167   3.528  32.199   5.564
 5954POPC   PO475168   3.517  32.293   5.864
 5954POPC   GL175169   3.506  32.236   6.164
 5954POPC   GL275170   3.531  32.401   6.164
 5954POPC   C1A75171   3.497  32.294   6.464
 5954POPC   D2A75172   3.527  32.248   6.764
 5954POPC   C3A75173   3.558  32.282   7.064
 5954POPC   C4A75174   3.576  32.218   7.364
 5954POPC   C1B75175   3.510  32.452   6.464
 5954POPC   C2B75176   3.522  32.517   6.764
 5954POPC   C3B75177   3.575  32.473   7.064
 5954POPC   C4B75178   3.520  32.453   7.364
 5955POPC   NC375179  32.233  25.306   5.564
 5955POPC   PO475180  32.278  25.232   5.864
 5955POPC   GL175181  32.249  25.268   6.164
 5955POPC   GL275182  32.308  25.356   6.164
 5955POPC   C1A75183  32.246  25.220   6.464
 5955POPC   D2A75184  32.213  25.231   6.764
 5955POPC   C3A75185  32.292  25.310   7.064
 5955POPC   C4A75186  32.247  25.230   7.364
 5955POPC   C1B75187  32.419  25.487   6.464
 5955POPC   C2B75188  32.357  25.421   6.764
 5955POPC   C3B75189  32.379  25.479   7.064
 5955POPC   C4B75190  32.424  25.479   7.364
 5956POPC   NC375191  22.891  27.558   5.564
 5956POPC   PO475192  22.976  27.570   5.864
 5956POPC   GL175193  22.988  27.631   6.164
 5956POPC   GL275194  22.921  27.697   6.164
 5956POPC   C1A75195  22.974  27.581   6.464
 5956POPC   D2A75196  22.892  27.599   6.764
 5956POPC   C3A75197  22.901  27.582   7.064
 5956POPC   C4A75198  22.922  27.561   7.364
 5956POPC   C1B75199  22.862  27.776   6.464
 5956POPC   C2B75200  22.766  27.793   6.764
 5956POPC   C3B75201  22.778  27.843   7.064
 5956POPC   C4B75202  22.778  27.795   7.364
 5957POPC   NC375203  15.204   5.077   5.564
 5957POPC   PO475204  15.179   5.102   5.864
 5957POPC   GL175205  15.170   5.130   6.164
 5957POPC   GL275206  15.243   4.976   6.164
 5957POPC   C1A75207  15.195   5.062   6.464
 5957POPC   D2A75208  15.188   5.083   6.764
 5957POPC   C3A75209  15.162   5.092   7.064
 5957POPC   C4A75210  15.215   5.074   7.364
 5957POPC   C1B75211  15.242   4.909   6.464
 5957POPC   C2B75212  15.255   4.819   6.764
 5957POPC   C3B75213  15.329   4.824   7.064
 5957POPC   C4B75214  15.290   4.896   7.364
 5958POPC   NC375215  15.160  29.178   5.564
 5958POPC   PO475216  15.221  29.123   5.864
 5958POPC   GL175217  15.191  29.190   6.164
 5958POPC   GL275218  15.257  29.228   6.164
 5958POPC   C1A75219  15.169  29.098   6.464
 5958POPC   D2A75220  15.222  29.114   6.764
 5958POPC   C3A75221  15.198  29.186   7.064
 5958POPC   C4A75222  15.155  29.175   7.364
 5958POPC   C1B75223  15.290  29.401   6.464
 5958POPC   C2B75224  15.242  29.350   6.764
 5958POPC   C3B75225  15.260  29.425   7.064
 5958POPC   C4B75226  15.272  29.397   7.364
 5959POPC   NC375227  15.150  16.776   5.564
 5959POPC   PO475228  15.190  16.753   5.864
 5959POPC   GL175229  15.155  16.753   6.164
 5959POPC   GL275230  15.043  16.780   6.164
 5959POPC   C1A75231  15.223  16.691   6.464
 5959POPC   D2A75232  15.160  16.693   6.764
 5959POPC   C3A75233  15.217  16.762   7.064
 5959POPC   C4A75234  15.196  16.693   7.364
 5959POPC   C1B75235  14.947  16.903   6.464
 5959POPC   C2B75236  14.939  16.824   6.764
 5959POPC   C3B75237  14.956  16.859   7.064
 5959POPC   C4B75238  14.933  16.866   7.364
 5960POPC   NC375239   3.588   3.573   5.564
 5960POPC   PO475240   3.558   3.560   5.864
 5960POPC   GL175241   3.572   3.552   6.164
 5960POPC   GL275242   3.459   3.692   6.164
 5960POPC   C1A75243   3.505   3.585   6.464
 5960POPC   D2A75244   3.586   3.526   6.764
 5960POPC   C3A75245   3.538   3.512   7.064
 5960POPC   C4A75246   3.501   3.552   7.364
 5960POPC   C1B75247   3.438   3.807   6.464
 5960POPC   C2B75248   3.421   3.763   6.764
 5960POPC   C3B75249   3.457   3.749   7.064
 5960POPC   C4B75250   3.477   3.800   7.364
 5961POPC   NC375251  26.819  12.844   5.564
 5961POPC   PO475252  26.787  12.871   5.864
 5961POPC   GL175253  26.791  12.899   6.164
 5961POPC   GL275254  26.876  12.933   6.164
 5961POPC   C1A75255  26.805  12.861   6.464
 5961POPC   D2A75256  26.820  12.873   6.764
 5961POPC   C3A75257  26.773  12.851   7.064
 5961POPC   C4A75258  26.769  12.897   7.364
 5961POPC   C1B75259  26.936  13.113   6.464
 5961POPC   C2B75260  26.934  13.126   6.764
 5961POPC   C3B75261  26.921  13.102   7.064
 5961POPC   C4B75262  26.937  13.069   7.364
 5962POPC   NC375263  26.784  26.034   5.564
 5962POPC   PO475264  26.771  26.004   5.864
 5962POPC   GL175265  26.784  26.027   6.164
 5962POPC   GL275266  26.755  25.950   6.164
 5962POPC   C1A75267  26.863  26.004   6.464
 5962POPC   D2A75268  26.824  26.004   6.764
 5962POPC   C3A75269  26.858  26.067   7.064
 5962POPC   C4A75270  26.785  26.047   7.364
 5962POPC   C1B75271  26.687  25.786   6.464
 5962POPC   C2B75272  26.677  25.809   6.764
 5962POPC   C3B75273  26.673  25.793   7.064
 5962POPC   C4B75274  26.670  25.820   7.364
 5963POPC   NC375275  26.817  29.101   5.564
 5963POPC   PO475276  26.841  29.179   5.864
 5963POPC   GL175277  26.833  29.103   6.164
 5963POPC   GL275278  26.690  29.161   6.164
 5963POPC   C1A75279  26.840  29.141   6.464
 5963POPC   D2A75280  26.774  29.188   6.764
 5963POPC   C3A75281  26.781  29.147   7.064
 5963POPC   C4A75282  26.845  29.172   7.364
 5963POPC   C1B75283  26.535  29.155   6.464
 5963POPC   C2B75284  26.532  29.169   6.764
 5963POPC   C3B75285  26.546  29.173   7.064
 5963POPC   C4B75286  26.536  29.154   7.364
 5964POPC   NC375287  41.577  32.230   5.564
 5964POPC   PO475288  41.578  32.259   5.864
 5964POPC   GL175289  41.553  32.294   6.164
 5964POPC   GL275290  41.531  32.343   6.164
 5964POPC   C1A75291  41.581  32.206   6.464
 5964POPC   D2A75292  41.567  32.252   6.764
 5964POPC   C3A75293  41.537  32.268   7.064
 5964POPC   C4A75294  41.562  32.266   7.364
 5964POPC   C1B75295  41.526  32.503   6.464
 5964POPC   C2B75296  41.498  32.519   6.764
 5964POPC   C3B75297  41.465  32.517   7.064
 5964POPC   C4B75298  41.492  32.468   7.364
 5965POPC   NC375299   9.778  12.816   5.564
 5965POPC   PO475300   9.752  12.859   5.864
 5965POPC   GL175301   9.746  12.822   6.164
 5965POPC   GL275302   9.885  12.765   6.164
 5965POPC   C1A75303   9.713  12.848   6.464
 5965POPC   D2A75304   9.715  12.868   6.764
 5965POPC   C3A75305   9.777  12.852   7.064
 5965POPC   C4A75306   9.741  12.876   7.364
 5965POPC   C1B75307   9.963  12.705   6.464
 5965POPC   C2B75308   9.978  12.730   6.764
 5965POPC   C3B75309   9.984  12.716   7.064
 5965POPC   C4B75310   9.902  12.688   7.364
 5966POPC   NC375311  17.489  35.365   5.564
 5966POPC   PO475312  17.511  35.397   5.864
 5966POPC   GL175313  17.460  35.310   6.164
 5966POPC   GL275314  17.596  35.216   6.164
 5966POPC   C1A75315  17.531  35.342   6.464
 5966POPC   D2A75316  17.541  35.369   6.764
 5966POPC   C3A75317  17.474  35.339   7.064
 5966POPC   C4A75318  17.528  35.308   7.364
 5966POPC   C1B75319  17.605  35.132   6.464
 5966POPC   C2B75320  17.634  35.119   6.764
 5966POPC   C3B75321  17.631  35.116   7.064
 5966POPC   C4B75322  17.610  35.072   7.364
 5967POPC   NC375323   2.768  13.665   5.564
 5967POPC   PO475324   2.758  13.633   5.864
 5967POPC   GL175325   2.815  13.657   6.164
 5967POPC   GL275326   2.706  13.545   6.164
 5967POPC   C1A75327   2.787  13.593   6.464
 5967POPC   D2A75328   2.802  13.666   6.764
 5967POPC   C3A75329   2.789  13.590   7.064
 5967POPC   C4A75330   2.730  13.615   7.364
 5967POPC   C1B75331   2.695  13.339   6.464
 5967POPC   C2B75332   2.680  13.388   6.764
 5967POPC   C3B75333   2.694  13.369   7.064
 5967POPC   C4B75334   2.758  13.429   7.364
 5968POPC   NC375335  18.273   5.877   5.564
 5968POPC   PO475336  18.288   5.860   5.864
 5968POPC   GL175337  18.289   5.872   6.164
 5968POPC   GL275338  18.212   5.741   6.164
 5968POPC   C1A75339  18.240   5.880   6.464
 5968POPC   D2A75340  18.268   5.823   6.764
 5968POPC   C3A75341  18.307   5.833   7.064
 5968POPC   C4A75342  18.302   5.844   7.364
 5968POPC   C1B75343  18.130   5.648   6.464
 5968POPC   C2B75344  18.165   5.649   6.764
 5968POPC   C3B75345  18.152   5.648   7.064
 5968POPC   C4B75346  18.160   5.667   7.364
 5969POPC   NC375347  16.721  23.709   5.564
 5969POPC   PO475348  16.750  23.705   5.864
 5969POPC   GL175349  16.685  23.689   6.164
 5969POPC   GL275350  16.821  23.799   6.164
 5969POPC   C1A75351  16.695  23.734   6.464
 5969POPC   D2A75352  16.755  23.730   6.764
 5969POPC   C3A75353  16.762  23.748   7.064
 5969POPC   C4A75354  16.762  23.760   7.364
 5969POPC   C1B75355  16.793  23.963   6.464
 5969POPC   C2B75356  16.879  23.973   6.764
 5969POPC   C3B75357  16.801  23.909   7.064
 5969POPC   C4B75358  16.868  23.970   7.364
 5970POPC   NC375359  19.806  35.394   5.564
 5970POPC   PO475360  19.847  35.392   5.864
 5970POPC   GL175361  19.796  35.343   6.164
 5970POPC   GL275362  19.818  35.222   6.164
 5970POPC   C1A75363  19.837  35.392   6.464
 5970POPC   D2A75364  19.788  35.393   6.764
 5970POPC   C3A75365  19.788  35.357   7.064
 5970POPC   C4A75366  19.830  35.398   7.364
 5970POPC   C1B75367  19.790  35.152   6.464
 5970POPC   C2B75368  19.852  35.063   6.764
 5970POPC   C3B75369  19.848  35.138   7.064
 5970POPC   C4B75370  19.852  35.127   7.364
 5971POPC   NC375371   9.704  17.499   5.564
 5971POPC   PO475372   9.788  17.506   5.864
 5971POPC   GL175373   9.784  17.528   6.164
 5971POPC   GL275374   9.608  17.519   6.164
 5971POPC   C1A75375   9.700  17.495   6.464
 5971POPC   D2A75376   9.768  17.513   6.764
 5971POPC   C3A75377   9.776  17.497   7.064
 5971POPC   C4A75378   9.778  17.486   7.364
 5971POPC   C1B75379   9.464  17.483   6.464
 5971POPC   C2B75380   9.457  17.479   6.764
 5971POPC   C3B75381   9.540  17.495   7.064
 5971POPC   C4B75382   9.528  17.487   7.364
 5972POPC   NC375383  11.305  34.595   5.564
 5972POPC   PO475384  11.272  34.613   5.864
 5972POPC   GL175385  11.310  34.620   6.164
 5972POPC   GL275386  11.207  34.722   6.164
 5972POPC   C1A75387  11.309  34.538   6.464
 5972POPC   D2A75388  11.301  34.598   6.764
 5972POPC   C3A75389  11.268  34.588   7.064
 5972POPC   C4A75390  11.298  34.624   7.364
 5972POPC   C1B75391  11.194  34.780   6.464
 5972POPC   C2B75392  11.169  34.729   6.764
 5972POPC   C3B75393  11.169  34.811   7.064
 5972POPC   C4B75394  11.148  34.722   7.364
 5973POPC   NC375395  44.703  14.435   5.564
 5973POPC   PO475396  44.702  14.387   5.864
 5973POPC   GL175397  44.635  14.431   6.164
 5973POPC   GL275398  44.532  14.450   6.164
 5973POPC   C1A75399  44.615  14.450   6.464
 5973POPC   D2A75400  44.638  14.444   6.764
 5973POPC   C3A75401  44.639  14.401   7.064
 5973POPC   C4A75402  44.629  14.385   7.364
 5973POPC   C1B75403  44.495  14.616   6.464
 5973POPC   C2B75404  44.474  14.544   6.764
 5973POPC   C3B75405  44.476  14.626   7.064
 5973POPC   C4B75406  44.511  14.585   7.364
 5974POPC   NC375407  44.681  27.548   5.564
 5974POPC   PO475408  44.620  27.604   5.864
 5974POPC   GL175409  44.617  27.578   6.164
 5974POPC   GL275410  44.779  27.523   6.164
 5974POPC   C1A75411  44.667  27.632   6.464
 5974POPC   D2A75412  44.692  27.577   6.764
 5974POPC   C3A75413  44.654  27.581   7.064
 5974POPC   C4A75414  44.677  27.555   7.364
 5974POPC   C1B75415  44.948  27.572   6.464
 5974POPC   C2B75416  44.906  27.542   6.764
 5974POPC   C3B75417  44.926  27.571   7.064
 5974POPC   C4B75418  44.872  27.566   7.364
 5975POPC   NC375419  10.565  32.243   5.564
 5975POPC   PO475420  10.553  32.252   5.864
 5975POPC   GL175421  10.517  32.266   6.164
 5975POPC   GL275422  10.439  32.256   6.164
 5975POPC   C1A75423  10.501  32.270   6.464
 5975POPC   D2A75424  10.568  32.218   6.764
 5975POPC   C3A75425  10.520  32.216   7.064
 5975POPC   C4A75426  10.566  32.269   7.364
 5975POPC   C1B75427  10.236  32.309   6.464
 5975POPC   C2B75428  10.297  32.221   6.764
 5975POPC   C3B75429  10.309  32.229   7.064
 5975POPC   C4B75430  10.269  32.261   7.364
 5976POPC   NC375431  15.207  28.410   5.564
 5976POPC   PO475432  15.136  28.339   5.864
 5976POPC   GL175433  15.223  28.319   6.164
 5976POPC   GL275434  15.282  28.389   6.164
 5976POPC   C1A75435  15.187  28.338   6.464
 5976POPC   D2A75436  15.222  28.371   6.764
 5976POPC   C3A75437  15.144  28.418   7.064
 5976POPC   C4A75438  15.224  28.377   7.364
 5976POPC   C1B75439  15.431  28.462   6.464
 5976POPC   C2B75440  15.378  28.484   6.764
 5976POPC   C3B75441  15.371  28.497   7.064
 5976POPC   C4B75442  15.413  28.462   7.364
 5977POPC   NC375443  40.740  35.357   5.564
 5977POPC   PO475444  40.795  35.334   5.864
 5977POPC   GL175445  40.756  35.334   6.164
 5977POPC   GL275446  40.876  35.448   6.164
 5977POPC   C1A75447  40.806  35.327   6.464
 5977POPC   D2A75448  40.754  35.327   6.764
 5977POPC   C3A75449  40.764  35.372   7.064
 5977POPC   C4A75450  40.799  35.375   7.364
 5977POPC   C1B75451  40.875  35.586   6.464
 5977POPC   C2B75452  40.924  35.537   6.764
 5977POPC   C3B75453  40.892  35.545   7.064
 5977POPC   C4B75454  40.863  35.562   7.364
 5978POPC   NC375455  19.097  27.634   5.564
 5978POPC   PO475456  19.057  27.552   5.864
 5978POPC   GL175457  19.023  27.631   6.164
 5978POPC   GL275458  18.952  27.656   6.164
 5978POPC   C1A75459  19.051  27.616   6.464
 5978POPC   D2A75460  19.104  27.586   6.764
 5978POPC   C3A75461  19.029  27.625   7.064
 5978POPC   C4A75462  19.040  27.614   7.364
 5978POPC   C1B75463  18.953  27.802   6.464
 5978POPC   C2B75464  18.866  27.838   6.764
 5978POPC   C3B75465  18.891  27.823   7.064
 5978POPC   C4B75466  18.916  27.776   7.364
 5979POPC   NC375467   6.658  19.790   5.564
 5979POPC   PO475468   6.640  19.802   5.864
 5979POPC   GL175469   6.634  19.868   6.164
 5979POPC   GL275470   6.659  19.949   6.164
 5979POPC   C1A75471   6.663  19.866   6.464
 5979POPC   D2A75472   6.609  19.831   6.764
 5979POPC   C3A75473   6.666  19.859   7.064
 5979POPC   C4A75474   6.636  19.816   7.364
 5979POPC   C1B75475   6.623  20.115   6.464
 5979POPC   C2B75476   6.622  20.055   6.764
 5979POPC   C3B75477   6.655  20.077   7.064
 5979POPC   C4B75478   6.574  20.067   7.364
 5980POPC   NC375479  36.176  37.709   5.564
 5980POPC   PO475480  36.126  37.700   5.864
 5980POPC   GL175481  36.139  37.700   6.164
 5980POPC   GL275482  36.147  37.595   6.164
 5980POPC   C1A75483  36.176  37.673   6.464
 5980POPC   D2A75484  36.177  37.673   6.764
 5980POPC   C3A75485  36.134  37.710   7.064
 5980POPC   C4A75486  36.078  37.644   7.364
 5980POPC   C1B75487  36.164  37.457   6.464
 5980POPC   C2B75488  36.128  37.394   6.764
 5980POPC   C3B75489  36.190  37.450   7.064
 5980POPC   C4B75490  36.152  37.420   7.364
 5981POPC   NC375491  36.912  26.007   5.564
 5981POPC   PO475492  36.891  26.010   5.864
 5981POPC   GL175493  36.906  25.997   6.164
 5981POPC   GL275494  36.869  25.950   6.164
 5981POPC   C1A75495  36.933  26.018   6.464
 5981POPC   D2A75496  36.861  26.061   6.764
 5981POPC   C3A75497  36.883  26.069   7.064
 5981POPC   C4A75498  36.900  26.038   7.364
 5981POPC   C1B75499  36.759  25.851   6.464
 5981POPC   C2B75500  36.805  25.871   6.764
 5981POPC   C3B75501  36.789  25.812   7.064
 5981POPC   C4B75502  36.768  25.785   7.364
 5982POPC   NC375503  22.183  15.998   5.564
 5982POPC   PO475504  22.171  15.948   5.864
 5982POPC   GL175505  22.174  15.918   6.164
 5982POPC   GL275506  22.257  15.935   6.164
 5982POPC   C1A75507  22.170  15.977   6.464
 5982POPC   D2A75508  22.144  15.915   6.764
 5982POPC   C3A75509  22.201  15.963   7.064
 5982POPC   C4A75510  22.144  16.001   7.364
 5982POPC   C1B75511  22.407  16.019   6.464
 5982POPC   C2B75512  22.405  15.969   6.764
 5982POPC   C3B75513  22.451  15.997   7.064
 5982POPC   C4B75514  22.370  15.975   7.364
 5983POPC   NC375515  21.394  21.418   5.564
 5983POPC   PO475516  21.424  21.353   5.864
 5983POPC   GL175517  21.362  21.407   6.164
 5983POPC   GL275518  21.351  21.506   6.164
 5983POPC   C1A75519  21.365  21.386   6.464
 5983POPC   D2A75520  21.415  21.396   6.764
 5983POPC   C3A75521  21.385  21.351   7.064
 5983POPC   C4A75522  21.413  21.393   7.364
 5983POPC   C1B75523  21.420  21.600   6.464
 5983POPC   C2B75524  21.396  21.679   6.764
 5983POPC   C3B75525  21.346  21.679   7.064
 5983POPC   C4B75526  21.394  21.663   7.364
 5984POPC   NC375527  11.275  12.887   5.564
 5984POPC   PO475528  11.349  12.876   5.864
 5984POPC   GL175529  11.331  12.820   6.164
 5984POPC   GL275530  11.355  12.952   6.164
 5984POPC   C1A75531  11.338  12.851   6.464
 5984POPC   D2A75532  11.283  12.890   6.764
 5984POPC   C3A75533  11.257  12.825   7.064
 5984POPC   C4A75534  11.334  12.842   7.364
 5984POPC   C1B75535  11.496  12.963   6.464
 5984POPC   C2B75536  11.550  13.032   6.764
 5984POPC   C3B75537  11.503  12.963   7.064
 5984POPC   C4B75538  11.488  12.952   7.364
 5985POPC   NC375539   1.257  31.444   5.564
 5985POPC   PO475540   1.200  31.436   5.864
 5985POPC   GL175541   1.199  31.481   6.164
 5985POPC   GL275542   1.226  31.618   6.164
 5985POPC   C1A75543   1.173  31.448   6.464
 5985POPC   D2A75544   1.233  31.473   6.764
 5985POPC   C3A75545   1.242  31.518   7.064
 5985POPC   C4A75546   1.216  31.471   7.364
 5985POPC   C1B75547   1.126  31.725   6.464
 5985POPC   C2B75548   1.172  31.703   6.764
 5985POPC   C3B75549   1.113  31.704   7.064
 5985POPC   C4B75550   1.111  31.666   7.364
 5986POPC   NC375551  39.972  25.309   5.564
 5986POPC   PO475552  40.028  25.269   5.864
 5986POPC   GL175553  39.976  25.254   6.164
 5986POPC   GL275554  40.042  25.146   6.164
 5986POPC   C1A75555  40.012  25.299   6.464
 5986POPC   D2A75556  40.050  25.303   6.764
 5986POPC   C3A75557  39.985  25.260   7.064
 5986POPC   C4A75558  39.978  25.232   7.364
 5986POPC   C1B75559  40.132  25.050   6.464
 5986POPC   C2B75560  40.153  25.098   6.764
 5986POPC   C3B75561  40.195  25.087   7.064
 5986POPC   C4B75562  40.178  25.036   7.364
 5987POPC   NC375563   5.103  36.948   5.564
 5987POPC   PO475564   5.082  36.940   5.864
 5987POPC   GL175565   5.119  36.938   6.164
 5987POPC   GL275566   4.995  37.002   6.164
 5987POPC   C1A75567   5.075  36.854   6.464
 5987POPC   D2A75568   5.141  36.893   6.764
 5987POPC   C3A75569   5.113  36.921   7.064
 5987POPC   C4A75570   5.047  36.927   7.364
 5987POPC   C1B75571   4.964  37.131   6.464
 5987POPC   C2B75572   4.950  37.094   6.764
 5987POPC   C3B75573   4.969  37.081   7.064
 5987POPC   C4B75574   4.960  37.108   7.364
 5988POPC   NC375575  44.628  26.017   5.564
 5988POPC   PO475576  44.652  25.998   5.864
 5988POPC   GL175577  44.629  26.070   6.164
 5988POPC   GL275578  44.494  26.040   6.164
 5988POPC   C1A75579  44.700  25.994   6.464
 5988POPC   D2A75580  44.674  26.011   6.764
 5988POPC   C3A75581  44.689  26.074   7.064
 5988POPC   C4A75582  44.659  26.040   7.364
 5988POPC   C1B75583  44.433  26.051   6.464
 5988POPC   C2B75584  44.409  26.079   6.764
 5988POPC   C3B75585  44.409  26.023   7.064
 5988POPC   C4B75586  44.457  26.025   7.364
 5989POPC   NC375587  34.626   5.087   5.564
 5989POPC   PO475588  34.616   5.088   5.864
 5989POPC   GL175589  34.623   5.055   6.164
 5989POPC   GL275590  34.581   5.005   6.164
 5989POPC   C1A75591  34.578   5.135   6.464
 5989POPC   D2A75592  34.574   5.107   6.764
 5989POPC   C3A75593  34.544   5.078   7.064
 5989POPC   C4A75594  34.586   5.124   7.364
 5989POPC   C1B75595  34.540   4.885   6.464
 5989POPC   C2B75596  34.547   4.803   6.764
 5989POPC   C3B75597  34.574   4.840   7.064
 5989POPC   C4B75598  34.583   4.821   7.364
 5990POPC   NC375599  42.285  12.895   5.564
 5990POPC   PO475600  42.358  12.889   5.864
 5990POPC   GL175601  42.362  12.858   6.164
 5990POPC   GL275602  42.273  12.956   6.164
 5990POPC   C1A75603  42.294  12.808   6.464
 5990POPC   D2A75604  42.343  12.877   6.764
 5990POPC   C3A75605  42.294  12.827   7.064
 5990POPC   C4A75606  42.341  12.898   7.364
 5990POPC   C1B75607  42.271  13.130   6.464
 5990POPC   C2B75608  42.243  13.092   6.764
 5990POPC   C3B75609  42.214  13.089   7.064
 5990POPC   C4B75610  42.216  13.074   7.364
 5991POPC   NC375611  34.555   0.462   5.564
 5991POPC   PO475612  34.603   0.405   5.864
 5991POPC   GL175613  34.601   0.410   6.164
 5991POPC   GL275614  34.695   0.368   6.164
 5991POPC   C1A75615  34.580   0.391   6.464
 5991POPC   D2A75616  34.568   0.406   6.764
 5991POPC   C3A75617  34.535   0.419   7.064
 5991POPC   C4A75618  34.547   0.478   7.364
 5991POPC   C1B75619  34.721   0.221   6.464
 5991POPC   C2B75620  34.734   0.227   6.764
 5991POPC   C3B75621  34.687   0.286   7.064
 5991POPC   C4B75622  34.771   0.233   7.364
 5992POPC   NC375623   4.303  28.371   5.564
 5992POPC   PO475624   4.312  28.352   5.864
 5992POPC   GL175625   4.334  28.331   6.164
 5992POPC   GL275626   4.222  28.352   6.164
 5992POPC   C1A75627   4.319  28.416   6.464
 5992POPC   D2A75628   4.357  28.361   6.764
 5992POPC   C3A75629   4.320  28.388   7.064
 5992POPC   C4A75630   4.342  28.389   7.364
 5992POPC   C1B75631   4.112  28.270   6.464
 5992POPC   C2B75632   4.058  28.268   6.764
 5992POPC   C3B75633   4.067  28.297   7.064
 5992POPC   C4B75634   4.051  28.242   7.364
 5993POPC   NC375635  20.618  33.066   5.564
 5993POPC   PO475636  20.631  33.073   5.864
 5993POPC   GL175637  20.599  33.005   6.164
 5993POPC   GL275638  20.675  33.145   6.164
 5993POPC   C1A75639  20.657  33.014   6.464
 5993POPC   D2A75640  20.586  32.976   6.764
 5993POPC   C3A75641  20.654  33.009   7.064
 5993POPC   C4A75642  20.601  32.979   7.364
 5993POPC   C1B75643  20.658  33.290   6.464
 5993POPC   C2B75644  20.710  33.238   6.764
 5993POPC   C3B75645  20.633  33.273   7.064
 5993POPC   C4B75646  20.619  33.270   7.364
 5994POPC   NC375647  33.830  30.690   5.564
 5994POPC   PO475648  33.806  30.653   5.864
 5994POPC   GL175649  33.848  30.687   6.164
 5994POPC   GL275650  33.643  30.666   6.164
 5994POPC   C1A75651  33.776  30.712   6.464
 5994POPC   D2A75652  33.763  30.650   6.764
 5994POPC   C3A75653  33.802  30.709   7.064
 5994POPC   C4A75654  33.797  30.686   7.364
 5994POPC   C1B75655  33.551  30.570   6.464
 5994POPC   C2B75656  33.521  30.639   6.764
 5994POPC   C3B75657  33.530  30.582   7.064
 5994POPC   C4B75658  33.588  30.630   7.364
 5995POPC   NC375659  21.339  28.386   5.564
 5995POPC   PO475660  21.399  28.386   5.864
 5995POPC   GL175661  21.382  28.408   6.164
 5995POPC   GL275662  21.274  28.364   6.164
 5995POPC   C1A75663  21.360  28.409   6.464
 5995POPC   D2A75664  21.361  28.356   6.764
 5995POPC   C3A75665  21.396  28.415   7.064
 5995POPC   C4A75666  21.379  28.349   7.364
 5995POPC   C1B75667  21.137  28.399   6.464
 5995POPC   C2B75668  21.176  28.402   6.764
 5995POPC   C3B75669  21.144  28.407   7.064
 5995POPC   C4B75670  21.109  28.413   7.364
 5996POPC   NC375671   3.573   8.939   5.564
 5996POPC   PO475672   3.516   8.995   5.864
 5996POPC   GL175673   3.498   8.957   6.164
 5996POPC   GL275674   3.451   8.910   6.164
 5996POPC   C1A75675   3.554   8.967   6.464
 5996POPC   D2A75676   3.529   8.997   6.764
 5996POPC   C3A75677   3.513   8.924   7.064
 5996POPC   C4A75678   3.526   8.944   7.364
 5996POPC   C1B75679   3.372   8.719   6.464
 5996POPC   C2B75680   3.399   8.777   6.764
 5996POPC   C3B75681   3.383   8.716   7.064
 5996POPC   C4B75682   3.371   8.748   7.364
 5997POPC   NC375683  29.129  36.913   5.564
 5997POPC   PO475684  29.167  36.855   5.864
 5997POPC   GL175685  29.164  36.892   6.164
 5997POPC   GL275686  29.065  36.928   6.164
 5997POPC   C1A75687  29.110  36.945   6.464
 5997POPC   D2A75688  29.097  36.882   6.764
 5997POPC   C3A75689  29.162  36.859   7.064
 5997POPC   C4A75690  29.107  36.863   7.364
 5997POPC   C1B75691  28.941  37.070   6.464
 5997POPC   C2B75692  28.900  37.083   6.764
 5997POPC   C3B75693  28.977  37.059   7.064
 5997POPC   C4B75694  28.893  37.076   7.364
 5998POPC   NC375695  39.984  23.713   5.564
 5998POPC   PO475696  40.029  23.686   5.864
 5998POPC   GL175697  40.014  23.716   6.164
 5998POPC   GL275698  40.116  23.635   6.164
 5998POPC   C1A75699  40.054  23.745   6.464
 5998POPC   D2A75700  40.044  23.747   6.764
 5998POPC   C3A75701  40.033  23.679   7.064
 5998POPC   C4A75702  39.998  23.715   7.364
 5998POPC   C1B75703  40.211  23.478   6.464
 5998POPC   C2B75704  40.185  23.487   6.764
 5998POPC   C3B75705  40.193  23.537   7.064
 5998POPC   C4B75706  40.159  23.517   7.364
 5999POPC   NC375707  26.077  32.201   5.564
 5999POPC   PO475708  26.068  32.216   5.864
 5999POPC   GL175709  26.005  32.266   6.164
 5999POPC   GL275710  25.939  32.198   6.164
 5999POPC   C1A75711  26.023  32.212   6.464
 5999POPC   D2A75712  26.004  32.245   6.764
 5999POPC   C3A75713  26.018  32.226   7.064
 5999POPC   C4A75714  26.030  32.202   7.364
 5999POPC   C1B75715  25.838  32.112   6.464
 5999POPC   C2B75716  25.803  32.120   6.764
 5999POPC   C3B75717  25.832  32.171   7.064
 5999POPC   C4B75718  25.783  32.141   7.364
 6000POPC   NC375719  17.548  25.287   5.564
 6000POPC   PO475720  17.521  25.232   5.864
 6000POPC   GL175721  17.528  25.220   6.164
 6000POPC   GL275722  17.624  25.280   6.164
 6000POPC   C1A75723  17.553  25.231   6.464
 6000POPC   D2A75724  17.492  25.219   6.764
 6000POPC   C3A75725  17.505  25.301   7.064
 6000POPC   C4A75726  17.464  25.281   7.364
 6000POPC   C1B75727  17.697  25.245   6.464
 6000POPC   C2B75728  17.727  25.243   6.764
 6000POPC   C3B75729  17.793  25.204   7.064
 6000POPC   C4B75730  17.760  25.159   7.364
 6001POPC   NC375731  10.488  19.093   5.564
 6001POPC   PO475732  10.496  19.090   5.864
 6001POPC   GL175733  10.516  19.051   6.164
 6001POPC   GL275734  10.515  18.948   6.164
 6001POPC   C1A75735  10.499  19.037   6.464
 6001POPC   D2A75736  10.564  19.019   6.764
 6001POPC   C3A75737  10.560  19.065   7.064
 6001POPC   C4A75738  10.503  19.069   7.364
 6001POPC   C1B75739  10.500  18.849   6.464
 6001POPC   C2B75740  10.505  18.852   6.764
 6001POPC   C3B75741  10.486  18.800   7.064
 6001POPC   C4B75742  10.455  18.786   7.364
 6002POPC   NC375743  14.443  19.798   5.564
 6002POPC   PO475744  14.370  19.829   5.864
 6002POPC   GL175745  14.450  19.814   6.164
 6002POPC   GL275746  14.540  19.820   6.164
 6002POPC   C1A75747  14.354  19.826   6.464
 6002POPC   D2A75748  14.363  19.858   6.764
 6002POPC   C3A75749  14.446  19.824   7.064
 6002POPC   C4A75750  14.441  19.837   7.364
 6002POPC   C1B75751  14.630  19.850   6.464
 6002POPC   C2B75752  14.607  19.851   6.764
 6002POPC   C3B75753  14.700  19.781   7.064
 6002POPC   C4B75754  14.673  19.799   7.364
 6003POPC   NC375755  25.228  22.926   5.564
 6003POPC   PO475756  25.266  22.910   5.864
 6003POPC   GL175757  25.304  22.975   6.164
 6003POPC   GL275758  25.255  23.089   6.164
 6003POPC   C1A75759  25.261  22.956   6.464
 6003POPC   D2A75760  25.299  22.975   6.764
 6003POPC   C3A75761  25.276  22.950   7.064
 6003POPC   C4A75762  25.267  22.920   7.364
 6003POPC   C1B75763  25.241  23.139   6.464
 6003POPC   C2B75764  25.229  23.206   6.764
 6003POPC   C3B75765  25.228  23.150   7.064
 6003POPC   C4B75766  25.249  23.196   7.364
 6004POPC   NC375767  15.192  26.866   5.564
 6004POPC   PO475768  15.190  26.808   5.864
 6004POPC   GL175769  15.194  26.806   6.164
 6004POPC   GL275770  15.207  26.926   6.164
 6004POPC   C1A75771  15.183  26.791   6.464
 6004POPC   D2A75772  15.221  26.770   6.764
 6004POPC   C3A75773  15.229  26.859   7.064
 6004POPC   C4A75774  15.188  26.803   7.364
 6004POPC   C1B75775  15.193  27.102   6.464
 6004POPC   C2B75776  15.213  27.089   6.764
 6004POPC   C3B75777  15.187  27.034   7.064
 6004POPC   C4B75778  15.227  27.095   7.364
 6005POPC   NC375779   1.176  44.625   5.564
 6005POPC   PO475780   1.226  44.680   5.864
 6005POPC   GL175781   1.244  44.614   6.164
 6005POPC   GL275782   1.132  44.700   6.164
 6005POPC   C1A75783   1.187  44.686   6.464
 6005POPC   D2A75784   1.223  44.688   6.764
 6005POPC   C3A75785   1.176  44.613   7.064
 6005POPC   C4A75786   1.165  44.660   7.364
 6005POPC   C1B75787   0.955  44.732   6.464
 6005POPC   C2B75788   0.963  44.775   6.764
 6005POPC   C3B75789   0.968  44.715   7.064
 6005POPC   C4B75790   0.958  44.739   7.364
 6006POPC   NC375791   8.164   8.175   5.564
 6006POPC   PO475792   8.240   8.160   5.864
 6006POPC   GL175793   8.201   8.170   6.164
 6006POPC   GL275794   8.300   8.185   6.164
 6006POPC   C1A75795   8.220   8.209   6.464
 6006POPC   D2A75796   8.244   8.155   6.764
 6006POPC   C3A75797   8.230   8.185   7.064
 6006POPC   C4A75798   8.172   8.186   7.364
 6006POPC   C1B75799   8.431   8.148   6.464
 6006POPC   C2B75800   8.422   8.187   6.764
 6006POPC   C3B75801   8.429   8.233   7.064
 6006POPC   C4B75802   8.452   8.215   7.364
 6007POPC   NC375803  29.106  26.083   5.564
 6007POPC   PO475804  29.134  26.085   5.864
 6007POPC   GL175805  29.100  26.024   6.164
 6007POPC   GL275806  29.173  26.206   6.164
 6007POPC   C1A75807  29.146  26.026   6.464
 6007POPC   D2A75808  29.189  26.041   6.764
 6007POPC   C3A75809  29.194  25.992   7.064
 6007POPC   C4A75810  29.157  26.052   7.364
 6007POPC   C1B75811  29.160  26.314   6.464
 6007POPC   C2B75812  29.113  26.264   6.764
 6007POPC   C3B75813  29.153  26.338   7.064
 6007POPC   C4B75814  29.199  26.291   7.364
 6008POPC   NC375815  33.837  29.944   5.564
 6008POPC   PO475816  33.810  29.881   5.864
 6008POPC   GL175817  33.835  29.912   6.164
 6008POPC   GL275818  33.748  29.990   6.164
 6008POPC   C1A75819  33.753  29.894   6.464
 6008POPC   D2A75820  33.834  29.936   6.764
 6008POPC   C3A75821  33.823  29.939   7.064
 6008POPC   C4A75822  33.828  29.939   7.364
 6008POPC   C1B75823  33.591  30.110   6.464
 6008POPC   C2B75824  33.633  30.030   6.764
 6008POPC   C3B75825  33.597  30.049   7.064
 6008POPC   C4B75826  33.623  30.041   7.364
 6009POPC   NC375827  22.970  39.216   5.564
 6009POPC   PO475828  22.890  39.251   5.864
 6009POPC   GL175829  22.896  39.266   6.164
 6009POPC   GL275830  22.916  39.120   6.164
 6009POPC   C1A75831  22.901  39.212   6.464
 6009POPC   D2A75832  22.967  39.247   6.764
 6009POPC   C3A75833  22.901  39.210   7.064
 6009POPC   C4A75834  22.936  39.205   7.364
 6009POPC   C1B75835  22.825  38.949   6.464
 6009POPC   C2B75836  22.835  39.011   6.764
 6009POPC   C3B75837  22.847  38.969   7.064
 6009POPC   C4B75838  22.882  38.952   7.364
 6010POPC   NC375839  32.991  10.567   5.564
 6010POPC   PO475840  33.019  10.479   5.864
 6010POPC   GL175841  33.031  10.509   6.164
 6010POPC   GL275842  33.115  10.551   6.164
 6010POPC   C1A75843  32.990  10.489   6.464
 6010POPC   D2A75844  32.994  10.550   6.764
 6010POPC   C3A75845  33.063  10.569   7.064
 6010POPC   C4A75846  33.067  10.479   7.364
 6010POPC   C1B75847  33.248  10.641   6.464
 6010POPC   C2B75848  33.226  10.690   6.764
 6010POPC   C3B75849  33.250  10.714   7.064
 6010POPC   C4B75850  33.257  10.674   7.364
 6011POPC   NC375851  15.202  41.575   5.564
 6011POPC   PO475852  15.131  41.512   5.864
 6011POPC   GL175853  15.136  41.559   6.164
 6011POPC   GL275854  15.076  41.519   6.164
 6011POPC   C1A75855  15.216  41.509   6.464
 6011POPC   D2A75856  15.201  41.584   6.764
 6011POPC   C3A75857  15.188  41.591   7.064
 6011POPC   C4A75858  15.184  41.534   7.364
 6011POPC   C1B75859  14.948  41.462   6.464
 6011POPC   C2B75860  14.945  41.505   6.764
 6011POPC   C3B75861  14.956  41.503   7.064
 6011POPC   C4B75862  14.903  41.480   7.364
 6012POPC   NC375863  15.934   0.440   5.564
 6012POPC   PO475864  15.918   0.471   5.864
 6012POPC   GL175865  15.966   0.445   6.164
 6012POPC   GL275866  16.006   0.600   6.164
 6012POPC   C1A75867  15.941   0.421   6.464
 6012POPC   D2A75868  15.909   0.436   6.764
 6012POPC   C3A75869  15.948   0.435   7.064
 6012POPC   C4A75870  15.983   0.448   7.364
 6012POPC   C1B75871  16.058   0.676   6.464
 6012POPC   C2B75872  16.072   0.721   6.764
 6012POPC   C3B75873  16.054   0.656   7.064
 6012POPC   C4B75874  16.018   0.632   7.364
 6013POPC   NC375875  15.176  40.809   5.564
 6013POPC   PO475876  15.183  40.741   5.864
 6013POPC   GL175877  15.168  40.793   6.164
 6013POPC   GL275878  15.264  40.700   6.164
 6013POPC   C1A75879  15.157  40.734   6.464
 6013POPC   D2A75880  15.141  40.752   6.764
 6013POPC   C3A75881  15.210  40.792   7.064
 6013POPC   C4A75882  15.211  40.779   7.364
 6013POPC   C1B75883  15.257  40.573   6.464
 6013POPC   C2B75884  15.214  40.588   6.764
 6013POPC   C3B75885  15.288  40.506   7.064
 6013POPC   C4B75886  15.234  40.560   7.364
 6014POPC   NC375887  19.078  44.634   5.564
 6014POPC   PO475888  19.102  44.686   5.864
 6014POPC   GL175889  19.021  44.628   6.164
 6014POPC   GL275890  19.103  44.741   6.164
 6014POPC   C1A75891  19.025  44.616   6.464
 6014POPC   D2A75892  19.034  44.645   6.764
 6014POPC   C3A75893  19.029  44.617   7.064
 6014POPC   C4A75894  19.044  44.664   7.364
 6014POPC   C1B75895  19.229  44.806   6.464
 6014POPC   C2B75896  19.194  44.806   6.764
 6014POPC   C3B75897  19.258  44.879   7.064
 6014POPC   C4B75898  19.231  44.797   7.364
 6015POPC   NC375899   1.222  15.164   5.564
 6015POPC   PO475900   1.179  15.139   5.864
 6015POPC   GL175901   1.176  15.228   6.164
 6015POPC   GL275902   1.332  15.100   6.164
 6015POPC   C1A75903   1.256  15.169   6.464
 6015POPC   D2A75904   1.258  15.142   6.764
 6015POPC   C3A75905   1.187  15.190   7.064
 6015POPC   C4A75906   1.198  15.193   7.364
 6015POPC   C1B75907   1.349  15.015   6.464
 6015POPC   C2B75908   1.386  14.996   6.764
 6015POPC   C3B75909   1.340  14.962   7.064
 6015POPC   C4B75910   1.397  14.953   7.364
 6016POPC   NC375911   2.788   8.169   5.564
 6016POPC   PO475912   2.800   8.165   5.864
 6016POPC   GL175913   2.763   8.246   6.164
 6016POPC   GL275914   2.880   8.194   6.164
 6016POPC   C1A75915   2.793   8.193   6.464
 6016POPC   D2A75916   2.772   8.232   6.764
 6016POPC   C3A75917   2.766   8.217   7.064
 6016POPC   C4A75918   2.763   8.227   7.364
 6016POPC   C1B75919   2.959   8.134   6.464
 6016POPC   C2B75920   2.990   8.131   6.764
 6016POPC   C3B75921   2.956   8.078   7.064
 6016POPC   C4B75922   2.997   8.100   7.364
 6017POPC   NC375923   7.392  13.623   5.564
 6017POPC   PO475924   7.379  13.664   5.864
 6017POPC   GL175925   7.379  13.627   6.164
 6017POPC   GL275926   7.277  13.504   6.164
 6017POPC   C1A75927   7.467  13.597   6.464
 6017POPC   D2A75928   7.413  13.649   6.764
 6017POPC   C3A75929   7.377  13.616   7.064
 6017POPC   C4A75930   7.380  13.658   7.364
 6017POPC   C1B75931   7.258  13.509   6.464
 6017POPC   C2B75932   7.178  13.482   6.764
 6017POPC   C3B75933   7.259  13.511   7.064
 6017POPC   C4B75934   7.217  13.465   7.364
 6018POPC   NC375935  35.400  42.384   5.564
 6018POPC   PO475936  35.308  42.317   5.864
 6018POPC   GL175937  35.386  42.312   6.164
 6018POPC   GL275938  35.373  42.229   6.164
 6018POPC   C1A75939  35.315  42.326   6.464
 6018POPC   D2A75940  35.326  42.360   6.764
 6018POPC   C3A75941  35.392  42.313   7.064
 6018POPC   C4A75942  35.374  42.341   7.364
 6018POPC   C1B75943  35.419  42.125   6.464
 6018POPC   C2B75944  35.390  42.055   6.764
 6018POPC   C3B75945  35.367  42.101   7.064
 6018POPC   C4B75946  35.352  42.074   7.364
 6019POPC   NC375947   5.896  38.467   5.564
 6019POPC   PO475948   5.899  38.430   5.864
 6019POPC   GL175949   5.889  38.420   6.164
 6019POPC   GL275950   5.816  38.514   6.164
 6019POPC   C1A75951   5.840  38.431   6.464
 6019POPC   D2A75952   5.898  38.422   6.764
 6019POPC   C3A75953   5.857  38.481   7.064
 6019POPC   C4A75954   5.826  38.494   7.364
 6019POPC   C1B75955   5.742  38.650   6.464
 6019POPC   C2B75956   5.767  38.623   6.764
 6019POPC   C3B75957   5.781  38.689   7.064
 6019POPC   C4B75958   5.764  38.700   7.364
 6020POPC   NC375959   0.390  24.491   5.564
 6020POPC   PO475960   0.443  24.494   5.864
 6020POPC   GL175961   0.453  24.531   6.164
 6020POPC   GL275962   0.278  24.436   6.164
 6020POPC   C1A75963   0.393  24.458   6.464
 6020POPC   D2A75964   0.444  24.516   6.764
 6020POPC   C3A75965   0.413  24.510   7.064
 6020POPC   C4A75966   0.400  24.525   7.364
 6020POPC   C1B75967   0.196  24.470   6.464
 6020POPC   C2B75968   0.152  24.470   6.764
 6020POPC   C3B75969   0.144  24.479   7.064
 6020POPC   C4B75970   0.180  24.497   7.364
 6021POPC   NC375971  19.789  33.010   5.564
 6021POPC   PO475972  19.859  32.988   5.864
 6021POPC   GL175973  19.824  33.047   6.164
 6021POPC   GL275974  19.996  33.079   6.164
 6021POPC   C1A75975  19.821  32.979   6.464
 6021POPC   D2A75976  19.835  33.068   6.764
 6021POPC   C3A75977  19.786  33.032   7.064
 6021POPC   C4A75978  19.872  32.986   7.364
 6021POPC   C1B75979  20.032  33.159   6.464
 6021POPC   C2B75980  20.091  33.141   6.764
 6021POPC   C3B75981  20.108  33.101   7.064
 6021POPC   C4B75982  20.079  33.163   7.364
 6022POPC   NC375983  16.686  19.830   5.564
 6022POPC   PO475984  16.726  19.860   5.864
 6022POPC   GL175985  16.707  19.829   6.164
 6022POPC   GL275986  16.768  19.883   6.164
 6022POPC   C1A75987  16.688  19.883   6.464
 6022POPC   D2A75988  16.765  19.873   6.764
 6022POPC   C3A75989  16.768  19.876   7.064
 6022POPC   C4A75990  16.746  19.785   7.364
 6022POPC   C1B75991  16.861  20.078   6.464
 6022POPC   C2B75992  16.885  20.023   6.764
 6022POPC   C3B75993  16.922  20.011   7.064
 6022POPC   C4B75994  16.920  20.044   7.364
 6023POPC   NC375995   0.450  34.537   5.564
 6023POPC   PO475996   0.416  34.620   5.864
 6023POPC   GL175997   0.418  34.595   6.164
 6023POPC   GL275998   0.568  34.649   6.164
 6023POPC   C1A75999   0.472  34.570   6.464
 6023POPC   D2A76000   0.487  34.585   6.764
 6023POPC   C3A76001   0.477  34.528   7.064
 6023POPC   C4A76002   0.477  34.590   7.364
 6023POPC   C1B76003   0.662  34.690   6.464
 6023POPC   C2B76004   0.676  34.713   6.764
 6023POPC   C3B76005   0.634  34.782   7.064
 6023POPC   C4B76006   0.588  34.709   7.364
 6024POPC   NC376007  18.292   7.405   5.564
 6024POPC   PO476008  18.235   7.446   5.864
 6024POPC   GL176009  18.283   7.375   6.164
 6024POPC   GL276010  18.323   7.577   6.164
 6024POPC   C1A76011  18.276   7.452   6.464
 6024POPC   D2A76012  18.291   7.410   6.764
 6024POPC   C3A76013  18.303   7.395   7.064
 6024POPC   C4A76014  18.274   7.445   7.364
 6024POPC   C1B76015  18.330   7.622   6.464
 6024POPC   C2B76016  18.297   7.712   6.764
 6024POPC   C3B76017  18.390   7.617   7.064
 6024POPC   C4B76018  18.386   7.639   7.364
 6025POPC   NC376019  19.838  25.284   5.564
 6025POPC   PO476020  19.837  25.234   5.864
 6025POPC   GL176021  19.830  25.225   6.164
 6025POPC   GL276022  19.728  25.339   6.164
 6025POPC   C1A76023  19.789  25.267   6.464
 6025POPC   D2A76024  19.860  25.232   6.764
 6025POPC   C3A76025  19.787  25.224   7.064
 6025POPC   C4A76026  19.873  25.228   7.364
 6025POPC   C1B76027  19.641  25.312   6.464
 6025POPC   C2B76028  19.558  25.330   6.764
 6025POPC   C3B76029  19.558  25.397   7.064
 6025POPC   C4B76030  19.611  25.343   7.364
 6026POPC   NC376031  29.117  22.160   5.564
 6026POPC   PO476032  29.103  22.166   5.864
 6026POPC   GL176033  29.186  22.154   6.164
 6026POPC   GL276034  29.198  22.234   6.164
 6026POPC   C1A76035  29.154  22.178   6.464
 6026POPC   D2A76036  29.141  22.191   6.764
 6026POPC   C3A76037  29.097  22.159   7.064
 6026POPC   C4A76038  29.168  22.169   7.364
 6026POPC   C1B76039  29.292  22.334   6.464
 6026POPC   C2B76040  29.256  22.352   6.764
 6026POPC   C3B76041  29.282  22.358   7.064
 6026POPC   C4B76042  29.238  22.346   7.364
 6027POPC   NC376043  26.865  40.045   5.564
 6027POPC   PO476044  26.818  39.994   5.864
 6027POPC   GL176045  26.791  39.999   6.164
 6027POPC   GL276046  26.719  40.044   6.164
 6027POPC   C1A76047  26.779  40.051   6.464
 6027POPC   D2A76048  26.859  40.011   6.764
 6027POPC   C3A76049  26.827  40.039   7.064
 6027POPC   C4A76050  26.852  39.963   7.364
 6027POPC   C1B76051  26.601  40.013   6.464
 6027POPC   C2B76052  26.572  39.992   6.764
 6027POPC   C3B76053  26.556  39.998   7.064
 6027POPC   C4B76054  26.544  39.940   7.364
 6028POPC   NC376055  35.311   0.440   5.564
 6028POPC   PO476056  35.320   0.422   5.864
 6028POPC   GL176057  35.349   0.422   6.164
 6028POPC   GL276058  35.204   0.429   6.164
 6028POPC   C1A76059  35.361   0.441   6.464
 6028POPC   D2A76060  35.351   0.421   6.764
 6028POPC   C3A76061  35.324   0.425   7.064
 6028POPC   C4A76062  35.312   0.417   7.364
 6028POPC   C1B76063  35.073   0.474   6.464
 6028POPC   C2B76064  35.069   0.516   6.764
 6028POPC   C3B76065  35.132   0.489   7.064
 6028POPC   C4B76066  35.101   0.444   7.364
 6029POPC   NC376067  44.668   0.449   5.564
 6029POPC   PO476068  44.657   0.458   5.864
 6029POPC   GL176069  44.668   0.408   6.164
 6029POPC   GL276070  44.799   0.457   6.164
 6029POPC   C1A76071  44.632   0.459   6.464
 6029POPC   D2A76072  44.711   0.413   6.764
 6029POPC   C3A76073  44.614   0.476   7.064
 6029POPC   C4A76074  44.614   0.435   7.364
 6029POPC   C1B76075  44.911   0.454   6.464
 6029POPC   C2B76076  44.922   0.437   6.764
 6029POPC   C3B76077  44.940   0.403   7.064
 6029POPC   C4B76078  44.905   0.473   7.364
 6030POPC   NC376079   5.065  44.669   5.564
 6030POPC   PO476080   5.110  44.678   5.864
 6030POPC   GL176081   5.081  44.694   6.164
 6030POPC   GL276082   5.097  44.536   6.164
 6030POPC   C1A76083   5.050  44.624   6.464
 6030POPC   D2A76084   5.137  44.701   6.764
 6030POPC   C3A76085   5.057  44.690   7.064
 6030POPC   C4A76086   5.097  44.672   7.364
 6030POPC   C1B76087   4.972  44.473   6.464
 6030POPC   C2B76088   4.987  44.470   6.764
 6030POPC   C3B76089   5.001  44.453   7.064
 6030POPC   C4B76090   5.007  44.404   7.364
 6031POPC   NC376091   8.214  43.141   5.564
 6031POPC   PO476092   8.230  43.132   5.864
 6031POPC   GL176093   8.155  43.145   6.164
 6031POPC   GL276094   8.048  43.128   6.164
 6031POPC   C1A76095   8.156  43.143   6.464
 6031POPC   D2A76096   8.174  43.126   6.764
 6031POPC   C3A76097   8.209  43.070   7.064
 6031POPC   C4A76098   8.218  43.116   7.364
 6031POPC   C1B76099   8.011  43.253   6.464
 6031POPC   C2B76100   7.960  43.252   6.764
 6031POPC   C3B76101   7.921  43.203   7.064
 6031POPC   C4B76102   7.953  43.173   7.364
 6032POPC   NC376103  39.995   9.755   5.564
 6032POPC   PO476104  40.025   9.757   5.864
 6032POPC   GL176105  39.974   9.754   6.164
 6032POPC   GL276106  39.921   9.818   6.164
 6032POPC   C1A76107  39.961   9.748   6.464
 6032POPC   D2A76108  39.970   9.727   6.764
 6032POPC   C3A76109  39.974   9.702   7.064
 6032POPC   C4A76110  40.015   9.778   7.364
 6032POPC   C1B76111  39.881   9.987   6.464
 6032POPC   C2B76112  39.942  10.001   6.764
 6032POPC   C3B76113  39.944   9.989   7.064
 6032POPC   C4B76114  39.908   9.955   7.364
 6033POPC   NC376115   8.232  43.915   5.564
 6033POPC   PO476116   8.238  43.871   5.864
 6033POPC   GL176117   8.246  43.873   6.164
 6033POPC   GL276118   8.237  44.025   6.164
 6033POPC   C1A76119   8.162  43.881   6.464
 6033POPC   D2A76120   8.226  43.865   6.764
 6033POPC   C3A76121   8.238  43.879   7.064
 6033POPC   C4A76122   8.231  43.908   7.364
 6033POPC   C1B76123   8.319  44.107   6.464
 6033POPC   C2B76124   8.320  44.081   6.764
 6033POPC   C3B76125   8.324  44.142   7.064
 6033POPC   C4B76126   8.354  44.145   7.364
 6034POPC   NC376127  15.949  18.279   5.564
 6034POPC   PO476128  15.996  18.328   5.864
 6034POPC   GL176129  15.981  18.276   6.164
 6034POPC   GL276130  16.078  18.328   6.164
 6034POPC   C1A76131  15.937  18.299   6.464
 6034POPC   D2A76132  15.946  18.293   6.764
 6034POPC   C3A76133  15.970  18.315   7.064
 6034POPC   C4A76134  15.995  18.235   7.364
 6034POPC   C1B76135  16.122  18.412   6.464
 6034POPC   C2B76136  16.150  18.395   6.764
 6034POPC   C3B76137  16.189  18.424   7.064
 6034POPC   C4B76138  16.191  18.393   7.364
 6035POPC   NC376139  31.449  12.054   5.564
 6035POPC   PO476140  31.454  12.068   5.864
 6035POPC   GL176141  31.461  12.095   6.164
 6035POPC   GL276142  31.440  11.998   6.164
 6035POPC   C1A76143  31.509  12.043   6.464
 6035POPC   D2A76144  31.485  12.050   6.764
 6035POPC   C3A76145  31.467  12.061   7.064
 6035POPC   C4A76146  31.499  12.034   7.364
 6035POPC   C1B76147  31.449  11.835   6.464
 6035POPC   C2B76148  31.424  11.798   6.764
 6035POPC   C3B76149  31.421  11.856   7.064
 6035POPC   C4B76150  31.426  11.827   7.364
 6036POPC   NC376151  15.175  22.194   5.564
 6036POPC   PO476152  15.181  22.182   5.864
 6036POPC   GL176153  15.180  22.135   6.164
 6036POPC   GL276154  15.245  22.252   6.164
 6036POPC   C1A76155  15.204  22.132   6.464
 6036POPC   D2A76156  15.221  22.122   6.764
 6036POPC   C3A76157  15.173  22.209   7.064
 6036POPC   C4A76158  15.174  22.160   7.364
 6036POPC   C1B76159  15.372  22.352   6.464
 6036POPC   C2B76160  15.423  22.261   6.764
 6036POPC   C3B76161  15.358  22.296   7.064
 6036POPC   C4B76162  15.386  22.309   7.364
 6037POPC   NC376163  39.184  16.773   5.564
 6037POPC   PO476164  39.222  16.753   5.864
 6037POPC   GL176165  39.224  16.766   6.164
 6037POPC   GL276166  39.148  16.817   6.164
 6037POPC   C1A76167  39.200  16.752   6.464
 6037POPC   D2A76168  39.238  16.700   6.764
 6037POPC   C3A76169  39.229  16.778   7.064
 6037POPC   C4A76170  39.263  16.715   7.364
 6037POPC   C1B76171  39.131  16.977   6.464
 6037POPC   C2B76172  39.138  16.928   6.764
 6037POPC   C3B76173  39.158  16.985   7.064
 6037POPC   C4B76174  39.160  16.936   7.364
 6038POPC   NC376175  24.493   2.802   5.564
 6038POPC   PO476176  24.506   2.746   5.864
 6038POPC   GL176177  24.448   2.796   6.164
 6038POPC   GL276178  24.427   2.684   6.164
 6038POPC   C1A76179  24.455   2.790   6.464
 6038POPC   D2A76180  24.529   2.758   6.764
 6038POPC   C3A76181  24.510   2.796   7.064
 6038POPC   C4A76182  24.503   2.748   7.364
 6038POPC   C1B76183  24.466   2.534   6.464
 6038POPC   C2B76184  24.482   2.505   6.764
 6038POPC   C3B76185  24.409   2.496   7.064
 6038POPC   C4B76186  24.468   2.523   7.364
 6039POPC   NC376187  40.789  42.318   5.564
 6039POPC   PO476188  40.753  42.342   5.864
 6039POPC   GL176189  40.748  42.355   6.164
 6039POPC   GL276190  40.881  42.331   6.164
 6039POPC   C1A76191  40.754  42.368   6.464
 6039POPC   D2A76192  40.754  42.318   6.764
 6039POPC   C3A76193  40.778  42.322   7.064
 6039POPC   C4A76194  40.767  42.365   7.364
 6039POPC   C1B76195  41.013  42.330   6.464
 6039POPC   C2B76196  40.994  42.376   6.764
 6039POPC   C3B76197  41.069  42.303   7.064
 6039POPC   C4B76198  41.012  42.390   7.364
 6040POPC   NC376199  26.798  33.064   5.564
 6040POPC   PO476200  26.814  33.056   5.864
 6040POPC   GL176201  26.837  32.997   6.164
 6040POPC   GL276202  26.745  33.088   6.164
 6040POPC   C1A76203  26.822  33.007   6.464
 6040POPC   D2A76204  26.789  33.038   6.764
 6040POPC   C3A76205  26.806  33.041   7.064
 6040POPC   C4A76206  26.801  32.989   7.364
 6040POPC   C1B76207  26.639  33.266   6.464
 6040POPC   C2B76208  26.647  33.270   6.764
 6040POPC   C3B76209  26.706  33.217   7.064
 6040POPC   C4B76210  26.674  33.210   7.364
 6041POPC   NC376211  32.199  16.769   5.564
 6041POPC   PO476212  32.281  16.708   5.864
 6041POPC   GL176213  32.271  16.739   6.164
 6041POPC   GL276214  32.287  16.612   6.164
 6041POPC   C1A76215  32.225  16.711   6.464
 6041POPC   D2A76216  32.287  16.748   6.764
 6041POPC   C3A76217  32.215  16.775   7.064
 6041POPC   C4A76218  32.215  16.780   7.364
 6041POPC   C1B76219  32.312  16.541   6.464
 6041POPC   C2B76220  32.369  16.493   6.764
 6041POPC   C3B76221  32.384  16.537   7.064
 6041POPC   C4B76222  32.299  16.507   7.364
 6042POPC   NC376223   9.774   0.474   5.564
 6042POPC   PO476224   9.769   0.453   5.864
 6042POPC   GL176225   9.795   0.469   6.164
 6042POPC   GL276226   9.738   0.313   6.164
 6042POPC   C1A76227   9.768   0.452   6.464
 6042POPC   D2A76228   9.791   0.464   6.764
 6042POPC   C3A76229   9.754   0.443   7.064
 6042POPC   C4A76230   9.796   0.438   7.364
 6042POPC   C1B76231   9.724   0.143   6.464
 6042POPC   C2B76232   9.729   0.206   6.764
 6042POPC   C3B76233   9.749   0.193   7.064
 6042POPC   C4B76234   9.761   0.230   7.364
 6043POPC   NC376235  44.662  40.833   5.564
 6043POPC   PO476236  44.620  40.813   5.864
 6043POPC   GL176237  44.648  40.820   6.164
 6043POPC   GL276238  44.821  40.796   6.164
 6043POPC   C1A76239  44.663  40.824   6.464
 6043POPC   D2A76240  44.708  40.740   6.764
 6043POPC   C3A76241  44.648  40.739   7.064
 6043POPC   C4A76242  44.704  40.804   7.364
 6043POPC   C1B76243  44.918  40.706   6.464
 6043POPC   C2B76244  44.951  40.765   6.764
 6043POPC   C3B76245  44.927  40.800   7.064
 6043POPC   C4B76246  44.924  40.778   7.364
 6044POPC   NC376247  40.057  13.614   5.564
 6044POPC   PO476248  39.984  13.598   5.864
 6044POPC   GL176249  40.022  13.664   6.164
 6044POPC   GL276250  40.142  13.671   6.164
 6044POPC   C1A76251  40.031  13.614   6.464
 6044POPC   D2A76252  40.001  13.640   6.764
 6044POPC   C3A76253  39.990  13.641   7.064
 6044POPC   C4A76254  39.959  13.583   7.364
 6044POPC   C1B76255  40.293  13.670   6.464
 6044POPC   C2B76256  40.253  13.637   6.764
 6044POPC   C3B76257  40.274  13.695   7.064
 6044POPC   C4B76258  40.278  13.679   7.364
 6045POPC   NC376259  15.199   1.248   5.564
 6045POPC   PO476260  15.172   1.202   5.864
 6045POPC   GL176261  15.171   1.263   6.164
 6045POPC   GL276262  15.163   1.100   6.164
 6045POPC   C1A76263  15.195   1.200   6.464
 6045POPC   D2A76264  15.210   1.234   6.764
 6045POPC   C3A76265  15.152   1.201   7.064
 6045POPC   C4A76266  15.171   1.168   7.364
 6045POPC   C1B76267  15.105   1.006   6.464
 6045POPC   C2B76268  15.064   0.984   6.764
 6045POPC   C3B76269  15.050   0.983   7.064
 6045POPC   C4B76270  15.040   1.028   7.364
 6046POPC   NC376271  18.304  16.751   5.564
 6046POPC   PO476272  18.260  16.764   5.864
 6046POPC   GL176273  18.328  16.774   6.164
 6046POPC   GL276274  18.240  16.855   6.164
 6046POPC   C1A76275  18.307  16.713   6.464
 6046POPC   D2A76276  18.326  16.694   6.764
 6046POPC   C3A76277  18.273  16.741   7.064
 6046POPC   C4A76278  18.238  16.767   7.364
 6046POPC   C1B76279  18.301  16.988   6.464
 6046POPC   C2B76280  18.262  16.953   6.764
 6046POPC   C3B76281  18.305  17.016   7.064
 6046POPC   C4B76282  18.230  17.006   7.364
 6047POPC   NC376283  17.481   7.436   5.564
 6047POPC   PO476284  17.467   7.382   5.864
 6047POPC   GL176285  17.525   7.417   6.164
 6047POPC   GL276286  17.558   7.280   6.164
 6047POPC   C1A76287  17.526   7.460   6.464
 6047POPC   D2A76288  17.551   7.382   6.764
 6047POPC   C3A76289  17.514   7.439   7.064
 6047POPC   C4A76290  17.474   7.377   7.364
 6047POPC   C1B76291  17.685   7.203   6.464
 6047POPC   C2B76292  17.655   7.189   6.764
 6047POPC   C3B76293  17.630   7.196   7.064
 6047POPC   C4B76294  17.624   7.167   7.364
 6048POPC   NC376295  37.633   8.159   5.564
 6048POPC   PO476296  37.642   8.192   5.864
 6048POPC   GL176297  37.647   8.163   6.164
 6048POPC   GL276298  37.561   8.262   6.164
 6048POPC   C1A76299  37.657   8.183   6.464
 6048POPC   D2A76300  37.697   8.184   6.764
 6048POPC   C3A76301  37.688   8.196   7.064
 6048POPC   C4A76302  37.729   8.235   7.364
 6048POPC   C1B76303  37.480   8.239   6.464
 6048POPC   C2B76304  37.434   8.290   6.764
 6048POPC   C3B76305  37.463   8.262   7.064
 6048POPC   C4B76306  37.477   8.328   7.364
 6049POPC   NC376307  13.609  30.684   5.564
 6049POPC   PO476308  13.602  30.668   5.864
 6049POPC   GL176309  13.608  30.693   6.164
 6049POPC   GL276310  13.550  30.665   6.164
 6049POPC   C1A76311  13.595  30.675   6.464
 6049POPC   D2A76312  13.625  30.727   6.764
 6049POPC   C3A76313  13.631  30.734   7.064
 6049POPC   C4A76314  13.625  30.708   7.364
 6049POPC   C1B76315  13.423  30.638   6.464
 6049POPC   C2B76316  13.339  30.665   6.764
 6049POPC   C3B76317  13.362  30.676   7.064
 6049POPC   C4B76318  13.378  30.687   7.364
 6050POPC   NC376319  35.333  19.822   5.564
 6050POPC   PO476320  35.344  19.882   5.864
 6050POPC   GL176321  35.349  19.864   6.164
 6050POPC   GL276322  35.468  19.772   6.164
 6050POPC   C1A76323  35.365  19.862   6.464
 6050POPC   D2A76324  35.379  19.835   6.764
 6050POPC   C3A76325  35.398  19.842   7.064
 6050POPC   C4A76326  35.335  19.842   7.364
 6050POPC   C1B76327  35.482  19.681   6.464
 6050POPC   C2B76328  35.557  19.612   6.764
 6050POPC   C3B76329  35.535  19.699   7.064
 6050POPC   C4B76330  35.536  19.701   7.364
 6051POPC   NC376331   0.412  21.408   5.564
 6051POPC   PO476332   0.477  21.425   5.864
 6051POPC   GL176333   0.456  21.381   6.164
 6051POPC   GL276334   0.563  21.342   6.164
 6051POPC   C1A76335   0.393  21.396   6.464
 6051POPC   D2A76336   0.407  21.369   6.764
 6051POPC   C3A76337   0.421  21.354   7.064
 6051POPC   C4A76338   0.482  21.387   7.364
 6051POPC   C1B76339   0.664  21.376   6.464
 6051POPC   C2B76340   0.680  21.403   6.764
 6051POPC   C3B76341   0.736  21.336   7.064
 6051POPC   C4B76342   0.714  21.332   7.364
 6052POPC   NC376343  43.117  24.492   5.564
 6052POPC   PO476344  43.111  24.513   5.864
 6052POPC   GL176345  43.089  24.540   6.164
 6052POPC   GL276346  43.143  24.632   6.164
 6052POPC   C1A76347  43.075  24.497   6.464
 6052POPC   D2A76348  43.123  24.498   6.764
 6052POPC   C3A76349  43.089  24.504   7.064
 6052POPC   C4A76350  43.111  24.515   7.364
 6052POPC   C1B76351  43.285  24.716   6.464
 6052POPC   C2B76352  43.287  24.644   6.764
 6052POPC   C3B76353  43.287  24.711   7.064
 6052POPC   C4B76354  43.276  24.703   7.364
 6053POPC   NC376355  29.157   6.675   5.564
 6053POPC   PO476356  29.162   6.686   5.864
 6053POPC   GL176357  29.118   6.649   6.164
 6053POPC   GL276358  29.181   6.759   6.164
 6053POPC   C1A76359  29.156   6.596   6.464
 6053POPC   D2A76360  29.179   6.634   6.764
 6053POPC   C3A76361  29.179   6.695   7.064
 6053POPC   C4A76362  29.114   6.618   7.364
 6053POPC   C1B76363  29.299   6.857   6.464
 6053POPC   C2B76364  29.291   6.873   6.764
 6053POPC   C3B76365  29.269   6.856   7.064
 6053POPC   C4B76366  29.339   6.836   7.364
 6054POPC   NC376367  43.115   5.102   5.564
 6054POPC   PO476368  43.092   5.126   5.864
 6054POPC   GL176369  43.074   5.060   6.164
 6054POPC   GL276370  43.186   5.182   6.164
 6054POPC   C1A76371  43.092   5.134   6.464
 6054POPC   D2A76372  43.077   5.088   6.764
 6054POPC   C3A76373  43.072   5.096   7.064
 6054POPC   C4A76374  43.148   5.120   7.364
 6054POPC   C1B76375  43.372   5.244   6.464
 6054POPC   C2B76376  43.343   5.206   6.764
 6054POPC   C3B76377  43.360   5.225   7.064
 6054POPC   C4B76378  43.370   5.217   7.364
 6055POPC   NC376379  29.904  36.094   5.564
 6055POPC   PO476380  29.871  36.170   5.864
 6055POPC   GL176381  29.919  36.083   6.164
 6055POPC   GL276382  29.920  36.240   6.164
 6055POPC   C1A76383  29.912  36.139   6.464
 6055POPC   D2A76384  29.935  36.160   6.764
 6055POPC   C3A76385  29.913  36.138   7.064
 6055POPC   C4A76386  29.894  36.092   7.364
 6055POPC   C1B76387  29.879  36.407   6.464
 6055POPC   C2B76388  29.935  36.413   6.764
 6055POPC   C3B76389  29.925  36.411   7.064
 6055POPC   C4B76390  29.905  36.418   7.364
 6056POPC   NC376391   6.676  18.245   5.564
 6056POPC   PO476392   6.643  18.301   5.864
 6056POPC   GL176393   6.658  18.241   6.164
 6056POPC   GL276394   6.613  18.226   6.164
 6056POPC   C1A76395   6.610  18.291   6.464
 6056POPC   D2A76396   6.690  18.264   6.764
 6056POPC   C3A76397   6.617  18.264   7.064
 6056POPC   C4A76398   6.663  18.289   7.364
 6056POPC   C1B76399   6.451  18.115   6.464
 6056POPC   C2B76400   6.524  18.117   6.764
 6056POPC   C3B76401   6.509  18.092   7.064
 6056POPC   C4B76402   6.452  18.037   7.364
 6057POPC   NC376403   5.072   3.533   5.564
 6057POPC   PO476404   5.116   3.574   5.864
 6057POPC   GL176405   5.065   3.499   6.164
 6057POPC   GL276406   4.928   3.567   6.164
 6057POPC   C1A76407   5.126   3.537   6.464
 6057POPC   D2A76408   5.118   3.500   6.764
 6057POPC   C3A76409   5.051   3.553   7.064
 6057POPC   C4A76410   5.059   3.514   7.364
 6057POPC   C1B76411   4.844   3.504   6.464
 6057POPC   C2B76412   4.803   3.526   6.764
 6057POPC   C3B76413   4.861   3.488   7.064
 6057POPC   C4B76414   4.802   3.512   7.364
 6058POPC   NC376415  22.163  22.196   5.564
 6058POPC   PO476416  22.204  22.118   5.864
 6058POPC   GL176417  22.152  22.207   6.164
 6058POPC   GL276418  22.010  22.134   6.164
 6058POPC   C1A76419  22.157  22.153   6.464
 6058POPC   D2A76420  22.171  22.169   6.764
 6058POPC   C3A76421  22.115  22.180   7.064
 6058POPC   C4A76422  22.126  22.150   7.364
 6058POPC   C1B76423  21.900  22.034   6.464
 6058POPC   C2B76424  21.993  22.037   6.764
 6058POPC   C3B76425  21.964  22.055   7.064
 6058POPC   C4B76426  21.924  22.016   7.364
 6059POPC   NC376427  43.854  40.782   5.564
 6059POPC   PO476428  43.842  40.814   5.864
 6059POPC   GL176429  43.879  40.833   6.164
 6059POPC   GL276430  43.913  40.928   6.164
 6059POPC   C1A76431  43.870  40.831   6.464
 6059POPC   D2A76432  43.881  40.776   6.764
 6059POPC   C3A76433  43.911  40.801   7.064
 6059POPC   C4A76434  43.913  40.753   7.364
 6059POPC   C1B76435  43.917  41.044   6.464
 6059POPC   C2B76436  43.950  40.989   6.764
 6059POPC   C3B76437  43.907  41.056   7.064
 6059POPC   C4B76438  43.932  41.061   7.364
 6060POPC   NC376439   3.568  19.047   5.564
 6060POPC   PO476440   3.506  19.099   5.864
 6060POPC   GL176441   3.500  19.065   6.164
 6060POPC   GL276442   3.398  19.030   6.164
 6060POPC   C1A76443   3.559  19.050   6.464
 6060POPC   D2A76444   3.532  19.075   6.764
 6060POPC   C3A76445   3.518  19.012   7.064
 6060POPC   C4A76446   3.504  19.104   7.364
 6060POPC   C1B76447   3.335  19.069   6.464
 6060POPC   C2B76448   3.270  18.993   6.764
 6060POPC   C3B76449   3.326  19.009   7.064
 6060POPC   C4B76450   3.342  18.985   7.364
 6061POPC   NC376451   2.795  12.104   5.564
 6061POPC   PO476452   2.747  12.104   5.864
 6061POPC   GL176453   2.771  12.089   6.164
 6061POPC   GL276454   2.865  12.218   6.164
 6061POPC   C1A76455   2.784  12.037   6.464
 6061POPC   D2A76456   2.774  12.060   6.764
 6061POPC   C3A76457   2.724  12.113   7.064
 6061POPC   C4A76458   2.760  12.062   7.364
 6061POPC   C1B76459   2.899  12.288   6.464
 6061POPC   C2B76460   2.924  12.238   6.764
 6061POPC   C3B76461   2.957  12.271   7.064
 6061POPC   C4B76462   2.910  12.265   7.364
 6062POPC   NC376463  34.614  15.936   5.564
 6062POPC   PO476464  34.618  15.956   5.864
 6062POPC   GL176465  34.564  15.998   6.164
 6062POPC   GL276466  34.677  16.068   6.164
 6062POPC   C1A76467  34.567  15.923   6.464
 6062POPC   D2A76468  34.567  15.946   6.764
 6062POPC   C3A76469  34.529  15.948   7.064
 6062POPC   C4A76470  34.589  15.942   7.364
 6062POPC   C1B76471  34.821  16.083   6.464
 6062POPC   C2B76472  34.771  16.074   6.764
 6062POPC   C3B76473  34.738  16.073   7.064
 6062POPC   C4B76474  34.766  16.091   7.364
 6063POPC   NC376475  36.872  39.254   5.564
 6063POPC   PO476476  36.865  39.275   5.864
 6063POPC   GL176477  36.942  39.209   6.164
 6063POPC   GL276478  36.771  39.191   6.164
 6063POPC   C1A76479  36.945  39.275   6.464
 6063POPC   D2A76480  36.916  39.257   6.764
 6063POPC   C3A76481  36.862  39.241   7.064
 6063POPC   C4A76482  36.856  39.224   7.364
 6063POPC   C1B76483  36.658  39.165   6.464
 6063POPC   C2B76484  36.646  39.141   6.764
 6063POPC   C3B76485  36.679  39.133   7.064
 6063POPC   C4B76486  36.690  39.164   7.364
 6064POPC   NC376487   8.208  29.125   5.564
 6064POPC   PO476488   8.216  29.169   5.864
 6064POPC   GL176489   8.244  29.192   6.164
 6064POPC   GL276490   8.292  29.261   6.164
 6064POPC   C1A76491   8.169  29.097   6.464
 6064POPC   D2A76492   8.147  29.195   6.764
 6064POPC   C3A76493   8.207  29.141   7.064
 6064POPC   C4A76494   8.162  29.175   7.364
 6064POPC   C1B76495   8.353  29.381   6.464
 6064POPC   C2B76496   8.349  29.311   6.764
 6064POPC   C3B76497   8.372  29.328   7.064
 6064POPC   C4B76498   8.390  29.366   7.364
 6065POPC   NC376499  27.557  31.474   5.564
 6065POPC   PO476500  27.635  31.472   5.864
 6065POPC   GL176501  27.554  31.515   6.164
 6065POPC   GL276502  27.628  31.328   6.164
 6065POPC   C1A76503  27.641  31.484   6.464
 6065POPC   D2A76504  27.616  31.426   6.764
 6065POPC   C3A76505  27.598  31.423   7.064
 6065POPC   C4A76506  27.593  31.442   7.364
 6065POPC   C1B76507  27.668  31.264   6.464
 6065POPC   C2B76508  27.656  31.277   6.764
 6065POPC   C3B76509  27.652  31.198   7.064
 6065POPC   C4B76510  27.628  31.241   7.364
 6066POPC   NC376511   4.276  18.303   5.564
 6066POPC   PO476512   4.349  18.279   5.864
 6066POPC   GL176513   4.294  18.314   6.164
 6066POPC   GL276514   4.205  18.414   6.164
 6066POPC   C1A76515   4.278  18.320   6.464
 6066POPC   D2A76516   4.360  18.316   6.764
 6066POPC   C3A76517   4.362  18.279   7.064
 6066POPC   C4A76518   4.353  18.313   7.364
 6066POPC   C1B76519   4.133  18.422   6.464
 6066POPC   C2B76520   4.166  18.417   6.764
 6066POPC   C3B76521   4.109  18.434   7.064
 6066POPC   C4B76522   4.173  18.432   7.364
 6067POPC   NC376523  34.554  26.035   5.564
 6067POPC   PO476524  34.584  26.005   5.864
 6067POPC   GL176525  34.565  26.011   6.164
 6067POPC   GL276526  34.496  25.946   6.164
 6067POPC   C1A76527  34.542  26.063   6.464
 6067POPC   D2A76528  34.622  26.020   6.764
 6067POPC   C3A76529  34.619  26.019   7.064
 6067POPC   C4A76530  34.534  26.035   7.364
 6067POPC   C1B76531  34.410  25.873   6.464
 6067POPC   C2B76532  34.474  25.873   6.764
 6067POPC   C3B76533  34.444  25.843   7.064
 6067POPC   C4B76534  34.403  25.835   7.364
 6068POPC   NC376535  19.059  19.071   5.564
 6068POPC   PO476536  19.022  19.011   5.864
 6068POPC   GL176537  19.067  19.013   6.164
 6068POPC   GL276538  19.084  19.203   6.164
 6068POPC   C1A76539  19.014  19.053   6.464
 6068POPC   D2A76540  19.076  19.028   6.764
 6068POPC   C3A76541  19.092  19.077   7.064
 6068POPC   C4A76542  19.105  19.060   7.364
 6068POPC   C1B76543  19.149  19.262   6.464
 6068POPC   C2B76544  19.116  19.283   6.764
 6068POPC   C3B76545  19.144  19.306   7.064
 6068POPC   C4B76546  19.111  19.334   7.364
 6069POPC   NC376547   6.646  17.524   5.564
 6069POPC   PO476548   6.609  17.470   5.864
 6069POPC   GL176549   6.622  17.536   6.164
 6069POPC   GL276550   6.606  17.426   6.164
 6069POPC   C1A76551   6.617  17.512   6.464
 6069POPC   D2A76552   6.645  17.537   6.764
 6069POPC   C3A76553   6.672  17.498   7.064
 6069POPC   C4A76554   6.642  17.498   7.364
 6069POPC   C1B76555   6.515  17.316   6.464
 6069POPC   C2B76556   6.434  17.356   6.764
 6069POPC   C3B76557   6.520  17.272   7.064
 6069POPC   C4B76558   6.466  17.323   7.364
 6070POPC   NC376559   8.981  39.275   5.564
 6070POPC   PO476560   9.021  39.223   5.864
 6070POPC   GL176561   9.015  39.235   6.164
 6070POPC   GL276562   9.034  39.111   6.164
 6070POPC   C1A76563   8.970  39.193   6.464
 6070POPC   D2A76564   8.982  39.223   6.764
 6070POPC   C3A76565   8.932  39.203   7.064
 6070POPC   C4A76566   8.971  39.262   7.364
 6070POPC   C1B76567   8.997  38.952   6.464
 6070POPC   C2B76568   9.029  39.002   6.764
 6070POPC   C3B76569   8.962  39.021   7.064
 6070POPC   C4B76570   9.046  38.960   7.364
 6071POPC   NC376571  40.019  15.150   5.564
 6071POPC   PO476572  40.046  15.154   5.864
 6071POPC   GL176573  39.965  15.146   6.164
 6071POPC   GL276574  39.983  15.262   6.164
 6071POPC   C1A76575  40.029  15.208   6.464
 6071POPC   D2A76576  40.034  15.166   6.764
 6071POPC   C3A76577  39.963  15.137   7.064
 6071POPC   C4A76578  39.980  15.140   7.364
 6071POPC   C1B76579  40.064  15.402   6.464
 6071POPC   C2B76580  39.994  15.378   6.764
 6071POPC   C3B76581  40.069  15.426   7.064
 6071POPC   C4B76582  40.041  15.385   7.364
 6072POPC   NC376583  22.153  40.814   5.564
 6072POPC   PO476584  22.116  40.809   5.864
 6072POPC   GL176585  22.184  40.827   6.164
 6072POPC   GL276586  22.174  40.702   6.164
 6072POPC   C1A76587  22.139  40.768   6.464
 6072POPC   D2A76588  22.168  40.746   6.764
 6072POPC   C3A76589  22.197  40.741   7.064
 6072POPC   C4A76590  22.207  40.739   7.364
 6072POPC   C1B76591  22.183  40.567   6.464
 6072POPC   C2B76592  22.102  40.515   6.764
 6072POPC   C3B76593  22.156  40.527   7.064
 6072POPC   C4B76594  22.193  40.582   7.364
 6073POPC   NC376595  15.196  36.928   5.564
 6073POPC   PO476596  15.187  36.939   5.864
 6073POPC   GL176597  15.164  36.910   6.164
 6073POPC   GL276598  15.174  37.061   6.164
 6073POPC   C1A76599  15.133  36.915   6.464
 6073POPC   D2A76600  15.134  36.943   6.764
 6073POPC   C3A76601  15.226  36.940   7.064
 6073POPC   C4A76602  15.188  36.923   7.364
 6073POPC   C1B76603  15.225  37.181   6.464
 6073POPC   C2B76604  15.275  37.144   6.764
 6073POPC   C3B76605  15.275  37.187   7.064
 6073POPC   C4B76606  15.194  37.153   7.364
 6074POPC   NC376607   9.006  16.759   5.564
 6074POPC   PO476608   8.944  16.737   5.864
 6074POPC   GL176609   8.985  16.687   6.164
 6074POPC   GL276610   9.109  16.775   6.164
 6074POPC   C1A76611   8.929  16.753   6.464
 6074POPC   D2A76612   9.014  16.781   6.764
 6074POPC   C3A76613   8.927  16.727   7.064
 6074POPC   C4A76614   8.975  16.693   7.364
 6074POPC   C1B76615   9.143  16.897   6.464
 6074POPC   C2B76616   9.168  16.836   6.764
 6074POPC   C3B76617   9.191  16.854   7.064
 6074POPC   C4B76618   9.140  16.841   7.364
 6075POPC   NC376619  23.697  36.867   5.564
 6075POPC   PO476620  23.711  36.905   5.864
 6075POPC   GL176621  23.738  36.872   6.164
 6075POPC   GL276622  23.851  36.796   6.164
 6075POPC   C1A76623  23.678  36.902   6.464
 6075POPC   D2A76624  23.694  36.916   6.764
 6075POPC   C3A76625  23.719  36.883   7.064
 6075POPC   C4A76626  23.742  36.950   7.364
 6075POPC   C1B76627  23.930  36.767   6.464
 6075POPC   C2B76628  23.959  36.781   6.764
 6075POPC   C3B76629  23.875  36.765   7.064
 6075POPC   C4B76630  23.934  36.769   7.364
 6076POPC   NC376631   4.282  29.107   5.564
 6076POPC   PO476632   4.342  29.106   5.864
 6076POPC   GL176633   4.292  29.165   6.164
 6076POPC   GL276634   4.297  29.314   6.164
 6076POPC   C1A76635   4.318  29.097   6.464
 6076POPC   D2A76636   4.268  29.144   6.764
 6076POPC   C3A76637   4.300  29.118   7.064
 6076POPC   C4A76638   4.354  29.150   7.364
 6076POPC   C1B76639   4.279  29.410   6.464
 6076POPC   C2B76640   4.251  29.345   6.764
 6076POPC   C3B76641   4.320  29.365   7.064
 6076POPC   C4B76642   4.255  29.370   7.364
 6077POPC   NC376643   8.949  29.114   5.564
 6077POPC   PO476644   8.980  29.179   5.864
 6077POPC   GL176645   9.021  29.122   6.164
 6077POPC   GL276646   9.021  29.008   6.164
 6077POPC   C1A76647   8.949  29.138   6.464
 6077POPC   D2A76648   9.002  29.176   6.764
 6077POPC   C3A76649   9.009  29.107   7.064
 6077POPC   C4A76650   8.942  29.156   7.364
 6077POPC   C1B76651   9.133  28.978   6.464
 6077POPC   C2B76652   9.130  28.958   6.764
 6077POPC   C3B76653   9.137  28.926   7.064
 6077POPC   C4B76654   9.070  28.955   7.364
 6078POPC   NC376655  12.079  44.655   5.564
 6078POPC   PO476656  12.067  44.693   5.864
 6078POPC   GL176657  12.030  44.686   6.164
 6078POPC   GL276658  11.911  44.657   6.164
 6078POPC   C1A76659  12.048  44.656   6.464
 6078POPC   D2A76660  12.067  44.649   6.764
 6078POPC   C3A76661  12.084  44.646   7.064
 6078POPC   C4A76662  12.027  44.680   7.364
 6078POPC   C1B76663  11.843  44.573   6.464
 6078POPC   C2B76664  11.832  44.611   6.764
 6078POPC   C3B76665  11.863  44.598   7.064
 6078POPC   C4B76666  11.801  44.648   7.364
 6079POPC   NC376667   8.169   6.607   5.564
 6079POPC   PO476668   8.233   6.638   5.864
 6079POPC   GL176669   8.159   6.595   6.164
 6079POPC   GL276670   8.226   6.706   6.164
 6079POPC   C1A76671   8.155   6.635   6.464
 6079POPC   D2A76672   8.195   6.620   6.764
 6079POPC   C3A76673   8.199   6.659   7.064
 6079POPC   C4A76674   8.187   6.669   7.364
 6079POPC   C1B76675   8.337   6.881   6.464
 6079POPC   C2B76676   8.396   6.849   6.764
 6079POPC   C3B76677   8.376   6.828   7.064
 6079POPC   C4B76678   8.387   6.845   7.364
 6080POPC   NC376679  20.591  13.663   5.564
 6080POPC   PO476680  20.658  13.661   5.864
 6080POPC   GL176681  20.584  13.646   6.164
 6080POPC   GL276682  20.644  13.716   6.164
 6080POPC   C1A76683  20.657  13.581   6.464
 6080POPC   D2A76684  20.604  13.671   6.764
 6080POPC   C3A76685  20.597  13.667   7.064
 6080POPC   C4A76686  20.628  13.644   7.364
 6080POPC   C1B76687  20.605  13.839   6.464
 6080POPC   C2B76688  20.652  13.864   6.764
 6080POPC   C3B76689  20.641  13.832   7.064
 6080POPC   C4B76690  20.607  13.847   7.364
 6081POPC   NC376691  10.490  41.560   5.564
 6081POPC   PO476692  10.507  41.570   5.864
 6081POPC   GL176693  10.476  41.608   6.164
 6081POPC   GL276694  10.582  41.443   6.164
 6081POPC   C1A76695  10.569  41.555   6.464
 6081POPC   D2A76696  10.487  41.587   6.764
 6081POPC   C3A76697  10.490  41.542   7.064
 6081POPC   C4A76698  10.514  41.537   7.364
 6081POPC   C1B76699  10.702  41.363   6.464
 6081POPC   C2B76700  10.725  41.417   6.764
 6081POPC   C3B76701  10.738  41.442   7.064
 6081POPC   C4B76702  10.751  41.410   7.364
 6082POPC   NC376703  44.701   1.215   5.564
 6082POPC   PO476704  44.656   1.242   5.864
 6082POPC   GL176705  44.618   1.189   6.164
 6082POPC   GL276706  44.525   1.194   6.164
 6082POPC   C1A76707  44.694   1.249   6.464
 6082POPC   D2A76708  44.649   1.178   6.764
 6082POPC   C3A76709  44.688   1.171   7.064
 6082POPC   C4A76710  44.629   1.181   7.364
 6082POPC   C1B76711  44.370   1.255   6.464
 6082POPC   C2B76712  44.388   1.226   6.764
 6082POPC   C3B76713  44.448   1.254   7.064
 6082POPC   C4B76714  44.371   1.210   7.364
 6083POPC   NC376715  16.779  20.624   5.564
 6083POPC   PO476716  16.743  20.645   5.864
 6083POPC   GL176717  16.720  20.595   6.164
 6083POPC   GL276718  16.622  20.544   6.164
 6083POPC   C1A76719  16.738  20.604   6.464
 6083POPC   D2A76720  16.751  20.655   6.764
 6083POPC   C3A76721  16.683  20.606   7.064
 6083POPC   C4A76722  16.693  20.642   7.364
 6083POPC   C1B76723  16.501  20.437   6.464
 6083POPC   C2B76724  16.570  20.461   6.764
 6083POPC   C3B76725  16.519  20.454   7.064
 6083POPC   C4B76726  16.524  20.451   7.364
 6084POPC   NC376727  27.557  28.379   5.564
 6084POPC   PO476728  27.613  28.358   5.864
 6084POPC   GL176729  27.561  28.416   6.164
 6084POPC   GL276730  27.497  28.290   6.164
 6084POPC   C1A76731  27.552  28.341   6.464
 6084POPC   D2A76732  27.599  28.384   6.764
 6084POPC   C3A76733  27.559  28.329   7.064
 6084POPC   C4A76734  27.589  28.394   7.364
 6084POPC   C1B76735  27.403  28.260   6.464
 6084POPC   C2B76736  27.321  28.296   6.764
 6084POPC   C3B76737  27.403  28.270   7.064
 6084POPC   C4B76738  27.318  28.271   7.364
 6085POPC   NC376739   4.272   2.006   5.564
 6085POPC   PO476740   4.358   1.945   5.864
 6085POPC   GL176741   4.334   2.013   6.164
 6085POPC   GL276742   4.251   2.127   6.164
 6085POPC   C1A76743   4.353   1.941   6.464
 6085POPC   D2A76744   4.270   2.015   6.764
 6085POPC   C3A76745   4.308   2.022   7.064
 6085POPC   C4A76746   4.295   1.983   7.364
 6085POPC   C1B76747   4.155   2.182   6.464
 6085POPC   C2B76748   4.189   2.184   6.764
 6085POPC   C3B76749   4.183   2.172   7.064
 6085POPC   C4B76750   4.162   2.159   7.364
 6086POPC   NC376751   8.938  43.119   5.564
 6086POPC   PO476752   9.014  43.113   5.864
 6086POPC   GL176753   9.014  43.144   6.164
 6086POPC   GL276754   9.061  43.144   6.164
 6086POPC   C1A76755   9.020  43.088   6.464
 6086POPC   D2A76756   9.014  43.147   6.764
 6086POPC   C3A76757   8.964  43.158   7.064
 6086POPC   C4A76758   8.988  43.119   7.364
 6086POPC   C1B76759   9.163  43.223   6.464
 6086POPC   C2B76760   9.151  43.257   6.764
 6086POPC   C3B76761   9.190  43.290   7.064
 6086POPC   C4B76762   9.169  43.203   7.364
 6087POPC   NC376763  17.522  19.032   5.564
 6087POPC   PO476764  17.533  19.053   5.864
 6087POPC   GL176765  17.493  19.036   6.164
 6087POPC   GL276766  17.561  19.148   6.164
 6087POPC   C1A76767  17.532  19.015   6.464
 6087POPC   D2A76768  17.540  19.080   6.764
 6087POPC   C3A76769  17.515  19.015   7.064
 6087POPC   C4A76770  17.496  19.047   7.364
 6087POPC   C1B76771  17.687  19.186   6.464
 6087POPC   C2B76772  17.684  19.197   6.764
 6087POPC   C3B76773  17.681  19.190   7.064
 6087POPC   C4B76774  17.706  19.200   7.364
 6088POPC   NC376775   2.755  14.392   5.564
 6088POPC   PO476776   2.736  14.413   5.864
 6088POPC   GL176777   2.783  14.420   6.164
 6088POPC   GL276778   2.634  14.497   6.164
 6088POPC   C1A76779   2.718  14.401   6.464
 6088POPC   D2A76780   2.732  14.439   6.764
 6088POPC   C3A76781   2.741  14.405   7.064
 6088POPC   C4A76782   2.718  14.396   7.364
 6088POPC   C1B76783   2.586  14.612   6.464
 6088POPC   C2B76784   2.529  14.593   6.764
 6088POPC   C3B76785   2.576  14.547   7.064
 6088POPC   C4B76786   2.555  14.544   7.364
 6089POPC   NC376787  10.553   7.438   5.564
 6089POPC   PO476788  10.491   7.451   5.864
 6089POPC   GL176789  10.558   7.460   6.164
 6089POPC   GL276790  10.614   7.434   6.164
 6089POPC   C1A76791  10.477   7.455   6.464
 6089POPC   D2A76792  10.507   7.393   6.764
 6089POPC   C3A76793  10.533   7.459   7.064
 6089POPC   C4A76794  10.565   7.386   7.364
 6089POPC   C1B76795  10.816   7.484   6.464
 6089POPC   C2B76796  10.781   7.474   6.764
 6089POPC   C3B76797  10.792   7.460   7.064
 6089POPC   C4B76798  10.788   7.508   7.364
 6090POPC   NC376799  19.107  22.888   5.564
 6090POPC   PO476800  19.040  22.897   5.864
 6090POPC   GL176801  19.074  22.922   6.164
 6090POPC   GL276802  19.201  22.948   6.164
 6090POPC   C1A76803  19.108  22.967   6.464
 6090POPC   D2A76804  19.081  22.931   6.764
 6090POPC   C3A76805  19.009  22.954   7.064
 6090POPC   C4A76806  19.061  22.893   7.364
 6090POPC   C1B76807  19.289  22.928   6.464
 6090POPC   C2B76808  19.267  22.953   6.764
 6090POPC   C3B76809  19.309  22.986   7.064
 6090POPC   C4B76810  19.268  22.972   7.364
 6091POPC   NC376811  16.722  32.248   5.564
 6091POPC   PO476812  16.733  32.250   5.864
 6091POPC   GL176813  16.761  32.205   6.164
 6091POPC   GL276814  16.796  32.406   6.164
 6091POPC   C1A76815  16.761  32.237   6.464
 6091POPC   D2A76816  16.688  32.285   6.764
 6091POPC   C3A76817  16.724  32.224   7.064
 6091POPC   C4A76818  16.761  32.220   7.364
 6091POPC   C1B76819  16.890  32.516   6.464
 6091POPC   C2B76820  16.879  32.449   6.764
 6091POPC   C3B76821  16.815  32.464   7.064
 6091POPC   C4B76822  16.843  32.516   7.364
 6092POPC   NC376823  11.284  42.377   5.564
 6092POPC   PO476824  11.307  42.299   5.864
 6092POPC   GL176825  11.300  42.360   6.164
 6092POPC   GL276826  11.165  42.253   6.164
 6092POPC   C1A76827  11.272  42.287   6.464
 6092POPC   D2A76828  11.316  42.373   6.764
 6092POPC   C3A76829  11.283  42.289   7.064
 6092POPC   C4A76830  11.258  42.346   7.364
 6092POPC   C1B76831  11.070  42.247   6.464
 6092POPC   C2B76832  11.048  42.222   6.764
 6092POPC   C3B76833  11.055  42.237   7.064
 6092POPC   C4B76834  11.073  42.170   7.364
 6093POPC   NC376835  44.623  22.137   5.564
 6093POPC   PO476836  44.710  22.204   5.864
 6093POPC   GL176837  44.619  22.191   6.164
 6093POPC   GL276838  44.644  22.012   6.164
 6093POPC   C1A76839  44.615  22.190   6.464
 6093POPC   D2A76840  44.679  22.155   6.764
 6093POPC   C3A76841  44.697  22.169   7.064
 6093POPC   C4A76842  44.655  22.133   7.364
 6093POPC   C1B76843  44.591  21.960   6.464
 6093POPC   C2B76844  44.612  21.895   6.764
 6093POPC   C3B76845  44.592  21.935   7.064
 6093POPC   C4B76846  44.532  21.932   7.364
 6094POPC   NC376847  23.748  44.640   5.564
 6094POPC   PO476848  23.744  44.674   5.864
 6094POPC   GL176849  23.757  44.650   6.164
 6094POPC   GL276850  23.825  44.722   6.164
 6094POPC   C1A76851  23.715  44.665   6.464
 6094POPC   D2A76852  23.720  44.628   6.764
 6094POPC   C3A76853  23.695  44.632   7.064
 6094POPC   C4A76854  23.708  44.700   7.364
 6094POPC   C1B76855  23.920  44.723   6.464
 6094POPC   C2B76856  23.917  44.754   6.764
 6094POPC   C3B76857  23.978  44.757   7.064
 6094POPC   C4B76858  23.972  44.731   7.364
 6095POPC   NC376859  22.124   1.988   5.564
 6095POPC   PO476860  22.169   1.958   5.864
 6095POPC   GL176861  22.121   1.992   6.164
 6095POPC   GL276862  22.252   1.920   6.164
 6095POPC   C1A76863  22.122   1.951   6.464
 6095POPC   D2A76864  22.143   2.037   6.764
 6095POPC   C3A76865  22.192   2.001   7.064
 6095POPC   C4A76866  22.112   1.993   7.364
 6095POPC   C1B76867  22.406   1.841   6.464
 6095POPC   C2B76868  22.415   1.837   6.764
 6095POPC   C3B76869  22.368   1.884   7.064
 6095POPC   C4B76870  22.356   1.914   7.364
 6096POPC   NC376871  23.693  13.643   5.564
 6096POPC   PO476872  23.670  13.661   5.864
 6096POPC   GL176873  23.699  13.664   6.164
 6096POPC   GL276874  23.638  13.698   6.164
 6096POPC   C1A76875  23.735  13.672   6.464
 6096POPC   D2A76876  23.697  13.665   6.764
 6096POPC   C3A76877  23.681  13.673   7.064
 6096POPC   C4A76878  23.732  13.609   7.364
 6096POPC   C1B76879  23.452  13.765   6.464
 6096POPC   C2B76880  23.473  13.745   6.764
 6096POPC   C3B76881  23.524  13.749   7.064
 6096POPC   C4B76882  23.511  13.765   7.364
 6097POPC   NC376883  16.717  16.766   5.564
 6097POPC   PO476884  16.742  16.751   5.864
 6097POPC   GL176885  16.769  16.701   6.164
 6097POPC   GL276886  16.704  16.898   6.164
 6097POPC   C1A76887  16.721  16.717   6.464
 6097POPC   D2A76888  16.745  16.721   6.764
 6097POPC   C3A76889  16.706  16.767   7.064
 6097POPC   C4A76890  16.692  16.735   7.364
 6097POPC   C1B76891  16.778  16.993   6.464
 6097POPC   C2B76892  16.807  17.015   6.764
 6097POPC   C3B76893  16.777  16.981   7.064
 6097POPC   C4B76894  16.779  16.989   7.364
 6098POPC   NC376895  13.622  43.926   5.564
 6098POPC   PO476896  13.596  43.884   5.864
 6098POPC   GL176897  13.602  43.912   6.164
 6098POPC   GL276898  13.743  43.935   6.164
 6098POPC   C1A76899  13.672  43.863   6.464
 6098POPC   D2A76900  13.631  43.887   6.764
 6098POPC   C3A76901  13.633  43.928   7.064
 6098POPC   C4A76902  13.578  43.901   7.364
 6098POPC   C1B76903  13.886  43.905   6.464
 6098POPC   C2B76904  13.918  43.926   6.764
 6098POPC   C3B76905  13.848  43.868   7.064
 6098POPC   C4B76906  13.905  43.877   7.364
 6099POPC   NC376907  43.837  21.394   5.564
 6099POPC   PO476908  43.875  21.365   5.864
 6099POPC   GL176909  43.875  21.417   6.164
 6099POPC   GL276910  43.987  21.379   6.164
 6099POPC   C1A76911  43.859  21.395   6.464
 6099POPC   D2A76912  43.908  21.377   6.764
 6099POPC   C3A76913  43.906  21.363   7.064
 6099POPC   C4A76914  43.867  21.342   7.364
 6099POPC   C1B76915  44.138  21.270   6.464
 6099POPC   C2B76916  44.073  21.302   6.764
 6099POPC   C3B76917  44.076  21.236   7.064
 6099POPC   C4B76918  44.130  21.330   7.364
 6100POPC   NC376919  36.091   1.211   5.564
 6100POPC   PO476920  36.108   1.241   5.864
 6100POPC   GL176921  36.097   1.189   6.164
 6100POPC   GL276922  36.271   1.255   6.164
 6100POPC   C1A76923  36.116   1.234   6.464
 6100POPC   D2A76924  36.132   1.237   6.764
 6100POPC   C3A76925  36.166   1.208   7.064
 6100POPC   C4A76926  36.130   1.236   7.364
 6100POPC   C1B76927  36.369   1.224   6.464
 6100POPC   C2B76928  36.333   1.237   6.764
 6100POPC   C3B76929  36.363   1.162   7.064
 6100POPC   C4B76930  36.332   1.182   7.364
 6101POPC   NC376931  44.709  16.685   5.564
 6101POPC   PO476932  44.685  16.772   5.864
 6101POPC   GL176933  44.685  16.708   6.164
 6101POPC   GL276934  44.588  16.584   6.164
 6101POPC   C1A76935  44.613  16.691   6.464
 6101POPC   D2A76936  44.696  16.757   6.764
 6101POPC   C3A76937  44.685  16.692   7.064
 6101POPC   C4A76938  44.641  16.687   7.364
 6101POPC   C1B76939  44.531  16.554   6.464
 6101POPC   C2B76940  44.516  16.534   6.764
 6101POPC   C3B76941  44.522  16.551   7.064
 6101POPC   C4B76942  44.538  16.484   7.364
 6102POPC   NC376943   2.762  16.691   5.564
 6102POPC   PO476944   2.767  16.748   5.864
 6102POPC   GL176945   2.755  16.773   6.164
 6102POPC   GL276946   2.679  16.620   6.164
 6102POPC   C1A76947   2.798  16.681   6.464
 6102POPC   D2A76948   2.776  16.720   6.764
 6102POPC   C3A76949   2.812  16.699   7.064
 6102POPC   C4A76950   2.752  16.744   7.364
 6102POPC   C1B76951   2.628  16.515   6.464
 6102POPC   C2B76952   2.661  16.517   6.764
 6102POPC   C3B76953   2.656  16.569   7.064
 6102POPC   C4B76954   2.587  16.570   7.364
 6103POPC   NC376955   8.951   1.190   5.564
 6103POPC   PO476956   8.952   1.172   5.864
 6103POPC   GL176957   9.007   1.261   6.164
 6103POPC   GL276958   9.066   1.278   6.164
 6103POPC   C1A76959   8.969   1.165   6.464
 6103POPC   D2A76960   9.011   1.235   6.764
 6103POPC   C3A76961   8.993   1.250   7.064
 6103POPC   C4A76962   8.931   1.217   7.364
 6103POPC   C1B76963   9.132   1.453   6.464
 6103POPC   C2B76964   9.090   1.382   6.764
 6103POPC   C3B76965   9.096   1.450   7.064
 6103POPC   C4B76966   9.115   1.391   7.364
 6104POPC   NC376967   3.571   9.758   5.564
 6104POPC   PO476968   3.524   9.749   5.864
 6104POPC   GL176969   3.569   9.730   6.164
 6104POPC   GL276970   3.508   9.898   6.164
 6104POPC   C1A76971   3.555   9.785   6.464
 6104POPC   D2A76972   3.570   9.750   6.764
 6104POPC   C3A76973   3.538   9.793   7.064
 6104POPC   C4A76974   3.541   9.785   7.364
 6104POPC   C1B76975   3.535  10.030   6.464
 6104POPC   C2B76976   3.500   9.967   6.764
 6104POPC   C3B76977   3.546   9.989   7.064
 6104POPC   C4B76978   3.549  10.010   7.364
 6105POPC   NC376979  42.383   5.828   5.564
 6105POPC   PO476980  42.381   5.911   5.864
 6105POPC   GL176981  42.288   5.833   6.164
 6105POPC   GL276982  42.302   5.946   6.164
 6105POPC   C1A76983  42.368   5.876   6.464
 6105POPC   D2A76984  42.311   5.848   6.764
 6105POPC   C3A76985  42.350   5.902   7.064
 6105POPC   C4A76986  42.362   5.858   7.364
 6105POPC   C1B76987  42.233   6.070   6.464
 6105POPC   C2B76988  42.166   6.103   6.764
 6105POPC   C3B76989  42.183   6.111   7.064
 6105POPC   C4B76990  42.190   6.038   7.364
 6106POPC   NC376991  42.304  24.506   5.564
 6106POPC   PO476992  42.366  24.493   5.864
 6106POPC   GL176993  42.362  24.445   6.164
 6106POPC   GL276994  42.414  24.492   6.164
 6106POPC   C1A76995  42.321  24.517   6.464
 6106POPC   D2A76996  42.301  24.447   6.764
 6106POPC   C3A76997  42.315  24.440   7.064
 6106POPC   C4A76998  42.314  24.450   7.364
 6106POPC   C1B76999  42.593  24.628   6.464
 6106POPC   C2B77000  42.566  24.634   6.764
 6106POPC   C3B77001  42.523  24.601   7.064
 6106POPC   C4B77002  42.581  24.596   7.364
 6107POPC   NC377003  17.554  33.012   5.564
 6107POPC   PO477004  17.531  33.048   5.864
 6107POPC   GL177005  17.539  33.038   6.164
 6107POPC   GL277006  17.456  33.101   6.164
 6107POPC   C1A77007  17.482  33.038   6.464
 6107POPC   D2A77008  17.520  33.032   6.764
 6107POPC   C3A77009  17.512  32.992   7.064
 6107POPC   C4A77010  17.473  33.046   7.364
 6107POPC   C1B77011  17.327  33.176   6.464
 6107POPC   C2B77012  17.342  33.163   6.764
 6107POPC   C3B77013  17.327  33.231   7.064
 6107POPC   C4B77014  17.324  33.225   7.364
 6108POPC   NC377015  31.521  37.691   5.564
 6108POPC   PO477016  31.447  37.683   5.864
 6108POPC   GL177017  31.446  37.635   6.164
 6108POPC   GL277018  31.383  37.713   6.164
 6108POPC   C1A77019  31.423  37.683   6.464
 6108POPC   D2A77020  31.433  37.660   6.764
 6108POPC   C3A77021  31.483  37.704   7.064
 6108POPC   C4A77022  31.443  37.711   7.364
 6108POPC   C1B77023  31.319  37.862   6.464
 6108POPC   C2B77024  31.298  37.827   6.764
 6108POPC   C3B77025  31.240  37.865   7.064
 6108POPC   C4B77026  31.223  37.835   7.364
 6109POPC   NC377027  23.754  22.152   5.564
 6109POPC   PO477028  23.670  22.162   5.864
 6109POPC   GL177029  23.759  22.202   6.164
 6109POPC   GL277030  23.756  22.298   6.164
 6109POPC   C1A77031  23.733  22.138   6.464
 6109POPC   D2A77032  23.705  22.154   6.764
 6109POPC   C3A77033  23.708  22.190   7.064
 6109POPC   C4A77034  23.702  22.152   7.364
 6109POPC   C1B77035  23.816  22.368   6.464
 6109POPC   C2B77036  23.823  22.428   6.764
 6109POPC   C3B77037  23.769  22.438   7.064
 6109POPC   C4B77038  23.763  22.423   7.364
 6110POPC   NC377039   2.815   9.725   5.564
 6110POPC   PO477040   2.768   9.703   5.864
 6110POPC   GL177041   2.732   9.754   6.164
 6110POPC   GL277042   2.759   9.859   6.164
 6110POPC   C1A77043   2.789   9.788   6.464
 6110POPC   D2A77044   2.808   9.779   6.764
 6110POPC   C3A77045   2.788   9.784   7.064
 6110POPC   C4A77046   2.805   9.704   7.364
 6110POPC   C1B77047   2.780   9.998   6.464
 6110POPC   C2B77048   2.821  10.042   6.764
 6110POPC   C3B77049   2.776   9.951   7.064
 6110POPC   C4B77050   2.786  10.030   7.364
 6111POPC   NC377051  12.803   0.473   5.564
 6111POPC   PO477052  12.880   0.403   5.864
 6111POPC   GL177053  12.852   0.465   6.164
 6111POPC   GL277054  12.864   0.293   6.164
 6111POPC   C1A77055  12.896   0.437   6.464
 6111POPC   D2A77056  12.898   0.405   6.764
 6111POPC   C3A77057  12.886   0.476   7.064
 6111POPC   C4A77058  12.881   0.436   7.364
 6111POPC   C1B77059  12.933   0.183   6.464
 6111POPC   C2B77060  12.927   0.163   6.764
 6111POPC   C3B77061  12.960   0.204   7.064
 6111POPC   C4B77062  12.933   0.163   7.364
 6112POPC   NC377063  29.104  12.079   5.564
 6112POPC   PO477064  29.172  12.081   5.864
 6112POPC   GL177065  29.125  12.106   6.164
 6112POPC   GL277066  28.993  12.062   6.164
 6112POPC   C1A77067  29.160  12.043   6.464
 6112POPC   D2A77068  29.124  12.058   6.764
 6112POPC   C3A77069  29.151  12.098   7.064
 6112POPC   C4A77070  29.130  12.075   7.364
 6112POPC   C1B77071  28.947  12.022   6.464
 6112POPC   C2B77072  28.930  11.944   6.764
 6112POPC   C3B77073  28.923  11.997   7.064
 6112POPC   C4B77074  28.933  11.957   7.364
 6113POPC   NC377075  30.655  25.255   5.564
 6113POPC   PO477076  30.671  25.281   5.864
 6113POPC   GL177077  30.743  25.260   6.164
 6113POPC   GL277078  30.622  25.343   6.164
 6113POPC   C1A77079  30.722  25.310   6.464
 6113POPC   D2A77080  30.689  25.274   6.764
 6113POPC   C3A77081  30.675  25.296   7.064
 6113POPC   C4A77082  30.662  25.255   7.364
 6113POPC   C1B77083  30.447  25.343   6.464
 6113POPC   C2B77084  30.476  25.387   6.764
 6113POPC   C3B77085  30.448  25.365   7.064
 6113POPC   C4B77086  30.474  25.322   7.364
 6114POPC   NC377087  20.589  27.636   5.564
 6114POPC   PO477088  20.645  27.614   5.864
 6114POPC   GL177089  20.581  27.556   6.164
 6114POPC   GL277090  20.680  27.703   6.164
 6114POPC   C1A77091  20.624  27.581   6.464
 6114POPC   D2A77092  20.594  27.625   6.764
 6114POPC   C3A77093  20.578  27.615   7.064
 6114POPC   C4A77094  20.633  27.630   7.364
 6114POPC   C1B77095  20.769  27.759   6.464
 6114POPC   C2B77096  20.771  27.700   6.764
 6114POPC   C3B77097  20.843  27.763   7.064
 6114POPC   C4B77098  20.840  27.781   7.364
 6115POPC   NC377099   4.302  44.690   5.564
 6115POPC   PO477100   4.322  44.703   5.864
 6115POPC   GL177101   4.313  44.687   6.164
 6115POPC   GL277102   4.152  44.677   6.164
 6115POPC   C1A77103   4.290  44.685   6.464
 6115POPC   D2A77104   4.329  44.655   6.764
 6115POPC   C3A77105   4.348  44.711   7.064
 6115POPC   C4A77106   4.313  44.679   7.364
 6115POPC   C1B77107   4.101  44.639   6.464
 6115POPC   C2B77108   4.035  44.624   6.764
 6115POPC   C3B77109   4.069  44.612   7.064
 6115POPC   C4B77110   4.088  44.653   7.364
 6116POPC   NC377111   7.430   9.762   5.564
 6116POPC   PO477112   7.400   9.742   5.864
 6116POPC   GL177113   7.396   9.741   6.164
 6116POPC   GL277114   7.469   9.621   6.164
 6116POPC   C1A77115   7.437   9.726   6.464
 6116POPC   D2A77116   7.415   9.777   6.764
 6116POPC   C3A77117   7.429   9.700   7.064
 6116POPC   C4A77118   7.417   9.765   7.364
 6116POPC   C1B77119   7.557   9.590   6.464
 6116POPC   C2B77120   7.629   9.583   6.764
 6116POPC   C3B77121   7.606   9.549   7.064
 6116POPC   C4B77122   7.624   9.545   7.364
 6117POPC   NC377123  34.584   4.348   5.564
 6117POPC   PO477124  34.607   4.295   5.864
 6117POPC   GL177125  34.530   4.307   6.164
 6117POPC   GL277126  34.505   4.442   6.164
 6117POPC   C1A77127  34.598   4.299   6.464
 6117POPC   D2A77128  34.545   4.289   6.764
 6117POPC   C3A77129  34.605   4.298   7.064
 6117POPC   C4A77130  34.562   4.334   7.364
 6117POPC   C1B77131  34.435   4.523   6.464
 6117POPC   C2B77132  34.416   4.490   6.764
 6117POPC   C3B77133  34.430   4.514   7.064
 6117POPC   C4B77134  34.470   4.474   7.364
 6118POPC   NC377135  20.571  16.721   5.564
 6118POPC   PO477136  20.607  16.686   5.864
 6118POPC   GL177137  20.569  16.737   6.164
 6118POPC   GL277138  20.648  16.827   6.164
 6118POPC   C1A77139  20.586  16.734   6.464
 6118POPC   D2A77140  20.639  16.689   6.764
 6118POPC   C3A77141  20.623  16.733   7.064
 6118POPC   C4A77142  20.593  16.758   7.364
 6118POPC   C1B77143  20.701  16.971   6.464
 6118POPC   C2B77144  20.733  17.001   6.764
 6118POPC   C3B77145  20.658  16.922   7.064
 6118POPC   C4B77146  20.721  16.999   7.364
 6119POPC   NC377147  22.208  26.044   5.564
 6119POPC   PO477148  22.146  26.072   5.864
 6119POPC   GL177149  22.155  26.053   6.164
 6119POPC   GL277150  22.162  26.179   6.164
 6119POPC   C1A77151  22.166  26.001   6.464
 6119POPC   D2A77152  22.114  26.059   6.764
 6119POPC   C3A77153  22.163  26.009   7.064
 6119POPC   C4A77154  22.150  26.067   7.364
 6119POPC   C1B77155  22.104  26.270   6.464
 6119POPC   C2B77156  22.107  26.290   6.764
 6119POPC   C3B77157  22.080  26.255   7.064
 6119POPC   C4B77158  22.110  26.283   7.364
 6120POPC   NC377159   0.484   7.466   5.564
 6120POPC   PO477160   0.441   7.375   5.864
 6120POPC   GL177161   0.429   7.422   6.164
 6120POPC   GL277162   0.394   7.346   6.164
 6120POPC   C1A77163   0.429   7.378   6.464
 6120POPC   D2A77164   0.470   7.419   6.764
 6120POPC   C3A77165   0.466   7.375   7.064
 6120POPC   C4A77166   0.445   7.405   7.364
 6120POPC   C1B77167   0.406   7.199   6.464
 6120POPC   C2B77168   0.383   7.183   6.764
 6120POPC   C3B77169   0.310   7.162   7.064
 6120POPC   C4B77170   0.309   7.187   7.364
 6121POPC   NC377171  38.456  40.799   5.564
 6121POPC   PO477172  38.437  40.809   5.864
 6121POPC   GL177173  38.436  40.823   6.164
 6121POPC   GL277174  38.365  40.653   6.164
 6121POPC   C1A77175  38.435  40.825   6.464
 6121POPC   D2A77176  38.420  40.827   6.764
 6121POPC   C3A77177  38.471  40.788   7.064
 6121POPC   C4A77178  38.427  40.791   7.364
 6121POPC   C1B77179  38.330  40.501   6.464
 6121POPC   C2B77180  38.369  40.566   6.764
 6121POPC   C3B77181  38.412  40.530   7.064
 6121POPC   C4B77182  38.376  40.560   7.364
 6122POPC   NC377183   6.681  39.271   5.564
 6122POPC   PO477184   6.657  39.197   5.864
 6122POPC   GL177185   6.630  39.277   6.164
 6122POPC   GL277186   6.661  39.365   6.164
 6122POPC   C1A77187   6.690  39.211   6.464
 6122POPC   D2A77188   6.631  39.183   6.764
 6122POPC   C3A77189   6.679  39.279   7.064
 6122POPC   C4A77190   6.667  39.245   7.364
 6122POPC   C1B77191   6.682  39.519   6.464
 6122POPC   C2B77192   6.708  39.431   6.764
 6122POPC   C3B77193   6.658  39.458   7.064
 6122POPC   C4B77194   6.701  39.456   7.364
 6123POPC   NC377195  30.665  43.930   5.564
 6123POPC   PO477196  30.693  43.840   5.864
 6123POPC   GL177197  30.694  43.853   6.164
 6123POPC   GL277198  30.558  43.974   6.164
 6123POPC   C1A77199  30.711  43.845   6.464
 6123POPC   D2A77200  30.665  43.918   6.764
 6123POPC   C3A77201  30.707  43.888   7.064
 6123POPC   C4A77202  30.656  43.848   7.364
 6123POPC   C1B77203  30.521  44.087   6.464
 6123POPC   C2B77204  30.497  44.052   6.764
 6123POPC   C3B77205  30.548  44.084   7.064
 6123POPC   C4B77206  30.543  44.041   7.364
 6124POPC   NC377207  43.103  23.698   5.564
 6124POPC   PO477208  43.073  23.672   5.864
 6124POPC   GL177209  43.159  23.689   6.164
 6124POPC   GL277210  43.160  23.630   6.164
 6124POPC   C1A77211  43.081  23.672   6.464
 6124POPC   D2A77212  43.118  23.674   6.764
 6124POPC   C3A77213  43.130  23.753   7.064
 6124POPC   C4A77214  43.131  23.680   7.364
 6124POPC   C1B77215  43.175  23.473   6.464
 6124POPC   C2B77216  43.091  23.499   6.764
 6124POPC   C3B77217  43.119  23.501   7.064
 6124POPC   C4B77218  43.169  23.427   7.364
 6125POPC   NC377219  30.719  22.985   5.564
 6125POPC   PO477220  30.742  22.964   5.864
 6125POPC   GL177221  30.674  22.911   6.164
 6125POPC   GL277222  30.829  22.934   6.164
 6125POPC   C1A77223  30.651  22.917   6.464
 6125POPC   D2A77224  30.662  22.910   6.764
 6125POPC   C3A77225  30.727  22.913   7.064
 6125POPC   C4A77226  30.658  22.933   7.364
 6125POPC   C1B77227  30.934  23.054   6.464
 6125POPC   C2B77228  30.920  23.040   6.764
 6125POPC   C3B77229  30.953  23.040   7.064
 6125POPC   C4B77230  30.908  23.075   7.364
 6126POPC   NC377231  28.400  12.813   5.564
 6126POPC   PO477232  28.347  12.827   5.864
 6126POPC   GL177233  28.390  12.841   6.164
 6126POPC   GL277234  28.404  12.779   6.164
 6126POPC   C1A77235  28.418  12.822   6.464
 6126POPC   D2A77236  28.416  12.813   6.764
 6126POPC   C3A77237  28.379  12.849   7.064
 6126POPC   C4A77238  28.402  12.849   7.364
 6126POPC   C1B77239  28.495  12.677   6.464
 6126POPC   C2B77240  28.535  12.683   6.764
 6126POPC   C3B77241  28.534  12.634   7.064
 6126POPC   C4B77242  28.514  12.630   7.364
 6127POPC   NC377243   5.075  36.133   5.564
 6127POPC   PO477244   5.067  36.085   5.864
 6127POPC   GL177245   5.068  36.114   6.164
 6127POPC   GL277246   5.060  36.001   6.164
 6127POPC   C1A77247   5.069  36.096   6.464
 6127POPC   D2A77248   5.073  36.136   6.764
 6127POPC   C3A77249   5.076  36.084   7.064
 6127POPC   C4A77250   5.064  36.131   7.364
 6127POPC   C1B77251   5.056  35.919   6.464
 6127POPC   C2B77252   4.968  35.901   6.764
 6127POPC   C3B77253   4.962  35.889   7.064
 6127POPC   C4B77254   5.004  35.874   7.364
 6128POPC   NC377255  36.084  15.228   5.564
 6128POPC   PO477256  36.177  15.148   5.864
 6128POPC   GL177257  36.151  15.190   6.164
 6128POPC   GL277258  36.014  15.039   6.164
 6128POPC   C1A77259  36.158  15.219   6.464
 6128POPC   D2A77260  36.106  15.166   6.764
 6128POPC   C3A77261  36.168  15.193   7.064
 6128POPC   C4A77262  36.098  15.138   7.364
 6128POPC   C1B77263  35.961  14.928   6.464
 6128POPC   C2B77264  35.982  14.955   6.764
 6128POPC   C3B77265  35.951  14.982   7.064
 6128POPC   C4B77266  36.030  14.949   7.364
 6129POPC   NC377267   4.355  40.779   5.564
 6129POPC   PO477268   4.298  40.802   5.864
 6129POPC   GL177269   4.321  40.790   6.164
 6129POPC   GL277270   4.255  40.848   6.164
 6129POPC   C1A77271   4.357  40.817   6.464
 6129POPC   D2A77272   4.341  40.802   6.764
 6129POPC   C3A77273   4.357  40.755   7.064
 6129POPC   C4A77274   4.345  40.736   7.364
 6129POPC   C1B77275   4.177  40.995   6.464
 6129POPC   C2B77276   4.099  41.001   6.764
 6129POPC   C3B77277   4.178  41.008   7.064
 6129POPC   C4B77278   4.100  40.950   7.364
 6130POPC   NC377279  12.093  20.593   5.564
 6130POPC   PO477280  12.087  20.635   5.864
 6130POPC   GL177281  12.115  20.646   6.164
 6130POPC   GL277282  12.196  20.660   6.164
 6130POPC   C1A77283  12.098  20.659   6.464
 6130POPC   D2A77284  12.114  20.584   6.764
 6130POPC   C3A77285  12.032  20.588   7.064
 6130POPC   C4A77286  12.110  20.596   7.364
 6130POPC   C1B77287  12.229  20.755   6.464
 6130POPC   C2B77288  12.285  20.749   6.764
 6130POPC   C3B77289  12.248  20.751   7.064
 6130POPC   C4B77290  12.197  20.836   7.364
 6131POPC   NC377291  19.853  26.850   5.564
 6131POPC   PO477292  19.798  26.848   5.864
 6131POPC   GL177293  19.868  26.849   6.164
 6131POPC   GL277294  19.857  26.896   6.164
 6131POPC   C1A77295  19.814  26.805   6.464
 6131POPC   D2A77296  19.869  26.812   6.764
 6131POPC   C3A77297  19.813  26.860   7.064
 6131POPC   C4A77298  19.794  26.863   7.364
 6131POPC   C1B77299  19.860  27.070   6.464
 6131POPC   C2B77300  19.880  27.068   6.764
 6131POPC   C3B77301  19.807  27.051   7.064
 6131POPC   C4B77302  19.874  27.040   7.364
 6132POPC   NC377303  37.658  29.157   5.564
 6132POPC   PO477304  37.655  29.141   5.864
 6132POPC   GL177305  37.696  29.138   6.164
 6132POPC   GL277306  37.693  29.007   6.164
 6132POPC   C1A77307  37.658  29.191   6.464
 6132POPC   D2A77308  37.644  29.097   6.764
 6132POPC   C3A77309  37.724  29.135   7.064
 6132POPC   C4A77310  37.729  29.098   7.364
 6132POPC   C1B77311  37.806  28.918   6.464
 6132POPC   C2B77312  37.786  28.906   6.764
 6132POPC   C3B77313  37.796  28.950   7.064
 6132POPC   C4B77314  37.798  28.865   7.364
 6133POPC   NC377315  12.900  32.219   5.564
 6133POPC   PO477316  12.856  32.275   5.864
 6133POPC   GL177317  12.883  32.232   6.164
 6133POPC   GL277318  12.719  32.302   6.164
 6133POPC   C1A77319  12.878  32.251   6.464
 6133POPC   D2A77320  12.889  32.266   6.764
 6133POPC   C3A77321  12.873  32.249   7.064
 6133POPC   C4A77322  12.835  32.260   7.364
 6133POPC   C1B77323  12.653  32.397   6.464
 6133POPC   C2B77324  12.681  32.420   6.764
 6133POPC   C3B77325  12.622  32.431   7.064
 6133POPC   C4B77326  12.678  32.370   7.364
 6134POPC   NC377327  10.567  10.509   5.564
 6134POPC   PO477328  10.541  10.495   5.864
 6134POPC   GL177329  10.562  10.548   6.164
 6134POPC   GL277330  10.534  10.455   6.164
 6134POPC   C1A77331  10.523  10.474   6.464
 6134POPC   D2A77332  10.484  10.561   6.764
 6134POPC   C3A77333  10.498  10.475   7.064
 6134POPC   C4A77334  10.546  10.493   7.364
 6134POPC   C1B77335  10.591  10.271   6.464
 6134POPC   C2B77336  10.594  10.256   6.764
 6134POPC   C3B77337  10.586  10.301   7.064
 6134POPC   C4B77338  10.643  10.285   7.364
 6135POPC   NC377339   6.670  12.850   5.564
 6135POPC   PO477340   6.609  12.846   5.864
 6135POPC   GL177341   6.627  12.807   6.164
 6135POPC   GL277342   6.695  12.742   6.164
 6135POPC   C1A77343   6.683  12.836   6.464
 6135POPC   D2A77344   6.665  12.813   6.764
 6135POPC   C3A77345   6.604  12.830   7.064
 6135POPC   C4A77346   6.600  12.806   7.364
 6135POPC   C1B77347   6.699  12.605   6.464
 6135POPC   C2B77348   6.646  12.604   6.764
 6135POPC   C3B77349   6.676  12.628   7.064
 6135POPC   C4B77350   6.734  12.597   7.364
 6136POPC   NC377351   2.003   6.653   5.564
 6136POPC   PO477352   1.995   6.645   5.864
 6136POPC   GL177353   1.949   6.610   6.164
 6136POPC   GL277354   2.076   6.771   6.164
 6136POPC   C1A77355   2.022   6.690   6.464
 6136POPC   D2A77356   1.977   6.669   6.764
 6136POPC   C3A77357   2.033   6.615   7.064
 6136POPC   C4A77358   1.999   6.601   7.364
 6136POPC   C1B77359   2.096   6.917   6.464
 6136POPC   C2B77360   2.091   6.827   6.764
 6136POPC   C3B77361   2.142   6.824   7.064
 6136POPC   C4B77362   2.130   6.837   7.364
 6137POPC   NC377363  15.968  24.463   5.564
 6137POPC   PO477364  15.942  24.502   5.864
 6137POPC   GL177365  15.979  24.529   6.164
 6137POPC   GL277366  16.033  24.561   6.164
 6137POPC   C1A77367  15.946  24.481   6.464
 6137POPC   D2A77368  15.941  24.540   6.764
 6137POPC   C3A77369  15.922  24.440   7.064
 6137POPC   C4A77370  15.949  24.526   7.364
 6137POPC   C1B77371  16.081  24.675   6.464
 6137POPC   C2B77372  16.067  24.746   6.764
 6137POPC   C3B77373  16.083  24.681   7.064
 6137POPC   C4B77374  16.069  24.702   7.364
 6138POPC   NC377375   1.996  24.522   5.564
 6138POPC   PO477376   2.025  24.536   5.864
 6138POPC   GL177377   2.024  24.499   6.164
 6138POPC   GL277378   1.908  24.555   6.164
 6138POPC   C1A77379   2.008  24.454   6.464
 6138POPC   D2A77380   1.993  24.465   6.764
 6138POPC   C3A77381   1.986  24.483   7.064
 6138POPC   C4A77382   1.984  24.492   7.364
 6138POPC   C1B77383   1.915  24.744   6.464
 6138POPC   C2B77384   1.905  24.760   6.764
 6138POPC   C3B77385   1.844  24.747   7.064
 6138POPC   C4B77386   1.905  24.675   7.364
 6139POPC   NC377387  22.982  34.615   5.564
 6139POPC   PO477388  22.962  34.592   5.864
 6139POPC   GL177389  22.953  34.577   6.164
 6139POPC   GL277390  22.957  34.666   6.164
 6139POPC   C1A77391  22.914  34.566   6.464
 6139POPC   D2A77392  22.904  34.604   6.764
 6139POPC   C3A77393  22.978  34.594   7.064
 6139POPC   C4A77394  22.926  34.557   7.364
 6139POPC   C1B77395  22.919  34.783   6.464
 6139POPC   C2B77396  22.925  34.824   6.764
 6139POPC   C3B77397  22.944  34.814   7.064
 6139POPC   C4B77398  22.908  34.830   7.364
 6140POPC   NC377399   1.976  43.885   5.564
 6140POPC   PO477400   1.952  43.930   5.864
 6140POPC   GL177401   2.022  43.902   6.164
 6140POPC   GL277402   1.865  43.937   6.164
 6140POPC   C1A77403   2.039  43.850   6.464
 6140POPC   D2A77404   2.023  43.842   6.764
 6140POPC   C3A77405   1.998  43.840   7.064
 6140POPC   C4A77406   1.995  43.870   7.364
 6140POPC   C1B77407   1.787  43.913   6.464
 6140POPC   C2B77408   1.753  43.868   6.764
 6140POPC   C3B77409   1.751  43.850   7.064
 6140POPC   C4B77410   1.739  43.850   7.364
 6141POPC   NC377411  43.849  23.694   5.564
 6141POPC   PO477412  43.880  23.702   5.864
 6141POPC   GL177413  43.857  23.667   6.164
 6141POPC   GL277414  43.902  23.856   6.164
 6141POPC   C1A77415  43.844  23.759   6.464
 6141POPC   D2A77416  43.921  23.694   6.764
 6141POPC   C3A77417  43.837  23.728   7.064
 6141POPC   C4A77418  43.878  23.699   7.364
 6141POPC   C1B77419  43.868  23.917   6.464
 6141POPC   C2B77420  43.835  23.929   6.764
 6141POPC   C3B77421  43.885  24.006   7.064
 6141POPC   C4B77422  43.888  23.945   7.364
 6142POPC   NC377423  39.996  31.499   5.564
 6142POPC   PO477424  39.993  31.464   5.864
 6142POPC   GL177425  39.991  31.447   6.164
 6142POPC   GL277426  40.107  31.592   6.164
 6142POPC   C1A77427  40.028  31.442   6.464
 6142POPC   D2A77428  40.043  31.441   6.764
 6142POPC   C3A77429  40.016  31.449   7.064
 6142POPC   C4A77430  39.991  31.516   7.364
 6142POPC   C1B77431  40.172  31.625   6.464
 6142POPC   C2B77432  40.224  31.600   6.764
 6142POPC   C3B77433  40.194  31.654   7.064
 6142POPC   C4B77434  40.175  31.652   7.364
 6143POPC   NC377435  18.259  37.697   5.564
 6143POPC   PO477436  18.258  37.693   5.864
 6143POPC   GL177437  18.255  37.711   6.164
 6143POPC   GL277438  18.415  37.707   6.164
 6143POPC   C1A77439  18.314  37.693   6.464
 6143POPC   D2A77440  18.317  37.638   6.764
 6143POPC   C3A77441  18.260  37.702   7.064
 6143POPC   C4A77442  18.245  37.714   7.364
 6143POPC   C1B77443  18.558  37.756   6.464
 6143POPC   C2B77444  18.530  37.746   6.764
 6143POPC   C3B77445  18.568  37.764   7.064
 6143POPC   C4B77446  18.547  37.762   7.364
 6144POPC   NC377447  19.100  33.803   5.564
 6144POPC   PO477448  19.062  33.795   5.864
 6144POPC   GL177449  19.070  33.763   6.164
 6144POPC   GL277450  19.129  33.702   6.164
 6144POPC   C1A77451  19.069  33.788   6.464
 6144POPC   D2A77452  19.056  33.796   6.764
 6144POPC   C3A77453  19.089  33.762   7.064
 6144POPC   C4A77454  19.090  33.814   7.364
 6144POPC   C1B77455  19.231  33.694   6.464
 6144POPC   C2B77456  19.224  33.656   6.764
 6144POPC   C3B77457  19.265  33.646   7.064
 6144POPC   C4B77458  19.297  33.654   7.364
 6145POPC   NC377459  11.272  14.442   5.564
 6145POPC   PO477460  11.316  14.406   5.864
 6145POPC   GL177461  11.318  14.425   6.164
 6145POPC   GL277462  11.180  14.462   6.164
 6145POPC   C1A77463  11.288  14.366   6.464
 6145POPC   D2A77464  11.304  14.412   6.764
 6145POPC   C3A77465  11.350  14.420   7.064
 6145POPC   C4A77466  11.252  14.412   7.364
 6145POPC   C1B77467  11.112  14.584   6.464
 6145POPC   C2B77468  11.097  14.593   6.764
 6145POPC   C3B77469  11.110  14.611   7.064
 6145POPC   C4B77470  11.145  14.598   7.364
 6146POPC   NC377471  27.564  42.360   5.564
 6146POPC   PO477472  27.604  42.337   5.864
 6146POPC   GL177473  27.570  42.382   6.164
 6146POPC   GL277474  27.644  42.441   6.164
 6146POPC   C1A77475  27.612  42.315   6.464
 6146POPC   D2A77476  27.600  42.341   6.764
 6146POPC   C3A77477  27.595  42.365   7.064
 6146POPC   C4A77478  27.635  42.298   7.364
 6146POPC   C1B77479  27.742  42.562   6.464
 6146POPC   C2B77480  27.691  42.549   6.764
 6146POPC   C3B77481  27.762  42.556   7.064
 6146POPC   C4B77482  27.688  42.560   7.364
 6147POPC   NC377483  38.494  29.171   5.564
 6147POPC   PO477484  38.475  29.109   5.864
 6147POPC   GL177485  38.418  29.144   6.164
 6147POPC   GL277486  38.586  29.120   6.164
 6147POPC   C1A77487  38.436  29.116   6.464
 6147POPC   D2A77488  38.501  29.152   6.764
 6147POPC   C3A77489  38.502  29.168   7.064
 6147POPC   C4A77490  38.475  29.145   7.364
 6147POPC   C1B77491  38.670  28.977   6.464
 6147POPC   C2B77492  38.621  29.042   6.764
 6147POPC   C3B77493  38.697  29.038   7.064
 6147POPC   C4B77494  38.635  28.964   7.364
 6148POPC   NC377495  33.069  19.884   5.564
 6148POPC   PO477496  33.008  19.818   5.864
 6148POPC   GL177497  33.003  19.877   6.164
 6148POPC   GL277498  33.160  19.934   6.164
 6148POPC   C1A77499  32.981  19.805   6.464
 6148POPC   D2A77500  32.990  19.824   6.764
 6148POPC   C3A77501  32.978  19.862   7.064
 6148POPC   C4A77502  33.032  19.862   7.364
 6148POPC   C1B77503  33.172  20.015   6.464
 6148POPC   C2B77504  33.261  19.969   6.764
 6148POPC   C3B77505  33.235  19.975   7.064
 6148POPC   C4B77506  33.212  19.978   7.364
 6149POPC   NC377507  33.807  26.770   5.564
 6149POPC   PO477508  33.757  26.818   5.864
 6149POPC   GL177509  33.781  26.846   6.164
 6149POPC   GL277510  33.832  26.677   6.164
 6149POPC   C1A77511  33.813  26.854   6.464
 6149POPC   D2A77512  33.831  26.804   6.764
 6149POPC   C3A77513  33.832  26.835   7.064
 6149POPC   C4A77514  33.781  26.862   7.364
 6149POPC   C1B77515  33.791  26.569   6.464
 6149POPC   C2B77516  33.872  26.617   6.764
 6149POPC   C3B77517  33.810  26.609   7.064
 6149POPC   C4B77518  33.819  26.564   7.364
 6150POPC   NC377519  22.145  15.224   5.564
 6150POPC   PO477520  22.131  15.176   5.864
 6150POPC   GL177521  22.168  15.218   6.164
 6150POPC   GL277522  22.127  15.084   6.164
 6150POPC   C1A77523  22.129  15.209   6.464
 6150POPC   D2A77524  22.114  15.155   6.764
 6150POPC   C3A77525  22.116  15.215   7.064
 6150POPC   C4A77526  22.127  15.205   7.364
 6150POPC   C1B77527  21.967  14.935   6.464
 6150POPC   C2B77528  22.027  15.003   6.764
 6150POPC   C3B77529  21.971  14.983   7.064
 6150POPC   C4B77530  22.002  15.015   7.364
 6151POPC   NC377531  23.693  21.431   5.564
 6151POPC   PO477532  23.749  21.401   5.864
 6151POPC   GL177533  23.714  21.362   6.164
 6151POPC   GL277534  23.590  21.337   6.164
 6151POPC   C1A77535  23.732  21.402   6.464
 6151POPC   D2A77536  23.676  21.378   6.764
 6151POPC   C3A77537  23.712  21.359   7.064
 6151POPC   C4A77538  23.750  21.369   7.364
 6151POPC   C1B77539  23.494  21.346   6.464
 6151POPC   C2B77540  23.452  21.286   6.764
 6151POPC   C3B77541  23.466  21.266   7.064
 6151POPC   C4B77542  23.500  21.304   7.364
 6152POPC   NC377543  11.347  35.365   5.564
 6152POPC   PO477544  11.343  35.351   5.864
 6152POPC   GL177545  11.257  35.315   6.164
 6152POPC   GL277546  11.316  35.203   6.164
 6152POPC   C1A77547  11.255  35.388   6.464
 6152POPC   D2A77548  11.306  35.327   6.764
 6152POPC   C3A77549  11.265  35.393   7.064
 6152POPC   C4A77550  11.314  35.314   7.364
 6152POPC   C1B77551  11.219  35.090   6.464
 6152POPC   C2B77552  11.196  35.123   6.764
 6152POPC   C3B77553  11.212  35.089   7.064
 6152POPC   C4B77554  11.276  35.142   7.364
 6153POPC   NC377555  19.085  35.344   5.564
 6153POPC   PO477556  19.045  35.378   5.864
 6153POPC   GL177557  19.104  35.354   6.164
 6153POPC   GL277558  18.957  35.297   6.164
 6153POPC   C1A77559  19.049  35.349   6.464
 6153POPC   D2A77560  19.052  35.304   6.764
 6153POPC   C3A77561  19.062  35.343   7.064
 6153POPC   C4A77562  19.048  35.397   7.364
 6153POPC   C1B77563  18.762  35.281   6.464
 6153POPC   C2B77564  18.848  35.291   6.764
 6153POPC   C3B77565  18.840  35.295   7.064
 6153POPC   C4B77566  18.804  35.353   7.364
 6154POPC   NC377567  20.607  23.697   5.564
 6154POPC   PO477568  20.624  23.699   5.864
 6154POPC   GL177569  20.600  23.727   6.164
 6154POPC   GL277570  20.515  23.689   6.164
 6154POPC   C1A77571  20.563  23.749   6.464
 6154POPC   D2A77572  20.638  23.693   6.764
 6154POPC   C3A77573  20.649  23.760   7.064
 6154POPC   C4A77574  20.602  23.710   7.364
 6154POPC   C1B77575  20.372  23.628   6.464
 6154POPC   C2B77576  20.416  23.596   6.764
 6154POPC   C3B77577  20.396  23.627   7.064
 6154POPC   C4B77578  20.391  23.671   7.364
 6155POPC   NC377579   2.037  33.832   5.564
 6155POPC   PO477580   1.983  33.822   5.864
 6155POPC   GL177581   1.952  33.830   6.164
 6155POPC   GL277582   1.879  33.851   6.164
 6155POPC   C1A77583   2.040  33.834   6.464
 6155POPC   D2A77584   2.028  33.820   6.764
 6155POPC   C3A77585   2.032  33.821   7.064
 6155POPC   C4A77586   1.959  33.774   7.364
 6155POPC   C1B77587   1.784  33.877   6.464
 6155POPC   C2B77588   1.722  33.843   6.764
 6155POPC   C3B77589   1.782  33.882   7.064
 6155POPC   C4B77590   1.767  33.829   7.364
 6156POPC   NC377591  23.704  35.366   5.564
 6156POPC   PO477592  23.739  35.372   5.864
 6156POPC   GL177593  23.737  35.314   6.164
 6156POPC   GL277594  23.786  35.408   6.164
 6156POPC   C1A77595  23.746  35.367   6.464
 6156POPC   D2A77596  23.730  35.376   6.764
 6156POPC   C3A77597  23.689  35.333   7.064
 6156POPC   C4A77598  23.703  35.379   7.364
 6156POPC   C1B77599  23.834  35.525   6.464
 6156POPC   C2B77600  23.886  35.545   6.764
 6156POPC   C3B77601  23.845  35.575   7.064
 6156POPC   C4B77602  23.821  35.530   7.364
 6157POPC   NC377603  27.550  22.934   5.564
 6157POPC   PO477604  27.637  22.962   5.864
 6157POPC   GL177605  27.558  22.890   6.164
 6157POPC   GL277606  27.669  22.865   6.164
 6157POPC   C1A77607  27.557  22.921   6.464
 6157POPC   D2A77608  27.593  22.942   6.764
 6157POPC   C3A77609  27.616  22.935   7.064
 6157POPC   C4A77610  27.588  22.962   7.364
 6157POPC   C1B77611  27.811  22.839   6.464
 6157POPC   C2B77612  27.779  22.846   6.764
 6157POPC   C3B77613  27.803  22.824   7.064
 6157POPC   C4B77614  27.782  22.813   7.364
 6158POPC   NC377615  36.914   8.994   5.564
 6158POPC   PO477616  36.930   8.988   5.864
 6158POPC   GL177617  36.866   9.001   6.164
 6158POPC   GL277618  36.858   8.902   6.164
 6158POPC   C1A77619  36.907   8.961   6.464
 6158POPC   D2A77620  36.905   8.959   6.764
 6158POPC   C3A77621  36.949   8.968   7.064
 6158POPC   C4A77622  36.899   9.021   7.364
 6158POPC   C1B77623  36.746   8.844   6.464
 6158POPC   C2B77624  36.723   8.829   6.764
 6158POPC   C3B77625  36.704   8.784   7.064
 6158POPC   C4B77626  36.747   8.794   7.364
 6159POPC   NC377627  28.325  22.160   5.564
 6159POPC   PO477628  28.389  22.183   5.864
 6159POPC   GL177629  28.362  22.205   6.164
 6159POPC   GL277630  28.350  22.016   6.164
 6159POPC   C1A77631  28.371  22.203   6.464
 6159POPC   D2A77632  28.370  22.177   6.764
 6159POPC   C3A77633  28.412  22.140   7.064
 6159POPC   C4A77634  28.390  22.135   7.364
 6159POPC   C1B77635  28.303  21.961   6.464
 6159POPC   C2B77636  28.280  21.936   6.764
 6159POPC   C3B77637  28.287  21.915   7.064
 6159POPC   C4B77638  28.287  21.900   7.364
 6160POPC   NC377639  33.012  22.969   5.564
 6160POPC   PO477640  32.976  22.969   5.864
 6160POPC   GL177641  33.073  22.950   6.164
 6160POPC   GL277642  33.075  22.798   6.164
 6160POPC   C1A77643  33.066  22.939   6.464
 6160POPC   D2A77644  33.043  22.893   6.764
 6160POPC   C3A77645  33.034  22.920   7.064
 6160POPC   C4A77646  33.014  22.904   7.364
 6160POPC   C1B77647  33.062  22.693   6.464
 6160POPC   C2B77648  33.094  22.745   6.764
 6160POPC   C3B77649  33.090  22.657   7.064
 6160POPC   C4B77650  33.092  22.722   7.364
 6161POPC   NC377651  42.376  35.307   5.564
 6161POPC   PO477652  42.379  35.382   5.864
 6161POPC   GL177653  42.290  35.314   6.164
 6161POPC   GL277654  42.277  35.277   6.164
 6161POPC   C1A77655  42.306  35.400   6.464
 6161POPC   D2A77656  42.303  35.350   6.764
 6161POPC   C3A77657  42.352  35.400   7.064
 6161POPC   C4A77658  42.292  35.342   7.364
 6161POPC   C1B77659  42.259  35.123   6.464
 6161POPC   C2B77660  42.308  35.068   6.764
 6161POPC   C3B77661  42.259  35.074   7.064
 6161POPC   C4B77662  42.329  35.099   7.364
 6162POPC   NC377663  33.045  29.901   5.564
 6162POPC   PO477664  33.009  29.930   5.864
 6162POPC   GL177665  33.040  29.938   6.164
 6162POPC   GL277666  32.933  30.019   6.164
 6162POPC   C1A77667  33.027  29.933   6.464
 6162POPC   D2A77668  33.038  29.928   6.764
 6162POPC   C3A77669  33.056  29.885   7.064
 6162POPC   C4A77670  33.031  29.934   7.364
 6162POPC   C1B77671  32.822  30.094   6.464
 6162POPC   C2B77672  32.836  30.068   6.764
 6162POPC   C3B77673  32.864  30.060   7.064
 6162POPC   C4B77674  32.806  30.037   7.364
 6163POPC   NC377675  14.400  42.328   5.564
 6163POPC   PO477676  14.366  42.313   5.864
 6163POPC   GL177677  14.446  42.304   6.164
 6163POPC   GL277678  14.444  42.425   6.164
 6163POPC   C1A77679  14.441  42.310   6.464
 6163POPC   D2A77680  14.404  42.322   6.764
 6163POPC   C3A77681  14.430  42.314   7.064
 6163POPC   C4A77682  14.365  42.311   7.364
 6163POPC   C1B77683  14.389  42.542   6.464
 6163POPC   C2B77684  14.391  42.549   6.764
 6163POPC   C3B77685  14.382  42.608   7.064
 6163POPC   C4B77686  14.432  42.603   7.364
 6164POPC   NC377687  27.570   3.565   5.564
 6164POPC   PO477688  27.642   3.590   5.864
 6164POPC   GL177689  27.637   3.590   6.164
 6164POPC   GL277690  27.620   3.712   6.164
 6164POPC   C1A77691  27.607   3.549   6.464
 6164POPC   D2A77692  27.640   3.572   6.764
 6164POPC   C3A77693  27.598   3.540   7.064
 6164POPC   C4A77694  27.555   3.524   7.364
 6164POPC   C1B77695  27.667   3.823   6.464
 6164POPC   C2B77696  27.687   3.792   6.764
 6164POPC   C3B77697  27.628   3.827   7.064
 6164POPC   C4B77698  27.656   3.796   7.364
 6165POPC   NC377699  19.823  17.506   5.564
 6165POPC   PO477700  19.825  17.506   5.864
 6165POPC   GL177701  19.799  17.478   6.164
 6165POPC   GL277702  19.894  17.555   6.164
 6165POPC   C1A77703  19.818  17.485   6.464
 6165POPC   D2A77704  19.810  17.477   6.764
 6165POPC   C3A77705  19.844  17.557   7.064
 6165POPC   C4A77706  19.871  17.517   7.364
 6165POPC   C1B77707  19.981  17.719   6.464
 6165POPC   C2B77708  20.034  17.648   6.764
 6165POPC   C3B77709  20.007  17.643   7.064
 6165POPC   C4B77710  20.000  17.659   7.364
 6166POPC   NC377711  26.787  40.781   5.564
 6166POPC   PO477712  26.811  40.809   5.864
 6166POPC   GL177713  26.860  40.832   6.164
 6166POPC   GL277714  26.791  40.647   6.164
 6166POPC   C1A77715  26.769  40.755   6.464
 6166POPC   D2A77716  26.829  40.807   6.764
 6166POPC   C3A77717  26.807  40.803   7.064
 6166POPC   C4A77718  26.799  40.735   7.364
 6166POPC   C1B77719  26.869  40.570   6.464
 6166POPC   C2B77720  26.896  40.539   6.764
 6166POPC   C3B77721  26.876  40.525   7.064
 6166POPC   C4B77722  26.887  40.552   7.364
 6167POPC   NC377723  22.167   3.556   5.564
 6167POPC   PO477724  22.199   3.548   5.864
 6167POPC   GL177725  22.169   3.511   6.164
 6167POPC   GL277726  22.270   3.489   6.164
 6167POPC   C1A77727  22.191   3.529   6.464
 6167POPC   D2A77728  22.172   3.558   6.764
 6167POPC   C3A77729  22.204   3.555   7.064
 6167POPC   C4A77730  22.167   3.530   7.364
 6167POPC   C1B77731  22.445   3.473   6.464
 6167POPC   C2B77732  22.384   3.544   6.764
 6167POPC   C3B77733  22.415   3.567   7.064
 6167POPC   C4B77734  22.387   3.537   7.364
 6168POPC   NC377735  19.013  20.612   5.564
 6168POPC   PO477736  19.092  20.595   5.864
 6168POPC   GL177737  19.053  20.648   6.164
 6168POPC   GL277738  19.004  20.523   6.164
 6168POPC   C1A77739  19.074  20.567   6.464
 6168POPC   D2A77740  19.097  20.636   6.764
 6168POPC   C3A77741  19.065  20.590   7.064
 6168POPC   C4A77742  19.017  20.561   7.364
 6168POPC   C1B77743  18.971  20.410   6.464
 6168POPC   C2B77744  18.993  20.411   6.764
 6168POPC   C3B77745  18.998  20.383   7.064
 6168POPC   C4B77746  18.990  20.421   7.364
 6169POPC   NC377747  39.196  33.772   5.564
 6169POPC   PO477748  39.277  33.769   5.864
 6169POPC   GL177749  39.215  33.775   6.164
 6169POPC   GL277750  39.267  33.713   6.164
 6169POPC   C1A77751  39.275  33.803   6.464
 6169POPC   D2A77752  39.244  33.843   6.764
 6169POPC   C3A77753  39.229  33.802   7.064
 6169POPC   C4A77754  39.184  33.766   7.364
 6169POPC   C1B77755  39.325  33.567   6.464
 6169POPC   C2B77756  39.351  33.551   6.764
 6169POPC   C3B77757  39.351  33.521   7.064
 6169POPC   C4B77758  39.306  33.596   7.364
 6170POPC   NC377759   6.645  39.986   5.564
 6170POPC   PO477760   6.608  40.039   5.864
 6170POPC   GL177761   6.607  40.049   6.164
 6170POPC   GL277762   6.615  39.916   6.164
 6170POPC   C1A77763   6.690  39.991   6.464
 6170POPC   D2A77764   6.646  40.040   6.764
 6170POPC   C3A77765   6.686  40.031   7.064
 6170POPC   C4A77766   6.644  40.028   7.364
 6170POPC   C1B77767   6.588  39.760   6.464
 6170POPC   C2B77768   6.537  39.769   6.764
 6170POPC   C3B77769   6.616  39.810   7.064
 6170POPC   C4B77770   6.556  39.780   7.364
 6171POPC   NC377771   0.412  42.381   5.564
 6171POPC   PO477772   0.461  42.364   5.864
 6171POPC   GL177773   0.399  42.311   6.164
 6171POPC   GL277774   0.529  42.313   6.164
 6171POPC   C1A77775   0.400  42.297   6.464
 6171POPC   D2A77776   0.437  42.340   6.764
 6171POPC   C3A77777   0.447  42.338   7.064
 6171POPC   C4A77778   0.412  42.375   7.364
 6171POPC   C1B77779   0.667  42.279   6.464
 6171POPC   C2B77780   0.698  42.332   6.764
 6171POPC   C3B77781   0.700  42.363   7.064
 6171POPC   C4B77782   0.644  42.361   7.364
 6172POPC   NC377783  36.868   1.207   5.564
 6172POPC   PO477784  36.945   1.232   5.864
 6172POPC   GL177785  36.896   1.227   6.164
 6172POPC   GL277786  36.776   1.313   6.164
 6172POPC   C1A77787  36.905   1.188   6.464
 6172POPC   D2A77788  36.918   1.218   6.764
 6172POPC   C3A77789  36.942   1.166   7.064
 6172POPC   C4A77790  36.900   1.244   7.364
 6172POPC   C1B77791  36.731   1.370   6.464
 6172POPC   C2B77792  36.688   1.367   6.764
 6172POPC   C3B77793  36.667   1.355   7.064
 6172POPC   C4B77794  36.736   1.311   7.364
 6173POPC   NC377795  40.779  40.759   5.564
 6173POPC   PO477796  40.827  40.765   5.864
 6173POPC   GL177797  40.780  40.741   6.164
 6173POPC   GL277798  40.706  40.765   6.164
 6173POPC   C1A77799  40.764  40.783   6.464
 6173POPC   D2A77800  40.778  40.747   6.764
 6173POPC   C3A77801  40.784  40.808   7.064
 6173POPC   C4A77802  40.763  40.777   7.364
 6173POPC   C1B77803  40.546  40.803   6.464
 6173POPC   C2B77804  40.518  40.830   6.764
 6173POPC   C3B77805  40.505  40.854   7.064
 6173POPC   C4B77806  40.502  40.827   7.364
 6174POPC   NC377807  42.320  15.922   5.564
 6174POPC   PO477808  42.299  15.940   5.864
 6174POPC   GL177809  42.372  15.923   6.164
 6174POPC   GL277810  42.282  16.070   6.164
 6174POPC   C1A77811  42.340  15.934   6.464
 6174POPC   D2A77812  42.310  15.906   6.764
 6174POPC   C3A77813  42.350  15.941   7.064
 6174POPC   C4A77814  42.303  15.989   7.364
 6174POPC   C1B77815  42.295  16.222   6.464
 6174POPC   C2B77816  42.343  16.221   6.764
 6174POPC   C3B77817  42.284  16.215   7.064
 6174POPC   C4B77818  42.367  16.227   7.364
 6175POPC   NC377819   2.760  43.096   5.564
 6175POPC   PO477820   2.731  43.074   5.864
 6175POPC   GL177821   2.776  43.097   6.164
 6175POPC   GL277822   2.791  43.250   6.164
 6175POPC   C1A77823   2.798  43.061   6.464
 6175POPC   D2A77824   2.718  43.157   6.764
 6175POPC   C3A77825   2.803  43.122   7.064
 6175POPC   C4A77826   2.756  43.157   7.364
 6175POPC   C1B77827   2.802  43.312   6.464
 6175POPC   C2B77828   2.815  43.375   6.764
 6175POPC   C3B77829   2.787  43.385   7.064
 6175POPC   C4B77830   2.768  43.344   7.364
 6176POPC   NC377831  11.284   0.444   5.564
 6176POPC   PO477832  11.339   0.449   5.864
 6176POPC   GL177833  11.270   0.404   6.164
 6176POPC   GL277834  11.197   0.352   6.164
 6176POPC   C1A77835  11.308   0.391   6.464
 6176POPC   D2A77836  11.349   0.413   6.764
 6176POPC   C3A77837  11.294   0.393   7.064
 6176POPC   C4A77838  11.318   0.402   7.364
 6176POPC   C1B77839  11.193   0.206   6.464
 6176POPC   C2B77840  11.189   0.262   6.764
 6176POPC   C3B77841  11.161   0.233   7.064
 6176POPC   C4B77842  11.197   0.238   7.364
 6177POPC   NC377843   5.916  23.674   5.564
 6177POPC   PO477844   5.861  23.713   5.864
 6177POPC   GL177845   5.887  23.697   6.164
 6177POPC   GL277846   5.737  23.710   6.164
 6177POPC   C1A77847   5.865  23.694   6.464
 6177POPC   D2A77848   5.857  23.755   6.764
 6177POPC   C3A77849   5.859  23.707   7.064
 6177POPC   C4A77850   5.917  23.725   7.364
 6177POPC   C1B77851   5.629  23.639   6.464
 6177POPC   C2B77852   5.586  23.680   6.764
 6177POPC   C3B77853   5.678  23.637   7.064
 6177POPC   C4B77854   5.668  23.628   7.364
 6178POPC   NC377855  36.898   8.230   5.564
 6178POPC   PO477856  36.941   8.187   5.864
 6178POPC   GL177857  36.920   8.185   6.164
 6178POPC   GL277858  36.825   8.251   6.164
 6178POPC   C1A77859  36.876   8.224   6.464
 6178POPC   D2A77860  36.922   8.230   6.764
 6178POPC   C3A77861  36.864   8.230   7.064
 6178POPC   C4A77862  36.864   8.180   7.364
 6178POPC   C1B77863  36.649   8.312   6.464
 6178POPC   C2B77864  36.670   8.304   6.764
 6178POPC   C3B77865  36.646   8.281   7.064
 6178POPC   C4B77866  36.719   8.290   7.364
 6179POPC   NC377867   5.064   0.391   5.564
 6179POPC   PO477868   5.052   0.438   5.864
 6179POPC   GL177869   5.083   0.404   6.164
 6179POPC   GL277870   5.047   0.317   6.164
 6179POPC   C1A77871   5.053   0.406   6.464
 6179POPC   D2A77872   5.134   0.410   6.764
 6179POPC   C3A77873   5.135   0.451   7.064
 6179POPC   C4A77874   5.102   0.441   7.364
 6179POPC   C1B77875   5.034   0.244   6.464
 6179POPC   C2B77876   5.034   0.218   6.764
 6179POPC   C3B77877   4.989   0.179   7.064
 6179POPC   C4B77878   5.023   0.226   7.364
 6180POPC   NC377879  10.572  17.553   5.564
 6180POPC   PO477880  10.566  17.492   5.864
 6180POPC   GL177881  10.495  17.484   6.164
 6180POPC   GL277882  10.611  17.509   6.164
 6180POPC   C1A77883  10.559  17.511   6.464
 6180POPC   D2A77884  10.557  17.461   6.764
 6180POPC   C3A77885  10.499  17.527   7.064
 6180POPC   C4A77886  10.508  17.465   7.364
 6180POPC   C1B77887  10.742  17.648   6.464
 6180POPC   C2B77888  10.793  17.582   6.764
 6180POPC   C3B77889  10.751  17.596   7.064
 6180POPC   C4B77890  10.774  17.631   7.364
 6181POPC   NC377891  33.040  12.894   5.564
 6181POPC   PO477892  33.033  12.837   5.864
 6181POPC   GL177893  33.050  12.847   6.164
 6181POPC   GL277894  33.048  12.986   6.164
 6181POPC   C1A77895  32.982  12.828   6.464
 6181POPC   D2A77896  32.992  12.875   6.764
 6181POPC   C3A77897  33.061  12.817   7.064
 6181POPC   C4A77898  33.061  12.803   7.364
 6181POPC   C1B77899  33.102  13.036   6.464
 6181POPC   C2B77900  33.122  13.062   6.764
 6181POPC   C3B77901  33.131  13.072   7.064
 6181POPC   C4B77902  33.173  13.072   7.364
 6182POPC   NC377903  35.348  15.915   5.564
 6182POPC   PO477904  35.311  15.965   5.864
 6182POPC   GL177905  35.317  15.942   6.164
 6182POPC   GL277906  35.410  16.068   6.164
 6182POPC   C1A77907  35.342  15.918   6.464
 6182POPC   D2A77908  35.330  15.957   6.764
 6182POPC   C3A77909  35.382  15.988   7.064
 6182POPC   C4A77910  35.339  16.002   7.364
 6182POPC   C1B77911  35.561  16.089   6.464
 6182POPC   C2B77912  35.516  16.074   6.764
 6182POPC   C3B77913  35.497  16.096   7.064
 6182POPC   C4B77914  35.578  16.164   7.364
 6183POPC   NC377915  14.382  33.059   5.564
 6183POPC   PO477916  14.399  32.982   5.864
 6183POPC   GL177917  14.402  33.065   6.164
 6183POPC   GL277918  14.459  32.925   6.164
 6183POPC   C1A77919  14.386  33.027   6.464
 6183POPC   D2A77920  14.355  33.001   6.764
 6183POPC   C3A77921  14.357  33.002   7.064
 6183POPC   C4A77922  14.411  33.024   7.364
 6183POPC   C1B77923  14.609  32.829   6.464
 6183POPC   C2B77924  14.599  32.879   6.764
 6183POPC   C3B77925  14.600  32.828   7.064
 6183POPC   C4B77926  14.573  32.793   7.364
 6184POPC   NC377927  43.134   6.656   5.564
 6184POPC   PO477928  43.120   6.613   5.864
 6184POPC   GL177929  43.063   6.603   6.164
 6184POPC   GL277930  43.085   6.571   6.164
 6184POPC   C1A77931  43.118   6.620   6.464
 6184POPC   D2A77932  43.151   6.599   6.764
 6184POPC   C3A77933  43.157   6.669   7.064
 6184POPC   C4A77934  43.121   6.635   7.364
 6184POPC   C1B77935  42.963   6.403   6.464
 6184POPC   C2B77936  43.058   6.418   6.764
 6184POPC   C3B77937  43.053   6.427   7.064
 6184POPC   C4B77938  42.969   6.365   7.364
 6185POPC   NC377939  27.633  13.609   5.564
 6185POPC   PO477940  27.564  13.629   5.864
 6185POPC   GL177941  27.598  13.590   6.164
 6185POPC   GL277942  27.557  13.757   6.164
 6185POPC   C1A77943  27.567  13.624   6.464
 6185POPC   D2A77944  27.577  13.655   6.764
 6185POPC   C3A77945  27.622  13.661   7.064
 6185POPC   C4A77946  27.555  13.613   7.364
 6185POPC   C1B77947  27.466  13.793   6.464
 6185POPC   C2B77948  27.435  13.793   6.764
 6185POPC   C3B77949  27.455  13.854   7.064
 6185POPC   C4B77950  27.446  13.795   7.364
 6186POPC   NC377951  43.851   4.344   5.564
 6186POPC   PO477952  43.896   4.360   5.864
 6186POPC   GL177953  43.844   4.345   6.164
 6186POPC   GL277954  43.966   4.201   6.164
 6186POPC   C1A77955  43.912   4.339   6.464
 6186POPC   D2A77956  43.883   4.347   6.764
 6186POPC   C3A77957  43.889   4.309   7.064
 6186POPC   C4A77958  43.842   4.350   7.364
 6186POPC   C1B77959  44.003   4.123   6.464
 6186POPC   C2B77960  43.973   4.107   6.764
 6186POPC   C3B77961  43.971   4.058   7.064
 6186POPC   C4B77962  43.990   4.118   7.364
 6187POPC   NC377963  43.104  42.291   5.564
 6187POPC   PO477964  43.077  42.336   5.864
 6187POPC   GL177965  43.076  42.334   6.164
 6187POPC   GL277966  42.950  42.377   6.164
 6187POPC   C1A77967  43.099  42.358   6.464
 6187POPC   D2A77968  43.151  42.367   6.764
 6187POPC   C3A77969  43.094  42.323   7.064
 6187POPC   C4A77970  43.106  42.374   7.364
 6187POPC   C1B77971  42.888  42.348   6.464
 6187POPC   C2B77972  42.860  42.311   6.764
 6187POPC   C3B77973  42.831  42.308   7.064
 6187POPC   C4B77974  42.902  42.361   7.364
 6188POPC   NC377975  19.062   6.602   5.564
 6188POPC   PO477976  19.071   6.608   5.864
 6188POPC   GL177977  19.046   6.613   6.164
 6188POPC   GL277978  19.214   6.663   6.164
 6188POPC   C1A77979  19.033   6.602   6.464
 6188POPC   D2A77980  19.046   6.649   6.764
 6188POPC   C3A77981  19.107   6.604   7.064
 6188POPC   C4A77982  19.030   6.693   7.364
 6188POPC   C1B77983  19.304   6.687   6.464
 6188POPC   C2B77984  19.309   6.747   6.764
 6188POPC   C3B77985  19.279   6.665   7.064
 6188POPC   C4B77986  19.343   6.674   7.364
 6189POPC   NC377987   8.196  28.354   5.564
 6189POPC   PO477988   8.244  28.381   5.864
 6189POPC   GL177989   8.172  28.389   6.164
 6189POPC   GL277990   8.095  28.278   6.164
 6189POPC   C1A77991   8.193  28.399   6.464
 6189POPC   D2A77992   8.165  28.350   6.764
 6189POPC   C3A77993   8.206  28.404   7.064
 6189POPC   C4A77994   8.149  28.363   7.364
 6189POPC   C1B77995   7.950  28.274   6.464
 6189POPC   C2B77996   8.039  28.209   6.764
 6189POPC   C3B77997   7.961  28.221   7.064
 6189POPC   C4B77998   8.019  28.256   7.364
 6190POPC   NC377999  43.896   5.835   5.564
 6190POPC   PO478000  43.933   5.910   5.864
 6190POPC   GL178001  43.861   5.859   6.164
 6190POPC   GL278002  43.937   5.941   6.164
 6190POPC   C1A78003  43.870   5.914   6.464
 6190POPC   D2A78004  43.921   5.916   6.764
 6190POPC   C3A78005  43.871   5.915   7.064
 6190POPC   C4A78006  43.908   5.820   7.364
 6190POPC   C1B78007  43.964   6.111   6.464
 6190POPC   C2B78008  43.969   6.128   6.764
 6190POPC   C3B78009  43.934   6.117   7.064
 6190POPC   C4B78010  43.967   6.155   7.364
 6191POPC   NC378011   6.642   8.935   5.564
 6191POPC   PO478012   6.658   8.936   5.864
 6191POPC   GL178013   6.631   8.971   6.164
 6191POPC   GL278014   6.656   9.132   6.164
 6191POPC   C1A78015   6.688   8.943   6.464
 6191POPC   D2A78016   6.650   8.951   6.764
 6191POPC   C3A78017   6.678   8.940   7.064
 6191POPC   C4A78018   6.640   9.012   7.364
 6191POPC   C1B78019   6.781   9.181   6.464
 6191POPC   C2B78020   6.729   9.246   6.764
 6191POPC   C3B78021   6.765   9.194   7.064
 6191POPC   C4B78022   6.688   9.220   7.364
 6192POPC   NC378023  21.358   0.409   5.564
 6192POPC   PO478024  21.375   0.403   5.864
 6192POPC   GL178025  21.422   0.484   6.164
 6192POPC   GL278026  21.418   0.302   6.164
 6192POPC   C1A78027  21.405   0.397   6.464
 6192POPC   D2A78028  21.408   0.400   6.764
 6192POPC   C3A78029  21.355   0.395   7.064
 6192POPC   C4A78030  21.385   0.404   7.364
 6192POPC   C1B78031  21.532   0.193   6.464
 6192POPC   C2B78032  21.552   0.201   6.764
 6192POPC   C3B78033  21.559   0.200   7.064
 6192POPC   C4B78034  21.536   0.243   7.364
 6193POPC   NC378035  34.575   3.509   5.564
 6193POPC   PO478036  34.614   3.585   5.864
 6193POPC   GL178037  34.618   3.528   6.164
 6193POPC   GL278038  34.613   3.416   6.164
 6193POPC   C1A78039  34.545   3.571   6.464
 6193POPC   D2A78040  34.559   3.560   6.764
 6193POPC   C3A78041  34.531   3.587   7.064
 6193POPC   C4A78042  34.589   3.549   7.364
 6193POPC   C1B78043  34.555   3.260   6.464
 6193POPC   C2B78044  34.595   3.338   6.764
 6193POPC   C3B78045  34.544   3.246   7.064
 6193POPC   C4B78046  34.598   3.243   7.364
 6194POPC   NC378047  41.592   4.274   5.564
 6194POPC   PO478048  41.529   4.268   5.864
 6194POPC   GL178049  41.523   4.335   6.164
 6194POPC   GL278050  41.550   4.152   6.164
 6194POPC   C1A78051  41.568   4.303   6.464
 6194POPC   D2A78052  41.588   4.321   6.764
 6194POPC   C3A78053  41.605   4.337   7.064
 6194POPC   C4A78054  41.604   4.268   7.364
 6194POPC   C1B78055  41.499   4.085   6.464
 6194POPC   C2B78056  41.482   4.035   6.764
 6194POPC   C3B78057  41.531   4.118   7.064
 6194POPC   C4B78058  41.463   4.107   7.364
 6195POPC   NC378059  39.263  41.517   5.564
 6195POPC   PO478060  39.273  41.591   5.864
 6195POPC   GL178061  39.218  41.530   6.164
 6195POPC   GL278062  39.122  41.577   6.164
 6195POPC   C1A78063  39.215  41.597   6.464
 6195POPC   D2A78064  39.223  41.591   6.764
 6195POPC   C3A78065  39.271  41.584   7.064
 6195POPC   C4A78066  39.206  41.536   7.364
 6195POPC   C1B78067  38.987  41.486   6.464
 6195POPC   C2B78068  38.961  41.472   6.764
 6195POPC   C3B78069  38.999  41.520   7.064
 6195POPC   C4B78070  39.024  41.553   7.364
 6196POPC   NC378071   0.435  18.237   5.564
 6196POPC   PO478072   0.454  18.284   5.864
 6196POPC   GL178073   0.458  18.242   6.164
 6196POPC   GL278074   0.434  18.144   6.164
 6196POPC   C1A78075   0.399  18.239   6.464
 6196POPC   D2A78076   0.478  18.272   6.764
 6196POPC   C3A78077   0.470  18.308   7.064
 6196POPC   C4A78078   0.462  18.244   7.364
 6196POPC   C1B78079   0.421  18.042   6.464
 6196POPC   C2B78080   0.465  18.053   6.764
 6196POPC   C3B78081   0.501  18.007   7.064
 6196POPC   C4B78082   0.418  18.067   7.364
 6197POPC   NC378083  25.993  35.389   5.564
 6197POPC   PO478084  26.006  35.339   5.864
 6197POPC   GL178085  26.053  35.390   6.164
 6197POPC   GL278086  25.972  35.319   6.164
 6197POPC   C1A78087  26.077  35.346   6.464
 6197POPC   D2A78088  26.004  35.378   6.764
 6197POPC   C3A78089  26.088  35.328   7.064
 6197POPC   C4A78090  26.060  35.315   7.364
 6197POPC   C1B78091  25.847  35.211   6.464
 6197POPC   C2B78092  25.866  35.192   6.764
 6197POPC   C3B78093  25.818  35.223   7.064
 6197POPC   C4B78094  25.855  35.244   7.364
 6198POPC   NC378095  34.538  18.300   5.564
 6198POPC   PO478096  34.544  18.321   5.864
 6198POPC   GL178097  34.574  18.281   6.164
 6198POPC   GL278098  34.678  18.353   6.164
 6198POPC   C1A78099  34.598  18.288   6.464
 6198POPC   D2A78100  34.610  18.309   6.764
 6198POPC   C3A78101  34.562  18.259   7.064
 6198POPC   C4A78102  34.536  18.238   7.364
 6198POPC   C1B78103  34.695  18.503   6.464
 6198POPC   C2B78104  34.713  18.477   6.764
 6198POPC   C3B78105  34.761  18.524   7.064
 6198POPC   C4B78106  34.772  18.473   7.364
 6199POPC   NC378107  13.589  31.463   5.564
 6199POPC   PO478108  13.582  31.454   5.864
 6199POPC   GL178109  13.670  31.521   6.164
 6199POPC   GL278110  13.578  31.338   6.164
 6199POPC   C1A78111  13.659  31.455   6.464
 6199POPC   D2A78112  13.673  31.449   6.764
 6199POPC   C3A78113  13.656  31.476   7.064
 6199POPC   C4A78114  13.617  31.430   7.364
 6199POPC   C1B78115  13.576  31.248   6.464
 6199POPC   C2B78116  13.637  31.189   6.764
 6199POPC   C3B78117  13.588  31.201   7.064
 6199POPC   C4B78118  13.567  31.212   7.364
 6200POPC   NC378119  15.179  26.005   5.564
 6200POPC   PO478120  15.169  26.034   5.864
 6200POPC   GL178121  15.177  26.020   6.164
 6200POPC   GL278122  15.051  26.090   6.164
 6200POPC   C1A78123  15.170  26.049   6.464
 6200POPC   D2A78124  15.199  26.069   6.764
 6200POPC   C3A78125  15.217  26.069   7.064
 6200POPC   C4A78126  15.153  26.054   7.364
 6200POPC   C1B78127  14.972  26.037   6.464
 6200POPC   C2B78128  14.976  26.032   6.764
 6200POPC   C3B78129  14.915  26.074   7.064
 6200POPC   C4B78130  14.975  26.085   7.364
 6201POPC   NC378131  43.915  35.316   5.564
 6201POPC   PO478132  43.906  35.333   5.864
 6201POPC   GL178133  43.925  35.311   6.164
 6201POPC   GL278134  43.949  35.412   6.164
 6201POPC   C1A78135  43.891  35.380   6.464
 6201POPC   D2A78136  43.894  35.368   6.764
 6201POPC   C3A78137  43.883  35.357   7.064
 6201POPC   C4A78138  43.846  35.350   7.364
 6201POPC   C1B78139  44.051  35.571   6.464
 6201POPC   C2B78140  44.009  35.555   6.764
 6201POPC   C3B78141  44.024  35.500   7.064
 6201POPC   C4B78142  44.024  35.555   7.364
 6202POPC   NC378143   8.926  26.768   5.564
 6202POPC   PO478144   8.942  26.769   5.864
 6202POPC   GL178145   8.944  26.838   6.164
 6202POPC   GL278146   9.062  26.772   6.164
 6202POPC   C1A78147   8.992  26.825   6.464
 6202POPC   D2A78148   8.949  26.813   6.764
 6202POPC   C3A78149   8.966  26.849   7.064
 6202POPC   C4A78150   9.017  26.811   7.364
 6202POPC   C1B78151   9.221  26.714   6.464
 6202POPC   C2B78152   9.255  26.801   6.764
 6202POPC   C3B78153   9.232  26.773   7.064
 6202POPC   C4B78154   9.171  26.782   7.364
 6203POPC   NC378155  33.764  42.382   5.564
 6203POPC   PO478156  33.812  42.324   5.864
 6203POPC   GL178157  33.763  42.331   6.164
 6203POPC   GL278158  33.702  42.398   6.164
 6203POPC   C1A78159  33.759  42.358   6.464
 6203POPC   D2A78160  33.764  42.306   6.764
 6203POPC   C3A78161  33.801  42.346   7.064
 6203POPC   C4A78162  33.817  42.320   7.364
 6203POPC   C1B78163  33.556  42.457   6.464
 6203POPC   C2B78164  33.577  42.456   6.764
 6203POPC   C3B78165  33.553  42.522   7.064
 6203POPC   C4B78166  33.620  42.507   7.364
 6204POPC   NC378167  36.109   3.545   5.564
 6204POPC   PO478168  36.116   3.576   5.864
 6204POPC   GL178169  36.133   3.501   6.164
 6204POPC   GL278170  36.261   3.573   6.164
 6204POPC   C1A78171  36.084   3.586   6.464
 6204POPC   D2A78172  36.096   3.547   6.764
 6204POPC   C3A78173  36.176   3.553   7.064
 6204POPC   C4A78174  36.150   3.497   7.364
 6204POPC   C1B78175  36.362   3.620   6.464
 6204POPC   C2B78176  36.316   3.663   6.764
 6204POPC   C3B78177  36.373   3.664   7.064
 6204POPC   C4B78178  36.342   3.656   7.364
 6205POPC   NC378179  15.967  19.072   5.564
 6205POPC   PO478180  15.952  19.048   5.864
 6205POPC   GL178181  15.950  19.062   6.164
 6205POPC   GL278182  16.076  19.135   6.164
 6205POPC   C1A78183  15.916  19.077   6.464
 6205POPC   D2A78184  15.953  19.092   6.764
 6205POPC   C3A78185  15.938  19.103   7.064
 6205POPC   C4A78186  15.954  19.090   7.364
 6205POPC   C1B78187  16.226  19.121   6.464
 6205POPC   C2B78188  16.197  19.178   6.764
 6205POPC   C3B78189  16.174  19.105   7.064
 6205POPC   C4B78190  16.220  19.114   7.364
 6206POPC   NC378191   7.469   7.441   5.564
 6206POPC   PO478192   7.462   7.437   5.864
 6206POPC   GL178193   7.443   7.406   6.164
 6206POPC   GL278194   7.481   7.318   6.164
 6206POPC   C1A78195   7.424   7.374   6.464
 6206POPC   D2A78196   7.456   7.374   6.764
 6206POPC   C3A78197   7.440   7.375   7.064
 6206POPC   C4A78198   7.442   7.396   7.364
 6206POPC   C1B78199   7.438   7.162   6.464
 6206POPC   C2B78200   7.526   7.151   6.764
 6206POPC   C3B78201   7.508   7.211   7.064
 6206POPC   C4B78202   7.479   7.192   7.364
 6207POPC   NC378203  14.371  24.440   5.564
 6207POPC   PO478204  14.371  24.467   5.864
 6207POPC   GL178205  14.419  24.517   6.164
 6207POPC   GL278206  14.433  24.561   6.164
 6207POPC   C1A78207  14.395  24.534   6.464
 6207POPC   D2A78208  14.385  24.450   6.764
 6207POPC   C3A78209  14.381  24.472   7.064
 6207POPC   C4A78210  14.381  24.504   7.364
 6207POPC   C1B78211  14.523  24.751   6.464
 6207POPC   C2B78212  14.522  24.668   6.764
 6207POPC   C3B78213  14.481  24.751   7.064
 6207POPC   C4B78214  14.498  24.667   7.364
 6208POPC   NC378215   5.046  16.744   5.564
 6208POPC   PO478216   5.058  16.761   5.864
 6208POPC   GL178217   5.072  16.778   6.164
 6208POPC   GL278218   5.229  16.718   6.164
 6208POPC   C1A78219   5.111  16.691   6.464
 6208POPC   D2A78220   5.124  16.763   6.764
 6208POPC   C3A78221   5.106  16.717   7.064
 6208POPC   C4A78222   5.047  16.747   7.364
 6208POPC   C1B78223   5.343  16.650   6.464
 6208POPC   C2B78224   5.374  16.656   6.764
 6208POPC   C3B78225   5.306  16.649   7.064
 6208POPC   C4B78226   5.349  16.701   7.364
 6209POPC   NC378227  44.685   8.168   5.564
 6209POPC   PO478228  44.633   8.242   5.864
 6209POPC   GL178229  44.617   8.230   6.164
 6209POPC   GL278230  44.777   8.205   6.164
 6209POPC   C1A78231  44.692   8.197   6.464
 6209POPC   D2A78232  44.640   8.213   6.764
 6209POPC   C3A78233  44.645   8.172   7.064
 6209POPC   C4A78234  44.701   8.232   7.364
 6209POPC   C1B78235  44.923   8.157   6.464
 6209POPC   C2B78236  44.875   8.096   6.764
 6209POPC   C3B78237  44.898   8.096   7.064
 6209POPC   C4B78238  44.950   8.139   7.364
 6210POPC   NC378239  32.255   4.296   5.564
 6210POPC   PO478240  32.257   4.332   5.864
 6210POPC   GL178241  32.278   4.273   6.164
 6210POPC   GL278242  32.079   4.268   6.164
 6210POPC   C1A78243  32.264   4.334   6.464
 6210POPC   D2A78244  32.240   4.301   6.764
 6210POPC   C3A78245  32.287   4.332   7.064
 6210POPC   C4A78246  32.293   4.318   7.364
 6210POPC   C1B78247  31.980   4.271   6.464
 6210POPC   C2B78248  31.979   4.283   6.764
 6210POPC   C3B78249  32.005   4.269   7.064
 6210POPC   C4B78250  32.018   4.211   7.364
 6211POPC   NC378251  22.146  36.909   5.564
 6211POPC   PO478252  22.128  36.920   5.864
 6211POPC   GL178253  22.176  36.866   6.164
 6211POPC   GL278254  22.272  37.007   6.164
 6211POPC   C1A78255  22.187  36.903   6.464
 6211POPC   D2A78256  22.179  36.875   6.764
 6211POPC   C3A78257  22.197  36.926   7.064
 6211POPC   C4A78258  22.180  36.866   7.364
 6211POPC   C1B78259  22.405  37.026   6.464
 6211POPC   C2B78260  22.348  37.080   6.764
 6211POPC   C3B78261  22.398  37.032   7.064
 6211POPC   C4B78262  22.337  37.074   7.364
 6212POPC   NC378263  13.579  33.026   5.564
 6212POPC   PO478264  13.621  32.999   5.864
 6212POPC   GL178265  13.651  33.050   6.164
 6212POPC   GL278266  13.739  33.126   6.164
 6212POPC   C1A78267  13.623  33.058   6.464
 6212POPC   D2A78268  13.595  33.041   6.764
 6212POPC   C3A78269  13.666  33.051   7.064
 6212POPC   C4A78270  13.640  33.018   7.364
 6212POPC   C1B78271  13.877  33.119   6.464
 6212POPC   C2B78272  13.803  33.111   6.764
 6212POPC   C3B78273  13.815  33.118   7.064
 6212POPC   C4B78274  13.865  33.132   7.364
 6213POPC   NC378275  43.132  29.885   5.564
 6213POPC   PO478276  43.063  29.922   5.864
 6213POPC   GL178277  43.078  29.918   6.164
 6213POPC   GL278278  43.166  29.769   6.164
 6213POPC   C1A78279  43.063  29.962   6.464
 6213POPC   D2A78280  43.137  29.969   6.764
 6213POPC   C3A78281  43.160  29.954   7.064
 6213POPC   C4A78282  43.110  29.932   7.364
 6213POPC   C1B78283  43.158  29.692   6.464
 6213POPC   C2B78284  43.211  29.734   6.764
 6213POPC   C3B78285  43.243  29.649   7.064
 6213POPC   C4B78286  43.200  29.699   7.364
 6214POPC   NC378287  22.902  16.697   5.564
 6214POPC   PO478288  22.913  16.755   5.864
 6214POPC   GL178289  22.901  16.729   6.164
 6214POPC   GL278290  23.080  16.670   6.164
 6214POPC   C1A78291  22.914  16.771   6.464
 6214POPC   D2A78292  22.951  16.690   6.764
 6214POPC   C3A78293  22.968  16.767   7.064
 6214POPC   C4A78294  22.941  16.748   7.364
 6214POPC   C1B78295  23.148  16.710   6.464
 6214POPC   C2B78296  23.221  16.717   6.764
 6214POPC   C3B78297  23.151  16.655   7.064
 6214POPC   C4B78298  23.159  16.727   7.364
 6215POPC   NC378299  40.813   9.708   5.564
 6215POPC   PO478300  40.809   9.757   5.864
 6215POPC   GL178301  40.742   9.779   6.164
 6215POPC   GL278302  40.862   9.656   6.164
 6215POPC   C1A78303  40.740   9.756   6.464
 6215POPC   D2A78304  40.816   9.796   6.764
 6215POPC   C3A78305  40.798   9.765   7.064
 6215POPC   C4A78306  40.778   9.772   7.364
 6215POPC   C1B78307  40.843   9.470   6.464
 6215POPC   C2B78308  40.901   9.531   6.764
 6215POPC   C3B78309  40.875   9.530   7.064
 6215POPC   C4B78310  40.894   9.504   7.364
 6216POPC   NC378311   9.794  23.682   5.564
 6216POPC   PO478312   9.757  23.718   5.864
 6216POPC   GL178313   9.769  23.694   6.164
 6216POPC   GL278314   9.733  23.549   6.164
 6216POPC   C1A78315   9.775  23.715   6.464
 6216POPC   D2A78316   9.715  23.693   6.764
 6216POPC   C3A78317   9.699  23.740   7.064
 6216POPC   C4A78318   9.778  23.734   7.364
 6216POPC   C1B78319   9.658  23.519   6.464
 6216POPC   C2B78320   9.639  23.476   6.764
 6216POPC   C3B78321   9.617  23.514   7.064
 6216POPC   C4B78322   9.666  23.489   7.364
 6217POPC   NC378323  32.990  41.583   5.564
 6217POPC   PO478324  33.071  41.561   5.864
 6217POPC   GL178325  33.072  41.565   6.164
 6217POPC   GL278326  32.947  41.673   6.164
 6217POPC   C1A78327  33.057  41.592   6.464
 6217POPC   D2A78328  33.024  41.591   6.764
 6217POPC   C3A78329  33.018  41.586   7.064
 6217POPC   C4A78330  33.039  41.588   7.364
 6217POPC   C1B78331  32.857  41.711   6.464
 6217POPC   C2B78332  32.899  41.731   6.764
 6217POPC   C3B78333  32.847  41.755   7.064
 6217POPC   C4B78334  32.900  41.748   7.364
 6218POPC   NC378335  22.160  40.053   5.564
 6218POPC   PO478336  22.210  40.044   5.864
 6218POPC   GL178337  22.208  40.009   6.164
 6218POPC   GL278338  22.029  39.952   6.164
 6218POPC   C1A78339  22.165  40.011   6.464
 6218POPC   D2A78340  22.172  40.000   6.764
 6218POPC   C3A78341  22.190  39.967   7.064
 6218POPC   C4A78342  22.137  39.974   7.364
 6218POPC   C1B78343  21.966  39.888   6.464
 6218POPC   C2B78344  21.944  39.891   6.764
 6218POPC   C3B78345  21.941  39.876   7.064
 6218POPC   C4B78346  21.973  39.901   7.364
 6219POPC   NC378347  26.828   2.003   5.564
 6219POPC   PO478348  26.866   1.968   5.864
 6219POPC   GL178349  26.852   2.035   6.164
 6219POPC   GL278350  26.795   2.076   6.164
 6219POPC   C1A78351  26.835   2.029   6.464
 6219POPC   D2A78352  26.848   2.038   6.764
 6219POPC   C3A78353  26.860   1.958   7.064
 6219POPC   C4A78354  26.797   1.997   7.364
 6219POPC   C1B78355  26.804   2.235   6.464
 6219POPC   C2B78356  26.733   2.284   6.764
 6219POPC   C3B78357  26.804   2.239   7.064
 6219POPC   C4B78358  26.801   2.270   7.364
 6220POPC   NC378359  25.291  12.804   5.564
 6220POPC   PO478360  25.265  12.885   5.864
 6220POPC   GL178361  25.223  12.803   6.164
 6220POPC   GL278362  25.159  12.867   6.164
 6220POPC   C1A78363  25.279  12.823   6.464
 6220POPC   D2A78364  25.228  12.876   6.764
 6220POPC   C3A78365  25.268  12.857   7.064
 6220POPC   C4A78366  25.276  12.856   7.364
 6220POPC   C1B78367  24.967  12.824   6.464
 6220POPC   C2B78368  24.974  12.843   6.764
 6220POPC   C3B78369  25.015  12.841   7.064
 6220POPC   C4B78370  25.018  12.913   7.364
 6221POPC   NC378371  30.706  20.564   5.564
 6221POPC   PO478372  30.651  20.597   5.864
 6221POPC   GL178373  30.725  20.652   6.164
 6221POPC   GL278374  30.835  20.658   6.164
 6221POPC   C1A78375  30.702  20.648   6.464
 6221POPC   D2A78376  30.730  20.648   6.764
 6221POPC   C3A78377  30.722  20.601   7.064
 6221POPC   C4A78378  30.709  20.582   7.364
 6221POPC   C1B78379  30.966  20.745   6.464
 6221POPC   C2B78380  30.902  20.737   6.764
 6221POPC   C3B78381  30.889  20.740   7.064
 6221POPC   C4B78382  30.924  20.740   7.364
 6222POPC   NC378383  31.488  41.582   5.564
 6222POPC   PO478384  31.429  41.513   5.864
 6222POPC   GL178385  31.476  41.557   6.164
 6222POPC   GL278386  31.611  41.508   6.164
 6222POPC   C1A78387  31.510  41.594   6.464
 6222POPC   D2A78388  31.497  41.603   6.764
 6222POPC   C3A78389  31.438  41.543   7.064
 6222POPC   C4A78390  31.513  41.518   7.364
 6222POPC   C1B78391  31.738  41.459   6.464
 6222POPC   C2B78392  31.759  41.522   6.764
 6222POPC   C3B78393  31.698  41.457   7.064
 6222POPC   C4B78394  31.667  41.542   7.364
 6223POPC   NC378395  32.257  29.910   5.564
 6223POPC   PO478396  32.245  29.944   5.864
 6223POPC   GL178397  32.256  29.878   6.164
 6223POPC   GL278398  32.151  29.930   6.164
 6223POPC   C1A78399  32.253  29.918   6.464
 6223POPC   D2A78400  32.247  29.882   6.764
 6223POPC   C3A78401  32.202  29.913   7.064
 6223POPC   C4A78402  32.294  29.969   7.364
 6223POPC   C1B78403  31.959  29.840   6.464
 6223POPC   C2B78404  32.025  29.857   6.764
 6223POPC   C3B78405  31.955  29.831   7.064
 6223POPC   C4B78406  31.961  29.838   7.364
 6224POPC   NC378407  33.818  38.418   5.564
 6224POPC   PO478408  33.811  38.500   5.864
 6224POPC   GL178409  33.781  38.436   6.164
 6224POPC   GL278410  33.708  38.572   6.164
 6224POPC   C1A78411  33.759  38.474   6.464
 6224POPC   D2A78412  33.808  38.412   6.764
 6224POPC   C3A78413  33.813  38.406   7.064
 6224POPC   C4A78414  33.790  38.487   7.364
 6224POPC   C1B78415  33.698  38.667   6.464
 6224POPC   C2B78416  33.752  38.677   6.764
 6224POPC   C3B78417  33.724  38.641   7.064
 6224POPC   C4B78418  33.666  38.644   7.364
 6225POPC   NC378419  18.278  12.814   5.564
 6225POPC   PO478420  18.284  12.861   5.864
 6225POPC   GL178421  18.310  12.835   6.164
 6225POPC   GL278422  18.222  12.748   6.164
 6225POPC   C1A78423  18.309  12.890   6.464
 6225POPC   D2A78424  18.291  12.899   6.764
 6225POPC   C3A78425  18.331  12.826   7.064
 6225POPC   C4A78426  18.287  12.898   7.364
 6225POPC   C1B78427  18.280  12.567   6.464
 6225POPC   C2B78428  18.254  12.583   6.764
 6225POPC   C3B78429  18.264  12.651   7.064
 6225POPC   C4B78430  18.305  12.623   7.364
 6226POPC   NC378431  19.030  25.273   5.564
 6226POPC   PO478432  19.020  25.311   5.864
 6226POPC   GL178433  19.049  25.297   6.164
 6226POPC   GL278434  19.012  25.348   6.164
 6226POPC   C1A78435  19.045  25.223   6.464
 6226POPC   D2A78436  19.070  25.242   6.764
 6226POPC   C3A78437  19.052  25.232   7.064
 6226POPC   C4A78438  19.084  25.285   7.364
 6226POPC   C1B78439  19.012  25.469   6.464
 6226POPC   C2B78440  19.074  25.528   6.764
 6226POPC   C3B78441  19.012  25.537   7.064
 6226POPC   C4B78442  18.994  25.502   7.364
 6227POPC   NC378443   2.739   8.929   5.564
 6227POPC   PO478444   2.804   9.021   5.864
 6227POPC   GL178445   2.794   8.926   6.164
 6227POPC   GL278446   2.795   8.874   6.164
 6227POPC   C1A78447   2.768   8.981   6.464
 6227POPC   D2A78448   2.740   8.976   6.764
 6227POPC   C3A78449   2.788   9.012   7.064
 6227POPC   C4A78450   2.746   8.995   7.364
 6227POPC   C1B78451   2.822   8.762   6.464
 6227POPC   C2B78452   2.850   8.687   6.764
 6227POPC   C3B78453   2.795   8.753   7.064
 6227POPC   C4B78454   2.841   8.776   7.364
 6228POPC   NC378455  26.074  43.085   5.564
 6228POPC   PO478456  26.054  43.152   5.864
 6228POPC   GL178457  26.057  43.111   6.164
 6228POPC   GL278458  26.103  42.978   6.164
 6228POPC   C1A78459  26.053  43.080   6.464
 6228POPC   D2A78460  26.010  43.142   6.764
 6228POPC   C3A78461  26.068  43.151   7.064
 6228POPC   C4A78462  26.037  43.072   7.364
 6228POPC   C1B78463  26.079  42.913   6.464
 6228POPC   C2B78464  26.099  42.919   6.764
 6228POPC   C3B78465  26.114  42.857   7.064
 6228POPC   C4B78466  26.150  42.908   7.364
 6229POPC   NC378467  41.606  19.796   5.564
 6229POPC   PO478468  41.582  19.840   5.864
 6229POPC   GL178469  41.530  19.813   6.164
 6229POPC   GL278470  41.656  19.849   6.164
 6229POPC   C1A78471  41.605  19.855   6.464
 6229POPC   D2A78472  41.569  19.804   6.764
 6229POPC   C3A78473  41.554  19.823   7.064
 6229POPC   C4A78474  41.539  19.883   7.364
 6229POPC   C1B78475  41.786  19.852   6.464
 6229POPC   C2B78476  41.818  19.834   6.764
 6229POPC   C3B78477  41.783  19.853   7.064
 6229POPC   C4B78478  41.776  19.851   7.364
 6230POPC   NC378479  32.240  17.504   5.564
 6230POPC   PO478480  32.262  17.509   5.864
 6230POPC   GL178481  32.226  17.528   6.164
 6230POPC   GL278482  32.148  17.578   6.164
 6230POPC   C1A78483  32.252  17.480   6.464
 6230POPC   D2A78484  32.243  17.497   6.764
 6230POPC   C3A78485  32.287  17.515   7.064
 6230POPC   C4A78486  32.216  17.535   7.364
 6230POPC   C1B78487  32.121  17.733   6.464
 6230POPC   C2B78488  32.071  17.724   6.764
 6230POPC   C3B78489  32.097  17.698   7.064
 6230POPC   C4B78490  32.056  17.760   7.364
 6231POPC   NC378491  15.133  18.233   5.564
 6231POPC   PO478492  15.193  18.299   5.864
 6231POPC   GL178493  15.229  18.296   6.164
 6231POPC   GL278494  15.037  18.335   6.164
 6231POPC   C1A78495  15.189  18.289   6.464
 6231POPC   D2A78496  15.185  18.289   6.764
 6231POPC   C3A78497  15.228  18.254   7.064
 6231POPC   C4A78498  15.201  18.269   7.364
 6231POPC   C1B78499  14.898  18.301   6.464
 6231POPC   C2B78500  14.943  18.352   6.764
 6231POPC   C3B78501  14.904  18.302   7.064
 6231POPC   C4B78502  14.903  18.316   7.364
 6232POPC   NC378503   8.993  39.995   5.564
 6232POPC   PO478504   8.958  40.016   5.864
 6232POPC   GL178505   9.001  39.969   6.164
 6232POPC   GL278506   8.967  40.145   6.164
 6232POPC   C1A78507   8.946  39.988   6.464
 6232POPC   D2A78508   8.926  39.987   6.764
 6232POPC   C3A78509   8.926  40.012   7.064
 6232POPC   C4A78510   8.958  40.016   7.364
 6232POPC   C1B78511   8.910  40.276   6.464
 6232POPC   C2B78512   8.886  40.291   6.764
 6232POPC   C3B78513   8.876  40.289   7.064
 6232POPC   C4B78514   8.938  40.290   7.364
 6233POPC   NC378515  11.261  44.654   5.564
 6233POPC   PO478516  11.289  44.667   5.864
 6233POPC   GL178517  11.344  44.617   6.164
 6233POPC   GL278518  11.419  44.582   6.164
 6233POPC   C1A78519  11.274  44.617   6.464
 6233POPC   D2A78520  11.344  44.693   6.764
 6233POPC   C3A78521  11.335  44.629   7.064
 6233POPC   C4A78522  11.308  44.639   7.364
 6233POPC   C1B78523  11.517  44.546   6.464
 6233POPC   C2B78524  11.531  44.567   6.764
 6233POPC   C3B78525  11.503  44.503   7.064
 6233POPC   C4B78526  11.492  44.509   7.364
 6234POPC   NC378527   8.197  40.029   5.564
 6234POPC   PO478528   8.231  39.972   5.864
 6234POPC   GL178529   8.149  40.048   6.164
 6234POPC   GL278530   8.329  40.090   6.164
 6234POPC   C1A78531   8.182  39.984   6.464
 6234POPC   D2A78532   8.215  39.960   6.764
 6234POPC   C3A78533   8.195  40.020   7.064
 6234POPC   C4A78534   8.177  39.964   7.364
 6234POPC   C1B78535   8.412  40.189   6.464
 6234POPC   C2B78536   8.451  40.135   6.764
 6234POPC   C3B78537   8.376  40.129   7.064
 6234POPC   C4B78538   8.455  40.102   7.364
 6235POPC   NC378539  44.678  15.207   5.564
 6235POPC   PO478540  44.658  15.143   5.864
 6235POPC   GL178541  44.646  15.154   6.164
 6235POPC   GL278542  44.676  15.087   6.164
 6235POPC   C1A78543  44.692  15.183   6.464
 6235POPC   D2A78544  44.670  15.149   6.764
 6235POPC   C3A78545  44.662  15.129   7.064
 6235POPC   C4A78546  44.661  15.130   7.364
 6235POPC   C1B78547  44.681  14.884   6.464
 6235POPC   C2B78548  44.671  14.888   6.764
 6235POPC   C3B78549  44.715  14.909   7.064
 6235POPC   C4B78550  44.645  14.952   7.364
 6236POPC   NC378551  44.674  12.895   5.564
 6236POPC   PO478552  44.700  12.815   5.864
 6236POPC   GL178553  44.678  12.834   6.164
 6236POPC   GL278554  44.584  12.844   6.164
 6236POPC   C1A78555  44.623  12.857   6.464
 6236POPC   D2A78556  44.664  12.893   6.764
 6236POPC   C3A78557  44.699  12.880   7.064
 6236POPC   C4A78558  44.641  12.889   7.364
 6236POPC   C1B78559  44.459  12.880   6.464
 6236POPC   C2B78560  44.430  12.842   6.764
 6236POPC   C3B78561  44.379  12.924   7.064
 6236POPC   C4B78562  44.395  12.904   7.364
 6237POPC   NC378563  20.611  38.491   5.564
 6237POPC   PO478564  20.629  38.461   5.864
 6237POPC   GL178565  20.655  38.454   6.164
 6237POPC   GL278566  20.487  38.447   6.164
 6237POPC   C1A78567  20.596  38.424   6.464
 6237POPC   D2A78568  20.595  38.477   6.764
 6237POPC   C3A78569  20.633  38.478   7.064
 6237POPC   C4A78570  20.621  38.420   7.364
 6237POPC   C1B78571  20.335  38.502   6.464
 6237POPC   C2B78572  20.340  38.471   6.764
 6237POPC   C3B78573  20.354  38.503   7.064
 6237POPC   C4B78574  20.389  38.554   7.364
 6238POPC   NC378575  15.153   7.408   5.564
 6238POPC   PO478576  15.171   7.401   5.864
 6238POPC   GL178577  15.222   7.403   6.164
 6238POPC   GL278578  15.164   7.331   6.164
 6238POPC   C1A78579  15.221   7.399   6.464
 6238POPC   D2A78580  15.208   7.420   6.764
 6238POPC   C3A78581  15.135   7.384   7.064
 6238POPC   C4A78582  15.129   7.410   7.364
 6238POPC   C1B78583  15.177   7.154   6.464
 6238POPC   C2B78584  15.107   7.152   6.764
 6238POPC   C3B78585  15.129   7.192   7.064
 6238POPC   C4B78586  15.131   7.197   7.364
 6239W        W78587  21.081  10.292   4.137
 6240W        W78588  28.137  40.476   0.277
 6241W        W78589  41.858  16.118   2.256
 6242W        W78590  28.092  10.795   2.341
 6243W        W78591   6.419  17.626   2.288
 6244W        W78592   9.289  38.982   4.694
 6245W        W78593   7.179  18.109   2.338
 6246W        W78594  27.988  22.106   1.368
 6247W        W78595  38.883  25.490  11.488
 6248W        W78596  35.927  29.554   1.312
 6249W        W78597  43.905  23.012   3.657
 6250W        W78598  32.025  44.915   4.821
 6251W        W78599  11.770  24.097   4.271
 6252W        W78600   4.446  15.316   3.676
 6253W        W78601   5.400   0.297   2.707
 6254W        W78602  12.796  20.753   4.789
 6255W        W78603  17.674  17.190  14.420
 6256W        W78604  34.556   6.735   0.859
 6257W        W78605  38.820  27.557  10.405
 6258W        W78606  38.554  43.398  14.998
 6259W        W78607  31.474  39.933  14.854
 6260W        W78608  23.547  44.957   2.387
 6261W        W78609  14.823   6.214   2.222
 6262W        W78610  36.082   4.765  11.463
 6263W        W78611  25.606  30.437   2.196
 6264W        W78612  10.276  21.232  10.986
 6265W        W78613   9.352  20.044   5.660
 6266W        W78614  31.560  43.359  13.919
 6267W        W78615  11.283   6.311  14.479
 6268W        W78616   4.749  39.548  12.876
 6269W        W78617  36.988  39.441   4.813
 6270W        W78618  19.169  35.936   3.191
 6271W        W78619  40.866  42.905   2.853
 6272W        W78620  42.482   1.267  14.806
 6273W        W78621  28.653  25.663   4.170
 6274W        W78622  40.946  34.943   2.842
 6275W        W78623  34.918   0.750   2.725
 6276W        W78624  38.845  32.940  13.464
 6277W        W78625  26.030  23.194   0.451
 6278W        W78626   8.801  24.652   1.919
 6279W        W78627  20.677  44.477  11.038
 6280W        W78628  10.819  12.706  14.979
 6281W        W78629  30.980  24.119   4.705
 6282W        W78630   6.886  39.974  12.506
 6283W        W78631  14.742  14.252  14.896
 6284W        W78632  29.621   6.866   0.430
 6285W        W78633  29.496  39.838  12.887
 6286W        W78634  35.012  13.320   5.231
 6287W        W78635  36.452  19.104   3.787
 6288W        W78636  24.174  23.131   0.856
 6289W        W78637  40.867  38.857   1.919
 6290W        W78638  14.831   3.221   3.861
 6291W        W78639  17.300  31.000   2.367
 6292W        W78640   9.152  10.290  13.517
 6293W        W78641  42.795  17.782   0.886
 6294W        W78642  37.877   6.378   2.220
 6295W        W78643  33.593  39.028  13.050
 6296W        W78644  44.902  44.490   1.303
 6297W        W78645  44.304  40.029   0.284
 6298W        W78646  26.513  36.565  11.061
 6299W        W78647  39.886  21.241   3.706
 6300W        W78648  28.932  11.299  12.984
 6301W        W78649  35.036  20.535   0.955
 6302W        W78650  30.567  29.543   4.133
 6303W        W78651  14.278  26.636  13.310
 6304W        W78652   9.802  31.049  10.969
 6305W        W78653  15.131  27.466   1.780
 6306W        W78654   6.200  11.156   3.269
 6307W        W78655  37.359  31.020   4.830
 6308W        W78656  44.768  20.530  11.120
 6309W        W78657   6.831  28.618  13.382
 6310W        W78658  24.575  40.511   0.944
 6311W        W78659  15.273  30.477  10.909
 6312W        W78660  42.345  31.427   0.290
 6313W        W78661  33.915   2.878   0.895
 6314W        W78662  25.068  38.518  14.871
 6315W        W78663  24.626  35.951  12.939
 6316W        W78664  42.370  39.358  14.795
 6317W        W78665  34.598  14.662  14.000
 6318W        W78666   5.918  13.295  10.445
 6319W        W78667  27.454  27.477  13.934
 6320W        W78668   6.308  30.624  14.011
 6321W        W78669  22.080  27.585   3.326
 6322W        W78670   8.664  38.035   2.206
 6323W        W78671  42.828  17.200   1.219
 6324W        W78672  44.946   8.860  14.487
 6325W        W78673  18.662  29.955  12.546
 6326W        W78674  32.902  31.986   3.318
 6327W        W78675  39.369  16.661  14.016
 6328W        W78676  31.505  25.644  13.033
 6329W        W78677   2.737  24.109   1.763
 6330W        W78678  32.929  43.500   3.656
 6331W        W78679  29.552  27.998   4.691
 6332W        W78680   2.406  44.407   5.113
 6333W        W78681  35.497   0.447   3.181
 6334W        W78682  32.088  24.620  11.079
 6335W        W78683   8.691  14.768  10.555
 6336W        W78684   1.384  35.009  12.924
 6337W        W78685  31.585   9.208  10.443
 6338W        W78686  36.851  22.098  11.007
 6339W        W78687  24.151  30.599   4.133
 6340W        W78688  15.660  24.204  11.475
 6341W        W78689  19.087  18.131  12.070
 6342W        W78690   3.232  14.248   1.442
 6343W        W78691  11.187  36.068  11.099
 6344W        W78692  16.740  36.863   1.902
 6345W        W78693  31.502   8.348  14.500
 6346W        W78694  21.549  10.317   3.364
 6347W        W78695  29.441  20.061   0.259
 6348W        W78696  38.516  19.572  11.866
 6349W        W78697   9.773  39.321  12.465
 6350W        W78698  31.102   3.295  13.516
 6351W        W78699  17.111  14.300   3.359
 6352W        W78700  22.157  33.073   1.739
 6353W        W78701  21.646  41.385  13.904
 6354W        W78702   3.894  21.674  12.574
 6355W        W78703  39.454  35.966  12.569
 6356W        W78704  34.436  35.005  10.604
 6357W        W78705   3.307   1.279  13.450
 6358W        W78706  14.294  23.014   1.340
 6359W        W78707  22.238   4.204  12.947
 6360W        W78708   2.899   4.718  14.374
 6361W        W78709  27.116  29.118   1.392
 6362W        W78710  43.001  18.703   0.383
 6363W        W78711  16.125   1.883   1.822
 6364W        W78712   2.730  26.024   4.133
 6365W        W78713  31.604  14.117  13.504
 6366W        W78714  27.494  39.983  11.952
 6367W        W78715  41.810  16.257  10.422
 6368W        W78716  19.544  27.492  13.895
 6369W        W78717   2.403  28.935  10.910
 6370W        W78718  33.898  35.018   1.734
 6371W        W78719  41.368   0.275   3.656
 6372W        W78720  19.236  24.993   1.388
 6373W        W78721  20.084  18.736  10.545
 6374W        W78722  22.250  42.027   4.645
 6375W        W78723  25.198  17.627   4.140
 6376W        W78724  30.632  30.509  13.430
 6377W        W78725  15.770  13.677   2.203
 6378W        W78726  16.590  43.794   0.332
 6379W        W78727  11.206  24.593  12.087
 6380W        W78728  28.952   7.843  10.492
 6381W        W78729  36.351   8.317  13.351
 6382W        W78730  10.817  29.619   4.170
 6383W        W78731  37.451  17.257   2.722
 6384W        W78732  33.534   2.962  11.108
 6385W        W78733   3.265   7.882   4.762
 6386W        W78734  19.047   1.350  13.321
 6387W        W78735  31.477   3.376   5.190
 6388W        W78736  15.662  31.033  13.395
 6389W        W78737  27.156  18.624  11.948
 6390W        W78738  16.605  22.600   3.171
 6391W        W78739   9.335  21.663   1.368
 6392W        W78740   8.779  16.175  13.413
 6393W        W78741   0.250   7.702  11.524
 6394W        W78742  27.556  22.513   4.607
 6395W        W78743  25.072  36.402   4.327
 6396W        W78744  34.919  12.130  10.924
 6397W        W78745  33.490  32.076  14.289
 6398W        W78746  23.103  36.883   4.350
 6399W        W78747   4.319  44.399  12.535
 6400W        W78748  18.574  31.408  11.975
 6401W        W78749  40.499   4.855   4.245
 6402W        W78750   4.204  30.087   1.931
 6403W        W78751   9.699   8.375   1.753
 6404W        W78752  17.761  43.505  11.597
 6405W        W78753   6.398  40.450   3.375
 6406W        W78754  26.131   9.334  10.624
 6407W        W78755  22.115   4.869   0.318
 6408W        W78756   4.249  12.818  11.483
 6409W        W78757   3.410  16.257  11.477
 6410W        W78758   2.893  30.556   1.401
 6411W        W78759  40.872   7.708   2.698
 6412W        W78760  11.241   8.325   0.940
 6413W        W78761   8.177  21.745  12.448
 6414W        W78762  27.983  21.233   2.349
 6415W        W78763   7.241   5.721   0.392
 6416W        W78764   8.173  12.757   3.660
 6417W        W78765   8.279   2.948  13.501
 6418W        W78766  40.987  10.652  14.967
 6419W        W78767   3.319  36.062   3.190
 6420W        W78768  26.959  18.051  14.456
 6421W        W78769   2.373   2.254   4.797
 6422W        W78770  26.662   5.886  13.995
 6423W        W78771   9.875   3.724   2.886
 6424W        W78772   9.223  28.005   0.422
 6425W        W78773  22.057  32.080  11.451
 6426W        W78774  21.210   4.888  11.382
 6427W        W78775  25.134  35.503  13.992
 6428W        W78776   4.336  42.513   2.341
 6429W        W78777  39.447  41.948  12.457
 6430W        W78778   1.895   2.415  13.380
 6431W        W78779  34.382  34.575   1.279
 6432W        W78780  41.498  15.248   1.708
 6433W        W78781  42.936   8.298   1.712
 6434W        W78782  13.621  13.627  13.324
 6435W        W78783  31.954  42.932  10.048
 6436W        W78784  22.187   6.241   2.852
 6437W        W78785  35.467   9.814   4.671
 6438W        W78786  25.613  32.075   0.418
 6439W        W78787   5.893  16.637  14.958
 6440W        W78788  27.162  21.115   0.815
 6441W        W78789   6.337  17.219   1.842
 6442W        W78790  43.512   4.757   4.629
 6443W        W78791  27.564   3.368  13.816
 6444W        W78792   2.459  40.047  13.044
 6445W        W78793  42.822   4.861   1.397
 6446W        W78794  18.729  31.972   2.755
 6447W        W78795   3.809  20.554   2.714
 6448W        W78796  23.226  23.115   3.373
 6449W        W78797  15.197   0.935   0.906
 6450W        W78798  30.054   4.796  11.418
 6451W        W78799  39.378  35.504   3.820
 6452W        W78800  10.853  23.617   2.888
 6453W        W78801   5.791   0.865  10.929
 6454W        W78802   0.821  36.970   3.635
 6455W        W78803  44.344  44.942  12.504
 6456W        W78804  13.679   4.400   3.846
 6457W        W78805   0.945  15.703  13.963
 6458W        W78806  42.433  34.428  12.054
 6459W        W78807  39.908  44.974  13.898
 6460W        W78808   7.171  35.107   4.300
 6461W        W78809   0.880  30.566   3.831
 6462W        W78810  28.614   7.837   4.122
 6463W        W78811  37.942  21.657  12.405
 6464W        W78812  25.071  11.718   1.905
 6465W        W78813  33.919  12.720  13.934
 6466W        W78814  34.022  12.848   3.807
 6467W        W78815  37.500  30.512   4.283
 6468W        W78816  17.087  43.297   1.440
 6469W        W78817  16.732  18.279  11.461
 6470W        W78818  37.427  42.858   3.163
 6471W        W78819  25.995   8.381   3.153
 6472W        W78820  44.923   6.396   4.335
 6473W        W78821  23.602   7.717  11.089
 6474W        W78822  18.694  35.360  14.310
 6475W        W78823  40.390  31.454  14.856
 6476W        W78824  25.176  44.992  13.857
 6477W        W78825  27.480  28.121  12.908
 6478W        W78826  27.167  36.968   2.208
 6479W        W78827  17.792   2.722  14.921
 6480W        W78828  32.534  17.703  10.616
 6481W        W78829  10.656  34.430  14.829
 6482W        W78830  38.362  13.730  14.493
 6483W        W78831  24.087  11.295  14.868
 6484W        W78832  17.608   2.879   4.301
 6485W        W78833  40.511   9.362  13.380
 6486W        W78834  22.131  13.740  13.047
 6487W        W78835  15.270  36.521   4.293
 6488W        W78836  27.039  18.780   3.871
 6489W        W78837  26.129  40.347  12.988
 6490W        W78838   4.339  17.177  10.936
 6491W        W78839  31.124  36.497   4.264
 6492W        W78840  39.918   3.288  12.344
 6493W        W78841  12.151  18.281  14.016
 6494W        W78842  37.851  41.506   4.691
 6495W        W78843  40.899  42.825   4.268
 6496W        W78844  36.952  23.531  11.053
 6497W        W78845  14.185  14.138   4.654
 6498W        W78846  22.583  31.014  12.829
 6499W        W78847  42.007  18.221  11.876
 6500W        W78848  22.066   3.741  13.058
 6501W        W78849   3.326  26.957   3.288
 6502W        W78850  35.864   1.435  10.989
 6503W        W78851  40.471  41.470  13.948
 6504W        W78852   8.695  19.698  10.424
 6505W        W78853  29.067   4.834  11.591
 6506W        W78854  31.420  26.022  13.456
 6507W        W78855  20.142  42.945  14.290
 6508W        W78856  15.304   5.819  11.105
 6509W        W78857  25.649   9.350   2.226
 6510W        W78858  25.509  12.627  10.092
 6511W        W78859  33.510  25.487  14.476
 6512W        W78860  21.569   8.254   9.525
 6513W        W78861  41.384  31.502   0.899
 6514W        W78862  21.092   7.874  13.454
 6515W        W78863   9.879   5.821   1.225
 6516W        W78864   5.197  43.923   3.793
 6517W        W78865  14.132  35.975  13.515
 6518W        W78866  18.784  18.058  10.919
 6519W        W78867  31.620  34.601  12.556
 6520W        W78868  20.660  34.394   1.219
 6521W        W78869  23.700   1.736  13.431
 6522W        W78870  16.156  27.485   0.799
 6523W        W78871  20.587   5.264  10.436
 6524W        W78872  36.461  35.601   4.310
 6525W        W78873  14.775  13.188   4.344
 6526W        W78874  33.589   5.882   5.713
 6527W        W78875  39.314   0.774   3.380
 6528W        W78876  38.448  18.247  14.454
 6529W        W78877  40.375  42.325  11.407
 6530W        W78878  18.074  34.981   4.248
 6531W        W78879   0.854  27.983  11.899
 6532W        W78880  28.557  31.993   2.268
 6533W        W78881  41.905  26.173   0.424
 6534W        W78882  42.513  43.935   0.900
 6535W        W78883  16.700  21.609  12.854
 6536W        W78884  22.171  44.378  12.925
 6537W        W78885  22.563   6.359   3.825
 6538W        W78886  40.013  28.097  14.782
 6539W        W78887  18.136  34.579  12.392
 6540W        W78888  24.551  33.899  12.525
 6541W        W78889  25.126   3.362   2.386
 6542W        W78890  23.087  25.038   0.758
 6543W        W78891  11.637  19.072  13.499
 6544W        W78892  39.995  39.341  14.372
 6545W        W78893  39.515  18.196   4.755
 6546W        W78894  39.901  18.158   4.347
 6547W        W78895  20.214  27.166   0.726
 6548W        W78896  22.642  24.068   4.660
 6549W        W78897   5.775  20.707   4.145
 6550W        W78898  32.410  33.934  13.517
 6551W        W78899   5.796  31.915  10.466
 6552W        W78900  16.291  35.931   1.915
 6553W        W78901  10.196  32.947  13.894
 6554W        W78902   7.869  16.665   1.853
 6555W        W78903   7.808  20.219  11.539
 6556W        W78904   8.885   0.322  13.954
 6557W        W78905  41.958  29.956  11.459
 6558W        W78906  34.873  39.815  11.425
 6559W        W78907  27.178   3.738  13.338
 6560W        W78908  26.490   3.830   2.373
 6561W        W78909  39.908  39.896   0.328
 6562W        W78910  42.509   5.302   3.333
 6563W        W78911   9.383  10.348  12.344
 6564W        W78912   9.210  24.595   4.348
 6565W        W78913  11.684  38.560   2.704
 6566W        W78914  13.764  20.733   1.931
 6567W        W78915  39.977  20.049   2.717
 6568W        W78916  36.489  23.206  14.865
 6569W        W78917   3.813  16.152  12.072
 6570W        W78918  26.987   8.897   2.805
 6571W        W78919  24.016  26.147  11.979
 6572W        W78920  27.071  32.041  12.843
 6573W        W78921  32.492  37.386  13.848
 6574W        W78922  27.590  15.289  10.507
 6575W        W78923  31.418  24.014  13.485
 6576W        W78924  34.967  36.092  14.424
 6577W        W78925   5.241  43.792   2.389
 6578W        W78926  19.105  43.004   4.704
 6579W        W78927  24.222  44.429   1.436
 6580W        W78928  25.581  36.017   2.693
 6581W        W78929  21.599  20.611  12.399
 6582W        W78930   8.852   2.823  13.536
 6583W        W78931  28.038  21.136   3.679
 6584W        W78932   4.724  33.111  10.993
 6585W        W78933  19.129  29.126  14.992
 6586W        W78934  40.443  24.003  14.421
 6587W        W78935  10.754  13.228   1.734
 6588W        W78936   4.744  33.397  14.369
 6589W        W78937   6.740  14.680  14.371
 6590W        W78938   7.698  14.779   4.340
 6591W        W78939  24.632  36.932   2.199
 6592W        W78940   2.309  15.177  13.818
 6593W        W78941  38.508  34.894  12.866
 6594W        W78942  30.460  43.994   0.760
 6595W        W78943  34.469  13.799   1.865
 6596W        W78944  14.655   2.439  14.319
 6597W        W78945  42.881  11.373  12.005
 6598W        W78946  27.940   9.359   0.855
 6599W        W78947  22.110  33.585   3.853
 6600W        W78948  20.158  38.397   1.747
 6601W        W78949   7.710  34.392  10.507
 6602W        W78950  26.501  41.529  12.374
 6603W        W78951  27.503  27.180   0.242
 6604W        W78952  35.484   9.801  14.413
 6605W        W78953  11.168   8.359   4.279
 6606W        W78954  23.512  38.911   2.780
 6607W        W78955  40.001  25.205   3.202
 6608W        W78956  43.271  22.007   2.355
 6609W        W78957  34.089  12.711   4.818
 6610W        W78958  14.114  22.131  12.953
 6611W        W78959  35.544  13.292   2.330
 6612W        W78960  28.475   1.433   0.274
 6613W        W78961   3.745  37.875   2.823
 6614W        W78962  20.080  37.008  12.445
 6615W        W78963  21.656  25.512  11.928
 6616W        W78964  40.371  33.399  14.979
 6617W        W78965  10.659  18.556  10.426
 6618W        W78966  35.880  14.610   2.884
 6619W        W78967  37.530  33.048   4.775
 6620W        W78968  33.875   8.663  12.978
 6621W        W78969  41.786  31.985   3.657
 6622W        W78970   4.425  29.481   4.722
 6623W        W78971  31.921  16.813  12.941
 6624W        W78972  23.679  39.549   0.859
 6625W        W78973  41.340  28.556   1.746
 6626W        W78974  25.179  12.828   3.253
 6627W        W78975  27.559   4.234   0.936
 6628W        W78976  38.032  10.218  12.346
 6629W        W78977  33.035  10.195   2.261
 6630W        W78978   8.267  16.744   2.365
 6631W        W78979  11.152  35.896   0.966
 6632W        W78980  12.660  44.500   3.154
 6633W        W78981  18.762  23.675  11.427
 6634W        W78982   8.308   3.454   3.252
 6635W        W78983  43.338  15.258  12.344
 6636W        W78984  28.554  37.073   3.680
 6637W        W78985   5.737  28.647   3.655
 6638W        W78986  36.531  20.274   3.358
 6639W        W78987  38.509  20.176  13.421
 6640W        W78988   2.350   6.208  12.888
 6641W        W78989  10.651  28.020   3.858
 6642W        W78990  35.903  17.565  12.899
 6643W        W78991  40.317   1.364  14.414
 6644W        W78992  21.141   6.845  12.970
 6645W        W78993  14.729  33.050   0.360
 6646W        W78994  13.340   4.417   0.377
 6647W        W78995  25.672  15.582  11.375
 6648W        W78996  32.428  43.399  13.468
 6649W        W78997   3.823  19.232   0.817
 6650W        W78998  23.110   7.667   1.859
 6651W        W78999  23.688   9.869  12.462
 6652W        W79000  33.574  38.542   4.278
 6653W        W79001  27.193  18.222   2.293
 6654W        W79002   5.723  28.520  10.525
 6655W        W79003   6.917  40.515   4.330
 6656W        W79004   4.211   8.756   4.282
 6657W        W79005  14.176  20.690  11.439
 6658W        W79006  33.450  44.378   5.245
 6659W        W79007  17.745   3.904   4.151
 6660W        W79008  16.224  42.438   1.807
 6661W        W79009  33.515  43.975   0.415
 6662W        W79010  21.749   4.337  14.936
 6663W        W79011  44.889  19.039  10.639
 6664W        W79012  35.902  40.548   0.450
 6665W        W79013  33.599   7.706   1.722
 6666W        W79014  22.240  11.708   3.353
 6667W        W79015  11.776  14.232   2.841
 6668W        W79016  16.800  22.551   4.745
 6669W        W79017   7.807  13.647  13.835
 6670W        W79018   5.251  37.983  10.908
 6671W        W79019  25.655   1.310   3.785
 6672W        W79020   2.793  38.863  13.015
 6673W        W79021  12.256  24.653  14.951
 6674W        W79022   6.386   8.685   1.697
 6675W        W79023  41.534  23.993   4.625
 6676W        W79024   4.272  25.209   2.357
 6677W        W79025   2.377  19.051  14.861
 6678W        W79026  24.038  22.238   0.265
 6679W        W79027  18.280   7.703  12.457
 6680W        W79028   6.758  18.648  12.383
 6681W        W79029   6.821   5.398   3.184
 6682W        W79030  19.578  37.929  14.356
 6683W        W79031  43.475  21.057  14.003
 6684W        W79032  35.103  23.689  11.994
 6685W        W79033  15.089  22.023   4.772
 6686W        W79034  24.619   7.729  12.957
 6687W        W79035  19.210   0.761   0.830
 6688W        W79036  24.578  11.645  14.368
 6689W        W79037  12.721   8.661   1.899
 6690W        W79038  34.937   8.790  14.381
 6691W        W79039  40.404  35.433  14.504
 6692W        W79040  11.340   8.789  10.452
 6693W        W79041  30.637   2.429  11.595
 6694W        W79042  28.953  27.523  11.904
 6695W        W79043  40.043  44.264  14.779
 6696W        W79044  19.624   4.317   1.425
 6697W        W79045  37.930  39.340   4.303
 6698W        W79046  22.124   4.352   2.300
 6699W        W79047  31.110  37.026  12.909
 6700W        W79048  34.894  44.402   5.301
 6701W        W79049  43.861  10.341  13.821
 6702W        W79050   9.772  19.062  11.112
 6703W        W79051  27.478  25.685  13.489
 6704W        W79052   7.892  23.214  11.089
 6705W        W79053  25.159  25.520   1.853
 6706W        W79054  10.742  10.676  12.930
 6707W        W79055  43.471   0.454  11.076
 6708W        W79056  40.808  26.660  11.022
 6709W        W79057   2.271  41.011  12.403
 6710W        W79058   3.345   9.314   3.671
 6711W        W79059  29.100  28.611  13.315
 6712W        W79060  24.121  32.011   2.828
 6713W        W79061   1.329  43.855  11.488
 6714W        W79062  36.931  15.627   0.871
 6715W        W79063  25.056  32.908   2.767
 6716W        W79064  36.360   3.951  11.066
 6717W        W79065  12.622   8.780  11.947
 6718W        W79066  32.517  16.139   4.269
 6719W        W79067  21.617   2.330   4.650
 6720W        W79068  33.457   6.378  14.849
 6721W        W79069  23.595  42.850  13.983
 6722W        W79070  28.542   5.281  11.888
 6723W        W79071  31.553  33.930  10.579
 6724W        W79072  41.403  28.105  14.862
 6725W        W79073  25.636  19.146   2.825
 6726W        W79074  32.502   7.874   9.996
 6727W        W79075   4.368  14.300  13.494
 6728W        W79076  24.489  28.483  14.469
 6729W        W79077   7.855   2.370  10.624
 6730W        W79078  29.652  16.198  12.875
 6731W        W79079  32.624   1.423   4.750
 6732W        W79080  30.104   2.950  10.941
 6733W        W79081  29.592  23.577   0.790
 6734W        W79082  18.621  39.420   3.335
 6735W        W79083  10.157  11.637  14.011
 6736W        W79084  39.332  30.534   0.860
 6737W        W79085  43.773  20.033  10.422
 6738W        W79086   1.277   1.947   3.304
 6739W        W79087  32.047  13.635  10.427
 6740W        W79088  23.726   7.183  10.511
 6741W        W79089  28.503  27.049   0.435
 6742W        W79090  17.706   9.770  13.467
 6743W        W79091  43.421  11.372  12.340
 6744W        W79092  24.076   8.190  11.108
 6745W        W79093  39.532  22.560  13.922
 6746W        W79094  25.552  30.510  11.907
 6747W        W79095  39.891  29.015  12.371
 6748W        W79096  12.647  30.457   0.767
 6749W        W79097  30.950  13.762   0.457
 6750W        W79098  18.073  22.740  10.419
 6751W        W79099   7.215   7.194  10.975
 6752W        W79100  23.610   0.793  10.443
 6753W        W79101  41.447  26.099   2.191
 6754W        W79102   8.179  22.745  11.561
 6755W        W79103  13.248  33.521  14.823
 6756W        W79104  27.631  28.480   2.765
 6757W        W79105   1.347  25.180  12.490
 6758W        W79106  33.383  15.282  13.922
 6759W        W79107   1.831  15.728  10.595
 6760W        W79108   4.278  24.065  13.460
 6761W        W79109  24.989  32.045   2.767
 6762W        W79110   7.820   8.832  10.596
 6763W        W79111  41.910  29.445  12.407
 6764W        W79112   7.375  38.858   1.892
 6765W        W79113  39.048  29.989  12.499
 6766W        W79114  14.219  44.485  11.571
 6767W        W79115  30.581   2.300   4.310
 6768W        W79116  37.430  12.270  11.383
 6769W        W79117  16.218  30.601   0.253
 6770W        W79118   6.766   3.326   1.858
 6771W        W79119   8.765  35.023  12.846
 6772W        W79120  10.798  17.139  12.005
 6773W        W79121  31.089  19.700   4.189
 6774W        W79122   8.162  30.524  14.807
 6775W        W79123  12.165  13.334   3.751
 6776W        W79124  21.669   3.407   2.220
 6777W        W79125  17.141  35.878  11.556
 6778W        W79126  31.456   9.877   3.303
 6779W        W79127  31.449  33.595  12.481
 6780W        W79128  44.343  27.680   4.193
 6781W        W79129   0.291  19.772  14.500
 6782W        W79130  32.958  40.940  14.982
 6783W        W79131  19.697  31.053  14.341
 6784W        W79132  23.146  16.755  12.411
 6785W        W79133   3.435   5.274  12.463
 6786W        W79134   6.372  37.995   0.892
 6787W        W79135  14.303  43.881   0.255
 6788W        W79136  12.230  42.804   2.319
 6789W        W79137  44.275   3.375  10.576
 6790W        W79138  37.362  19.624  12.862
 6791W        W79139  37.882  23.524   0.745
 6792W        W79140  16.233   4.325   2.320
 6793W        W79141  29.994  41.912  14.906
 6794W        W79142  16.092  20.629  11.594
 6795W        W79143  22.545  35.913   9.959
 6796W        W79144   0.802  43.291   2.227
 6797W        W79145   1.371  23.056  14.882
 6798W        W79146  27.627   8.167   4.323
 6799W        W79147  15.748  12.198   3.736
 6800W        W79148  19.136  36.430  14.362
 6801W        W79149   1.456  30.504   1.756
 6802W        W79150  44.470  24.027   4.661
 6803W        W79151  21.557  11.212  11.405
 6804W        W79152  29.982  33.444  13.906
 6805W        W79153  20.751   5.216  13.460
 6806W        W79154  18.074  16.133   0.763
 6807W        W79155  43.484  16.701  10.897
 6808W        W79156  12.196  27.019  13.872
 6809W        W79157  39.317   8.253   1.783
 6810W        W79158  23.590  25.173  10.416
 6811W        W79159  39.953  10.234  12.525
 6812W        W79160  38.913   8.277  10.508
 6813W        W79161  37.578  26.528  13.498
 6814W        W79162  44.776  39.829  14.976
 6815W        W79163  28.093   9.786   2.667
 6816W        W79164   5.326  17.192  10.954
 6817W        W79165  34.114   1.976  14.823
 6818W        W79166   1.916  40.976   0.325
 6819W        W79167  14.205  24.517   1.299
 6820W        W79168  33.608   7.310   0.369
 6821W        W79169  11.703   7.726   3.309
 6822W        W79170  16.706  16.225  14.416
 6823W        W79171  10.230  14.280   4.168
 6824W        W79172   3.292  18.235   4.170
 6825W        W79173  41.977  37.351   1.901
 6826W        W79174  12.727  36.906   3.173
 6827W        W79175  36.375  19.168   0.367
 6828W        W79176  40.024  20.068  11.453
 6829W        W79177  33.439  19.594  14.957
 6830W        W79178  26.009  40.040   0.393
 6831W        W79179  33.031  25.200  11.504
 6832W        W79180   8.303   1.929   2.725
 6833W        W79181  33.418  40.971   2.833
 6834W        W79182  20.240  25.662  14.377
 6835W        W79183   5.227  27.561  13.327
 6836W        W79184  27.487  40.034   4.654
 6837W        W79185  33.616  28.526   2.346
 6838W        W79186  33.064   6.258  13.376
 6839W        W79187   6.334   2.226  11.428
 6840W        W79188  36.429  38.008  10.901
 6841W        W79189  42.320  26.073  14.007
 6842W        W79190  18.602  31.066  12.971
 6843W        W79191  18.628  34.098   0.413
 6844W        W79192  44.363  24.125  12.481
 6845W        W79193  15.801  23.579   0.460
 6846W        W79194   6.374  44.281   4.231
 6847W        W79195  17.169  41.954   4.816
 6848W        W79196  32.513   9.834   0.416
 6849W        W79197   5.713  31.580   1.359
 6850W        W79198  13.767  22.618   0.473
 6851W        W79199   1.753  42.946  12.542
 6852W        W79200   8.294  28.183  10.939
 6853W        W79201  28.527  15.673  13.877
 6854W        W79202  22.561  25.506  11.594
 6855W        W79203  10.877  27.533   1.391
 6856W        W79204  44.479  11.816   1.426
 6857W        W79205  20.613  25.973  10.921
 6858W        W79206   7.834  12.826  12.074
 6859W        W79207  31.556   9.233   2.344
 6860W        W79208   0.354  12.774  12.926
 6861W        W79209  11.321  33.515  14.363
 6862W        W79210  40.366  34.906  10.622
 6863W        W79211  42.414  33.566  14.394
 6864W        W79212  27.126  20.039   0.420
 6865W        W79213  41.014  42.389  14.358
 6866W        W79214  13.269  41.306   2.314
 6867W        W79215  40.511  33.074  12.395
 6868W        W79216  23.089   5.267   2.240
 6869W        W79217  44.846  18.668   3.789
 6870W        W79218   1.392  43.452  13.950
 6871W        W79219  33.910  33.605  14.862
 6872W        W79220  21.053  38.877  12.927
 6873W        W79221  22.241   8.669  11.457
 6874W        W79222  21.717  35.378  14.323
 6875W        W79223  43.279   6.421   4.657
 6876W        W79224  27.512  38.326  11.388
 6877W        W79225   0.268  43.969   3.859
 6878W        W79226  21.589  43.515   1.753
 6879W        W79227  41.397  26.006   1.392
 6880W        W79228  37.381  23.713  14.340
 6881W        W79229  40.866  19.109   2.711
 6882W        W79230  43.500  28.954   2.216
 6883W        W79231  44.412   7.839   3.293
 6884W        W79232  13.140  25.007  14.464
 6885W        W79233  36.913  27.166   3.211
 6886W        W79234   7.306  30.621   4.239
 6887W        W79235   8.209   8.897   3.229
 6888W        W79236  26.649  20.051  11.554
 6889W        W79237  10.348  22.118   3.299
 6890W        W79238  25.191  41.356  10.496
 6891W        W79239  40.053  27.013  13.513
 6892W        W79240  40.921  16.157  12.403
 6893W        W79241  43.878  40.913  12.432
 6894W        W79242  15.669  42.835  14.881
 6895W        W79243  38.490  44.805   3.366
 6896W        W79244   8.351  37.972  10.498
 6897W        W79245  25.043  22.676   1.369
 6898W        W79246  19.227  25.532   2.803
 6899W        W79247  34.054  29.493  12.501
 6900W        W79248  17.729  13.690  13.966
 6901W        W79249  22.172  19.072  11.060
 6902W        W79250  42.925  44.922   2.746
 6903W        W79251  21.070  35.041  10.423
 6904W        W79252   5.704  26.134   1.819
 6905W        W79253  21.642  19.174  13.410
 6906W        W79254  35.107  14.646   4.141
 6907W        W79255   9.870  26.150   2.188
 6908W        W79256  39.358   3.953   0.280
 6909W        W79257  14.596  30.516  12.012
 6910W        W79258  34.010  20.735   1.276
 6911W        W79259  32.576  33.910   3.780
 6912W        W79260  41.814  41.299  13.852
 6913W        W79261  30.068  39.555  12.001
 6914W        W79262  40.928  40.352   1.328
 6915W        W79263  24.090   6.782  11.083
 6916W        W79264  27.523  26.977  11.990
 6917W        W79265  38.878  31.006   4.627
 6918W        W79266   2.258  29.549   3.633
 6919W        W79267  15.278  18.241   4.685
 6920W        W79268  31.573  40.365   4.798
 6921W        W79269   1.831   7.824   1.248
 6922W        W79270  22.620  16.764  11.464
 6923W        W79271  20.213  38.470  14.375
 6924W        W79272  15.589   7.198  11.115
 6925W        W79273  17.572  23.736  12.997
 6926W        W79274  40.439  40.894  13.041
 6927W        W79275  29.934  11.742  14.378
 6928W        W79276  28.151  41.344  10.428
 6929W        W79277  24.085   1.858  14.813
 6930W        W79278  24.222   1.778  11.915
 6931W        W79279  33.939  42.963  12.428
 6932W        W79280  40.860  13.801   0.379
 6933W        W79281   6.306  41.020  11.531
 6934W        W79282  35.575  41.470  11.494
 6935W        W79283  14.833  29.481  12.387
 6936W        W79284  24.093   9.175   5.170
 6937W        W79285   4.276  24.120   0.790
 6938W        W79286  31.635  43.456  14.463
 6939W        W79287  18.622  24.601   0.428
 6940W        W79288  16.307   3.728  13.974
 6941W        W79289  18.168  40.890  14.466
 6942W        W79290  31.500  27.942  13.413
 6943W        W79291   5.239  31.444  11.606
 6944W        W79292  30.543  12.721  12.026
 6945W        W79293  29.541  36.356  10.957
 6946W        W79294  39.039   2.463  10.944
 6947W        W79295  28.509   0.792  14.394
 6948W        W79296  33.066  32.609  11.892
 6949W        W79297  19.533  44.824  14.792
 6950W        W79298  28.539  44.956  13.851
 6951W        W79299  32.551  12.209  14.361
 6952W        W79300  16.759   3.854  13.329
 6953W        W79301  12.291   1.405   1.243
 6954W        W79302  42.375  21.091   4.130
 6955W        W79303   7.187  28.508   2.776
 6956W        W79304  26.570   4.347   2.288
 6957W        W79305  19.691  32.472   4.173
 6958W        W79306  26.181  43.844   1.234
 6959W        W79307  31.899  38.924   0.810
 6960W        W79308  28.532   6.270  10.980
 6961W        W79309  21.597  39.522  13.540
 6962W        W79310   4.352  14.103   1.323
 6963W        W79311  23.496  12.691  11.593
 6964W        W79312  16.084  31.098  10.615
 6965W        W79313   4.747  11.306   1.934
 6966W        W79314  15.141  15.799   0.312
 6967W        W79315  42.809  43.445  12.405
 6968W        W79316   8.874  20.133   9.653
 6969W        W79317   2.453   6.340  12.057
 6970W        W79318  39.944  29.450   0.757
 6971W        W79319  39.809   7.278  12.404
 6972W        W79320  32.428  23.559  14.327
 6973W        W79321   6.771  39.491   0.854
 6974W        W79322  36.415  19.121  14.457
 6975W        W79323  16.154  31.569   1.447
 6976W        W79324  26.510   7.774   1.903
 6977W        W79325  24.122  37.444  10.466
 6978W        W79326  43.890  43.997   2.311
 6979W        W79327  36.456   9.347   3.679
 6980W        W79328  32.963  22.746   2.764
 6981W        W79329  16.627  22.745   2.360
 6982W        W79330  34.370  27.480   2.899
 6983W        W79331  16.142  16.687   4.142
 6984W        W79332  22.208  28.637   4.618
 6985W        W79333  35.013  42.358   0.740
 6986W        W79334  38.405   2.295   2.371
 6987W        W79335  38.339  19.651   1.299
 6988W        W79336  29.472  21.621   3.829
 6989W        W79337  34.118  36.496   2.205
 6990W        W79338  42.446  23.625   1.764
 6991W        W79339  28.015  44.353  13.847
 6992W        W79340  12.823  13.186  11.446
 6993W        W79341  44.458   2.789  12.016
 6994W        W79342  29.603  11.814   3.692
 6995W        W79343  36.379   5.386  14.875
 6996W        W79344  17.708  40.854   3.763
 6997W        W79345  41.332  29.523  10.578
 6998W        W79346  24.694   9.744   5.701
 6999W        W79347  15.275  13.697  14.493
 7000W        W79348  43.432  19.682   1.740
 7001W        W79349  13.776   9.721  11.557
 7002W        W79350  28.661  39.554   4.604
 7003W        W79351   4.706  23.121   4.300
 7004W        W79352  34.566   3.781   3.169
 7005W        W79353  10.176  23.629  14.480
 7006W        W79354  38.891  18.764   4.729
 7007W        W79355  36.985  22.205   1.341
 7008W        W79356  39.535  31.998  10.034
 7009W        W79357  20.560  21.167   2.338
 7010W        W79358  42.805  43.011   2.787
 7011W        W79359  17.269  41.464  10.045
 7012W        W79360  26.686  42.498   0.870
 7013W        W79361  42.456  38.021   4.205
 7014W        W79362  27.515  21.628  12.358
 7015W        W79363   9.687   1.276  13.847
 7016W        W79364   2.950  38.905   2.899
 7017W        W79365  24.106  12.836   2.301
 7018W        W79366  37.338  30.008   1.221
 7019W        W79367  32.066  34.521  10.987
 7020W        W79368  13.776  17.798  13.328
 7021W        W79369  37.547  23.498  11.522
 7022W        W79370   7.728   9.374  10.627
 7023W        W79371  37.848  41.527   4.163
 7024W        W79372  14.117  16.233  13.439
 7025W        W79373  21.665  37.027   4.144
 7026W        W79374   5.900  43.775  12.982
 7027W        W79375   9.172  32.594   1.399
 7028W        W79376  41.030  17.758  11.897
 7029W        W79377  35.531   8.792  12.521
 7030W        W79378  22.667   9.691   3.292
 7031W        W79379  30.104  24.517  13.855
 7032W        W79380   2.372   6.312  12.464
 7033W        W79381  29.574  30.428  10.596
 7034W        W79382   7.666  40.334  13.428
 7035W        W79383   2.388  25.624  11.946
 7036W        W79384  37.417  11.356  14.302
 7037W        W79385  13.817  17.275  10.559
 7038W        W79386  18.764  44.493   3.345
 7039W        W79387   1.481  14.633  10.926
 7040W        W79388  30.060  23.001  13.407
 7041W        W79389  41.870  20.217   2.700
 7042W        W79390  23.991  35.596  12.348
 7043W        W79391  26.554  37.043  10.437
 7044W        W79392  17.301  36.910   4.237
 7045W        W79393  36.074  15.635   0.822
 7046W        W79394  14.647  20.571   3.799
 7047W        W79395  25.682  14.724   3.204
 7048W        W79396  35.927   4.448  10.157
 7049W        W79397  37.961  39.520  14.491
 7050W        W79398  35.889  25.586  11.484
 7051W        W79399   3.918   5.798  14.321
 7052W        W79400  27.593  23.542   1.713
 7053W        W79401  26.576  13.726   2.328
 7054W        W79402  10.142   5.843   5.765
 7055W        W79403   2.275  27.047  11.593
 7056W        W79404  42.315  11.301   4.715
 7057W        W79405  32.399  40.034   0.966
 7058W        W79406  24.143  44.757  12.572
 7059W        W79407  21.235  25.093   2.741
 7060W        W79408  34.571   7.313  12.826
 7061W        W79409  35.921  41.892  12.929
 7062W        W79410  39.863  10.297  13.412
 7063W        W79411  23.636   2.430  13.883
 7064W        W79412  30.529  30.115  12.038
 7065W        W79413  12.718  10.797  13.043
 7066W        W79414  30.970  21.114   4.617
 7067W        W79415  32.116  11.263  12.934
 7068W        W79416  25.180  34.942  14.835
 7069W        W79417  10.182  22.147   4.302
 7070W        W79418  44.835  25.642  13.945
 7071W        W79419  29.436   1.924  10.922
 7072W        W79420  38.402   7.698  14.013
 7073W        W79421  43.291  21.217  11.504
 7074W        W79422  30.053  29.591  12.968
 7075W        W79423  23.164  35.092  13.505
 7076W        W79424  12.225   3.334   3.755
 7077W        W79425   4.923  31.052  11.045
 7078W        W79426  26.208  12.159   2.225
 7079W        W79427   4.286  12.670   4.756
 7080W        W79428   7.301  21.126   3.740
 7081W        W79429  35.500  32.486   1.425
 7082W        W79430  23.666   0.331   1.928
 7083W        W79431  42.430  10.757   0.471
 7084W        W79432  24.648  35.520   4.820
 7085W        W79433  30.119  41.503  12.500
 7086W        W79434  40.965  34.917  13.411
 7087W        W79435  39.471  28.629  12.518
 7088W        W79436  18.616   8.753  13.967
 7089W        W79437  14.331   1.468  11.993
 7090W        W79438  24.177  29.428   1.298
 7091W        W79439  33.392  10.853   3.688
 7092W        W79440  16.216  32.056  14.808
 7093W        W79441  20.674  19.651  11.407
 7094W        W79442  36.386  37.053   0.943
 7095W        W79443   1.309  16.703  14.490
 7096W        W79444  32.911  20.129   2.259
 7097W        W79445  36.079   1.245   3.166
 7098W        W79446   2.854  36.039  10.597
 7099W        W79447  43.389  22.025  14.972
 7100W        W79448  26.467  42.370  13.532
 7101W        W79449  16.317  18.227  14.919
 7102W        W79450  36.577  34.023   1.301
 7103W        W79451   3.410   7.773   0.743
 7104W        W79452   5.259  41.523   0.468
 7105W        W79453  43.276  25.695   3.758
 7106W        W79454  41.887  43.340   2.386
 7107W        W79455  43.970   1.855   3.867
 7108W        W79456   6.387   6.207  13.819
 7109W        W79457   7.730  39.954  14.489
 7110W        W79458  10.278  12.683  14.384
 7111W        W79459  31.075  34.003   0.733
 7112W        W79460  18.644  10.805   2.754
 7113W        W79461   3.382  33.009  10.521
 7114W        W79462  17.139  26.486   2.719
 7115W        W79463  28.491  35.370  12.390
 7116W        W79464  31.900  19.667   2.674
 7117W        W79465   0.922   1.328  14.487
 7118W        W79466  12.344  39.822  10.435
 7119W        W79467  21.643  28.979  14.490
 7120W        W79468  41.322  19.064   3.711
 7121W        W79469  14.218  11.352   3.697
 7122W        W79470  23.648  16.127   0.396
 7123W        W79471  37.963  24.160   1.731
 7124W        W79472  36.388  19.087  13.944
 7125W        W79473  24.138  29.629  13.822
 7126W        W79474   0.431  41.851  10.482
 7127W        W79475  32.545  30.046   1.760
 7128W        W79476   9.742  21.711  10.439
 7129W        W79477   5.329  18.206  10.464
 7130W        W79478   1.274  19.111  13.969
 7131W        W79479  39.889   6.360  13.037
 7132W        W79480   8.896  33.009   0.796
 7133W        W79481  20.683  21.191  12.926
 7134W        W79482  32.585  29.638  11.509
 7135W        W79483  37.556  41.800   2.337
 7136W        W79484   4.234  26.527   2.197
 7137W        W79485  38.851  12.633   2.409
 7138W        W79486   8.715  31.524  12.971
 7139W        W79487   1.827  16.261   0.474
 7140W        W79488  18.191  40.512  10.613
 7141W        W79489  11.648  25.607  10.894
 7142W        W79490  19.780   3.948  11.442
 7143W        W79491   9.155  43.298  11.124
 7144W        W79492   3.306  32.459  14.396
 7145W        W79493   7.316  23.107  12.409
 7146W        W79494  41.993  25.167  10.978
 7147W        W79495  43.962  41.428  12.087
 7148W        W79496  16.126  26.160  14.945
 7149W        W79497  12.314  19.769  13.854
 7150W        W79498   1.287   0.802  14.775
 7151W        W79499  14.330  37.396   1.290
 7152W        W79500  39.972  43.410   2.814
 7153W        W79501  18.221  43.461   4.720
 7154W        W79502   9.759  24.578  13.367
 7155W        W79503   9.339  35.973   2.247
 7156W        W79504  28.540   8.346  14.391
 7157W        W79505  41.793  23.521  12.460
 7158W        W79506  27.515  14.602  11.115
 7159W        W79507  33.604   0.863  11.610
 7160W        W79508  35.582  40.522  13.862
 7161W        W79509  19.075  42.905  14.861
 7162W        W79510  37.032  34.370  10.538
 7163W        W79511  44.368  42.993  10.022
 7164W        W79512  31.535  41.853   2.337
 7165W        W79513  17.076  29.931  11.903
 7166W        W79514  29.050  25.589   1.226
 7167W        W79515   9.688   5.857   3.173
 7168W        W79516  33.499  21.258   1.265
 7169W        W79517   1.892  39.531   2.686
 7170W        W79518  27.115  11.777  14.403
 7171W        W79519  25.996  25.181  10.602
 7172W        W79520  43.782  38.528  10.922
 7173W        W79521  11.367  24.997  12.503
 7174W        W79522  22.248  30.035  11.445
 7175W        W79523  24.203  15.748  10.436
 7176W        W79524  38.853   4.707  14.360
 7177W        W79525  34.462   1.334  12.442
 7178W        W79526  22.540  14.271   1.847
 7179W        W79527  39.895  34.929  12.912
 7180W        W79528  28.026  33.886  14.406
 7181W        W79529   9.686   0.310  11.542
 7182W        W79530  16.255  17.557  12.991
 7183W        W79531   3.392  40.802   2.706
 7184W        W79532   1.404  35.573  14.932
 7185W        W79533  27.500  18.214  10.481
 7186W        W79534  13.113  29.577  14.342
 7187W        W79535  25.712  11.310   1.294
 7188W        W79536  41.928  10.244  12.490
 7189W        W79537  13.330  17.106  10.567
 7190W        W79538  33.391   4.279   3.176
 7191W        W79539  32.556   9.328  11.606
 7192W        W79540  19.066  30.023  12.046
 7193W        W79541  43.379  22.081   1.364
 7194W        W79542   3.881  26.533  11.074
 7195W        W79543   9.267   0.744  14.290
 7196W        W79544  34.385  12.615  14.486
 7197W        W79545   5.199  43.389  11.032
 7198W        W79546   6.776   3.392   0.277
 7199W        W79547  31.631  35.484  13.493
 7200W        W79548  40.408  22.538  12.871
 7201W        W79549  40.371  40.364   4.674
 7202W        W79550  37.568  21.673   4.764
 7203W        W79551  27.041  40.464  13.974
 7204W        W79552  24.987  12.283   0.440
 7205W        W79553  14.614  42.952  13.544
 7206W        W79554  35.954  15.168   0.857
 7207W        W79555  21.525  42.291   1.312
 7208W        W79556   9.691   9.772   1.772
 7209W        W79557  20.734  43.353   1.253
 7210W        W79558  39.358  30.413  11.031
 7211W        W79559  18.578  35.005  10.439
 7212W        W79560  15.733  36.878   0.946
 7213W        W79561   1.953  21.222   4.706
 7214W        W79562  21.153  12.167   3.385
 7215W        W79563   6.877  33.961  12.831
 7216W        W79564  15.222  20.663   1.754
 7217W        W79565  11.237  31.958  14.427
 7218W        W79566  22.517  13.313   4.763
 7219W        W79567  31.106  22.617  13.447
 7220W        W79568   0.812  28.478   2.759
 7221W        W79569  26.973  18.171   5.196
 7222W        W79570  19.696  18.761  11.557
 7223W        W79571  35.856  26.623  14.806
 7224W        W79572  24.171  16.729  12.508
 7225W        W79573  36.952  16.665  10.595
 7226W        W79574  11.302  25.988   3.739
 7227W        W79575  10.238  35.891   5.231
 7228W        W79576  43.942  31.127  10.474
 7229W        W79577  41.409  38.956  12.481
 7230W        W79578   9.808  12.219  11.501
 7231W        W79579  37.541  41.320  10.545
 7232W        W79580  24.520  22.995   0.262
 7233W        W79581  39.848   9.295   3.252
 7234W        W79582  12.352  20.625   2.221
 7235W        W79583   5.724  43.363   4.616
 7236W        W79584  19.574  15.086   4.650
 7237W        W79585  19.733  17.626  13.871
 7238W        W79586  10.817   3.913  13.966
 7239W        W79587   3.327   5.691  11.401
 7240W        W79588  33.511  44.876  13.448
 7241W        W79589  29.163  32.465   4.641
 7242W        W79590  21.202  31.419  10.965
 7243W        W79591  40.832  19.548  13.331
 7244W        W79592  35.894   7.394  11.884
 7245W        W79593  30.074  33.043  13.806
 7246W        W79594  24.047  20.616  12.911
 7247W        W79595  14.254  20.538   0.482
 7248W        W79596  26.967  36.558   3.253
 7249W        W79597  23.170  33.512   2.337
 7250W        W79598  29.578   1.873   3.714
 7251W        W79599  23.544  37.900  14.916
 7252W        W79600  13.611  32.566   1.830
 7253W        W79601  35.054  19.216  11.102
 7254W        W79602   1.904  21.194   3.265
 7255W        W79603  13.760  42.794  10.048
 7256W        W79604   2.923  37.438  13.878
 7257W        W79605  35.054  20.751  11.443
 7258W        W79606  29.150  39.854   4.751
 7259W        W79607  11.222   8.360  11.402
 7260W        W79608   6.191  39.821  13.899
 7261W        W79609  16.789   1.392   3.170
 7262W        W79610  11.210   5.223   4.213
 7263W        W79611  40.454   3.223  10.593
 7264W        W79612   7.333  41.893   0.354
 7265W        W79613  30.962   3.878  13.959
 7266W        W79614  28.068   4.745  11.012
 7267W        W79615  25.048  20.559   2.865
 7268W        W79616  24.483  14.598   2.819
 7269W        W79617  26.112  13.307  13.444
 7270W        W79618  13.174  19.631  13.456
 7271W        W79619  36.966  44.960   1.724
 7272W        W79620  14.799  25.134   3.684
 7273W        W79621   9.319  35.891  14.780
 7274W        W79622  26.016  23.527  13.984
 7275W        W79623  39.360  18.549   3.728
 7276W        W79624  23.125  29.505   1.898
 7277W        W79625  16.697  19.749  12.970
 7278W        W79626  29.612  19.623   5.293
 7279W        W79627  26.635  22.647   5.268
 7280W        W79628  10.195  36.451   4.117
 7281W        W79629   3.722  14.108   3.787
 7282W        W79630  38.545  22.591  14.001
 7283W        W79631  33.463  41.826   0.935
 7284W        W79632  41.363  21.680   0.320
 7285W        W79633  33.561  18.610  12.859
 7286W        W79634  42.969  19.615  11.083
 7287W        W79635   3.317  24.052   1.695
 7288W        W79636  44.784   7.333  14.419
 7289W        W79637  35.058  14.203  11.925
 7290W        W79638   3.256   5.417   3.712
 7291W        W79639   9.742  32.503  13.433
 7292W        W79640  15.140  22.174  12.521
 7293W        W79641  14.773  27.985   4.756
 7294W        W79642  37.876   4.841  12.080
 7295W        W79643  29.016  39.052  12.473
 7296W        W79644  15.593  27.022  14.308
 7297W        W79645  22.168  13.333   0.921
 7298W        W79646  24.030  24.495   4.768
 7299W        W79647  18.702   8.267   2.401
 7300W        W79648  29.988  38.497   4.767
 7301W        W79649  13.831  34.557  12.828
 7302W        W79650  33.041   3.315  11.385
 7303W        W79651  30.474  30.613   2.256
 7304W        W79652  34.553  35.867  11.975
 7305W        W79653  33.104  10.819  12.004
 7306W        W79654  27.677  34.085  14.906
 7307W        W79655  41.538   6.854  11.939
 7308W        W79656   7.868   9.205  13.885
 7309W        W79657  16.627  32.537  14.493
 7310W        W79658  26.185  37.350  10.605
 7311W        W79659  21.552  23.122  12.923
 7312W        W79660  25.019  16.717   4.307
 7313W        W79661  36.882  28.950  12.570
 7314W        W79662  15.814  24.618  14.775
 7315W        W79663  14.178  20.243   2.882
 7316W        W79664   6.752   3.374   2.898
 7317W        W79665  32.978   5.894   0.958
 7318W        W79666  41.972  25.014   3.214
 7319W        W79667  11.289  21.201  11.482
 7320W        W79668   2.264  26.535  11.025
 7321W        W79669  38.076  27.583  12.351
 7322W        W79670   6.220  23.103  12.920
 7323W        W79671  13.764   5.290   1.218
 7324W        W79672   5.760   3.433   0.931
 7325W        W79673  30.161  38.433   0.865
 7326W        W79674  42.786   6.407   1.359
 7327W        W79675   8.324  15.654   4.275
 7328W        W79676  25.034   0.800   0.800
 7329W        W79677  10.379  39.507  11.475
 7330W        W79678  12.170   6.223   1.372
 7331W        W79679   5.261  26.503  12.930
 7332W        W79680   4.290  16.152   3.319
 7333W        W79681  12.338   0.814   3.193
 7334W        W79682  17.175  25.143  12.985
 7335W        W79683  10.369  19.241  12.921
 7336W        W79684  42.425   1.258  11.076
 7337W        W79685  26.047  25.576  10.556
 7338W        W79686  40.875  26.629  13.498
 7339W        W79687  15.714   5.420  13.462
 7340W        W79688  39.401   8.280  14.463
 7341W        W79689   2.850   8.220  11.539
 7342W        W79690  23.020   5.836  10.552
 7343W        W79691   5.207  10.698  12.083
 7344W        W79692  32.608   3.872   2.685
 7345W        W79693   3.413  34.974   4.666
 7346W        W79694   5.863  33.915  12.849
 7347W        W79695  23.185  16.573   3.672
 7348W        W79696   9.689  30.523  10.903
 7349W        W79697  28.930   3.731   3.810
 7350W        W79698  33.954  38.077  13.371
 7351W        W79699   3.279  31.929   0.846
 7352W        W79700  25.165  36.519  13.474
 7353W        W79701  20.113  11.682  12.932
 7354W        W79702  37.561  44.760   1.239
 7355W        W79703  23.232  14.174   2.244
 7356W        W79704   3.733   0.321   2.696
 7357W        W79705  18.660   6.223   3.295
 7358W        W79706  24.519  22.064   4.771
 7359W        W79707   9.777  13.159  11.083
 7360W        W79708  31.934  21.023   4.341
 7361W        W79709   5.301   5.893  12.092
 7362W        W79710   3.271  35.428   0.738
 7363W        W79711  34.608  42.421   4.709
 7364W        W79712   6.247   7.765  11.071
 7365W        W79713   5.412  30.601   2.381
 7366W        W79714   4.291   0.938   2.899
 7367W        W79715  23.181  40.986   0.877
 7368W        W79716  24.032  18.546   1.840
 7369W        W79717  25.645  33.509  11.520
 7370W        W79718  20.125  18.286  14.326
 7371W        W79719  18.056  25.518  11.601
 7372W        W79720   8.798  35.488  14.379
 7373W        W79721  43.824  11.689  13.036
 7374W        W79722  41.789  17.731   0.334
 7375W        W79723  36.069   7.386  13.835
 7376W        W79724  17.156  26.966   3.322
 7377W        W79725   3.839  41.482  12.510
 7378W        W79726  22.598  30.113   4.697
 7379W        W79727  43.838   4.777   1.768
 7380W        W79728   8.717  20.072   3.201
 7381W        W79729  26.091  19.222  14.924
 7382W        W79730  43.288  32.934  12.867
 7383W        W79731  22.151   4.708   2.826
 7384W        W79732  26.694   3.731   3.859
 7385W        W79733  34.012  10.745  14.391
 7386W        W79734  16.656  40.388  13.986
 7387W        W79735   4.447  19.614  12.359
 7388W        W79736  12.306  36.473   1.917
 7389W        W79737  38.347  18.052   4.674
 7390W        W79738  25.674  30.657   0.322
 7391W        W79739   2.451  35.022  12.475
 7392W        W79740  33.484   3.273   2.264
 7393W        W79741   2.316  29.657   2.246
 7394W        W79742  24.097   7.844  14.408
 7395W        W79743  33.524   3.461  11.410
 7396W        W79744   3.824   3.280   2.295
 7397W        W79745  31.600  29.077   2.225
 7398W        W79746  23.187  29.039   4.828
 7399W        W79747   8.189  23.519  12.431
 7400W        W79748  34.443  14.622  11.499
 7401W        W79749   7.262  38.955  13.954
 7402W        W79750   6.195   1.857   2.280
 7403W        W79751  35.016   3.319  12.351
 7404W        W79752   1.734  38.067  12.055
 7405W        W79753  38.435  21.604   3.253
 7406W        W79754  36.407   6.752   5.176
 7407W        W79755  38.425  28.606   0.364
 7408W        W79756  18.750  38.031   1.792
 7409W        W79757  15.722   8.654   9.980
 7410W        W79758  38.020  12.728  12.890
 7411W        W79759  15.778  21.547   1.305
 7412W        W79760  13.797  16.294  12.422
 7413W        W79761  19.171  22.712   1.825
 7414W        W79762  25.093  25.029   0.307
 7415W        W79763  34.992  10.633   0.918
 7416W        W79764  38.832  17.067  11.005
 7417W        W79765  29.017  33.607  12.567
 7418W        W79766   9.887  36.384  11.486
 7419W        W79767  38.971  41.972   4.735
 7420W        W79768   0.407  11.349   0.875
 7421W        W79769  21.568  27.065   2.378
 7422W        W79770  24.004  43.316   3.844
 7423W        W79771  30.024  42.997  10.537
 7424W        W79772  31.567  10.752  14.341
 7425W        W79773   5.237  26.123   0.920
 7426W        W79774  34.933  26.193  11.044
 7427W        W79775  21.623  26.668   2.354
 7428W        W79776  20.653  19.226   4.655
 7429W        W79777   6.887  24.574  13.507
 7430W        W79778  15.089  20.592  14.821
 7431W        W79779  28.968   6.220  14.426
 7432W        W79780  20.209  31.484  12.868
 7433W        W79781  15.718  31.066   0.931
 7434W        W79782  26.102  27.057  14.473
 7435W        W79783   4.841  26.989   1.240
 7436W        W79784  26.563  43.327  12.085
 7437W        W79785   4.754  25.489   4.339
 7438W        W79786  39.821  43.477   3.853
 7439W        W79787  14.614   4.880   0.359
 7440W        W79788  43.813  10.784   2.876
 7441W        W79789  28.120   8.747  13.833
 7442W        W79790  41.521  23.644   4.130
 7443W        W79791  22.151  43.926   2.671
 7444W        W79792   2.804  13.179   0.867
 7445W        W79793  11.334  38.953  12.078
 7446W        W79794  16.201  14.648  13.456
 7447W        W79795   3.320  20.636   0.748
 7448W        W79796  41.881  12.132  13.990
 7449W        W79797  20.204   1.438  14.794
 7450W        W79798  41.811  24.101  12.823
 7451W        W79799  16.247   7.390  11.993
 7452W        W79800  29.471  23.717  11.452
 7453W        W79801  22.597  20.206  10.596
 7454W        W79802  37.419  22.175   3.826
 7455W        W79803   8.261  24.161  10.439
 7456W        W79804  37.463  11.858  13.934
 7457W        W79805  38.029  24.556  14.300
 7458W        W79806  17.768  19.768  11.483
 7459W        W79807  21.529  23.057   2.282
 7460W        W79808   3.301  40.334  13.490
 7461W        W79809  40.312  22.187   2.228
 7462W        W79810   0.375   0.748   0.353
 7463W        W79811  22.743   4.941   1.754
 7464W        W79812  13.748   4.312  14.486
 7465W        W79813  34.967   7.405  13.980
 7466W        W79814  40.797  41.009  14.963
 7467W        W79815  37.998  30.976   1.868
 7468W        W79816  34.108   3.215   4.339
 7469W        W79817  43.408  24.515   3.342
 7470W        W79818  14.620  10.815   0.454
 7471W        W79819   9.857  15.692  14.314
 7472W        W79820  39.005  35.486  13.839
 7473W        W79821  39.497  43.408  11.947
 7474W        W79822  34.590   2.894  13.394
 7475W        W79823   9.207  24.568   0.422
 7476W        W79824  37.856  30.519  14.951
 7477W        W79825   3.248  36.439   0.330
 7478W        W79826  36.051  38.045   3.694
 7479W        W79827  31.144  11.329   2.742
 7480W        W79828  13.327  10.783  11.493
 7481W        W79829  14.190   0.747  13.488
 7482W        W79830  22.182   0.320   2.886
 7483W        W79831  40.311   1.337   4.199
 7484W        W79832  37.376  34.465  11.094
 7485W        W79833  31.121   2.898   3.701
 7486W        W79834   7.232   6.731   1.814
 7487W        W79835   1.296   0.895  11.518
 7488W        W79836  12.350  29.612   4.204
 7489W        W79837  12.335   4.444  13.859
 7490W        W79838   2.233   1.801  12.087
 7491W        W79839   5.689  26.577  13.063
 7492W        W79840  26.203  44.386   9.949
 7493W        W79841   1.317  18.672   2.328
 7494W        W79842  39.925  26.151   1.756
 7495W        W79843   5.397  34.012   4.672
 7496W        W79844  18.603  28.949  13.797
 7497W        W79845  44.889  28.545   2.364
 7498W        W79846  27.067  33.038  13.938
 7499W        W79847  15.653  34.382   2.736
 7500W        W79848  42.306  42.483  12.848
 7501W        W79849  22.741  17.219  14.453
 7502W        W79850  19.550  15.591  11.463
 7503W        W79851  32.608  20.083  10.609
 7504W        W79852   5.348  35.526  12.549
 7505W        W79853   5.289  30.961   2.407
 7506W        W79854   5.927  29.005   0.745
 7507W        W79855  29.170  41.906  11.113
 7508W        W79856  17.733  16.202  11.901
 7509W        W79857  38.372  19.137   0.243
 7510W        W79858   6.320  21.574  13.957
 7511W        W79859  10.778  38.999   9.960
 7512W        W79860  26.562   0.390  14.484
 7513W        W79861   9.772  38.881   0.953
 7514W        W79862  24.176  31.020  11.945
 7515W        W79863  38.450   6.423  10.007
 7516W        W79864  44.402  33.470   3.342
 7517W        W79865  26.175   2.262   2.682
 7518W        W79866   4.762  27.114  11.900
 7519W        W79867  31.615   5.819  13.326
 7520W        W79868  33.547  39.976   2.227
 7521W        W79869  21.107  26.528   2.720
 7522W        W79870  32.450  14.746  10.998
 7523W        W79871  15.205  31.047   2.681
 7524W        W79872  43.516   8.283   4.264
 7525W        W79873   9.721  39.948   2.333
 7526W        W79874  42.777  19.281  13.514
 7527W        W79875  21.160  36.521  10.513
 7528W        W79876  26.079  34.471   0.850
 7529W        W79877  18.077  14.292   2.714
 7530W        W79878  23.079  25.214  10.500
 7531W        W79879  28.444  18.737  12.406
 7532W        W79880  10.298  37.383  12.966
 7533W        W79881  44.377  30.954   0.883
 7534W        W79882  22.643  41.901  11.484
 7535W        W79883  30.065  30.415  14.772
 7536W        W79884  36.031  34.919  14.512
 7537W        W79885  34.890  26.462  11.430
 7538W        W79886   2.451   1.839   1.716
 7539W        W79887  13.217  44.872  11.093
 7540W        W79888  31.631  25.057   3.159
 7541W        W79889  16.779  23.633   4.741
 7542W        W79890  20.103  16.117   2.200
 7543W        W79891  30.041  11.807   1.754
 7544W        W79892   1.962  11.204   0.463
 7545W        W79893  22.119  13.806  10.555
 7546W        W79894  29.583   8.360   1.926
 7547W        W79895   3.846  30.907   3.773
 7548W        W79896  11.135   2.347  12.948
 7549W        W79897  36.901   9.265  12.537
 7550W        W79898   0.924  11.648  13.933
 7551W        W79899  34.502  39.476  11.472
 7552W        W79900  27.493   0.811   1.245
 7553W        W79901  31.623  26.505  11.525
 7554W        W79902  10.182   9.751   3.286
 7555W        W79903  42.444  28.528  12.929
 7556W        W79904  29.944  18.600   0.942
 7557W        W79905  26.979  16.199  10.896
 7558W        W79906  30.992  35.870  14.363
 7559W        W79907  29.954   6.727   0.871
 7560W        W79908  18.164   2.333  12.534
 7561W        W79909   2.790  11.759  11.969
 7562W        W79910  43.882  30.070   2.752
 7563W        W79911   6.365  36.855  10.461
 7564W        W79912  15.738  32.046   3.247
 7565W        W79913   7.383  29.568  11.957
 7566W        W79914  27.089  14.129   4.774
 7567W        W79915   6.341  20.699   0.777
 7568W        W79916  13.805  44.461  10.620
 7569W        W79917  42.804  39.412   2.206
 7570W        W79918  30.595  22.745  11.022
 7571W        W79919  23.642   2.856  11.438
 7572W        W79920  29.112  23.225   2.851
 7573W        W79921  33.579  18.293   4.710
 7574W        W79922   0.787  39.390  14.927
 7575W        W79923  15.682  24.084  11.918
 7576W        W79924  23.537  25.032   0.955
 7577W        W79925  12.743  39.390  13.013
 7578W        W79926  32.082  24.178   0.341
 7579W        W79927  28.119  40.473  11.026
 7580W        W79928  16.082  37.960   4.611
 7581W        W79929   3.756  31.054   4.604
 7582W        W79930   5.933  19.125  14.333
 7583W        W79931   0.882  12.680  12.907
 7584W        W79932  23.676  12.719   0.286
 7585W        W79933  43.787  23.164  14.970
 7586W        W79934   4.742  23.507  10.421
 7587W        W79935  26.648   3.429   0.324
 7588W        W79936  24.709  12.151  14.929
 7589W        W79937   5.787  40.303  13.883
 7590W        W79938   5.434  33.983   2.419
 7591W        W79939  27.104  29.543   2.885
 7592W        W79940   4.893  42.998   0.434
 7593W        W79941  32.631  25.636   2.881
 7594W        W79942  15.232  32.046  13.311
 7595W        W79943   5.211  15.196  11.858
 7596W        W79944   7.740  26.529  12.505
 7597W        W79945  14.591   7.196  11.918
 7598W        W79946  34.869  24.219  11.531
 7599W        W79947   1.836  17.636   1.725
 7600W        W79948   1.878  27.117  14.367
 7601W        W79949  42.426   5.398   1.395
 7602W        W79950  16.096   8.254  12.847
 7603W        W79951  15.639  15.665  13.441
 7604W        W79952  24.533  30.579   2.754
 7605W        W79953   2.316  12.159  10.428
 7606W        W79954   6.292  35.501   0.293
 7607W        W79955  26.625  20.625   1.881
 7608W        W79956  28.983   1.470  13.361
 7609W        W79957  11.862  39.329  13.031
 7610W        W79958  14.649  29.099  14.469
 7611W        W79959  25.101  28.164   2.260
 7612W        W79960  14.634  36.400   0.755
 7613W        W79961  29.081   1.347  11.374
 7614W        W79962  29.516  29.469   4.238
 7615W        W79963  13.701   1.405   4.309
 7616W        W79964  15.297  24.519   0.866
 7617W        W79965  17.799   9.750  11.549
 7618W        W79966  27.455  37.883  12.993
 7619W        W79967  18.114  32.126   4.134
 7620W        W79968  32.933  13.806  12.363
 7621W        W79969   2.374  25.061  14.025
 7622W        W79970   4.256  30.910   3.153
 7623W        W79971  27.551  16.316  12.435
 7624W        W79972  19.175  12.121   1.832
 7625W        W79973  25.526  23.178  13.319
 7626W        W79974  37.075  17.795   0.844
 7627W        W79975  36.027  36.933   1.808
 7628W        W79976   8.810  24.577  13.903
 7629W        W79977  41.880  35.433  13.844
 7630W        W79978  30.584   1.936  13.510
 7631W        W79979  29.631  18.720   0.464
 7632W        W79980   0.797  41.531   5.181
 7633W        W79981  14.749  22.072  14.446
 7634W        W79982  15.589  15.308  13.044
 7635W        W79983  27.993   2.284   3.386
 7636W        W79984  31.012  36.986  14.507
 7637W        W79985  35.967   7.891  11.044
 7638W        W79986  20.232  27.992  14.853
 7639W        W79987  24.522  16.114  11.953
 7640W        W79988  13.812  44.899   2.341
 7641W        W79989   5.217  22.126   4.677
 7642W        W79990  21.047  19.052   2.199
 7643W        W79991  36.898  25.647  12.935
 7644W        W79992  29.485  34.946   3.189
 7645W        W79993   1.446  44.366   4.339
 7646W        W79994  43.339  13.204  14.468
 7647W        W79995  34.086  34.062   4.120
 7648W        W79996   5.357   5.819  12.445
 7649W        W79997  42.945  16.713   4.145
 7650W        W79998  17.607   3.387   0.302
 7651W        W79999  30.978  43.802  13.922
 7652W        W80000   8.724  10.236  13.453
 7653W        W80001  44.387   2.803   3.330
 7654W        W80002   4.893  12.834  13.543
 7655W        W80003  43.845  17.783  11.434
 7656W        W80004   4.254   7.403   2.350
 7657W        W80005  23.231   9.837   4.768
 7658W        W80006  31.107   2.798  12.014
 7659W        W80007  14.700  16.253  10.466
 7660W        W80008  19.637   1.300  11.467
 7661W        W80009   5.798  36.096  14.504
 7662W        W80010  34.093   0.823   0.796
 7663W        W80011  41.399  28.939  13.871
 7664W        W80012  12.612  17.802  14.452
 7665W        W80013  28.105   4.713   5.110
 7666W        W80014  27.986  17.675   4.136
 7667W        W80015  25.080  43.330   3.820
 7668W        W80016  32.887  44.387   0.389
 7669W        W80017   6.380   0.401   1.904
 7670W        W80018   4.707  10.270   0.917
 7671W        W80019  44.363  16.637  13.050
 7672W        W80020  31.431  18.288   0.326
 7673W        W80021  44.867  23.999   2.873
 7674W        W80022  37.490  16.813  11.520
 7675W        W80023  20.201  40.426   2.337
 7676W        W80024  32.031   0.294  14.513
 7677W        W80025  34.416  15.188  10.555
 7678W        W80026  30.010  38.850   4.122
 7679W        W80027  34.875  18.278  13.998
 7680W        W80028  31.966  26.117  13.958
 7681W        W80029   0.282  33.538   1.779
 7682W        W80030  17.664  42.331  14.918
 7683W        W80031  37.367   0.927   3.265
 7684W        W80032  12.301  30.029  14.910
 7685W        W80033  11.156  27.686   3.352
 7686W        W80034  41.832  28.606   3.326
 7687W        W80035  19.736  31.915  12.854
 7688W        W80036   6.207  31.975  12.574
 7689W        W80037  15.646   4.851  12.412
 7690W        W80038  44.803   0.409   0.242
 7691W        W80039  35.908   5.192   1.883
 7692W        W80040  43.014  36.412  12.827
 7693W        W80041  43.833  12.252   1.321
 7694W        W80042   8.876  16.809  11.982
 7695W        W80043  14.269   9.302   2.695
 7696W        W80044  15.803   7.887   5.310
 7697W        W80045  23.118  43.786   2.748
 7698W        W80046  32.994  10.683   1.769
 7699W        W80047   0.830   2.409  11.599
 7700W        W80048   2.928   5.761  12.831
 7701W        W80049  18.230  31.933   5.645
 7702W        W80050  11.279  38.860  12.882
 7703W        W80051  18.255  29.483  12.561
 7704W        W80052   8.853  44.878   4.160
 7705W        W80053  30.526   0.297  11.087
 7706W        W80054  37.920  15.807  12.341
 7707W        W80055  24.228  35.020  11.098
 7708W        W80056   3.888  35.518  13.926
 7709W        W80057   5.391  42.491  13.513
 7710W        W80058  43.847  12.119   0.330
 7711W        W80059  30.576  28.608   1.367
 7712W        W80060  40.839   7.846   3.161
 7713W        W80061  13.108  20.231  10.445
 7714W        W80062  41.383  27.010  11.538
 7715W        W80063  41.491  26.511   5.099
 7716W        W80064   7.191  27.160  11.472
 7717W        W80065  33.899   5.326   0.322
 7718W        W80066  15.283  12.200  14.373
 7719W        W80067  29.986   7.716   1.726
 7720W        W80068  29.963   0.917   0.878
 7721W        W80069  29.580   7.760   2.217
 7722W        W80070  40.513  29.174   2.391
 7723W        W80071  39.376  39.546   3.747
 7724W        W80072  40.455  31.918   0.886
 7725W        W80073   7.889  39.904   2.784
 7726W        W80074  31.485  28.472   2.695
 7727W        W80075  24.027  17.072   4.763
 7728W        W80076  25.069   2.894   3.668
 7729W        W80077  14.249  39.937   2.706
 7730W        W80078   8.395  38.337   0.907
 7731W        W80079  17.117  26.955  12.456
 7732W        W80080  24.581  19.729  13.843
 7733W        W80081  38.040  14.832  13.510
 7734W        W80082  10.180   3.391  12.464
 7735W        W80083   3.846  42.848   3.329
 7736W        W80084  18.555  38.883  11.517
 7737W        W80085  25.137  41.383   3.259
 7738W        W80086  22.685  29.011  13.050
 7739W        W80087  17.590  25.482  13.538
 7740W        W80088   3.269   8.216  11.939
 7741W        W80089  23.192  28.448   3.282
 7742W        W80090  16.781  27.098   3.840
 7743W        W80091   3.303  19.707   4.680
 7744W        W80092   8.795  21.624  12.048
 7745W        W80093  34.896  15.787  13.821
 7746W        W80094  36.037  41.874   1.881
 7747W        W80095   3.871  38.543  14.299
 7748W        W80096  44.825  18.079   0.301
 7749W        W80097  24.590  22.628  14.454
 7750W        W80098  31.130   3.788   2.728
 7751W        W80099  23.088  20.106   0.257
 7752W        W80100   7.174   6.302   1.819
 7753W        W80101  43.465  27.611   4.729
 7754W        W80102  43.781   9.302   4.276
 7755W        W80103  12.750   2.427   4.344
 7756W        W80104   8.720   9.236  13.887
 7757W        W80105  39.373  26.644   4.336
 7758W        W80106  41.958  19.607   2.387
 7759W        W80107  40.347  29.970  11.077
 7760W        W80108  36.053  21.533  14.511
 7761W        W80109  39.963   5.288   1.291
 7762W        W80110  25.993  32.439  11.025
 7763W        W80111  26.986  25.547  11.888
 7764W        W80112   7.198  32.906   0.428
 7765W        W80113  16.284  34.597  11.930
 7766W        W80114  22.219   9.280  12.842
 7767W        W80115  42.355  14.169   0.259
 7768W        W80116  33.434  24.998   4.340
 7769W        W80117  41.356   9.780  14.395
 7770W        W80118  42.322  10.273  13.910
 7771W        W80119  40.904  35.890   4.794
 7772W        W80120  37.354   5.432   1.268
 7773W        W80121  16.720  22.092  12.883
 7774W        W80122  22.582   8.694  10.588
 7775W        W80123  36.063  15.184  12.995
 7776W        W80124   0.952  33.380   0.256
 7777W        W80125  28.037  41.376   1.387
 7778W        W80126  24.102  36.000   1.714
 7779W        W80127  37.514   0.954   2.803
 7780W        W80128  37.878  26.138   3.707
 7781W        W80129  21.586  23.674  11.563
 7782W        W80130   2.275  16.688  10.538
 7783W        W80131   9.216  19.617   9.575
 7784W        W80132   3.350  10.146  11.437
 7785W        W80133  16.640   8.687   1.262
 7786W        W80134  27.535  39.327  14.808
 7787W        W80135  16.797   6.211  11.869
 7788W        W80136  29.428  28.176  12.963
 7789W        W80137   9.713   2.895  12.577
 7790W        W80138  28.678  39.951   3.277
 7791W        W80139  31.962   6.375  11.504
 7792W        W80140  14.599  10.773  11.996
 7793W        W80141  15.769  18.087  11.430
 7794W        W80142  11.268  43.470   2.812
 7795W        W80143  19.619  24.179  13.417
 7796W        W80144  41.825  36.027   5.111
 7797W        W80145  40.483  10.213   1.434
 7798W        W80146  33.918  20.138   4.209
 7799W        W80147   6.186  43.985  12.438
 7800W        W80148   6.275  16.688  10.410
 7801W        W80149   6.202  19.193  14.344
 7802W        W80150  21.108  17.187   0.379
 7803W        W80151  35.370  38.347   4.230
 7804W        W80152  33.405  33.391  11.542
 7805W        W80153  10.182  27.613  10.433
 7806W        W80154  27.056  31.423   1.723
 7807W        W80155  39.383  41.006  13.885
 7808W        W80156   0.487  29.953   2.861
 7809W        W80157  23.227  17.143   2.829
 7810W        W80158   8.328  39.369   1.913
 7811W        W80159  44.365  44.497   5.274
 7812W        W80160   5.923   7.282   0.782
 7813W        W80161  32.133  26.649  11.573
 7814W        W80162   5.223   9.701  10.439
 7815W        W80163  15.285   0.751   2.681
 7816W        W80164  43.417  39.550   2.670
 7817W        W80165   5.758  32.092   1.892
 7818W        W80166  33.981  23.085  14.762
 7819W        W80167  15.096  36.984   3.375
 7820W        W80168  44.434  26.626  11.064
 7821W        W80169   0.251  37.884  10.620
 7822W        W80170  27.138  34.584   4.165
 7823W        W80171  11.197   4.389  12.963
 7824W        W80172  42.332  26.005   3.209
 7825W        W80173  26.618  22.720   3.842
 7826W        W80174  33.505   0.873   2.833
 7827W        W80175  22.133  44.486  14.437
 7828W        W80176  30.579   0.445  13.931
 7829W        W80177  14.237  10.850  11.521
 7830W        W80178  14.828  43.914  11.538
 7831W        W80179   4.301  26.645  12.343
 7832W        W80180   7.721  37.086  11.582
 7833W        W80181  42.816  43.991   0.819
 7834W        W80182  44.886  10.801   0.458
 7835W        W80183  38.462   1.247  11.905
 7836W        W80184  30.434  28.097   2.320
 7837W        W80185  19.725  44.447   2.671
 7838W        W80186   1.838  23.056  13.322
 7839W        W80187  13.207  39.919  13.314
 7840W        W80188  44.271  13.252  11.867
 7841W        W80189  17.683  30.090   0.480
 7842W        W80190   7.865  20.143   0.850
 7843W        W80191  11.622   3.383   1.876
 7844W        W80192  26.588  28.156   3.157
 7845W        W80193  38.568  29.447  12.037
 7846W        W80194  29.077  33.094   2.419
 7847W        W80195  21.694  43.871  14.274
 7848W        W80196  37.527  11.826  14.386
 7849W        W80197  43.503  27.473  11.374
 7850W        W80198  28.168   6.809  13.498
 7851W        W80199   5.386  39.039   1.424
 7852W        W80200  20.183  44.434   0.733
 7853W        W80201   1.735  44.424  13.822
 7854W        W80202   2.941  24.039  14.285
 7855W        W80203  32.495  16.261  11.916
 7856W        W80204  27.517  34.513  13.936
 7857W        W80205  42.361   4.908   9.982
 7858W        W80206   9.364  19.558   0.411
 7859W        W80207  15.682  40.885  10.930
 7860W        W80208  19.544  25.136  12.012
 7861W        W80209   6.881  28.037  14.962
 7862W        W80210   9.309  32.927   5.287
 7863W        W80211   6.254  22.177   1.394
 7864W        W80212  14.761  41.409  11.498
 7865W        W80213   1.776  22.123  10.564
 7866W        W80214  21.165   3.814  10.523
 7867W        W80215  35.950  39.840  10.485
 7868W        W80216  14.233  31.534  13.444
 7869W        W80217  18.549  28.026   0.859
 7870W        W80218  24.613  14.269  13.388
 7871W        W80219   7.896  40.032   1.906
 7872W        W80220   8.781  20.128   1.793
 7873W        W80221   5.310  18.236   4.630
 7874W        W80222  41.904  43.934  13.864
 7875W        W80223  37.985  39.379   2.872
 7876W        W80224   5.875   3.917   4.313
 7877W        W80225  34.871  17.259   2.827
 7878W        W80226  20.758  22.250  11.042
 7879W        W80227   0.806  43.821   0.377
 7880W        W80228  14.727   2.930   0.411
 7881W        W80229   4.780  21.242   4.748
 7882W        W80230  27.971  30.454   0.373
 7883W        W80231  11.651  37.831  14.965
 7884W        W80232  41.436   3.399  10.986
 7885W        W80233  22.580  38.531   9.957
 7886W        W80234  17.684  17.235  12.849
 7887W        W80235  34.529  33.926  13.385
 7888W        W80236  38.424  27.492   0.773
 7889W        W80237  38.522  23.221  10.636
 7890W        W80238   5.420   1.857   4.682
 7891W        W80239  30.466  10.264   4.631
 7892W        W80240  44.305  40.887   1.252
 7893W        W80241   6.424  20.064   3.183
 7894W        W80242  18.179  21.043   3.341
 7895W        W80243  41.922   6.194  14.478
 7896W        W80244  43.406   7.814   3.319
 7897W        W80245  33.476  43.010  13.009
 7898W        W80246  26.186  15.780  11.535
 7899W        W80247   5.834  42.287  14.947
 7900W        W80248  21.706  28.179  13.025
 7901W        W80249  20.685   9.320   0.813
 7902W        W80250  20.252  20.690   1.853
 7903W        W80251  10.698  22.549  14.807
 7904W        W80252  42.348  15.135   4.151
 7905W        W80253   5.854   3.809  12.527
 7906W        W80254  13.116  18.685   0.310
 7907W        W80255  27.532  34.959   0.751
 7908W        W80256  17.644  40.877   2.891
 7909W        W80257  30.467   6.236  13.340
 7910W        W80258   8.705  27.180   0.410
 7911W        W80259  27.595  29.953  13.924
 7912W        W80260  20.084  41.819   0.741
 7913W        W80261  36.543   0.308  10.509
 7914W        W80262  18.181  36.006  12.876
 7915W        W80263  25.185  39.885   4.333
 7916W        W80264  44.892  44.938   4.137
 7917W        W80265  28.498   6.705   4.353
 7918W        W80266  34.903   9.856  12.073
 7919W        W80267   2.785   8.237   1.877
 7920W        W80268  37.359  36.920  14.883
 7921W        W80269  39.840   2.940  13.983
 7922W        W80270  32.598  11.234   1.223
 7923W        W80271  21.757  30.651   3.252
 7924W        W80272  10.191  27.150   3.245
 7925W        W80273  14.242  31.987  13.451
 7926W        W80274   4.704   5.893   4.329
 7927W        W80275  23.622  10.740   2.829
 7928W        W80276  18.090  31.548  12.423
 7929W        W80277  14.697  20.130  14.843
 7930W        W80278  29.012  43.942  12.034
 7931W        W80279  18.647  18.244   3.334
 7932W        W80280  30.085  36.438   1.348
 7933W        W80281  12.253   3.952   1.298
 7934W        W80282  14.173  27.152   2.352
 7935W        W80283  24.086  33.532   3.183
 7936W        W80284  22.695   2.798   2.212
 7937W        W80285   8.806  41.881  12.892
 7938W        W80286   8.853  24.207   3.163
 7939W        W80287  41.032  38.364   4.352
 7940W        W80288  21.546  18.595  11.463
 7941W        W80289   1.297  34.021   0.828
 7942W        W80290   9.322  22.054   1.935
 7943W        W80291  13.311  44.402  14.920
 7944W        W80292  34.601  14.805   1.918
 7945W        W80293  33.388  39.003  14.353
 7946W        W80294   9.649  43.951  14.476
 7947W        W80295  41.975  26.627   1.850
 7948W        W80296  35.416  34.405  12.361
 7949W        W80297   6.344  32.010   2.852
 7950W        W80298  10.365   2.827  11.518
 7951W        W80299  21.633   9.357   5.646
 7952W        W80300   9.377  30.925  13.804
 7953W        W80301  31.407  21.551   1.355
 7954W        W80302   6.873   9.314   3.170
 7955W        W80303  26.012   7.363  11.565
 7956W        W80304  35.365  26.975   0.785
 7957W        W80305  33.944  38.403   0.354
 7958W        W80306  22.641  41.360  14.429
 7959W        W80307   3.311  22.507   0.748
 7960W        W80308  34.510  19.082   0.869
 7961W        W80309  33.120   0.765   0.908
 7962W        W80310   9.794  36.424   1.408
 7963W        W80311  20.272  40.328  10.973
 7964W        W80312  38.533  15.325   4.233
 7965W        W80313  41.904  32.100   4.780
 7966W        W80314   3.446   9.715  14.818
 7967W        W80315  43.020  38.462  14.834
 7968W        W80316  19.574  35.106  11.063
 7969W        W80317  39.991   1.967  13.027
 7970W        W80318  14.335  19.574  12.067
 7971W        W80319  12.805  39.876  11.506
 7972W        W80320   2.292   1.392  14.912
 7973W        W80321  10.848  17.653  14.991
 7974W        W80322  35.094  35.904  14.003
 7975W        W80323  19.579  18.124   0.915
 7976W        W80324  43.289  40.310  14.437
 7977W        W80325  13.786   0.279   4.266
 7978W        W80326  11.787   4.846  12.436
 7979W        W80327  16.156  24.694   0.411
 7980W        W80328  34.925  33.077   0.281
 7981W        W80329  12.242   3.358   3.255
 7982W        W80330  38.356  40.950   4.227
 7983W        W80331   2.834  13.198  11.494
 7984W        W80332  16.291  27.477  13.897
 7985W        W80333  42.518  15.211  14.802
 7986W        W80334  26.017  42.384   3.784
 7987W        W80335  31.906   0.775   0.398
 7988W        W80336   3.934  10.382   2.764
 7989W        W80337  33.878  12.264   3.699
 7990W        W80338   7.781  40.968   4.231
 7991W        W80339   5.375  21.666  13.988
 7992W        W80340  24.050  29.058  11.508
 7993W        W80341  13.681  43.782   0.966
 7994W        W80342  37.450  18.278   2.826
 7995W        W80343  28.067  36.415   2.204
 7996W        W80344  43.800  26.696  14.839
 7997W        W80345  36.551  11.186   2.302
 7998W        W80346  16.256  33.923   4.672
 7999W        W80347  39.363  18.262  13.825
 8000W        W80348  43.342  32.062  13.989
 8001W        W80349  44.917  37.386  14.290
 8002W        W80350  43.456  23.612   1.342
 8003W        W80351  14.699  44.351  11.529
 8004W        W80352   5.734  44.771  10.534
 8005W        W80353  25.578  14.634   2.766
 8006W        W80354  42.781   7.789   3.869
 8007W        W80355  21.183   3.422   3.848
 8008W        W80356  41.476  18.052  13.407
 8009W        W80357   5.288  18.643   3.364
 8010W        W80358  37.976  33.503   2.376
 8011W        W80359  26.540  41.999  14.477
 8012W        W80360  29.454  28.593  14.803
 8013W        W80361  28.090  36.886   0.885
 8014W        W80362  23.142  39.992  10.900
 8015W        W80363  33.128  24.621   3.319
 8016W        W80364  11.187  18.126  13.994
 8017W        W80365  17.153  30.111   9.468
 8018W        W80366   5.825  43.949  14.927
 8019W        W80367  30.506  37.059   4.329
 8020W        W80368  21.736  33.516   4.321
 8021W        W80369   9.366  30.948  11.897
 8022W        W80370   5.768  40.859   1.928
 8023W        W80371  15.749  41.015   2.408
 8024W        W80372  32.136  39.840   1.735
 8025W        W80373  24.706  20.166   3.285
 8026W        W80374  14.757  14.256  12.352
 8027W        W80375  13.696  42.431  13.523
 8028W        W80376   2.349  37.957   0.799
 8029W        W80377  38.886  12.836   3.319
 8030W        W80378  33.990  19.686   1.923
 8031W        W80379  23.509  24.181  14.421
 8032W        W80380  13.609   4.796   2.370
 8033W        W80381  27.942   8.262   3.678
 8034W        W80382  12.248  19.182  11.948
 8035W        W80383  34.976  23.106   3.271
 8036W        W80384  12.815  27.511  13.795
 8037W        W80385   1.421  44.376  10.484
 8038W        W80386  16.805  38.491  14.454
 8039W        W80387  31.075  20.062  14.934
 8040W        W80388  19.588  33.046   0.792
 8041W        W80389  21.242  44.778  10.639
 8042W        W80390  16.139  25.976  11.889
 8043W        W80391   3.901   6.370  10.637
 8044W        W80392   0.396  10.802   3.789
 8045W        W80393  26.059  26.511  13.344
 8046W        W80394  14.708  38.423   3.327
 8047W        W80395  35.068  37.560  13.390
 8048W        W80396  22.025  21.045   0.732
 8049W        W80397   7.278  31.147   4.704
 8050W        W80398  33.065  20.709   0.922
 8051W        W80399  12.125   8.850   0.911
 8052W        W80400  37.569  26.663  14.808
 8053W        W80401  36.411  31.097  14.380
 8054W        W80402   6.241  43.398   0.965
 8055W        W80403  23.657  38.426  12.987
 8056W        W80404   4.418  44.434   2.356
 8057W        W80405  39.956   3.321   3.379
 8058W        W80406  42.451  17.767  13.309
 8059W        W80407  36.438  15.724   4.744
 8060W        W80408  16.073  23.237  14.810
 8061W        W80409   4.342  33.990   0.252
 8062W        W80410  10.240  40.445   2.744
 8063W        W80411  41.872   9.316  11.410
 8064W        W80412   1.763  24.489   3.860
 8065W        W80413  39.391  44.365   1.836
 8066W        W80414  13.820   3.287   3.731
 8067W        W80415  31.043   1.411   2.876
 8068W        W80416  16.767  10.263  12.489
 8069W        W80417   8.280  25.695   3.346
 8070W        W80418  24.030  38.451  14.995
 8071W        W80419  29.030  22.168  11.573
 8072W        W80420   0.380  37.075   4.684
 8073W        W80421  33.943   7.841  14.903
 8074W        W80422  14.737   8.838   1.764
 8075W        W80423  13.173  25.982   2.677
 8076W        W80424  27.478  41.817  13.432
 8077W        W80425  10.779  44.432   2.247
 8078W        W80426  27.004  13.747   0.325
 8079W        W80427  26.981   7.805   3.198
 8080W        W80428  28.974  12.310  11.098
 8081W        W80429   9.302  32.486  10.092
 8082W        W80430  28.137  22.145  10.908
 8083W        W80431   8.752  19.246  13.494
 8084W        W80432  29.580  15.781   2.337
 8085W        W80433   8.683  26.632   3.152
 8086W        W80434  13.639  31.529   4.156
 8087W        W80435  25.086  33.577  12.578
 8088W        W80436  17.086  39.493  10.451
 8089W        W80437   7.858  12.318  12.880
 8090W        W80438  40.896  36.588  14.294
 8091W        W80439  44.952  28.992  14.488
 8092W        W80440  24.097   8.267   1.709
 8093W        W80441  39.875  13.312   4.685
 8094W        W80442  20.699  21.723   4.261
 8095W        W80443  34.508  16.717   4.180
 8096W        W80444   4.863  39.830  11.395
 8097W        W80445   9.780   2.264   0.963
 8098W        W80446  24.101  27.131   3.866
 8099W        W80447   0.418  20.659  13.425
 8100W        W80448  11.243   0.851   1.720
 8101W        W80449   1.271  36.907  11.040
 8102W        W80450  35.512  22.747   4.733
 8103W        W80451  38.480  44.337  10.896
 8104W        W80452  43.423  20.564  14.309
 8105W        W80453  44.268  38.830   0.438
 8106W        W80454  43.006  15.612   5.150
 8107W        W80455  37.012  35.054   4.761
 8108W        W80456   2.299  27.505   1.426
 8109W        W80457   8.870  42.912   3.344
 8110W        W80458  29.513  39.433   4.250
 8111W        W80459   2.275   0.893  11.022
 8112W        W80460  27.566  19.158   4.783
 8113W        W80461  18.647  18.656  12.465
 8114W        W80462  17.726  41.501  10.509
 8115W        W80463  17.256  32.142  14.892
 8116W        W80464  34.011  31.952  11.965
 8117W        W80465   7.716   2.956   0.922
 8118W        W80466  37.070  23.152   1.447
 8119W        W80467  18.657  41.416  11.988
 8120W        W80468   8.263  29.510   2.207
 8121W        W80469   8.676  13.743   1.784
 8122W        W80470   1.849  23.548   1.357
 8123W        W80471  39.944  38.329   3.674
 8124W        W80472  21.550  19.224   1.733
 8125W        W80473  38.016   4.215  14.412
 8126W        W80474  26.677   7.796  10.991
 8127W        W80475  31.106  44.882  11.120
 8128W        W80476  18.051   3.902  13.968
 8129W        W80477   4.765  32.068  13.977
 8130W        W80478  29.040  11.695   4.632
 8131W        W80479  37.570  43.777   0.294
 8132W        W80480   2.891   5.417   1.437
 8133W        W80481  33.976  30.481   2.870
 8134W        W80482  35.388  40.849   2.190
 8135W        W80483   7.806   0.832   0.268
 8136W        W80484  15.106  43.802  11.073
 8137W        W80485  28.472   8.195  10.951
 8138W        W80486  10.200   3.827   0.828
 8139W        W80487   1.934  19.571  12.032
 8140W        W80488  32.959  38.899   4.192
 8141W        W80489  22.134  31.522   1.733
 8142W        W80490   0.798  10.663  13.828
 8143W        W80491  38.887   2.817  10.498
 8144W        W80492   9.159   4.842   0.828
 8145W        W80493  43.856   6.250  14.327
 8146W        W80494   3.281  24.558   2.669
 8147W        W80495  39.496  40.412   2.876
 8148W        W80496  10.840  33.590   4.604
 8149W        W80497  15.648   6.841  11.059
 8150W        W80498  22.664  36.364  14.981
 8151W        W80499  32.088  41.919   4.631
 8152W        W80500  22.173  13.717   2.310
 8153W        W80501  39.341   2.728   1.253
 8154W        W80502  40.529  34.582   2.274
 8155W        W80503   0.785   0.980   0.457
 8156W        W80504   6.729  31.031   4.764
 8157W        W80505  36.048  28.091   3.800
 8158W        W80506  28.138  13.715   0.243
 8159W        W80507  42.982  18.231   2.875
 8160W        W80508   4.927  43.985  14.425
 8161W        W80509   3.222  10.192   5.256
 8162W        W80510  33.618  25.047  11.063
 8163W        W80511  40.031  30.594   1.364
 8164W        W80512  42.290   3.890  14.286
 8165W        W80513  38.412   6.346  10.519
 8166W        W80514   3.780  36.972  12.003
 8167W        W80515  41.815  15.099  14.933
 8168W        W80516   3.329   1.269  14.842
 8169W        W80517  34.597  11.829  10.562
 8170W        W80518  21.043  30.083   1.226
 8171W        W80519  21.230   4.389  14.027
 8172W        W80520  30.039   7.339  12.506
 8173W        W80521   5.406  12.278   2.286
 8174W        W80522  25.621  30.449   2.806
 8175W        W80523  14.102  40.524  13.894
 8176W        W80524  41.396  30.142   0.393
 8177W        W80525  14.225   9.719  12.489
 8178W        W80526   5.292   4.213   1.412
 8179W        W80527  12.749   0.787   0.926
 8180W        W80528   1.347  28.957  10.420
 8181W        W80529  28.036  25.090  10.969
 8182W        W80530  19.215   8.706  13.324
 8183W        W80531  40.912   1.833  12.410
 8184W        W80532   7.760  23.725   3.800
 8185W        W80533  10.355   5.931   5.223
 8186W        W80534  21.751  25.703  13.480
 8187W        W80535   5.384  10.778   0.895
 8188W        W80536  25.584  23.135  10.491
 8189W        W80537  29.931   4.372  10.418
 8190W        W80538  27.520   0.781  11.939
 8191W        W80539   7.900  34.451   0.950
 8192W        W80540  41.899   7.190   1.363
 8193W        W80541   4.365   2.447   0.933
 8194W        W80542   9.384  23.623   1.348
 8195W        W80543  11.137   8.254  12.969
 8196W        W80544  34.381  11.286   3.789
 8197W        W80545  32.127  32.959   3.752
 8198W        W80546  33.124  24.192  13.527
 8199W        W80547  30.531   4.742  13.815
 8200W        W80548  32.131  20.245  10.957
 8201W        W80549  16.121  15.755   1.339
 8202W        W80550  32.074  19.761   4.598
 8203W        W80551  16.715  24.066   1.292
 8204W        W80552  38.939   8.686   1.813
 8205W        W80553  20.255  29.650  11.061
 8206W        W80554  37.856  17.098   1.709
 8207W        W80555  38.433  44.357   4.147
 8208W        W80556  30.652  33.062  14.999
 8209W        W80557   5.209  12.693   2.403
 8210W        W80558  30.417   9.778   4.686
 8211W        W80559  19.770  13.311  10.932
 8212W        W80560  38.351  12.230  14.882
 8213W        W80561  36.008   0.454  14.335
 8214W        W80562   6.783  28.489   1.763
 8215W        W80563  32.114   6.426   1.779
 8216W        W80564  39.893  12.168  13.318
 8217W        W80565  17.249  12.179   4.290
 8218W        W80566   5.216  32.637   2.188
 8219W        W80567  37.970   3.952   3.843
 8220W        W80568   3.741  18.230  11.390
 8221W        W80569  12.660  29.588   3.165
 8222W        W80570   2.431  39.904   1.899
 8223W        W80571  21.206  21.570   0.278
 8224W        W80572  30.465  34.996  13.436
 8225W        W80573   2.376  38.883   5.189
 8226W        W80574  15.743  32.940   2.287
 8227W        W80575  43.987  44.806   4.204
 8228W        W80576   7.720   3.813   1.364
 8229W        W80577  26.683  38.534   1.244
 8230W        W80578  23.575  31.071  11.939
 8231W        W80579  43.795   5.735   2.348
 8232W        W80580   1.959  13.332  14.790
 8233W        W80581  25.696  41.473  11.490
 8234W        W80582  23.023  34.117   4.281
 8235W        W80583  11.643  42.484  11.481
 8236W        W80584  19.681   8.206  10.903
 8237W        W80585  29.544  10.842  14.378
 8238W        W80586  25.059   8.782  10.053
 8239W        W80587   7.734  23.177   1.889
 8240W        W80588  16.227  35.433  14.430
 8241W        W80589   4.929  32.104   0.320
 8242W        W80590   2.925  27.067   4.708
 8243W        W80591  32.135   1.857   1.325
 8244W        W80592  10.863  23.156  14.827
 8245W        W80593  44.336  35.469   3.262
 8246W        W80594  27.017  28.593  12.399
 8247W        W80595   9.208  31.476  12.857
 8248W        W80596  21.575   3.854  14.863
 8249W        W80597  14.300  32.890   4.742
 8250W        W80598  41.808   5.276   2.716
 8251W        W80599  32.950   4.411  11.083
 8252W        W80600  39.328  26.196  11.589
 8253W        W80601  35.933  10.206  11.908
 8254W        W80602  36.569  33.536   1.402
 8255W        W80603  43.811  35.053   1.317
 8256W        W80604  37.372  27.536   4.220
 8257W        W80605  44.464  37.479   0.920
 8258W        W80606   2.455   4.816  14.332
 8259W        W80607  36.034  40.920  12.018
 8260W        W80608  14.725  11.268   1.351
 8261W        W80609  26.560  40.406  11.937
 8262W        W80610  19.235  13.701  10.601
 8263W        W80611  41.016  41.374   2.724
 8264W        W80612  32.913  20.042   3.305
 8265W        W80613  26.204   8.846  14.764
 8266W        W80614  14.618  34.490   0.346
 8267W        W80615  10.380  23.625   1.724
 8268W        W80616   8.394   6.859  11.072
 8269W        W80617  29.959   2.463   0.756
 8270W        W80618  11.732  23.579  12.923
 8271W        W80619  23.102  43.826  13.972
 8272W        W80620  31.972  38.373  12.933
 8273W        W80621  38.394  42.885  11.470
 8274W        W80622  43.890  26.197   1.314
 8275W        W80623  44.310   6.698   3.209
 8276W        W80624  43.296   4.741   0.480
 8277W        W80625  44.424  22.243  11.948
 8278W        W80626  40.388  24.642  13.886
 8279W        W80627  26.637  10.314   2.669
 8280W        W80628  31.102  26.470  12.041
 8281W        W80629  32.493  27.609  14.986
 8282W        W80630  14.832  13.165   2.383
 8283W        W80631  32.400  31.094  14.348
 8284W        W80632  43.804  39.453  13.517
 8285W        W80633  20.627  39.541  11.961
 8286W        W80634  24.479  19.220   1.868
 8287W        W80635  26.014  41.527  14.498
 8288W        W80636  26.104  41.794   4.824
 8289W        W80637  30.609  27.003   3.725
 8290W        W80638  24.101  21.566  14.382
 8291W        W80639  12.774  30.941  13.315
 8292W        W80640   8.864  32.922  13.915
 8293W        W80641  37.020   6.918  14.926
 8294W        W80642  13.286  37.448  10.109
 8295W        W80643  21.717  29.933  10.471
 8296W        W80644  44.363  27.512  11.056
 8297W        W80645  36.892  33.529  14.834
 8298W        W80646  31.053  18.221   0.471
 8299W        W80647  24.516  24.975  14.770
 8300W        W80648  41.529   7.346   1.868
 8301W        W80649  43.894  25.063   2.341
 8302W        W80650  41.359  21.649   4.682
 8303W        W80651   6.211  14.629   2.237
 8304W        W80652   5.338  20.098   1.264
 8305W        W80653  22.138  12.797   1.830
 8306W        W80654  43.779  10.635  14.347
 8307W        W80655  19.098  21.657   4.183
 8308W        W80656  41.347  19.206   4.195
 8309W        W80657  10.812  40.533  11.027
 8310W        W80658  22.042  44.382   4.734
 8311W        W80659  13.813  26.115  12.858
 8312W        W80660  34.584  22.039   2.880
 8313W        W80661  19.189  29.481   5.684
 8314W        W80662  32.624  27.503   2.699
 8315W        W80663  43.354  29.504   4.235
 8316W        W80664  31.119  17.261   1.818
 8317W        W80665  42.323   1.241  13.336
 8318W        W80666   1.337   5.375  11.559
 8319W        W80667  11.638  35.440  12.070
 8320W        W80668   6.895  35.514  13.912
 8321W        W80669  21.109  27.471   9.990
 8322W        W80670  40.986   9.255   1.833
 8323W        W80671  14.269   6.318  14.992
 8324W        W80672  10.754   0.392  14.889
 8325W        W80673  22.557  17.121  11.539
 8326W        W80674   8.872   9.181  12.574
 8327W        W80675  36.410   4.715  10.100
 8328W        W80676  32.108  13.350   1.248
 8329W        W80677  37.831  17.218  11.047
 8330W        W80678  10.819  11.128  13.043
 8331W        W80679  22.544   8.874   3.178
 8332W        W80680   4.717  21.564   3.689
 8333W        W80681  23.533  26.667  13.909
 8334W        W80682  14.131   4.942   3.744
 8335W        W80683  27.003  40.502  12.986
 8336W        W80684  26.651  39.543  11.093
 8337W        W80685  10.141  33.534  11.449
 8338W        W80686  29.648   2.347  11.478
 8339W        W80687   6.921  41.292  10.911
 8340W        W80688  30.949  22.148  11.506
 8341W        W80689  41.970  21.234   1.700
 8342W        W80690  31.505  31.598  12.067
 8343W        W80691  43.954  21.680   1.720
 8344W        W80692  15.700  26.100   3.673
 8345W        W80693  30.472  44.005   2.855
 8346W        W80694  41.532  18.249  11.467
 8347W        W80695   7.182  41.534   2.411
 8348W        W80696  40.953  32.980  12.063
 8349W        W80697  26.159  18.165   0.927
 8350W        W80698  32.628  13.149  11.554
 8351W        W80699   7.749  35.514  12.005
 8352W        W80700  23.630  14.635   0.246
 8353W        W80701  43.860  42.356   2.688
 8354W        W80702  32.531  43.448  12.022
 8355W        W80703   8.686  18.716  11.011
 8356W        W80704   7.818  22.567  10.494
 8357W        W80705   5.778   9.346  12.079
 8358W        W80706  15.659  24.690  12.044
 8359W        W80707  23.232  32.054   4.147
 8360W        W80708  22.655  24.217   1.235
 8361W        W80709   4.734  12.321   0.314
 8362W        W80710  10.304  31.431  10.471
 8363W        W80711  43.856  34.537  12.841
 8364W        W80712  36.964  42.409   4.338
 8365W        W80713  38.899   1.282   4.342
 8366W        W80714  10.850   7.230   1.338
 8367W        W80715  14.330  14.198  13.450
 8368W        W80716  41.851   6.420  11.931
 8369W        W80717  34.071  29.431   1.367
 8370W        W80718  17.148  19.275  12.535
 8371W        W80719   1.296  24.571  14.884
 8372W        W80720  43.298  28.007   4.644
 8373W        W80721  36.505  34.447  13.044
 8374W        W80722  42.485  23.127   0.267
 8375W        W80723  11.162  11.789   3.283
 8376W        W80724  38.952  38.491   3.233
 8377W        W80725  11.731  35.588  13.811
 8378W        W80726  44.927  29.644   0.421
 8379W        W80727  40.523  35.902  13.315
 8380W        W80728   0.329  32.020   3.263
 8381W        W80729  44.315   2.467  13.412
 8382W        W80730  34.027  24.531   2.346
 8383W        W80731  42.310  44.904   0.814
 8384W        W80732  21.183  12.311   4.720
 8385W        W80733  24.021  13.680  10.494
 8386W        W80734  27.041  34.916  10.075
 8387W        W80735   3.798  10.845  13.850
 8388W        W80736   8.266  15.699  10.639
 8389W        W80737  38.018  11.685  14.819
 8390W        W80738  26.571  19.211   1.245
 8391W        W80739   5.913   3.920  10.967
 8392W        W80740  40.438  36.911  12.404
 8393W        W80741  16.092  15.673  10.504
 8394W        W80742   4.239  21.540  11.881
 8395W        W80743   1.385  12.266   0.927
 8396W        W80744  34.522  41.308  14.771
 8397W        W80745  14.738  12.787  11.940
 8398W        W80746  15.317   1.809  13.871
 8399W        W80747   4.436   7.876   1.284
 8400W        W80748   6.405   4.339  10.463
 8401W        W80749  42.287  12.719  12.470
 8402W        W80750  19.775   9.829  11.425
 8403W        W80751   3.404  44.358   4.655
 8404W        W80752  23.050   0.777  14.885
 8405W        W80753  23.523  39.517  12.973
 8406W        W80754  30.938  20.638  11.549
 8407W        W80755  36.013  29.955   0.844
 8408W        W80756   8.660  14.197   4.157
 8409W        W80757  28.165  37.025  10.631
 8410W        W80758   3.307   5.788   2.373
 8411W        W80759  20.078  35.875  14.343
 8412W        W80760   0.398  12.315   3.378
 8413W        W80761  26.553  18.704   2.255
 8414W        W80762  28.601   9.675   0.877
 8415W        W80763  41.817   7.417  11.594
 8416W        W80764  31.470  41.363  12.027
 8417W        W80765  21.064  39.014   0.859
 8418W        W80766  37.355   0.827   5.179
 8419W        W80767  43.907   1.381   0.762
 8420W        W80768  24.636   9.887  12.894
 8421W        W80769  35.417  10.161  12.096
 8422W        W80770  14.724   2.341   0.729
 8423W        W80771  12.733  43.988  11.541
 8424W        W80772  12.833  44.430  11.462
 8425W        W80773  10.383  42.827   0.943
 8426W        W80774  44.846  39.048  10.575
 8427W        W80775   2.735   4.233  11.989
 8428W        W80776   4.277  16.672   0.931
 8429W        W80777  10.729  12.627  11.051
 8430W        W80778  10.217   6.304  10.110
 8431W        W80779  28.032  43.478   4.816
 8432W        W80780  24.194  35.470   2.845
 8433W        W80781   6.316   8.757   9.932
 8434W        W80782  23.523  13.814  13.468
 8435W        W80783  42.439  17.072  11.117
 8436W        W80784  29.427  41.031   1.425
 8437W        W80785  33.019  14.168  12.444
 8438W        W80786  19.750  16.313  13.941
 8439W        W80787  36.919  11.259  10.436
 8440W        W80788  11.148  19.147  11.425
 8441W        W80789  39.537  11.166  11.866
 8442W        W80790  18.687  35.497   1.852
 8443W        W80791  16.191  17.611   3.766
 8444W        W80792   0.394  30.091   3.272
 8445W        W80793   2.895  17.770   4.816
 8446W        W80794   3.357  28.169  14.446
 8447W        W80795  28.596  15.824  10.559
 8448W        W80796  41.854  24.538  13.864
 8449W        W80797   3.307  25.567  11.108
 8450W        W80798   4.720  13.787  11.080
 8451W        W80799  14.282  39.343   1.361
 8452W        W80800  43.479  37.983   0.909
 8453W        W80801   7.758  37.839  12.473
 8454W        W80802  27.000   1.881  14.976
 8455W        W80803  15.301   1.788   3.837
 8456W        W80804  17.092  24.007   4.185
 8457W        W80805  10.313  12.661  10.041
 8458W        W80806   0.302  37.355   2.230
 8459W        W80807   5.747  27.449  14.985
 8460W        W80808  43.322   6.348   4.326
 8461W        W80809  30.979  36.056  13.479
 8462W        W80810  24.038   3.799   3.714
 8463W        W80811   4.824  31.575   5.155
 8464W        W80812   4.860  16.719   2.686
 8465W        W80813  21.057  17.658  13.024
 8466W        W80814  41.902  42.293  11.057
 8467W        W80815  14.757   1.350   4.192
 8468W        W80816  33.540   3.894   0.362
 8469W        W80817  19.687  40.834  10.511
 8470W        W80818  19.589  11.128  14.867
 8471W        W80819  44.321  10.760   0.749
 8472W        W80820   5.335   4.383   4.337
 8473W        W80821   4.880  41.357  11.055
 8474W        W80822   3.803  40.053   0.297
 8475W        W80823   7.411  20.244  14.961
 8476W        W80824  11.205  36.972   0.742
 8477W        W80825  40.931  19.110   0.891
 8478W        W80826  31.148  36.061   5.199
 8479W        W80827  40.471  37.062   4.285
 8480W        W80828  20.590  19.075   0.878
 8481W        W80829  29.531  27.473   0.946
 8482W        W80830  10.877   4.391   1.244
 8483W        W80831  37.440  25.654  11.068
 8484W        W80832  15.769   8.357  12.890
 8485W        W80833  20.527   8.655   2.304
 8486W        W80834  40.944  39.917   4.782
 8487W        W80835   4.419  16.189   4.715
 8488W        W80836  18.781  42.788   3.225
 8489W        W80837  24.570  35.370  11.403
 8490W        W80838  21.215   5.207  13.412
 8491W        W80839  14.746  22.628  11.466
 8492W        W80840  29.571  23.653  14.953
 8493W        W80841  24.642  26.577   4.304
 8494W        W80842  18.643  31.594  13.051
 8495W        W80843  33.380  24.021  10.585
 8496W        W80844  31.988  28.108   4.163
 8497W        W80845   6.419  22.675  14.421
 8498W        W80846  14.588  25.678  11.093
 8499W        W80847  23.523  33.391   0.366
 8500W        W80848  25.962  12.626  14.485
 8501W        W80849   0.311  28.023   3.325
 8502W        W80850  38.062  33.453   0.364
 8503W        W80851  19.045   6.289   0.419
 8504W        W80852  10.697  27.122   1.883
 8505W        W80853   9.888  38.999   2.786
 8506W        W80854  18.764  44.911  13.869
 8507W        W80855  22.636  12.164   1.324
 8508W        W80856  42.975  20.624   0.328
 8509W        W80857  31.513  41.981  12.501
 8510W        W80858  17.231  15.094  10.072
 8511W        W80859  11.293  43.964   4.597
 8512W        W80860  35.426   5.889   4.641
 8513W        W80861  34.999  40.509   3.789
 8514W        W80862  39.386   7.857   1.263
 8515W        W80863  34.385  20.231  13.898
 8516W        W80864  42.386  38.878   1.878
 8517W        W80865  11.268  37.000   1.871
 8518W        W80866  35.082   7.240   3.712
 8519W        W80867  17.229  30.920  12.061
 8520W        W80868  32.958  32.936   1.851
 8521W        W80869  19.181  33.905   4.275
 8522W        W80870  43.310   9.359   2.356
 8523W        W80871   4.405   1.473   1.218
 8524W        W80872  38.890  21.565   3.360
 8525W        W80873  39.012  22.628  10.008
 8526W        W80874   5.381  13.686   3.265
 8527W        W80875   9.164   4.311   4.733
 8528W        W80876  34.032  17.137   3.673
 8529W        W80877  12.853   3.865   3.634
 8530W        W80878  42.029  10.311   5.144
 8531W        W80879  22.208  24.699  11.509
 8532W        W80880  40.485  11.222  12.871
 8533W        W80881   6.202  26.460  10.963
 8534W        W80882  37.405  24.183   2.361
 8535W        W80883   6.826  30.096  11.016
 8536W        W80884  37.373   9.243  12.881
 8537W        W80885  31.587   4.368  12.844
 8538W        W80886  27.675  42.990   4.273
 8539W        W80887   1.744  19.764   0.482
 8540W        W80888   7.796   1.758   1.811
 8541W        W80889  13.299  35.541  12.038
 8542W        W80890  18.218   7.402  10.465
 8543W        W80891  30.545  36.591   3.685
 8544W        W80892  13.724  10.236  13.880
 8545W        W80893  13.835   2.345  11.956
 8546W        W80894  12.794   7.899   2.852
 8547W        W80895  31.624   9.668  13.978
 8548W        W80896  27.480  10.838   4.834
 8549W        W80897  27.579  36.521   3.681
 8550W        W80898   8.224  16.585   0.903
 8551W        W80899   4.880   0.469  14.945
 8552W        W80900  22.209   5.363  14.863
 8553W        W80901  37.031  40.918   1.222
 8554W        W80902  10.700  11.679   3.293
 8555W        W80903  40.842  44.285   4.121
 8556W        W80904   7.319  10.272   3.360
 8557W        W80905  15.785  19.200   3.176
 8558W        W80906  40.908  21.615  12.871
 8559W        W80907  11.365  42.795  13.323
 8560W        W80908  15.206  26.116  11.609
 8561W        W80909  13.769  26.976   3.690
 8562W        W80910  33.520  27.142  11.449
 8563W        W80911  17.649  26.594   5.288
 8564W        W80912  43.394  25.118  11.936
 8565W        W80913  13.643  27.076  10.456
 8566W        W80914  10.333  14.623  14.289
 8567W        W80915  33.479   6.252   1.289
 8568W        W80916  19.728   7.260  13.876
 8569W        W80917  22.022   2.437   2.753
 8570W        W80918  33.881  17.142  11.961
 8571W        W80919  17.668  28.489  13.961
 8572W        W80920   0.766   8.254   0.808
 8573W        W80921  14.276  40.870   0.332
 8574W        W80922   0.836  37.033  10.911
 8575W        W80923  21.084  36.363  11.462
 8576W        W80924  27.008  12.126   3.244
 8577W        W80925   6.730  22.604  13.811
 8578W        W80926   0.966  17.722  14.973
 8579W        W80927  19.643   3.328   0.950
 8580W        W80928  13.619   6.356   4.632
 8581W        W80929  12.206   6.793   4.624
 8582W        W80930  41.415  14.627  13.972
 8583W        W80931  13.829  22.072  13.874
 8584W        W80932  19.657   9.270   0.815
 8585W        W80933  44.946  23.110  13.450
 8586W        W80934  24.149  11.774  10.556
 8587W        W80935  26.976  30.635  14.919
 8588W        W80936   9.671  32.407   2.255
 8589W        W80937  25.196  42.385  14.794
 8590W        W80938  43.396  36.568   4.131
 8591W        W80939  26.587  18.136   3.670
 8592W        W80940  17.682  18.163  13.503
 8593W        W80941  31.022  39.407  11.371
 8594W        W80942   8.287  20.523  11.586
 8595W        W80943  29.476  17.647  11.592
 8596W        W80944  13.337  42.978   3.667
 8597W        W80945  28.456  11.334   4.284
 8598W        W80946  11.142  44.779  14.460
 8599W        W80947  25.581  16.176  14.308
 8600W        W80948   3.341   0.895   3.343
 8601W        W80949  19.274  29.640   1.881
 8602W        W80950   6.855  20.157  13.980
 8603W        W80951  32.949  33.924  14.323
 8604W        W80952  17.750  31.004   4.649
 8605W        W80953  28.943  14.193  14.449
 8606W        W80954  44.925  25.184   1.914
 8607W        W80955  40.916  38.393  13.464
 8608W        W80956   4.389  42.858  14.445
 8609W        W80957  18.561   4.392   0.904
 8610W        W80958   2.826   6.404   3.321
 8611W        W80959  22.106  12.252   2.751
 8612W        W80960   1.900  16.715   1.338
 8613W        W80961   2.740  11.659   4.627
 8614W        W80962  28.997   7.242  10.467
 8615W        W80963   9.177  21.705   0.394
 8616W        W80964  34.915  28.976  12.515
 8617W        W80965  40.506  42.786   4.347
 8618W        W80966  24.615   7.723   2.859
 8619W        W80967   1.930  35.936  13.472
 8620W        W80968   5.416  35.604  11.565
 8621W        W80969  14.635   8.737  14.278
 8622W        W80970   5.310  32.985  13.435
 8623W        W80971  15.194   7.666  11.034
 8624W        W80972  17.122  37.012  13.845
 8625W        W80973   8.813  16.111   2.302
 8626W        W80974  16.720   4.900   2.881
 8627W        W80975  14.225  35.895  11.598
 8628W        W80976  13.603  23.224   3.770
 8629W        W80977  11.865   2.878  14.477
 8630W        W80978  21.074   8.856   4.311
 8631W        W80979  14.738  16.728   3.791
 8632W        W80980   4.809   1.877   0.952
 8633W        W80981  39.024  19.582   1.212
 8634W        W80982  39.425  35.917   4.824
 8635W        W80983  34.484   0.888  13.372
 8636W        W80984   5.360  24.219  10.972
 8637W        W80985  11.632  24.187   1.221
 8638W        W80986  26.651  21.073  14.820
 8639W        W80987  14.781  17.254  10.486
 8640W        W80988   3.948   8.752   2.789
 8641W        W80989  17.693  24.623   1.213
 8642W        W80990  29.651  17.785  12.843
 8643W        W80991  11.699   6.839  10.586
 8644W        W80992  35.531  42.489   0.390
 8645W        W80993  34.893   2.374  14.450
 8646W        W80994  20.553  14.293   0.864
 8647W        W80995   3.931  12.751   3.635
 8648W        W80996  10.824  34.368  12.018
 8649W        W80997   5.256  25.485   1.759
 8650W        W80998  34.040  43.288   4.616
 8651W        W80999   7.850   9.262  10.959
 8652W        W81000  42.373  20.205  13.533
 8653W        W81001  28.454   4.419   0.248
 8654W        W81002  40.991  31.991  13.414
 8655W        W81003  36.404  12.768  10.475
 8656W        W81004  36.588  16.734  11.050
 8657W        W81005   3.425  12.766  11.473
 8658W        W81006  34.546  38.328  11.377
 8659W        W81007   7.852  34.064  14.021
 8660W        W81008   7.309  39.367   1.334
 8661W        W81009  40.332  38.954  13.333
 8662W        W81010  15.603  32.604   1.408
 8663W        W81011  34.564  29.444  13.799
 8664W        W81012  30.062  41.463   3.314
 8665W        W81013  31.461   7.745  13.444
 8666W        W81014  30.135  30.041   2.849
 8667W        W81015  16.752  26.542  14.348
 8668W        W81016  32.973  27.987  10.610
 8669W        W81017  10.256  14.812  13.063
 8670W        W81018  31.516  29.637  12.577
 8671W        W81019   8.369  20.223  13.318
 8672W        W81020  42.867  32.050  10.510
 8673W        W81021  34.550  28.140   4.711
 8674W        W81022  33.621  27.125  10.584
 8675W        W81023  11.857  30.969   1.264
 8676W        W81024  41.427  15.328   2.253
 8677W        W81025   6.869  29.634  12.087
 8678W        W81026  24.562  41.418  10.573
 8679W        W81027   5.868  22.134  12.908
 8680W        W81028  23.728  44.376   0.391
 8681W        W81029  25.178  24.000  13.497
 8682W        W81030  19.075   7.293   0.897
 8683W        W81031  44.387  42.408  14.815
 8684W        W81032  22.189   0.756  13.488
 8685W        W81033  29.943   7.243  14.502
 8686W        W81034   4.781  37.552   0.371
 8687W        W81035   7.665  37.555   1.783
 8688W        W81036   5.238  24.192   0.882
 8689W        W81037  39.429   3.814   1.880
 8690W        W81038  16.802  27.487   4.303
 8691W        W81039  20.680   5.739   4.822
 8692W        W81040  19.155  11.743   3.162
 8693W        W81041  11.759  22.181  12.007
 8694W        W81042  42.983  41.901  11.941
 8695W        W81043   7.906  37.380   0.472
 8696W        W81044  25.057  24.529  11.072
 8697W        W81045  13.689  37.418  14.843
 8698W        W81046  14.718  44.298  13.370
 8699W        W81047   7.278  40.907   0.960
 8700W        W81048  37.530   0.417  11.519
 8701W        W81049  15.640  33.440   4.693
 8702W        W81050  16.102   8.270   2.209
 8703W        W81051  33.973  24.500   3.233
 8704W        W81052  17.576  25.475   1.736
 8705W        W81053  41.903  38.977  11.526
 8706W        W81054  25.592   7.188   3.847
 8707W        W81055  24.709   1.778  12.047
 8708W        W81056  13.792  43.890  11.441
 8709W        W81057   2.898  32.058  11.874
 8710W        W81058   6.744  22.516  10.939
 8711W        W81059  13.718  27.506   4.643
 8712W        W81060  37.877   6.704   4.771
 8713W        W81061  19.732  37.346  11.961
 8714W        W81062  27.525  34.552   4.180
 8715W        W81063  21.633   2.844  12.871
 8716W        W81064   4.372  41.862   2.680
 8717W        W81065  13.844   5.697   9.980
 8718W        W81066  34.510  32.943   3.166
 8719W        W81067  42.433   8.328  12.056
 8720W        W81068  29.573   1.876  13.496
 8721W        W81069   8.834  44.418   1.719
 8722W        W81070  27.180  11.255  13.890
 8723W        W81071  38.955  17.604  14.763
 8724W        W81072  17.730  16.803  10.444
 8725W        W81073  26.553  22.568  11.539
 8726W        W81074  24.146  23.230   4.325
 8727W        W81075  36.450  11.206  11.921
 8728W        W81076  13.121  31.124   4.259
 8729W        W81077  20.265  15.696  11.088
 8730W        W81078  10.371  20.615   1.276
 8731W        W81079  25.028   6.781   0.303
 8732W        W81080  33.114  34.968  12.029
 8733W        W81081  16.185  20.591   4.252
 8734W        W81082   2.758   4.395   1.223
 8735W        W81083  41.302  30.103  10.518
 8736W        W81084  37.578  40.019   2.407
 8737W        W81085  27.618  41.800   1.369
 8738W        W81086   8.372  32.501   3.333
 8739W        W81087  16.175   4.757  12.490
 8740W        W81088  14.750   0.922   0.897
 8741W        W81089  31.941  43.826  14.993
 8742W        W81090   4.803  32.454   4.715
 8743W        W81091  39.440  14.644   4.707
 8744W        W81092   9.292  40.902  10.956
 8745W        W81093  10.753   1.924  13.537
 8746W        W81094  29.645   3.788   2.861
 8747W        W81095  19.542  18.774  10.888
 8748W        W81096  34.009  39.528   1.383
 8749W        W81097  14.823  24.533  14.938
 8750W        W81098  38.435  26.626   2.320
 8751W        W81099  12.349   8.357  11.433
 8752W        W81100   3.279  41.308  10.480
 8753W        W81101   1.456  25.214   2.866
 8754W        W81102  31.553  22.066  11.094
 8755W        W81103  38.436   8.767   4.317
 8756W        W81104  31.489   5.705   2.236
 8757W        W81105  21.112  42.985   0.417
 8758W        W81106  30.456  27.052  14.865
 8759W        W81107  12.290  43.019  12.384
 8760W        W81108  40.798  28.578  13.033
 8761W        W81109   9.154  16.631   3.217
 8762W        W81110  39.350   7.732  11.595
 8763W        W81111  42.472  24.583  14.288
 8764W        W81112  18.639   8.242   3.266
 8765W        W81113   1.855  32.496  12.837
 8766W        W81114  29.978  10.803   3.692
 8767W        W81115  20.120   4.287  12.426
 8768W        W81116  42.920  23.191   4.702
 8769W        W81117  30.508  12.846   1.239
 8770W        W81118  12.812  38.326  10.889
 8771W        W81119  43.813   4.341  14.811
 8772W        W81120  39.956   3.230   1.342
 8773W        W81121  43.449  37.912  10.895
 8774W        W81122  21.740  44.777  14.380
 8775W        W81123  34.529  41.308   0.481
 8776W        W81124  13.207   5.848  11.605
 8777W        W81125   5.255  16.742  12.973
 8778W        W81126  33.623   4.879   2.903
 8779W        W81127   6.200  17.072  13.431
 8780W        W81128  31.947  10.190   5.097
 8781W        W81129  23.222   6.898  10.507
 8782W        W81130   5.713  44.785  11.039
 8783W        W81131  22.155  27.006   2.336
 8784W        W81132  21.078   0.834  10.437
 8785W        W81133  30.002  38.452   2.236
 8786W        W81134   0.409  19.702  12.982
 8787W        W81135   2.847  34.930  10.473
 8788W        W81136  24.692  21.663  10.427
 8789W        W81137  28.559  20.595   3.365
 8790W        W81138  28.481  22.709  14.958
 8791W        W81139  22.173  17.750   0.749
 8792W        W81140  19.133   2.722  10.977
 8793W        W81141   2.858  30.581   0.922
 8794W        W81142  23.179  39.333  13.795
 8795W        W81143  25.593  16.698   2.386
 8796W        W81144  23.060  28.610  10.481
 8797W        W81145  36.051   4.343   3.636
 8798W        W81146   0.807  38.483  14.796
 8799W        W81147  28.565   0.839   4.635
 8800W        W81148   8.748  21.076   3.187
 8801W        W81149  28.135   6.333  10.909
 8802W        W81150  25.022  21.086  11.478
 8803W        W81151  28.097  17.106  10.435
 8804W        W81152  26.987  27.558  12.097
 8805W        W81153   5.754  27.472   2.896
 8806W        W81154  39.532  21.163  11.103
 8807W        W81155  39.321  19.684   1.910
 8808W        W81156   1.937  11.365  13.510
 8809W        W81157  36.946  24.229   4.726
 8810W        W81158  41.983   0.466  11.524
 8811W        W81159  24.647  24.981   2.316
 8812W        W81160  28.555  22.640   4.815
 8813W        W81161  12.745   5.241  12.033
 8814W        W81162  38.832   4.233  13.869
 8815W        W81163  17.769  28.965  12.001
 8816W        W81164  13.283  19.059  14.987
 8817W        W81165  12.341  30.999  12.503
 8818W        W81166  10.757  21.176   0.261
 8819W        W81167  20.102  19.240  11.881
 8820W        W81168  31.422   9.233  11.572
 8821W        W81169  32.397  42.860   1.433
 8822W        W81170   4.422  34.573   4.213
 8823W        W81171  14.255  14.726   5.216
 8824W        W81172  34.885  23.087  11.412
 8825W        W81173  23.501   5.838   0.302
 8826W        W81174  25.155   7.291   3.652
 8827W        W81175  13.112   9.881  12.523
 8828W        W81176   8.794   9.831  11.506
 8829W        W81177  43.833  44.840   3.780
 8830W        W81178  41.521   9.362   0.875
 8831W        W81179   0.291   9.867   1.297
 8832W        W81180  23.718  43.862  10.635
 8833W        W81181   0.249  27.071   2.846
 8834W        W81182  15.105  42.940  14.929
 8835W        W81183  33.003  14.632   0.453
 8836W        W81184  13.786  41.012   0.470
 8837W        W81185  28.555  26.622   4.828
 8838W        W81186   2.397  38.522   2.403
 8839W        W81187  23.591   6.774   5.788
 8840W        W81188  40.542   6.837   0.448
 8841W        W81189   9.300  40.841  11.484
 8842W        W81190  12.232   2.752  14.453
 8843W        W81191  23.027  36.002  11.431
 8844W        W81192  40.420  23.609  12.961
 8845W        W81193  16.200  29.003   3.660
 8846W        W81194  17.666  30.048   5.232
 8847W        W81195  40.328  40.798   0.729
 8848W        W81196   1.907   9.754  11.521
 8849W        W81197  19.126  42.449  10.631
 8850W        W81198  19.151  44.839   4.145
 8851W        W81199  21.574  18.552  14.801
 8852W        W81200  27.492  12.651   2.232
 8853W        W81201  37.026  23.722   0.828
 8854W        W81202  36.477  13.658   4.627
 8855W        W81203   2.770  24.685   3.278
 8856W        W81204  28.547  44.446  12.978
 8857W        W81205  32.964  24.683   3.836
 8858W        W81206  14.324  23.730  12.046
 8859W        W81207  19.076  27.054   0.919
 8860W        W81208  13.328  36.419   2.179
 8861W        W81209  20.134  27.526  13.501
 8862W        W81210  12.726  12.299   0.834
 8863W        W81211  17.667   8.881  10.891
 8864W        W81212  27.485  26.464  10.413
 8865W        W81213  20.086  13.845  10.517
 8866W        W81214   6.350  18.063  12.569
 8867W        W81215  43.873  37.020   4.319
 8868W        W81216  35.436  19.039   4.189
 8869W        W81217   1.951  29.002  12.432
 8870W        W81218  29.533  23.625  12.018
 8871W        W81219  40.997  34.462  12.906
 8872W        W81220  43.379   8.183  11.000
 8873W        W81221  33.571   7.351   1.848
 8874W        W81222  31.624  38.349  12.095
 8875W        W81223  25.171  10.754  10.433
 8876W        W81224  23.064  35.092  13.891
 8877W        W81225  21.151  12.352   0.258
 8878W        W81226   1.744  14.798  13.508
 8879W        W81227   5.807   0.797   3.278
 8880W        W81228  20.072  33.490   1.917
 8881W        W81229  41.427  40.050   1.381
 8882W        W81230  15.113  42.408   0.760
 8883W        W81231  42.855  11.805  13.490
 8884W        W81232  40.814  22.097  11.479
 8885W        W81233  13.675  25.123  14.990
 8886W        W81234  12.282  12.243  14.776
 8887W        W81235  27.074  37.833  14.366
 8888W        W81236  26.560  32.096  12.829
 8889W        W81237   3.268   4.256  11.373
 8890W        W81238   5.232  39.035  13.407
 8891W        W81239  25.469   3.341   4.661
 8892W        W81240   7.857  36.841  12.911
 8893W        W81241  18.250  37.543  13.862
 8894W        W81242  28.460   5.897   4.773
 8895W        W81243   7.797  33.905   3.840
 8896W        W81244  44.797  11.288  13.842
 8897W        W81245  33.115  42.524   3.335
 8898W        W81246  41.809  11.752   3.862
 8899W        W81247  39.390  18.252   0.766
 8900W        W81248  21.569   2.336  13.543
 8901W        W81249   5.736  38.827   4.176
 8902W        W81250  14.621  43.459   4.152
 8903W        W81251   0.888  43.970   2.828
 8904W        W81252  37.997  38.413  13.435
 8905W        W81253  21.528  37.032  11.452
 8906W        W81254  44.827  23.701   1.422
 8907W        W81255  28.541  30.957   1.922
 8908W        W81256  36.094  42.417  10.509
 8909W        W81257  16.742  25.683  14.934
 8910W        W81258   9.699  39.543  13.016
 8911W        W81259  17.676  31.509  14.817
 8912W        W81260  19.728   6.219   1.210
 8913W        W81261  44.391  20.536   3.771
 8914W        W81262  13.275  26.011  12.899
 8915W        W81263  11.365  21.577   5.229
 8916W        W81264   6.379   7.311   4.642
 8917W        W81265  11.717  31.501  13.955
 8918W        W81266  35.874  21.705   4.245
 8919W        W81267   4.256  17.763  12.893
 8920W        W81268  20.587  23.576  11.437
 8921W        W81269  39.002  40.362   0.805
 8922W        W81270  31.147  30.418  10.114
 8923W        W81271  33.903  16.654  14.923
 8924W        W81272  44.460   6.409   1.364
 8925W        W81273   0.276  25.638  14.297
 8926W        W81274  20.107  25.614   2.231
 8927W        W81275  18.562  30.659   3.655
 8928W        W81276  36.472  39.908   1.233
 8929W        W81277  10.308  20.157   2.673
 8930W        W81278  16.720   3.444   3.169
 8931W        W81279  21.174  13.177  13.508
 8932W        W81280  19.074  40.454  12.379
 8933W        W81281   3.319  30.045   1.799
 8934W        W81282  24.627  29.167  14.766
 8935W        W81283   9.328  40.389   4.178
 8936W        W81284  40.320  32.092  13.354
 8937W        W81285   0.492   6.326   0.767
 8938W        W81286  11.126  38.555   2.726
 8939W        W81287   8.721   9.877  10.043
 8940W        W81288  22.685  42.474  13.512
 8941W        W81289   2.450  22.734  13.898
 8942W        W81290   0.824   7.209  14.330
 8943W        W81291  12.143  12.260   3.860
 8944W        W81292  19.581  35.996   3.380
 8945W        W81293  25.704   7.729   2.884
 8946W        W81294  14.218  13.150  11.106
 8947W        W81295  15.114  13.176   3.847
 8948W        W81296  41.944   9.812  10.438
 8949W        W81297  13.214  34.054  13.372
 8950W        W81298  29.124  38.890  13.400
 8951W        W81299  12.205  39.979   0.405
 8952W        W81300  13.178   4.341   2.890
 8953W        W81301  32.961  41.789   4.610
 8954W        W81302  28.057  33.434  11.565
 8955W        W81303   2.342  44.481   3.810
 8956W        W81304  30.490   4.817   0.275
 8957W        W81305  41.487  26.493   2.693
 8958W        W81306  35.021   1.935   4.727
 8959W        W81307  33.130  10.330  11.040
 8960W        W81308  13.251  28.508   0.290
 8961W        W81309   3.749  44.495   0.887
 8962W        W81310  10.231  18.250   2.749
 8963W        W81311  42.794   3.923  10.906
 8964W        W81312  37.967   5.748  12.028
 8965W        W81313   2.303  25.091  13.435
 8966W        W81314  17.579  15.106  10.471
 8967W        W81315  20.533  21.677  13.968
 8968W        W81316  34.006   9.865  14.427
 8969W        W81317  16.779   7.829   2.325
 8970W        W81318  20.612  15.121   3.300
 8971W        W81319   7.672  10.679  12.069
 8972W        W81320  41.017   2.751  14.029
 8973W        W81321  27.596  25.713   2.274
 8974W        W81322   5.232  30.640  14.477
 8975W        W81323  23.077  21.128  14.412
 8976W        W81324   0.742  43.840   4.753
 8977W        W81325  18.564   5.741   0.782
 8978W        W81326  21.651  37.045  13.443
 8979W        W81327  24.627  25.470   0.836
 8980W        W81328  21.666  36.530   1.240
 8981W        W81329  27.113  10.304  12.500
 8982W        W81330  30.015  15.180   2.292
 8983W        W81331  28.056  31.426  10.643
 8984W        W81332   9.779   8.224   1.358
 8985W        W81333  21.127  44.278  13.345
 8986W        W81334  14.154  29.055   2.332
 8987W        W81335   7.414  30.532  11.392
 8988W        W81336   5.312  23.619  10.502
 8989W        W81337  38.000  15.733   0.446
 8990W        W81338  41.947   0.467  12.389
 8991W        W81339   3.329   6.807  10.904
 8992W        W81340  31.648  36.858   3.191
 8993W        W81341  21.141  26.171  10.463
 8994W        W81342  36.907  22.205   5.218
 8995W        W81343  21.655  20.263   0.866
 8996W        W81344  44.447  39.424  12.483
 8997W        W81345  18.057  13.155  13.028
 8998W        W81346  28.001  15.589   5.204
 8999W        W81347  40.401  44.301   1.907
 9000W        W81348   8.895  31.066  10.922
 9001W        W81349  40.332  11.846   5.112
 9002W        W81350  44.799   3.749   3.309
 9003W        W81351  30.955  24.566  10.626
 9004W        W81352  39.060  33.513  10.506
 9005W        W81353  19.751  23.089  11.376
 9006W        W81354  35.359  39.899  12.383
 9007W        W81355  43.865  20.267  14.959
 9008W        W81356   0.283  28.062  14.465
 9009W        W81357  13.284  43.279  11.996
 9010W        W81358  35.521  33.449  10.965
 9011W        W81359  37.459  32.077   3.148
 9012W        W81360  13.748   2.908  13.423
 9013W        W81361   3.904  23.164  10.427
 9014W        W81362   9.170   1.764  13.414
 9015W        W81363  12.344  13.619  13.493
 9016W        W81364  42.955  43.499  11.977
 9017W        W81365  37.879  24.718  11.106
 9018W        W81366  22.673  34.998  11.463
 9019W        W81367  41.321   0.316   3.265
 9020W        W81368  13.733  34.447   0.945
 9021W        W81369  23.531  24.160   1.745
 9022W        W81370  38.398  20.099   0.361
 9023W        W81371  36.040  30.965  14.796
 9024W        W81372  38.426  36.561  14.283
 9025W        W81373  10.650  33.463  11.075
 9026W        W81374  17.139  40.356  14.835
 9027W        W81375  40.870  17.757   0.957
 9028W        W81376  14.688  18.570   2.229
 9029W        W81377   8.877  23.144  13.895
 9030W        W81378   1.741  35.086  12.015
 9031W        W81379  14.264  38.986  14.019
 9032W        W81380  15.742  23.694   3.230
 9033W        W81381   7.871  40.491  10.539
 9034W        W81382  20.087  10.763   2.238
 9035W        W81383  27.149   8.266  11.503
 9036W        W81384  36.048  41.024   2.271
 9037W        W81385  12.722  40.905  11.976
 9038W        W81386   8.352   5.782   3.850
 9039W        W81387  30.464  29.442   2.396
 9040W        W81388  33.618  41.792  14.962
 9041W        W81389  18.146  23.068  14.007
 9042W        W81390  43.833  41.429  14.391
 9043W        W81391   5.716  23.492  10.553
 9044W        W81392  16.189  10.822  12.072
 9045W        W81393  23.599  42.845   0.257
 9046W        W81394  41.953  15.667   3.671
 9047W        W81395  36.467  34.945  13.937
 9048W        W81396  13.153  30.602   3.328
 9049W        W81397  44.000  30.009  14.785
 9050W        W81398  16.580  37.057  12.428
 9051W        W81399  35.914  18.677   2.731
 9052W        W81400  34.571  40.023  11.877
 9053W        W81401  18.667   7.336   2.799
 9054W        W81402  20.134  40.362   1.836
 9055W        W81403   5.910  14.229   0.294
 9056W        W81404  33.623  20.078   3.790
 9057W        W81405  28.018  34.114   0.851
 9058W        W81406  21.645   9.825   4.227
 9059W        W81407  36.987  37.979  12.477
 9060W        W81408  38.973  26.086  10.905
 9061W        W81409   8.776  36.473  11.046
 9062W        W81410  32.545  37.574   9.659
 9063W        W81411  25.016   7.816   0.793
 9064W        W81412  38.411  13.715  13.047
 9065W        W81413  30.986  37.995  14.829
 9066W        W81414   3.879  14.222   0.248
 9067W        W81415  31.046  20.524   4.762
 9068W        W81416  42.869   1.836   0.905
 9069W        W81417   1.763  24.586   3.160
 9070W        W81418  42.366  34.517  11.514
 9071W        W81419  44.450  21.731   3.863
 9072W        W81420  29.447  29.043  13.546
 9073W        W81421   7.194  18.137  13.412
 9074W        W81422  31.584   6.717  13.381
 9075W        W81423   1.395  15.730   2.823
 9076W        W81424   9.762   2.278  10.617
 9077W        W81425  42.348  44.448   4.206
 9078W        W81426  15.734  39.849   2.418
 9079W        W81427  43.472  12.208   0.850
 9080W        W81428  15.745  27.527  10.087
 9081W        W81429  27.494  16.080  13.348
 9082W        W81430  35.441  22.161   5.230
 9083W        W81431  22.621  21.677  12.849
 9084W        W81432  16.296  31.477   3.673
 9085W        W81433  10.315  14.135   2.672
 9086W        W81434  22.212   8.875  13.540
 9087W        W81435   2.951  38.905   2.367
 9088W        W81436   0.431   0.263  13.372
 9089W        W81437  20.629  42.827   4.233
 9090W        W81438   4.807   1.900   0.370
 9091W        W81439  21.566  13.146   3.171
 9092W        W81440  24.225  17.606  12.867
 9093W        W81441  23.216  19.203   4.645
 9094W        W81442  35.903  20.645   9.537
 9095W        W81443  11.185  16.096  11.959
 9096W        W81444  11.319  31.012  14.812
 9097W        W81445  19.760  13.272  11.928
 9098W        W81446  11.757  30.451  10.949
 9099W        W81447  13.267  32.601  10.545
 9100W        W81448  40.939  21.546   1.359
 9101W        W81449   4.775  27.492   4.155
 9102W        W81450  10.840  23.128  11.478
 9103W        W81451  28.440  19.599   4.771
 9104W        W81452  28.444  24.994  14.777
 9105W        W81453   4.911  24.187   4.192
 9106W        W81454  24.642   1.938   4.209
 9107W        W81455  42.788  27.131  12.946
 9108W        W81456   9.232   1.372  13.446
 9109W        W81457  18.688  31.434   3.783
 9110W        W81458  35.432   6.283   0.265
 9111W        W81459  12.350  25.487  11.965
 9112W        W81460  21.251  37.007   4.829
 9113W        W81461  21.725  40.893  13.015
 9114W        W81462   7.769  33.530   9.569
 9115W        W81463  30.972  14.628  11.509
 9116W        W81464  30.104  44.796   3.380
 9117W        W81465  19.588  24.483  13.529
 9118W        W81466  37.941  25.671  11.434
 9119W        W81467  41.998  34.524  11.437
 9120W        W81468  18.714  17.278  13.038
 9121W        W81469  42.803   6.300  10.404
 9122W        W81470  18.728   5.794   0.432
 9123W        W81471  24.613  39.926  12.836
 9124W        W81472  12.179  34.885   4.822
 9125W        W81473  27.502  10.309  11.096
 9126W        W81474  43.477   9.775   0.931
 9127W        W81475   0.951  27.455   2.722
 9128W        W81476  29.058  35.547   3.723
 9129W        W81477  13.704  33.607  14.414
 9130W        W81478  28.570   9.738  12.829
 9131W        W81479  14.326   6.299   2.334
 9132W        W81480  13.719  13.634  12.510
 9133W        W81481  43.867  26.002  11.589
 9134W        W81482  31.544   8.285   2.296
 9135W        W81483  42.902  14.601   5.300
 9136W        W81484  39.534  11.867   1.217
 9137W        W81485  17.777  18.646   1.366
 9138W        W81486  20.574  12.135   3.800
 9139W        W81487  17.255  38.403   4.242
 9140W        W81488  14.290  34.053  13.454
 9141W        W81489  17.247  36.506  10.150
 9142W        W81490  20.065  10.680  12.555
 9143W        W81491   3.412  15.650   2.196
 9144W        W81492   7.876  34.541  10.911
 9145W        W81493  30.643   6.839  12.891
 9146W        W81494  13.226  31.139   4.615
 9147W        W81495  28.124  22.708  11.596
 9148W        W81496  23.227  19.282  12.540
 9149W        W81497  34.405  40.971   0.904
 9150W        W81498   9.178  14.768  13.333
 9151W        W81499  20.558  33.562  11.877
 9152W        W81500  33.531   2.907  13.339
 9153W        W81501  14.304  34.878   0.882
 9154W        W81502   9.816  32.944   0.936
 9155W        W81503  26.100   1.415  12.450
 9156W        W81504   9.696  38.396   0.446
 9157W        W81505  36.074  28.932  14.344
 9158W        W81506  29.560   8.897   0.948
 9159W        W81507  20.232  26.128  10.434
 9160W        W81508  38.938  22.997  12.501
 9161W        W81509   5.423  41.028  13.002
 9162W        W81510  40.043  18.281   1.760
 9163W        W81511  11.821   7.232   0.740
 9164W        W81512  29.441  21.523  11.417
 9165W        W81513  39.963   2.472  14.508
 9166W        W81514  30.927  28.117  12.078
 9167W        W81515  35.471  26.601  12.351
 9168W        W81516  10.184  34.873   3.824
 9169W        W81517  37.027  20.728  11.005
 9170W        W81518  11.815  25.536  10.439
 9171W        W81519  12.635   8.183   3.169
 9172W        W81520  27.968  28.523   4.676
 9173W        W81521  23.081  31.516  11.875
 9174W        W81522  15.760   6.776   0.313
 9175W        W81523   2.908  20.168   3.635
 9176W        W81524  11.321  17.687  10.433
 9177W        W81525   1.446  10.634   2.861
 9178W        W81526  35.435   3.391   4.739
 9179W        W81527   9.783  35.965  14.889
 9180W        W81528  25.526  33.894   3.178
 9181W        W81529   8.656  16.110   4.120
 9182W        W81530  36.960  27.075  10.899
 9183W        W81531  15.297  37.918   1.265
 9184W        W81532  31.075   9.241  14.851
 9185W        W81533  33.537  21.082  14.763
 9186W        W81534   7.837   1.975  10.641
 9187W        W81535  36.384  21.632  11.051
 9188W        W81536   8.725  31.639  12.525
 9189W        W81537  29.138  35.372  13.538
 9190W        W81538  35.471  24.229  12.370
 9191W        W81539  24.669   7.239  11.022
 9192W        W81540  20.728  32.581   1.843
 9193W        W81541   0.839  40.867  10.534
 9194W        W81542  13.838  25.073  10.436
 9195W        W81543  22.041  17.068  13.464
 9196W        W81544  19.269   6.248  12.474
 9197W        W81545  27.660  10.758   0.292
 9198W        W81546  37.848  39.037   3.367
 9199W        W81547  10.301  20.085   5.231
 9200W        W81548  13.844   3.939   0.902
 9201W        W81549  28.022   1.837   1.802
 9202W        W81550  40.380   2.837  13.344
 9203W        W81551  31.438   5.386   9.480
 9204W        W81552   6.367  43.486   4.835
 9205W        W81553  37.018  10.160   4.680
 9206W        W81554  43.766   7.345   0.387
 9207W        W81555  41.044   9.285   2.769
 9208W        W81556  43.794   2.446  11.862
 9209W        W81557  42.853  19.047  11.428
 9210W        W81558  30.045  18.741  13.936
 9211W        W81559   6.216   7.381  10.135
 9212W        W81560  18.282  26.505  14.902
 9213W        W81561   0.811   8.863  10.927
 9214W        W81562  27.001  19.111   2.879
 9215W        W81563  21.106  13.718   5.294
 9216W        W81564  24.528  10.273   4.604
 9217W        W81565  13.118  13.658   0.297
 9218W        W81566   0.773  19.543   4.324
 9219W        W81567  40.971  39.351   3.673
 9220W        W81568   9.283  15.322   3.635
 9221W        W81569  42.872  37.452  10.510
 9222W        W81570  43.995   3.395   1.409
 9223W        W81571  41.896  37.049   0.265
 9224W        W81572  16.287  15.596  14.816
 9225W        W81573  24.015   7.693  12.562
 9226W        W81574  33.072  10.350   4.746
 9227W        W81575  16.247  21.197  12.030
 9228W        W81576  44.929  43.861  10.443
 9229W        W81577  15.129  34.959  14.485
 9230W        W81578  33.907  32.097   0.412
 9231W        W81579  38.057  32.514  11.547
 9232W        W81580  17.617  22.132  11.443
 9233W        W81581  15.325  10.301  10.991
 9234W        W81582  22.743  27.502  13.427
 9235W        W81583  32.516  42.298   1.421
 9236W        W81584  43.372   8.176   0.432
 9237W        W81585  20.197   7.760  12.831
 9238W        W81586  10.810   4.399  14.288
 9239W        W81587  36.362  15.196  10.527
 9240W        W81588  30.003  38.074  14.016
 9241W        W81589   0.913  19.039  10.580
 9242W        W81590  25.196   2.903   2.730
 9243W        W81591  14.336  42.392   0.781
 9244W        W81592  22.666  43.343   4.272
 9245W        W81593  41.846  34.572  12.400
 9246W        W81594  33.586  26.654   1.224
 9247W        W81595  24.702  34.002   1.899
 9248W        W81596  21.024  32.070   1.854
 9249W        W81597  33.907   5.438   4.684
 9250W        W81598   9.873  29.106   1.741
 9251W        W81599   2.885  25.501   1.743
 9252W        W81600  41.477   1.957  13.409
 9253W        W81601  33.605  34.896   2.394
 9254W        W81602  17.566  37.461  14.964
 9255W        W81603  13.815   5.872  10.409
 9256W        W81604   5.425  10.652  12.931
 9257W        W81605   9.234  14.257   0.377
 9258W        W81606  21.723   2.789  11.460
 9259W        W81607  38.444  37.377  10.520
 9260W        W81608  26.468  38.450   5.261
 9261W        W81609  12.179  16.075   0.776
 9262W        W81610  40.802  14.670  13.516
 9263W        W81611   0.787  36.971  13.894
 9264W        W81612  35.034   5.418  11.874
 9265W        W81613  41.916  10.790  11.559
 9266W        W81614  40.449  26.070   3.382
 9267W        W81615  39.553  10.277  10.562
 9268W        W81616  26.169  28.075   0.795
 9269W        W81617   3.453   6.385   4.837
 9270W        W81618   2.924  16.196   2.664
 9271W        W81619   3.354  40.855  11.035
 9272W        W81620  43.337  11.732   0.734
 9273W        W81621   3.333  11.696   2.302
 9274W        W81622   0.969  40.900   0.362
 9275W        W81623  22.519   3.344  14.385
 9276W        W81624  43.416  29.081   3.207
 9277W        W81625  32.099  37.566   0.932
 9278W        W81626  32.988   3.400  14.284
 9279W        W81627  21.598  35.565   4.643
 9280W        W81628   7.780  31.940  13.520
 9281W        W81629  26.956  41.341  10.966
 9282W        W81630   9.292  44.489  13.407
 9283W        W81631  35.968  33.450  12.437
 9284W        W81632  21.647  12.749  13.965
 9285W        W81633   1.896  17.174  12.365
 9286W        W81634  32.977   1.924   3.834
 9287W        W81635  42.905  38.450   0.451
 9288W        W81636  40.449  25.040   4.297
 9289W        W81637  25.135  32.977  13.509
 9290W        W81638   8.669  36.050   1.291
 9291W        W81639  19.112  38.474   2.270
 9292W        W81640  44.919  25.191   4.120
 9293W        W81641  36.566   9.365   1.756
 9294W        W81642  33.491  27.170  11.896
 9295W        W81643  31.057  15.772   4.751
 9296W        W81644   7.889   7.773   3.366
 9297W        W81645  40.398  16.196   1.886
 9298W        W81646  26.001  20.116   4.736
 9299W        W81647   4.842  31.053   2.211
 9300W        W81648  10.676  36.576  10.535
 9301W        W81649   9.378  26.607   2.205
 9302W        W81650   5.826  22.007  11.064
 9303W        W81651  36.887  11.679  14.941
 9304W        W81652  26.473   1.954  11.026
 9305W        W81653   0.271  27.172  14.967
 9306W        W81654  35.465  34.520  11.399
 9307W        W81655  34.477  39.811  14.804
 9308W        W81656  34.604   4.912   2.697
 9309W        W81657  34.001  36.934   4.661
 9310W        W81658  42.332  35.501   3.778
 9311W        W81659  37.962   0.291   3.228
 9312W        W81660  21.029  19.260   1.211
 9313W        W81661  33.488  36.390   5.696
 9314W        W81662  17.279  17.178   1.444
 9315W        W81663  38.401  37.539  14.012
 9316W        W81664  30.449  32.939  12.423
 9317W        W81665  11.735  38.001  13.052
 9318W        W81666  25.639  30.914   0.257
 9319W        W81667  31.571   5.422  10.584
 9320W        W81668  40.496   4.704   0.800
 9321W        W81669   0.444  29.148   1.696
 9322W        W81670  43.855  31.077  13.313
 9323W        W81671  31.079  40.915   4.820
 9324W        W81672  16.309  31.558  11.119
 9325W        W81673  27.050  32.537   0.440
 9326W        W81674  34.017   7.180  14.360
 9327W        W81675  29.006  14.796  12.836
 9328W        W81676   2.278  34.445  11.487
 9329W        W81677   7.385  43.438  11.996
 9330W        W81678  39.063  11.659   2.396
 9331W        W81679  40.993  29.084  11.442
 9332W        W81680  41.366  13.834  11.568
 9333W        W81681  35.879   7.310  10.468
 9334W        W81682  30.453  12.196   2.797
 9335W        W81683  43.419  22.548  14.029
 9336W        W81684  40.957  17.244   0.435
 9337W        W81685  21.594  29.138   1.355
 9338W        W81686  16.274  41.976  13.464
 9339W        W81687   7.177  37.426  14.315
 9340W        W81688  20.209  36.507   4.226
 9341W        W81689   1.818   1.478  10.419
 9342W        W81690   0.944  20.571   1.451
 9343W        W81691  14.237  17.177  11.899
 9344W        W81692  18.711  14.175   2.381
 9345W        W81693   5.766  37.524  10.067
 9346W        W81694  33.880  25.633   1.441
 9347W        W81695  23.729  30.052   1.416
 9348W        W81696  31.898  20.705   1.391
 9349W        W81697  27.022  20.565  10.495
 9350W        W81698  37.077  38.933   2.319
 9351W        W81699  10.676  20.080   2.733
 9352W        W81700   9.748  10.254  11.112
 9353W        W81701   1.351   0.980  11.010
 9354W        W81702  17.297  10.249   3.262
 9355W        W81703  44.344  34.070  14.461
 9356W        W81704  15.580  28.445  14.870
 9357W        W81705  36.351  42.388  12.058
 9358W        W81706  10.348  24.079  13.520
 9359W        W81707  28.013   5.358  12.351
 9360W        W81708  25.213  29.491   4.218
 9361W        W81709  25.194  36.944   3.788
 9362W        W81710   4.711  17.747  14.875
 9363W        W81711  36.073   5.299   2.248
 9364W        W81712  22.614  35.417  11.383
 9365W        W81713  29.486  44.275  13.986
 9366W        W81714  15.712  38.347  11.086
 9367W        W81715  42.900  27.545   1.872
 9368W        W81716  27.159  41.508  10.439
 9369W        W81717  24.687  14.793  14.340
 9370W        W81718  17.784   5.422   1.907
 9371W        W81719  37.430  22.673  12.937
 9372W        W81720  19.683  37.922   3.704
 9373W        W81721   3.764  17.236  10.489
 9374W        W81722  23.694  38.923  14.413
 9375W        W81723  43.417   1.793   1.781
 9376W        W81724  20.698  20.539   0.934
 9377W        W81725  44.414  16.668  13.428
 9378W        W81726  35.365  10.765  10.449
 9379W        W81727  24.167  29.503   5.167
 9380W        W81728  31.909  12.215  13.937
 9381W        W81729  33.087  37.960  12.997
 9382W        W81730  42.442  43.884   2.831
 9383W        W81731  21.168  43.280  10.585
 9384W        W81732   4.812   7.356   4.137
 9385W        W81733  23.592  42.859   4.235
 9386W        W81734   2.786  20.137   1.886
 9387W        W81735  21.156   7.214  11.959
 9388W        W81736   4.815  25.187   2.318
 9389W        W81737   2.229  40.025  12.565
 9390W        W81738  19.197  17.625   4.673
 9391W        W81739  23.173  10.383  14.971
 9392W        W81740  34.443   5.858   3.863
 9393W        W81741  23.656   5.192  10.597
 9394W        W81742  10.174  31.068  11.500
 9395W        W81743  13.301  20.760   1.248
 9396W        W81744  10.284  26.482   3.755
 9397W        W81745  34.055  38.850   1.370
 9398W        W81746  28.631  13.767  14.811
 9399W        W81747  34.103   3.411  12.967
 9400W        W81748  34.890  37.488   2.284
 9401W        W81749  22.229  42.297  14.498
 9402W        W81750  12.698  36.002  11.431
 9403W        W81751  19.776   4.259  12.914
 9404W        W81752  11.837  41.350  11.883
 9405W        W81753   4.376  22.673  10.562
 9406W        W81754  26.174  17.202  12.524
 9407W        W81755  10.830  43.446  12.976
 9408W        W81756   7.697  12.274  10.531
 9409W        W81757  24.564  30.492  12.416
 9410W        W81758  11.172  32.581  13.870
 9411W        W81759   6.304   3.866   2.348
 9412W        W81760  10.320  35.918   1.294
 9413W        W81761  41.322  40.882  11.413
 9414W        W81762  22.657  14.749  14.027
 9415W        W81763  42.794   0.811  12.885
 9416W        W81764   7.229  31.956  10.615
 9417W        W81765  15.712  32.506  14.449
 9418W        W81766  18.062  36.894  13.524
 9419W        W81767  30.953  16.100  14.816
 9420W        W81768  36.572  18.678   4.115
 9421W        W81769  38.953  33.001   2.751
 9422W        W81770  16.233   1.793  12.040
 9423W        W81771  19.247  43.316  10.508
 9424W        W81772  23.495  14.653  12.068
 9425W        W81773  22.997   7.197   1.820
 9426W        W81774  24.008  36.549  14.435
 9427W        W81775  30.118  13.124   1.422
 9428W        W81776  32.952  16.195  10.986
 9429W        W81777  33.072  11.630   4.647
 9430W        W81778   1.318   6.782  12.507
 9431W        W81779   4.828  31.063   3.777
 9432W        W81780   7.888  35.081   9.964
 9433W        W81781   8.318  16.809  11.436
 9434W        W81782  43.923  40.872  14.854
 9435W        W81783  10.215   0.457  11.432
 9436W        W81784  18.612  43.422  12.057
 9437W        W81785  22.093  44.943  14.922
 9438W        W81786   0.952  39.901  10.571
 9439W        W81787  20.128   4.233  10.501
 9440W        W81788  25.966  13.112  12.874
 9441W        W81789  22.521  17.700  12.044
 9442W        W81790  42.322   3.227   0.955
 9443W        W81791  20.653  14.671  13.963
 9444W        W81792  26.677  34.581  13.449
 9445W        W81793  29.151  33.424   4.322
 9446W        W81794  19.246  38.071  11.082
 9447W        W81795  10.350  32.090   0.750
 9448W        W81796  14.772   9.191  13.795
 9449W        W81797   4.786  13.153   5.271
 9450W        W81798  38.875  29.015  13.956
 9451W        W81799  25.167  21.692  13.401
 9452W        W81800  33.549  17.722  13.805
 9453W        W81801  21.157   1.882  11.564
 9454W        W81802  40.394  10.737   0.821
 9455W        W81803   1.735  30.086  11.871
 9456W        W81804   3.359  37.848  12.052
 9457W        W81805  41.010  31.437  12.868
 9458W        W81806  17.136  29.111  14.282
 9459W        W81807  20.143   1.900   2.821
 9460W        W81808  21.157  31.909   0.320
 9461W        W81809  14.231  19.626  13.036
 9462W        W81810  42.343  34.613  12.837
 9463W        W81811   5.715  12.234   4.630
 9464W        W81812  37.981   9.722   1.822
 9465W        W81813  36.050  43.771   3.300
 9466W        W81814   0.258  31.975   5.154
 9467W        W81815   1.822  26.130  14.465
 9468W        W81816  41.954  27.669  13.953
 9469W        W81817  18.276  38.548   0.344
 9470W        W81818  13.800   5.285  12.909
 9471W        W81819   5.886   3.728   3.203
 9472W        W81820  40.850  21.539  11.532
 9473W        W81821  16.691   1.921   0.848
 9474W        W81822  14.733  29.600   0.954
 9475W        W81823  10.240  34.371   3.630
 9476W        W81824  43.015   9.735  14.828
 9477W        W81825  42.407  21.592   2.694
 9478W        W81826  31.147  25.590   2.859
 9479W        W81827  19.775  33.533  13.434
 9480W        W81828  20.691  11.293   3.242
 9481W        W81829  19.225  37.917  14.020
 9482W        W81830  14.599  24.191  14.958
 9483W        W81831  44.422  22.718   1.336
 9484W        W81832  33.498  34.594   1.374
 9485W        W81833  41.315   5.298   0.470
 9486W        W81834  12.345  34.030   4.690
 9487W        W81835  27.628  41.996   2.240
 9488W        W81836   1.360  10.706   3.687
 9489W        W81837  14.827   3.410  12.344
 9490W        W81838  14.332   9.854  11.427
 9491W        W81839   4.944  16.694  11.373
 9492W        W81840  40.969  13.193   1.380
 9493W        W81841  43.959  25.561  13.429
 9494W        W81842  39.416  28.545  11.014
 9495W        W81843  19.236  15.242   3.674
 9496W        W81844  27.500  43.976  14.013
 9497W        W81845  15.288  39.927   0.751
 9498W        W81846  31.025  15.646   2.802
 9499W        W81847  41.002  43.450   1.918
 9500W        W81848  19.047  41.921   1.419
 9501W        W81849   3.372  21.730   4.791
 9502W        W81850   4.289  38.535   0.872
 9503W        W81851  40.382  28.656   0.402
 9504W        W81852  12.791   9.745  13.980
 9505W        W81853   0.420  20.128   4.326
 9506W        W81854   0.975  14.133   3.863
 9507W        W81855  29.554  36.919  12.996
 9508W        W81856  17.139  24.559   3.270
 9509W        W81857  42.878  14.303   3.189
 9510W        W81858  27.135  15.256   4.191
 9511W        W81859  32.121  12.127   4.695
 9512W        W81860   1.337   6.190   2.262
 9513W        W81861   8.731   4.813  10.137
 9514W        W81862  27.466  16.229  11.447
 9515W        W81863  27.619  21.523   1.342
 9516W        W81864  16.751  34.385  14.486
 9517W        W81865  36.453   6.688  12.499
 9518W        W81866  24.000  29.615  12.341
 9519W        W81867  11.184  33.131  10.948
 9520W        W81868  23.031  27.990  14.478
 9521W        W81869   6.232  13.141   1.271
 9522W        W81870  22.662   7.322   1.858
 9523W        W81871  24.017   9.879  11.964
 9524W        W81872  26.542  38.563  12.544
 9525W        W81873  37.449  36.539   1.398
 9526W        W81874  38.375  28.937  10.959
 9527W        W81875  38.953  33.964   0.754
 9528W        W81876  27.684  41.459  14.426
 9529W        W81877  13.812  40.467  11.497
 9530W        W81878  15.210  34.931   1.698
 9531W        W81879  36.842  14.742  12.918
 9532W        W81880   0.982  12.844   2.352
 9533W        W81881   0.393  14.221   2.844
 9534W        W81882  41.448  37.905   3.364
 9535W        W81883  42.331   1.290  12.971
 9536W        W81884  41.853  39.376  13.307
 9537W        W81885  25.664  18.107   1.329
 9538W        W81886   7.857   5.276  10.959
 9539W        W81887  42.368  26.630  12.891
 9540W        W81888  13.255  26.027   4.341
 9541W        W81889  43.804  28.446  14.389
 9542W        W81890  16.743  41.918   2.322
 9543W        W81891  16.592  27.468   2.842
 9544W        W81892  12.765  40.896   1.350
 9545W        W81893  30.571   0.915  10.413
 9546W        W81894  34.047   5.922  13.917
 9547W        W81895  18.718  30.100  13.807
 9548W        W81896  31.066  30.497  13.851
 9549W        W81897   6.392  14.724  14.898
 9550W        W81898  15.718  33.449   1.763
 9551W        W81899   9.261  37.558  10.002
 9552W        W81900  23.538   2.426  10.596
 9553W        W81901  30.082   8.724   3.154
 9554W        W81902  35.985   6.370  12.409
 9555W        W81903   1.747  35.509   4.318
 9556W        W81904  39.007  42.395  14.891
 9557W        W81905   9.389  11.234   3.174
 9558W        W81906  40.327   0.371  10.990
 9559W        W81907  39.022  24.192  12.957
 9560W        W81908  18.292   8.890  10.889
 9561W        W81909  20.174   0.460  14.439
 9562W        W81910  43.941  44.415   3.856
 9563W        W81911  34.026   1.463   2.837
 9564W        W81912  19.150  44.938  11.607
 9565W        W81913   8.295  30.063   4.136
 9566W        W81914  21.171  26.141   1.817
 9567W        W81915   8.236  14.235   1.225
 9568W        W81916  22.742  24.700   4.723
 9569W        W81917  38.459   7.195  10.141
 9570W        W81918   0.489  25.709  13.879
 9571W        W81919  20.216  35.016  14.986
 9572W        W81920  36.529  10.673  10.479
 9573W        W81921  24.034  17.618  14.428
 9574W        W81922  40.420  35.555  13.798
 9575W        W81923  40.974   4.431   4.292
 9576W        W81924  16.632  22.066  11.872
 9577W        W81925  42.497  30.966   2.397
 9578W        W81926  15.672  34.993   2.705
 9579W        W81927  22.509  36.040  14.831
 9580W        W81928   4.410  24.217   3.714
 9581W        W81929  10.822  29.173   1.277
 9582W        W81930  13.251  37.550  12.096
 9583W        W81931  21.694  17.601   2.351
 9584W        W81932  25.668  29.013   0.283
 9585W        W81933  31.011  33.553  13.523
 9586W        W81934  15.195  34.408   2.226
 9587W        W81935  42.786   1.448  12.088
 9588W        W81936   8.669  27.679   0.337
 9589W        W81937  28.126  33.405  10.599
 9590W        W81938  39.030   7.763   3.643
 9591W        W81939  15.246  26.971   2.185
 9592W        W81940  41.489  32.124  14.886
 9593W        W81941  20.029  42.443  14.876
 9594W        W81942  19.111  31.592  10.032
 9595W        W81943  29.431  17.722  13.420
 9596W        W81944  39.548   2.898   4.144
 9597W        W81945  25.511  17.612   2.880
 9598W        W81946  34.493  21.174   3.200
 9599W        W81947   3.280  44.307  13.886
 9600W        W81948  15.225  20.580  13.864
 9601W        W81949  13.645  24.056  11.390
 9602W        W81950  27.985  10.635  14.427
 9603W        W81951  42.337  11.144  11.939
 9604W        W81952  15.157  24.060   0.378
 9605W        W81953  25.644  12.296   0.452
 9606W        W81954  11.663  41.295  14.997
 9607W        W81955   2.777   0.898   2.387
 9608W        W81956  20.762   9.315   3.751
 9609W        W81957   2.752  42.462  10.614
 9610W        W81958  25.206  35.966   3.259
 9611W        W81959  21.704   6.200  13.885
 9612W        W81960  21.744   0.793  10.893
 9613W        W81961   5.312  17.757  13.321
 9614W        W81962  16.105  38.072  12.971
 9615W        W81963  25.969  21.025  11.582
 9616W        W81964  36.066  26.565   0.277
 9617W        W81965  26.548  22.108   0.385
 9618W        W81966   9.838  13.268   0.896
 9619W        W81967  16.797  21.121   0.405
 9620W        W81968  31.589  20.558   4.737
 9621W        W81969  15.275  27.580  13.911
 9622W        W81970   5.706  36.058   4.717
 9623W        W81971  41.950   6.229   4.781
 9624W        W81972  10.715  38.512  14.779
 9625W        W81973   8.271  15.225   4.113
 9626W        W81974  39.324  13.659  13.867
 9627W        W81975  23.562  27.545   1.361
 9628W        W81976  13.758  26.694   0.879
 9629W        W81977  11.854  44.010  12.924
 9630W        W81978  18.588  24.051   1.756
 9631W        W81979  20.193  19.127  14.976
 9632W        W81980   2.325  17.235   3.156
 9633W        W81981  36.560  31.642  12.492
 9634W        W81982  11.243  42.326   3.848
 9635W        W81983   5.927  33.014   4.147
 9636W        W81984  44.778  40.310   4.630
 9637W        W81985   8.850   2.246   3.318
 9638W        W81986  36.029  33.540  13.794
 9639W        W81987  17.197   9.710   0.843
 9640W        W81988   0.378  21.639   2.719
 9641W        W81989  31.905  15.256   0.268
 9642W        W81990  40.328  26.034   4.704
 9643W        W81991  18.762  33.034  12.053
 9644W        W81992   6.214  42.513   4.835
 9645W        W81993  35.553  14.221  10.955
 9646W        W81994  22.093  44.825  11.958
 9647W        W81995  13.730  43.794  12.961
 9648W        W81996  31.021  38.569  14.999
 9649W        W81997  40.325   5.851  14.468
 9650W        W81998   4.816  24.980  13.791
 9651W        W81999  30.935  33.433  14.479
 9652W        W82000   2.271   8.285  12.451
 9653W        W82001  30.045   0.457   4.639
 9654W        W82002  39.476  30.006  10.458
 9655W        W82003  13.633  22.243   2.182
 9656W        W82004  26.098  40.921  11.071
 9657W        W82005  35.567  25.700   4.705
 9658W        W82006  35.982  16.262   4.750
 9659W        W82007  16.653  38.509   0.967
 9660W        W82008   3.298  12.742   2.179
 9661W        W82009  16.670  31.984  12.825
 9662W        W82010  32.091   8.340  12.864
 9663W        W82011   4.225  37.837   1.915
 9664W        W82012  36.874   4.340  13.864
 9665W        W82013   1.833   6.814  12.510
 9666W        W82014  24.003   7.798   2.406
 9667W        W82015  23.736  19.664   0.926
 9668W        W82016  22.721  28.182  14.023
 9669W        W82017  37.504  19.665   1.229
 9670W        W82018   5.765  29.488   4.787
 9671W        W82019  18.766  28.629  14.349
 9672W        W82020   9.163  10.850   1.837
 9673W        W82021  15.647  19.215  11.954
 9674W        W82022  20.264   6.781   0.837
 9675W        W82023  40.935  28.599  11.985
 9676W        W82024  22.106  29.539  11.865
 9677W        W82025  24.128  29.934  12.905
 9678W        W82026  23.680   1.274  13.547
 9679W        W82027  41.509   9.763   3.275
 9680W        W82028  40.425  29.454  14.511
 9681W        W82029  42.323  28.072   4.739
 9682W        W82030  19.678  14.200  12.352
 9683W        W82031  16.128  25.649   3.736
 9684W        W82032   8.802  29.544  10.561
 9685W        W82033  40.806  21.140   1.339
 9686W        W82034  31.968  23.149  12.402
 9687W        W82035  11.848  11.864  12.841
 9688W        W82036  18.233  29.508  12.906
 9689W        W82037  32.895  21.523  10.516
 9690W        W82038  10.875   6.347  10.599
 9691W        W82039  28.517  38.550   1.289
 9692W        W82040  29.513  31.438  14.768
 9693W        W82041   4.764  19.230   0.448
 9694W        W82042  12.178  32.130  11.577
 9695W        W82043   8.260  16.212   0.261
 9696W        W82044  39.859   5.799   0.427
 9697W        W82045  16.606  38.045  11.979
 9698W        W82046  31.566  34.388   3.786
 9699W        W82047   4.241  40.324  12.011
 9700W        W82048  38.837  38.952   1.441
 9701W        W82049   1.833  17.561   4.312
 9702W        W82050   6.858  18.558   0.737
 9703W        W82051  30.162  36.846   4.292
 9704W        W82052  36.490  42.780  12.850
 9705W        W82053  33.552  39.868  12.871
 9706W        W82054  33.094  44.410   1.785
 9707W        W82055   5.322   0.743   3.629
 9708W        W82056  30.012  43.411  14.871
 9709W        W82057  44.947  34.879  14.025
 9710W        W82058  17.603   9.274  14.415
 9711W        W82059  29.063  29.066  10.887
 9712W        W82060  44.951  44.471   4.825
 9713W        W82061  10.813  11.240  14.328
 9714W        W82062  44.351  30.132  10.538
 9715W        W82063  38.354   3.386  11.605
 9716W        W82064  29.955  27.685   2.270
 9717W        W82065  40.970  23.120   4.651
 9718W        W82066  22.631  13.781  10.543
 9719W        W82067  14.237  44.804   0.363
 9720W        W82068  28.512   8.825   1.764
 9721W        W82069  13.133   4.360   3.348
 9722W        W82070  26.512   9.794  14.995
 9723W        W82071  28.652  26.581   5.278
 9724W        W82072  36.348  12.780   2.811
 9725W        W82073  39.901  15.130  13.948
 9726W        W82074  25.160   7.816  14.020
 9727W        W82075  20.131  39.858  14.422
 9728W        W82076  24.119  41.532   1.792
 9729W        W82077   5.324   6.785   0.440
 9730W        W82078  36.893  35.524  12.365
 9731W        W82079  33.576   8.402   0.338
 9732W        W82080  28.629  16.640   2.333
 9733W        W82081  25.211  33.474   4.613
 9734W        W82082  14.596  31.901  11.483
 9735W        W82083  23.998   4.848   0.769
 9736W        W82084  21.125  39.334  13.535
 9737W        W82085  19.714   7.405   4.724
 9738W        W82086  36.044  21.058   0.861
 9739W        W82087  12.307  13.276   2.701
 9740W        W82088  19.225  11.294   1.759
 9741W        W82089  12.612  24.528   2.882
 9742W        W82090  44.927   4.908   1.382
 9743W        W82091   7.906  36.022  13.883
 9744W        W82092  31.927  29.578  10.456
 9745W        W82093  36.557  15.164   2.308
 9746W        W82094   8.348  38.024  12.490
 9747W        W82095  17.722  43.846  12.464
 9748W        W82096  37.925  44.981  10.440
 9749W        W82097  32.096  29.151  13.373
 9750W        W82098  34.400   4.366   4.118
 9751W        W82099  14.682   0.925  10.000
 9752W        W82100  18.213  40.527  12.342
 9753W        W82101  32.050   2.867   2.294
 9754W        W82102  21.257  19.670   0.836
 9755W        W82103   1.376  11.159   4.131
 9756W        W82104   4.731  42.383   2.857
 9757W        W82105  20.268  41.404   9.934
 9758W        W82106  26.197   6.705  13.547
 9759W        W82107  33.510  30.122   3.837
 9760W        W82108  29.665  40.452  13.050
 9761W        W82109   8.785  28.020   2.868
 9762W        W82110  27.044  31.896   0.382
 9763W        W82111  16.216  20.231  11.108
 9764W        W82112  33.916  23.993   0.782
 9765W        W82113   0.796  39.001   0.483
 9766W        W82114  42.796   6.886   3.753
 9767W        W82115  20.154  33.911   0.357
 9768W        W82116   6.770  44.419   2.376
 9769W        W82117  41.479  30.140   3.351
 9770W        W82118  17.751   5.710  14.771
 9771W        W82119  30.133   0.274  11.888
 9772W        W82120   1.943  15.624  13.520
 9773W        W82121  40.958   3.756  11.506
 9774W        W82122  16.308  13.681   1.925
 9775W        W82123  43.801  32.495   4.274
 9776W        W82124  32.400  36.465   3.777
 9777W        W82125  14.606  18.100   2.781
 9778W        W82126  11.804  27.559   1.249
 9779W        W82127  32.450  35.905  12.560
 9780W        W82128  12.213  18.138  12.409
 9781W        W82129  31.103   3.835   1.934
 9782W        W82130  10.657  27.005   1.293
 9783W        W82131  29.011  34.949  10.627
 9784W        W82132  17.132  36.904  13.511
 9785W        W82133  15.711  36.520  13.450
 9786W        W82134  24.533  42.315  11.538
 9787W        W82135  26.509   6.361  11.882
 9788W        W82136  28.060  40.488  10.643
 9789W        W82137   2.820  11.254   0.746
 9790W        W82138  16.671   9.370  14.289
 9791W        W82139   2.749  18.272  11.895
 9792W        W82140  36.025  40.956  12.832
 9793W        W82141  33.909   3.734  13.050
 9794W        W82142  34.485   8.230  11.073
 9795W        W82143   6.694  33.546  11.611
 9796W        W82144  28.480  18.741  13.411
 9797W        W82145  27.665  34.491  13.488
 9798W        W82146  44.928  17.083   1.718
 9799W        W82147  37.858  38.037  14.348
 9800W        W82148  26.965  21.622   4.319
 9801W        W82149   2.329  32.562  13.534
 9802W        W82150  44.844  11.864   1.256
 9803W        W82151  30.481  44.273  14.503
 9804W        W82152  24.625  29.158   2.409
 9805W        W82153  42.829  43.766   4.657
 9806W        W82154  18.635   1.752  14.441
 9807W        W82155  11.264   0.908   1.343
 9808W        W82156  11.150   5.695   9.995
 9809W        W82157   1.282  30.070  10.549
 9810W        W82158  32.390  26.655  12.902
 9811W        W82159  38.561  34.030   4.313
 9812W        W82160  40.942  30.922  11.020
 9813W        W82161  16.799  39.897  13.378
 9814W        W82162   1.458   1.801   3.712
 9815W        W82163  29.545  40.389   1.369
 9816W        W82164   2.861  11.235   2.785
 9817W        W82165  29.004  35.428  12.075
 9818W        W82166   6.746  13.137   0.447
 9819W        W82167  19.249  41.375   1.211
 9820W        W82168  25.633  15.782   3.172
 9821W        W82169  34.961  44.961   4.640
 9822W        W82170  37.351  28.150  14.501
 9823W        W82171  34.474  12.271   0.872
 9824W        W82172  16.580  12.734  13.862
 9825W        W82173  10.657  10.764   4.813
 9826W        W82174  16.712   5.834  11.505
 9827W        W82175  17.767  10.863  10.600
 9828W        W82176  24.018  43.336   4.116
 9829W        W82177  42.903  41.370  13.542
 9830W        W82178  41.986  34.063   2.706
 9831W        W82179  30.928  14.192  12.408
 9832W        W82180   0.910  23.627   3.723
 9833W        W82181   2.821   1.306  11.534
 9834W        W82182  34.583  28.163   2.265
 9835W        W82183  31.143  29.648  13.971
 9836W        W82184  33.601  23.656   0.857
 9837W        W82185  25.182  41.516   1.391
 9838W        W82186  13.279  24.187  13.915
 9839W        W82187  31.055  13.262  13.997
 9840W        W82188  21.609  14.626  10.537
 9841W        W82189  41.513  33.046   3.742
 9842W        W82190  34.422  16.634   4.749
 9843W        W82191  39.364  23.664  13.488
 9844W        W82192  43.463  15.284  11.067
 9845W        W82193  32.493  11.164  11.054
 9846W        W82194   1.771  25.088  12.578
 9847W        W82195  31.633   8.359   1.259
 9848W        W82196  21.030  24.005  12.870
 9849W        W82197  19.259  24.065  12.870
 9850W        W82198  10.292  22.068   5.268
 9851W        W82199  31.412   9.157   1.888
 9852W        W82200  21.080   1.402   2.281
 9853W        W82201  42.335  37.844  11.914
 9854W        W82202  16.160  37.975   3.314
 9855W        W82203  40.048  27.165   3.807
 9856W        W82204  11.165  31.645   1.252
 9857W        W82205  41.314   1.814  11.479
 9858W        W82206   6.691  32.043   4.611
 9859W        W82207  15.094  26.597   2.788
 9860W        W82208  12.668  36.524   5.280
 9861W        W82209  23.149  43.337   0.923
 9862W        W82210  25.193  13.642  10.626
 9863W        W82211  23.173   5.335  14.509
 9864W        W82212  13.309  13.178   3.366
 9865W        W82213  16.223   0.783  10.473
 9866W        W82214  26.474  39.463   4.658
 9867W        W82215  10.804   9.207  14.291
 9868W        W82216  43.937  40.939   2.359
 9869W        W82217  10.312  29.038  12.429
 9870W        W82218  43.996  26.529  14.494
 9871W        W82219   4.802  37.859  11.127
 9872W        W82220  25.708  38.967   4.674
 9873W        W82221  44.321   2.450  11.422
 9874W        W82222  37.049  37.560   0.794
 9875W        W82223  36.426  36.477   0.418
 9876W        W82224  30.063  23.704  12.864
 9877W        W82225  30.474  14.324  13.483
 9878W        W82226  29.538  19.713  14.969
 9879W        W82227  24.087  10.248  13.013
 9880W        W82228  21.254  35.515  11.868
 9881W        W82229  11.769  24.610   2.811
 9882W        W82230  39.024  36.942  10.556
 9883W        W82231  24.716  10.345   4.215
 9884W        W82232   7.179  18.666   1.921
 9885W        W82233  33.881  10.842  12.980
 9886W        W82234  14.335  19.060  11.417
 9887W        W82235   4.443  33.623   1.307
 9888W        W82236  18.179  25.477   4.646
 9889W        W82237  43.914  17.170   3.237
 9890W        W82238   2.829  36.928   0.387
 9891W        W82239  23.069  21.525  12.554
 9892W        W82240   0.953  31.907  11.967
 9893W        W82241  27.178  13.279   3.244
 9894W        W82242  16.640   0.775   1.391
 9895W        W82243  26.198  37.516  14.480
 9896W        W82244  29.580  40.964  14.331
 9897W        W82245  10.164  34.594  11.042
 9898W        W82246  44.436  44.445   2.245
 9899W        W82247  20.141  22.237  14.970
 9900W        W82248   0.331  33.475   3.674
 9901W        W82249  13.170   3.876   2.287
 9902W        W82250  30.539  23.148   0.255
 9903W        W82251   7.854  44.776   2.759
 9904W        W82252  13.126  17.163  12.081
 9905W        W82253   4.375  12.144   4.827
 9906W        W82254  10.799  28.093  13.045
 9907W        W82255  32.517  10.373  13.894
 9908W        W82256   3.798  13.336  13.448
 9909W        W82257  26.065  28.484  10.516
 9910W        W82258  22.689   2.286   4.668
 9911W        W82259  31.018  13.674   0.913
 9912W        W82260  24.576   5.222   4.196
 9913W        W82261  21.017  19.562  12.413
 9914W        W82262  15.291  28.512  10.514
 9915W        W82263  38.408   6.219  12.960
 9916W        W82264  12.737   4.742   5.301
 9917W        W82265  29.098  30.951  11.102
 9918W        W82266   0.301  21.700   1.293
 9919W        W82267  32.534   6.206   1.791
 9920W        W82268   9.185  12.267  13.860
 9921W        W82269  23.576   0.367   4.124
 9922W        W82270  11.818  42.291   1.723
 9923W        W82271  37.964  33.388  13.543
 9924W        W82272  18.095  26.024  11.896
 9925W        W82273  25.022   2.441  10.966
 9926W        W82274   4.832  35.450   3.676
 9927W        W82275  10.782  43.458   0.825
 9928W        W82276  35.542  32.139   4.684
 9929W        W82277  40.844   2.267  14.375
 9930W        W82278  33.423  29.478   3.228
 9931W        W82279  34.864  31.924  11.522
 9932W        W82280  10.244   3.394  14.342
 9933W        W82281  44.796  28.570   3.332
 9934W        W82282  10.362  34.096   0.832
 9935W        W82283  35.523  28.181  11.907
 9936W        W82284  13.747  10.756  12.356
 9937W        W82285  30.657  26.463  12.472
 9938W        W82286  23.234   0.879   3.770
 9939W        W82287  23.987   2.465  13.311
 9940W        W82288  34.408   1.288  12.027
 9941W        W82289  31.473   8.755   3.218
 9942W        W82290  44.832  44.906  13.796
 9943W        W82291  29.484  13.821   0.343
 9944W        W82292  12.733  20.760  11.538
 9945W        W82293  15.710  18.754  10.976
 9946W        W82294  34.905  13.695   1.839
 9947W        W82295  40.322  39.928  14.773
 9948W        W82296  26.615  40.542   2.330
 9949W        W82297  28.055  30.633   2.887
 9950W        W82298   6.819  22.131   2.397
 9951W        W82299  13.766   6.824  11.422
 9952W        W82300  35.440   4.380   3.280
 9953W        W82301  12.769  22.673  12.940
 9954W        W82302  27.651  22.224   0.820
 9955W        W82303  11.807  15.325   0.738
 9956W        W82304  37.371   0.284   4.305
 9957W        W82305   9.355  16.088  14.420
 9958W        W82306  21.701  26.536   4.273
 9959W        W82307  21.603  22.587   1.449
 9960W        W82308  31.529  12.828  12.459
 9961W        W82309  36.907  16.758  11.444
 9962W        W82310   6.361  33.053  14.475
 9963W        W82311  37.013   2.858   0.431
 9964W        W82312  20.751  26.066  11.940
 9965W        W82313  14.238  37.879   2.869
 9966W        W82314  15.297   1.375  12.449
 9967W        W82315  19.731  34.524  14.375
 9968W        W82316  40.361   7.769   3.726
 9969W        W82317  10.373  22.033  13.366
 9970W        W82318  32.560  43.924  11.511
 9971W        W82319  16.779  14.283   3.358
 9972W        W82320  33.098  44.392   2.806
 9973W        W82321  22.579   4.698   3.668
 9974W        W82322   1.752  17.212   3.867
 9975W        W82323  16.730  17.133  13.363
 9976W        W82324  29.524  43.472  14.855
 9977W        W82325  16.763  33.894   3.742
 9978W        W82326  36.087  17.294   3.764
 9979W        W82327  26.984  32.555   3.753
 9980W        W82328  23.065  39.825   1.696
 9981W        W82329  31.540  11.217  11.604
 9982W        W82330  32.999   3.264   4.262
 9983W        W82331  30.520  26.124  12.576
 9984W        W82332  22.204  35.589   3.263
 9985W        W82333  28.494   3.228  13.441
 9986W        W82334  29.072  22.995   1.305
 9987W        W82335  38.871  21.240   1.448
 9988W        W82336  26.644  14.663  12.956
 9989W        W82337  33.455  16.181  10.515
 9990W        W82338  29.494  35.034  12.989
 9991W        W82339  31.027  32.462  13.959
 9992W        W82340  31.919  37.881   3.842
 9993W        W82341  34.980  34.097  12.060
 9994W        W82342  27.183   8.803   4.207
 9995W        W82343   0.825  41.956   3.234
 9996W        W82344  35.438  30.426  13.411
 9997W        W82345  10.341  25.115  11.587
 9998W        W82346  39.364   8.813  11.939
 9999W        W82347   9.373  31.481   3.221
10000W        W82348  26.197   5.919  14.849
10001W        W82349  35.942   3.301  12.372
10002W        W82350  19.261  11.864   4.140
10003W        W82351   5.890  17.208   2.785
10004W        W82352  36.465  18.663  12.992
10005W        W82353   0.910  14.739  10.536
10006W        W82354  18.725  20.110   3.307
10007W        W82355   3.774   4.707   4.791
10008W        W82356  34.405  24.532   0.379
10009W        W82357  23.681  42.507  13.432
10010W        W82358  30.625  34.049  14.473
10011W        W82359  24.122  23.713  11.507
10012W        W82360   8.345  13.306   2.208
10013W        W82361  18.709  18.222  12.432
10014W        W82362  10.825   3.454   4.629
10015W        W82363   6.793  32.019  13.958
10016W        W82364  38.537  41.946   1.401
10017W        W82365  32.963  29.522   3.263
10018W        W82366  10.750  32.507  11.934
10019W        W82367  44.480  32.065  12.566
10020W        W82368   4.278   4.251  11.055
10021W        W82369  43.409   8.197  14.841
10022W        W82370  11.665  39.521   2.880
10023W        W82371  18.600  10.237  12.884
10024W        W82372  29.035  28.573   3.227
10025W        W82373  27.955  21.553   4.619
10026W        W82374  42.395  21.624   0.774
10027W        W82375  30.129  40.421   2.287
10028W        W82376  12.784   3.274  11.421
10029W        W82377  41.366  37.021  12.570
10030W        W82378  28.675  43.507  11.068
10031W        W82379  32.930  24.497  13.395
10032W        W82380  26.125  15.622   2.216
10033W        W82381  39.874   8.318  12.968
10034W        W82382  13.120   8.851   5.249
10035W        W82383   9.340   2.814   4.787
10036W        W82384  42.502  27.195   0.868
10037W        W82385  43.365  36.466  10.451
10038W        W82386  29.978   1.736   2.766
10039W        W82387  36.923  42.787  14.479
10040W        W82388  32.509  10.795  14.346
10041W        W82389  38.866  28.584   1.809
10042W        W82390  23.986  44.407  13.313
10043W        W82391  18.619   1.379   3.213
10044W        W82392  29.480  24.663   1.290
10045W        W82393  22.648  37.890  10.916
10046W        W82394  31.622  13.701   0.407
10047W        W82395  27.457  14.156  14.346
10048W        W82396   4.422   9.780   4.679
10049W        W82397  19.555  25.702  14.779
10050W        W82398   5.339  19.693   1.340
10051W        W82399  43.792   0.911   2.735
10052W        W82400  12.834  16.147   1.743
10053W        W82401  11.699   1.331   4.301
10054W        W82402  19.185   3.456  14.871
10055W        W82403  34.974   7.885   0.415
10056W        W82404  37.867  35.991  12.025
10057W        W82405   0.772   8.208  14.352
10058W        W82406  27.563  16.812   0.735
10059W        W82407  21.130  33.931   4.695
10060W        W82408   9.816  17.639   1.347
10061W        W82409  27.004  35.068  12.023
10062W        W82410  44.936  26.151  10.505
10063W        W82411  25.491  44.489  12.485
10064W        W82412  18.066   5.797   3.667
10065W        W82413   0.355   0.457   3.704
10066W        W82414  34.445  24.483  13.326
10067W        W82415  16.584   8.242   0.863
10068W        W82416   6.271  26.101  13.858
10069W        W82417  39.417   1.926   3.817
10070W        W82418  27.092  35.963  14.287
10071W        W82419  37.887  29.564  13.841
10072W        W82420  34.075  41.883  14.286
10073W        W82421  39.396  29.169   4.638
10074W        W82422  15.756   3.859  12.408
10075W        W82423  25.472  28.583   2.719
10076W        W82424  21.125   7.768   4.646
10077W        W82425   8.820  14.325  13.005
10078W        W82426  24.014  42.435   4.339
10079W        W82427  42.404  32.963   2.775
10080W        W82428   3.426  22.582  10.497
10081W        W82429  13.845  26.995  11.882
10082W        W82430  10.849  36.556  11.461
10083W        W82431   8.213  42.480  10.588
10084W        W82432  22.718  10.199  13.379
10085W        W82433  29.028  23.556  12.963
10086W        W82434  17.065  22.127  14.492
10087W        W82435  33.596   5.717   3.297
10088W        W82436  39.004  32.064  14.019
10089W        W82437   1.277   5.325  12.416
10090W        W82438  14.801   1.786  11.084
10091W        W82439  38.834  25.495  11.934
10092W        W82440  17.730  38.473  12.914
10093W        W82441  32.583  38.442  13.444
10094W        W82442  10.646   7.373  11.015
10095W        W82443  43.864  16.229  11.375
10096W        W82444  36.515  16.600  14.977
10097W        W82445   9.688  37.491   0.844
10098W        W82446  23.686  25.209  13.387
10099W        W82447  21.118  12.725   0.852
10100W        W82448  26.667  21.092  11.049
10101W        W82449   8.799  33.432   2.413
10102W        W82450   3.940  23.572   0.792
10103W        W82451  23.634   6.234  11.501
10104W        W82452  15.742  29.035  14.364
10105W        W82453  22.643  25.046  12.484
10106W        W82454  31.094   6.898  14.408
10107W        W82455   1.882  26.502   3.238
10108W        W82456  43.971  29.059   3.203
10109W        W82457  43.016  43.914   3.324
10110W        W82458   9.171  16.285   3.215
10111W        W82459  28.592   0.974  13.843
10112W        W82460  25.119  19.713  13.838
10113W        W82461  28.946  35.982   3.208
10114W        W82462  10.833  15.283   3.675
10115W        W82463  27.061   2.930  12.580
10116W        W82464  10.637  32.612   2.356
10117W        W82465   7.762  36.510  10.894
10118W        W82466   3.228  11.143   0.774
10119W        W82467  22.642  26.142   4.747
10120W        W82468  28.958  23.047  11.507
10121W        W82469  18.661  20.156  12.339
10122W        W82470  16.687   0.897  13.445
10123W        W82471  31.482  13.626  14.372
10124W        W82472  19.760   8.859  11.121
10125W        W82473  18.140  17.193  11.545
10126W        W82474  13.134  27.668   2.775
10127W        W82475  26.572  18.651   4.342
10128W        W82476   5.439   5.701   2.662
10129W        W82477  30.952  17.643  11.091
10130W        W82478   7.352  37.985  14.315
10131W        W82479  14.218  39.817  11.481
10132W        W82480  19.649  36.884   1.808
10133W        W82481  14.808  35.875   1.304
10134W        W82482   8.357  25.494  12.864
10135W        W82483  27.485  12.799   1.771
10136W        W82484  19.606  30.929  14.832
10137W        W82485  28.017   8.244  14.336
10138W        W82486   0.924   9.336   0.398
10139W        W82487  20.115   0.465  13.892
10140W        W82488  28.166  32.939   1.254
10141W        W82489  31.583   5.202   0.873
10142W        W82490  44.408  39.057  10.075
10143W        W82491   0.773  22.118   0.737
10144W        W82492  40.481   3.828  14.878
10145W        W82493  18.193  43.876  11.436
10146W        W82494  25.048  31.957   3.169
10147W        W82495  41.806   5.244   4.250
10148W        W82496  15.814   2.334   3.798
10149W        W82497  33.910   7.342  11.595
10150W        W82498  35.050  35.104  13.930
10151W        W82499  14.658   2.453  13.826
10152W        W82500  30.939  25.492   0.409
10153W        W82501  39.398  36.872   1.775
10154W        W82502   6.681  15.292  11.961
10155W        W82503  28.179  17.703   2.385
10156W        W82504   3.269  35.067  12.096
10157W        W82505  30.506   8.221   2.185
10158W        W82506  44.370   7.188   0.355
10159W        W82507  27.013  40.972  12.539
10160W        W82508  20.040   6.791   1.385
10161W        W82509   2.949   3.806   2.730
10162W        W82510  17.774  22.193  14.311
10163W        W82511  43.015   7.763  14.352
10164W        W82512  23.075  36.421  10.623
10165W        W82513  28.581  37.491   3.194
10166W        W82514  41.332  16.599   1.820
10167W        W82515  17.284   6.192   0.796
10168W        W82516   5.429  11.147   1.403
10169W        W82517   3.342  21.181   0.460
10170W        W82518  30.125  31.970   2.296
10171W        W82519  14.339   5.900  14.290
10172W        W82520  35.488  18.591  14.336
10173W        W82521  32.134  31.063   2.217
10174W        W82522   4.779  12.797   3.286
10175W        W82523  29.478  25.030   3.720
10176W        W82524   7.739  38.502   4.645
10177W        W82525  20.690  32.482  14.000
10178W        W82526  32.016  20.138   5.138
10179W        W82527  36.097  26.013  13.931
10180W        W82528  30.022  17.256   2.297
10181W        W82529  22.602  33.558  14.010
10182W        W82530  15.737  30.070  12.936
10183W        W82531   8.672  29.935  14.400
10184W        W82532   7.223  17.587   3.816
10185W        W82533   0.308   3.241   0.376
10186W        W82534  19.121   1.368  13.984
10187W        W82535  43.471   3.294   0.440
10188W        W82536  36.577  27.002   1.864
10189W        W82537   7.233  43.333   4.305
10190W        W82538  32.506  28.504   3.323
10191W        W82539  21.145  15.639  13.341
10192W        W82540  22.243  38.992   1.422
10193W        W82541   9.726   8.801  13.005
10194W        W82542  29.971  27.520  11.958
10195W        W82543  12.739  31.611  10.429
10196W        W82544  43.935   5.762   2.784
10197W        W82545  30.652   2.398   2.702
10198W        W82546  31.566  23.202   3.261
10199W        W82547  18.693  32.544   2.856
10200W        W82548  17.075  14.612   5.209
10201W        W82549  21.611  33.962   2.790
10202W        W82550   1.330  42.995  13.848
10203W        W82551  31.046  42.450   3.248
10204W        W82552  23.693  12.196  12.857
10205W        W82553   7.788   3.336  10.435
10206W        W82554  11.825  40.500   5.158
10207W        W82555   3.428  31.553  13.524
10208W        W82556  30.057   9.270   0.859
10209W        W82557  42.414  31.505   2.288
10210W        W82558  27.002  13.261  10.441
10211W        W82559   8.194  28.115   0.370
10212W        W82560   9.314  28.601   2.358
10213W        W82561  34.401   2.232   0.342
10214W        W82562  37.543  15.306   1.432
10215W        W82563  30.558  33.011  12.072
10216W        W82564  13.783  41.424   3.779
10217W        W82565   6.684  16.681   4.245
10218W        W82566  32.024  32.109   0.323
10219W        W82567  37.545   2.409   0.853
10220W        W82568  32.892  32.901   0.923
10221W        W82569   2.461  29.038  13.545
10222W        W82570   5.343  23.611   1.227
10223W        W82571  39.482   8.275  11.447
10224W        W82572  37.041  36.591   3.217
10225W        W82573  40.480  32.980   4.622
10226W        W82574  41.414  43.823  14.426
10227W        W82575  23.522   1.789  12.418
10228W        W82576  43.339  36.996   1.749
10229W        W82577  35.588  17.598   1.823
10230W        W82578  19.593  15.777   0.317
10231W        W82579  21.036  33.416  12.372
10232W        W82580  44.490   4.920  11.461
10233W        W82581  37.079  36.525   4.789
10234W        W82582  11.743  28.011   0.767
10235W        W82583   0.490  40.856  10.413
10236W        W82584  29.127  14.168   1.421
10237W        W82585   3.432  26.621   1.268
10238W        W82586   3.933  21.626  11.103
10239W        W82587  37.911  40.417  10.505
10240W        W82588  33.398  41.845   2.207
10241W        W82589  15.184  26.082  13.453
10242W        W82590  12.189  37.064  13.976
10243W        W82591  23.117  23.528  13.807
10244W        W82592  18.136  11.214   1.319
10245W        W82593  36.944  19.266  14.322
10246W        W82594  11.177   1.411   4.665
10247W        W82595  44.836   5.346   3.736
10248W        W82596  21.535  30.930  14.008
10249W        W82597  38.986  18.147  14.809
10250W        W82598   7.395  28.100   1.809
10251W        W82599  17.645  42.306  14.410
10252W        W82600  37.937  26.496   0.908
10253W        W82601   3.431  16.174  10.526
10254W        W82602  22.685  30.570  12.573
10255W        W82603  16.206  16.803  10.967
10256W        W82604   4.782   4.235  12.429
10257W        W82605  15.590  22.027   0.819
10258W        W82606  41.830  35.479   2.759
10259W        W82607  39.392   1.336  13.802
10260W        W82608  13.690  16.145  14.781
10261W        W82609  38.019  20.047  13.527
10262W        W82610   9.772  43.820   0.749
10263W        W82611  26.149  20.226   1.827
10264W        W82612  33.897  17.210  10.480
10265W        W82613   0.980  10.715   1.360
10266W        W82614  19.039  28.465   5.676
10267W        W82615  28.002  36.528   3.676
10268W        W82616  10.827  15.717  14.944
10269W        W82617  24.979  21.211  13.877
10270W        W82618   1.958  40.417   0.466
10271W        W82619  41.898   6.294   0.394
10272W        W82620  17.145  38.388  12.384
10273W        W82621  18.162  20.198   0.886
10274W        W82622  28.105   4.386   3.287
10275W        W82623   5.895  30.000   1.303
10276W        W82624  38.478   7.899  12.575
10277W        W82625  30.069  34.113  10.933
10278W        W82626  13.323  42.838   2.902
10279W        W82627  37.396  10.853  13.371
10280W        W82628  20.272  35.574  13.050
10281W        W82629  37.895  43.978   2.223
10282W        W82630   8.318  38.530   3.187
10283W        W82631  34.039  27.572  12.452
10284W        W82632  11.728  39.390  13.882
10285W        W82633   8.732  32.123   3.285
10286W        W82634   1.289  33.396   2.784
10287W        W82635  31.467  18.639   2.759
10288W        W82636  14.099  38.535  11.004
10289W        W82637   2.801  25.556   0.453
10290W        W82638   4.251  28.131   1.921
10291W        W82639   2.890  30.064   3.654
10292W        W82640  42.787  38.906   3.747
10293W        W82641  16.081  22.560   3.341
10294W        W82642  18.789  40.419   2.321
10295W        W82643  10.794   2.280   3.645
10296W        W82644  14.738  19.179   1.416
10297W        W82645  14.266  18.105   2.884
10298W        W82646  33.390  11.802   0.304
10299W        W82647  19.099  25.659  14.769
10300W        W82648  40.823  21.754   2.888
10301W        W82649  28.550  33.084   0.967
10302W        W82650  39.956  44.268   1.324
10303W        W82651  38.406  35.022  11.409
10304W        W82652  25.193  28.452   0.267
10305W        W82653  23.188  16.704   1.297
10306W        W82654  15.763  14.616   3.744
10307W        W82655  26.095   9.175  12.871
10308W        W82656  17.596  23.494  13.815
10309W        W82657   0.897  30.103  11.044
10310W        W82658   2.363  38.473  14.394
10311W        W82659  29.042   3.946   0.954
10312W        W82660  43.796  26.597   1.813
10313W        W82661  39.536  11.288   4.120
10314W        W82662  18.700  31.540   9.988
10315W        W82663  26.007  14.122   4.208
10316W        W82664   3.301  43.439  12.038
10317W        W82665  39.349   8.829   3.790
10318W        W82666  27.946  37.856  14.014
10319W        W82667  44.812  41.893  13.484
10320W        W82668  31.949  30.062   1.756
10321W        W82669   3.383  27.175   5.093
10322W        W82670  27.615   9.197   0.366
10323W        W82671  12.227  23.237  11.129
10324W        W82672  28.666  44.311   4.622
10325W        W82673  24.516   3.348   3.733
10326W        W82674  40.368  16.681   1.253
10327W        W82675  22.017   9.150  13.922
10328W        W82676  23.989  13.798  12.087
10329W        W82677  31.099   0.851   0.270
10330W        W82678   4.397  42.978  14.769
10331W        W82679  22.088   9.216  10.415
10332W        W82680   9.763   5.412  13.052
10333W        W82681  26.505  25.676  14.332
10334W        W82682  43.800  38.461  12.973
10335W        W82683  16.268  24.643  14.948
10336W        W82684  43.499  18.687  12.426
10337W        W82685  32.552  23.221  13.970
10338W        W82686  32.514  30.145  13.492
10339W        W82687  24.551   9.351   0.399
10340W        W82688  23.680  23.016  13.852
10341W        W82689  15.726  35.555   2.190
10342W        W82690  30.014  32.070   1.432
10343W        W82691  13.834  19.718   3.221
10344W        W82692  36.094   4.385  11.962
10345W        W82693  39.919   5.731   3.724
10346W        W82694  17.669  32.994   1.367
10347W        W82695  32.891  31.913  12.417
10348W        W82696  20.594  23.053  13.993
10349W        W82697  37.999   1.844  11.552
10350W        W82698  14.152   6.812  12.502
10351W        W82699   8.203  10.845  12.495
10352W        W82700   8.167  27.156  10.564
10353W        W82701   0.256   5.823  10.580
10354W        W82702  17.206  30.511  14.305
10355W        W82703  17.130   3.242   0.304
10356W        W82704   9.377  44.930   3.302
10357W        W82705  37.471  14.186   2.846
10358W        W82706  13.786  41.028   2.396
10359W        W82707  22.169   6.806   2.866
10360W        W82708  15.676   5.790  13.413
10361W        W82709  27.614  28.017  11.558
10362W        W82710  18.097  31.936  13.971
10363W        W82711  44.782  11.658   3.725
10364W        W82712  30.503  12.833  13.792
10365W        W82713  12.767  20.757   2.336
10366W        W82714  19.234  36.027  11.444
10367W        W82715  24.165  31.438   0.262
10368W        W82716  28.456  19.770  14.763
10369W        W82717  37.841  40.366   1.702
10370W        W82718  10.167  42.432   4.214
10371W        W82719  23.613   0.857  14.374
10372W        W82720   4.898  16.209   3.242
10373W        W82721   9.243  27.144  12.905
10374W        W82722  14.123  30.150   1.344
10375W        W82723  29.001  24.482   3.351
10376W        W82724  36.381  37.476  10.920
10377W        W82725  18.577  32.427  13.360
10378W        W82726  20.563  14.287   4.716
10379W        W82727  27.466  20.544  14.877
10380W        W82728   0.949  38.363  14.371
10381W        W82729   0.437  24.597  13.434
10382W        W82730  13.197  14.220   0.797
10383W        W82731  37.946   7.285  13.987
10384W        W82732  19.274  13.835   2.797
10385W        W82733   0.352   6.269  13.324
10386W        W82734  36.969  11.788  11.945
10387W        W82735  16.305   5.298  11.118
10388W        W82736   5.820  26.995   1.735
10389W        W82737  44.430  23.238  14.842
10390W        W82738  18.170  27.176  10.464
10391W        W82739  25.682  41.533   0.478
10392W        W82740  15.769  41.418  10.050
10393W        W82741  14.759  35.045   0.876
10394W        W82742  40.464  25.962   4.197
10395W        W82743  24.204  38.531   4.693
10396W        W82744  13.279  38.971  10.889
10397W        W82745  14.807  24.105  14.454
10398W        W82746  28.165  39.530  13.403
10399W        W82747  16.092  41.447   1.840
10400W        W82748   7.323   0.794  14.450
10401W        W82749  35.478  17.221  14.347
10402W        W82750   1.340  32.477   3.378
10403W        W82751   8.660  32.051   4.266
10404W        W82752  33.430  44.397  12.914
10405W        W82753   2.467  25.598   2.295
10406W        W82754  21.126   9.230   2.360
10407W        W82755  32.424  15.596   1.769
10408W        W82756  16.126  38.485  14.498
10409W        W82757   4.246  29.633  12.440
10410W        W82758  23.727  20.139   0.792
10411W        W82759  21.683  14.758  13.880
10412W        W82760  38.395   5.358  14.823
10413W        W82761  29.563   8.201  13.313
10414W        W82762   5.860  25.569  13.060
10415W        W82763   4.866  18.742   4.258
10416W        W82764  42.897   8.696   2.387
10417W        W82765   6.732  29.527  14.479
10418W        W82766  36.428   4.908   0.349
10419W        W82767  15.201  20.191  12.453
10420W        W82768  13.157  21.092  10.925
10421W        W82769  34.496  22.218   2.198
10422W        W82770  33.449  17.064  11.534
10423W        W82771  28.057  42.484   3.241
10424W        W82772  25.475  17.640   3.814
10425W        W82773   4.837   1.880  11.441
10426W        W82774  37.872   0.418   0.351
10427W        W82775  44.881   8.251  11.490
10428W        W82776  17.789   6.248  10.581
10429W        W82777  25.705   3.768   0.287
10430W        W82778  10.296  36.971  10.107
10431W        W82779   2.373  24.495   0.804
10432W        W82780  16.185  30.959   0.841
10433W        W82781  39.025  41.890   1.355
10434W        W82782  12.200  26.040  13.002
10435W        W82783  25.057  41.996  10.604
10436W        W82784  13.234  19.540  14.797
10437W        W82785  12.804  17.769  13.958
10438W        W82786   9.391   6.761  14.394
10439W        W82787  15.698  15.269  11.556
10440W        W82788  23.042  15.578  10.961
10441W        W82789  23.657   4.746  10.436
10442W        W82790  23.011  33.519   2.827
10443W        W82791  16.571  41.494   1.720
10444W        W82792  26.069  37.440   0.365
10445W        W82793  18.108  24.085   3.370
10446W        W82794   3.315  21.130  10.506
10447W        W82795  34.601  38.367   2.309
10448W        W82796  28.013   0.272   1.784
10449W        W82797  35.569  26.013  14.464
10450W        W82798  23.214  44.893   2.182
10451W        W82799  42.932  43.479   2.771
10452W        W82800  20.718  12.708  14.490
10453W        W82801  37.042  34.063   4.606
10454W        W82802  30.641  43.493   2.239
10455W        W82803  28.058   5.297  11.108
10456W        W82804  32.467  40.313  12.824
10457W        W82805  13.317  39.819   3.851
10458W        W82806   7.686   8.242  11.566
10459W        W82807  44.770  42.311   0.475
10460W        W82808   6.858  35.010   3.195
10461W        W82809  15.783  16.711   4.831
10462W        W82810  23.612   7.748  14.466
10463W        W82811  19.740   4.330  11.558
10464W        W82812  11.807  15.672   0.902
10465W        W82813  10.200   4.904   0.421
10466W        W82814  33.533   9.755  14.370
10467W        W82815  31.402  30.470   1.785
10468W        W82816  43.852  20.124   4.804
10469W        W82817  33.921   5.732  12.979
10470W        W82818   9.264  16.218  13.398
10471W        W82819   4.426  42.421   2.669
10472W        W82820  18.613  26.082  14.804
10473W        W82821  41.879  39.004   4.670
10474W        W82822   1.791  20.211  13.376
10475W        W82823  43.324  12.830  11.080
10476W        W82824  15.125   5.901  10.585
10477W        W82825   7.890  25.010   5.124
10478W        W82826   5.894  44.919   0.417
10479W        W82827  18.247   5.404   1.383
10480W        W82828  43.432  31.139  14.941
10481W        W82829   3.275  19.579   3.698
10482W        W82830  31.043  36.394  10.497
10483W        W82831  27.040  36.056  13.375
10484W        W82832  38.881  14.831   2.271
10485W        W82833   0.412  35.921  10.536
10486W        W82834  13.278  34.004   3.274
10487W        W82835  23.151  13.730   3.864
10488W        W82836  17.779  23.507   1.877
10489W        W82837   9.162   4.734  14.503
10490W        W82838  18.657  26.568   4.679
10491W        W82839  24.090  22.113  12.021
10492W        W82840  12.236  32.526  14.403
10493W        W82841  37.931  19.219   1.233
10494W        W82842  20.058   7.295  10.982
10495W        W82843  35.363  14.716   3.153
10496W        W82844   9.187  30.947   5.659
10497W        W82845  10.726   0.982   0.267
10498W        W82846  44.841  18.164   0.845
10499W        W82847  26.489   7.183  11.427
10500W        W82848  37.470  32.432  13.437
10501W        W82849  40.974  43.422   2.269
10502W        W82850   7.268   1.469   1.280
10503W        W82851  11.346  32.475  13.342
10504W        W82852  26.954  37.563   3.182
10505W        W82853   3.445  11.621   0.251
10506W        W82854  29.552   9.702  12.091
10507W        W82855  44.773   1.379  13.317
10508W        W82856  35.038  18.201  10.557
10509W        W82857  16.292  16.208   4.293
10510W        W82858   1.409  25.494   4.302
10511W        W82859  35.077  21.220  11.087
10512W        W82860   4.705  39.856  10.953
10513W        W82861   1.470  11.365  11.884
10514W        W82862  30.104  22.186   1.229
10515W        W82863   1.734  38.916  12.863
10516W        W82864   4.700  20.042   5.274
10517W        W82865  39.533  15.739  14.794
10518W        W82866   3.911  13.147  14.866
10519W        W82867   1.765  36.856  11.063
10520W        W82868  14.636  17.249  12.869
10521W        W82869  23.639  16.785  14.962
10522W        W82870  35.532  32.456   0.752
10523W        W82871  15.586  32.068   2.897
10524W        W82872  30.499  18.692  10.562
10525W        W82873  38.994  26.616   1.819
10526W        W82874   6.234   3.845  13.381
10527W        W82875  26.170  30.415   2.283
10528W        W82876  21.249  16.256  11.129
10529W        W82877  17.099  30.910   3.681
10530W        W82878  21.160  42.481   3.226
10531W        W82879  21.093   7.760  10.925
10532W        W82880  12.196  23.626   0.414
10533W        W82881  13.642  10.660  11.910
10534W        W82882  40.857  44.878   2.307
10535W        W82883  29.084  28.653   2.415
10536W        W82884  34.442  15.622  10.598
10537W        W82885  33.123  42.887   1.396
10538W        W82886  30.610  29.006  12.086
10539W        W82887   7.817  20.156  13.334
10540W        W82888  38.922  35.443  12.010
10541W        W82889  32.483   2.275  14.947
10542W        W82890  44.832  10.831  10.966
10543W        W82891   4.307  43.435  12.911
10544W        W82892  27.143  20.083   1.826
10545W        W82893  29.121  32.941   2.766
10546W        W82894   8.789  38.008   4.237
10547W        W82895  38.406  27.690  14.486
10548W        W82896  43.801   2.452   1.276
10549W        W82897   4.260  22.165   1.365
10550W        W82898   3.409   9.264   5.094
10551W        W82899  15.131  21.104   2.380
10552W        W82900  14.127  19.632  13.393
10553W        W82901  23.691  12.636  12.087
10554W        W82902  41.313  23.495  11.558
10555W        W82903  11.358   6.799  14.883
10556W        W82904  11.852  29.109   3.659
10557W        W82905  15.585   5.847   2.185
10558W        W82906   3.436  12.627  14.410
10559W        W82907   4.745  40.902  12.365
10560W        W82908  23.528  32.978  12.394
10561W        W82909  24.577  41.835   2.298
10562W        W82910  32.495  36.860   3.156
10563W        W82911  12.757  38.988   2.771
10564W        W82912   2.933  35.021   0.936
10565W        W82913  30.496  14.201   3.660
10566W        W82914   9.380  12.632   4.323
10567W        W82915  17.087  28.633  11.063
10568W        W82916   9.354  41.301   3.377
10569W        W82917  14.726  40.044  13.531
10570W        W82918  16.741  30.610   1.754
10571W        W82919   7.214  11.175   1.928
10572W        W82920  12.615  25.706   0.464
10573W        W82921  23.686  20.147   0.428
10574W        W82922  28.947  26.642  12.064
10575W        W82923  16.624  15.142  11.565
10576W        W82924  26.128  26.167   2.303
10577W        W82925  27.083  39.815  14.763
10578W        W82926  32.003  33.459  13.938
10579W        W82927   4.386   4.774  12.342
10580W        W82928  41.381  10.372   4.229
10581W        W82929  15.306  36.090   2.732
10582W        W82930  14.746  26.701   0.417
10583W        W82931  20.760   5.406   2.806
10584W        W82932   3.870  40.452  12.863
10585W        W82933  18.106  10.877  12.487
10586W        W82934  17.087  30.507   5.210
10587W        W82935   9.247  23.116   2.290
10588W        W82936   9.245  16.728  14.780
10589W        W82937  44.302  32.001  11.026
10590W        W82938  42.833  30.022   0.891
10591W        W82939  33.446  19.169   1.934
10592W        W82940  18.637  16.292  13.035
10593W        W82941  42.828  38.929   1.886
10594W        W82942  42.390  38.563  11.474
10595W        W82943  31.476  28.958   4.163
10596W        W82944  36.456  11.245  13.538
10597W        W82945  36.919  29.988  14.288
10598W        W82946  19.219  21.216  10.621
10599W        W82947  30.055  23.092   0.324
10600W        W82948   7.394   4.911   1.712
10601W        W82949  44.753  28.975  14.765
10602W        W82950  40.531   0.452  13.509
10603W        W82951  44.797  10.247  11.913
10604W        W82952  10.848  40.432   4.691
10605W        W82953  16.075   4.944  10.506
10606W        W82954   1.875  25.113   3.818
10607W        W82955  33.998  26.031   3.279
10608W        W82956  11.692  26.117  11.430
10609W        W82957   8.880  41.814   1.825
10610W        W82958  23.658  36.535  12.957
10611W        W82959  41.416  31.077   1.414
10612W        W82960   6.258   5.821   3.812
10613W        W82961  18.227  37.539   1.777
10614W        W82962   4.822   4.398   1.413
10615W        W82963   1.482  15.127   3.290
10616W        W82964   3.922  43.942  14.276
10617W        W82965  27.997  23.027  13.547
10618W        W82966  14.172  16.310  12.916
10619W        W82967  41.830  31.153   3.632
10620W        W82968  24.225  16.073  14.515
10621W        W82969  27.953  26.120   1.293
10622W        W82970   2.325   9.856   2.786
10623W        W82971  23.015   4.773   5.272
10624W        W82972  39.386  21.162  11.973
10625W        W82973  29.564   9.375   0.428
10626W        W82974  21.560  10.359   4.740
10627W        W82975  26.577  35.009   0.273
10628W        W82976  37.517  33.964   2.669
10629W        W82977  40.323  43.365   2.202
10630W        W82978  44.952  31.030  13.950
10631W        W82979  24.052  11.864  11.946
10632W        W82980  41.429   2.352  12.092
10633W        W82981   9.825  38.434  12.562
10634W        W82982  20.640   5.372   2.333
10635W        W82983  27.680  19.770  10.419
10636W        W82984  41.864  30.926  12.418
10637W        W82985  14.170   5.209  10.478
10638W        W82986  10.852   4.773   3.655
10639W        W82987  31.078   9.879   2.778
10640W        W82988   4.327  39.959   3.186
10641W        W82989  19.725  35.378   2.282
10642W        W82990   1.282   9.315   3.266
10643W        W82991  40.883  31.574  11.048
10644W        W82992  26.697   0.980  12.473
10645W        W82993  27.179  25.106   2.179
10646W        W82994  28.161   9.305  11.555
10647W        W82995  12.803  28.965  14.013
10648W        W82996  38.985  23.641   3.156
10649W        W82997   0.435   5.812   0.808
10650W        W82998  13.708  14.111  11.032
10651W        W82999  18.588  15.716   0.462
10652W        W83000  15.719  12.311   0.361
10653W        W83001  17.097  31.613   4.148
10654W        W83002  27.013  44.308   2.834
10655W        W83003  16.649  35.028   4.713
10656W        W83004   8.287  12.761  12.050
10657W        W83005  42.501  38.357   2.746
10658W        W83006  42.497  39.549  11.033
10659W        W83007   2.792  20.633  10.943
10660W        W83008  14.170  21.179  12.487
10661W        W83009  13.321  30.482   0.812
10662W        W83010  18.783  43.844  13.882
10663W        W83011   0.411  24.177  10.949
10664W        W83012   2.463  43.966   2.414
10665W        W83013  18.789  16.591   4.780
10666W        W83014   4.403  24.650   1.399
10667W        W83015  15.581  26.133   1.370
10668W        W83016  13.635  10.771   2.718
10669W        W83017  34.546  26.554  11.126
10670W        W83018   1.808  14.740  11.124
10671W        W83019  23.685  10.773  13.401
10672W        W83020  11.685  42.494   3.376
10673W        W83021   1.365   7.411  10.955
10674W        W83022  38.881  42.992   1.725
10675W        W83023  41.477   3.866  11.408
10676W        W83024  19.186  17.646   4.255
10677W        W83025   4.331  10.180   2.813
10678W        W83026  16.770  42.905  12.416
10679W        W83027   4.318  32.115  12.853
10680W        W83028   0.749  31.135  14.507
10681W        W83029  44.415   4.835   4.689
10682W        W83030  25.146   0.929   4.125
10683W        W83031  44.906  29.014   2.763
10684W        W83032  24.610  24.143   4.176
10685W        W83033   9.251  17.163  11.516
10686W        W83034  16.662  10.226   2.764
10687W        W83035  18.670  10.777  12.508
10688W        W83036  29.538  24.069  14.790
10689W        W83037   5.692   7.746  11.015
10690W        W83038  10.351  33.984   1.891
10691W        W83039  17.613  15.686   1.809
10692W        W83040  32.887  33.402  14.308
10693W        W83041   6.854  35.520  11.982
10694W        W83042  30.941   9.193  11.998
10695W        W83043  33.955  34.894   9.998
10696W        W83044  37.463  42.982   0.277
10697W        W83045  34.410  34.469   4.751
10698W        W83046  17.281  17.293  11.054
10699W        W83047  40.447  23.078  12.050
10700W        W83048  36.507  28.014   3.798
10701W        W83049   2.446  18.155  10.416
10702W        W83050  31.117  27.668   2.369
10703W        W83051  23.549  16.678  14.447
10704W        W83052  17.235  21.122  11.396
10705W        W83053   4.933   8.812   2.198
10706W        W83054  19.091  10.234  10.970
10707W        W83055  20.075  15.199   3.706
10708W        W83056  23.581  41.315  11.425
10709W        W83057  43.861  22.996  14.031
10710W        W83058   4.892  24.672  10.933
10711W        W83059  40.934  37.367  11.024
10712W        W83060  31.490  28.623  11.074
10713W        W83061  19.728   3.336   2.894
10714W        W83062  22.565   3.806   4.791
10715W        W83063  24.628  13.727  14.968
10716W        W83064   8.659   1.354  13.953
10717W        W83065  44.279   1.350  11.968
10718W        W83066  18.135  11.857  11.953
10719W        W83067  42.388  37.945  10.534
10720W        W83068   5.385  27.652  14.389
10721W        W83069  33.419  13.285   0.920
10722W        W83070   8.727  13.228   0.387
10723W        W83071   1.397  26.001  11.481
10724W        W83072  41.034  26.701  10.576
10725W        W83073  14.323  22.011  14.859
10726W        W83074  34.494  27.068  11.402
10727W        W83075  24.183  13.169   4.710
10728W        W83076  43.011  43.464   1.260
10729W        W83077  27.489  24.707  14.895
10730W        W83078  10.744  13.715   0.867
10731W        W83079  41.007  18.729  13.959
10732W        W83080  20.242  43.416  10.527
10733W        W83081  11.147  11.189  13.367
10734W        W83082   5.764  19.207  11.865
10735W        W83083  34.936  10.782   3.854
10736W        W83084  40.342  10.378  12.542
10737W        W83085  37.914  19.746  14.806
10738W        W83086  16.181  37.493  10.497
10739W        W83087  34.925   7.866  13.353
10740W        W83088  28.572  38.003  13.838
10741W        W83089   1.439  16.715   2.406
10742W        W83090  30.976  39.526   0.884
10743W        W83091   9.342   2.964  12.494
10744W        W83092   0.806   0.359  14.819
10745W        W83093   3.361  32.073   3.782
10746W        W83094  37.977  18.674  13.988
10747W        W83095  12.172   0.847  14.766
10748W        W83096  34.978  44.848   1.347
10749W        W83097  19.607  42.447  14.857
10750W        W83098  12.619  43.384  14.933
10751W        W83099  19.612  30.125  10.945
10752W        W83100  26.178  41.497   3.176
10753W        W83101   2.434  18.727   4.171
10754W        W83102   4.794  15.239  11.965
10755W        W83103   6.770  25.536  13.877
10756W        W83104   6.751   1.272   0.836
10757W        W83105  36.485   0.442  12.470
10758W        W83106  43.860  17.658  14.766
10759W        W83107   4.881  20.220  11.129
10760W        W83108   4.844  35.433  12.345
10761W        W83109   6.906   7.199   3.163
10762W        W83110  41.363   8.384  12.409
10763W        W83111  31.106  26.030  11.482
10764W        W83112  32.548  12.715  14.490
10765W        W83113  15.200  36.480   2.685
10766W        W83114   2.398  27.653  12.897
10767W        W83115  19.753  37.950  11.531
10768W        W83116  14.242  16.600  14.892
10769W        W83117  25.144  26.056  11.498
10770W        W83118   5.219  37.900   2.404
10771W        W83119   7.900   2.235   3.292
10772W        W83120  18.176  37.045  14.004
10773W        W83121  14.777  11.360  13.002
10774W        W83122  13.249  29.509  12.450
10775W        W83123   4.783  31.420   2.377
10776W        W83124   5.287   8.798   3.229
10777W        W83125  29.658   0.979  12.496
10778W        W83126  23.040  27.120   4.667
10779W        W83127  34.063  15.328  12.359
10780W        W83128  17.073  27.687   3.338
10781W        W83129  33.508  36.475   2.237
10782W        W83130  12.127  44.862   0.344
10783W        W83131  14.692   9.647   1.323
10784W        W83132   8.273  14.107  13.441
10785W        W83133  43.920  30.011  10.992
10786W        W83134  21.674   0.279   2.808
10787W        W83135  28.662  44.297  14.373
10788W        W83136  29.996  44.759   4.617
10789W        W83137  38.059   0.950   0.900
10790W        W83138  13.696  13.349   1.868
10791W        W83139  27.596  31.432  11.403
10792W        W83140  40.053  29.132   1.409
10793W        W83141  44.498  26.130  11.968
10794W        W83142  36.925   4.369   1.724
10795W        W83143  19.264  14.700  12.449
10796W        W83144  32.909  20.074  12.902
10797W        W83145  43.883   2.345  12.910
10798W        W83146  43.964  39.939   2.680
10799W        W83147  30.925  12.670   0.269
10800W        W83148  24.147  34.917  14.960
10801W        W83149  34.486   9.307   3.835
10802W        W83150  36.085  23.555  13.493
10803W        W83151  25.969  20.632  12.031
10804W        W83152  34.598  37.998  11.484
10805W        W83153   0.985   0.910  11.907
10806W        W83154  33.067  42.441  13.460
10807W        W83155  15.675  32.957   2.867
10808W        W83156  37.515  10.206  13.306
10809W        W83157   3.741  11.756  13.016
10810W        W83158  21.604  33.940  12.446
10811W        W83159  31.144   4.767  12.415
10812W        W83160  26.702  44.295  13.409
10813W        W83161  38.426   4.871   2.370
10814W        W83162  23.500  44.421  14.965
10815W        W83163  34.513  15.792   3.632
10816W        W83164  33.057  12.767   1.846
10817W        W83165  42.483  43.448  14.995
10818W        W83166  19.735  44.448  14.926
10819W        W83167   8.758  35.044   5.288
10820W        W83168   4.308  12.340  11.986
10821W        W83169  23.581  38.448  10.546
10822W        W83170  14.727  12.229   3.743
10823W        W83171   1.361  15.112  12.009
10824W        W83172  12.654  16.757   4.316
10825W        W83173  34.481  10.800  12.533
10826W        W83174  30.915  25.108  12.011
10827W        W83175   4.865   2.829  12.947
10828W        W83176  42.933  34.922   3.715
10829W        W83177  44.965  37.553  13.392
10830W        W83178  35.074  16.650   2.359
10831W        W83179  30.984  10.174   2.360
10832W        W83180  22.579   8.785  11.541
10833W        W83181  26.568   6.739   0.286
10834W        W83182  11.179  16.658  13.856
10835W        W83183  41.428  15.744  14.417
10836W        W83184  43.825  43.004   2.708
10837W        W83185  19.269  18.747  14.013
10838W        W83186  25.163  10.729  12.394
10839W        W83187  12.729   7.752   1.421
10840W        W83188  33.964  34.546   1.718
10841W        W83189  39.934  21.601  12.349
10842W        W83190   3.265  36.079  10.609
10843W        W83191  26.526   0.252   0.467
10844W        W83192  21.091  14.157  14.512
10845W        W83193  18.216  30.040  10.914
10846W        W83194  11.830   1.827   0.922
10847W        W83195  23.656  29.992  14.880
10848W        W83196  12.695  20.610   4.308
10849W        W83197   6.919  11.242  13.494
10850W        W83198   8.377  23.158   1.311
10851W        W83199  40.470  36.392  11.451
10852W        W83200  29.139  16.746   1.378
10853W        W83201  32.635  21.579   4.320
10854W        W83202  24.560   7.698   5.170
10855W        W83203  37.878   7.315  11.971
10856W        W83204   3.792  28.665  13.946
10857W        W83205  13.217  38.379   0.331
10858W        W83206  30.588   2.817   1.446
10859W        W83207  32.434  39.489  14.514
10860W        W83208  37.533  23.208   2.278
10861W        W83209  30.429  14.750   3.740
10862W        W83210  44.493  28.111   4.793
10863W        W83211   4.757  22.609  11.949
10864W        W83212  20.706  23.673  13.520
10865W        W83213  31.646  29.614  13.891
10866W        W83214   2.385  22.157   0.764
10867W        W83215  27.519  39.406   4.246
10868W        W83216  18.598  36.414   4.155
10869W        W83217  24.488  42.283   3.685
10870W        W83218  40.403  33.408  13.315
10871W        W83219   6.844  14.824   2.902
10872W        W83220  31.917  36.366  10.082
10873W        W83221  29.506  11.352  11.422
10874W        W83222   9.671  13.762  11.503
10875W        W83223  34.560  42.382   4.205
10876W        W83224  19.602  33.029   1.794
10877W        W83225  44.447  38.335   1.868
10878W        W83226   4.386   7.763   3.722
10879W        W83227   1.237  34.375   3.225
10880W        W83228  10.368  20.700   3.854
10881W        W83229  28.553  28.018  11.458
10882W        W83230  21.663  17.605   4.775
10883W        W83231  41.913   0.946  11.420
10884W        W83232  41.923  17.186  14.501
10885W        W83233  27.179  41.366   3.847
10886W        W83234  23.700   7.840   2.824
10887W        W83235  26.547  40.988  14.005
10888W        W83236  27.582   4.772  11.042
10889W        W83237   0.321  23.168   4.644
10890W        W83238   9.676  14.133   0.261
10891W        W83239   8.654   9.348   3.311
10892W        W83240  15.196  33.958   1.283
10893W        W83241   7.817   0.455   2.750
10894W        W83242   3.771  32.402   1.913
10895W        W83243  16.706  12.668   0.943
10896W        W83244   6.217  13.833   2.253
10897W        W83245  33.903  20.109   0.284
10898W        W83246  35.381  43.395   4.132
10899W        W83247   4.279   1.299  12.379
10900W        W83248  35.526  11.153   0.932
10901W        W83249  19.724  13.148  14.918
10902W        W83250  38.886  24.083   2.797
10903W        W83251   5.689  41.399   4.597
10904W        W83252  43.432  22.731   3.269
10905W        W83253  22.583  11.625   5.154
10906W        W83254  31.972  34.987   2.185
10907W        W83255  42.834  21.144  13.995
10908W        W83256   6.339  40.872  12.390
10909W        W83257  35.102  34.904   4.313
10910W        W83258  27.533   5.233  14.825
10911W        W83259  16.782  33.405   3.662
10912W        W83260  34.928  20.761   2.752
10913W        W83261   3.786   3.310  11.414
10914W        W83262  25.063  40.911  10.578
10915W        W83263  20.230  16.811  11.373
10916W        W83264  24.705  41.790   1.217
10917W        W83265  11.356  33.425  11.412
10918W        W83266  10.686  34.025   1.357
10919W        W83267  32.513  35.547  11.004
10920W        W83268   6.380  10.192  14.765
10921W        W83269   7.880  29.612   2.406
10922W        W83270  18.196  31.969  12.979
10923W        W83271  35.446  25.200   1.773
10924W        W83272  22.698  33.025  11.884
10925W        W83273  33.545  27.957  12.898
10926W        W83274  30.565  21.603  13.376
10927W        W83275  37.424  10.265  10.635
10928W        W83276  11.864  16.311   0.776
10929W        W83277  10.152  20.680  11.409
10930W        W83278  19.248   4.764  13.320
10931W        W83279  35.553  27.575   1.839
10932W        W83280   4.424  31.592   0.248
10933W        W83281   9.190  38.912  12.839
10934W        W83282  34.525   6.241   0.341
10935W        W83283  13.291  31.429  11.545
10936W        W83284   3.397  27.941  12.475
10937W        W83285   5.929  33.130  10.977
10938W        W83286   7.225  16.765   0.829
10939W        W83287  25.975  42.430   0.808
10940W        W83288  17.210  23.994  13.057
10941W        W83289   1.350  11.661  11.010
10942W        W83290  19.769  11.287  11.414
10943W        W83291  30.942  18.779  13.325
10944W        W83292  21.145  19.629  12.075
10945W        W83293  38.060  18.208   4.767
10946W        W83294   3.731  40.974  14.887
10947W        W83295  31.917  19.702  12.901
10948W        W83296   2.883  36.890  12.002
10949W        W83297  10.799  11.189   3.177
10950W        W83298  33.411  18.558  10.592
10951W        W83299   0.743   1.823  10.617
10952W        W83300  22.223  41.815  14.514
10953W        W83301  31.425  30.102  10.974
10954W        W83302  33.469  31.941   3.378
10955W        W83303  15.257  33.429   4.789
10956W        W83304  17.277  24.154  11.531
10957W        W83305  16.213  18.747   2.881
10958W        W83306   8.773   3.886   2.285
10959W        W83307  17.715  31.907  10.547
10960W        W83308  37.076  43.772  11.015
10961W        W83309   1.886  37.030   3.316
10962W        W83310  17.729   9.209  13.313
10963W        W83311  30.545   4.840   2.728
10964W        W83312  27.176  42.982  11.022
10965W        W83313  27.961  38.473  14.028
10966W        W83314  43.311   2.462  14.019
10967W        W83315  10.812  18.765  14.005
10968W        W83316  35.884  28.528   3.258
10969W        W83317   8.697  44.273  12.545
10970W        W83318  14.675  20.092   2.863
10971W        W83319   3.722   7.416  11.468
10972W        W83320  21.229  26.104   2.783
10973W        W83321  21.147  42.424   4.261
10974W        W83322   5.382   3.219  14.384
10975W        W83323   0.891  38.841   0.797
10976W        W83324  28.664   7.248   3.191
10977W        W83325   3.762  35.861   1.832
10978W        W83326  30.648  22.586  12.854
10979W        W83327   5.760  34.910  12.062
10980W        W83328   5.693  43.771   4.354
10981W        W83329  17.586  21.715   2.260
10982W        W83330   2.240   5.875   4.667
10983W        W83331  34.956  12.702   3.171
10984W        W83332  43.313  10.360   2.245
10985W        W83333   1.833  36.443   3.826
10986W        W83334   5.917  18.642  14.456
10987W        W83335  25.572  41.440   1.824
10988W        W83336  17.254  34.408  10.904
10989W        W83337  10.877  19.536   1.323
10990W        W83338  42.015   4.272   0.260
10991W        W83339  35.509  15.203   0.343
10992W        W83340  34.520   7.696   2.879
10993W        W83341  10.339   0.485   3.732
10994W        W83342  12.678  29.438   4.795
10995W        W83343  13.791  27.659   0.796
10996W        W83344  31.528   9.879   3.800
10997W        W83345  19.676  20.755   3.320
10998W        W83346  21.721   4.747   3.785
10999W        W83347  22.691   7.719  10.447
11000W        W83348  16.750  41.844   2.715
11001W        W83349  40.367  38.060  11.579
11002W        W83350   0.414   3.359  13.834
11003W        W83351  19.670  11.655   0.320
11004W        W83352  31.416  14.257   2.287
11005W        W83353  32.403  10.866  11.606
11006W        W83354  33.121   9.326   3.336
11007W        W83355   1.448  29.658  12.576
11008W        W83356   3.295   9.660   0.348
11009W        W83357   1.872  23.587   3.723
11010W        W83358  12.258  20.660  13.059
11011W        W83359  37.834  22.192   0.831
11012W        W83360  32.935  36.415  11.958
11013W        W83361  37.031   0.782   0.850
11014W        W83362  35.878  30.601  12.399
11015W        W83363  16.188  25.183  10.578
11016W        W83364  35.060   2.944   0.419
11017W        W83365  37.053  29.666   1.853
11018W        W83366  21.624  19.241   4.270
11019W        W83367  34.396  30.647   2.788
11020W        W83368  30.920   7.177  14.296
11021W        W83369   1.837  11.854  11.388
11022W        W83370  20.180  20.549  14.884
11023W        W83371  31.126  38.364   1.294
11024W        W83372  35.102  16.566  13.813
11025W        W83373  14.801  30.953   1.825
11026W        W83374  18.198  30.989   2.403
11027W        W83375  13.808  15.139  14.339
11028W        W83376  11.279  41.871   0.407
11029W        W83377  38.892  34.446  11.479
11030W        W83378  20.748   6.725   4.826
11031W        W83379  36.091   5.267   5.657
11032W        W83380  15.675  10.764   0.822
11033W        W83381  41.328  25.703   1.441
11034W        W83382  10.725  44.870   2.775
11035W        W83383  27.145  37.979   1.760
11036W        W83384  10.788  13.144  10.994
11037W        W83385  39.523  25.677   0.468
11038W        W83386  40.345  15.758   3.190
11039W        W83387  16.134  42.420   2.813
11040W        W83388   0.253  25.037   3.796
11041W        W83389  13.629  10.212   9.962
11042W        W83390  29.660  28.605   1.908
11043W        W83391  17.206  15.773   4.617
11044W        W83392  44.852  16.217  11.397
11045W        W83393  21.116  21.664  12.026
11046W        W83394  17.221  33.905   1.259
11047W        W83395  10.771  10.799  11.466
11048W        W83396  39.508  39.982   1.425
11049W        W83397  35.457  29.058  11.933
11050W        W83398  42.476  37.439  13.472
11051W        W83399  13.729   1.768  14.392
11052W        W83400  13.722  33.547  12.842
11053W        W83401  42.023  39.375  14.006
11054W        W83402   9.809  17.700  11.110
11055W        W83403  22.694  26.530  10.549
11056W        W83404  11.788  34.024   4.669
11057W        W83405  21.124  16.690   0.305
11058W        W83406   7.366  17.181  14.939
11059W        W83407  44.787  24.192  14.424
11060W        W83408  32.616  29.079   3.649
11061W        W83409   0.845  24.509  11.982
11062W        W83410  32.134  26.098   4.314
11063W        W83411  12.324  18.053   2.311
11064W        W83412  17.228  30.116   2.799
11065W        W83413  38.857   0.831   2.332
11066W        W83414  23.166   9.355  12.030
11067W        W83415  37.414  38.028  14.849
11068W        W83416  37.977  39.433  10.484
11069W        W83417  22.505   4.914   5.308
11070W        W83418  21.574  14.729   3.680
11071W        W83419   1.292  38.820   3.188
11072W        W83420  18.053  19.098  13.505
11073W        W83421   6.265  11.648  13.041
11074W        W83422  34.891  30.649  12.373
11075W        W83423  14.158  10.247   4.254
11076W        W83424  29.930  32.894   3.729
11077W        W83425  39.926  32.595  11.574
11078W        W83426  14.793  32.104  13.336
11079W        W83427  27.614   1.336   2.189
11080W        W83428   4.838   4.275  13.992
11081W        W83429  24.065  10.845   0.851
11082W        W83430  25.488   7.679   3.715
11083W        W83431  31.467  41.840   1.718
11084W        W83432   8.397   4.429   4.799
11085W        W83433  34.406  23.679  13.351
11086W        W83434  17.750  38.069  12.824
11087W        W83435  12.799  44.833   0.412
11088W        W83436   8.404  22.687  12.946
11089W        W83437  18.688  11.315   2.336
11090W        W83438  11.639  24.098   1.740
11091W        W83439  10.143  34.422  14.897
11092W        W83440   8.722  38.976  12.070
11093W        W83441  17.559  35.964  14.893
11094W        W83442   2.311   7.873   0.864
11095W        W83443  26.483  11.153   0.864
11096W        W83444   9.836  11.210   3.307
11097W        W83445  24.705  39.835  12.054
11098W        W83446  11.185  13.743   1.375
11099W        W83447  15.104  24.622   4.717
11100W        W83448  15.678  33.897   2.764
11101W        W83449  34.951  40.379  14.289
11102W        W83450   2.887  37.336  12.965
11103W        W83451  24.090  39.848  14.796
11104W        W83452   4.235  18.177  10.488
11105W        W83453  32.118   9.717   3.817
11106W        W83454   7.203  10.333  11.389
11107W        W83455  25.558  39.866   2.672
11108W        W83456   8.303   5.795   4.698
11109W        W83457  17.292  35.862  10.639
11110W        W83458   0.261  32.401   3.866
11111W        W83459  32.606   0.303   2.277
11112W        W83460   3.320   5.394   2.247
11113W        W83461  32.963  15.578   3.859
11114W        W83462  40.940  10.648   3.203
11115W        W83463  33.517  18.254   0.891
11116W        W83464  13.842   1.831  10.524
11117W        W83465   2.291  32.980   1.736
11118W        W83466  29.000  17.292  10.975
11119W        W83467  23.551  19.716  12.478
11120W        W83468  11.306  30.112   2.667
11121W        W83469  18.740   0.320   2.748
11122W        W83470  29.496  39.533  12.898
11123W        W83471  31.521  15.312  11.455
11124W        W83472  21.131  30.991  11.029
11125W        W83473  21.188  39.040   2.710
11126W        W83474  24.559  16.186  12.918
11127W        W83475  23.098  28.680  12.429
11128W        W83476  16.074  19.202  13.414
11129W        W83477  13.231  14.724   4.318
11130W        W83478  12.775  34.500   1.746
11131W        W83479   5.404  30.614   0.906
11132W        W83480  10.851  37.845   4.123
11133W        W83481  37.961  27.060   3.185
11134W        W83482  24.204   6.904  12.877
11135W        W83483  33.930  35.357   0.889
11136W        W83484  35.593  32.941   3.179
11137W        W83485  32.011  32.427  13.045
11138W        W83486   9.750   1.902   1.443
11139W        W83487  33.578  39.330   4.313
11140W        W83488  16.771  10.355  13.854
11141W        W83489   8.843  16.663  11.598
11142W        W83490  38.415  10.181  13.345
11143W        W83491  38.539   0.899   0.443
11144W        W83492  42.825  22.166   3.275
11145W        W83493  36.407   9.886  11.919
11146W        W83494  15.591  44.489  12.992
11147W        W83495  39.435   5.895   3.643
11148W        W83496  24.533  34.514   4.148
11149W        W83497  15.639  37.534   0.400
11150W        W83498  40.469  30.935   2.392
11151W        W83499  36.020  30.572  11.992
11152W        W83500   2.263  41.484  14.307
11153W        W83501  22.502  15.171  12.459
11154W        W83502  38.509  18.235   2.353
11155W        W83503  44.419   8.786  10.524
11156W        W83504  32.910  27.586  13.326
11157W        W83505   2.348  29.543  13.803
11158W        W83506  39.898  30.957   4.747
11159W        W83507  21.632   0.438   4.117
11160W        W83508  19.233  24.155  13.956
11161W        W83509  32.549  33.623  11.056
11162W        W83510  22.162  22.187  11.480
11163W        W83511   4.395  36.852  12.895
11164W        W83512   5.869   0.959   3.689
11165W        W83513  25.080  21.654  13.929
11166W        W83514  43.773   4.801   1.318
11167W        W83515   1.401  22.210  14.884
11168W        W83516  13.226  30.639  14.498
11169W        W83517  33.456   3.344   2.901
11170W        W83518   6.394  34.554   1.309
11171W        W83519  28.506  31.090  12.851
11172W        W83520  32.435   7.724   3.710
11173W        W83521  27.534   9.804   2.229
11174W        W83522  30.645  23.665  12.001
11175W        W83523  25.214   1.242   2.812
11176W        W83524  43.012  18.670  14.309
11177W        W83525  25.996   5.344   4.598
11178W        W83526  27.155  24.067  13.801
11179W        W83527  37.000  13.110  10.621
11180W        W83528  24.066   7.816   4.764
11181W        W83529  18.605  17.193   3.378
11182W        W83530   3.455  18.619   0.899
11183W        W83531  41.869   3.249  14.975
11184W        W83532  37.434  11.732   3.680
11185W        W83533  43.869  19.192  11.052
11186W        W83534  22.500  22.077  13.050
11187W        W83535  22.024  37.068   3.269
11188W        W83536  11.333  36.998  12.003
11189W        W83537  20.097   6.812  11.872
11190W        W83538   3.303  29.667  11.550
11191W        W83539   2.317  32.100  13.537
11192W        W83540  29.166  25.055  12.437
11193W        W83541  41.908  44.990  13.460
11194W        W83542   1.258  21.704  14.352
11195W        W83543  27.993  40.980  13.308
11196W        W83544  29.503  10.801  14.759
11197W        W83545  26.673  42.836  11.952
11198W        W83546  25.600  38.457   4.299
11199W        W83547  24.683  43.458   2.231
11200W        W83548  24.216  18.137  12.947
11201W        W83549   0.916   7.307   2.247
11202W        W83550  26.085  44.994   3.714
11203W        W83551  22.695  43.812  12.845
11204W        W83552  44.383  16.179  13.386
11205W        W83553   5.392  26.155  11.998
11206W        W83554  25.669  27.166   0.408
11207W        W83555  12.247  37.466  14.803
11208W        W83556  40.444  25.078   4.807
11209W        W83557   9.812  28.584  11.097
11210W        W83558  28.442  42.800   0.311
11211W        W83559  39.366  15.788   5.311
11212W        W83560  16.699  26.166   3.748
11213W        W83561   6.335  23.578   1.846
11214W        W83562   9.682  32.097   4.648
11215W        W83563  37.842   7.727   0.757
11216W        W83564  25.198  38.833  11.485
11217W        W83565  39.529  40.973   2.381
11218W        W83566  35.008  43.907   3.306
11219W        W83567  33.552   6.224  12.495
11220W        W83568  29.144   5.375   4.686
11221W        W83569  13.649   4.879   1.383
11222W        W83570  15.329  19.126  10.984
11223W        W83571   9.793  23.042  12.007
11224W        W83572  41.786   6.779  13.005
11225W        W83573  16.145   7.242   5.110
11226W        W83574   3.303  28.983   1.306
11227W        W83575   2.308  43.495   1.812
11228W        W83576  16.307  40.505   1.229
11229W        W83577   4.320  33.457  11.607
11230W        W83578  17.649  10.281   4.268
11231W        W83579  27.623  11.209  14.414
11232W        W83580  16.807   0.840  14.013
11233W        W83581  30.136  36.395  14.349
11234W        W83582  27.505  28.133  14.317
11235W        W83583  39.826  41.859   4.265
11236W        W83584  16.715   7.344  11.511
11237W        W83585  27.139  30.438   2.681
11238W        W83586  15.665  41.376   5.233
11239W        W83587  28.576  20.057   2.311
11240W        W83588  26.468  18.222   1.757
11241W        W83589  31.451   1.756   2.371
11242W        W83590  23.139  24.120   0.730
11243W        W83591   5.855  10.686  14.464
11244W        W83592  20.118   5.272   3.822
11245W        W83593  39.936   6.794   2.183
11246W        W83594  28.535  29.040  14.280
11247W        W83595  38.495  43.813  14.391
11248W        W83596  29.052  13.192   4.647
11249W        W83597  33.127  21.165   2.798
11250W        W83598   4.767  11.237   1.298
11251W        W83599  15.697  30.079   1.839
11252W        W83600  30.493  43.881  14.326
11253W        W83601  15.665   3.753  11.578
11254W        W83602  19.081  28.662  12.042
11255W        W83603  33.021  20.270  14.814
11256W        W83604  37.456   4.899  11.979
11257W        W83605  14.200  39.466   0.814
11258W        W83606  22.610  35.984   5.199
11259W        W83607  23.644  18.077   4.731
11260W        W83608  36.012  10.799   1.885
11261W        W83609  44.955   2.350   1.846
11262W        W83610  11.755  30.109   2.816
11263W        W83611  24.173  10.761   9.921
11264W        W83612  16.190  39.060  13.353
11265W        W83613  33.052  21.529  11.049
11266W        W83614  14.824  20.694   2.367
11267W        W83615  26.187  34.449  11.471
11268W        W83616  44.765  32.029   3.330
11269W        W83617   4.359  34.911   0.255
11270W        W83618  10.293  44.773  13.452
11271W        W83619  13.159  24.080   1.363
11272W        W83620  33.389   0.443  10.473
11273W        W83621  42.318  37.581   3.250
11274W        W83622  42.463  34.380   1.376
11275W        W83623  41.412  17.604  13.429
11276W        W83624  26.049  27.940  14.810
11277W        W83625  36.404   7.721   3.332
11278W        W83626  43.276   7.268   2.181
11279W        W83627  41.334  31.082   0.250
11280W        W83628  21.184  18.142   2.271
11281W        W83629  15.739  34.404  10.635
11282W        W83630  40.867  38.972  11.949
11283W        W83631  15.692  32.905  10.960
11284W        W83632  18.722  38.530   1.400
11285W        W83633   7.319  27.576   0.344
11286W        W83634  26.958  15.634  10.535
11287W        W83635   9.241  44.296   4.118
11288W        W83636  18.662  22.568   0.926
11289W        W83637  10.234  39.371  12.421
11290W        W83638   4.423  20.111   3.647
11291W        W83639  36.947  42.295   3.169
11292W        W83640  18.784  36.486  10.632
11293W        W83641  32.468  32.093   2.310
11294W        W83642   8.286  40.352   1.268
11295W        W83643  13.808  33.990   2.288
11296W        W83644  10.267  23.076  10.589
11297W        W83645  13.315  19.039   1.794
11298W        W83646  15.682  31.488  14.336
11299W        W83647   5.701   1.266  11.002
11300W        W83648  16.696  43.867   4.697
11301W        W83649  35.042  23.583   1.887
11302W        W83650   7.393  23.679  14.444
11303W        W83651  18.135  28.970   4.790
11304W        W83652  25.624  25.122  12.344
11305W        W83653  16.247  21.531   4.686
11306W        W83654   1.848   0.882   1.373
11307W        W83655  22.641  17.256   1.228
11308W        W83656  42.290  28.170  10.993
11309W        W83657  13.627  37.885   4.803
11310W        W83658   0.778  13.205   4.164
11311W        W83659   4.242  10.845   2.295
11312W        W83660  27.465   7.401  12.081
11313W        W83661  28.604  13.218   0.895
11314W        W83662  18.093  22.118   4.138
11315W        W83663  28.116  23.149  14.400
11316W        W83664  40.018   5.711  11.079
11317W        W83665  28.145  12.841  14.368
11318W        W83666  32.095   5.735  12.400
11319W        W83667  36.949   5.401  10.976
11320W        W83668  44.311  32.050   3.183
11321W        W83669  18.720  26.595  11.548
11322W        W83670  22.236  22.735  10.932
11323W        W83671  43.965   2.355  12.578
11324W        W83672   0.939  34.953   1.924
11325W        W83673  15.282  22.659  13.918
11326W        W83674  18.554   0.319   3.258
11327W        W83675   4.793  38.423  10.075
11328W        W83676  33.960   9.370   3.188
11329W        W83677   3.877  38.890  10.064
11330W        W83678  31.013   0.460   1.300
11331W        W83679  21.684  35.044  12.859
11332W        W83680  39.400  11.169  14.408
11333W        W83681  27.054  17.629   4.688
11334W        W83682  18.141   1.853  14.428
11335W        W83683  16.214   6.292   1.801
11336W        W83684  22.609   8.278   4.125
11337W        W83685   7.391  15.821   3.635
11338W        W83686  32.633  21.541   2.794
11339W        W83687  19.750   2.897  10.578
11340W        W83688  30.135  28.009   4.241
11341W        W83689  36.584   7.906  14.946
11342W        W83690  18.781  44.800  12.837
11343W        W83691  16.672   7.242  14.789
11344W        W83692   9.284  23.510  11.098
11345W        W83693  29.499  30.480   3.784
11346W        W83694   5.226  10.677   3.363
11347W        W83695  39.044  44.801  11.488
11348W        W83696  22.523  39.395   3.160
11349W        W83697  33.573  11.245  10.419
11350W        W83698  26.494  24.613  13.465
11351W        W83699  40.424   4.938  11.092
11352W        W83700  16.788   4.237   4.262
11353W        W83701  31.967  10.662  11.109
11354W        W83702  10.343  11.202  10.128
11355W        W83703  23.119  19.578  10.499
11356W        W83704  15.787  36.908   2.705
11357W        W83705  34.964  27.943  11.971
11358W        W83706  11.746  15.775   1.741
11359W        W83707   1.454  38.464   0.243
11360W        W83708  36.418  35.442   1.755
11361W        W83709  40.979  43.292   4.652
11362W        W83710  26.077  10.278  11.591
11363W        W83711  29.953  38.956  14.855
11364W        W83712  25.059  39.343  14.889
11365W        W83713  37.853   7.415   4.221
11366W        W83714  35.948  18.268  14.328
11367W        W83715  14.628   1.837   2.722
11368W        W83716   4.396  39.479   1.899
11369W        W83717  15.763  34.399  13.910
11370W        W83718   0.954  30.448   4.742
11371W        W83719   2.350  37.053  12.579
11372W        W83720  28.463  27.117  11.889
11373W        W83721  43.917  34.420  14.983
11374W        W83722   3.829  20.045  14.776
11375W        W83723  30.477  22.588   0.348
11376W        W83724  13.760  20.744  11.942
11377W        W83725  23.618  23.608  11.120
11378W        W83726  10.854   0.759   2.698
11379W        W83727  40.922   4.875   2.343
11380W        W83728   2.821   8.353  13.341
11381W        W83729  40.901   4.923   1.223
11382W        W83730  38.474  28.563  14.960
11383W        W83731  15.149  43.021   0.427
11384W        W83732  44.819   5.213  11.986
11385W        W83733  36.963  16.769   1.844
11386W        W83734  40.884   2.252  13.508
11387W        W83735  40.842  29.632  13.870
11388W        W83736   5.364   0.417   2.378
11389W        W83737  11.290  23.240   3.338
11390W        W83738  31.003  32.890   0.320
11391W        W83739  30.606  24.602  12.951
11392W        W83740  10.723  30.454   1.826
11393W        W83741  16.638  37.030  13.428
11394W        W83742  42.002  26.121  12.891
11395W        W83743  12.153   6.227  11.464
11396W        W83744  23.523  35.899  12.066
11397W        W83745  20.250  24.131   2.369
11398W        W83746  26.151  33.999  14.910
11399W        W83747  26.594  14.333   4.817
11400W        W83748   8.405  16.694   3.825
11401W        W83749  16.655  12.220   4.715
11402W        W83750  41.484  15.598  11.090
11403W        W83751  10.852  21.156   5.720
11404W        W83752  35.953  37.992  12.463
11405W        W83753  19.039  44.770  13.986
11406W        W83754  25.212   3.313   0.749
11407W        W83755  34.540  27.074  10.461
11408W        W83756  36.940  40.978   2.267
11409W        W83757  38.358  20.268  14.005
11410W        W83758   0.777  33.521  12.895
11411W        W83759  44.983  17.666   0.796
11412W        W83760   8.778  31.097   1.285
11413W        W83761  25.636  44.808  11.383
11414W        W83762  12.290   2.961   1.857
11415W        W83763  33.963  15.199   2.848
11416W        W83764  23.078  18.724   2.793
11417W        W83765  21.582  40.852  11.104
11418W        W83766   5.798  14.124  10.440
11419W        W83767  18.285  44.418  11.609
11420W        W83768   1.439   6.798   2.841
11421W        W83769  31.060  24.006   2.387
11422W        W83770  43.416  39.464  10.967
11423W        W83771  39.924  22.663   0.442
11424W        W83772   0.419  12.130   2.770
11425W        W83773  14.638   1.736  10.422
11426W        W83774  14.283  26.187  14.428
11427W        W83775  40.029  33.998  10.939
11428W        W83776   1.870  18.651  10.538
11429W        W83777   3.887  10.359   2.403
11430W        W83778   0.895  21.629   2.299
11431W        W83779  36.367  24.631  14.780
11432W        W83780  36.429  15.820   0.372
11433W        W83781   4.387  18.690  10.587
11434W        W83782  20.078  34.888   2.751
11435W        W83783  23.653   5.784   2.817
11436W        W83784  43.937  31.641  13.791
11437W        W83785  34.102  11.257   3.213
11438W        W83786  41.329  13.215   0.963
11439W        W83787  31.531  17.264   2.281
11440W        W83788  26.548  25.520   0.479
11441W        W83789  30.583  35.415  10.574
11442W        W83790  33.921  19.189   3.151
11443W        W83791  39.351  25.032   3.282
11444W        W83792  22.659  38.459  12.971
11445W        W83793  33.481  25.589  14.942
11446W        W83794  31.058  35.420  13.449
11447W        W83795  41.839  13.139   3.370
11448W        W83796  15.635   0.980   5.261
11449W        W83797  28.108   3.763  11.109
11450W        W83798  34.039  23.124   4.615
11451W        W83799  20.547  34.492  10.409
11452W        W83800   6.709  31.016   5.216
11453W        W83801   6.307  39.383   4.711
11454W        W83802   2.910  23.572   4.207
11455W        W83803  35.977  44.853  11.548
11456W        W83804   0.395  44.330   1.700
11457W        W83805  39.038  21.754   0.942
11458W        W83806  43.850  27.579  14.494
11459W        W83807  27.001  34.549   1.841
11460W        W83808   7.371  13.792  14.397
11461W        W83809   3.442  33.445   0.349
11462W        W83810  22.183  44.805  12.839
11463W        W83811  39.003  29.609   1.820
11464W        W83812   7.796  41.441  13.945
11465W        W83813  26.659   8.679  13.915
11466W        W83814  24.091   7.369   0.767
11467W        W83815  26.201  31.469   1.851
11468W        W83816  26.662   5.812  13.064
11469W        W83817  20.639  18.745  12.348
11470W        W83818  41.807   8.373   4.118
11471W        W83819  17.602  17.646   2.753
11472W        W83820  12.785  31.445   3.255
11473W        W83821  21.613   5.346   2.367
11474W        W83822  18.282  15.186   2.188
11475W        W83823  18.633   1.741   1.892
11476W        W83824  25.639  42.935  13.467
11477W        W83825  32.540  36.893   5.256
11478W        W83826  28.671   9.860   3.652
11479W        W83827   9.870   6.799   4.835
11480W        W83828  39.951  13.294  14.944
11481W        W83829  43.430  28.578  14.971
11482W        W83830  38.828  37.918   0.428
11483W        W83831   0.974  31.947  13.002
11484W        W83832  33.540  24.205   0.262
11485W        W83833  25.618   1.329   0.327
11486W        W83834  36.519  13.179  13.326
11487W        W83835   6.381  25.032   4.160
11488W        W83836  10.858  26.509   3.172
11489W        W83837  30.547   4.450   0.810
11490W        W83838   0.886  23.611  14.440
11491W        W83839  28.661  29.087   0.336
11492W        W83840   8.225  42.029   3.179
11493W        W83841  26.101  34.444   4.151
11494W        W83842  33.063  43.017   2.361
11495W        W83843  29.979  29.604   1.328
11496W        W83844  35.398  17.781  14.773
11497W        W83845  15.314  17.626   0.863
11498W        W83846   4.226  15.657  10.069
11499W        W83847  11.178  28.133   3.868
11500W        W83848  22.174   2.769  11.433
11501W        W83849   8.397  10.312   0.437
11502W        W83850  33.549  41.376   4.349
11503W        W83851  39.531   2.263   3.865
11504W        W83852  31.909   3.315   1.709
11505W        W83853   4.255  16.802   4.301
11506W        W83854  11.128  39.418  10.552
11507W        W83855  13.330  25.032   1.446
11508W        W83856   5.884  23.717  12.553
11509W        W83857  43.419   8.784   0.818
11510W        W83858   2.459   4.224   0.392
11511W        W83859   6.281  41.017  14.814
11512W        W83860  35.002  24.178  13.377
11513W        W83861  37.548  36.352  12.579
11514W        W83862  43.410   4.884  14.365
11515W        W83863  21.588  15.168  11.118
11516W        W83864  15.649  41.421   3.647
11517W        W83865  20.551   3.851   2.872
11518W        W83866  11.251  27.539  12.024
11519W        W83867  29.170  30.092   2.282
11520W        W83868  40.948  25.119   1.356
11521W        W83869   0.822  32.452   1.887
11522W        W83870  38.893  25.160  14.903
11523W        W83871  26.593   8.270  12.442
11524W        W83872   1.335  18.746   0.822
11525W        W83873  20.700   6.890  14.322
11526W        W83874  24.184   1.900   1.871
11527W        W83875  34.956  21.513  13.402
11528W        W83876  36.882   1.790  12.956
11529W        W83877   4.292   3.316   3.373
11530W        W83878  20.581  40.042   0.880
11531W        W83879   6.406  30.002   0.426
11532W        W83880  32.617  42.992  11.596
11533W        W83881  33.473  15.155  10.911
11534W        W83882   1.303  37.848   2.823
11535W        W83883  21.144  12.341  13.965
11536W        W83884  16.187  33.445  11.858
11537W        W83885  32.922  44.395   0.865
11538W        W83886  25.523   7.332  12.474
11539W        W83887  32.467  19.681   3.712
11540W        W83888  39.393  26.974   0.885
11541W        W83889  39.358   4.919   1.232
11542W        W83890  42.286  22.182  10.499
11543W        W83891   6.878  42.010   3.726
11544W        W83892  19.163  17.727  14.816
11545W        W83893  26.653  15.652  11.469
11546W        W83894  43.946  20.661   4.660
11547W        W83895   0.983  32.483   3.294
11548W        W83896  19.678  31.416  10.890
11549W        W83897  35.411  12.751  11.982
11550W        W83898  22.727  11.249   1.916
11551W        W83899  33.994  25.208  13.331
11552W        W83900  43.823  25.513   2.779
11553W        W83901  29.662  32.606   2.876
11554W        W83902  32.619   9.185   0.792
11555W        W83903   8.211   5.744  12.455
11556W        W83904  34.063  23.029  11.976
11557W        W83905  20.271  30.098  12.496
11558W        W83906   2.963  24.514   0.301
11559W        W83907  19.245  44.355   3.840
11560W        W83908  18.712  36.487   0.373
11561W        W83909  43.796   6.337   2.877
11562W        W83910  19.121  32.030   1.327
11563W        W83911  21.108  29.077  14.409
11564W        W83912  15.138  28.504   2.324
11565W        W83913  27.454  22.730  12.024
11566W        W83914   2.872  32.903  13.911
11567W        W83915  13.830  40.434   2.361
11568W        W83916  10.204   2.740   1.409
11569W        W83917  13.133   1.947  11.507
11570W        W83918  23.655  14.773   2.190
11571W        W83919   3.266   2.961   0.953
11572W        W83920   9.736  40.327  11.028
11573W        W83921   6.409  25.665   1.865
11574W        W83922  18.554  14.275  14.793
11575W        W83923  16.227  44.347  14.822
11576W        W83924  24.536   4.418  14.941
11577W        W83925   0.890  39.986  10.967
11578W        W83926  12.663  25.978   0.857
11579W        W83927  16.215  12.653  10.451
11580W        W83928  23.049  18.211  11.886
11581W        W83929   7.288  10.322  13.004
11582W        W83930   2.265  33.989   0.249
11583W        W83931  33.101   7.205  14.954
11584W        W83932  19.052  10.364  13.530
11585W        W83933  11.136   3.430  12.898
11586W        W83934  15.787  44.423  12.345
11587W        W83935  29.010  11.646  14.425
11588W        W83936  38.441  24.061   0.785
11589W        W83937  13.804  39.883  11.007
11590W        W83938  34.027  30.062  14.484
11591W        W83939  42.399   3.885   2.865
11592W        W83940  28.936  22.562  10.534
11593W        W83941  21.717   0.866   0.342
11594W        W83942   0.779  15.792   0.284
11595W        W83943  25.635  29.143  11.610
11596W        W83944   1.880   2.301   5.316
11597W        W83945   4.725  21.655  14.419
11598W        W83946  16.209  43.009   2.264
11599W        W83947  30.159  39.402  10.921
11600W        W83948  38.065  25.081   3.186
11601W        W83949  16.651  13.232  10.935
11602W        W83950  40.877  35.878   0.792
11603W        W83951   2.407  26.014  10.527
11604W        W83952  28.140  23.603  12.371
11605W        W83953  40.364  27.536  10.486
11606W        W83954  27.124  22.580   3.795
11607W        W83955  32.098   3.215  12.045
11608W        W83956  13.351  40.049  11.903
11609W        W83957  17.642  35.909  10.919
11610W        W83958  40.402   8.770   4.277
11611W        W83959  42.020  25.610   3.662
11612W        W83960  41.949  36.947   1.930
11613W        W83961   5.786  15.604   1.781
11614W        W83962  38.044  19.080  10.994
11615W        W83963  39.539  32.039   1.834
11616W        W83964  30.620   8.674  12.861
11617W        W83965  22.060  24.559   2.704
11618W        W83966   1.277   6.356  12.890
11619W        W83967  29.532   0.942   0.800
11620W        W83968  18.263  31.580   3.331
11621W        W83969  22.218   2.939  10.550
11622W        W83970   7.860  16.634  11.991
11623W        W83971  36.592  32.094   4.650
11624W        W83972   7.769  40.825  12.475
11625W        W83973  22.697  35.910  10.494
11626W        W83974  18.255  12.295   2.682
11627W        W83975  28.625  38.533   3.757
11628W        W83976  24.069  16.756   4.691
11629W        W83977  39.985  34.530  14.931
11630W        W83978  25.666  37.986  10.486
11631W        W83979  39.388  33.901  12.094
11632W        W83980   4.709  43.978  11.456
11633W        W83981  38.455  36.040  12.070
11634W        W83982  27.500  16.791   1.304
11635W        W83983  19.739  43.497  12.995
11636W        W83984  20.241  21.107  14.893
11637W        W83985  42.524  32.466   0.387
11638W        W83986  31.077  24.006  13.336
11639W        W83987  34.072   5.818   3.233
11640W        W83988  17.088  41.350  14.473
11641W        W83989   1.931  41.533   4.202
11642W        W83990   1.767  37.963   2.233
11643W        W83991  17.758  14.243   9.564
11644W        W83992  43.334   0.476  13.861
11645W        W83993  38.929   6.306   4.129
11646W        W83994  13.131  25.100  14.993
11647W        W83995   3.768  10.164   1.801
11648W        W83996   2.850  42.334   4.341
11649W        W83997  34.568   3.431   1.314
11650W        W83998  40.934  22.195   0.885
11651W        W83999   2.277  18.154   0.288
11652W        W84000   3.839  37.064  14.325
11653W        W84001   4.303  32.905  13.876
11654W        W84002  43.276  43.847  13.040
11655W        W84003  42.341  20.097  11.931
11656W        W84004   1.894  19.281  11.126
11657W        W84005  36.525   7.348   2.281
11658W        W84006  34.589   0.296  10.551
11659W        W84007  15.150  43.436  13.928
11660W        W84008  15.246  40.485   2.402
11661W        W84009  36.350  37.010   2.318
11662W        W84010   7.835  32.450   2.235
11663W        W84011   0.788   1.767  13.013
11664W        W84012  18.118  35.459  11.381
11665W        W84013  24.058  40.922  13.926
11666W        W84014  44.798  24.176  10.509
11667W        W84015   0.478  17.572  14.297
11668W        W84016  13.172   7.681  14.012
11669W        W84017  40.458  16.317  11.479
11670W        W84018  27.675   8.680   1.364
11671W        W84019  31.960  31.016  12.068
11672W        W84020  38.465   2.337  14.897
11673W        W84021  31.573  44.281  13.493
11674W        W84022   8.814   7.764   2.843
11675W        W84023  11.219   5.821  12.980
11676W        W84024  43.416  28.124   4.116
11677W        W84025  28.644  34.491   1.348
11678W        W84026   4.896  34.080  14.813
11679W        W84027  37.936   1.363   4.825
11680W        W84028   4.357  14.760  13.489
11681W        W84029  35.585   6.370  13.800
11682W        W84030  30.619   7.285   0.763
11683W        W84031  29.144  18.295   3.385
11684W        W84032  13.225  32.114   1.304
11685W        W84033  20.537  17.779  12.909
11686W        W84034   2.333   0.460   1.790
11687W        W84035  13.721   3.375  13.810
11688W        W84036  10.765  42.859  10.417
11689W        W84037  39.548   4.347  10.115
11690W        W84038  26.668  17.705  13.522
11691W        W84039   3.898  43.437  11.463
11692W        W84040  23.011   8.338   2.322
11693W        W84041  42.397  21.102  13.813
11694W        W84042  39.414   5.813  14.515
11695W        W84043  16.171   0.355   0.840
11696W        W84044  23.571  10.356   5.117
11697W        W84045   3.805  32.937  10.909
11698W        W84046  29.959  40.502   1.437
11699W        W84047  33.460  14.591  12.541
11700W        W84048  17.079  24.677  10.466
11701W        W84049  21.628  25.711  12.382
11702W        W84050  37.023   0.300  13.891
11703W        W84051  24.669  38.404   4.700
11704W        W84052  41.406  43.906   4.256
11705W        W84053  21.515   9.365   5.267
11706W        W84054  36.081  34.572   1.336
11707W        W84055  13.249  33.020  11.128
11708W        W84056  35.002   9.346   4.673
11709W        W84057  24.199  18.237   0.781
11710W        W84058   3.797  25.031  13.839
11711W        W84059   0.282  35.473   2.389
11712W        W84060  35.528  21.180   1.294
11713W        W84061  28.148  17.702   1.393
11714W        W84062  39.843  37.512  14.998
11715W        W84063  30.653  44.401   3.173
11716W        W84064  38.459  39.935  14.968
11717W        W84065  29.629  31.999   2.873
11718W        W84066  14.112  35.421   1.773
11719W        W84067   8.686  24.982  12.372
11720W        W84068   4.223   6.243  11.423
11721W        W84069  43.886  37.978   0.391
11722W        W84070   5.389  42.438   0.441
11723W        W84071   5.930  23.110   1.787
11724W        W84072  12.200  26.963  12.414
11725W        W84073  40.365  37.484  14.993
11726W        W84074  15.265  11.279   1.360
11727W        W84075  38.475  29.042   0.799
11728W        W84076   6.718  36.516  11.467
11729W        W84077  25.659  21.734  12.036
11730W        W84078  43.777  16.621  13.491
11731W        W84079  28.136   9.271  11.024
11732W        W84080  43.771  16.073   4.644
11733W        W84081  30.507   5.297  10.416
11734W        W84082  41.334  14.158  13.368
11735W        W84083  40.017  19.700  13.819
11736W        W84084  38.975   9.219   1.268
11737W        W84085  39.014  17.215  13.987
11738W        W84086   8.799  40.806   4.792
11739W        W84087  42.025  27.489   2.715
11740W        W84088  21.604  28.136  14.508
11741W        W84089  24.092  26.147  14.932
11742W        W84090  22.706  41.527  13.502
11743W        W84091   1.294   7.319   4.830
11744W        W84092  12.220  40.337   0.773
11745W        W84093   6.394  26.973  11.964
11746W        W84094  43.988  17.719  11.032
11747W        W84095   8.358  15.249  10.415
11748W        W84096  17.594   7.829  13.975
11749W        W84097   6.295  21.072   0.328
11750W        W84098   7.364  40.044  14.488
11751W        W84099   8.177  22.729   2.770
11752W        W84100  13.608  12.844  13.324
11753W        W84101  31.069  25.179  13.353
11754W        W84102  16.763  27.165  12.924
11755W        W84103  43.278  21.058   4.155
11756W        W84104  29.604  24.564  13.954
11757W        W84105  23.536  11.797   0.789
11758W        W84106  28.498  17.561   1.341
11759W        W84107   7.864  17.110   0.827
11760W        W84108  30.517  10.154   4.255
11761W        W84109  28.005   3.772  13.956
11762W        W84110   5.692  32.033   5.250
11763W        W84111  33.605  38.887  11.410
11764W        W84112   0.298   3.222  11.988
11765W        W84113   7.868  33.087   5.688
11766W        W84114   8.242   2.382  12.451
11767W        W84115   0.393   1.381  13.360
11768W        W84116  21.062  43.348   1.918
11769W        W84117  23.064  10.184  13.335
11770W        W84118  36.987  43.819   0.436
11771W        W84119  22.047  37.996   0.339
11772W        W84120  44.388   8.698   0.912
11773W        W84121  13.310  15.228  12.068
11774W        W84122  32.465  37.012  11.027
11775W        W84123   0.293  18.252   3.304
11776W        W84124   9.373   6.232  14.477
11777W        W84125  17.664  16.709   4.767
11778W        W84126  42.376  14.118  11.862
11779W        W84127   2.766  34.432   2.830
11780W        W84128   7.317  44.780  11.947
11781W        W84129  11.621  32.022  11.990
11782W        W84130  24.484  18.293  12.051
11783W        W84131  24.693  39.361   2.372
11784W        W84132   7.381  24.222  14.442
11785W        W84133  23.682  24.984   0.397
11786W        W84134  38.947  40.832  11.909
11787W        W84135   1.245  29.089  13.359
11788W        W84136   9.248  30.135  11.856
11789W        W84137  30.561  17.067  10.546
11790W        W84138  30.419  43.977  14.878
11791W        W84139  35.945  30.959  10.420
11792W        W84140  28.518   4.432  11.384
11793W        W84141   7.690  31.056  13.031
11794W        W84142  19.089  30.569  10.983
11795W        W84143  25.135  39.812  14.318
11796W        W84144   1.337  31.598  12.478
11797W        W84145  36.440  12.263  12.911
11798W        W84146  38.839  11.672   0.940
11799W        W84147   6.295  44.983  10.595
11800W        W84148  32.958  18.629   2.379
11801W        W84149   8.862  18.657  14.937
11802W        W84150   9.394  15.216   0.795
11803W        W84151   6.340   4.866  14.459
11804W        W84152   0.328  22.227  12.495
11805W        W84153  10.325   4.872   0.957
11806W        W84154  31.544  10.201  13.438
11807W        W84155  40.005  15.726   3.831
11808W        W84156  16.673  14.216   1.251
11809W        W84157  13.128  34.454  10.959
11810W        W84158   4.698  17.242  13.370
11811W        W84159  34.608  13.841   3.694
11812W        W84160  43.854  34.014   1.762
11813W        W84161  10.720  33.037  14.961
11814W        W84162  26.038   4.735  12.529
11815W        W84163  18.678  13.176   2.369
11816W        W84164   8.352   9.367  10.501
11817W        W84165   4.320  23.650  13.926
11818W        W84166  30.529  40.801   3.858
11819W        W84167   5.767  18.647  10.417
11820W        W84168   1.391  20.537  10.533
11821W        W84169  24.697   3.261   4.172
11822W        W84170  32.472  23.585  11.415
11823W        W84171  23.220  26.989  14.296
11824W        W84172  24.602  10.829   4.685
11825W        W84173  29.920   8.830  12.943
11826W        W84174  13.672  32.446  13.479
11827W        W84175  30.946  10.152   2.785
11828W        W84176  25.669  18.134   4.625
11829W        W84177  19.740   1.475   4.818
11830W        W84178  21.652   7.320  14.889
11831W        W84179  44.401  42.012  10.949
11832W        W84180   5.268  21.630  11.913
11833W        W84181  37.468   4.228   1.932
11834W        W84182  12.656  29.044   3.810
11835W        W84183  19.133  12.655  11.903
11836W        W84184  17.642   3.296  10.560
11837W        W84185   6.224  32.988  12.460
11838W        W84186  43.404  38.553  13.540
11839W        W84187   4.775  32.073  12.371
11840W        W84188  39.919  13.350   2.896
11841W        W84189   1.953   2.286  14.303
11842W        W84190  13.769  31.999   2.864
11843W        W84191  32.064  33.013  14.332
11844W        W84192  31.424   5.277   2.753
11845W        W84193  21.095   1.413   3.153
11846W        W84194  42.290  41.383   3.711
11847W        W84195  22.538  37.411   2.886
11848W        W84196  30.647   7.237  13.411
11849W        W84197  44.779  15.110   0.768
11850W        W84198  43.775  28.597  14.030
11851W        W84199  38.989  22.631   5.259
11852W        W84200  19.240   2.238   0.827
11853W        W84201  34.606  35.572   1.217
11854W        W84202  20.692  41.859   0.361
11855W        W84203  22.623  14.142   2.854
11856W        W84204  39.983  37.975   1.394
11857W        W84205  33.615  44.485  10.008
11858W        W84206  39.924  42.505   2.770
11859W        W84207   5.208  17.570   1.713
11860W        W84208  19.156   9.330  14.000
11861W        W84209  15.725   3.784   2.392
11862W        W84210  30.107  17.197  12.853
11863W        W84211   2.407   2.888   0.855
11864W        W84212  36.045  27.577   4.746
11865W        W84213  21.669  43.975   2.282
11866W        W84214  28.050  27.095  10.427
11867W        W84215  26.628  22.030  14.973
11868W        W84216   3.454  17.748   0.776
11869W        W84217  35.901  35.499   4.831
11870W        W84218  33.053   8.659  12.850
11871W        W84219  44.373  28.082  13.830
11872W        W84220  18.200  20.726   1.726
11873W        W84221   9.809  23.177   0.865
11874W        W84222  37.418   0.838  14.401
11875W        W84223  29.972  44.907  12.391
11876W        W84224   3.887  41.472   3.787
11877W        W84225   7.337  37.406  10.583
11878W        W84226  29.424  16.161   1.308
11879W        W84227   9.202   9.252  14.925
11880W        W84228  11.221  13.158   3.705
11881W        W84229  31.115  26.112   3.824
11882W        W84230  19.078  24.025  12.579
11883W        W84231  40.886  36.914   4.792
11884W        W84232  39.860  13.819  11.026
11885W        W84233  41.463  42.794  11.013
11886W        W84234   0.390  31.982  13.462
11887W        W84235  13.606  19.756   4.199
11888W        W84236  24.715  27.068  13.338
11889W        W84237   9.780  12.220   0.389
11890W        W84238   7.271  23.159   1.906
11891W        W84239  18.674  38.884   4.200
11892W        W84240  34.541  32.454  10.603
11893W        W84241   0.745  36.027  13.422
11894W        W84242  23.491  17.687   4.652
11895W        W84243  32.997  19.643  12.899
11896W        W84244  26.051  26.480  12.428
11897W        W84245   9.283   6.358  10.619
11898W        W84246   6.766   2.342  13.977
11899W        W84247   5.815  22.745  11.503
11900W        W84248   6.875  16.771  10.511
11901W        W84249  29.111  16.597  13.388
11902W        W84250  13.210  12.715  13.387
11903W        W84251  12.756  28.943  10.909
11904W        W84252  27.066  33.447  11.102
11905W        W84253  33.531  13.740  14.445
11906W        W84254   9.150   1.395  14.440
11907W        W84255  32.025  32.412   2.298
11908W        W84256  44.949   0.254  10.445
11909W        W84257  16.206  23.725  11.128
11910W        W84258  21.037  33.438   1.238
11911W        W84259  29.089  27.656  10.946
11912W        W84260   9.283   6.184  11.545
11913W        W84261   6.921  44.487   4.204
11914W        W84262  28.070   6.252   4.134
11915W        W84263  30.104   9.251  10.505
11916W        W84264  34.022   8.349   3.689
11917W        W84265  27.012  35.364   1.378
11918W        W84266   0.348  29.984  10.916
11919W        W84267  29.600   4.750  10.132
11920W        W84268  22.214  13.248   4.148
11921W        W84269  12.656  19.056   2.743
11922W        W84270  20.762  13.246   4.147
11923W        W84271  18.625  39.865  14.377
11924W        W84272   4.234  14.599   2.664
11925W        W84273  43.412  14.617  14.941
11926W        W84274  27.453  35.871   0.288
11927W        W84275  39.336   8.841  14.344
11928W        W84276   1.350  43.347   4.301
11929W        W84277   3.334  14.764   2.195
11930W        W84278  31.991  35.084   4.334
11931W        W84279  23.212  15.091  11.015
11932W        W84280  32.535  20.096   2.262
11933W        W84281  18.135  10.693  14.379
11934W        W84282  30.029   9.237   4.327
11935W        W84283  20.214  43.284  13.525
11936W        W84284  44.939  32.105  11.863
11937W        W84285   3.953   7.202   0.353
11938W        W84286  32.056  20.602  14.909
11939W        W84287  20.562  33.062   1.803
11940W        W84288  21.236  34.556  14.282
11941W        W84289  35.388  41.388  11.085
11942W        W84290  10.741   1.975  11.919
11943W        W84291  25.073  17.608   4.650
11944W        W84292  15.805  17.278   5.244
11945W        W84293  41.437  44.361  11.106
11946W        W84294  13.266   2.464   1.313
11947W        W84295   3.940  10.746   0.466
11948W        W84296  33.401  16.787   4.204
11949W        W84297  25.635   6.192   3.771
11950W        W84298  32.072   4.382  10.585
11951W        W84299  44.362  27.588  14.844
11952W        W84300   7.817  23.073  13.467
11953W        W84301  40.385   9.342   4.317
11954W        W84302  41.465   5.712   3.306
11955W        W84303  41.961   5.822   0.918
11956W        W84304  41.817  37.534  11.434
11957W        W84305   1.815   9.217  11.083
11958W        W84306   0.891  11.322   0.829
11959W        W84307  13.141  18.687   3.325
11960W        W84308  19.131  34.956  10.587
11961W        W84309   7.671   8.853  12.528
11962W        W84310  10.764  10.371  11.587
11963W        W84311   8.728  17.623   1.229
11964W        W84312  41.853  30.003   4.719
11965W        W84313   7.674  18.113   3.153
11966W        W84314  39.425   7.878  14.777
11967W        W84315   7.234  31.036  13.854
11968W        W84316  14.826  39.813   1.810
11969W        W84317  33.034  34.614   2.333
11970W        W84318   9.202   0.845   0.374
11971W        W84319  25.594  10.147   2.711
11972W        W84320  21.027  31.016  11.997
11973W        W84321   5.225  25.652   2.332
11974W        W84322  25.564  39.847   0.413
11975W        W84323  25.602  36.472  13.033
11976W        W84324  16.110  22.636  10.931
11977W        W84325  11.738   9.389  13.430
11978W        W84326  10.873  14.594   2.313
11979W        W84327   1.942  35.482   2.807
11980W        W84328   9.301   6.838   3.321
11981W        W84329  10.737  40.001  13.877
11982W        W84330  39.460  41.789  11.514
11983W        W84331  10.368   1.321  11.863
11984W        W84332  43.999  19.753  12.008
11985W        W84333  19.143  33.102   4.814
11986W        W84334  12.660  26.130   3.279
11987W        W84335  20.159  15.591  12.906
11988W        W84336  26.127  40.892  14.020
11989W        W84337  25.013   2.314  14.398
11990W        W84338  33.919  25.146   4.143
11991W        W84339   0.805   2.907   3.303
11992W        W84340  40.821  21.113  10.563
11993W        W84341  34.484  10.848   2.282
11994W        W84342   9.670  32.924  11.898
11995W        W84343  29.054  36.886  14.445
11996W        W84344  44.262  40.361  14.762
11997W        W84345  42.787  32.393   3.687
11998W        W84346  14.678  25.569   3.319
11999W        W84347  31.938  16.705   3.849
12000W        W84348  27.562  15.685   0.324
12001W        W84349   3.939  20.246   0.434
12002W        W84350  34.584   7.290  11.913
12003W        W84351  36.425   5.272   2.357
12004W        W84352  22.130  42.950   1.748
12005W        W84353   3.325   8.734  12.912
12006W        W84354  10.334  31.979  14.947
12007W        W84355  19.626   5.381  13.345
12008W        W84356   0.789  18.704  11.598
12009W        W84357  41.001  15.784   2.769
12010W        W84358  13.651  36.354   3.663
12011W        W84359  15.129  44.917   3.182
12012W        W84360   9.779   9.303   2.302
12013W        W84361  30.439  23.510   1.733
12014W        W84362  44.310  41.946  12.931
12015W        W84363  43.963   6.863  12.008
12016W        W84364  36.930   1.377   0.348
12017W        W84365  28.613   4.381   2.843
12018W        W84366  35.508  39.943  13.363
12019W        W84367  33.565  43.793   1.359
12020W        W84368  24.644  36.420   2.320
12021W        W84369  39.338  30.039   2.716
12022W        W84370  12.748   5.727  10.562
12023W        W84371  24.702  36.077  10.440
12024W        W84372  34.585  43.486  14.810
12025W        W84373  19.629   4.353   3.202
12026W        W84374  28.663  19.131  14.912
12027W        W84375  28.560  26.544  14.301
12028W        W84376  32.452  41.437  12.931
12029W        W84377  23.993   3.226   2.356
12030W        W84378   6.857  21.604  12.028
12031W        W84379  28.131  42.839  13.405
12032W        W84380  14.247  33.540   4.123
12033W        W84381  28.984  21.667  11.090
12034W        W84382  15.789  28.051   4.701
12035W        W84383  35.439   3.439   0.375
12036W        W84384  43.829   7.887  12.530
12037W        W84385  41.040  34.524  14.429
12038W        W84386  10.380   3.815  12.532
12039W        W84387  36.991   9.845  13.889
12040W        W84388   9.231  15.271  11.534
12041W        W84389  17.591  20.668  14.908
12042W        W84390  12.125  43.997   2.220
12043W        W84391   7.191  39.826   0.386
12044W        W84392  21.583  37.370   1.857
12045W        W84393  22.740  29.022   0.390
12046W        W84394  35.477  11.862  13.814
12047W        W84395  37.080  23.506   1.796
12048W        W84396  16.167  43.454  11.428
12049W        W84397  29.595  22.530   2.788
12050W        W84398  32.915  27.486  11.061
12051W        W84399   9.797  13.321   1.316
12052W        W84400  13.170   7.824  10.541
12053W        W84401   8.882  20.641   3.208
12054W        W84402  40.962  29.990  14.805
12055W        W84403  31.487  39.855   3.212
12056W        W84404  35.011  31.093   4.618
12057W        W84405  24.479   6.701   1.379
12058W        W84406   3.749   1.298  14.358
12059W        W84407  19.144  12.173  10.472
12060W        W84408  18.612   4.252  13.893
12061W        W84409  20.590   8.298   1.934
12062W        W84410  42.844  39.520  13.342
12063W        W84411   7.196  40.513   3.751
12064W        W84412  42.843  14.333  11.490
12065W        W84413  24.683  28.530  12.926
12066W        W84414  37.884  39.471   0.744
12067W        W84415  27.139   1.874   3.330
12068W        W84416   7.402  18.112   3.356
12069W        W84417   8.180  44.261  11.571
12070W        W84418   1.749  15.790  14.921
12071W        W84419  26.647  40.000  13.521
12072W        W84420  40.421  19.240  12.841
12073W        W84421  42.382  31.456  13.906
12074W        W84422  19.750  33.504  14.407
12075W        W84423  27.522  44.378   4.254
12076W        W84424  31.576   3.445  12.983
12077W        W84425  41.320  18.643  13.488
12078W        W84426  36.511  14.183   4.151
12079W        W84427  23.119  18.723   0.285
12080W        W84428   4.428  35.083  13.510
12081W        W84429  17.693  34.522   0.414
12082W        W84430   5.861   9.751   3.742
12083W        W84431  42.917  40.527   2.258
12084W        W84432   0.842  31.449  14.285
12085W        W84433  30.637  30.654  10.581
12086W        W84434  35.041  18.145   2.712
12087W        W84435  43.884   8.289   0.794
12088W        W84436  39.560  26.550   4.640
12089W        W84437   8.865  42.457   2.232
12090W        W84438  23.558  35.948  10.478
12091W        W84439  12.637  36.982   4.648
12092W        W84440   0.831  19.280   0.922
12093W        W84441  10.745  42.487  10.596
12094W        W84442  21.207   8.701  11.937
12095W        W84443  31.137  17.282  13.352
12096W        W84444  21.147  39.860   4.277
12097W        W84445  18.112   3.760   3.345
12098W        W84446  24.591  25.525   3.864
12099W        W84447  10.705  22.041  14.875
12100W        W84448  31.485  41.813  13.981
12101W        W84449  12.361  22.677  11.021
12102W        W84450   7.184  24.672   0.476
12103W        W84451   3.879  34.428  11.015
12104W        W84452  38.894  18.768   5.272
12105W        W84453   0.861  23.014   3.798
12106W        W84454  32.043  22.525   3.291
12107W        W84455  34.962   7.885  11.935
12108W        W84456  15.793  10.215   3.689
12109W        W84457  14.161  15.613   3.665
12110W        W84458  24.989  21.688   4.657
12111W        W84459   0.899  35.429  11.499
12112W        W84460  35.578   4.857   3.166
12113W        W84461  26.986  40.811   1.263
12114W        W84462  33.488  20.141  11.907
12115W        W84463   4.910  13.158  11.422
12116W        W84464  11.234  31.078   0.836
12117W        W84465  20.672   9.175   2.284
12118W        W84466  40.960  44.320  10.624
12119W        W84467  30.130  37.003  14.426
12120W        W84468  10.368  37.442  11.859
12121W        W84469  29.117   9.837   1.326
12122W        W84470  27.167  29.940  10.423
12123W        W84471  43.432  13.158   0.958
12124W        W84472  21.701  14.185   1.213
12125W        W84473  30.124  28.606   4.725
12126W        W84474  40.990  13.782   0.812
12127W        W84475   1.820  29.051   0.443
12128W        W84476  21.241   9.772  11.922
12129W        W84477  17.628  37.448   4.141
12130W        W84478   7.863  40.516   2.284
12131W        W84479   4.311   4.210  14.891
12132W        W84480  40.884  21.730   3.246
12133W        W84481   5.317  40.837  12.018
12134W        W84482   7.752  39.421   0.782
12135W        W84483   9.201  40.012   1.313
12136W        W84484  24.569  17.798   0.796
12137W        W84485  31.558  37.003  14.889
12138W        W84486   8.323  23.710   1.807
12139W        W84487  25.186  26.522   0.897
12140W        W84488   1.337  19.618  14.367
12141W        W84489  38.463  19.629   2.301
12142W        W84490  12.344   5.193  13.397
12143W        W84491  35.554  21.734  12.968
12144W        W84492  10.867  44.812  11.950
12145W        W84493  26.049  43.966  13.870
12146W        W84494  36.032  19.276   2.731
12147W        W84495  36.096  21.522   1.434
12148W        W84496  21.690  14.264   2.838
12149W        W84497  40.476   5.280   0.308
12150W        W84498  40.826  22.009  12.974
12151W        W84499  32.616  33.876   1.798
12152W        W84500  11.370   4.304  10.152
12153W        W84501  42.305  33.506  14.956
12154W        W84502  28.947  14.603  11.892
12155W        W84503  24.668  41.481  13.055
12156W        W84504  41.958  44.937   1.717
12157W        W84505   0.844  37.384   0.808
12158W        W84506  17.654  28.459   4.672
12159W        W84507  38.356  33.571  14.326
12160W        W84508  26.473  22.642  11.991
12161W        W84509  44.404  36.445   2.418
12162W        W84510  28.157  10.277  13.058
12163W        W84511  37.379  41.794   2.744
12164W        W84512   2.245  44.963   1.217
12165W        W84513  14.137  39.022  10.081
12166W        W84514  41.931  29.174  10.415
12167W        W84515  10.264   5.796  10.913
12168W        W84516  32.511  35.017   3.700
12169W        W84517   3.331  24.538   4.277
12170W        W84518   2.448  35.440  14.283
12171W        W84519  33.938   8.882   1.217
12172W        W84520  39.036  10.801   0.877
12173W        W84521  35.013  29.663   3.753
12174W        W84522  12.834  31.127   4.601
12175W        W84523  38.980  39.852  10.900
12176W        W84524  18.581   5.900   4.643
12177W        W84525  43.312  38.846   3.196
12178W        W84526  11.128  43.397   1.365
12179W        W84527   8.671  20.729   2.855
12180W        W84528  24.185  12.657  13.869
12181W        W84529  10.347  41.487   2.862
12182W        W84530  10.858  41.836  12.529
12183W        W84531  32.943  17.062  14.461
12184W        W84532  34.075  20.121  14.905
12185W        W84533  24.668   9.252   3.828
12186W        W84534   6.252  32.132   5.267
12187W        W84535   4.882  35.482   5.213
12188W        W84536  13.765  13.816  10.888
12189W        W84537  34.913  12.251   2.799
12190W        W84538  15.218  43.451  14.351
12191W        W84539  12.268  14.781   3.345
12192W        W84540  10.644  22.718  12.947
12193W        W84541  40.914  15.294   0.897
12194W        W84542  22.177  40.470  13.384
12195W        W84543  11.861  41.915  13.045
12196W        W84544  23.063  14.787  13.851
12197W        W84545   4.766  24.113   0.925
12198W        W84546  33.011  35.100  10.014
12199W        W84547  29.169  40.526   3.645
12200W        W84548  37.447  14.216   1.221
12201W        W84549  40.356  19.095  11.484
12202W        W84550  39.820  43.009   4.141
12203W        W84551  29.495  16.078   3.213
12204W        W84552  22.536  14.759  10.891
12205W        W84553   3.845  31.567  12.897
12206W        W84554   8.298  33.573   2.320
12207W        W84555  18.168  43.373  13.938
12208W        W84556  31.450  25.219   0.302
12209W        W84557  29.135  44.483   1.421
12210W        W84558  39.970  17.678   2.305
12211W        W84559  36.980  19.570  11.465
12212W        W84560  26.194  15.298   2.695
12213W        W84561  35.985   4.715   5.296
12214W        W84562  10.300   1.309  14.480
12215W        W84563  19.641  25.498   2.772
12216W        W84564  13.797  40.831   1.839
12217W        W84565   4.774  39.057  13.510
12218W        W84566  20.199  32.635  14.322
12219W        W84567   4.407  18.087   3.263
12220W        W84568  38.391  18.113  13.365
12221W        W84569  14.595  42.443   1.401
12222W        W84570  10.327  15.102   1.928
12223W        W84571   8.739   7.405   0.880
12224W        W84572  34.103  15.136   3.274
12225W        W84573  17.291  21.626  12.976
12226W        W84574   4.713  18.166  12.570
12227W        W84575  44.345   4.867  11.949
12228W        W84576  15.615   3.931   5.130
12229W        W84577  44.946  15.236  13.473
12230W        W84578  36.030  20.546  12.837
12231W        W84579  34.564   0.274   0.377
12232W        W84580  35.552  14.625  11.553
12233W        W84581  18.139   8.761   1.843
12234W        W84582  26.652  12.318  14.961
12235W        W84583  24.138  15.655   2.257
12236W        W84584  30.097  20.254   1.787
12237W        W84585  40.826   3.254  12.880
12238W        W84586  28.512  34.399  13.343
12239W        W84587   1.888  40.444  14.367
12240W        W84588  40.495  15.637   0.903
12241W        W84589  28.953  22.599  13.344
12242W        W84590   0.343  11.731  12.091
12243W        W84591   4.234  34.027  12.401
12244W        W84592   0.765  35.098  13.852
12245W        W84593  23.546   8.376  11.018
12246W        W84594  26.086  14.797   2.750
12247W        W84595  31.495  37.024   1.385
12248W        W84596   0.896  10.749  14.472
12249W        W84597  33.599   9.806  12.922
12250W        W84598  38.964  14.803   3.659
12251W        W84599  24.526  44.857  13.943
12252W        W84600  23.705   8.182  14.377
12253W        W84601  19.249  19.206  12.969
12254W        W84602  18.763  38.045   0.298
12255W        W84603   0.426  27.017  11.511
12256W        W84604  40.346  37.035   3.302
12257W        W84605  43.376   6.842   3.721
12258W        W84606  41.426  29.520  14.388
12259W        W84607   3.426  26.631   0.869
12260W        W84608  32.429  15.642  13.414
12261W        W84609  39.421  13.623  13.501
12262W        W84610  17.084   5.747  11.096
12263W        W84611  23.568  30.120  12.863
12264W        W84612  35.577  16.701   0.379
12265W        W84613  38.972  44.886  12.424
12266W        W84614   4.942   7.899  14.306
12267W        W84615  44.789  14.717   0.932
12268W        W84616  36.452  25.070   9.985
12269W        W84617  36.093  10.278  10.441
12270W        W84618  10.379  43.889  14.802
12271W        W84619  26.612  41.890   4.341
12272W        W84620  25.215   0.853  11.528
12273W        W84621  25.481  44.379  11.371
12274W        W84622   7.781  31.544  11.906
12275W        W84623  20.683  19.115  13.836
12276W        W84624  15.765  39.937   3.319
12277W        W84625  23.508  21.075   3.826
12278W        W84626  30.059   5.861  12.426
12279W        W84627  34.010   8.864   0.845
12280W        W84628  35.565  29.162   3.266
12281W        W84629   5.760  42.012  12.348
12282W        W84630  22.617  34.059   0.273
12283W        W84631   0.464  40.425  14.864
12284W        W84632   7.670  36.048   2.411
12285W        W84633  17.693  31.065  13.402
12286W        W84634  32.926  37.941   9.452
12287W        W84635  20.230  21.232  10.095
12288W        W84636   8.804  21.529   2.418
12289W        W84637  31.466  12.755   0.909
12290W        W84638   8.901  16.295  12.952
12291W        W84639  30.992  33.070   2.768
12292W        W84640   1.964  42.361  11.486
12293W        W84641  24.073  39.331   1.809
12294W        W84642  11.830  37.410  11.466
12295W        W84643   7.790  29.582   0.354
12296W        W84644  28.540  14.245   2.832
12297W        W84645   0.247  16.179  10.978
12298W        W84646   1.881  25.166  14.417
12299W        W84647  18.654  33.883   1.812
12300W        W84648   8.339  38.031  12.873
12301W        W84649  42.403   2.743   4.709
12302W        W84650   4.257   5.791  11.520
12303W        W84651   7.378  41.845   3.806
12304W        W84652  20.643  29.960   5.140
12305W        W84653  18.567  16.309  10.480
12306W        W84654  41.390  30.093  13.433
12307W        W84655  31.997  28.969   0.945
12308W        W84656  23.137  37.498  11.559
12309W        W84657   9.153  34.534  13.364
12310W        W84658  35.921  20.665  11.061
12311W        W84659   4.715   1.343  12.548
12312W        W84660  40.449  16.659  14.777
12313W        W84661  32.423  18.711  10.562
12314W        W84662  14.632   4.715  11.994
12315W        W84663  32.445  44.788   4.132
12316W        W84664  41.319  36.430   3.746
12317W        W84665   3.416  28.027  13.494
12318W        W84666   2.787  38.530   3.331
12319W        W84667  26.065  30.137   3.315
12320W        W84668  21.750  40.021  11.473
12321W        W84669   4.432  35.541   3.656
12322W        W84670  27.580  10.733   3.844
12323W        W84671  35.586  39.464  13.801
12324W        W84672  35.528  38.036   1.213
12325W        W84673  17.118  14.242   3.859
12326W        W84674  40.827  29.990  13.329
12327W        W84675   7.416   8.884   0.746
12328W        W84676  40.841   4.284  11.426
12329W        W84677  10.763  32.095   2.863
12330W        W84678  20.123   1.333   2.771
12331W        W84679   1.889  43.014   0.399
12332W        W84680  18.077  33.127  14.427
12333W        W84681  33.553  28.110   0.809
12334W        W84682   6.275   3.929  14.765
12335W        W84683   7.888   0.368  11.011
12336W        W84684   8.170  26.670  10.514
12337W        W84685  19.285  37.877   2.740
12338W        W84686  20.702   3.372  11.118
12339W        W84687  23.527  23.561   0.354
12340W        W84688  44.969  12.345  14.975
12341W        W84689  44.959  10.687   4.798
12342W        W84690  16.219  39.867   3.675
12343W        W84691   5.387   3.441   3.639
12344W        W84692   3.319  28.644  14.798
12345W        W84693  12.646  21.520   0.822
12346W        W84694   8.175  35.083  12.069
12347W        W84695  38.973  28.615   2.215
12348W        W84696  28.185   1.967  13.311
12349W        W84697  33.601  41.311  14.351
12350W        W84698  41.291  31.474   2.371
12351W        W84699  32.108  22.182  10.108
12352W        W84700  37.960  32.048  14.392
12353W        W84701  29.561  10.199  10.623
12354W        W84702   6.403  29.517  13.496
12355W        W84703  21.179  19.100   1.809
12356W        W84704   8.804  11.205  11.097
12357W        W84705  28.110  28.479   1.931
12358W        W84706  11.810  10.374   4.785
12359W        W84707  39.011  36.059  13.904
12360W        W84708  26.100   5.336   4.352
12361W        W84709  27.660   6.714  11.859
12362W        W84710  18.652  10.744   3.767
12363W        W84711  26.135  18.076  12.354
12364W        W84712  26.594  20.761  12.942
12365W        W84713  42.300   1.883   3.366
12366W        W84714  34.574  37.978  11.106
12367W        W84715  33.584  34.502  10.124
12368W        W84716  24.539  16.574  11.591
12369W        W84717  40.951   7.839   0.746
12370W        W84718  23.169  39.033  12.865
12371W        W84719  22.606  21.212  12.034
12372W        W84720  11.744  10.867  12.471
12373W        W84721  36.530   8.394   4.225
12374W        W84722  17.787  43.458  13.485
12375W        W84723  30.608   3.848   4.603
12376W        W84724   3.757  24.073   2.881
12377W        W84725  28.658  23.130  11.490
12378W        W84726  12.702  27.658  11.515
12379W        W84727  39.403   6.311  13.322
12380W        W84728  23.534  12.812   4.690
12381W        W84729  17.557  16.712   4.192
12382W        W84730   7.831  20.187   4.318
12383W        W84731  36.440  12.675  14.026
12384W        W84732   0.793  32.607   1.308
12385W        W84733  32.974   4.224   1.274
12386W        W84734  41.947  36.086   4.702
12387W        W84735  13.264   3.788  13.991
12388W        W84736  41.441  27.145  12.009
12389W        W84737  26.145   8.753  12.031
12390W        W84738  43.443  24.030   2.401
12391W        W84739  11.644  20.157   3.172
12392W        W84740  12.282  35.375  14.465
12393W        W84741   8.277  38.970  13.822
12394W        W84742  25.125   0.823  10.548
12395W        W84743  33.609  39.892   4.613
12396W        W84744  34.476  39.922  12.438
12397W        W84745   2.804  29.449  11.903
12398W        W84746  34.588  44.295   1.934
12399W        W84747  32.137  33.480   2.771
12400W        W84748  28.122  19.675   1.226
12401W        W84749  28.978  27.105   2.783
12402W        W84750  37.831  18.264  13.793
12403W        W84751  34.532  38.414   0.837
12404W        W84752   2.245  42.791   4.279
12405W        W84753  24.725  22.134   1.318
12406W        W84754  28.541  15.644  14.294
12407W        W84755  11.632   0.797   1.759
12408W        W84756  35.578  29.100  12.360
12409W        W84757  25.211  37.896   2.355
12410W        W84758  10.825  28.601  11.087
12411W        W84759  43.964   3.418  10.443
12412W        W84760  43.321   7.894   1.893
12413W        W84761  20.641   1.935  14.300
12414W        W84762   8.882  12.819  14.319
12415W        W84763  42.856  31.015  11.474
12416W        W84764  23.110  23.116  11.855
12417W        W84765  18.236  14.670  10.524
12418W        W84766   0.813  39.973  14.025
12419W        W84767  20.272  15.627  11.559
12420W        W84768  28.662  40.845  10.979
12421W        W84769  25.581  16.265  13.868
12422W        W84770  21.621  15.299   0.392
12423W        W84771  22.172  33.453  12.989
12424W        W84772  41.308   6.260  10.601
12425W        W84773  30.918   4.731  11.989
12426W        W84774  29.118  44.968   4.206
12427W        W84775  26.498  34.388  14.278
12428W        W84776  40.334  13.760   2.250
12429W        W84777   6.387  39.369   3.789
12430W        W84778  33.449  35.061   0.857
12431W        W84779  42.877  38.059   4.735
12432W        W84780  24.070  18.092   1.848
12433W        W84781  33.468  24.701   0.860
12434W        W84782  25.189   7.342  11.512
12435W        W84783   5.380  36.997  12.028
12436W        W84784  12.232   2.341  14.783
12437W        W84785  11.670  27.537  14.816
12438W        W84786  44.331  19.567   4.264
12439W        W84787   3.442  39.851  14.377
12440W        W84788  38.855   2.958   3.154
12441W        W84789  34.892  30.480   1.223
12442W        W84790  19.127  14.143  14.350
12443W        W84791  33.466  33.926  14.287
12444W        W84792  39.380  36.434   3.259
12445W        W84793  24.139  34.967   2.208
12446W        W84794  16.263  29.935  14.433
12447W        W84795  31.120  26.531   5.097
12448W        W84796  19.223   1.385   1.378
12449W        W84797  33.925  28.063   1.436
12450W        W84798   9.265  44.935   0.395
12451W        W84799  12.270  12.776   4.814
12452W        W84800  12.726   6.416   0.356
12453W        W84801  41.801  20.215  12.480
12454W        W84802   3.891  27.547  12.851
12455W        W84803  30.456  23.193  14.349
12456W        W84804  37.472  28.109   3.208
12457W        W84805  19.656  18.216   4.822
12458W        W84806   7.849  16.599   2.745
12459W        W84807  44.317  19.594  13.970
12460W        W84808  12.807  38.552  13.440
12461W        W84809  21.070  43.341  13.316
12462W        W84810   7.332  41.407  10.472
12463W        W84811  21.062  23.044  13.823
12464W        W84812   5.933   2.380  13.057
12465W        W84813  44.857   7.295   2.347
12466W        W84814  34.034  10.261  13.971
12467W        W84815   3.946  21.033  12.909
12468W        W84816  26.543  25.074   0.782
12469W        W84817  27.540  41.848  11.089
12470W        W84818   0.373  41.328  12.007
12471W        W84819  43.420  25.504  12.552
12472W        W84820  35.977  24.029   2.376
12473W        W84821   0.785   4.835  14.287
12474W        W84822  31.127  38.047   2.361
12475W        W84823  21.028  37.891  11.556
12476W        W84824   3.415  14.831   4.234
12477W        W84825  19.761  41.008  14.005
12478W        W84826  26.206   8.179  12.526
12479W        W84827  11.320  12.294   0.254
12480W        W84828  18.694  12.332  12.853
12481W        W84829  35.603  37.033  13.864
12482W        W84830  41.440  11.641  13.041
12483W        W84831  43.916   5.253  10.595
12484W        W84832   6.346  40.991   3.148
12485W        W84833  15.645  21.653  11.583
12486W        W84834  28.524   4.420  13.939
12487W        W84835  40.430  33.909  13.974
12488W        W84836  36.447  12.805   3.287
12489W        W84837  16.713  11.369   2.400
12490W        W84838  17.208  28.167  11.863
12491W        W84839  40.311  23.043  14.760
12492W        W84840  24.137  37.401  13.330
12493W        W84841  33.414  18.179  11.917
12494W        W84842  17.294  23.677  11.457
12495W        W84843  29.080   9.748   1.751
12496W        W84844  40.800  35.092  12.945
12497W        W84845  15.673  35.564  10.502
12498W        W84846   3.895   0.931  11.471
12499W        W84847  23.239  21.241  12.886
12500W        W84848  34.588  42.359  14.976
12501W        W84849   6.254  30.556   0.739
12502W        W84850  15.147  22.202   1.332
12503W        W84851  10.666   3.819  13.465
12504W        W84852   6.211   0.838  13.884
12505W        W84853   7.288  10.744  14.918
12506W        W84854   3.436   9.294   1.376
12507W        W84855  39.550  34.876  11.445
12508W        W84856  24.078  43.322  13.904
12509W        W84857  43.832  10.197  10.487
12510W        W84858  28.489  21.189  10.993
12511W        W84859  28.029  33.381   3.303
12512W        W84860  29.505  19.570   0.246
12513W        W84861  44.499  24.586   0.961
12514W        W84862  37.924   8.846  14.759
12515W        W84863   5.843   5.381   4.286
12516W        W84864  20.094  36.397  13.799
12517W        W84865  35.387   9.300   1.864
12518W        W84866  12.853   9.367   0.839
12519W        W84867  17.127   0.268  13.815
12520W        W84868  15.789  20.623   3.780
12521W        W84869  29.135   5.359  12.385
12522W        W84870  43.271   4.698  11.937
12523W        W84871  41.455   3.921   2.831
12524W        W84872  27.472  10.325   3.657
12525W        W84873  12.298  20.728  10.982
12526W        W84874   9.165  25.478  14.934
12527W        W84875  43.880  33.429  12.024
12528W        W84876  23.051  43.768  14.809
12529W        W84877  37.504  22.154  11.591
12530W        W84878   3.716  25.544  11.381
12531W        W84879  26.517  28.641  11.957
12532W        W84880   1.263   6.246  14.783
12533W        W84881  30.953  14.149   1.814
12534W        W84882   1.817  38.988  11.582
12535W        W84883  20.034   8.701  14.807
12536W        W84884  30.614  22.057  12.827
12537W        W84885  37.855  40.394  14.494
12538W        W84886  15.802  23.156  14.800
12539W        W84887  29.046  17.634  13.842
12540W        W84888  16.236  22.186   0.882
12541W        W84889  11.207   8.348  12.496
12542W        W84890  40.322  32.136  11.486
12543W        W84891  44.787  44.369   3.153
12544W        W84892  16.812  24.558   1.348
12545W        W84893  12.153  24.546  13.514
12546W        W84894  34.435  34.480  12.998
12547W        W84895  11.868  29.080  11.476
12548W        W84896  42.785  40.315   3.290
12549W        W84897   7.323  41.882   4.654
12550W        W84898  29.002   3.439   3.156
12551W        W84899  22.608  11.667   0.397
12552W        W84900   8.264  31.122   2.670
12553W        W84901  38.474  32.482  13.443
12554W        W84902  19.171  26.610   3.777
12555W        W84903  32.104  25.969   3.868
12556W        W84904  15.803  15.097   5.091
12557W        W84905   7.841  19.252  11.378
12558W        W84906   8.713  25.976  12.997
12559W        W84907  35.429  20.096   1.894
12560W        W84908   6.920   7.832  11.935
12561W        W84909   2.330   8.364  14.895
12562W        W84910  20.719  25.676   3.382
12563W        W84911  35.591  41.505  12.900
12564W        W84912   6.753   6.915   2.860
12565W        W84913  16.662   3.246   4.263
12566W        W84914  39.354  22.135   1.871
12567W        W84915  19.206  23.097   3.870
12568W        W84916   8.216   3.377   1.231
12569W        W84917  13.270  37.563   3.641
12570W        W84918  10.298  34.469   0.789
12571W        W84919   5.693   1.292   2.229
12572W        W84920  41.968   5.902   0.269
12573W        W84921   3.942  14.275   2.856
12574W        W84922  42.500  16.649   4.184
12575W        W84923  34.568  33.403   1.257
12576W        W84924  12.298   1.796  11.405
12577W        W84925   5.380  37.870   0.245
12578W        W84926  43.787  21.038   5.096
12579W        W84927   5.380  11.863  12.054
12580W        W84928   3.432  32.046   1.756
12581W        W84929   0.321   8.876  13.833
12582W        W84930  39.832  27.649   3.810
12583W        W84931  34.047  29.477  10.461
12584W        W84932  25.534   4.409   3.813
12585W        W84933   1.818  41.829  14.438
12586W        W84934  40.316  41.976   3.695
12587W        W84935   6.813  18.262   0.260
12588W        W84936  10.210  13.285   1.296
12589W        W84937  41.814  30.110  12.365
12590W        W84938  10.673  22.550   2.775
12591W        W84939  16.720   9.155  13.816
12592W        W84940   2.917  18.189   1.810
12593W        W84941  34.013  42.475   4.278
12594W        W84942  35.481   2.253  12.906
12595W        W84943  36.561  32.997   2.768
12596W        W84944  35.065   0.272   0.789
12597W        W84945  34.907  30.982   1.435
12598W        W84946  33.082  42.336   1.799
12599W        W84947   7.749   4.363  12.505
12600W        W84948  11.300  36.533  13.362
12601W        W84949  17.273  14.216  10.906
12602W        W84950  21.638  39.413  14.485
12603W        W84951   6.713   7.286  12.885
12604W        W84952   6.921  18.261   2.371
12605W        W84953  26.199  37.852   1.861
12606W        W84954  32.513  44.391   0.855
12607W        W84955  19.674  26.552  13.880
12608W        W84956  43.829   1.413  13.484
12609W        W84957  16.772  10.346   0.290
12610W        W84958  43.868  37.453   4.699
12611W        W84959  27.508  25.534   0.805
12612W        W84960  16.704  11.692   4.195
12613W        W84961  26.600  36.458  11.901
12614W        W84962   7.407  28.497  12.534
12615W        W84963   6.824  29.093  12.571
12616W        W84964  42.426  23.103  12.958
12617W        W84965  17.165   6.301   1.389
12618W        W84966  10.837  31.634   0.378
12619W        W84967   5.410  30.510   3.338
12620W        W84968  15.753  42.423   0.922
12621W        W84969   8.177  25.621   0.482
12622W        W84970  11.806  14.600   4.628
12623W        W84971   7.405  32.510   2.223
12624W        W84972  24.226   2.720  10.615
12625W        W84973  37.853  24.518   3.339
12626W        W84974   8.341  33.518  12.943
12627W        W84975   4.741  14.834  11.879
12628W        W84976  14.125  41.983  11.083
12629W        W84977  40.492  36.016  12.983
12630W        W84978  29.597  40.333  12.064
12631W        W84979  20.051  27.658  11.541
12632W        W84980  25.043  15.657  14.453
12633W        W84981  14.221  21.602   0.338
12634W        W84982  38.455   9.171   4.256
12635W        W84983   6.682  24.023  14.924
12636W        W84984  44.904  40.843   2.361
12637W        W84985   6.183  12.331   1.778
12638W        W84986  21.057  43.802  13.918
12639W        W84987  44.277  18.661   1.723
12640W        W84988  25.659  25.663   1.250
12641W        W84989  35.055   8.183   2.899
12642W        W84990  19.280  31.406   9.672
12643W        W84991  27.167  43.868  13.846
12644W        W84992  25.614  19.143  13.812
12645W        W84993  21.586   3.239   1.731
12646W        W84994   3.714  31.505   3.859
12647W        W84995   3.811  11.868   3.801
12648W        W84996   5.285   9.689   3.259
12649W        W84997  28.614  42.472  11.008
12650W        W84998   6.394  15.723   4.293
12651W        W84999   6.696   6.389  10.552
12652W        W85000   3.414  35.989   4.219
12653W        W85001   7.206  24.998  13.955
12654W        W85002  30.544   2.400   1.269
12655W        W85003  18.590  38.055  14.862
12656W        W85004  31.108  36.085   5.777
12657W        W85005  32.022   8.712  11.453
12658W        W85006  33.484  37.382   2.711
12659W        W85007  44.455   4.866   1.434
12660W        W85008   8.249  34.986  13.415
12661W        W85009  12.330  19.212  12.564
12662W        W85010  41.014  33.409  12.832
12663W        W85011   5.349  35.569   3.313
12664W        W85012   1.364  14.117   0.348
12665W        W85013  43.352  16.286   3.316
12666W        W85014  39.400  32.966   3.762
12667W        W85015  26.678  32.079  13.806
12668W        W85016   3.333  22.234   2.323
12669W        W85017  17.236  42.374  14.009
12670W        W85018  40.548  43.392  11.607
12671W        W85019  22.615  27.949   4.251
12672W        W85020  25.167   2.815  14.466
12673W        W85021   3.254  10.154   4.763
12674W        W85022  32.570  11.839  12.941
12675W        W85023   7.368  21.105   3.355
12676W        W85024  35.908   1.832  10.501
12677W        W85025   4.409  28.436   3.333
12678W        W85026  32.930  25.173   3.381
12679W        W85027  19.678  25.574   3.701
12680W        W85028  10.636   3.735   4.702
12681W        W85029  36.464   6.881  11.964
12682W        W85030  32.946   2.391  11.990
12683W        W85031   3.255   0.745   2.768
12684W        W85032   7.769  40.549   3.157
12685W        W85033  25.706  23.236   1.832
12686W        W85034  36.501  18.590  11.113
12687W        W85035  44.482  19.133   3.262
12688W        W85036  27.002  20.756   2.746
12689W        W85037  19.710  17.118   3.212
12690W        W85038  42.782  41.802   0.465
12691W        W85039   6.761  33.043  14.419
12692W        W85040  15.230   6.334   4.680
12693W        W85041  12.845  24.062   0.899
12694W        W85042  36.876   4.401  10.051
12695W        W85043  33.006  41.427  11.562
12696W        W85044   0.462  12.755   2.358
12697W        W85045  11.139  36.019   4.140
12698W        W85046  10.179  21.517   2.677
12699W        W85047   3.771  43.414   4.295
12700W        W85048   6.762   8.259  13.322
12701W        W85049  25.124  27.152   1.853
12702W        W85050  33.503  10.333   0.758
12703W        W85051  37.388  41.408  10.973
12704W        W85052  36.514  40.010   3.807
12705W        W85053  20.719  20.068   3.282
12706W        W85054  11.827  19.060   2.809
12707W        W85055  29.487   3.727  10.452
12708W        W85056   5.244  33.407   3.632
12709W        W85057  24.169  21.549   2.395
12710W        W85058  13.108  16.667   3.151
12711W        W85059  18.671  14.301  12.379
12712W        W85060  32.138  34.490   2.240
12713W        W85061   4.807   0.854  14.333
12714W        W85062  26.074  24.656   2.246
12715W        W85063  39.383  43.324   2.316
12716W        W85064  25.537  28.053  10.602
12717W        W85065  23.703  35.104   2.353
12718W        W85066  27.622  33.476   1.328
12719W        W85067  38.946  44.949  14.334
12720W        W85068  35.494  22.605   4.238
12721W        W85069  22.694  40.379  10.943
12722W        W85070  42.806  34.476  10.542
12723W        W85071  26.608   1.737  12.046
12724W        W85072  35.445  43.347   0.818
12725W        W85073  10.196   0.945   2.279
12726W        W85074  18.057  42.469   4.226
12727W        W85075  35.596  20.635   9.548
12728W        W85076  22.607  22.614   1.756
12729W        W85077  44.396  31.127   1.869
12730W        W85078  14.798  40.373  13.051
12731W        W85079  31.432  10.874  14.844
12732W        W85080   9.170  17.737  12.856
12733W        W85081  13.194  10.639   4.762
12734W        W85082  11.799  38.416  14.431
12735W        W85083  28.542  29.481  14.499
12736W        W85084  39.480  26.680   3.676
12737W        W85085  33.910  26.641   3.355
12738W        W85086  23.612   0.815  12.976
12739W        W85087   6.428   8.668  13.962
12740W        W85088  35.940  17.239  10.609
12741W        W85089  15.159  18.106  10.964
12742W        W85090   9.656  28.516  14.394
12743W        W85091  30.135   9.268   2.380
12744W        W85092  20.544  44.489  10.091
12745W        W85093  12.737  31.524   2.844
12746W        W85094  40.508  39.378   4.247
12747W        W85095  44.404   2.847  11.106
12748W        W85096  32.627  36.060  13.987
12749W        W85097  36.522  11.631  11.048
12750W        W85098  10.869  34.871   3.383
12751W        W85099  44.358  22.014  10.905
12752W        W85100  28.941  30.490  14.775
12753W        W85101  22.224   5.253  13.529
12754W        W85102  34.049   8.835  13.520
12755W        W85103  28.636   4.827  14.421
12756W        W85104  33.397  22.629  13.470
12757W        W85105   0.883  38.331  12.947
12758W        W85106  34.434  34.542  10.424
12759W        W85107  17.762   6.756  13.893
12760W        W85108  29.454  17.262  13.456
12761W        W85109  18.778  37.353   1.862
12762W        W85110  19.573  14.324   4.309
12763W        W85111  35.590   1.408   1.433
12764W        W85112  12.659  41.854  10.543
12765W        W85113  19.730  32.070  13.394
12766W        W85114  29.993  37.978   1.860
12767W        W85115  43.439  23.661   3.284
12768W        W85116   1.406  22.563   4.206
12769W        W85117   4.813  18.768   3.246
12770W        W85118  44.784  17.618  12.366
12771W        W85119  11.661  17.207  11.523
12772W        W85120  24.069  37.873   1.278
12773W        W85121  25.617  14.152  13.815
12774W        W85122  30.147  16.074   1.742
12775W        W85123  19.555  21.087  11.985
12776W        W85124  30.120  38.941   3.771
12777W        W85125   2.739  17.126  12.045
12778W        W85126  15.315  29.114  13.045
12779W        W85127  38.922  12.772   0.314
12780W        W85128  42.465  43.968   1.330
12781W        W85129  29.121  20.083  10.409
12782W        W85130  35.401  27.555  14.322
12783W        W85131  12.666   3.890  12.089
12784W        W85132   5.391  18.148  13.363
12785W        W85133  32.476  35.390   0.899
12786W        W85134  27.679  30.943  10.888
12787W        W85135  40.331  18.655  13.459
12788W        W85136  32.503   7.224   1.797
12789W        W85137   9.746  43.893  11.372
12790W        W85138   3.903  29.494   4.694
12791W        W85139  15.758  42.928  13.903
12792W        W85140  41.354  26.153  14.411
12793W        W85141  23.521  38.513   1.781
12794W        W85142  11.237  23.043  13.009
12795W        W85143   7.827  24.227  13.927
12796W        W85144  18.292   1.888  12.023
12797W        W85145  18.072  13.132   1.871
12798W        W85146  37.338   7.274  14.822
12799W        W85147   1.285  12.620   2.251
12800W        W85148  20.586   3.387   4.836
12801W        W85149  42.796  36.932  13.027
12802W        W85150  27.615  39.449   3.853
12803W        W85151  38.981  30.967   2.752
12804W        W85152  29.078   1.966  12.866
12805W        W85153  10.700  38.984  13.421
12806W        W85154   8.290  27.168  13.949
12807W        W85155  20.708  31.597   0.307
12808W        W85156  16.634  23.608  13.010
12809W        W85157  15.730   5.844   1.222
12810W        W85158  44.349  33.053   3.191
12811W        W85159  38.867  39.431   2.271
12812W        W85160  27.527  22.649  13.831
12813W        W85161  26.009  10.328   0.853
12814W        W85162  19.733  14.748  13.858
12815W        W85163   1.362  39.387   4.287
12816W        W85164  11.853   0.930   4.174
12817W        W85165  16.090  41.926   2.845
12818W        W85166   2.403   8.170  13.381
12819W        W85167  34.102   2.432   2.788
12820W        W85168   2.472  13.684   4.238
12821W        W85169  30.105   4.865   2.846
12822W        W85170  32.629  10.302  10.065
12823W        W85171  15.175  18.245  11.525
12824W        W85172   0.363  43.893  11.000
12825W        W85173  21.592  43.360   0.403
12826W        W85174  22.519  22.663   3.238
12827W        W85175  41.809  34.946   1.806
12828W        W85176  36.365  10.329  12.035
12829W        W85177  24.042  32.993   3.206
12830W        W85178  11.706  16.133  10.930
12831W        W85179   5.362  30.482  12.545
12832W        W85180  24.654  40.893  10.613
12833W        W85181   0.393  11.783   4.179
12834W        W85182   2.351  32.550   1.775
12835W        W85183  10.206  16.251  13.537
12836W        W85184  12.312   7.792   9.958
12837W        W85185   4.848  25.557  14.385
12838W        W85186   4.936  26.606   0.900
12839W        W85187  25.511  44.872   2.849
12840W        W85188   5.305   7.323   4.712
12841W        W85189  15.209  25.627   1.359
12842W        W85190  31.422  23.598   1.446
12843W        W85191  38.962   5.915  13.365
12844W        W85192  37.962   5.333  12.013
12845W        W85193  28.178   7.737  10.480
12846W        W85194  39.386  44.954  14.811
12847W        W85195  41.028  40.999  12.401
12848W        W85196  11.199  32.474   3.818
12849W        W85197  12.182  33.606   4.221
12850W        W85198  31.464  31.034  13.883
12851W        W85199  26.600  14.665   2.798
12852W        W85200   0.432  13.692  10.908
12853W        W85201  31.545  27.609  10.450
12854W        W85202  15.658  34.898  12.495
12855W        W85203  23.607  35.464  14.008
12856W        W85204  26.197  28.128   3.361
12857W        W85205   1.415  43.979   3.809
12858W        W85206  42.939  19.121   0.961
12859W        W85207  19.694  34.084   2.815
12860W        W85208  33.424  16.705   2.381
12861W        W85209  37.991  30.453  10.568
12862W        W85210  29.126  15.742  11.382
12863W        W85211  18.147  25.152   1.742
12864W        W85212  33.479  16.127   4.273
12865W        W85213   3.285   0.768  13.955
12866W        W85214  19.774   8.782  14.362
12867W        W85215  11.164  16.237   1.356
12868W        W85216  30.085  42.459  11.476
12869W        W85217  31.094  36.094  12.963
12870W        W85218  43.443   7.207   2.784
12871W        W85219  29.086  43.341   4.768
12872W        W85220   2.467   1.857  11.423
12873W        W85221  31.065  29.057   0.442
12874W        W85222  43.387  12.769   2.692
12875W        W85223  43.981   4.423   4.827
12876W        W85224  18.607  14.830   1.920
12877W        W85225   7.697   6.308  14.465
12878W        W85226   5.856  29.562   0.945
12879W        W85227  28.975  39.994   2.343
12880W        W85228   8.168  23.589  13.900
12881W        W85229  33.424  12.751   0.363
12882W        W85230  42.302  30.933  11.412
12883W        W85231   6.322  31.441  14.466
12884W        W85232  25.204  36.083   2.743
12885W        W85233  38.891  10.149  14.321
12886W        W85234  21.588  36.000  12.978
12887W        W85235  35.497  31.622   1.842
12888W        W85236  27.018  24.181   3.866
12889W        W85237  25.193  12.201  12.874
12890W        W85238  39.336   4.776   9.945
12891W        W85239  14.249  38.981  10.465
12892W        W85240  41.881  43.375   1.815
12893W        W85241  43.484  27.137   1.338
12894W        W85242  11.715  21.088  12.913
12895W        W85243  15.641  14.719  14.766
12896W        W85244  30.566  22.187  14.379
12897W        W85245  24.152  37.448  13.872
12898W        W85246  26.685  44.851   3.355
12899W        W85247  41.828  35.964  14.799
12900W        W85248  33.945   4.863  14.900
12901W        W85249   1.254   5.270   4.278
12902W        W85250  11.167  16.072   0.395
12903W        W85251   7.269  31.515  12.580
12904W        W85252  39.013   6.722   1.217
12905W        W85253  30.576  16.130  12.932
12906W        W85254  25.086  23.543  13.925
12907W        W85255   5.869  31.510   0.432
12908W        W85256  34.389   5.879   2.691
12909W        W85257  18.626   6.816  10.631
12910W        W85258  33.611   2.822  10.565
12911W        W85259  43.860  16.648  11.541
12912W        W85260  43.412  10.843   2.310
12913W        W85261  35.873  27.477  11.101
12914W        W85262   8.242  31.594   3.851
12915W        W85263  35.002  24.178   4.607
12916W        W85264  26.680  42.833  13.826
12917W        W85265  41.911  10.237  12.069
12918W        W85266   0.259  35.375   3.760
12919W        W85267  24.118  27.471  11.931
12920W        W85268  31.446   3.782  12.385
12921W        W85269  27.642  40.009  11.044
12922W        W85270  28.482  33.895  13.841
12923W        W85271  26.595   9.264  12.438
12924W        W85272  43.381  35.092   0.797
12925W        W85273   7.880  27.123  10.957
12926W        W85274  39.391  17.793   2.765
12927W        W85275   2.743  21.188  12.094
12928W        W85276  10.381  16.681  13.956
12929W        W85277   4.746   6.887  12.826
12930W        W85278  20.630  33.109  11.402
12931W        W85279  36.849  20.582   1.284
12932W        W85280  37.488  29.013   1.408
12933W        W85281  41.307  12.821   2.378
12934W        W85282  17.183  37.087  10.907
12935W        W85283   5.793  31.971   2.270
12936W        W85284  25.689  22.736   1.772
12937W        W85285  36.098  11.227  13.853
12938W        W85286  14.158   6.337  10.930
12939W        W85287  40.865   9.650   4.621
12940W        W85288   2.876   4.940  11.922
12941W        W85289  37.064  25.604   0.448
12942W        W85290   8.323  24.720  13.060
12943W        W85291  30.433  30.920  13.916
12944W        W85292  13.278  43.009  14.282
12945W        W85293  40.479   5.355  13.407
12946W        W85294  29.570  16.770  14.768
12947W        W85295   9.714   6.373  13.894
12948W        W85296  19.732  38.508   4.223
12949W        W85297  38.350  20.070  14.456
12950W        W85298   6.323   1.480  10.641
12951W        W85299  39.530  29.649   4.650
12952W        W85300  20.036  34.015  11.386
12953W        W85301  24.598  23.161  13.384
12954W        W85302  39.491  15.669  13.501
12955W        W85303  12.311  21.664  11.430
12956W        W85304  21.242  39.040   5.209
12957W        W85305  19.721  24.047  11.437
12958W        W85306   5.706  42.976  11.447
12959W        W85307  19.593  28.040  11.937
12960W        W85308  27.504  22.185  12.907
12961W        W85309  31.606  16.234  11.591
12962W        W85310  25.176  35.076  13.963
12963W        W85311  42.499   5.821  12.404
12964W        W85312  34.047  28.595  14.874
12965W        W85313  30.069  22.995   1.767
12966W        W85314  38.835  16.113  10.448
12967W        W85315  17.289  34.371   3.801
12968W        W85316  25.510   4.804   0.319
12969W        W85317  18.175   0.759  14.358
12970W        W85318   4.248   6.706   0.347
12971W        W85319   2.465   5.819   1.806
12972W        W85320  34.020  31.011   1.724
12973W        W85321   3.311  19.645   2.879
12974W        W85322  12.846  16.813  10.899
12975W        W85323  20.128  38.890  10.486
12976W        W85324  19.609  18.785   4.734
12977W        W85325  29.512  15.258  13.501
12978W        W85326  13.761  43.838   0.454
12979W        W85327  24.179   1.846  13.392
12980W        W85328  24.711  25.578   1.425
12981W        W85329  30.615  28.511   3.751
12982W        W85330  42.973   8.662   4.280
12983W        W85331  26.180   8.697   0.883
12984W        W85332   7.255  13.209  13.860
12985W        W85333   7.811  16.094   0.888
12986W        W85334  19.220   1.747   1.274
12987W        W85335  33.435  31.908   2.668
12988W        W85336  29.010  19.103  10.440
12989W        W85337  21.742   8.309  13.856
12990W        W85338  28.529   3.454  14.954
12991W        W85339  21.605  31.585  13.908
12992W        W85340  16.265  24.639  12.570
12993W        W85341  14.321  38.916  13.489
12994W        W85342   6.354   7.256   3.658
12995W        W85343  23.706  29.166   0.426
12996W        W85344  38.553  22.249  14.783
12997W        W85345  34.041   6.196   2.897
12998W        W85346  10.706  20.092   2.304
12999W        W85347   8.838   2.414  13.911
13000W        W85348  23.009  21.519   0.890
13001W        W85349  21.756  37.464   5.113
13002W        W85350   6.743  42.291  13.395
13003W        W85351  22.534  13.793  12.941
13004W        W85352  35.386   0.286  14.992
13005W        W85353  25.200   2.864  13.329
13006W        W85354  30.636  38.446  14.909
13007W        W85355  38.863  17.617   4.611
13008W        W85356  34.067  37.831   2.378
13009W        W85357  21.546  38.443  11.563
13010W        W85358  35.085  12.126  13.914
13011W        W85359  24.016  29.923  14.463
13012W        W85360  19.237  22.075  13.035
13013W        W85361  41.467  14.806  11.959
13014W        W85362   1.247   9.784  10.916
13015W        W85363  44.466  28.174  12.879
13016W        W85364  28.949   7.813   1.332
13017W        W85365  36.526  10.655  14.448
13018W        W85366  33.096  13.109  10.423
13019W        W85367  27.569  43.431  14.818
13020W        W85368  37.440   1.813   2.337
13021W        W85369  23.215  12.746   2.747
13022W        W85370  26.651  29.151  12.425
13023W        W85371   0.334  34.937  12.508
13024W        W85372  42.383  31.065   3.282
13025W        W85373  17.644  12.273  11.417
13026W        W85374  22.067  34.601   1.230
13027W        W85375  11.666  42.374   4.165
13028W        W85376  23.991  18.619   2.741
13029W        W85377   6.769  34.034   3.780
13030W        W85378  32.415   8.847   3.268
13031W        W85379  21.523  11.243  11.955
13032W        W85380  44.486  14.318   5.204
13033W        W85381  16.658   9.887   0.837
13034W        W85382  23.041  19.699   1.774
13035W        W85383  32.498  19.197  11.030
13036W        W85384  28.049  15.682   3.850
13037W        W85385  19.101  28.592   3.795
13038W        W85386   7.318  28.133   2.214
13039W        W85387  43.995  17.730  14.359
13040W        W85388  40.388   9.175   1.357
13041W        W85389   2.830  13.305  14.322
13042W        W85390  12.269  25.986   2.202
13043W        W85391   0.255  14.662  13.842
13044W        W85392  28.661  11.748   3.728
13045W        W85393  32.924  38.391  14.894
13046W        W85394  14.780   2.265  13.013
13047W        W85395  33.126  20.760   4.771
13048W        W85396  23.089  21.566   3.317
13049W        W85397  23.007  12.287  12.991
13050W        W85398  11.170  29.935   3.752
13051W        W85399  16.803   3.427  13.842
13052W        W85400  22.645   7.732  10.992
13053W        W85401  10.816   5.695  12.961
13054W        W85402  10.149  25.970   3.203
13055W        W85403  28.018  25.630   4.601
13056W        W85404  26.028  38.390  12.504
13057W        W85405  42.371  38.884   0.746
13058W        W85406  34.494  13.842   0.728
13059W        W85407  20.178  38.570   2.300
13060W        W85408  36.477   6.391   0.418
13061W        W85409   8.754  32.405   2.772
13062W        W85410   3.870  14.247  12.078
13063W        W85411  21.684  32.529   1.811
13064W        W85412   1.374   8.182  12.892
13065W        W85413  29.655  19.213  14.010
13066W        W85414   6.803   5.401   4.139
13067W        W85415  13.274  22.708  14.891
13068W        W85416  35.089  36.894   4.215
13069W        W85417  32.061  23.725  10.949
13070W        W85418  27.997  36.922   4.162
13071W        W85419  21.046   7.834   0.265
13072W        W85420  16.195  40.920   1.305
13073W        W85421  14.122  38.976  12.562
13074W        W85422   8.751  13.191  13.024
13075W        W85423  24.222  20.206  14.497
13076W        W85424  36.918   9.162  14.861
13077W        W85425   1.299   6.860   1.920
13078W        W85426   0.371  26.512   1.707
13079W        W85427  42.379  23.697  13.798
13080W        W85428  32.484  13.293   4.718
13081W        W85429  11.166  37.972  13.367
13082W        W85430  21.034  25.520  13.863
13083W        W85431  29.485  17.661   1.733
13084W        W85432   2.727  31.117  14.868
13085W        W85433  23.170   1.442  13.019
13086W        W85434  38.900  12.316   1.301
13087W        W85435  24.027   9.148  13.942
13088W        W85436   6.795  39.815   1.823
13089W        W85437  15.155  26.682  13.393
13090W        W85438  36.882   6.317  11.921
13091W        W85439  10.248   0.445   1.901
13092W        W85440  13.127  23.532   3.685
13093W        W85441  39.555  12.280   4.777
13094W        W85442  36.532  21.260  14.763
13095W        W85443  30.025   2.925   3.692
13096W        W85444   0.858  14.105   0.842
13097W        W85445   9.293  35.857   3.735
13098W        W85446  39.358   8.255   4.821
13099W        W85447   0.392  25.967   1.792
13100W        W85448  33.970  26.175  10.934
13101W        W85449   4.730  34.011   2.876
13102W        W85450  42.312  32.446   2.256
13103W        W85451  34.891  10.775  13.497
13104W        W85452  13.716  29.509  14.932
13105W        W85453  25.707   2.359  12.353
13106W        W85454  15.678  34.980  13.845
13107W        W85455   2.949  25.670   4.672
13108W        W85456  25.568  43.017   3.339
13109W        W85457  21.661   3.909  11.015
13110W        W85458  39.419   4.718  11.089
13111W        W85459  12.833   3.863   5.665
13112W        W85460  10.339   1.915  13.856
13113W        W85461  37.471  11.229   0.328
13114W        W85462  31.428  42.945  12.509
13115W        W85463   3.797  26.027  14.471
13116W        W85464  14.661  23.618   4.274
13117W        W85465  43.370  15.240  13.531
13118W        W85466  36.876  27.944  10.503
13119W        W85467  41.314   4.382   0.471
13120W        W85468  27.520  18.674   3.373
13121W        W85469   2.825  24.599   2.408
13122W        W85470  12.811  33.967   1.720
13123W        W85471  38.973  21.619   1.867
13124W        W85472  15.273  14.658  11.116
13125W        W85473  16.078  20.545  12.071
13126W        W85474  36.546  20.269  12.348
13127W        W85475  41.023   7.269   2.840
13128W        W85476  11.284  35.511  14.023
13129W        W85477  12.785   8.229  10.909
13130W        W85478  44.828  44.418  13.903
13131W        W85479   8.872  11.176  12.003
13132W        W85480  38.893  29.071   0.948
13133W        W85481  39.837  17.746   4.141
13134W        W85482   3.838  35.881  13.852
13135W        W85483  40.054  12.219   2.179
13136W        W85484   6.891  13.607  10.585
13137W        W85485  28.174  41.035   0.382
13138W        W85486  17.727  32.570   4.351
13139W        W85487  33.594   0.339  10.892
13140W        W85488  18.125   1.827   1.872
13141W        W85489  16.684  14.722  11.041
13142W        W85490  31.043  23.996   5.248
13143W        W85491   5.346  26.521   1.935
13144W        W85492  26.177  39.467   1.407
13145W        W85493  28.593   8.314   4.113
13146W        W85494  12.726  41.905  12.363
13147W        W85495  42.898  25.565   2.883
13148W        W85496  40.005  43.012  14.934
13149W        W85497  30.515  30.983   1.830
13150W        W85498   4.939  40.435  12.867
13151W        W85499   9.192   7.359   0.726
13152W        W85500  10.675  27.174  11.588
13153W        W85501  23.167  41.014  13.935
13154W        W85502  29.662  14.212   3.833
13155W        W85503  29.164  18.273  11.383
13156W        W85504  39.537  44.284  14.858
13157W        W85505  26.970  28.619  13.523
13158W        W85506   3.856   2.730  11.454
13159W        W85507   4.943  23.147   3.364
13160W        W85508  42.425  18.292  12.939
13161W        W85509  44.001  31.426   4.831
13162W        W85510  26.009  13.234  10.505
13163W        W85511  37.393  41.034   4.662
13164W        W85512  36.878  20.153  12.904
13165W        W85513  41.359  37.470  10.519
13166W        W85514  21.695  39.408  12.920
13167W        W85515   9.849  31.079   1.924
13168W        W85516  29.065  13.611   3.670
13169W        W85517  21.600  34.477   1.842
13170W        W85518   4.770  38.539  10.461
13171W        W85519  16.664  10.300   1.711
13172W        W85520  42.976  42.297   2.354
13173W        W85521   2.955  44.284  12.953
13174W        W85522  18.630  27.953   2.831
13175W        W85523  41.978  15.122  10.958
13176W        W85524  14.193  32.957   1.360
13177W        W85525  34.929  34.594   1.753
13178W        W85526  32.611   4.740  11.606
13179W        W85527  37.985  20.220   0.803
13180W        W85528  22.589  21.223   5.298
13181W        W85529  15.235  33.890   4.170
13182W        W85530  40.495  44.806  10.999
13183W        W85531  26.207   5.789  13.457
13184W        W85532  40.524  31.032  14.498
13185W        W85533  35.009   6.689   2.698
13186W        W85534  10.851  38.340  12.057
13187W        W85535  33.032   8.251  12.358
13188W        W85536   6.255  22.513  11.066
13189W        W85537   4.209  15.806  11.911
13190W        W85538  10.234  16.593   2.686
13191W        W85539  11.762   9.286   4.647
13192W        W85540  25.984  43.467  12.917
13193W        W85541  31.135  40.453   2.689
13194W        W85542  14.689  33.402  10.428
13195W        W85543  42.320  18.276   4.179
13196W        W85544  39.873  26.505  10.571
13197W        W85545  28.046  26.475  11.589
13198W        W85546  19.234   6.730  10.447
13199W        W85547  34.398   2.741  14.845
13200W        W85548  41.441   7.899   0.436
13201W        W85549  11.149   2.376  13.337
13202W        W85550  23.120  27.562  10.598
13203W        W85551  12.663  23.200  12.556
13204W        W85552  19.226   2.758  11.941
13205W        W85553  43.789  34.605  13.503
13206W        W85554  32.943  31.578   1.829
13207W        W85555  14.219  18.117  14.516
13208W        W85556  37.424  12.341   0.336
13209W        W85557  44.340  10.256   0.900
13210W        W85558  37.886  28.033  10.999
13211W        W85559  24.640  18.628  11.413
13212W        W85560  40.867  12.830   4.696
13213W        W85561  39.456  24.980  10.457
13214W        W85562  38.931  43.371  10.003
13215W        W85563  22.077  37.061   3.836
13216W        W85564  30.156  11.771   3.768
13217W        W85565  41.379   6.384   4.623
13218W        W85566  25.638   1.396   2.782
13219W        W85567   6.901  21.575  11.056
13220W        W85568  26.127   2.426  14.468
13221W        W85569  21.547  24.594  12.890
13222W        W85570  35.505   1.927  10.504
13223W        W85571  18.143  25.133  12.936
13224W        W85572  13.654  17.801   1.791
13225W        W85573  31.563  26.060   4.634
13226W        W85574  19.723  12.361   2.198
13227W        W85575   7.869  31.614   1.874
13228W        W85576  43.306  37.476   2.880
13229W        W85577  16.709  34.519   1.297
13230W        W85578  19.542  11.263  14.423
13231W        W85579  23.732  17.258   3.305
13232W        W85580  22.571  22.541   1.399
13233W        W85581  23.520  21.068   1.928
13234W        W85582  10.149  19.751   0.243
13235W        W85583   7.358  37.038   4.762
13236W        W85584  36.981  36.059  12.883
13237W        W85585   3.289  11.784  11.407
13238W        W85586  26.635   4.401   0.245
13239W        W85587  27.506  25.592  14.880
13240W        W85588   6.257  22.609  12.570
13241W        W85589  34.478  39.055   2.844
13242W        W85590  28.098   4.788   3.691
13243W        W85591  36.072  41.383   2.691
13244W        W85592  35.994  39.338  14.437
13245W        W85593  30.118  44.862  12.085
13246W        W85594   7.288  34.942  13.053
13247W        W85595   6.315   6.810  12.896
13248W        W85596   7.765   4.753   4.247
13249W        W85597  41.397  32.579   1.734
13250W        W85598  18.103  22.561   2.382
13251W        W85599  14.604  31.577  11.896
13252W        W85600   0.834  22.064   2.876
13253W        W85601  11.250  27.082   3.226
13254W        W85602  28.949  41.417   4.833
13255W        W85603  21.254  36.406  14.299
13256W        W85604   4.216  41.846  12.580
13257W        W85605  20.156  30.534  11.410
13258W        W85606  23.143  18.728   3.254
13259W        W85607  10.198   2.399   2.273
13260W        W85608  22.079   3.914   2.373
13261W        W85609  28.064  22.638  10.101
13262W        W85610  33.500  31.412   3.836
13263W        W85611  16.605  36.006  14.810
13264W        W85612   6.683   8.836   3.296
13265W        W85613  30.580   6.758   0.766
13266W        W85614   3.761   8.361  13.425
13267W        W85615   5.856   4.232   1.704
13268W        W85616   5.315  28.458   0.934
13269W        W85617  15.800  11.216   0.939
13270W        W85618   5.425   2.273  14.296
13271W        W85619  18.281  14.250  14.296
13272W        W85620  20.762  17.677   2.683
13273W        W85621  35.041  11.836   3.171
13274W        W85622   7.779  27.168  13.909
13275W        W85623  19.722  36.425   1.910
13276W        W85624  39.056  17.740  14.009
13277W        W85625  23.216  26.694  11.400
13278W        W85626   4.229  41.319   3.761
13279W        W85627  28.173  21.060  11.580
13280W        W85628  30.128  15.607   2.383
13281W        W85629  22.597  29.623  14.329
13282W        W85630   0.806  17.681  12.945
13283W        W85631  43.452  16.252  13.542
13284W        W85632   5.432   1.791  12.472
13285W        W85633  38.019   4.318   0.757
13286W        W85634  37.854   6.862  11.104
13287W        W85635  37.548  14.772   0.886
13288W        W85636  20.242  42.500   3.214
13289W        W85637  44.847  25.675   2.305
13290W        W85638  39.986   5.921   4.625
13291W        W85639   9.741  12.801   3.337
13292W        W85640   9.721  28.178   1.222
13293W        W85641   0.340   6.805   2.861
13294W        W85642   6.720   3.718   0.289
13295W        W85643   9.320   0.384   3.221
13296W        W85644  26.989  42.867   2.668
13297W        W85645  18.060  25.523  12.478
13298W        W85646  21.542  26.616   0.314
13299W        W85647  27.509   1.895  14.903
13300W        W85648  32.107   3.806   5.284
13301W        W85649  34.541  43.354   2.707
13302W        W85650  20.599  24.097   1.707
13303W        W85651   7.710   0.810  12.577
13304W        W85652  38.040  33.125  14.502
13305W        W85653  16.157  12.646   4.665
13306W        W85654  31.521  36.045  12.477
13307W        W85655  35.514  39.945   4.199
13308W        W85656  16.312  24.611  13.513
13309W        W85657   2.875  30.011  13.012
13310W        W85658   4.749  15.174  10.498
13311W        W85659  21.578  41.462  11.550
13312W        W85660   0.880  42.418   0.343
13313W        W85661  20.755  26.124   1.933
13314W        W85662  39.978   0.981  10.912
13315W        W85663  28.154  44.935   0.449
13316W        W85664   2.381   9.827   3.644
13317W        W85665  24.696  40.445  10.974
13318W        W85666  14.654  34.445   3.773
13319W        W85667  22.016  15.602   3.675
13320W        W85668  16.678  10.720  13.049
13321W        W85669   8.846  27.454   1.250
13322W        W85670  20.595   9.647   1.886
13323W        W85671  29.147  36.375   1.918
13324W        W85672  31.002   6.813   3.200
13325W        W85673   3.810  35.055  12.936
13326W        W85674  28.080  23.497   1.246
13327W        W85675  11.158  19.243   0.923
13328W        W85676  17.705  26.052   4.118
13329W        W85677  40.366   3.941  11.931
13330W        W85678  39.994  16.662  14.304
13331W        W85679  25.025   7.907  11.446
13332W        W85680   9.866  41.913  13.929
13333W        W85681  25.140  43.393  14.515
13334W        W85682   9.376  12.822  12.832
13335W        W85683  14.620  32.930   1.218
13336W        W85684  42.857  26.518  10.023
13337W        W85685   6.798  26.203  14.473
13338W        W85686  36.019  36.378   2.417
13339W        W85687  44.976  20.202   2.863
13340W        W85688  37.523  40.840   0.316
13341W        W85689  19.545   7.775   3.247
13342W        W85690  11.654   4.877   3.864
13343W        W85691   7.667   8.391   0.473
13344W        W85692  24.487  13.233   2.397
13345W        W85693  35.555  12.794   1.792
13346W        W85694  20.668  29.956  10.457
13347W        W85695  20.706  29.924  10.948
13348W        W85696  15.297  29.067   0.338
13349W        W85697   0.325  33.463  14.781
13350W        W85698  23.053   7.834  13.398
13351W        W85699  36.950  29.560  12.021
13352W        W85700  34.525  36.495   1.860
13353W        W85701  35.046  29.557  13.333
13354W        W85702   1.759  36.454  12.566
13355W        W85703  26.543  40.452   5.175
13356W        W85704  30.512  27.042   2.673
13357W        W85705  20.625  12.293  14.444
13358W        W85706   9.232  17.074  11.951
13359W        W85707  31.586  21.180  14.342
13360W        W85708  18.138  28.628   1.317
13361W        W85709   6.303  31.015   3.301
13362W        W85710  14.589  26.159   3.160
13363W        W85711  22.683  20.047   2.323
13364W        W85712  38.879  17.164   3.851
13365W        W85713  41.335  18.611   2.253
13366W        W85714  37.431  23.229   2.733
13367W        W85715  25.025  21.143  14.901
13368W        W85716  17.792  25.128   4.804
13369W        W85717  36.018  35.361   0.813
13370W        W85718  13.216   9.290   3.862
13371W        W85719   9.701  31.577   1.402
13372W        W85720  20.573  26.515   0.351
13373W        W85721  11.743  40.393   4.679
13374W        W85722  35.079  43.809   2.392
13375W        W85723  43.811  10.268   4.610
13376W        W85724   3.922  41.953   1.896
13377W        W85725  22.043  10.349  11.869
13378W        W85726  37.492  35.107   0.728
13379W        W85727  34.461  21.628   0.389
13380W        W85728   7.312  15.615   2.389
13381W        W85729  23.583  18.064   3.635
13382W        W85730  37.921   3.261  13.443
13383W        W85731  42.332  10.696   2.347
13384W        W85732  13.120  39.448  12.533
13385W        W85733   9.769   9.781  10.619
13386W        W85734  32.596  29.521   0.294
13387W        W85735   8.403  11.783   4.231
13388W        W85736   8.689  23.134   1.274
13389W        W85737   3.917  23.048   0.247
13390W        W85738  26.192  22.676   1.700
13391W        W85739  18.545   5.713  11.979
13392W        W85740  14.197  19.219  12.567
13393W        W85741  10.291  29.094  13.447
13394W        W85742  31.568  39.449  14.280
13395W        W85743  38.380  12.852   1.306
13396W        W85744  39.465  22.155  11.091
13397W        W85745  42.874  13.781  14.378
13398W        W85746  10.167  16.634  11.478
13399W        W85747  15.708   1.759   1.807
13400W        W85748  39.982   7.236  13.473
13401W        W85749  34.455  41.446   0.750
13402W        W85750  16.813  23.210   0.388
13403W        W85751   4.440  42.024  11.896
13404W        W85752  11.143  25.655   2.690
13405W        W85753  37.455   0.293   0.381
13406W        W85754  23.147  26.665   4.612
13407W        W85755   8.898   8.766   2.245
13408W        W85756  32.915  37.024  13.360
13409W        W85757  20.586  26.545  14.938
13410W        W85758  33.393  22.027  10.915
13411W        W85759   0.488  33.391  10.942
13412W        W85760  23.110  39.339  10.619
13413W        W85761  15.316  41.984  11.984
13414W        W85762  25.198  20.762   4.120
13415W        W85763  37.365  13.778  12.833
13416W        W85764  37.469  26.657   3.712
13417W        W85765  33.623  11.231   4.829
13418W        W85766  30.646  35.455   1.815
13419W        W85767   6.865   9.173   2.346
13420W        W85768  18.732   4.309  14.922
13421W        W85769  43.404  12.689   2.186
13422W        W85770  28.681   9.768   1.747
13423W        W85771  15.310  18.759  11.914
13424W        W85772  43.816  24.996  14.855
13425W        W85773  43.514  11.774   0.363
13426W        W85774   7.365  42.889   4.240
13427W        W85775  16.173  30.448   4.826
13428W        W85776  23.079  23.035   1.384
13429W        W85777  38.930  18.784   4.236
13430W        W85778  25.167  34.421   3.844
13431W        W85779  37.477  22.557   4.198
13432W        W85780  20.040   0.429   4.783
13433W        W85781   8.871  12.784   2.885
13434W        W85782  38.855   9.158  12.420
13435W        W85783  29.587   1.338  12.908
13436W        W85784  27.018  43.839   1.322
13437W        W85785  15.729   6.817  13.984
13438W        W85786  20.678  28.626  12.524
13439W        W85787  36.070  37.498  14.463
13440W        W85788  14.822  16.230  12.541
13441W        W85789   1.937   2.749   1.787
13442W        W85790   3.307  40.017   4.318
13443W        W85791  20.527   8.764   3.186
13444W        W85792  34.458  15.671   2.854
13445W        W85793  36.932  18.638   2.900
13446W        W85794  32.441  28.185   3.343
13447W        W85795  28.580  40.031  14.410
13448W        W85796  24.635  25.010  14.357
13449W        W85797  37.877   9.710  11.460
13450W        W85798   5.917  28.106  13.417
13451W        W85799  40.842  21.643   0.752
13452W        W85800  39.460  27.498  14.294
13453W        W85801   4.379   2.248  12.826
13454W        W85802  40.948  29.567  13.491
13455W        W85803   6.237  33.422   3.274
13456W        W85804  34.540  22.206   5.689
13457W        W85805  22.047  14.233   2.722
13458W        W85806  17.248  20.075  14.498
13459W        W85807   8.676  26.590  12.930
13460W        W85808  25.497  33.434   3.864
13461W        W85809  27.985  40.355  12.947
13462W        W85810   9.194   5.252   3.336
13463W        W85811  32.127   1.896  10.449
13464W        W85812  17.611   9.385  11.856
13465W        W85813  16.702  21.037  11.093
13466W        W85814  35.530  18.099  13.318
13467W        W85815  10.304  27.993   3.225
13468W        W85816   2.387   5.300   3.329
13469W        W85817  37.054  15.615   4.249
13470W        W85818  18.157  32.020  10.948
13471W        W85819   4.350  17.150  13.997
13472W        W85820  37.031  11.641   3.279
13473W        W85821   5.734   2.330   2.756
13474W        W85822  11.281  17.150  13.420
13475W        W85823  21.663  40.876  12.471
13476W        W85824  20.562   5.867   2.255
13477W        W85825  27.523  13.144   4.310
13478W        W85826   3.715  41.897   4.647
13479W        W85827  17.207  29.430   4.222
13480W        W85828  33.525  44.956   4.231
13481W        W85829   6.728   7.262   0.348
13482W        W85830   5.831  34.042   4.733
13483W        W85831  10.723  11.722  14.945
13484W        W85832  40.929  37.027   2.382
13485W        W85833   5.315  43.956   1.365
13486W        W85834  37.483  11.290  12.939
13487W        W85835  22.150  10.168  14.848
13488W        W85836  38.890  26.571   3.828
13489W        W85837  27.979  24.532   3.193
13490W        W85838  31.588  14.797   4.809
13491W        W85839   4.230  43.506   3.273
13492W        W85840  15.645  41.891   2.270
13493W        W85841   2.856   9.236   2.742
13494W        W85842  34.890  37.361   2.794
13495W        W85843  24.066  41.898  11.412
13496W        W85844  34.002  36.437   1.414
13497W        W85845  10.703  14.682   1.850
13498W        W85846  23.580  28.029   1.770
13499W        W85847   5.367  36.507  14.274
13500W        W85848  32.607  17.619  13.920
13501W        W85849  33.610   1.925   3.761
13502W        W85850  44.009   7.332   1.898
13503W        W85851  36.973  18.206  12.903
13504W        W85852  26.050   9.150   0.478
13505W        W85853  32.452   7.890   2.396
13506W        W85854  22.121  17.785   1.356
13507W        W85855  16.788   8.763   3.645
13508W        W85856  15.646  34.595   0.284
13509W        W85857  18.270  13.797   1.779
13510W        W85858   0.924  42.849   9.943
13511W        W85859  18.775  24.620   1.905
13512W        W85860  10.327  44.442  10.588
13513W        W85861  35.541  17.231  13.886
13514W        W85862  37.441   1.327   0.930
13515W        W85863  44.476   4.818   5.177
13516W        W85864  26.488  13.651  11.887
13517W        W85865  22.044  10.650  12.503
13518W        W85866   7.288  34.379  14.366
13519W        W85867  32.559  23.116   1.395
13520W        W85868  14.742  39.835  12.843
13521W        W85869  15.088  34.053  12.962
13522W        W85870   2.238  21.640  10.912
13523W        W85871  41.494   8.664   4.801
13524W        W85872  34.012  19.631   3.850
13525W        W85873  13.194   2.937   2.673
13526W        W85874  37.441  44.491  14.297
13527W        W85875  33.423  42.865  10.975
13528W        W85876  27.514   2.912   3.819
13529W        W85877  13.122  44.847  14.761
13530W        W85878   2.454  34.586  12.032
13531W        W85879  38.964   9.738  11.444
13532W        W85880  22.223  25.546  14.355
13533W        W85881   2.828  31.917  14.990
13534W        W85882  30.059   8.671   5.234
13535W        W85883  19.653  38.027   4.343
13536W        W85884  21.704  32.925  12.404
13537W        W85885  37.831  33.558   4.158
13538W        W85886   2.460  33.489  12.064
13539W        W85887  12.653  34.034   4.673
13540W        W85888  31.938  23.578   2.792
13541W        W85889  34.559   8.277   4.754
13542W        W85890   0.803   9.353   2.217
13543W        W85891  41.840  22.118   1.396
13544W        W85892  11.148  36.055  10.476
13545W        W85893   4.287  35.080  12.395
13546W        W85894   2.796   4.355  10.516
13547W        W85895  14.212  41.956   0.482
13548W        W85896  37.546   9.858  12.461
13549W        W85897  38.429   7.813   0.912
13550W        W85898   8.748  24.068  13.323
13551W        W85899  18.174  35.556   0.273
13552W        W85900  23.621  20.196  12.431
13553W        W85901  20.167  28.666  10.506
13554W        W85902  11.865  10.721  14.925
13555W        W85903   4.783  10.224  11.572
13556W        W85904  42.908  23.663  14.968
13557W        W85905  20.112   1.375   3.380
13558W        W85906  36.863   8.881   1.322
13559W        W85907   4.352  19.091   4.675
13560W        W85908  28.501  10.647  14.887
13561W        W85909   4.420  23.043  12.368
13562W        W85910  28.981   5.719   2.278
13563W        W85911  15.112   4.316   3.329
13564W        W85912  27.011  42.410   0.929
13565W        W85913  39.063  21.714   4.229
13566W        W85914  26.998  35.437   2.709
13567W        W85915  14.279  14.180   3.175
13568W        W85916   8.702  43.860   1.723
13569W        W85917  20.054   6.922  12.965
13570W        W85918  33.987   9.717   0.793
13571W        W85919  43.339  16.303   0.304
13572W        W85920  38.333  23.141  10.986
13573W        W85921  20.198  41.458  13.419
13574W        W85922   5.434   7.197   0.843
13575W        W85923  31.070  24.680  13.521
13576W        W85924  19.777  15.607  14.843
13577W        W85925  41.903  20.215   1.444
13578W        W85926  33.444  12.810   1.268
13579W        W85927  44.467  20.064  10.580
13580W        W85928  30.646  35.967   3.362
13581W        W85929   5.725   2.347   4.624
13582W        W85930   5.780   1.420  12.832
13583W        W85931  38.016  31.519  12.435
13584W        W85932  16.638  40.332   0.919
13585W        W85933  39.952  43.357  10.913
13586W        W85934   8.188  39.459   3.208
13587W        W85935   8.754  29.572   1.739
13588W        W85936  34.940  44.391  12.556
13589W        W85937   6.782   3.745  13.329
13590W        W85938  21.157  41.404   2.872
13591W        W85939  14.640  28.019   3.685
13592W        W85940  33.044  41.318  13.432
13593W        W85941  36.035   3.319   1.363
13594W        W85942  29.434  39.824   1.229
13595W        W85943  43.376  22.013  11.037
13596W        W85944   9.358  34.499   1.303
13597W        W85945  29.531  44.787  12.464
13598W        W85946   1.382  23.114  13.490
13599W        W85947   8.326  18.622  14.870
13600W        W85948  32.507   8.733   0.815
13601W        W85949   8.261  21.722  10.478
13602W        W85950   8.299  15.655  13.874
13603W        W85951  23.009   7.669   2.246
13604W        W85952   5.313  29.582   3.200
13605W        W85953   7.318  41.315   0.852
13606W        W85954  23.599  29.087   2.808
13607W        W85955  31.588  33.597  14.405
13608W        W85956  12.332   7.377  12.910
13609W        W85957  31.989  10.193   4.166
13610W        W85958   4.314  25.635  11.429
13611W        W85959  44.504  18.188   1.900
13612W        W85960  12.662  31.966   0.437
13613W        W85961  44.863  41.430   2.207
13614W        W85962   1.393   1.435   0.748
13615W        W85963  36.517  29.468   1.277
13616W        W85964   7.765  44.347   2.857
13617W        W85965  17.683  19.072   2.294
13618W        W85966  11.317   6.834   1.437
13619W        W85967  19.237   6.760  12.386
13620W        W85968  22.736  15.218  11.106
13621W        W85969  34.442   4.742   4.620
13622W        W85970   4.761  19.631   3.851
13623W        W85971  40.840   1.804  10.523
13624W        W85972  11.665  14.675   0.843
13625W        W85973  36.407   6.724  13.913
13626W        W85974  21.217  35.855  11.407
13627W        W85975  44.425  38.496  13.358
13628W        W85976  22.127  30.497   4.177
13629W        W85977  13.120  33.065  14.343
13630W        W85978  40.041  14.671   0.437
13631W        W85979   8.668   8.854   1.810
13632W        W85980  12.821  17.074  10.573
13633W        W85981  19.750   7.207   1.361
13634W        W85982   5.413   8.252   0.868
13635W        W85983  15.696  10.878  10.572
13636W        W85984  31.558  11.697  13.356
13637W        W85985  24.689   2.259   4.819
13638W        W85986  15.582   3.719   3.864
13639W        W85987  19.075  31.637  14.769
13640W        W85988  35.936  15.582   0.268
13641W        W85989   6.866   0.759  14.027
13642W        W85990  23.537  38.878   2.392
13643W        W85991  20.728  13.304   1.923
13644W        W85992  17.740   8.696  12.481
13645W        W85993   2.915  31.912   0.411
13646W        W85994  44.377  24.480  10.455
13647W        W85995  20.683  29.059  10.423
13648W        W85996  14.772   8.701   0.436
13649W        W85997  41.335  35.359  13.324
13650W        W85998  41.443  18.199  12.462
13651W        W85999  17.151  17.662  14.832
13652W        W86000   6.836  33.453   4.837
13653W        W86001  36.520  30.484  12.013
13654W        W86002  40.883  13.139  14.342
13655W        W86003  20.047  41.817  10.988
13656W        W86004   7.767  30.589   3.263
13657W        W86005  15.250  23.202   3.164
13658W        W86006  15.172  28.517  13.828
13659W        W86007   5.843  16.569  13.006
13660W        W86008   9.355   6.827   0.859
13661W        W86009  18.608  14.122   3.867
13662W        W86010  25.046   6.200  13.483
13663W        W86011  36.379  35.930   2.356
13664W        W86012  14.667  44.838   0.447
13665W        W86013   6.873   7.877   2.690
13666W        W86014  38.969  22.064   1.442
13667W        W86015  17.774  14.174   4.765
13668W        W86016  13.725  36.902  13.380
13669W        W86017  21.721  41.981   3.190
13670W        W86018  44.273  39.060   1.405
13671W        W86019  13.655  19.126  11.565
13672W        W86020  39.503   6.802  14.488
13673W        W86021  21.591  13.714   4.785
13674W        W86022  30.446   9.885  10.442
13675W        W86023   2.878   7.825   1.902
13676W        W86024  30.618   2.806  11.025
13677W        W86025   6.288  23.115   1.439
13678W        W86026  37.465  42.498   2.413
13679W        W86027  42.505   4.222  12.823
13680W        W86028  18.596  34.477   3.683
13681W        W86029  30.909  13.621   4.127
13682W        W86030  40.311  26.104   1.425
13683W        W86031  39.510  15.325   4.253
13684W        W86032  37.964  28.626  11.091
13685W        W86033  12.310   7.733   1.443
13686W        W86034  18.727   6.247   0.432
13687W        W86035  19.263  16.789   3.655
13688W        W86036  10.856  14.202  12.530
13689W        W86037   6.212   0.290   2.228
13690W        W86038  33.569  11.781   5.274
13691W        W86039  37.376  26.183   0.791
13692W        W86040  31.085  30.147  14.783
13693W        W86041  22.695   0.911  12.489
13694W        W86042   5.265  36.859   1.377
13695W        W86043  13.615  25.683   0.788
13696W        W86044   0.979  34.964   2.410
13697W        W86045   8.343  30.941  14.803
13698W        W86046  12.613  34.488  11.007
13699W        W86047  44.773   6.899  13.873
13700W        W86048  26.041  34.051   3.217
13701W        W86049   7.368  18.563   2.196
13702W        W86050  15.590  14.243  13.049
13703W        W86051  39.938  27.490  11.917
13704W        W86052  44.433  27.550   1.318
13705W        W86053  10.375  20.092  13.503
13706W        W86054  18.574  22.127  14.344
13707W        W86055  16.228   9.828   4.743
13708W        W86056   3.216  40.467   2.758
13709W        W86057  44.870  31.082  11.865
13710W        W86058  43.389   7.789  13.916
13711W        W86059  31.404  20.120   0.428
13712W        W86060  28.179  30.033  11.408
13713W        W86061  18.174  17.300  13.030
13714W        W86062  20.556   0.875  14.387
13715W        W86063  12.137  30.935  13.425
13716W        W86064  39.335  14.127  13.061
13717W        W86065  13.343  27.188   4.135
13718W        W86066  26.203  10.237  12.370
13719W        W86067   2.805  37.878  10.894
13720W        W86068  10.837   7.279   0.763
13721W        W86069  20.703  41.893  11.072
13722W        W86070  14.695  31.903  10.061
13723W        W86071  16.744   7.364  10.406
13724W        W86072  15.178  15.771   3.150
13725W        W86073   7.876  30.020  12.085
13726W        W86074  20.740  14.674  11.432
13727W        W86075  34.412  29.513   1.751
13728W        W86076   1.740  31.057   1.302
13729W        W86077  22.100  25.025   2.339
13730W        W86078  20.613  42.899  12.927
13731W        W86079  15.771  39.040  13.879
13732W        W86080  28.572  27.133   3.170
13733W        W86081  25.561  12.219  14.835
13734W        W86082  27.964  29.473  12.009
13735W        W86083  19.042  29.943  10.090
13736W        W86084   7.693  40.006  13.836
13737W        W86085  23.668   8.823   3.819
13738W        W86086  40.029  10.745  14.984
13739W        W86087  28.046  14.123   3.717
13740W        W86088   8.783  17.588  14.896
13741W        W86089  17.211  10.666   1.831
13742W        W86090  32.948   5.690   5.671
13743W        W86091  33.896  19.699   2.799
13744W        W86092   4.820  24.052  13.932
13745W        W86093  15.617  37.477   1.411
13746W        W86094  11.148  13.134  11.517
13747W        W86095  12.772   7.254   1.757
13748W        W86096  41.494   9.784  10.440
13749W        W86097  28.633  22.567   0.818
13750W        W86098  35.425  12.314  14.431
13751W        W86099  26.141  17.783   2.198
13752W        W86100  38.918   4.420   5.144
13753W        W86101   9.647  22.219   0.946
13754W        W86102   8.753  10.713  10.934
13755W        W86103  39.971  23.004  12.499
13756W        W86104  11.185  29.538  10.641
13757W        W86105  14.328   0.425   2.787
13758W        W86106   0.812  37.441   5.156
13759W        W86107  41.387   1.734   0.262
13760W        W86108  27.095  35.941   2.899
13761W        W86109  17.164   1.894   5.171
13762W        W86110   5.821  13.720  11.538
13763W        W86111  21.539  18.713  14.001
13764W        W86112  28.957   6.262   4.790
13765W        W86113  31.061  22.631  11.077
13766W        W86114  23.170  20.190   4.168
13767W        W86115  24.229  19.598   2.792
13768W        W86116   4.234  36.995  11.101
13769W        W86117  12.209   0.884   0.793
13770W        W86118  27.688  44.792  10.489
13771W        W86119  17.694  44.496  11.020
13772W        W86120  30.916  27.018  12.541
13773W        W86121  16.667  33.422   4.821
13774W        W86122  18.137   6.735  13.396
13775W        W86123  17.781  20.074   2.197
13776W        W86124   3.407  15.728  10.454
13777W        W86125  10.156  41.824  14.390
13778W        W86126  30.148  18.154  13.976
13779W        W86127  34.890  43.011  11.921
13780W        W86128   8.403  37.995   0.433
13781W        W86129  10.665  21.087  13.848
13782W        W86130  25.077  34.991   3.844
13783W        W86131   4.308   7.199   0.896
13784W        W86132   1.924  40.819   3.194
13785W        W86133  42.461  14.245   1.865
13786W        W86134  16.141  31.063  12.866
13787W        W86135  36.416  20.151  14.871
13788W        W86136  14.705  21.159   0.848
13789W        W86137  32.118  25.691   1.228
13790W        W86138  33.108  37.893   1.747
13791W        W86139  31.576  16.317   0.369
13792W        W86140  14.770  14.636  13.421
13793W        W86141  39.506  28.525  12.953
13794W        W86142   9.815  19.060  14.017
13795W        W86143  24.627   3.342   2.386
13796W        W86144  29.492  13.134   1.846
13797W        W86145   6.780   7.724   4.625
13798W        W86146   5.930  18.141  11.128
13799W        W86147  41.844   8.760  13.048
13800W        W86148   1.422  19.228  11.863
13801W        W86149  36.406   4.287  13.435
13802W        W86150  44.910  36.988   3.801
13803W        W86151   4.234  34.918  14.930
13804W        W86152  19.677  32.452  13.939
13805W        W86153   3.759  21.043  10.642
13806W        W86154   7.872  17.259  11.573
13807W        W86155   8.366  14.707   1.360
13808W        W86156   0.425  10.717   4.123
13809W        W86157  42.851  17.783  12.025
13810W        W86158  26.538   3.797   1.715
13811W        W86159  37.358  11.709  12.042
13812W        W86160  17.297  28.674   1.877
13813W        W86161  15.279  22.580   1.833
13814W        W86162   6.750  11.745  13.459
13815W        W86163  43.983  35.499  11.096
13816W        W86164   5.360  33.583   3.345
13817W        W86165  29.966  11.342  11.543
13818W        W86166  11.673  25.980   3.278
13819W        W86167  35.472  21.598   4.120
13820W        W86168   5.883  38.873   3.185
13821W        W86169  18.784  35.014   2.375
13822W        W86170  19.045  11.762  12.877
13823W        W86171  21.135  23.239   2.829
13824W        W86172   7.792  15.662   1.735
13825W        W86173  16.288  33.403  10.991
13826W        W86174   4.730  21.039   1.337
13827W        W86175  15.241  36.995   1.746
13828W        W86176   9.663  12.829   1.311
13829W        W86177   4.215   7.781   3.268
13830W        W86178  44.809  16.668  13.915
13831W        W86179  13.793   4.254   2.245
13832W        W86180  32.556   6.740   3.637
13833W        W86181  13.210  17.708   4.761
13834W        W86182   8.235  44.277  10.456
13835W        W86183  34.406  16.732  11.564
13836W        W86184  44.489  28.446  12.914
13837W        W86185  13.187  31.972   4.673
13838W        W86186  18.674  32.634   4.829
13839W        W86187  39.022  43.933   5.276
13840W        W86188  43.384   6.698   0.269
13841W        W86189  37.379  15.622   1.345
13842W        W86190  44.946  28.948  12.997
13843W        W86191   1.421  37.937  13.807
13844W        W86192   9.813   9.363  14.924
13845W        W86193  34.382  23.556   4.138
13846W        W86194   9.690  24.570  13.013
13847W        W86195  20.138  20.035   1.721
13848W        W86196  36.363  16.809   4.780
13849W        W86197  32.074  24.149   5.122
13850W        W86198  34.980  20.116  14.476
13851W        W86199   0.446   4.725  12.873
13852W        W86200   5.887  41.459   1.867
13853W        W86201   9.737   9.232   3.186
13854W        W86202  35.863  21.664   3.651
13855W        W86203  37.511  43.480   2.181
13856W        W86204  17.578  34.069  13.473
13857W        W86205  11.150  34.086  14.903
13858W        W86206  15.701  22.244  14.418
13859W        W86207   8.809  43.366   0.252
13860W        W86208   8.782   0.443   0.304
13861W        W86209  42.953  17.219   4.162
13862W        W86210   6.810  34.116  10.896
13863W        W86211  23.642   2.420   4.325
13864W        W86212  30.517  43.447   2.886
13865W        W86213   9.236  39.334   3.360
13866W        W86214   1.904  30.532   0.877
13867W        W86215  30.496   9.888  11.386
13868W        W86216  13.174  43.482   3.740
13869W        W86217  43.845  35.906   3.676
13870W        W86218  16.630  42.466  12.823
13871W        W86219  10.759  42.377   3.175
13872W        W86220   2.794  10.322  12.858
13873W        W86221   5.811  22.024  13.542
13874W        W86222  10.863   6.775   5.082
13875W        W86223  17.138  44.291   4.714
13876W        W86224   8.243  42.827  10.461
13877W        W86225  27.605  33.937   2.677
13878W        W86226  28.672  31.533   3.744
13879W        W86227  40.332   6.415   3.810
13880W        W86228  30.003  16.220   2.415
13881W        W86229  42.449   6.736  10.602
13882W        W86230  41.876  22.675   4.152
13883W        W86231  42.358  11.719  12.344
13884W        W86232  42.438  32.425  10.436
13885W        W86233  26.480  41.956   0.735
13886W        W86234   0.855  14.788  14.870
13887W        W86235  28.531   1.866   3.320
13888W        W86236   1.756  43.935  13.337
13889W        W86237  20.253   8.185   3.195
13890W        W86238  41.798  13.125   1.704
13891W        W86239   7.390  23.676  10.998
13892W        W86240  40.034   7.780   2.771
13893W        W86241  36.887  21.635  11.054
13894W        W86242  28.581   4.937  11.582
13895W        W86243  30.926   4.321  11.119
13896W        W86244  44.890   0.266  13.522
13897W        W86245  44.004  38.875  13.872
13898W        W86246  19.690  30.503  11.941
13899W        W86247  29.954  15.769   3.307
13900W        W86248  25.093   2.304  11.951
13901W        W86249  12.627   4.877   0.936
13902W        W86250  20.655  36.099   0.331
13903W        W86251  13.162   7.910   4.209
13904W        W86252   4.906   4.774  10.547
13905W        W86253   6.825  42.467  11.412
13906W        W86254   8.702  31.121   3.660
13907W        W86255   0.406   0.863  14.380
13908W        W86256  40.371  36.854   2.815
13909W        W86257  34.052  32.019  14.831
13910W        W86258   4.919  38.452   5.177
13911W        W86259  34.500  10.696   4.279
13912W        W86260  32.100  17.714   3.202
13913W        W86261   9.198   6.343   3.650
13914W        W86262  13.207  32.030  11.585
13915W        W86263  41.386   1.346  10.528
13916W        W86264  31.519  35.534  14.404
13917W        W86265  34.893  42.939  10.114
13918W        W86266   4.406  24.086  14.315
13919W        W86267  16.692  32.392   3.863
13920W        W86268  41.006  36.425   1.275
13921W        W86269   6.199  26.500  10.405
13922W        W86270  23.601  21.634  10.413
13923W        W86271   6.803   7.228  11.600
13924W        W86272   7.399  22.514   3.679
13925W        W86273  35.865   6.774   4.816
13926W        W86274   6.204  33.597  11.968
13927W        W86275  23.175  25.218   4.706
13928W        W86276  35.035   7.766  12.974
13929W        W86277  39.868  40.870   1.736
13930W        W86278  11.284  19.621  13.453
13931W        W86279   0.472  26.477  12.854
13932W        W86280  24.193  17.236  12.468
13933W        W86281  12.800   5.391   0.958
13934W        W86282  18.694   7.213  12.928
13935W        W86283  16.201  17.264   9.960
13936W        W86284   6.842   5.725   2.718
13937W        W86285  28.646  22.593  12.522
13938W        W86286  14.184  40.906  14.805
13939W        W86287  15.677  34.075  12.455
13940W        W86288  36.438  24.162  13.379
13941W        W86289  41.397  26.118  10.459
13942W        W86290  13.193  38.843  11.882
13943W        W86291   1.451  37.984   2.195
13944W        W86292  14.171  36.559  13.333
13945W        W86293  17.289  28.133   0.266
13946W        W86294  15.188   7.226  12.020
13947W        W86295  12.664  37.073  13.856
13948W        W86296   6.310   4.416  13.469
13949W        W86297   7.396  35.536   3.331
13950W        W86298  24.123  15.314   3.347
13951W        W86299   6.827  40.979  11.509
13952W        W86300  38.393   2.825   1.285
13953W        W86301   8.330  13.754  12.061
13954W        W86302  23.174  20.033  12.419
13955W        W86303  12.657  29.657   4.330
13956W        W86304  32.454  37.465   2.356
13957W        W86305  17.594  38.363  14.846
13958W        W86306   4.387  22.157  13.889
13959W        W86307   5.394  11.819  12.874
13960W        W86308  44.297   3.805   0.332
13961W        W86309  35.863  37.928   1.818
13962W        W86310  33.024  30.072   4.138
13963W        W86311  17.780  38.076   3.176
13964W        W86312   2.227  16.648   2.877
13965W        W86313  23.078  36.024  12.397
13966W        W86314  22.184  22.208   2.868
13967W        W86315  29.498  31.985   1.407
13968W        W86316   0.369   8.242  11.385
13969W        W86317  38.858  35.856  14.463
13970W        W86318  35.953   2.725   1.895
13971W        W86319   1.461  42.947  14.311
13972W        W86320  37.847  29.168  10.955
13973W        W86321  30.449   7.686   3.298
13974W        W86322  11.166   1.335   3.827
13975W        W86323   6.317  23.662   3.724
13976W        W86324   6.877  26.626   1.748
13977W        W86325  43.429  15.296  14.332
13978W        W86326   8.717  42.831   2.802
13979W        W86327   9.711  27.487  11.987
13980W        W86328  15.800  34.017   1.795
13981W        W86329   4.699  25.699   0.939
13982W        W86330  17.130  20.064  14.787
13983W        W86331   1.954  38.416   1.380
13984W        W86332  38.369  43.795   2.339
13985W        W86333  36.457  13.281  10.588
13986W        W86334  36.843  13.626  11.936
13987W        W86335   6.741  41.388  10.579
13988W        W86336  24.209   6.895   2.223
13989W        W86337  30.051  33.119  12.014
13990W        W86338  18.740   6.888  12.871
13991W        W86339   8.870  18.232  12.841
13992W        W86340   7.207  37.484   1.307
13993W        W86341  36.510  27.985  11.949
13994W        W86342   3.747   6.722  14.422
13995W        W86343  41.869   4.243   4.718
13996W        W86344  13.674   2.383  14.775
13997W        W86345  28.110  28.152  13.371
13998W        W86346  39.462   5.838  12.839
13999W        W86347  20.060  37.570   1.853
14000W        W86348  36.564   2.902  11.522
14001W        W86349  27.189  24.060  14.811
14002W        W86350  43.487   4.291   2.414
14003W        W86351  18.173  37.842  11.442
14004W        W86352  11.622  37.517   0.943
14005W        W86353  40.026  41.499  13.439
14006W        W86354  24.534  22.119   3.381
14007W        W86355  29.955  43.270  12.549
14008W        W86356  31.011  11.139  14.001
14009W        W86357  36.874   1.381   3.324
14010W        W86358  25.194  44.883   4.692
14011W        W86359  32.595  39.548   3.647
14012W        W86360  41.939  18.201  14.295
14013W        W86361  16.169   3.303   0.775
14014W        W86362   8.229  27.491   1.911
14015W        W86363   6.347  26.953   4.297
14016W        W86364  34.510  11.152  13.512
14017W        W86365  13.671   7.211   2.183
14018W        W86366  20.043  32.049   9.919
14019W        W86367  24.658  23.053  10.637
14020W        W86368  37.975   9.281   0.265
14021W        W86369   1.954  31.483  10.569
14022W        W86370  31.539  14.723   1.445
14023W        W86371  35.073  27.190   2.778
14024W        W86372  12.336  30.613  14.413
14025W        W86373  26.984  31.634   3.363
14026W        W86374  20.195  39.885   9.983
14027W        W86375   3.847  41.327   3.219
14028W        W86376  25.077  30.961   3.859
14029W        W86377   3.866  13.152   1.884
14030W        W86378  31.543  11.325   4.155
14031W        W86379  34.060   0.347   0.256
14032W        W86380   4.325  25.594  13.989
14033W        W86381  32.524  43.451   4.660
14034W        W86382  13.711  31.635  11.435
14035W        W86383  41.857  20.259   0.426
14036W        W86384  29.449  40.411  13.360
14037W        W86385  34.054  23.683  10.435
14038W        W86386  25.560   3.271   5.237
14039W        W86387  21.554   1.438  12.424
14040W        W86388  10.191  19.258   4.303
14041W        W86389  11.707  12.815  14.316
14042W        W86390   7.778  13.791   4.635
14043W        W86391  15.160  44.850  11.078
14044W        W86392   6.677  34.904   2.687
14045W        W86393  19.738   2.238   4.226
14046W        W86394   3.726  36.014   0.392
14047W        W86395  36.916   5.208   1.211
14048W        W86396  33.937  26.666  14.950
14049W        W86397  35.381  13.756   4.349
14050W        W86398   8.236  12.135   1.742
14051W        W86399  21.114  29.018   2.248
14052W        W86400  37.871  11.715   3.691
14053W        W86401  24.053   2.306   3.858
14054W        W86402  11.201   2.291  14.833
14055W        W86403   4.229  31.923   2.353
14056W        W86404   2.366  11.637  13.927
14057W        W86405  38.015  26.115   0.389
14058W        W86406  21.096  33.468  11.509
14059W        W86407   8.744  35.378   1.344
14060W        W86408   8.200   9.379   4.341
14061W        W86409  10.674  14.646  10.579
14062W        W86410  32.094  39.880   4.296
14063W        W86411  41.020  40.903   2.339
14064W        W86412  44.859  29.005   2.357
14065W        W86413  35.423  29.599   1.447
14066W        W86414  21.690  41.400   2.375
14067W        W86415   5.349  25.140  13.859
14068W        W86416  42.844  32.013   4.159
14069W        W86417  33.599   8.378   1.703
14070W        W86418  38.922  29.483   3.733
14071W        W86419  15.804  33.022  13.320
14072W        W86420  25.588   5.347  13.814
14073W        W86421  43.916  35.530   1.248
14074W        W86422  17.590  33.623  11.899
14075W        W86423   1.393  37.052   2.289
14076W        W86424  34.528  35.445   3.265
14077W        W86425  28.620   6.829  10.440
14078W        W86426  39.911  27.073  12.555
14079W        W86427  31.486  23.583   3.383
14080W        W86428  32.100   5.266   0.257
14081W        W86429  43.271  40.353   1.239
14082W        W86430   7.697  38.506  14.497
14083W        W86431  41.303  21.130   2.198
14084W        W86432   0.950  30.439  11.104
14085W        W86433  23.136  13.113   4.758
14086W        W86434  26.951  22.025   3.789
14087W        W86435  39.554  40.912   4.829
14088W        W86436  18.070  28.992   3.771
14089W        W86437   5.436  12.789  11.876
14090W        W86438  38.971  19.579  14.479
14091W        W86439  30.948  31.993  11.467
14092W        W86440  19.691  31.912  11.508
14093W        W86441  39.876  15.653  14.429
14094W        W86442  13.286  25.206  10.011
14095W        W86443  16.667   2.429   2.402
14096W        W86444   0.769  44.399   0.282
14097W        W86445  32.912  30.651   0.305
14098W        W86446  44.386  14.331  10.967
14099W        W86447  26.538  40.989  12.893
14100W        W86448  19.662   4.259   3.849
14101W        W86449  38.390  43.370   2.901
14102W        W86450  18.268   6.358  11.943
14103W        W86451  13.226  28.138   4.262
14104W        W86452   8.899   7.356  11.611
14105W        W86453  33.561  20.159   0.466
14106W        W86454  12.667  10.263  14.372
14107W        W86455  23.522  23.596   1.698
14108W        W86456  18.071  13.224  12.390
14109W        W86457  21.563   4.264  14.465
14110W        W86458  22.213  26.581  12.516
14111W        W86459  19.670  35.047  13.533
14112W        W86460   0.895   7.796  11.974
14113W        W86461   8.349  14.300   2.345
14114W        W86462  22.119   7.737   2.256
14115W        W86463   5.229  23.078  11.072
14116W        W86464  35.535  42.833   0.889
14117W        W86465  21.519   8.329  13.392
14118W        W86466  17.656  25.053   0.390
14119W        W86467  21.213   9.282   3.705
14120W        W86468  21.037   8.870   1.735
14121W        W86469   4.402   0.749   3.291
14122W        W86470  17.746  36.506   1.854
14123W        W86471  14.718  10.871   3.707
14124W        W86472  24.532  13.155   0.374
14125W        W86473   2.755   0.395   3.275
14126W        W86474  15.687  14.676   1.254
14127W        W86475  22.672  15.747   1.750
14128W        W86476   7.381   3.899  11.528
14129W        W86477  26.457  24.187  13.309
14130W        W86478  14.225  41.835   4.647
14131W        W86479   0.478  15.315   2.880
14132W        W86480  11.780   4.254   5.081
14133W        W86481  29.071  25.506   2.328
14134W        W86482  20.250  21.537   1.434
14135W        W86483  19.125  29.076   0.826
14136W        W86484  27.473   1.464   4.745
14137W        W86485   2.897  18.711  14.818
14138W        W86486  32.062   3.935   1.813
14139W        W86487  43.801  28.059  11.119
14140W        W86488  16.109  13.286  13.435
14141W        W86489   2.935  42.836  13.926
14142W        W86490  17.784  44.846   2.663
14143W        W86491  26.539  38.392  11.036
14144W        W86492  16.803  38.942   0.481
14145W        W86493   9.764   7.221   0.810
14146W        W86494  27.012  29.955  13.923
14147W        W86495  13.724  35.512   1.789
14148W        W86496  33.401   6.848  14.884
14149W        W86497  19.240   6.911   1.279
14150W        W86498  25.650  41.928  13.398
14151W        W86499   9.789  38.513  10.609
14152W        W86500  18.097  29.660   1.811
14153W        W86501  24.135   6.236   1.705
14154W        W86502  22.053   4.934   2.184
14155W        W86503   1.478  33.115  11.497
14156W        W86504  24.222  38.921  12.357
14157W        W86505  16.258  24.085   0.354
14158W        W86506   2.469  19.167  10.532
14159W        W86507   2.939  17.107  10.477
14160W        W86508   8.757  37.470   3.637
14161W        W86509  14.605  33.620  11.884
14162W        W86510  20.741  28.109  10.588
14163W        W86511  27.450   3.950  14.925
14164W        W86512  35.985   8.839   0.814
14165W        W86513  10.310  38.526   3.682
14166W        W86514  17.610  26.504  11.477
14167W        W86515  36.524  42.946   5.101
14168W        W86516  24.051   6.249   0.479
14169W        W86517  34.020  42.521   2.183
14170W        W86518  43.960   4.333   4.274
14171W        W86519  16.699  34.537   1.804
14172W        W86520  32.452  21.191   1.879
14173W        W86521  36.419   7.863  13.434
14174W        W86522   6.294  38.540   2.762
14175W        W86523  28.973  11.214   0.825
14176W        W86524  36.015  10.262  13.490
14177W        W86525  32.013   6.244   0.331
14178W        W86526  28.077  37.913  11.526
14179W        W86527  14.596  15.793   4.822
14180W        W86528  34.995  32.490  14.967
14181W        W86529   2.891  10.362   0.301
14182W        W86530   4.432  27.178  13.835
14183W        W86531   1.772   0.462   4.135
14184W        W86532  15.109  14.242  12.471
14185W        W86533   3.787  20.557  10.519
14186W        W86534  15.601   5.380  10.965
14187W        W86535  16.717  28.602  11.421
14188W        W86536  10.264  15.597   1.276
14189W        W86537  22.147   0.420  10.627
14190W        W86538  34.009  32.447  13.902
14191W        W86539  15.603   8.673   0.300
14192W        W86540  17.102   4.744  12.861
14193W        W86541  34.526  41.931  12.029
14194W        W86542  37.365  16.622   3.840
14195W        W86543  17.090  36.371  13.508
14196W        W86544  39.496  22.535  12.409
14197W        W86545  26.655  35.916   0.482
14198W        W86546  27.103  33.496  11.501
14199W        W86547   6.349  20.561   1.417
14200W        W86548  41.908  28.070  14.451
14201W        W86549  12.610  16.764   4.676
14202W        W86550  35.363  25.156  12.060
14203W        W86551  37.391   5.703   2.769
14204W        W86552   4.391  26.611   3.636
14205W        W86553  26.469   0.834  11.040
14206W        W86554  42.307  29.080   0.436
14207W        W86555  28.025  18.628   3.161
14208W        W86556  18.224   2.899  14.994
14209W        W86557  31.431   5.197  10.136
14210W        W86558  19.145  38.490  12.518
14211W        W86559  10.243  34.540  13.315
14212W        W86560  36.047  14.103  11.573
14213W        W86561   1.930  33.454   0.257
14214W        W86562  21.705  41.333   3.750
14215W        W86563  42.779  25.040   4.217
14216W        W86564  40.498  39.367   0.879
14217W        W86565  21.207  19.202   3.689
14218W        W86566  33.893  35.876   1.428
14219W        W86567  10.284   2.466  12.576
14220W        W86568  34.385  42.898  13.464
14221W        W86569  17.125   8.796  14.404
14222W        W86570  16.107  12.666  14.984
14223W        W86571  42.808  24.479  11.454
14224W        W86572  31.523  41.016   3.723
14225W        W86573  18.253   5.706  12.516
14226W        W86574  28.162  41.475  13.949
14227W        W86575  13.662  22.717  11.542
14228W        W86576  36.400  15.329   2.792
14229W        W86577  38.009  36.487   4.255
14230W        W86578   8.741   4.824  10.919
14231W        W86579  19.617  33.079  13.794
14232W        W86580  31.548   4.870   1.317
14233W        W86581  14.323  43.801  13.510
14234W        W86582   5.926   8.674  11.954
14235W        W86583   9.845  36.859  11.450
14236W        W86584  26.572  26.961   3.338
14237W        W86585  33.390  33.534   3.665
14238W        W86586  16.607  23.045  12.911
14239W        W86587  13.324  41.953   1.702
14240W        W86588  36.429   2.811   1.355
14241W        W86589   1.378   0.279  11.494
14242W        W86590  26.531   5.828  14.318
14243W        W86591  27.977  25.117  11.457
14244W        W86592  12.799   4.915  14.316
14245W        W86593  29.924  38.516   0.455
14246W        W86594  25.181  36.990  12.411
14247W        W86595   1.900  28.974   4.784
14248W        W86596   5.910  10.852   3.699
14249W        W86597   6.198   3.346  10.508
14250W        W86598  32.992  18.160   1.364
14251W        W86599   1.317  14.715   0.456
14252W        W86600  11.158   8.227   3.368
14253W        W86601  16.806  10.675  13.441
14254W        W86602  31.424  16.661   1.228
14255W        W86603  30.927  11.672   4.801
14256W        W86604  33.526   4.232  11.453
14257W        W86605  20.721  41.913  13.031
14258W        W86606  15.749  34.615   3.269
14259W        W86607  41.892  27.478  10.489
14260W        W86608  25.489   3.374   1.764
14261W        W86609  28.095   2.332  10.578
14262W        W86610   9.283  22.198   5.673
14263W        W86611  31.065  24.186  11.538
14264W        W86612  42.363  19.580  14.826
14265W        W86613  15.325  44.503   1.818
14266W        W86614  19.566  16.719  12.385
14267W        W86615  35.939  32.426   3.683
14268W        W86616  27.622  29.612  12.856
14269W        W86617  31.526  44.008   1.762
14270W        W86618  30.430  12.245  13.487
14271W        W86619  30.109  16.666  13.332
14272W        W86620  24.045  35.067  12.440
14273W        W86621  34.561   9.753  11.938
14274W        W86622   7.857  17.760   2.812
14275W        W86623  24.481  22.722  11.592
14276W        W86624  32.885  34.098  13.970
14277W        W86625  22.126  23.677  14.990
14278W        W86626  38.902  39.524   0.474
14279W        W86627  27.462  11.352   1.758
14280W        W86628  25.046  36.450  14.770
14281W        W86629  16.118  41.434   4.604
14282W        W86630  39.815  34.512   4.765
14283W        W86631  27.189  14.792   0.756
14284W        W86632  43.321  32.507   4.766
14285W        W86633   1.302  29.063  10.979
14286W        W86634   4.325  41.502   4.757
14287W        W86635  21.537  34.517   0.830
14288W        W86636  38.339   6.829   5.788
14289W        W86637   9.649  26.053   2.664
14290W        W86638  25.474  21.184  10.922
14291W        W86639  10.213  16.583  11.067
14292W        W86640  39.827  18.652  14.313
14293W        W86641  42.972  34.919  14.832
14294W        W86642  12.761  11.839  14.994
14295W        W86643  22.051   1.845   0.826
14296W        W86644  37.878  37.397   4.231
14297W        W86645  27.559  13.706   4.801
14298W        W86646  29.924   4.796   0.926
14299W        W86647   1.814  34.968  12.457
14300W        W86648  11.290  26.471   4.260
14301W        W86649   2.240  31.569   0.885
14302W        W86650  17.143  41.946  13.895
14303W        W86651  14.718  40.489  14.797
14304W        W86652  21.739   7.369  11.881
14305W        W86653  37.844  43.421  12.384
14306W        W86654  14.112   4.717  14.783
14307W        W86655  36.020  36.409   0.911
14308W        W86656   9.793  21.695  11.910
14309W        W86657  31.529  25.101   3.847
14310W        W86658  32.021  18.623  12.402
14311W        W86659  13.610  15.628  12.417
14312W        W86660  22.600  22.717   4.616
14313W        W86661  43.935  17.717   3.677
14314W        W86662   3.320  25.705   4.699
14315W        W86663  28.952   0.835  11.101
14316W        W86664   0.943  25.536   4.298
14317W        W86665  35.892  24.106   4.744
14318W        W86666   5.367  14.803   0.931
14319W        W86667   7.412  13.638  12.392
14320W        W86668  37.383  24.514   1.371
14321W        W86669  43.804  19.071   4.209
14322W        W86670  17.280  25.050   5.109
14323W        W86671  35.074   1.332   4.656
14324W        W86672  36.506  31.054   2.397
14325W        W86673  21.572  10.767   3.862
14326W        W86674  36.517  36.079   4.684
14327W        W86675  15.595  19.141   1.721
14328W        W86676   3.951  33.405   3.737
14329W        W86677  39.042   4.440  13.052
14330W        W86678  12.707  39.369   3.355
14331W        W86679  16.261  39.527   2.721
14332W        W86680  25.665  13.642   2.807
14333W        W86681  42.862  18.118  14.478
14334W        W86682  16.567   2.918   1.772
14335W        W86683  20.065  11.642  14.841
14336W        W86684  15.799  40.024  11.021
14337W        W86685  39.521  37.551  13.804
14338W        W86686  15.163  40.804   4.653
14339W        W86687  43.874  43.428   3.376
14340W        W86688  42.416   6.841  12.927
14341W        W86689  25.700  15.637   4.218
14342W        W86690   2.402  38.552  11.937
14343W        W86691   8.367   2.739   2.312
14344W        W86692  33.087  28.158   1.375
14345W        W86693   2.443  44.764   0.480
14346W        W86694   9.394   3.925   3.275
14347W        W86695  10.878  31.514   4.261
14348W        W86696  39.329   6.694  11.603
14349W        W86697  11.205  40.860   2.768
14350W        W86698  27.165  10.656   2.822
14351W        W86699   9.370  44.817   3.858
14352W        W86700   0.983   6.876  12.479
14353W        W86701  39.901  11.669  13.967
14354W        W86702   6.905  41.851   1.777
14355W        W86703  37.889  18.550  11.547
14356W        W86704   9.173  19.059  13.399
14357W        W86705  36.071  28.960   3.338
14358W        W86706  40.046  40.410   2.864
14359W        W86707  23.074   5.710  12.947
14360W        W86708  11.642  16.169   4.347
14361W        W86709  35.439   0.326   0.892
14362W        W86710  23.596  30.599  12.412
14363W        W86711  32.079  35.599  14.329
14364W        W86712  21.732  29.108   3.303
14365W        W86713  44.484  27.655   3.685
14366W        W86714  28.577  41.396  12.353
14367W        W86715   3.413  39.017   3.779
14368W        W86716  12.776   2.948   0.942
14369W        W86717  11.161  37.462  12.020
14370W        W86718  41.990  17.589  11.078
14371W        W86719  36.951  36.070   4.663
14372W        W86720  12.777  32.407  11.491
14373W        W86721  17.572  17.691   2.246
14374W        W86722   9.168   7.306  11.095
14375W        W86723  41.845  14.102   1.252
14376W        W86724  31.968  35.073  14.303
14377W        W86725  22.514   0.983   4.774
14378W        W86726  38.910  43.494   5.190
14379W        W86727  21.591  33.400   2.266
14380W        W86728   2.290  23.731  10.961
14381W        W86729  11.774  20.185  13.990
14382W        W86730  17.074  13.199   3.240
14383W        W86731  23.201  37.501  13.399
14384W        W86732  21.679  37.478   2.732
14385W        W86733   7.867  25.140  10.464
14386W        W86734  34.573   0.305   0.849
14387W        W86735   7.881  43.832  13.028
14388W        W86736  38.967  22.233  12.072
14389W        W86737   2.407  36.388   0.288
14390W        W86738  21.671  15.765   3.309
14391W        W86739  13.683  34.877  10.990
14392W        W86740  39.957  24.540  12.349
14393W        W86741  25.071  40.487   1.870
14394W        W86742  29.652  28.553   1.450
14395W        W86743  33.938  41.379  14.281
14396W        W86744  37.943  26.085   2.712
14397W        W86745  37.570  13.145   3.839
14398W        W86746  23.579  13.716   0.751
14399W        W86747  16.216  18.287   3.631
14400W        W86748  35.374  31.591   0.918
14401W        W86749  41.519  37.572  13.812
14402W        W86750  14.799  19.748   3.780
14403W        W86751  15.177  14.168  14.016
14404W        W86752   8.281  27.579  10.940
14405W        W86753  40.834   7.377  11.508
14406W        W86754   0.874  36.519  11.968
14407W        W86755   0.437  32.934  13.882
14408W        W86756  21.585  27.110  13.326
14409W        W86757  25.705   1.733   5.322
14410W        W86758   9.869  42.975   3.291
14411W        W86759   1.840  38.826  10.501
14412W        W86760   8.894  23.704  13.540
14413W        W86761   9.748  24.711   2.343
14414W        W86762  25.627  14.141  11.051
14415W        W86763  13.825  24.560   2.356
14416W        W86764   1.737   6.812  13.977
14417W        W86765  14.608  11.178   4.347
14418W        W86766  10.237   2.858   2.363
14419W        W86767  19.047  44.290   2.891
14420W        W86768   0.964  41.996   4.177
14421W        W86769  10.383   6.683   0.428
14422W        W86770  10.805   0.970  10.509
14423W        W86771  35.385  12.671  11.588
14424W        W86772  39.953  31.013   3.811
14425W        W86773  32.904  13.602   1.834
14426W        W86774  41.863  15.105  12.016
14427W        W86775  26.631  17.250  11.864
14428W        W86776   5.238  38.893  11.480
14429W        W86777   3.438  29.925  14.275
14430W        W86778  36.937  14.265   1.254
14431W        W86779  22.580  22.999  13.391
14432W        W86780  21.073  43.016   5.197
14433W        W86781  28.546  39.916   4.653
14434W        W86782  21.661   7.256  14.490
14435W        W86783   7.363  20.274  13.533
14436W        W86784  43.852  25.059  13.378
14437W        W86785  14.317   4.293   0.432
14438W        W86786  33.998  16.187  10.949
14439W        W86787  22.606  33.004   4.662
14440W        W86788  42.811  26.640  11.578
14441W        W86789  13.802   3.741  14.348
14442W        W86790  32.055  38.467  11.585
14443W        W86791   3.356  36.483   1.269
14444W        W86792   9.846  16.075  12.007
14445W        W86793  29.427  33.610  14.458
14446W        W86794   4.386  13.600  10.897
14447W        W86795   3.435  32.469  12.477
14448W        W86796  29.022  11.265   3.736
14449W        W86797  40.032  37.081  10.615
14450W        W86798  18.292   7.679   0.379
14451W        W86799   3.866  27.088   0.962
14452W        W86800  18.063  41.815   3.195
14453W        W86801  10.181  28.117   0.328
14454W        W86802  33.451  35.957  14.326
14455W        W86803  40.429   6.712   4.606
14456W        W86804  43.344   2.873   2.879
14457W        W86805  19.214  23.679  12.365
14458W        W86806  41.439   7.707   2.859
14459W        W86807  25.023  41.979  14.876
14460W        W86808  25.098  36.080  10.514
14461W        W86809  37.391  20.034  14.331
14462W        W86810  20.567  35.567  14.847
14463W        W86811  21.091   7.706  13.848
14464W        W86812  20.238  42.796   0.371
14465W        W86813  21.129  15.622  10.094
14466W        W86814  31.992  11.369  13.798
14467W        W86815  32.033  27.027   4.817
14468W        W86816  11.811  10.653  14.392
14469W        W86817  41.339  43.978  14.931
14470W        W86818  35.442   1.800   4.733
14471W        W86819  14.314  25.166  14.364
14472W        W86820  34.975  20.699  13.941
14473W        W86821  36.021  37.010  10.467
14474W        W86822  12.664  30.527  12.036
14475W        W86823  21.256   4.437  10.530
14476W        W86824  16.233  42.008  14.986
14477W        W86825  34.528  23.159   1.799
14478W        W86826  39.027  17.086  13.391
14479W        W86827  16.125  18.265   0.754
14480W        W86828  32.904  32.543   1.803
14481W        W86829  23.068   1.865   4.749
14482W        W86830  32.603   7.793  10.983
14483W        W86831  34.389  36.586  10.420
14484W        W86832  38.999  26.179  11.994
14485W        W86833  43.380  30.152   4.264
14486W        W86834  30.459   1.835   1.785
14487W        W86835  26.508   8.172   0.339
14488W        W86836  19.178  41.361   0.347
14489W        W86837  13.638  24.485   1.735
14490W        W86838  21.554  21.566  12.839
14491W        W86839  29.013  23.204   4.814
14492W        W86840  13.140   3.447  12.868
14493W        W86841  43.871  24.717  13.381
14494W        W86842  19.654  36.514  14.492
14495W        W86843  37.041  37.477   4.644
14496W        W86844  43.501  33.614  12.384
14497W        W86845  27.969   5.695  12.059
14498W        W86846  14.813  11.663  11.464
14499W        W86847  29.545   0.965  13.527
14500W        W86848  12.653  29.113   4.121
14501W        W86849  12.270   0.892   3.765
14502W        W86850  22.046  33.031  13.957
14503W        W86851  22.197  43.515   0.335
14504W        W86852  24.993   3.826   3.168
14505W        W86853   9.310  38.325  11.098
14506W        W86854  19.098  18.754  11.559
14507W        W86855  11.741  17.141  13.803
14508W        W86856  26.505  27.686   0.254
14509W        W86857   1.407  29.638   4.829
14510W        W86858  40.315  12.641  12.990
14511W        W86859   8.797  39.989  12.359
14512W        W86860  42.960  36.997  12.555
14513W        W86861  12.654  23.039   2.268
14514W        W86862   1.747  11.678   3.829
14515W        W86863  41.332  19.760  13.879
14516W        W86864  42.931  44.423   5.164
14517W        W86865  36.396   4.227   0.315
14518W        W86866  30.959   9.866   3.175
14519W        W86867  24.109  24.975   0.757
14520W        W86868  22.515   3.737  13.002
14521W        W86869  18.222   1.947  12.499
14522W        W86870   1.931  24.615   1.346
14523W        W86871  12.847  44.289   4.760
14524W        W86872   4.425   5.743   2.741
14525W        W86873  30.622   1.253   4.273
14526W        W86874  31.577   1.814   3.699
14527W        W86875  20.658  12.186   0.896
14528W        W86876  17.647  28.000  14.479
14529W        W86877  32.429  36.998  12.023
14530W        W86878  44.985  28.467   0.781
14531W        W86879  44.960  33.431  12.364
14532W        W86880  10.818  24.169   1.800
14533W        W86881  11.794   9.786  12.475
14534W        W86882   3.277  29.484  14.332
14535W        W86883  36.383  33.476  13.496
14536W        W86884  26.615  42.869  11.078
14537W        W86885  40.017  21.172  14.970
14538W        W86886  21.163  10.247  14.026
14539W        W86887  25.188  20.171  13.929
14540W        W86888   7.889  10.213   4.150
14541W        W86889  31.913  15.100  12.928
14542W        W86890  35.052  18.704   4.667
14543W        W86891  42.331   8.764   4.227
14544W        W86892   7.858  43.905   0.773
14545W        W86893   8.888   0.271  13.433
14546W        W86894  37.015  19.535   0.913
14547W        W86895   8.332   6.324   2.691
14548W        W86896   1.880  38.408   1.896
14549W        W86897  34.501   5.255   4.295
14550W        W86898  17.192  41.365  14.947
14551W        W86899   8.359  12.211   0.879
14552W        W86900  38.857  27.446  13.520
14553W        W86901  23.600  16.223  11.109
14554W        W86902  10.871  23.010   1.343
14555W        W86903  15.663  40.893   0.474
14556W        W86904  29.664   2.730  12.923
14557W        W86905  44.804  10.723   0.781
14558W        W86906  43.343  40.864  11.983
14559W        W86907  31.104   7.806   0.332
14560W        W86908   8.742  21.135  14.279
14561W        W86909   3.302   5.713   9.947
14562W        W86910  11.749  22.655   2.238
14563W        W86911  19.552  13.299   2.394
14564W        W86912  30.458  25.197  13.809
14565W        W86913  14.279  15.577  13.419
14566W        W86914  43.449   5.414  12.357
14567W        W86915  21.168  33.995   2.782
14568W        W86916   4.705   2.925  11.495
14569W        W86917   8.871  23.169  12.961
14570W        W86918  39.437   6.781   3.684
14571W        W86919  43.017  17.272  11.050
14572W        W86920  43.404  16.222  13.910
14573W        W86921   7.232  35.533   1.380
14574W        W86922  11.710  41.795   2.231
14575W        W86923  38.862  33.933   3.175
14576W        W86924   6.427   4.887   5.315
14577W        W86925  43.327  24.621   0.286
14578W        W86926  32.069  27.504  10.481
14579W        W86927  26.469  32.408  11.864
14580W        W86928  28.150   3.378  14.811
14581W        W86929  17.136   1.337   4.795
14582W        W86930  11.796   7.331  11.435
14583W        W86931  22.014  25.624   0.836
14584W        W86932  13.676  36.907  11.946
14585W        W86933  24.609   9.688  11.911
14586W        W86934  10.686  21.534  13.883
14587W        W86935  20.673  30.640   3.222
14588W        W86936   1.246  33.581   4.342
14589W        W86937  15.624  22.546  13.307
14590W        W86938   4.446   7.863   0.276
14591W        W86939  28.023  35.462  14.284
14592W        W86940  14.233  12.749   3.350
14593W        W86941   6.322  17.606   4.709
14594W        W86942  16.629  37.970  14.796
14595W        W86943  38.828  38.329  11.061
14596W        W86944  27.181   7.404   1.853
14597W        W86945  28.526  18.088   4.731
14598W        W86946  19.671   1.247  13.902
14599W        W86947  36.072   6.699  10.084
14600W        W86948  43.970  34.464   3.209
14601W        W86949  19.081   6.388  10.562
14602W        W86950  25.605  13.139   4.669
14603W        W86951  16.799  27.551   0.897
14604W        W86952  35.549  40.418  14.437
14605W        W86953  13.754  39.888  13.358
14606W        W86954  25.525  14.683  14.788
14607W        W86955  14.110  26.156  12.862
14608W        W86956  26.035   8.179   2.708
14609W        W86957  21.546  25.033  12.919
14610W        W86958  34.049  15.778   1.797
14611W        W86959   1.403  14.336   2.375
14612W        W86960  12.627  14.598  12.419
14613W        W86961   3.447  23.221  10.434
14614W        W86962  40.935  39.490   2.727
14615W        W86963  12.650   9.646   1.923
14616W        W86964  19.619  39.505  14.869
14617W        W86965  28.070  25.049  12.905
14618W        W86966  33.405  17.163   2.296
14619W        W86967  44.490  33.972  12.904
14620W        W86968  44.902  38.417  13.476
14621W        W86969  10.165  22.126  14.401
14622W        W86970  36.490   0.810  11.445
14623W        W86971  43.924  27.025   1.891
14624W        W86972  18.145   8.892   4.325
14625W        W86973  18.125  11.169   3.215
14626W        W86974  26.620  26.697  11.577
14627W        W86975  20.646  21.233   4.630
14628W        W86976  43.909  34.522  12.407
14629W        W86977  13.751   3.844  11.999
14630W        W86978  35.107  28.141   1.909
14631W        W86979  30.163  33.084   4.661
14632W        W86980  32.947   5.345   1.252
14633W        W86981   1.891  42.894  13.829
14634W        W86982  24.150  24.160   2.897
14635W        W86983   9.708  34.385  12.554
14636W        W86984   0.921  44.349   0.937
14637W        W86985  31.968  11.648  10.943
14638W        W86986  14.807   2.838   3.339
14639W        W86987  12.334  16.166  11.038
14640W        W86988  12.649   2.846  12.415
14641W        W86989  18.211  22.504   4.828
14642W        W86990  27.474  17.202  10.634
14643W        W86991   5.227  30.479   1.434
14644W        W86992  44.975  37.994  14.323
14645W        W86993   9.848  31.521   2.239
14646W        W86994  36.887  14.599  13.937
14647W        W86995  39.415  11.757  11.426
14648W        W86996  44.003  20.231   1.800
14649W        W86997  41.829  37.042  14.289
14650W        W86998  34.419  36.958   3.320
14651W        W86999   2.267  38.470   2.871
14652W        W87000  27.458  12.146  13.319
14653W        W87001  29.594  27.638  14.450
14654W        W87002  14.128  34.013  14.974
14655W        W87003  10.659  42.917  12.461
14656W        W87004  13.289   2.271   2.255
14657W        W87005  25.096  11.700   4.786
14658W        W87006  19.724  13.111  12.869
14659W        W87007  34.900  27.669   4.642
14660W        W87008  27.662   8.346  10.463
14661W        W87009  44.377  39.919   2.814
14662W        W87010   4.212  39.877  13.317
14663W        W87011  19.745  42.356  12.528
14664W        W87012  17.802  43.988  13.359
14665W        W87013  16.130  28.934   5.205
14666W        W87014  19.122   0.833  11.987
14667W        W87015  15.651   8.876  12.034
14668W        W87016  11.333   6.719  10.473
14669W        W87017  39.061  25.122  11.881
14670W        W87018  23.712  35.969   3.247
14671W        W87019   1.283  14.829   2.178
14672W        W87020  13.274   2.418  13.057
14673W        W87021   0.287  26.023  14.977
14674W        W87022  35.977  32.048  13.503
14675W        W87023  21.691  23.193   0.481
14676W        W87024   6.298  20.208  11.461
14677W        W87025  41.530  21.720  14.282
14678W        W87026   6.322  41.825   3.248
14679W        W87027  42.393  11.248  11.424
14680W        W87028  23.547  10.153  13.472
14681W        W87029   7.851  37.485  13.866
14682W        W87030  14.729  35.518   3.154
14683W        W87031  35.014  24.205   2.868
14684W        W87032  14.621   9.884  12.491
14685W        W87033  28.635  31.568   1.843
14686W        W87034   6.749   5.788  14.885
14687W        W87035   4.224  24.643   0.359
14688W        W87036  10.193   1.817   1.923
14689W        W87037  22.112  34.974  12.465
14690W        W87038  36.352  15.697   2.256
14691W        W87039  34.023  22.600  14.941
14692W        W87040  23.092  42.972   4.330
14693W        W87041  30.998   1.828  14.334
14694W        W87042  33.550  15.693  12.889
14695W        W87043   7.802  39.431   3.751
14696W        W87044  13.198  35.537  14.330
14697W        W87045  21.028  26.987   4.816
14698W        W87046   1.836  23.586  11.410
14699W        W87047   5.382  16.137  14.856
14700W        W87048  25.006   3.752   2.375
14701W        W87049   8.186  38.994   2.184
14702W        W87050  16.222  26.667   0.938
14703W        W87051  34.584  32.431  12.042
14704W        W87052  16.185  25.126  14.423
14705W        W87053  17.100  23.054   1.796
14706W        W87054  27.692  38.399  10.603
14707W        W87055  41.534  34.608  13.524
14708W        W87056  11.825  12.144   0.966
14709W        W87057  14.803  27.495  14.791
14710W        W87058  40.814  37.367  10.433
14711W        W87059  32.083  15.134   2.687
14712W        W87060  22.034  41.023  13.314
14713W        W87061  35.879  32.066  12.421
14714W        W87062   8.802  15.579  11.481
14715W        W87063  22.105  28.657   3.850
14716W        W87064  17.061  20.742   2.360
14717W        W87065  19.683  39.482  12.981
14718W        W87066  27.041  13.760  14.772
14719W        W87067  16.171  39.850  12.009
14720W        W87068   9.169  12.654   4.810
14721W        W87069   4.738   7.376  14.312
14722W        W87070  29.995  31.571  11.048
14723W        W87071  27.034  12.197   3.809
14724W        W87072  34.887  39.505   2.815
14725W        W87073  30.055  12.791   2.903
14726W        W87074   6.308  32.429   2.831
14727W        W87075  23.123  25.985   3.731
14728W        W87076   2.421  12.732   3.757
14729W        W87077  35.911  43.461   2.863
14730W        W87078  19.754  15.156  12.468
14731W        W87079   5.755  43.947  11.123
14732W        W87080   0.812  37.953  13.960
14733W        W87081  18.112   3.388  14.382
14734W        W87082  24.586  38.455  14.469
14735W        W87083  31.103   0.986   3.847
14736W        W87084  41.462   0.805  14.453
14737W        W87085   5.760  34.972  14.503
14738W        W87086  27.648   9.851  14.889
14739W        W87087   0.953   8.298  11.871
14740W        W87088  12.275  32.602   4.819
14741W        W87089  38.073  20.714   4.346
14742W        W87090  25.133  23.690   2.354
14743W        W87091  22.622  33.588  10.042
14744W        W87092   7.889  26.513  10.927
14745W        W87093  40.857   6.213   3.842
14746W        W87094   3.902  27.618   1.412
14747W        W87095   9.842   3.398   3.650
14748W        W87096  38.924  41.328   4.645
14749W        W87097  13.765  44.262   4.129
14750W        W87098  25.988  36.531  12.865
14751W        W87099  14.672   6.734  12.478
14752W        W87100  19.762  34.483   3.150
14753W        W87101  18.135  30.512   1.389
14754W        W87102  31.978  37.408   1.430
14755W        W87103  28.936  23.691  11.105
14756W        W87104  19.667  28.960  13.877
14757W        W87105  35.462  13.832  11.895
14758W        W87106  28.574  25.625  13.889
14759W        W87107   7.353   0.951  13.493
14760W        W87108   5.880   1.412   1.378
14761W        W87109  21.194  21.688   0.838
14762W        W87110  44.979  16.232  11.885
14763W        W87111  13.281  40.329  10.416
14764W        W87112  34.561   0.436  11.070
14765W        W87113   4.861  30.524  14.900
14766W        W87114   8.353  40.008  14.356
14767W        W87115  10.305  37.546   3.757
14768W        W87116  44.894   2.962   1.896
14769W        W87117  22.084   4.283  13.475
14770W        W87118  26.140  31.571   4.320
14771W        W87119  29.551  18.588  11.377
14772W        W87120  19.648  13.138  14.393
14773W        W87121   8.747  35.511  11.498
14774W        W87122  42.930  28.014  12.455
14775W        W87123  32.565  18.587   0.317
14776W        W87124  23.166  12.217   0.912
14777W        W87125  42.483  10.638  15.000
14778W        W87126  25.566   6.781   2.363
14779W        W87127  23.625  16.706   3.220
14780W        W87128  23.519  44.842  11.886
14781W        W87129  40.799   3.411   1.827
14782W        W87130  25.565  16.184  11.115
14783W        W87131   8.880  37.865  14.278
14784W        W87132   9.720   1.377  13.463
14785W        W87133   7.260   0.757  13.840
14786W        W87134  32.501   7.303   2.243
14787W        W87135  24.672  37.953  11.393
14788W        W87136  14.212  22.633  10.906
14789W        W87137   6.797  12.271   3.205
14790W        W87138  15.117   4.758   9.968
14791W        W87139  38.454  24.671   4.630
14792W        W87140  35.523  25.215   0.827
14793W        W87141  31.541  27.151  12.390
14794W        W87142  25.986  26.592   0.282
14795W        W87143  10.691   2.298   3.173
14796W        W87144  13.777  40.348   4.329
14797W        W87145  12.236  30.451  13.946
14798W        W87146  43.412  33.515   2.191
14799W        W87147   5.332  15.122  11.495
14800W        W87148   1.789  37.898   3.800
14801W        W87149  18.665   8.880   1.260
14802W        W87150  28.653  10.194  13.541
14803W        W87151  29.618   5.424   1.782
14804W        W87152  42.383   9.323  11.891
14805W        W87153   5.862  16.246  14.932
14806W        W87154  38.553  20.157   4.155
14807W        W87155  36.980  20.532   3.657
14808W        W87156   7.736   5.786  11.489
14809W        W87157  26.462  12.812  13.926
14810W        W87158  26.125  35.387   3.357
14811W        W87159  37.408  22.182   5.622
14812W        W87160   1.246  38.442  12.900
14813W        W87161  34.589  22.061  14.779
14814W        W87162  27.540  32.555   2.720
14815W        W87163  43.357  15.304   2.868
14816W        W87164  24.724  11.199   0.905
14817W        W87165  22.686  16.229   1.417
14818W        W87166  19.145   1.446   4.703
14819W        W87167   8.870  19.740   4.308
14820W        W87168  39.320  19.125   0.821
14821W        W87169  35.417  11.133  13.471
14822W        W87170   7.682  42.410  11.882
14823W        W87171  22.745  27.594   3.248
14824W        W87172  23.202  14.295  12.072
14825W        W87173  20.098  14.730   2.704
14826W        W87174  42.775  30.122  13.499
14827W        W87175  37.911   8.259  12.459
14828W        W87176  12.310  11.748  10.434
14829W        W87177  42.911  16.276  10.540
14830W        W87178  16.098  22.709  10.430
14831W        W87179   0.987  34.463  13.360
14832W        W87180  10.813  11.743  11.474
14833W        W87181  18.702  26.024   4.696
14834W        W87182   9.271   8.826   1.348
14835W        W87183  18.253  38.405   1.755
14836W        W87184  28.587  10.745   0.774
14837W        W87185  15.781   0.769  13.967
14838W        W87186  43.010  24.190   1.755
14839W        W87187  10.751   9.275   3.777
14840W        W87188  37.036  17.148  14.901
14841W        W87189   0.937  27.634   1.840
14842W        W87190  17.795  41.877  12.499
14843W        W87191  17.569   9.826   0.432
14844W        W87192  15.614  39.045  10.969
14845W        W87193  13.165   1.250   3.386
14846W        W87194  21.159  34.575   2.183
14847W        W87195   5.360  11.297  12.070
14848W        W87196  42.826  17.781  10.556
14849W        W87197  44.816  10.357  12.940
14850W        W87198   5.776  17.599  10.914
14851W        W87199   0.336  34.412  12.482
14852W        W87200  12.843  39.815   3.865
14853W        W87201  17.228  25.035  11.389
14854W        W87202   6.749  41.305  14.409
14855W        W87203  40.309  21.716   4.824
14856W        W87204  37.533  26.146   3.649
14857W        W87205  43.307  34.099   0.840
14858W        W87206  26.150  24.976  13.309
14859W        W87207  11.186  41.965  13.840
14860W        W87208  19.607   7.811  12.550
14861W        W87209  43.005  28.506  13.989
14862W        W87210   7.208  29.982   1.914
14863W        W87211  20.748  40.022  11.945
14864W        W87212  36.389  27.015   0.923
14865W        W87213   1.456  43.869   3.221
14866W        W87214  27.969   4.271  13.013
14867W        W87215  36.512   0.770  11.964
14868W        W87216  23.721   9.243   0.260
14869W        W87217  23.014   9.155  13.938
14870W        W87218  41.505   3.917   5.267
14871W        W87219  43.289  19.634  13.951
14872W        W87220  44.868  11.266   3.685
14873W        W87221  38.398  17.135   1.932
14874W        W87222  30.146  40.013  11.534
14875W        W87223  43.954  15.242  13.836
14876W        W87224  15.212  29.543   2.355
14877W        W87225  14.268  31.078  11.909
14878W        W87226  14.320  21.718  10.935
14879W        W87227   8.788   6.418   2.186
14880W        W87228  19.608  33.587  13.991
14881W        W87229  10.228  33.608  14.325
14882W        W87230  11.310  22.542  10.970
14883W        W87231  40.441   7.861   4.265
14884W        W87232  29.122  37.336  13.513
14885W        W87233  29.473  30.148   1.713
14886W        W87234   5.291  36.562  11.948
14887W        W87235   2.267  42.292  13.936
14888W        W87236  13.310  20.049   0.795
14889W        W87237  23.231   8.682  13.901
14890W        W87238  38.331  43.409  13.842
14891W        W87239  30.553  33.583   2.839
14892W        W87240  24.716  28.008  11.924
14893W        W87241  13.706  38.419   4.137
14894W        W87242  26.564  33.470   1.923
14895W        W87243   8.759  23.491  11.383
14896W        W87244  17.306   7.793   3.296
14897W        W87245  38.866  23.498   4.769
14898W        W87246  22.247  41.865  11.966
14899W        W87247   0.796   5.305   1.450
14900W        W87248  25.070  29.468   0.332
14901W        W87249  36.973  30.612  12.895
14902W        W87250  10.178  15.322   1.217
14903W        W87251  22.723  15.138   0.736
14904W        W87252  34.974  34.064   1.256
14905W        W87253  15.264  31.518   3.214
14906W        W87254  34.574   9.839   2.744
14907W        W87255  28.453  20.547   4.240
14908W        W87256  37.920  13.834   0.856
14909W        W87257  11.830  23.008   4.692
14910W        W87258   1.804  23.586  11.880
14911W        W87259   5.217   9.652  14.000
14912W        W87260  24.653  28.157   2.312
14913W        W87261  38.418  15.819   1.397
14914W        W87262  13.716  13.685   4.668
14915W        W87263  42.470   6.204   3.186
14916W        W87264   3.365  16.169  11.062
14917W        W87265  29.542  15.584  14.479
14918W        W87266  28.511  19.039  12.843
14919W        W87267  16.736  36.968   4.342
14920W        W87268  32.578  19.688  14.005
14921W        W87269  36.370  11.146   0.264
14922W        W87270  32.035   6.408   3.220
14923W        W87271  32.444   6.857  14.329
14924W        W87272  23.090   7.316   9.630
14925W        W87273  29.530  29.014  12.383
14926W        W87274  30.536  10.305  13.012
14927W        W87275   3.239   5.855   1.850
14928W        W87276  17.610  28.640  11.998
14929W        W87277  16.256  43.432  10.636
14930W        W87278   8.675   4.223   4.267
14931W        W87279  38.828  26.481  12.449
14932W        W87280  26.151   1.818   2.671
14933W        W87281  35.003  16.120  13.012
14934W        W87282  21.550  17.716  10.457
14935W        W87283  19.263  35.444   3.632
14936W        W87284   0.779  11.857  12.878
14937W        W87285  42.941   3.256   1.236
14938W        W87286   8.746  12.236   4.204
14939W        W87287  27.173  37.391   2.326
14940W        W87288   4.763  43.406  11.556
14941W        W87289  33.121  21.180   3.691
14942W        W87290  18.126   5.439  12.351
14943W        W87291  39.813  22.085  12.895
14944W        W87292  11.294   0.788  12.906
14945W        W87293  27.006  23.139   4.685
14946W        W87294  22.645  30.606   1.743
14947W        W87295   0.984  36.580  12.406
14948W        W87296  37.340  24.539   4.833
14949W        W87297  40.523  18.073  14.968
14950W        W87298   2.854  13.712   3.352
14951W        W87299  36.908  38.506  14.975
14952W        W87300   8.881  27.137  11.032
14953W        W87301  16.161  19.241  14.315
14954W        W87302   3.893  37.086  10.465
14955W        W87303  40.025  17.566   4.626
14956W        W87304  20.599  36.086   3.753
14957W        W87305  34.014  25.986   0.871
14958W        W87306  17.677  11.253  13.355
14959W        W87307  12.171   1.970  13.060
14960W        W87308   9.723  35.857   0.835
14961W        W87309  24.651  40.998  11.973
14962W        W87310  23.588  42.337  13.864
14963W        W87311  23.656   9.878  12.010
14964W        W87312   5.257   7.825  10.525
14965W        W87313  23.124  35.897   4.669
14966W        W87314  38.026   0.852   3.364
14967W        W87315  27.669  17.223   0.370
14968W        W87316   0.448  22.084   0.289
14969W        W87317   3.725   8.801  14.875
14970W        W87318  42.952  20.185   3.361
14971W        W87319  33.877  32.993   1.896
14972W        W87320  36.881  24.683  14.472
14973W        W87321  37.550  16.769  10.888
14974W        W87322  35.002  17.213  13.992
14975W        W87323  11.698   8.239   0.736
14976W        W87324  31.139  22.651   4.333
14977W        W87325   9.389  29.993   4.322
14978W        W87326  40.539  38.000   3.279
14979W        W87327  20.209  39.478  11.005
14980W        W87328  35.364  40.008   0.915
14981W        W87329  10.774   4.777  13.363
14982W        W87330  25.616  44.786   3.842
14983W        W87331  15.323  40.313   4.261
14984W        W87332  16.731  39.508  11.502
14985W        W87333  38.073  12.237   0.332
14986W        W87334  24.154   3.787  13.037
14987W        W87335  13.775  35.976  12.359
14988W        W87336   2.953  31.627   4.289
14989W        W87337   7.394  22.526  13.997
14990W        W87338  40.950   6.330  12.579
14991W        W87339  25.474  40.911  11.575
14992W        W87340  42.315  39.423  12.092
14993W        W87341  23.101   2.254   4.127
14994W        W87342  10.230  35.899  13.373
14995W        W87343  15.689   1.407  14.915
14996W        W87344  39.935  32.111  13.378
14997W        W87345   7.275   9.168   1.259
14998W        W87346  19.061  40.943  12.956
14999W        W87347  17.165  14.614  13.481
15000W        W87348  29.945  43.425   0.456
15001W        W87349   5.849   5.884   1.856
15002W        W87350  14.812  42.028   1.425
15003W        W87351  30.945  42.910  10.492
15004W        W87352  38.547  32.026   4.227
15005W        W87353  10.151   2.965   5.293
15006W        W87354  44.877  24.218  14.947
15007W        W87355   6.818   3.263  14.356
15008W        W87356  38.525   5.405  11.396
15009W        W87357  19.069  39.032  13.438
15010W        W87358   5.707  19.681  11.514
15011W        W87359  40.338  40.026   4.140
15012W        W87360  20.233  37.830  10.422
15013W        W87361  29.631  33.518   2.827
15014W        W87362   5.422  42.792  10.446
15015W        W87363  25.623  28.054   1.914
15016W        W87364  40.464   8.892  12.541
15017W        W87365  18.626   6.750   2.842
15018W        W87366  31.505  32.555  12.946
15019W        W87367  30.535   5.401   4.199
15020W        W87368  44.300  42.028  12.025
15021W        W87369   6.322   5.694  10.514
15022W        W87370  41.395  27.487   4.837
15023W        W87371  27.996  37.571   2.279
15024W        W87372   4.265  42.975  12.005
15025W        W87373  22.059  15.750  12.079
15026W        W87374  36.575  10.254   0.896
15027W        W87375  41.991  13.723   3.354
15028W        W87376  11.748  16.709  14.877
15029W        W87377   4.406  31.928   3.709
15030W        W87378  32.501  23.021   3.841
15031W        W87379   3.912   1.777   1.717
15032W        W87380  21.114  37.408  11.484
15033W        W87381  37.003  10.162   4.316
15034W        W87382  26.993  31.900  11.585
15035W        W87383  10.210  41.448  13.920
15036W        W87384  27.559  42.839  13.823
15037W        W87385  13.313  24.640   4.250
15038W        W87386  12.664  10.754   3.799
15039W        W87387  32.927  18.712  10.608
15040W        W87388  24.143  21.056   9.978
15041W        W87389  20.703   7.351   0.316
15042W        W87390  26.984  11.174   0.249
15043W        W87391  44.864  17.287  10.532
15044W        W87392  11.220   6.730   5.779
15045W        W87393  12.282   7.837   0.905
15046W        W87394   8.756  15.591  13.838
15047W        W87395  26.077  25.045   1.935
15048W        W87396  41.395  36.947   0.428
15049W        W87397  20.765   2.891   1.274
15050W        W87398   9.379  13.827  12.026
15051W        W87399  26.159  38.328  13.462
15052W        W87400  44.465  21.068  14.357
15053W        W87401   7.794   7.812   1.695
15054W        W87402  27.976  32.628  11.019
15055W        W87403  13.787   4.238   9.535
15056W        W87404  44.481  13.314  13.963
15057W        W87405  44.000   7.901   1.733
15058W        W87406  27.675   8.684   1.812
15059W        W87407  42.802  38.440  14.338
15060W        W87408  31.620  28.952   0.254
15061W        W87409  43.453  32.903   0.903
15062W        W87410   2.928  24.166   0.752
15063W        W87411   5.720  24.707   4.605
15064W        W87412  35.594   0.765   4.705
15065W        W87413   9.804  33.095   5.091
15066W        W87414   8.201  35.513   0.734
15067W        W87415   9.799  40.412   2.720
15068W        W87416  37.024  19.272  10.597
15069W        W87417  31.469  37.035  14.503
15070W        W87418  10.199  32.094   2.788
15071W        W87419  29.624  43.392  11.982
15072W        W87420  44.393  23.561   3.722
15073W        W87421  37.884   9.790  14.278
15074W        W87422  26.593   6.336  14.412
15075W        W87423   0.352  23.693  11.865
15076W        W87424  33.562   6.897  13.037
15077W        W87425  31.064  28.961  11.946
15078W        W87426  12.346  40.334   2.418
15079W        W87427  23.658   4.360  12.844
15080W        W87428  37.411   4.446  11.062
15081W        W87429   0.465   6.407   1.339
15082W        W87430  11.653  20.032   1.907
15083W        W87431  34.398  37.527  14.902
15084W        W87432  38.334  14.146   0.402
15085W        W87433  11.201  15.688  10.924
15086W        W87434  10.221  29.168   2.765
15087W        W87435  30.145   2.894   4.281
15088W        W87436   6.841  29.089  14.898
15089W        W87437  20.718   7.724   3.282
15090W        W87438  28.577  27.164   2.406
15091W        W87439  34.948  26.606  12.441
15092W        W87440  25.704   0.744   2.695
15093W        W87441   7.341  19.675  12.416
15094W        W87442  11.695  11.625   3.758
15095W        W87443  32.947  21.186  12.565
15096W        W87444  40.372  41.450   0.935
15097W        W87445  10.375  33.058  14.912
15098W        W87446   1.285  36.420  12.419
15099W        W87447  22.028   8.888   0.818
15100W        W87448  22.615  42.839   4.122
15101W        W87449  28.122  23.546   2.677
15102W        W87450  27.548  10.729   2.868
15103W        W87451  25.181   0.261  11.522
15104W        W87452  42.895   5.750   1.248
15105W        W87453  14.602   2.743  11.547
15106W        W87454   7.233  26.585   5.198
15107W        W87455  26.964  20.062  11.558
15108W        W87456  13.179   1.407   1.322
15109W        W87457   5.794   9.286   2.228
15110W        W87458  35.875  34.984   0.299
15111W        W87459  12.614  37.560  10.575
15112W        W87460  11.255  23.174   0.862
15113W        W87461   5.810  44.496  12.848
15114W        W87462  39.925  39.347   3.824
15115W        W87463  42.403  29.619   1.298
15116W        W87464  28.054  31.585  10.985
15117W        W87465  34.930  37.341  10.098
15118W        W87466  27.581  25.002  11.003
15119W        W87467   7.402   5.399  12.509
15120W        W87468  12.195   5.308  12.939
15121W        W87469  28.452  41.899   3.206
15122W        W87470  15.646   3.956   1.770
15123W        W87471   5.713  39.323   0.336
15124W        W87472  26.101  28.613   4.179
15125W        W87473   3.952   4.772   1.297
15126W        W87474  29.428  17.666  10.916
15127W        W87475  42.849  30.476  13.324
15128W        W87476  18.291  18.642   4.139
15129W        W87477  11.759  21.518  13.052
15130W        W87478  27.667  30.543  13.964
15131W        W87479  26.537  31.547   3.743
15132W        W87480  11.725   8.339   1.718
15133W        W87481  18.597   0.879   1.824
15134W        W87482   2.405  23.726   0.343
15135W        W87483  35.973  36.418  13.010
15136W        W87484   7.346  42.421   3.186
15137W        W87485   0.312  19.543   2.772
15138W        W87486   7.378  15.208  12.502
15139W        W87487  20.620  32.009   4.795
15140W        W87488   7.309   5.209   1.840
15141W        W87489  38.960  31.621   1.386
15142W        W87490  35.520  20.738   5.132
15143W        W87491  15.179  21.247  14.919
15144W        W87492   3.946   2.852  12.997
15145W        W87493  15.308  11.286   2.787
15146W        W87494   2.895  44.761  12.913
15147W        W87495   9.355  19.650   9.930
15148W        W87496  38.399  27.636  14.766
15149W        W87497  37.375   8.889   0.943
15150W        W87498  33.082   2.444   3.218
15151W        W87499  36.897  19.146  11.419
15152W        W87500  37.972   8.701   3.312
15153W        W87501  22.550  43.336  14.390
15154W        W87502  16.184   4.765  14.911
15155W        W87503  40.987  25.639   0.910
15156W        W87504  34.106  40.900   4.154
15157W        W87505  13.754  24.721   0.366
15158W        W87506   2.277  25.105  10.535
15159W        W87507   1.848   7.709  14.390
15160W        W87508  26.555  37.005   3.367
15161W        W87509  40.547  12.239  13.908
15162W        W87510  12.157  36.581  13.428
15163W        W87511  33.543  31.033  10.610
15164W        W87512  43.398  20.670   0.397
15165W        W87513  44.275  32.995  12.350
15166W        W87514   2.956  38.462   1.413
15167W        W87515  40.864  21.548   2.228
15168W        W87516  39.867  28.171   3.179
15169W        W87517  12.738   9.677  11.463
15170W        W87518  20.714  40.868   1.718
15171W        W87519  20.746  30.495   4.278
15172W        W87520  28.042  21.667   1.254
15173W        W87521  11.308  16.123  10.611
15174W        W87522  37.576   8.220  14.484
15175W        W87523  14.812  37.977  11.523
15176W        W87524  28.442   4.270   3.195
15177W        W87525  31.430  22.640   2.271
15178W        W87526  26.520  30.946   1.890
15179W        W87527  40.413  36.589  14.419
15180W        W87528  24.526  42.402   3.334
15181W        W87529  22.065   8.741   3.767
15182W        W87530  30.926   5.234   4.732
15183W        W87531  29.991   0.321   4.263
15184W        W87532   9.184  28.148  12.375
15185W        W87533  38.953  20.153   0.384
15186W        W87534   2.231   3.449  13.427
15187W        W87535  14.726   8.727  13.404
15188W        W87536  19.177  18.210  12.445
15189W        W87537   9.815  12.631   0.468
15190W        W87538   4.912  24.519   4.274
15191W        W87539   4.897  13.671  11.535
15192W        W87540   5.387  38.368  13.961
15193W        W87541   8.853   7.299  10.558
15194W        W87542  38.840  14.100   0.458
15195W        W87543  41.520  15.740  12.941
15196W        W87544   0.420  32.931   3.155
15197W        W87545  19.676   9.344   3.241
15198W        W87546  13.655  13.136  13.817
15199W        W87547  41.786  13.329   0.360
15200W        W87548   2.803  44.437  13.966
15201W        W87549  32.912  34.982   2.229
15202W        W87550  37.486  37.047   1.720
15203W        W87551  39.866  13.673   4.140
15204W        W87552  32.928   2.941   4.831
15205W        W87553  23.151  37.557   4.133
15206W        W87554   6.821  21.068  11.892
15207W        W87555  31.968  31.451   4.765
15208W        W87556  17.070  30.422  11.911
15209W        W87557  22.104   2.242   4.601
15210W        W87558  30.948   8.663   1.222
15211W        W87559  27.109   6.280  13.400
15212W        W87560  17.097  38.326   0.336
15213W        W87561  24.661  10.342   2.365
15214W        W87562  15.242  13.803   2.351
15215W        W87563  26.065   1.800   4.222
15216W        W87564  33.552  13.797  13.852
15217W        W87565  27.536   8.706   4.118
15218W        W87566  34.420  14.690   0.862
15219W        W87567  38.518  29.581   0.469
15220W        W87568  16.570  15.748   3.705
15221W        W87569  34.548  23.225  14.312
15222W        W87570  41.333  31.949   3.680
15223W        W87571  34.069  17.707  13.406
15224W        W87572  34.448  24.208  13.064
15225W        W87573  28.630  23.100   2.842
15226W        W87574   4.291  39.996  11.516
15227W        W87575  34.098  34.997  12.996
15228W        W87576  36.387  37.033   4.784
15229W        W87577   0.384  21.755   0.736
15230W        W87578   9.738   4.848  10.045
15231W        W87579  18.609   7.201   1.864
15232W        W87580  20.187  36.395   3.792
15233W        W87581  28.502  22.568   3.174
15234W        W87582  35.971  25.178  14.808
15235W        W87583  12.678  26.551   5.099
15236W        W87584   4.925  12.126  11.899
15237W        W87585  24.707  10.369  13.813
15238W        W87586  28.040  16.208   1.701
15239W        W87587  11.722  22.152   5.196
15240W        W87588  25.633  22.625  12.923
15241W        W87589  10.200   0.982  11.067
15242W        W87590  32.570  17.180   4.340
15243W        W87591   8.232   0.464   0.473
15244W        W87592  27.476  11.797  11.904
15245W        W87593  22.732   4.830  13.321
15246W        W87594  28.058  11.185   0.852
15247W        W87595  35.480  16.081   0.916
15248W        W87596  16.721   9.849  12.959
15249W        W87597  36.407  31.456   4.820
15250W        W87598  18.677  25.095   3.782
15251W        W87599  11.863   2.932   2.814
15252W        W87600  18.762  43.020   2.788
15253W        W87601  26.684  44.988  13.397
15254W        W87602  27.945   6.823  14.883
15255W        W87603  39.316  38.980   2.227
15256W        W87604  29.961   0.776   2.840
15257W        W87605  17.736   7.350  11.400
15258W        W87606  19.654  41.414  14.490
15259W        W87607  29.962  39.320   3.745
15260W        W87608  20.140  14.257   1.290
15261W        W87609  33.554  35.873   2.196
15262W        W87610  44.446  25.102  11.448
15263W        W87611  41.909  34.987  11.554
15264W        W87612  42.954  38.051  11.034
15265W        W87613  21.230   5.284   0.289
15266W        W87614  28.463   5.820   2.769
15267W        W87615  29.458  15.658  14.913
15268W        W87616  14.141  15.206  14.448
15269W        W87617   4.264   1.277  11.989
15270W        W87618  27.072  13.844   4.287
15271W        W87619  38.829  32.916   2.224
15272W        W87620  38.993  23.690  14.504
15273W        W87621  39.899  35.021  12.496
15274W        W87622  25.130  34.503   1.302
15275W        W87623  13.323  40.926  11.858
15276W        W87624  34.908  44.311   1.411
15277W        W87625  28.053  37.366   0.284
15278W        W87626  14.826  43.458  10.632
15279W        W87627  25.479  27.091   1.932
15280W        W87628  15.594   2.305  14.912
15281W        W87629   6.373   6.702   1.927
15282W        W87630  17.669  27.684  11.868
15283W        W87631   4.924  37.016   0.869
15284W        W87632  12.159   4.212   4.352
15285W        W87633   4.759  34.488  10.156
15286W        W87634  25.186  40.843  11.055
15287W        W87635   4.844   5.303   4.134
15288W        W87636  19.111  13.835   4.767
15289W        W87637  14.823  18.713   3.223
15290W        W87638   7.411  36.506   3.294
15291W        W87639  44.956   7.785   4.192
15292W        W87640   0.921   9.695   0.481
15293W        W87641  12.674   3.376  10.635
15294W        W87642  41.788  13.155  11.062
15295W        W87643   7.700  14.150  10.482
15296W        W87644  27.970  14.734   4.647
15297W        W87645  21.579  24.074   0.778
15298W        W87646  44.981  22.110   2.284
15299W        W87647  42.940   2.409   4.119
15300W        W87648  14.202  26.018   0.281
15301W        W87649  24.678  44.310   4.814
15302W        W87650  17.142   1.858  14.004
15303W        W87651  43.842  37.982   2.718
15304W        W87652  30.582  30.926  14.912
15305W        W87653  27.078  18.256   4.647
15306W        W87654  10.667   6.206  11.394
15307W        W87655   3.362   7.724   0.458
15308W        W87656   8.755  16.707   1.399
15309W        W87657  12.295  20.657   4.756
15310W        W87658  17.259  18.564   9.954
15311W        W87659  13.198   8.783  10.099
15312W        W87660  41.425  33.437   1.867
15313W        W87661  32.609  18.200  12.563
15314W        W87662  40.500  30.549   4.708
15315W        W87663   7.864   2.913  14.855
15316W        W87664  24.506  23.707   1.909
15317W        W87665  14.748   8.847   3.684
15318W        W87666  14.184   4.419  12.873
15319W        W87667  15.291  30.069   0.305
15320W        W87668  32.494  30.970  11.088
15321W        W87669  26.097  32.124  12.867
15322W        W87670   3.278  28.081  13.886
15323W        W87671  42.306  33.002  14.771
15324W        W87672  33.584  20.111   0.947
15325W        W87673  39.381  24.642  14.858
15326W        W87674  38.997  11.373  11.429
15327W        W87675   7.833  10.331   1.214
15328W        W87676   9.181  13.273  14.988
15329W        W87677   3.338  12.799   1.747
15330W        W87678  33.382  21.071   4.783
15331W        W87679  36.369  14.824   2.824
15332W        W87680  41.299  24.045  11.553
15333W        W87681  23.092  34.408  13.803
15334W        W87682  44.990  16.226   0.765
15335W        W87683  10.821   3.744   2.808
15336W        W87684   0.394  42.845  13.327
15337W        W87685  18.284   4.235   2.854
15338W        W87686  19.111  17.238   2.823
15339W        W87687  28.621  30.418   1.917
15340W        W87688  13.685   0.851   4.211
15341W        W87689  22.633   5.251   0.482
15342W        W87690  17.240  21.514   3.647
15343W        W87691  42.818  28.051   3.380
15344W        W87692  33.108  10.793  10.615
15345W        W87693  42.355  32.428  13.455
15346W        W87694   5.311  42.325  14.815
15347W        W87695  13.706  37.858  12.499
15348W        W87696  23.135  18.211   1.347
15349W        W87697  30.620  37.080  14.764
15350W        W87698  42.513  24.581  10.586
15351W        W87699  24.087  17.214  10.917
15352W        W87700  21.695  29.646   1.866
15353W        W87701  21.234  34.586  12.852
15354W        W87702  10.186   9.752   1.715
15355W        W87703  14.626  32.544  11.070
15356W        W87704  27.022  39.945  11.586
15357W        W87705  14.233   1.345   4.115
15358W        W87706  33.031  27.569   1.348
15359W        W87707  33.494  19.283  14.860
15360W        W87708  42.406  40.520  11.981
15361W        W87709   5.784  22.037   2.838
15362W        W87710  16.149  26.583   4.294
15363W        W87711   9.171  14.253   3.841
15364W        W87712  38.967  16.724   3.720
15365W        W87713  25.602  38.340   1.777
15366W        W87714   4.901  15.672  11.927
15367W        W87715   9.260  32.974  13.326
15368W        W87716  39.021  27.113  13.466
15369W        W87717  26.997   6.914  13.060
15370W        W87718  30.927   1.810  14.841
15371W        W87719  14.097  26.466   2.808
15372W        W87720  21.685  37.533   2.229
15373W        W87721  37.520  13.640  10.494
15374W        W87722  33.523   9.867   0.346
15375W        W87723  40.506  41.500   4.630
15376W        W87724   7.335  43.482  14.826
15377W        W87725  14.781  35.007  13.376
15378W        W87726  12.212  41.473  14.000
15379W        W87727  23.674  11.151   2.200
15380W        W87728   0.437  35.593  12.871
15381W        W87729  26.629  26.495  12.467
15382W        W87730  39.921  17.143   0.453
15383W        W87731  27.190  21.230  13.038
15384W        W87732  31.009  14.632   3.148
15385W        W87733  35.908  44.285  11.376
15386W        W87734  13.279   4.729   5.249
15387W        W87735   3.892   8.180  13.957
15388W        W87736  36.088  34.986  11.070
15389W        W87737  25.588  23.703   9.932
15390W        W87738   7.753   6.385   1.422
15391W        W87739   5.394   1.971  12.077
15392W        W87740  43.416  43.009  14.895
15393W        W87741  43.013   0.370  12.082
15394W        W87742  27.094  20.121   2.315
15395W        W87743  31.436  24.178  12.962
15396W        W87744  30.536  16.126  11.947
15397W        W87745  30.135  36.845  14.973
15398W        W87746  34.955   8.317  12.436
15399W        W87747   9.243   5.796  11.965
15400W        W87748  10.840  25.070  13.438
15401W        W87749   3.897   9.248  12.553
15402W        W87750  36.027   3.250  14.402
15403W        W87751  15.628   4.871   0.739
15404W        W87752   8.288  37.404   4.305
15405W        W87753  39.971  16.800  13.852
15406W        W87754  38.989  27.952  13.456
15407W        W87755  25.492  22.550   1.390
15408W        W87756  18.640  12.699  11.388
15409W        W87757  40.336  36.552  10.940
15410W        W87758  18.690  12.179  14.282
15411W        W87759   9.654   7.796  10.471
15412W        W87760  16.224  38.501  13.925
15413W        W87761  42.303  15.733  11.425
15414W        W87762  26.125  25.577   4.296
15415W        W87763  39.850   5.237  12.495
15416W        W87764  42.409   1.775   2.903
15417W        W87765  31.059  36.505  11.070
15418W        W87766  43.302  41.967  11.969
15419W        W87767  37.490   4.752  13.402
15420W        W87768  35.095   4.768   3.705
15421W        W87769  39.827  34.993   3.212
15422W        W87770  40.454  24.663  10.463
15423W        W87771   3.268   9.225   4.130
15424W        W87772   3.804   5.709   3.215
15425W        W87773  39.447  37.521   2.717
15426W        W87774  33.961  23.148   1.898
15427W        W87775  10.811  29.587  11.874
15428W        W87776  12.705  36.012  10.934
15429W        W87777   4.906  30.914   1.386
15430W        W87778  17.682  39.376   2.807
15431W        W87779  34.484  23.516   2.877
15432W        W87780  10.871  26.072  12.400
15433W        W87781  34.932  30.625  14.967
15434W        W87782  26.655   7.208  12.363
15435W        W87783  38.060  29.455  13.029
15436W        W87784  38.851  34.467   4.187
15437W        W87785  16.740  30.094   9.524
15438W        W87786  17.699  21.618  13.422
15439W        W87787  35.994   4.941   2.363
15440W        W87788  21.671  22.075   3.272
15441W        W87789  25.626  29.972  12.341
15442W        W87790   4.880  34.013   1.241
15443W        W87791  34.574   2.229   3.869
15444W        W87792  37.443  31.552  14.309
15445W        W87793  31.596  18.553  11.910
15446W        W87794  35.498  14.149   0.896
15447W        W87795  12.855  22.186  10.619
15448W        W87796   8.755   1.393   3.295
15449W        W87797  24.621  33.442   4.644
15450W        W87798  38.506   8.866  11.599
15451W        W87799   5.806   6.193   1.318
15452W        W87800  10.165  38.354   1.241
15453W        W87801  28.672  19.551  11.473
15454W        W87802   6.880  14.281  10.536
15455W        W87803  14.305  12.723   1.878
15456W        W87804  22.662  41.854   4.600
15457W        W87805  27.488  21.221   1.732
15458W        W87806  23.155  43.870   2.363
15459W        W87807  30.561  31.635  13.393
15460W        W87808  16.620  39.497   3.654
15461W        W87809  37.371   1.824  11.975
15462W        W87810  19.587  23.131  13.487
15463W        W87811  20.251  30.995   2.194
15464W        W87812  12.287  25.684   1.915
15465W        W87813  32.399  27.654   1.896
15466W        W87814   2.339   0.349   3.769
15467W        W87815  26.114  28.511  11.979
15468W        W87816   1.879  14.816   1.449
15469W        W87817  30.071  19.162   0.250
15470W        W87818   4.873   0.478   1.451
15471W        W87819   3.374  10.690   0.465
15472W        W87820  36.433  18.092   5.303
15473W        W87821  28.048  39.373   4.275
15474W        W87822  30.043  38.402  14.780
15475W        W87823  10.269  10.287   2.776
15476W        W87824  33.087  42.353  10.919
15477W        W87825  14.313  10.831  12.889
15478W        W87826  25.656   1.746   2.751
15479W        W87827  31.436  30.145   2.703
15480W        W87828  35.395  42.843  13.855
15481W        W87829  22.146  35.073  14.433
15482W        W87830  37.870  20.040   4.783
15483W        W87831  29.933  23.119   0.775
15484W        W87832  34.578   8.348  10.490
15485W        W87833  10.643  25.997  13.398
15486W        W87834  35.550   3.937   4.764
15487W        W87835  22.212  42.868  13.853
15488W        W87836  39.046   0.449  11.068
15489W        W87837  27.132   8.265  14.818
15490W        W87838  42.505  23.133  11.925
15491W        W87839  30.967  43.399  12.903
15492W        W87840  18.587   6.216   3.858
15493W        W87841  13.260  22.227   0.289
15494W        W87842  11.726  28.556  14.817
15495W        W87843  13.346  28.674   3.669
15496W        W87844  37.867  24.991  14.815
15497W        W87845  37.948  34.070  14.384
15498W        W87846  20.029  31.586  12.456
15499W        W87847  42.939  24.483   3.356
15500W        W87848   0.484  30.499  12.030
15501W        W87849  23.709  23.037   4.620
15502W        W87850  44.923  35.376  11.090
15503W        W87851  28.072  25.618   0.962
15504W        W87852  37.850   4.831  13.922
15505W        W87853  17.080  43.884  13.906
15506W        W87854  17.781   2.325  11.943
15507W        W87855  33.993  36.960   9.984
15508W        W87856  34.876   4.792  13.049
15509W        W87857  27.119  18.108  12.974
15510W        W87858   5.317  13.799  11.581
15511W        W87859   1.744   3.931   3.719
15512W        W87860   1.797  34.462   0.476
15513W        W87861  14.600  15.128   4.719
15514W        W87862  37.982  42.853  12.075
15515W        W87863   2.791  34.915  11.050
15516W        W87864  26.990  31.447   4.735
15517W        W87865  26.657  36.385   0.780
15518W        W87866  15.803   0.421  14.465
15519W        W87867  11.215  43.429   2.408
15520W        W87868  28.649  33.494  14.376
15521W        W87869  37.939  36.025   4.783
15522W        W87870  17.563  35.506  14.889
15523W        W87871  22.176  28.520  10.501
15524W        W87872  21.126  25.181   1.889
15525W        W87873  32.062  16.639  10.519
15526W        W87874   5.697  28.014  11.885
15527W        W87875   7.334  25.212  11.583
15528W        W87876  19.565  34.414   4.624
15529W        W87877  41.032  41.909   4.650
15530W        W87878  31.524  24.634   2.874
15531W        W87879  43.967   3.896   1.401
15532W        W87880   6.740  21.054   4.285
15533W        W87881  42.330  16.633   1.870
15534W        W87882  22.517  25.199  10.638
15535W        W87883   0.912  13.112   0.797
15536W        W87884  24.582  13.763   2.409
15537W        W87885  44.279  20.239   0.732
15538W        W87886  19.045  19.067  13.437
15539W        W87887   4.384   9.674   0.864
15540W        W87888  33.562  15.692   5.106
15541W        W87889  29.631  12.193   3.262
15542W        W87890  43.392   2.277  11.055
15543W        W87891   4.787  19.046  13.489
15544W        W87892  21.576   4.807  12.351
15545W        W87893  27.962   0.747   2.853
15546W        W87894  21.176  11.836  12.344
15547W        W87895  43.367  29.116  14.404
15548W        W87896   2.866  27.992  12.903
15549W        W87897   5.739   4.292  12.511
15550W        W87898  10.712  42.906   2.669
15551W        W87899  14.186  43.861  14.333
15552W        W87900  33.561  32.476   4.608
15553W        W87901  30.980  20.103  11.473
15554W        W87902  34.581   6.214   0.924
15555W        W87903  24.497   3.770  11.404
15556W        W87904  25.998   2.853   0.455
15557W        W87905  43.487  25.489   4.147
15558W        W87906  43.382  22.123  13.538
15559W        W87907  35.870  30.921   1.737
15560W        W87908  17.102  10.663   3.313
15561W        W87909  20.126  35.908   0.776
15562W        W87910   8.690  16.625   3.701
15563W        W87911  19.195  35.042   1.790
15564W        W87912  29.103   2.951   4.692
15565W        W87913  14.656  26.035  12.548
15566W        W87914   6.246  40.001  10.104
15567W        W87915   6.313  17.112   1.295
15568W        W87916  17.735  16.797  12.074
15569W        W87917  27.949  10.753   9.968
15570W        W87918  31.083  31.916   1.924
15571W        W87919  44.484   1.924  10.444
15572W        W87920  15.603   3.261   9.960
15573W        W87921  36.569   1.239  13.380
15574W        W87922  11.793  38.035  11.976
15575W        W87923  42.795  31.508   0.862
15576W        W87924  24.102  21.216  12.060
15577W        W87925  36.533  12.259   4.700
15578W        W87926  30.129  35.910  10.539
15579W        W87927  33.415  31.992  10.605
15580W        W87928  29.947  10.825  14.797
15581W        W87929  41.797  15.322   2.237
15582W        W87930  41.304  18.087  14.313
15583W        W87931  43.398   1.379   1.697
15584W        W87932  40.954  44.814  10.547
15585W        W87933  39.994  19.643   2.319
15586W        W87934  17.661  26.041  11.444
15587W        W87935   4.927  36.045  12.495
15588W        W87936   7.786   2.840  10.596
15589W        W87937  35.903  43.490   0.352
15590W        W87938   1.751  26.464  10.411
15591W        W87939  38.384  44.863  14.887
15592W        W87940  27.034  28.632   1.824
15593W        W87941  43.968  41.811   3.223
15594W        W87942  39.855  20.542   1.375
15595W        W87943  43.472  37.083  13.333
15596W        W87944  38.991  11.820  12.525
15597W        W87945  43.826  20.036  12.441
15598W        W87946  25.566  27.615  11.108
15599W        W87947  34.422  44.494   2.853
15600W        W87948  32.099  33.879   3.717
15601W        W87949  32.046   4.901  12.928
15602W        W87950  30.446  25.063   3.148
15603W        W87951  43.309   1.261   4.249
15604W        W87952  26.041   0.831   4.342
15605W        W87953  35.510  29.533   4.686
15606W        W87954  36.422  14.238  11.862
15607W        W87955   4.262  29.111  14.827
15608W        W87956  39.864   8.898  14.472
15609W        W87957   6.219   8.774   4.811
15610W        W87958   9.370  41.835  14.315
15611W        W87959   9.246  18.139  11.918
15612W        W87960   6.825  11.674   1.701
15613W        W87961  25.702   2.727   0.776
15614W        W87962  41.348  12.751   0.414
15615W        W87963   9.270  32.102   0.938
15616W        W87964  22.663   4.700   3.226
15617W        W87965  28.015  28.554   3.298
15618W        W87966  28.034  13.716   1.336
15619W        W87967  31.043  37.881  13.842
15620W        W87968   5.257  29.173   1.834
15621W        W87969   2.733  25.599   1.322
15622W        W87970  37.492  21.184  12.038
15623W        W87971  30.097  25.519  11.516
15624W        W87972  42.855   2.753  11.896
15625W        W87973  23.170  27.999  12.851
15626W        W87974  33.395  29.451  14.290
15627W        W87975  22.602   4.220  12.501
15628W        W87976  14.618   2.347   0.436
15629W        W87977  13.121  42.359  13.982
15630W        W87978   0.262  42.801   1.424
15631W        W87979  26.482   2.373   4.826
15632W        W87980  11.246  31.530  14.017
15633W        W87981   7.781  19.735   0.290
15634W        W87982   3.731  27.159  10.636
15635W        W87983  31.009  37.393  12.841
15636W        W87984   1.881  22.606  10.411
15637W        W87985  28.049  37.374   1.872
15638W        W87986  30.553  28.929  13.988
15639W        W87987  21.109   4.322   1.238
15640W        W87988  14.802   1.479  13.437
15641W        W87989   5.330  25.646   2.687
15642W        W87990  38.499  16.736  14.458
15643W        W87991  19.168  31.420   3.338
15644W        W87992  20.688  21.622  10.411
15645W        W87993  37.456  29.143  10.591
15646W        W87994  26.006  16.307  13.810
15647W        W87995  18.660  31.526   1.420
15648W        W87996  12.173  22.126  11.598
15649W        W87997  25.161  32.591  10.935
15650W        W87998  17.072  17.747  14.428
15651W        W87999  38.011  17.095  12.030
15652W        W88000  36.072  25.026   2.791
15653W        W88001   7.765  11.760   4.132
15654W        W88002  23.001   1.454  14.937
15655W        W88003   8.282  21.235  12.529
15656W        W88004   6.913   6.890   1.710
15657W        W88005   3.228  33.912   1.890
15658W        W88006  17.749  23.119   3.183
15659W        W88007  15.585  12.145   3.367
15660W        W88008  29.591  38.972   2.235
15661W        W88009  12.691  42.996   2.702
15662W        W88010  34.118  31.896   4.265
15663W        W88011  38.360  11.631  10.517
15664W        W88012  26.977  19.185   3.805
15665W        W88013   6.400  35.091   2.792
15666W        W88014  12.267  24.541   4.708
15667W        W88015  18.202   1.923  13.538
15668W        W88016  13.662  31.526   2.349
15669W        W88017  35.106  24.505   3.720
15670W        W88018  34.511  39.420   1.803
15671W        W88019  19.715  24.497  14.834
15672W        W88020   6.236   0.364   0.735
15673W        W88021   6.700  38.354  11.508
15674W        W88022   1.922  23.639   0.778
15675W        W88023  35.004   5.729  11.564
15676W        W88024  27.559  17.153   1.333
15677W        W88025  26.502   6.195   0.437
15678W        W88026  32.885  44.894  11.003
15679W        W88027  41.466  28.639  12.076
15680W        W88028  24.993  41.473  12.389
15681W        W88029  27.986   1.309  11.513
15682W        W88030   7.809   3.258   3.290
15683W        W88031  13.339  38.994   0.336
15684W        W88032  37.962  17.655   0.848
15685W        W88033   1.248  26.089   3.245
15686W        W88034  23.020  18.776   1.931
15687W        W88035  19.112  20.158   3.288
15688W        W88036   5.697   6.382   2.206
15689W        W88037  39.492   7.355   2.342
15690W        W88038  42.419   7.189   1.327
15691W        W88039  19.238  42.874   3.754
15692W        W88040  11.369  18.055   2.211
15693W        W88041  43.829  17.622  12.961
15694W        W88042  35.524  32.088  12.524
15695W        W88043  24.527  40.860  13.873
15696W        W88044   3.897   7.283   4.245
15697W        W88045  36.564  24.640   1.779
15698W        W88046  38.542   1.444  10.923
15699W        W88047  41.862  23.672  11.997
15700W        W88048  23.582  42.781  14.969
15701W        W88049  17.748   8.390   3.296
15702W        W88050   4.898  17.136  10.609
15703W        W88051  16.156   2.964   4.721
15704W        W88052  43.459  44.865  12.464
15705W        W88053   2.814  25.144   3.690
15706W        W88054  23.205  17.274   0.783
15707W        W88055  42.368  29.999   2.762
15708W        W88056  40.912  44.454  11.993
15709W        W88057  24.981  23.582  12.842
15710W        W88058   0.893  23.148   0.301
15711W        W88059  12.162  21.159   4.304
15712W        W88060  29.152  21.018  12.999
15713W        W88061  30.612  37.986  10.483
15714W        W88062  27.941   6.768  13.833
15715W        W88063  39.554   3.225   2.676
15716W        W88064   0.981   1.951  14.911
15717W        W88065   3.263  22.017  13.808
15718W        W88066  27.116  18.154  10.507
15719W        W88067  27.171  27.670  13.857
15720W        W88068  17.629  39.484   2.399
15721W        W88069  25.070   9.781   2.179
15722W        W88070  40.801  30.550   1.870
15723W        W88071  19.052  14.828   4.653
15724W        W88072   8.328  11.652   1.847
15725W        W88073  38.983   5.307   0.467
15726W        W88074  32.936  15.270  14.413
15727W        W88075  12.637   8.252   1.851
15728W        W88076   4.737  12.747   9.989
15729W        W88077  44.902  41.873   2.217
15730W        W88078   2.903  26.581  12.538
15731W        W88079   4.718  33.096  10.605
15732W        W88080  11.666   6.338  10.485
15733W        W88081   9.386  20.747   2.783
15734W        W88082  30.633  12.264   2.390
15735W        W88083  25.662  14.785  11.521
15736W        W88084  21.614  27.176   4.186
15737W        W88085   4.338  22.588  14.473
15738W        W88086  44.892  17.181  10.150
15739W        W88087   3.885  40.400  13.540
15740W        W88088   5.846  34.073   3.826
15741W        W88089   1.453  26.111  14.773
15742W        W88090  29.503  40.932   0.778
15743W        W88091   7.878   5.904  13.832
15744W        W88092  30.053  34.560  10.993
15745W        W88093  19.684  22.645   2.729
15746W        W88094  34.886  31.580  12.515
15747W        W88095   2.891  23.657  10.568
15748W        W88096   2.819  17.108   3.733
15749W        W88097  17.292  31.149   0.819
15750W        W88098  32.551  10.671  13.477
15751W        W88099  11.808   6.757   1.813
15752W        W88100  38.453   0.787  12.880
15753W        W88101  28.565   0.936   2.255
15754W        W88102  38.330  25.135   2.733
15755W        W88103  27.129  43.008   3.210
15756W        W88104  17.158  31.970   4.306
15757W        W88105  22.192  17.789   4.776
15758W        W88106  42.997  31.588  11.585
15759W        W88107  43.983  10.158   1.900
15760W        W88108  19.052   9.368  13.062
15761W        W88109  28.626  16.681   3.665
15762W        W88110   1.904  37.971   1.911
15763W        W88111  30.152   1.822   4.244
15764W        W88112  19.281  30.475  12.860
15765W        W88113   0.487  20.154  12.348
15766W        W88114  12.343  43.928  13.844
15767W        W88115   9.209  35.090  14.910
15768W        W88116  27.138  11.668  13.312
15769W        W88117  14.215   1.751  14.940
15770W        W88118  20.031  40.393  10.521
15771W        W88119  24.160  28.117  11.056
15772W        W88120  13.645  24.153   4.153
15773W        W88121   3.270  20.755   1.799
15774W        W88122  38.522  20.221  14.942
15775W        W88123  27.135  28.503  14.017
15776W        W88124  31.567  20.529  13.863
15777W        W88125  28.475   3.894   2.760
15778W        W88126   9.888  31.455   1.709
15779W        W88127   2.800  34.970  12.024
15780W        W88128  12.267  36.878  14.363
15781W        W88129  31.477   0.304   0.892
15782W        W88130  19.265   4.219   1.261
15783W        W88131   1.264   2.823   3.208
15784W        W88132  12.642  24.656  11.456
15785W        W88133  30.140  12.240  14.879
15786W        W88134  30.045   2.455   2.383
15787W        W88135  20.718  13.649  14.367
15788W        W88136  32.511  40.970  11.113
15789W        W88137  17.739  24.517  13.404
15790W        W88138  43.980  27.468   3.638
15791W        W88139  11.858  21.152  14.886
15792W        W88140  23.204  13.317  11.475
15793W        W88141  22.996  22.151   2.815
15794W        W88142  10.809   1.872  13.832
15795W        W88143  24.709  11.161   1.228
15796W        W88144  26.962  32.474  12.423
15797W        W88145  22.673  40.380   2.786
15798W        W88146  25.708   3.279  11.984
15799W        W88147  39.927  42.801   4.618
15800W        W88148  44.823  24.536  14.465
15801W        W88149  23.053  30.587   1.881
15802W        W88150  18.657  44.398   2.821
15803W        W88151   5.415   6.318  10.473
15804W        W88152  39.395   0.284  12.377
15805W        W88153  18.554  33.589   3.304
15806W        W88154  44.297  39.415  12.064
15807W        W88155   7.352  41.400  13.051
15808W        W88156  18.229  17.218  14.435
15809W        W88157  14.804  28.147  13.041
15810W        W88158  39.534   5.338   3.356
15811W        W88159  43.428  17.575  12.863
15812W        W88160   2.954  32.424  10.974
15813W        W88161  35.454  15.215   0.826
15814W        W88162  30.914  39.428  10.473
15815W        W88163   5.919  41.523  10.486
15816W        W88164   8.720  42.868   4.825
15817W        W88165  32.910   4.847  12.573
15818W        W88166  14.641  36.574   3.250
15819W        W88167  40.918   6.900   3.172
15820W        W88168   7.812   8.803   1.349
15821W        W88169   4.393  25.613   4.272
15822W        W88170  13.643  34.450   2.732
15823W        W88171  41.410  17.684   1.823
15824W        W88172  11.690  21.720  11.902
15825W        W88173   3.347   1.941  13.389
15826W        W88174  38.519  19.600  12.898
15827W        W88175  11.768  21.072   0.433
15828W        W88176   4.248   7.679   4.599
15829W        W88177  42.292  26.679   0.425
15830W        W88178  44.467  35.428  10.895
15831W        W88179  16.685  20.186   3.266
15832W        W88180  17.728  19.662   3.261
15833W        W88181  17.566  42.476   2.815
15834W        W88182  34.574  23.691  10.407
15835W        W88183  42.521  26.692   4.229
15836W        W88184  37.080  12.177   4.138
15837W        W88185   4.267  22.610   3.722
15838W        W88186  12.802   7.781   3.727
15839W        W88187  20.235  40.020  13.477
15840W        W88188  16.810  28.150   1.343
15841W        W88189  20.659  39.350  11.417
15842W        W88190  25.115  42.953  12.505
15843W        W88191  29.159  20.637   4.639
15844W        W88192  39.540  11.274  13.867
15845W        W88193  20.581  34.590   0.372
15846W        W88194  19.126  41.917  14.939
15847W        W88195   9.359  19.575   5.755
15848W        W88196  39.330   2.349  11.600
15849W        W88197  40.313  24.067  13.807
15850W        W88198  31.008  44.431   4.640
15851W        W88199  40.491  22.083   1.834
15852W        W88200   5.854  26.693  14.503
15853W        W88201   5.205  32.541   1.762
15854W        W88202   3.412  24.135  10.412
15855W        W88203  40.410  24.027   1.221
15856W        W88204  39.388  43.275  14.282
15857W        W88205  39.050  19.247  10.961
15858W        W88206   5.353  38.856   2.663
15859W        W88207  31.024  38.920   3.837
15860W        W88208  20.248  30.461  10.492
15861W        W88209  24.588   5.694  10.573
15862W        W88210   1.343  31.448   2.742
15863W        W88211  34.034  26.974  13.794
15864W        W88212  29.163   0.356  13.984
15865W        W88213   2.291  17.130  13.000
15866W        W88214  13.700  32.467   0.852
15867W        W88215  16.626  32.988   0.385
15868W        W88216  42.916  31.930  14.921
15869W        W88217  15.596  13.606   5.242
15870W        W88218   5.416  16.753  12.563
15871W        W88219  34.973  26.515   3.171
15872W        W88220   2.330  28.121   4.696
15873W        W88221  31.951  23.667  11.612
15874W        W88222  41.887  12.745   1.407
15875W        W88223  44.269  37.384   4.617
15876W        W88224  35.474  10.854  12.889
15877W        W88225  33.436  26.527  13.910
15878W        W88226  14.171   3.350  14.477
15879W        W88227  36.488  44.300  10.963
15880W        W88228  30.939  36.926  13.455
15881W        W88229  11.719  43.779  14.999
15882W        W88230  21.646  24.617   2.216
15883W        W88231  35.591  41.943   0.904
15884W        W88232  19.177  29.063   3.228
15885W        W88233  33.068   3.904   4.699
15886W        W88234  23.715  15.803  11.555
15887W        W88235  35.503  44.465  14.800
15888W        W88236  23.122  17.583  14.410
15889W        W88237  17.092  24.556   0.312
15890W        W88238  27.679  26.104  13.933
15891W        W88239  16.094  30.959   3.175
15892W        W88240  33.571  16.073   0.336
15893W        W88241  10.669  18.072  13.027
15894W        W88242  29.018  31.105   3.258
15895W        W88243  34.925  27.629  12.384
15896W        W88244  35.937  38.429  13.332
15897W        W88245  30.108  35.862   4.340
15898W        W88246  44.294  29.977  11.577
15899W        W88247  20.662  24.719   4.158
15900W        W88248  12.760  30.102  12.447
15901W        W88249  24.643  21.124  11.478
15902W        W88250  24.630  39.907   4.290
15903W        W88251  20.034   4.821   0.438
15904W        W88252   2.831  24.172  11.566
15905W        W88253  27.971  41.467   0.464
15906W        W88254  12.624   8.798   2.228
15907W        W88255  12.807   2.367  13.439
15908W        W88256   7.256  37.881  13.449
15909W        W88257  15.311  15.276  11.076
15910W        W88258  32.584  26.549  11.538
15911W        W88259  33.570  34.974   1.787
15912W        W88260  29.144   7.835  14.779
15913W        W88261   5.694  18.073  10.589
15914W        W88262  13.631  20.246   3.708
15915W        W88263  40.972  44.862   2.670
15916W        W88264   1.399  16.661  12.970
15917W        W88265  11.784  19.674  12.519
15918W        W88266  32.109  43.479  13.018
15919W        W88267   3.952  20.625   0.869
15920W        W88268  23.192   7.227  13.808
15921W        W88269  14.664  10.782  14.305
15922W        W88270  32.007  38.550   0.267
15923W        W88271  26.196  30.983  13.791
15924W        W88272  11.865   2.774   2.252
15925W        W88273  37.024  32.613   4.762
15926W        W88274  43.290  32.067  11.523
15927W        W88275  15.274  23.094  11.416
15928W        W88276  15.694  12.807   4.210
15929W        W88277  21.095  29.962   3.213
15930W        W88278  24.547  17.093   3.283
15931W        W88279  44.296  36.503  12.393
15932W        W88280  19.601  21.173   1.399
15933W        W88281   6.874  16.291  14.354
15934W        W88282  32.005  10.801  13.542
15935W        W88283   6.198  28.002  14.404
15936W        W88284  30.050   4.880   4.833
15937W        W88285   0.980  13.247  13.988
15938W        W88286  23.657   4.702   3.819
15939W        W88287  30.576  14.600  12.369
15940W        W88288  27.991  14.220  14.899
15941W        W88289  32.943  16.264   0.412
15942W        W88290  41.865  21.221   4.263
15943W        W88291  37.412  33.111  11.968
15944W        W88292  30.927  16.190   3.845
15945W        W88293  14.683  13.151  10.914
15946W        W88294   4.764  38.032  10.555
15947W        W88295  10.781  20.124   4.764
15948W        W88296   0.471   7.807  14.898
15949W        W88297  33.514  26.077   2.321
15950W        W88298  16.141  13.174   4.820
15951W        W88299  38.875  14.254  10.074
15952W        W88300   7.235  10.365   2.201
15953W        W88301  41.384  22.061   0.889
15954W        W88302  17.234   1.941   3.347
15955W        W88303   9.155  36.408   2.698
15956W        W88304   0.985  23.080  11.945
15957W        W88305  20.583  23.698  12.992
15958W        W88306  36.908  33.921  12.421
15959W        W88307  33.028  19.667   4.150
15960W        W88308   6.737   5.353  10.556
15961W        W88309  31.964  19.647   2.402
15962W        W88310   7.834  30.413   9.571
15963W        W88311  29.154  20.031  11.516
15964W        W88312  21.649  11.663  12.524
15965W        W88313  22.661   4.859   4.171
15966W        W88314  24.027  40.851  12.076
15967W        W88315   3.414  40.398  12.874
15968W        W88316  41.920  31.480  12.082
15969W        W88317  24.987   6.766   1.844
15970W        W88318  23.509  36.374   1.449
15971W        W88319   3.291  27.637  14.002
15972W        W88320   9.324  30.632  10.469
15973W        W88321  34.556   3.779   0.820
15974W        W88322  18.765   6.390   0.886
15975W        W88323  24.615  34.561   1.861
15976W        W88324  43.942  27.149  12.038
15977W        W88325  40.405  34.399   4.747
15978W        W88326  25.147  36.926  10.963
15979W        W88327  34.577  21.045  14.998
15980W        W88328   2.429  43.443   2.768
15981W        W88329  34.072  39.325  11.558
15982W        W88330  17.587  35.599  11.477
15983W        W88331  14.718   3.719  14.482
15984W        W88332  16.246  29.667   3.343
15985W        W88333  28.938  19.104  12.988
15986W        W88334  24.058  41.890   3.153
15987W        W88335  40.343   5.816   3.753
15988W        W88336   5.357   0.748   4.185
15989W        W88337  44.470  14.814   1.777
15990W        W88338  31.453  13.620   3.302
15991W        W88339  12.302  22.022  14.360
15992W        W88340   5.855  43.301   1.896
15993W        W88341  41.953  29.119   4.346
15994W        W88342  25.173  38.333  11.892
15995W        W88343   3.334  16.739   1.780
15996W        W88344  13.174  24.657  11.381
15997W        W88345  10.790  36.843   0.927
15998W        W88346  43.296  28.175   2.803
15999W        W88347  38.045  17.757   2.402
16000W        W88348  11.185  12.182   4.800
16001W        W88349  40.385  44.320  12.445
16002W        W88350   5.779   1.376  14.336
16003W        W88351   4.254  44.004  14.007
16004W        W88352  10.746  12.843   2.229
16005W        W88353  34.380  17.296   2.891
16006W        W88354  14.711   3.430  12.841
16007W        W88355  18.109  13.149  13.312
16008W        W88356  41.403  42.801  11.949
16009W        W88357  30.584  20.706   1.330
16010W        W88358  31.908  32.951   0.966
16011W        W88359  16.661  22.166  14.930
16012W        W88360  40.015  18.573   4.121
16013W        W88361   4.758   9.761   3.760
16014W        W88362  21.248  42.932   4.292
16015W        W88363  36.399   7.819  13.921
16016W        W88364  29.941  13.184  11.525
16017W        W88365  37.572  32.446  11.079
16018W        W88366  16.783  41.308   0.384
16019W        W88367  26.468  12.650   0.795
16020W        W88368  19.157  30.976  10.440
16021W        W88369   8.664  28.658   2.268
16022W        W88370  21.243  15.610  12.075
16023W        W88371  30.488  19.661   4.755
16024W        W88372   1.782  42.991   5.286
16025W        W88373   2.916  12.150   0.426
16026W        W88374  43.318  39.976   1.315
16027W        W88375  22.634  17.158  14.892
16028W        W88376  27.147  40.458   4.209
16029W        W88377  17.572  30.052   2.227
16030W        W88378  17.777  30.485   3.358
16031W        W88379  33.619  21.730   2.193
16032W        W88380  42.028  36.549   4.170
16033W        W88381  22.542  42.481  12.005
16034W        W88382   0.923  38.489   0.861
16035W        W88383   9.282  14.127  12.478
16036W        W88384  15.736  44.900   4.654
16037W        W88385   9.695  29.459  10.985
16038W        W88386  23.698  30.512   1.882
16039W        W88387  33.023   6.743   5.118
16040W        W88388  26.536  26.083   3.193
16041W        W88389  35.604  41.935  13.887
16042W        W88390  23.169  36.904  12.086
16043W        W88391   5.814  39.029   0.797
16044W        W88392   2.858   8.683   2.708
16045W        W88393  43.326   4.771  12.536
16046W        W88394  14.327   6.279   4.288
16047W        W88395  12.306   3.922   0.778
16048W        W88396  13.336  15.246  14.903
16049W        W88397  35.087  32.892   1.888
16050W        W88398  30.911   8.250   2.821
16051W        W88399  39.463  34.602  12.007
16052W        W88400  27.074  35.956   4.645
16053W        W88401  16.123  32.477  13.996
16054W        W88402   0.299  21.170   5.256
16055W        W88403   0.350   8.395  11.973
16056W        W88404  22.114  27.530   4.809
16057W        W88405   3.352  23.226   1.421
16058W        W88406  21.059  37.369  13.452
16059W        W88407  23.185  27.018   0.468
16060W        W88408  33.941  39.914  12.857
16061W        W88409  25.704  12.848  10.423
16062W        W88410   3.236  14.139   3.367
16063W        W88411  36.988  13.643  12.955
16064W        W88412  12.255   7.703   0.245
16065W        W88413  17.140   7.743  10.604
16066W        W88414  10.293  18.725   4.718
16067W        W88415  32.013  35.940  13.363
16068W        W88416  28.944  21.180   1.342
16069W        W88417  30.100  34.047  13.803
16070W        W88418  36.867  12.313   2.328
16071W        W88419  34.518   4.423   2.226
16072W        W88420  42.013  31.597   3.820
16073W        W88421  35.455   1.464   3.296
16074W        W88422  10.671  36.554   4.223
16075W        W88423  44.967  19.726   3.148
16076W        W88424  17.574  14.792  12.828
16077W        W88425   6.282  36.947  11.017
16078W        W88426   4.281  32.067  11.920
16079W        W88427  21.728  11.206  14.855
16080W        W88428  30.636  35.910  14.820
16081W        W88429   1.295  30.626  12.966
16082W        W88430   6.217  26.959   0.841
16083W        W88431  38.891   2.316   3.698
16084W        W88432  37.978   5.301   3.323
16085W        W88433   5.902   0.463   0.366
16086W        W88434   7.381  33.433  12.485
16087W        W88435  34.064  38.526  11.918
16088W        W88436  35.104  25.049  13.890
16089W        W88437  36.449  20.759   3.302
16090W        W88438   3.343  14.230   2.896
16091W        W88439  34.947  11.658  13.419
16092W        W88440  33.380   0.968  14.900
16093W        W88441  15.643   7.745   0.829
16094W        W88442  44.426   2.345   4.739
16095W        W88443  41.814  24.179   0.928
16096W        W88444  38.964  22.548   1.837
16097W        W88445  28.450  35.091   0.790
16098W        W88446   5.361   9.772  11.086
16099W        W88447  33.990  11.845  11.054
16100W        W88448  26.550  20.689   4.656
16101W        W88449  27.008  28.606  12.892
16102W        W88450  44.785  38.061  13.863
16103W        W88451  12.345  18.753  11.889
16104W        W88452  20.190  42.883  12.051
16105W        W88453  41.038   0.973   0.827
16106W        W88454  26.107  38.463  13.060
16107W        W88455  10.362  35.591  11.126
16108W        W88456   8.793  42.872  13.384
16109W        W88457  14.252  38.482  11.405
16110W        W88458  28.168  10.139  11.027
16111W        W88459  14.715  11.848   2.233
16112W        W88460  19.271  41.986   2.274
16113W        W88461   7.409  37.385  12.852
16114W        W88462  42.887  19.134  12.523
16115W        W88463  26.036   1.418  10.439
16116W        W88464  33.066  30.611  12.006
16117W        W88465  28.132  42.024  13.920
16118W        W88466  35.554  36.362  14.445
16119W        W88467  34.100   0.811  11.088
16120W        W88468  40.339  41.797   0.376
16121W        W88469  32.515  32.410   2.797
16122W        W88470  24.166   1.401  12.993
16123W        W88471  22.231  16.184   1.451
16124W        W88472  20.558  18.682  13.957
16125W        W88473  36.844   9.166  10.610
16126W        W88474  11.821  43.792   1.396
16127W        W88475  32.924  23.601  11.017
16128W        W88476  29.541  12.307   2.780
16129W        W88477  29.054  27.491   4.281
16130W        W88478  23.578   4.945  11.939
16131W        W88479  39.824  18.290   0.482
16132W        W88480  15.131  29.540   2.717
16133W        W88481   7.326  15.782  14.493
16134W        W88482   6.724  35.950   2.246
16135W        W88483  36.845   2.720  14.948
16136W        W88484  15.305   5.243   0.415
16137W        W88485  26.171  14.722   2.401
16138W        W88486  24.154  44.403   1.914
16139W        W88487  17.780  33.460   1.273
16140W        W88488  40.402   7.355   5.099
16141W        W88489   1.303  21.614   1.444
16142W        W88490  11.255  34.072  13.923
16143W        W88491  33.921  42.516  12.553
16144W        W88492  23.144  29.129  14.379
16145W        W88493   6.772  43.870   3.739
16146W        W88494  30.652   3.231  10.918
16147W        W88495  18.657   2.458  11.992
16148W        W88496  21.104  34.024  11.127
16149W        W88497  11.303  19.675  11.915
16150W        W88498  31.938   5.284   4.351
16151W        W88499  18.718  43.780  11.883
16152W        W88500  38.923  25.583   4.142
16153W        W88501  25.714  22.506  14.989
16154W        W88502  40.527   3.431  14.841
16155W        W88503  28.001  30.435   1.752
16156W        W88504  27.112  26.010   2.285
16157W        W88505  33.026  12.222   1.913
16158W        W88506  11.169  24.026  10.946
16159W        W88507   9.724  18.082  12.907
16160W        W88508  18.591  24.489   3.152
16161W        W88509  28.126  23.197   4.328
16162W        W88510  31.009   7.855   4.185
16163W        W88511  36.037   7.386  11.403
16164W        W88512  36.489  24.021   3.347
16165W        W88513  32.977  16.711  14.424
16166W        W88514  28.970   8.399  14.400
16167W        W88515  15.115  21.091   1.727
16168W        W88516  10.724  37.417  10.079
16169W        W88517  11.316   3.299  12.031
16170W        W88518   4.813  18.081   0.340
16171W        W88519  29.021  32.429   0.303
16172W        W88520  34.536  44.771   2.286
16173W        W88521  26.658   3.955  13.060
16174W        W88522  38.865  11.233  13.965
16175W        W88523   7.818   0.404  10.016
16176W        W88524  32.100  33.893  13.976
16177W        W88525   2.413  32.963   4.297
16178W        W88526  21.072  41.010  11.509
16179W        W88527  17.136  42.806   4.306
16180W        W88528  27.528  35.363  11.380
16181W        W88529  20.029  32.397  11.860
16182W        W88530  14.691  36.346   2.286
16183W        W88531   7.826  41.331   0.904
16184W        W88532  12.244  21.570  14.967
16185W        W88533  12.140  22.715  13.466
16186W        W88534  15.265  15.816  13.052
16187W        W88535  19.627  13.682  12.912
16188W        W88536  16.722   2.295   1.258
16189W        W88537   6.322   8.334   3.319
16190W        W88538  15.607   0.277   1.343
16191W        W88539  41.422  19.653  14.893
16192W        W88540  36.878   6.885   1.776
16193W        W88541   2.370   7.849   5.139
16194W        W88542  14.259   9.186   0.906
16195W        W88543  26.100  39.934   2.336
16196W        W88544  39.006  35.594   0.893
16197W        W88545  32.015   3.458   4.742
16198W        W88546  34.983   2.315   4.738
16199W        W88547  33.518  19.654  11.481
16200W        W88548  32.944  18.175   2.864
16201W        W88549  32.978  41.490   2.241
16202W        W88550  27.689  21.584   2.761
16203W        W88551   4.211  25.529   2.232
16204W        W88552  32.042  20.075  10.622
16205W        W88553  12.241  25.692   2.183
16206W        W88554   7.248  33.938   5.246
16207W        W88555  19.041  39.975  10.993
16208W        W88556  41.848  23.146   2.291
16209W        W88557  11.718   8.878   4.648
16210W        W88558   0.836   3.414  10.917
16211W        W88559  35.483  22.740   2.733
16212W        W88560  30.564   7.716  12.884
16213W        W88561  36.412  29.009   1.365
16214W        W88562  31.957  36.591   1.716
16215W        W88563  28.939  32.442  12.938
16216W        W88564  40.870  32.579   0.911
16217W        W88565  27.013  19.628   2.394
16218W        W88566  34.946  14.132  11.599
16219W        W88567  27.562   9.733  12.990
16220W        W88568  44.435  42.843  11.109
16221W        W88569  42.402  16.571  13.331
16222W        W88570  21.751  20.123   3.374
16223W        W88571  31.961  44.847   3.351
16224W        W88572  23.226  27.017   4.164
16225W        W88573  32.567  33.602  11.520
16226W        W88574  28.083  27.619   3.243
16227W        W88575  13.240  41.515   4.114
16228W        W88576  42.474  19.134   0.300
16229W        W88577  39.855   3.758  13.465
16230W        W88578   8.223  10.238   3.372
16231W        W88579   6.679  32.075   4.193
16232W        W88580  22.160  25.702  12.832
16233W        W88581  38.972   1.326  13.324
16234W        W88582   6.203  20.196  13.445
16235W        W88583   8.219  39.056  10.470
16236W        W88584   0.904  20.209   4.326
16237W        W88585   6.382  25.120  12.513
16238W        W88586  40.494  36.403   2.328
16239W        W88587  23.680  14.330   4.648
16240W        W88588  24.976  27.054   0.923
16241W        W88589  10.734  26.153   3.804
16242W        W88590   9.822   4.333  12.365
16243W        W88591  11.751  36.090  14.294
16244W        W88592   7.214  10.785  13.991
16245W        W88593  37.437  42.456  11.019
16246W        W88594  11.277  10.327  12.471
16247W        W88595  33.542  31.486   0.828
16248W        W88596  40.903  38.850   4.166
16249W        W88597  34.567   1.314  11.581
16250W        W88598   8.293  15.725  12.987
16251W        W88599   2.296  14.716   0.304
16252W        W88600  32.901  30.054  13.859
16253W        W88601  27.675  38.399  13.890
16254W        W88602   8.211  17.210  10.912
16255W        W88603   2.807  28.091  11.097
16256W        W88604  37.042  35.398  13.333
16257W        W88605   7.757  20.717   3.825
16258W        W88606  42.960  25.492   3.756
16259W        W88607  32.933  41.815  14.341
16260W        W88608  24.513  29.638  10.485
16261W        W88609  36.923  40.338  14.495
16262W        W88610  38.838  34.465   0.743
16263W        W88611  34.929  10.347  12.567
16264W        W88612  35.867  12.211   2.247
16265W        W88613  21.758  17.634  10.988
16266W        W88614  37.977  37.345  14.304
16267W        W88615  41.362  35.095  11.460
16268W        W88616  27.579  13.713  12.922
16269W        W88617  19.665  13.244   0.964
16270W        W88618   1.746  20.558   2.895
16271W        W88619  24.654   4.270  13.537
16272W        W88620  11.813  32.099  10.987
16273W        W88621  39.985  41.467  12.988
16274W        W88622  31.960   3.882   1.256
16275W        W88623  37.529  38.447   0.913
16276W        W88624  33.941  36.566  12.463
16277W        W88625  31.965  37.370   9.970
16278W        W88626   4.332  10.783  10.524
16279W        W88627   6.776  10.348   3.826
16280W        W88628  14.827  29.532   0.446
16281W        W88629   2.373  29.083   4.703
16282W        W88630  24.068  10.260   5.119
16283W        W88631  37.404  20.176   2.787
16284W        W88632  40.417  36.943  11.957
16285W        W88633   7.415   4.280  10.414
16286W        W88634  23.190  34.979  11.500
16287W        W88635  28.564  22.047   0.866
16288W        W88636  23.138  41.817   4.260
16289W        W88637   6.685  25.668   3.688
16290W        W88638  38.409   9.339  13.351
16291W        W88639   4.311   6.920  12.435
16292W        W88640  22.720  21.601   4.677
16293W        W88641  29.482  34.987  13.921
16294W        W88642  39.442   4.902   1.870
16295W        W88643  27.009  39.968   1.777
16296W        W88644  26.683  29.492   1.810
16297W        W88645   6.759  10.752  13.496
16298W        W88646  25.007  11.782  11.512
16299W        W88647  17.083  40.404  13.415
16300W        W88648   2.897   4.222  14.290
16301W        W88649  42.004   5.315  14.484
16302W        W88650  33.948  24.082  10.581
16303W        W88651   3.763  32.136   3.159
16304W        W88652  23.721  12.270   1.387
16305W        W88653  34.864  44.899   2.897
16306W        W88654  41.806  12.273   3.772
16307W        W88655   2.785   9.858   0.951
16308W        W88656  22.515   0.989   0.256
16309W        W88657  41.966  30.531   2.227
16310W        W88658   3.903  37.501  12.839
16311W        W88659  28.584  37.083   1.376
16312W        W88660   6.756  15.688  13.804
16313W        W88661  28.487   9.681   0.291
16314W        W88662  37.879  28.144   4.724
16315W        W88663   3.227  27.104   4.743
16316W        W88664  22.215  38.043   1.288
16317W        W88665  22.135  15.234  13.954
16318W        W88666  21.240  27.602  14.936
16319W        W88667  14.213  28.161  12.966
16320W        W88668  44.801  35.090  14.422
16321W        W88669   8.332  18.604   0.477
16322W        W88670  19.701   2.813   1.278
16323W        W88671  14.243   5.401  12.845
16324W        W88672  14.247  39.451  14.795
16325W        W88673  25.508  33.896  13.852
16326W        W88674  28.509  16.259   4.138
16327W        W88675  13.821  20.086  13.050
16328W        W88676   5.198  43.397  12.879
16329W        W88677  35.505  21.573   4.708
16330W        W88678   6.747  29.630   3.857
16331W        W88679  28.171  23.591  14.822
16332W        W88680  36.433   1.343   4.820
16333W        W88681  35.981   5.700  12.504
16334W        W88682  43.428   3.807   0.363
16335W        W88683  28.035  17.194  14.025
16336W        W88684   1.775  41.819  10.890
16337W        W88685  19.154  20.736   4.345
16338W        W88686  40.457  27.560   3.813
16339W        W88687  20.143  33.422  11.891
16340W        W88688  33.452  33.415   0.426
16341W        W88689  25.567  12.294  10.474
16342W        W88690   4.445  25.573  12.902
16343W        W88691  21.645   9.380   1.300
16344W        W88692  20.046  17.781   2.286
16345W        W88693   1.474   5.213  11.958
16346W        W88694  18.643  12.817   2.204
16347W        W88695  32.629   0.465   1.931
16348W        W88696  20.563   7.363  13.847
16349W        W88697   2.235  20.108   1.807
16350W        W88698  10.361  34.063   2.682
16351W        W88699  18.662  38.441  13.396
16352W        W88700  23.102   9.877   1.782
16353W        W88701  34.992  25.636   2.187
16354W        W88702  22.186  24.556   1.926
16355W        W88703  12.362  14.096  10.526
16356W        W88704  33.028   2.366  12.340
16357W        W88705  35.520  14.758   0.741
16358W        W88706   3.863  24.052  11.603
16359W        W88707  24.680  22.213  12.976
16360W        W88708  37.453  44.333  11.925
16361W        W88709  39.815  38.933   3.811
16362W        W88710  27.084   0.853  10.591
16363W        W88711  30.618   0.800   5.189
16364W        W88712  33.572  33.433   4.666
16365W        W88713  21.747  39.939   3.276
16366W        W88714   9.367  39.425   1.328
16367W        W88715   6.389   0.801   1.269
16368W        W88716   0.262  19.733  12.388
16369W        W88717  11.646  32.505  11.126
16370W        W88718  11.326   0.394  13.954
16371W        W88719   8.771  16.797  14.995
16372W        W88720   6.711   7.353   2.375
16373W        W88721  29.128  33.619   2.331
16374W        W88722  39.395  19.620   0.373
16375W        W88723  16.124  38.470   2.226
16376W        W88724  11.185  39.547   4.822
16377W        W88725   4.808  32.109   0.775
16378W        W88726  22.207   9.886  12.991
16379W        W88727   4.835  25.604  13.404
16380W        W88728  16.804   0.928   3.214
16381W        W88729  21.722  20.702   3.754
16382W        W88730  12.187  35.088  14.281
16383W        W88731  36.394  10.773   2.318
16384W        W88732  17.557  44.338   4.698
16385W        W88733  15.088  28.629   0.866
16386W        W88734  14.263   2.750  11.007
16387W        W88735  42.517   9.304  14.504
16388W        W88736  25.547  13.733  14.804
16389W        W88737  24.016  33.478  10.933
16390W        W88738  28.522   6.222  13.446
16391W        W88739  36.010  13.639   3.163
16392W        W88740   0.958  22.619  14.441
16393W        W88741  27.685  22.153   3.636
16394W        W88742   2.751   2.911   1.227
16395W        W88743  39.038  15.717  12.529
16396W        W88744  10.322   7.379  12.051
16397W        W88745   8.715  41.409  12.059
16398W        W88746  31.896  40.842  12.491
16399W        W88747  12.150  21.672   3.161
16400W        W88748  13.835  17.302   4.829
16401W        W88749  34.548  33.879   2.671
16402W        W88750  42.328   2.372  10.493
16403W        W88751  28.613  26.555  13.793
16404W        W88752   0.932  24.521   4.208
16405W        W88753   6.195  19.729  11.062
16406W        W88754  19.578  17.249   2.888
16407W        W88755  36.954  26.202   1.230
16408W        W88756  30.911  29.646   0.410
16409W        W88757  31.152  15.786   1.258
16410W        W88758  36.916  20.667  10.561
16411W        W88759  43.496  27.581   3.244
16412W        W88760  31.923  42.394  11.445
16413W        W88761  28.133  31.149   1.244
16414W        W88762  17.772  43.458  14.922
16415W        W88763  18.588  30.108  10.413
16416W        W88764  38.028  18.261   2.853
16417W        W88765   8.742  28.544  11.407
16418W        W88766   8.338   9.802   2.187
16419W        W88767   5.311  28.436   2.724
16420W        W88768  36.902  11.204  11.873
16421W        W88769  12.126   5.193   4.207
16422W        W88770  32.573   0.423   3.655
16423W        W88771  17.594  31.476   3.706
16424W        W88772  16.743   6.211  14.507
16425W        W88773  12.319  39.905   1.765
16426W        W88774  23.688  40.816  12.388
16427W        W88775  13.747  21.111   3.836
16428W        W88776  15.108  44.455   0.403
16429W        W88777  10.322  37.963  13.467
16430W        W88778  44.771  38.527   4.653
16431W        W88779  17.727   0.807   1.380
16432W        W88780  24.599  33.432  11.033
16433W        W88781   8.285  36.985   4.268
16434W        W88782  13.199   3.250  11.434
16435W        W88783  14.172   4.910  11.563
16436W        W88784  21.748  12.811  14.978
16437W        W88785  27.482  34.004  12.580
16438W        W88786  19.251  12.674   0.832
16439W        W88787  22.539  19.102   1.737
16440W        W88788  25.175  15.253   0.356
16441W        W88789   5.378  13.209   4.298
16442W        W88790   1.752  17.591   2.717
16443W        W88791  10.368  25.971  10.567
16444W        W88792  28.671  12.719  12.834
16445W        W88793  40.347  41.456  14.328
16446W        W88794   0.761  12.657  11.371
16447W        W88795   4.941  39.377   2.333
16448W        W88796  44.478  36.057   0.309
16449W        W88797  30.427   1.292  12.827
16450W        W88798  44.267  28.451  10.617
16451W        W88799  31.949  36.978   0.419
16452W        W88800  33.985   5.364  12.570
16453W        W88801   8.373  42.385  12.050
16454W        W88802  19.168  15.221  11.912
16455W        W88803  32.596  33.101  14.887
16456W        W88804   3.223   7.304   1.261
16457W        W88805   5.393   9.671   2.387
16458W        W88806   7.795  22.116  12.437
16459W        W88807  18.699   0.347   3.697
16460W        W88808   6.393   8.896   1.283
16461W        W88809   5.199  42.866  11.933
16462W        W88810   4.699  44.924  14.816
16463W        W88811  41.297  18.782   0.927
16464W        W88812  11.295  23.118  14.825
16465W        W88813  34.473  35.974   4.327
16466W        W88814  13.766   0.873  11.076
16467W        W88815   9.703  30.523   2.761
16468W        W88816  35.881  20.586   2.321
16469W        W88817   0.317   2.960   3.772
16470W        W88818   8.740  39.467   3.733
16471W        W88819  19.720  36.580  11.007
16472W        W88820   2.365  39.026  10.423
16473W        W88821  32.447  24.520  14.982
16474W        W88822  38.954  43.503  14.945
16475W        W88823  43.489  30.129  14.995
16476W        W88824  38.835   7.360   4.117
16477W        W88825  32.075  23.558  12.090
16478W        W88826   9.766   6.899   2.748
16479W        W88827  27.536   0.860  14.286
16480W        W88828  35.853  32.088   5.145
16481W        W88829   6.767  12.737  12.351
16482W        W88830   6.358  40.852  13.318
16483W        W88831  28.635  12.175  12.438
16484W        W88832  16.578  23.599   2.889
16485W        W88833  41.857  27.057  11.015
16486W        W88834  35.544  36.474  10.937
16487W        W88835  12.204  37.058   4.266
16488W        W88836  44.914  38.464   2.687
16489W        W88837  29.010  32.913  14.386
16490W        W88838   3.743   6.361   3.743
16491W        W88839   1.783  12.789   4.258
16492W        W88840  26.959  39.844  10.613
16493W        W88841  35.403  21.668   5.129
16494W        W88842  36.994  40.052  14.993
16495W        W88843  14.171  12.197  12.900
16496W        W88844  13.119   0.434   3.685
16497W        W88845  18.665  10.826   4.194
16498W        W88846   8.802  23.233   2.796
16499W        W88847   9.236  21.252  11.070
16500W        W88848  33.934  37.885  13.888
16501W        W88849  11.744   9.836   3.176
16502W        W88850  14.233  44.451   2.804
16503W        W88851  23.149  39.883  12.923
16504W        W88852  26.678  12.223   0.462
16505W        W88853  35.029  42.499   3.826
16506W        W88854  35.464  28.087  10.499
16507W        W88855  12.312   7.304   1.393
16508W        W88856  27.194  25.035  14.482
16509W        W88857  31.123  39.320   2.854
16510W        W88858   9.248  14.259   2.897
16511W        W88859  18.280  29.565   2.244
16512W        W88860  26.202  37.058  13.460
16513W        W88861  35.099   2.786   1.223
16514W        W88862  31.512  16.645  11.055
16515W        W88863  43.333  23.132   1.789
16516W        W88864   2.867  10.635  11.881
16517W        W88865  23.139  27.978   4.162
16518W        W88866  20.653  15.763  11.577
16519W        W88867  30.139   5.311  10.449
16520W        W88868  16.084  33.544  13.854
16521W        W88869  15.794  39.021   2.860
16522W        W88870  27.591  32.905   2.850
16523W        W88871  42.840  38.888   2.281
16524W        W88872  29.163   7.770   3.641
16525W        W88873  12.332  17.694   2.225
16526W        W88874  13.837   8.322  12.506
16527W        W88875  36.445  37.960   0.384
16528W        W88876   4.260   7.403   3.707
16529W        W88877  36.992  38.023  13.505
16530W        W88878  13.153  12.834  11.547
16531W        W88879  43.931   0.919  14.972
16532W        W88880  20.172  13.833  12.019
16533W        W88881  22.198   9.335   2.893
16534W        W88882  31.026  40.798  11.444
16535W        W88883  42.987  31.423  12.836
16536W        W88884  27.000   8.260  10.611
16537W        W88885  31.997   5.397  14.433
16538W        W88886   1.478   8.167   0.882
16539W        W88887  41.298  24.987   0.428
16540W        W88888  24.116  23.722   0.820
16541W        W88889  37.544   3.336   0.757
16542W        W88890  13.724  41.834   2.687
16543W        W88891  18.645  15.787  14.867
16544W        W88892  13.286  23.549  13.025
16545W        W88893   9.833   4.718   2.683
16546W        W88894  19.146   9.679   0.275
16547W        W88895  10.218  27.633  14.907
16548W        W88896   5.731   2.278  14.894
16549W        W88897  23.141  24.522   1.807
16550W        W88898  21.756  35.007   4.808
16551W        W88899   3.216  41.792   1.742
16552W        W88900  22.685  11.270  13.016
16553W        W88901   8.876  25.646   2.770
16554W        W88902  43.964  30.443   2.768
16555W        W88903  23.649  39.551   2.884
16556W        W88904  15.715  30.646   0.350
16557W        W88905  36.981  29.624  14.826
16558W        W88906  12.758  13.189  10.502
16559W        W88907  39.338  19.244   1.788
16560W        W88908   3.217  11.336   3.294
16561W        W88909  19.284  26.954  11.871
16562W        W88910  36.419  41.941  14.303
16563W        W88911   8.178  28.576   1.241
16564W        W88912  33.396  18.107   2.400
16565W        W88913   4.855  40.412  12.538
16566W        W88914  21.514  39.457  14.944
16567W        W88915  29.982  41.394   0.275
16568W        W88916  26.471  28.570   4.260
16569W        W88917  43.866  14.330  11.867
16570W        W88918  12.349  41.919   3.285
16571W        W88919  23.575  36.443  14.443
16572W        W88920  10.689  30.588  11.102
16573W        W88921  27.039   5.384  14.346
16574W        W88922  26.543  29.922  14.878
16575W        W88923  33.604  35.370  10.963
16576W        W88924   1.297  17.646  12.508
16577W        W88925  21.188  31.629   5.687
16578W        W88926  19.564  43.806   4.225
16579W        W88927  16.747  26.580  11.114
16580W        W88928   7.218  33.536   9.554
16581W        W88929  19.096  17.119   4.694
16582W        W88930   7.240  10.155   4.344
16583W        W88931  44.337   3.349   1.274
16584W        W88932  16.699  41.941  11.018
16585W        W88933   3.452  36.858  13.493
16586W        W88934  16.807  41.974  10.477
16587W        W88935   7.817  37.945   1.438
16588W        W88936   5.430  29.175   3.766
16589W        W88937  37.911  14.712  12.927
16590W        W88938  20.092  31.122   3.190
16591W        W88939   5.210  25.020   4.823
16592W        W88940  35.901   6.272   0.729
16593W        W88941   2.862  24.994  12.549
16594W        W88942  34.864  42.925   0.740
16595W        W88943   2.419   0.758  11.884
16596W        W88944   2.948   1.827  10.583
16597W        W88945   5.699   4.311   3.243
16598W        W88946  14.760  14.813   1.842
16599W        W88947  24.538  20.257  13.905
16600W        W88948  21.195   4.449   4.625
16601W        W88949  38.529  31.001  12.421
16602W        W88950  31.960  28.461  11.993
16603W        W88951  36.098  41.808   3.667
16604W        W88952  38.407   3.955  11.081
16605W        W88953  22.033   6.689  12.441
16606W        W88954  31.613  25.129  11.385
16607W        W88955   0.481  20.272  14.458
16608W        W88956   0.264  37.948   3.153
16609W        W88957  25.165  12.321  13.997
16610W        W88958  12.837   9.360  13.434
16611W        W88959  39.942   2.957   1.431
16612W        W88960  29.056  21.641   2.855
16613W        W88961  40.432  38.506   3.851
16614W        W88962  38.904  34.028   2.376
16615W        W88963  27.135  27.067  14.292
16616W        W88964  39.937  20.653   4.780
16617W        W88965  44.811  25.620  14.352
16618W        W88966   4.855  36.865  13.032
16619W        W88967  16.285  37.436   3.322
16620W        W88968  11.746  11.753  10.637
16621W        W88969  42.525  16.124  11.096
16622W        W88970  14.754   0.836   1.900
16623W        W88971  44.938   6.395  13.531
16624W        W88972  42.026   9.752  14.350
16625W        W88973   4.758  37.851  13.023
16626W        W88974  16.727  10.802   3.169
16627W        W88975  26.035  17.139   1.362
16628W        W88976  43.000  33.480  14.352
16629W        W88977   3.811  16.669  12.869
16630W        W88978  43.286   1.820  10.472
16631W        W88979   5.371  19.677   4.652
16632W        W88980   6.381  32.125  11.974
16633W        W88981   0.888  18.634  13.386
16634W        W88982  26.500   2.305   0.338
16635W        W88983  44.942   3.759   3.631
16636W        W88984   9.850  39.838   3.171
16637W        W88985   2.900  35.586  14.895
16638W        W88986  32.950  22.568   0.944
16639W        W88987  21.257  31.113  14.868
16640W        W88988  14.109   3.300  12.531
16641W        W88989   8.783  43.386   1.780
16642W        W88990  37.848  36.978   0.749
16643W        W88991  24.161  34.945   4.271
16644W        W88992   5.882   3.846  13.429
16645W        W88993  16.606  42.945  12.016
16646W        W88994  33.041  40.854  10.930
16647W        W88995  34.487  35.866   0.785
16648W        W88996  31.921   1.390   1.327
16649W        W88997   4.875  33.052  13.491
16650W        W88998  36.364   4.304  11.461
16651W        W88999   9.172  18.117   1.215
16652W        W89000   1.965  13.813   3.204
16653W        W89001   1.784   0.980   4.236
16654W        W89002  43.910   0.770  12.904
16655W        W89003  21.584  12.159  13.439
16656W        W89004  15.637   5.229   0.956
16657W        W89005  14.741   5.906   2.831
16658W        W89006  22.546  18.780  11.052
16659W        W89007  29.539  42.304   1.312
16660W        W89008  24.707  32.402  13.890
16661W        W89009  26.029  26.095  13.000
16662W        W89010  15.205  42.812  11.455
16663W        W89011  31.013  30.449  11.471
16664W        W89012  25.676  32.991   0.393
16665W        W89013  29.544   6.376   4.728
16666W        W89014  32.929   9.271   2.843
16667W        W89015  20.206  21.590  11.029
16668W        W89016   7.182  25.703  12.923
16669W        W89017   0.939  36.922   4.300
16670W        W89018  30.472  44.941   0.279
16671W        W89019  36.932  17.776  10.640
16672W        W89020  24.620  38.548  10.537
16673W        W89021  16.632  31.562  13.819
16674W        W89022  44.894  32.969   3.161
16675W        W89023   5.920  27.633   2.327
16676W        W89024  14.610  26.477   3.267
16677W        W89025  23.661  11.743   3.375
16678W        W89026   6.399  35.934  13.503
16679W        W89027  18.741  18.723   4.259
16680W        W89028   8.258  32.453   4.766
16681W        W89029  17.086   5.847   2.788
16682W        W89030  30.056  18.295  14.918
16683W        W89031   6.353  21.254   4.232
16684W        W89032   0.488  11.635  11.049
16685W        W89033  23.064  37.349   2.369
16686W        W89034  25.130  37.957  12.430
16687W        W89035  42.300  26.644   4.836
16688W        W89036  18.616  39.996   2.861
16689W        W89037  42.849  11.638   0.740
16690W        W89038  32.053  25.651   4.601
16691W        W89039  36.465  40.034   2.416
16692W        W89040   5.416  21.053  14.760
16693W        W89041  36.938  26.998   0.791
16694W        W89042  41.321  42.520  12.029
16695W        W89043   9.325  36.883   3.290
16696W        W89044  18.706   7.895  13.031
16697W        W89045  36.012  26.497   2.201
16698W        W89046  38.996   8.197   4.797
16699W        W89047  26.690  32.605   2.902
16700W        W89048  29.112  30.479  10.556
16701W        W89049  24.705   1.376  10.913
16702W        W89050  35.060  23.510   1.334
16703W        W89051  14.739  16.272  11.922
16704W        W89052   8.300  29.482   2.710
16705W        W89053  24.124  30.555  13.888
16706W        W89054  21.159  43.448   0.851
16707W        W89055  39.489   0.848  13.928
16708W        W89056  43.475  26.680   4.834
16709W        W89057  19.144   3.250  12.478
16710W        W89058  12.261  25.508  14.844
16711W        W89059  20.723  29.937  13.907
16712W        W89060   3.919  33.020   1.260
16713W        W89061  38.071  25.516   4.129
16714W        W89062  23.233  33.580  13.892
16715W        W89063   4.330  20.765  11.447
16716W        W89064  31.570   2.804  11.556
16717W        W89065  41.433  42.854   0.339
16718W        W89066  34.572  33.625  13.380
16719W        W89067  11.343  32.450  10.982
16720W        W89068   4.735  13.225  10.945
16721W        W89069  33.416   3.362  14.805
16722W        W89070  37.959  18.645   1.373
16723W        W89071  43.371  32.954  11.077
16724W        W89072   3.783   4.874   2.752
16725W        W89073  12.227  11.261  10.918
16726W        W89074  28.439   8.759  11.079
16727W        W89075  26.663  44.423  11.571
16728W        W89076  43.946  30.438  13.402
16729W        W89077  33.536   6.902   0.728
16730W        W89078  43.502  38.387   3.159
16731W        W89079  37.445  21.675  14.372
16732W        W89080  24.041   1.902   4.756
16733W        W89081  42.428  40.038   4.274
16734W        W89082   6.809   3.307   4.129
16735W        W89083  29.626  13.146   3.658
16736W        W89084   5.802   7.274  14.504
16737W        W89085  26.018   7.372   2.806
16738W        W89086   3.403  20.735   1.352
16739W        W89087  13.705  35.449  14.876
16740W        W89088   9.172  39.401  13.041
16741W        W89089  28.517   6.902   2.739
16742W        W89090  18.195   7.198   1.376
16743W        W89091  27.019  24.723   3.310
16744W        W89092  30.925   7.333   2.696
16745W        W89093  43.486  34.584  12.371
16746W        W89094   5.901  15.597  14.385
16747W        W89095   4.699  35.424   3.360
16748W        W89096  38.868  43.827  10.558
16749W        W89097  10.685  30.632   3.672
16750W        W89098  31.007  27.185  11.541
16751W        W89099  25.570  28.017  14.458
16752W        W89100   4.833   2.245   0.938
16753W        W89101  40.412  10.297   5.169
16754W        W89102  22.513  20.749  12.381
16755W        W89103  17.209  44.826  11.506
16756W        W89104  12.789  40.332  11.509
16757W        W89105  32.428  11.814  10.913
16758W        W89106  41.340  34.546   2.901
16759W        W89107  14.835  17.615  14.936
16760W        W89108  37.852  42.010   1.821
16761W        W89109  24.162  25.056  12.384
16762W        W89110   8.887  23.699  12.091
16763W        W89111  11.341  33.578  10.564
16764W        W89112  43.861  14.315   4.210
16765W        W89113   9.673  15.151  10.978
16766W        W89114  28.552   5.722  13.970
16767W        W89115  35.417  37.999   4.333
16768W        W89116  11.794   5.817  13.911
16769W        W89117  22.552  27.456   3.668
16770W        W89118  23.110  39.414  14.920
16771W        W89119  34.980  37.437  14.803
16772W        W89120  16.780  32.925  13.312
16773W        W89121  43.303  30.431  13.331
16774W        W89122  37.552  27.024   2.780
16775W        W89123  29.483  17.776  10.587
16776W        W89124   0.330   7.207  11.539
16777W        W89125  28.531   2.431   3.795
16778W        W89126   2.913  24.104   3.319
16779W        W89127  19.199  31.646  14.361
16780W        W89128  11.160  34.884   1.261
16781W        W89129  15.191  19.722  14.304
16782W        W89130  21.551  21.713   1.405
16783W        W89131  22.585  44.501   4.657
16784W        W89132  26.079  19.689  11.955
16785W        W89133   0.774  39.514  10.572
16786W        W89134   5.275  34.888  10.119
16787W        W89135  43.986  19.081   0.269
16788W        W89136  34.901   3.371  12.008
16789W        W89137  38.997  13.812   4.833
16790W        W89138  22.590  21.251   1.388
16791W        W89139   8.214  25.197  12.465
16792W        W89140   5.861  43.766   2.761
16793W        W89141  35.052  35.094  13.493
16794W        W89142  33.091  40.962  11.909
16795W        W89143  43.452  29.604  13.031
16796W        W89144  24.120  24.708  12.546
16797W        W89145  18.783   9.869   0.348
16798W        W89146   4.829  23.562  12.364
16799W        W89147  27.191  21.641  14.964
16800W        W89148  11.285  40.371  14.003
16801W        W89149   0.753  14.102  10.501
16802W        W89150  24.670  32.050   2.662
16803W        W89151   0.251  26.537  12.447
16804W        W89152  27.964  33.408  13.800
16805W        W89153  34.889  19.586   0.425
16806W        W89154  11.669  43.453   4.268
16807W        W89155   4.374  35.443  10.526
16808W        W89156  34.073  38.349  11.388
16809W        W89157  21.248   0.757  11.495
16810W        W89158  13.257  18.546   4.702
16811W        W89159  36.573  29.920  14.388
16812W        W89160  38.956   3.740   4.235
16813W        W89161  34.455  39.450  10.947
16814W        W89162  26.588  21.037   0.384
16815W        W89163  40.461  14.108  11.382
16816W        W89164  29.017  20.227  13.022
16817W        W89165   5.697  14.193  11.592
16818W        W89166  24.599  28.457  10.469
16819W        W89167   7.774  21.124  12.994
16820W        W89168   6.738  20.174   2.342
16821W        W89169   5.246  33.956  14.951
16822W        W89170   5.716  32.617   0.474
16823W        W89171  43.790  34.551   3.746
16824W        W89172  29.576  41.825   3.823
16825W        W89173  10.770   6.782  13.989
16826W        W89174   3.861  12.259  13.797
16827W        W89175  40.333  11.647   1.439
16828W        W89176   0.253   6.850   4.679
16829W        W89177  38.568  17.593  12.541
16830W        W89178  19.764   9.357   0.320
16831W        W89179  20.136   6.219  12.383
16832W        W89180  30.145   8.252   1.698
16833W        W89181  15.248  22.717  13.524
16834W        W89182  12.680   2.863  12.986
16835W        W89183  35.495   2.912   4.782
16836W        W89184   0.819  40.335   2.679
16837W        W89185  20.238  12.178  13.477
16838W        W89186  14.830  11.276   0.252
16839W        W89187  17.228   0.269   4.825
16840W        W89188  24.054   3.785  11.002
16841W        W89189  22.737  37.915  13.327
16842W        W89190  19.236  32.597   5.760
16843W        W89191  11.358  33.467   2.205
16844W        W89192   0.875   3.945   4.656
16845W        W89193  11.179  44.296  14.311
16846W        W89194   5.931  29.118  10.425
16847W        W89195   7.227  10.227  13.359
16848W        W89196  40.364  18.080  12.472
16849W        W89197  24.050  19.066   0.963
16850W        W89198  37.029  21.151  11.602
16851W        W89199  44.292  31.642   4.180
16852W        W89200  23.610   2.919   2.821
16853W        W89201  18.706  41.426   3.638
16854W        W89202  36.408   2.312   4.197
16855W        W89203  24.702  10.749   2.798
16856W        W89204  24.055  18.095  12.522
16857W        W89205   5.358  23.520   0.785
16858W        W89206  18.604  28.510   1.312
16859W        W89207  39.409  39.394   0.907
16860W        W89208   3.864  35.012   1.321
16861W        W89209  14.230  13.252   2.678
16862W        W89210   8.286  11.653   0.739
16863W        W89211  19.677  37.342   9.957
16864W        W89212  13.106  35.952  14.894
16865W        W89213   0.863  36.521  10.500
16866W        W89214  26.622  28.445  13.416
16867W        W89215  11.649   5.798   9.976
16868W        W89216   1.239  13.613  12.347
16869W        W89217  15.812   4.909   1.787
16870W        W89218  43.514   7.717  10.486
16871W        W89219  13.126  27.529  10.623
16872W        W89220  44.283  21.018   1.758
16873W        W89221  23.493  19.211  14.019
16874W        W89222   2.742  39.011   3.794
16875W        W89223   0.838  33.037   2.683
16876W        W89224  37.400  31.908   4.812
16877W        W89225  39.471   5.735  13.817
16878W        W89226   1.416   9.395   2.753
16879W        W89227  19.621  33.056   0.457
16880W        W89228  27.612  26.631   5.084
16881W        W89229  16.793  10.794  12.558
16882W        W89230  12.662  31.541  12.843
16883W        W89231  19.771   3.803   0.363
16884W        W89232   6.732  19.066  11.880
16885W        W89233  37.440  20.542  11.986
16886W        W89234  16.621  37.973   3.826
16887W        W89235   4.233   9.229   0.909
16888W        W89236   7.415  34.894  14.793
16889W        W89237   3.742  31.633   1.316
16890W        W89238  12.271  20.259  14.974
16891W        W89239  25.642   1.424  12.452
16892W        W89240  22.641   1.745   1.325
16893W        W89241  19.567  12.197  11.990
16894W        W89242  21.143  41.862   3.158
16895W        W89243   0.765  22.072  11.434
16896W        W89244  40.880  26.197  12.955
16897W        W89245   1.960  24.213  11.886
16898W        W89246  24.578  43.771  13.470
16899W        W89247  35.401  15.607  14.896
16900W        W89248  37.413  31.490  11.051
16901W        W89249   8.263  36.063   4.670
16902W        W89250  19.597  13.749   1.288
16903W        W89251  24.107  40.522  13.452
16904W        W89252  17.258  31.611   0.873
16905W        W89253  26.591  33.379  10.577
16906W        W89254  10.833  43.432   2.797
16907W        W89255  16.779  28.004   4.776
16908W        W89256   3.784  13.640  13.382
16909W        W89257  13.767  41.512  13.467
16910W        W89258  28.995  36.485  12.424
16911W        W89259  37.034  44.275   2.795
16912W        W89260  17.596  36.489  12.924
16913W        W89261  26.115   8.758  13.388
16914W        W89262  15.610  14.793   9.529
16915W        W89263  42.846  40.847   0.367
16916W        W89264  44.278  35.992   3.637
16917W        W89265  28.511  34.372   0.457
16918W        W89266  13.208  19.768   1.891
16919W        W89267  39.008  44.498  13.495
16920W        W89268   0.925  34.084  10.429
16921W        W89269  17.748  12.258   1.384
16922W        W89270  29.022  25.020  10.423
16923W        W89271  31.602   2.445   0.906
16924W        W89272  13.143  11.627   0.471
16925W        W89273   4.703  31.482  14.783
16926W        W89274  41.460  19.635  10.956
16927W        W89275  10.340  40.807  12.891
16928W        W89276  15.142  28.532  13.470
16929W        W89277  26.204  21.166   5.103
16930W        W89278  10.870  43.861  12.012
16931W        W89279   5.846  44.465  14.835
16932W        W89280  17.675  19.576  13.456
16933W        W89281  24.142  41.951  11.933
16934W        W89282  11.729  10.374   2.385
16935W        W89283  17.121   2.428   4.743
16936W        W89284  40.044  43.949  13.424
16937W        W89285  26.516  30.133   1.330
16938W        W89286   6.846  15.792  12.092
16939W        W89287  13.270  35.046  10.618
16940W        W89288  26.080   4.751   0.440
16941W        W89289  17.095  43.295   3.717
16942W        W89290  38.059  25.980   4.747
16943W        W89291  21.149   0.263  14.866
16944W        W89292  26.678  16.645   3.329
16945W        W89293  34.930   9.852  12.419
16946W        W89294  33.010  23.236  12.069
16947W        W89295  14.144   2.327   2.764
16948W        W89296  13.619  19.229   1.765
16949W        W89297  11.201  43.827  12.941
16950W        W89298  40.400   0.862   4.163
16951W        W89299  23.224  10.238  10.424
16952W        W89300  13.340  44.468  11.958
16953W        W89301  30.120  42.373  12.050
16954W        W89302   4.416  19.573   3.374
16955W        W89303  26.142  25.710  12.515
16956W        W89304  35.954  14.156   3.718
16957W        W89305  44.260   1.438   4.239
16958W        W89306  22.163  21.559   2.810
16959W        W89307  41.959   7.769  12.009
16960W        W89308  25.962  30.096   4.340
16961W        W89309  40.920   6.237   4.324
16962W        W89310  10.333  29.943   4.249
16963W        W89311   9.783   0.846   0.916
16964W        W89312  16.801  37.476   4.248
16965W        W89313  33.573  15.133   0.342
16966W        W89314   7.201  11.361   0.943
16967W        W89315  36.975  31.961   0.331
16968W        W89316  14.109  38.535   1.243
16969W        W89317  19.169  14.109   4.342
16970W        W89318  41.513  35.441   3.288
16971W        W89319  44.956  19.238  12.041
16972W        W89320  31.531  34.964   1.868
16973W        W89321  19.699   6.802   2.686
16974W        W89322  42.907  30.525   2.783
16975W        W89323  43.775  39.375   3.206
16976W        W89324  26.556  31.154  11.938
16977W        W89325  21.564  27.537  13.008
16978W        W89326  24.981   3.434   1.860
16979W        W89327  14.321  21.728   1.348
16980W        W89328  14.641  11.162  14.981
16981W        W89329  30.119  43.283   0.945
16982W        W89330  26.671   8.291  12.054
16983W        W89331  31.118   0.381   2.182
16984W        W89332  11.719  31.116  14.437
16985W        W89333  40.513  31.480  12.075
16986W        W89334   8.368  32.996  10.025
16987W        W89335  16.142   5.215  11.994
16988W        W89336  41.384   0.340  14.009
16989W        W89337   1.823   5.258  14.764
16990W        W89338  38.897   6.296  10.461
16991W        W89339  14.602   4.703   2.336
16992W        W89340  31.992   5.723   1.750
16993W        W89341   5.199  32.552   4.139
16994W        W89342  22.229  40.885   2.264
16995W        W89343  32.561  45.000   4.800
16996W        W89344  13.163   6.398   0.252
16997W        W89345   9.374   3.781  10.570
16998W        W89346  34.923  14.758   3.824
16999W        W89347   6.794  13.162   2.271
17000W        W89348  30.128  27.481   4.168
17001W        W89349  25.539  31.490  11.443
17002W        W89350  20.074  21.250   3.848
17003W        W89351  24.712  17.088   1.265
17004W        W89352  22.540  41.369   4.817
17005W        W89353   4.396  17.712  10.974
17006W        W89354   7.402  31.973   2.760
17007W        W89355  10.243  19.242  12.090
17008W        W89356   7.375  37.885   3.823
17009W        W89357   4.912   5.841  13.493
17010W        W89358  13.621   5.818  13.799
17011W        W89359   5.793  19.715  12.449
17012W        W89360  28.063  18.133   0.843
17013W        W89361  24.983   8.790   5.311
17014W        W89362  29.944  18.216  11.941
17015W        W89363   8.210  32.889  12.575
17016W        W89364  30.618  10.172  12.401
17017W        W89365   5.407  27.457   2.867
17018W        W89366  39.843  22.649   2.676
17019W        W89367  34.608  26.675   1.330
17020W        W89368   3.355   2.924  11.102
17021W        W89369  24.708  34.045   4.600
17022W        W89370  36.984   9.233   0.880
17023W        W89371   6.904   9.704  11.987
17024W        W89372   1.768  12.618   2.342
17025W        W89373  27.458   0.354   3.758
17026W        W89374  27.591  38.922   4.816
17027W        W89375  30.079  36.473  13.974
17028W        W89376  31.523   7.290   5.306
17029W        W89377  36.474  12.157  13.364
17030W        W89378   5.836  28.605   3.194
17031W        W89379  15.736  35.972   2.229
17032W        W89380  32.542  35.098  10.132
17033W        W89381  16.710  33.948   1.898
17034W        W89382  15.630  25.216  12.352
17035W        W89383  18.710  33.057   4.635
17036W        W89384   9.843   7.222   4.821
17037W        W89385  27.070  25.110  12.392
17038W        W89386  29.154  41.489  11.868
17039W        W89387   3.239  33.438  13.977
17040W        W89388  17.604  12.787   0.276
17041W        W89389  31.491  24.495   1.771
17042W        W89390  11.796  32.024   1.913
17043W        W89391   1.890  26.641  11.414
17044W        W89392   7.402  41.412  12.494
17045W        W89393  23.007   8.751   3.306
17046W        W89394  40.998   9.751   1.441
17047W        W89395  36.864  20.569   4.123
17048W        W89396  31.951  36.456   0.258
17049W        W89397  33.937  33.572   2.877
17050W        W89398  15.314  10.816   0.948
17051W        W89399  23.990   1.893  13.795
17052W        W89400  36.983  14.256  10.909
17053W        W89401  38.428  39.860  14.275
17054W        W89402  22.557   8.218  14.496
17055W        W89403  41.374  11.773  13.962
17056W        W89404  18.244  27.070   2.861
17057W        W89405  13.248  25.193   2.831
17058W        W89406  31.070  36.487  10.007
17059W        W89407  41.372   7.858   1.806
17060W        W89408  29.654  18.648   2.336
17061W        W89409   6.915  33.916  13.956
17062W        W89410  41.364  44.482   1.419
17063W        W89411  36.091   0.371   3.310
17064W        W89412  20.274   9.800  12.929
17065W        W89413  41.329  16.124  14.311
17066W        W89414  10.746   4.729  11.970
17067W        W89415  38.453   6.219  12.438
17068W        W89416  34.459  30.491   2.274
17069W        W89417  22.633  23.660  10.410
17070W        W89418  22.613  15.596   3.729
17071W        W89419  21.029  35.062  11.107
17072W        W89420  34.016  21.105   5.133
17073W        W89421  36.048  30.496   3.274
17074W        W89422  12.711  24.684   4.212
17075W        W89423  36.051  31.110  11.434
17076W        W89424  12.302  19.549   1.366
17077W        W89425   9.299  22.697   4.135
17078W        W89426   9.226  35.501   0.404
17079W        W89427  44.786  16.615  12.975
17080W        W89428  18.273  24.722   3.795
17081W        W89429  39.501  16.293   2.224
17082W        W89430  37.036  30.413   2.409
17083W        W89431   9.318  27.570   4.239
17084W        W89432  17.092   1.834  10.502
17085W        W89433   7.233  21.252   2.355
17086W        W89434   1.310   7.800   3.680
17087W        W89435   0.441  19.547  14.020
17088W        W89436  35.499  41.900  12.341
17089W        W89437  23.551  25.195  12.519
17090W        W89438  10.848  30.483  13.980
17091W        W89439  44.448   2.380   3.280
17092W        W89440   7.699  20.766  12.938
17093W        W89441  38.347  13.809   1.251
17094W        W89442  13.336  30.025   0.249
17095W        W89443  35.075  30.093   4.739
17096W        W89444  20.590  19.646  14.866
17097W        W89445  17.296   1.292   4.169
17098W        W89446  10.659  32.000  12.447
17099W        W89447  10.697   3.724   0.341
17100W        W89448  15.786   0.415   9.964
17101W        W89449  23.580   2.787   1.825
17102W        W89450  38.518  14.265  11.122
17103W        W89451  14.723  15.759   2.298
17104W        W89452  43.323  18.161   1.359
17105W        W89453   6.921  38.466  14.352
17106W        W89454  38.035  26.987  13.981
17107W        W89455  33.572  10.687   1.723
17108W        W89456  43.799  25.557   1.433
17109W        W89457  21.075  34.590   3.700
17110W        W89458  13.241  33.010   0.870
17111W        W89459  38.997  23.225  10.507
17112W        W89460  32.437  20.131   3.697
17113W        W89461  34.057  41.495   3.731
17114W        W89462  27.473   4.826  10.642
17115W        W89463   7.210  37.859   2.796
17116W        W89464   8.171  32.134   4.178
17117W        W89465  17.155  27.108   0.320
17118W        W89466  25.156  32.990  14.819
17119W        W89467  44.318  29.489  11.387
17120W        W89468  26.205  19.233   3.815
17121W        W89469   6.803  11.817   0.771
17122W        W89470  10.234   2.251   5.086
17123W        W89471  22.127   5.856   2.732
17124W        W89472  21.708  37.866  10.436
17125W        W89473  35.102  10.707   4.735
17126W        W89474  30.140   9.667   3.201
17127W        W89475  15.286  35.110  12.088
17128W        W89476  11.368  13.701   4.831
17129W        W89477  43.432  40.472   4.311
17130W        W89478  11.846  10.639   0.913
17131W        W89479  27.973  13.830   1.738
17132W        W89480  26.034  10.648   3.201
17133W        W89481  22.694  39.420  12.528
17134W        W89482   1.834  16.687   0.388
17135W        W89483  18.672   4.787   4.262
17136W        W89484   3.358   6.277  11.108
17137W        W89485  23.503  44.954  14.407
17138W        W89486  24.118  24.113   4.290
17139W        W89487   1.260   4.747  11.588
17140W        W89488   1.792  22.661  14.905
17141W        W89489  41.843  42.823   0.832
17142W        W89490   7.229  24.628   3.633
17143W        W89491  23.681  28.435   0.892
17144W        W89492  25.570   3.710  14.310
17145W        W89493  10.632   1.861   0.423
17146W        W89494  14.205  39.320   2.790
17147W        W89495  35.078   4.843   9.951
17148W        W89496  10.318  38.871  14.930
17149W        W89497  14.678   9.162   4.259
17150W        W89498  44.892  17.157   0.920
17151W        W89499  29.016   4.798   2.413
17152W        W89500  12.671  43.514   1.339
17153W        W89501  28.984  25.569  13.798
17154W        W89502  40.969   8.290   1.884
17155W        W89503  29.065  13.685  12.952
17156W        W89504  42.015  38.393   3.161
17157W        W89505  35.519  24.654   4.143
17158W        W89506   6.893  21.642  11.611
17159W        W89507  17.102  37.558  14.327
17160W        W89508   7.253  20.070   4.732
17161W        W89509  31.029   8.315  13.814
17162W        W89510  25.667  31.089  13.035
17163W        W89511   5.811  25.571  10.972
17164W        W89512  25.024  17.076  14.338
17165W        W89513  31.403   6.889  14.396
17166W        W89514   9.664  36.877   1.334
17167W        W89515  27.094  34.930  14.351
17168W        W89516   1.770  33.544   4.705
17169W        W89517  10.195  32.935  12.042
17170W        W89518  25.041  10.200   9.958
17171W        W89519  31.568  34.613  10.614
17172W        W89520  25.657  17.288   2.685
17173W        W89521  21.523  41.329  12.030
17174W        W89522  12.276  27.050   0.295
17175W        W89523  40.867  41.406  14.907
17176W        W89524   3.746  39.003   0.476
17177W        W89525   9.172  12.795   1.872
17178W        W89526  14.186  44.861  10.612
17179W        W89527  21.199  25.699   3.152
17180W        W89528  36.032  44.417  14.947
17181W        W89529  39.053  21.648  11.869
17182W        W89530  14.644   2.838  12.044
17183W        W89531  32.017  30.599   3.660
17184W        W89532   9.186  22.080   0.363
17185W        W89533  22.534   4.876  14.436
17186W        W89534   6.711  27.641  11.050
17187W        W89535  41.404   2.372   1.715
17188W        W89536  40.372   5.327   4.280
17189W        W89537  26.076  19.756  10.889
17190W        W89538  10.822  26.098  10.432
17191W        W89539   6.918  27.467  12.896
17192W        W89540  29.584   8.275  10.944
17193W        W89541  20.611  15.184  14.942
17194W        W89542  16.144  26.580  11.931
17195W        W89543  33.113   3.405  14.913
17196W        W89544  35.447  39.984  11.866
17197W        W89545   7.242  30.116   9.973
17198W        W89546   2.738   0.851  11.001
17199W        W89547  28.539  25.535  10.547
17200W        W89548  15.699   7.335   4.778
17201W        W89549  28.012   7.290   3.765
17202W        W89550  33.121  10.339  12.356
17203W        W89551  18.169   1.845  10.582
17204W        W89552  44.874  38.915   4.663
17205W        W89553  30.940  33.416   3.725
17206W        W89554  37.874  22.706  13.353
17207W        W89555  32.611  21.561  13.506
17208W        W89556  18.547   5.261   0.882
17209W        W89557   1.756   7.194  11.522
17210W        W89558  43.848  10.646  10.441
17211W        W89559  37.935  30.992   3.708
17212W        W89560  38.548   8.213  11.928
17213W        W89561  21.019   8.222  11.072
17214W        W89562  37.499   2.431  14.023
17215W        W89563  14.143   3.242   0.249
17216W        W89564   1.971   5.885   0.329
17217W        W89565  38.916  39.344  11.486
17218W        W89566  40.360  42.316   0.827
17219W        W89567  32.619   1.932   0.462
17220W        W89568  25.496   2.745   2.662
17221W        W89569  39.864  23.540   4.724
17222W        W89570  35.420  14.245   0.393
17223W        W89571  33.479  20.721  14.450
17224W        W89572  36.384  44.869   1.762
17225W        W89573  41.477  26.555   1.372
17226W        W89574  16.094   4.223  13.318
17227W        W89575  24.203  26.612  11.473
17228W        W89576  18.119  25.536  10.996
17229W        W89577  34.041  42.367  10.573
17230W        W89578  32.934  10.148  12.062
17231W        W89579  26.533  43.916   2.210
17232W        W89580  18.673  10.347  12.522
17233W        W89581  40.533  28.186  11.909
17234W        W89582  29.988  43.765   3.196
17235W        W89583  43.498  25.146   5.152
17236W        W89584   5.316   5.391  14.870
17237W        W89585   7.723  19.128   2.353
17238W        W89586  22.228  27.637  14.387
17239W        W89587  38.849  27.974   3.741
17240W        W89588   6.367  20.093   4.772
17241W        W89589  15.104  17.202   4.635
17242W        W89590  26.589  14.143  12.083
17243W        W89591   3.860  36.093   4.742
17244W        W89592   8.673   4.885   5.109
17245W        W89593  22.706   5.285   2.842
17246W        W89594  28.040   4.209  10.570
17247W        W89595  27.949  10.357   1.836
17248W        W89596   2.760   7.362   2.182
17249W        W89597  10.361  27.488  12.356
17250W        W89598   9.152  31.986  12.829
17251W        W89599  41.526  34.582  10.424
17252W        W89600  36.491  43.014   2.726
17253W        W89601  10.645  26.081   1.790
17254W        W89602  33.889  44.986   4.697
17255W        W89603  16.720  13.798  14.926
17256W        W89604  41.405  39.394   3.766
17257W        W89605  11.768  34.374   1.404
17258W        W89606  32.499  18.175   0.731
17259W        W89607  38.901  36.398   4.322
17260W        W89608  28.570  31.641  10.909
17261W        W89609  15.233  29.942   1.367
17262W        W89610  11.702  12.641  11.952
17263W        W89611  26.611   5.209  14.279
17264W        W89612  32.085   3.457   0.268
17265W        W89613  22.539  33.550  12.061
17266W        W89614   6.810  18.230   4.223
17267W        W89615  24.136  33.080  14.514
17268W        W89616  43.492  40.907   3.772
17269W        W89617  15.622  23.998  13.440
17270W        W89618  27.015  41.411   3.345
17271W        W89619   6.412  19.584   4.670
17272W        W89620  42.897  42.308   3.753
17273W        W89621  41.507  28.604   2.668
17274W        W89622  27.120  39.471   0.781
17275W        W89623  42.013  32.992   1.380
17276W        W89624   0.305  16.292  13.034
17277W        W89625  27.990  28.499   2.382
17278W        W89626  23.687  27.046  14.424
17279W        W89627   3.908   4.280   1.421
17280W        W89628   2.851  34.576   0.414
17281W        W89629  17.650  18.136   0.731
17282W        W89630  18.726  25.544   3.843
17283W        W89631   2.825  24.503   1.319
17284W        W89632  36.516  38.388   0.952
17285W        W89633   0.361  29.619   3.295
17286W        W89634  26.470  19.680   0.279
17287W        W89635  27.622   6.405  10.999
17288W        W89636   7.384  43.931   2.402
17289W        W89637  18.282  42.955   1.749
17290W        W89638  35.539  24.704  12.901
17291W        W89639  34.012  36.424  10.639
17292W        W89640  15.650  44.820  12.369
17293W        W89641  18.277  22.100  12.054
17294W        W89642  34.593  24.569  14.001
17295W        W89643  40.870   1.827  11.091
17296W        W89644  35.423  28.069   3.731
17297W        W89645  10.678  21.630   5.289
17298W        W89646  21.201  31.548   0.728
17299W        W89647   8.202  38.011   2.805
17300W        W89648  20.045   0.384  10.427
17301W        W89649  18.242  18.125   0.924
17302W        W89650  30.949  25.127   3.337
17303W        W89651  25.625  10.231  12.017
17304W        W89652  13.811  35.005   3.735
17305W        W89653  20.558  17.708   4.630
17306W        W89654  27.454   8.776  14.284
17307W        W89655  36.562  41.403   2.840
17308W        W89656   4.884  12.689   1.887
17309W        W89657  43.930   8.191  11.975
17310W        W89658   3.275  22.196   0.411
17311W        W89659  18.073  33.419   1.887
17312W        W89660  17.162  18.666   4.820
17313W        W89661  34.911   1.966   3.199
17314W        W89662  10.807   8.294  12.883
17315W        W89663   9.709  21.152  12.507
17316W        W89664   2.333   0.877   1.373
17317W        W89665  13.639  39.859  12.432
17318W        W89666   8.380  25.604  11.481
17319W        W89667  36.590  18.056  10.452
17320W        W89668  28.525   3.413   3.719
17321W        W89669  15.182  37.876   3.309
17322W        W89670  23.184  35.570  13.374
17323W        W89671  14.211  12.668   0.323
17324W        W89672  30.605  16.690  11.894
17325W        W89673  17.258  17.281   5.243
17326W        W89674  35.013  21.746  14.969
17327W        W89675  39.859   0.957   0.893
17328W        W89676   3.384  40.395  10.618
17329W        W89677   3.274  19.745  14.465
17330W        W89678  13.679  16.614  11.109
17331W        W89679  18.713  33.953  11.913
17332W        W89680  16.806  23.507   0.883
17333W        W89681  10.763  14.203   1.335
17334W        W89682  23.616   8.750  11.012
17335W        W89683  39.347   1.431   1.740
17336W        W89684  30.468  35.083  11.557
17337W        W89685  41.390  22.506  12.934
17338W        W89686   1.937  36.396   2.831
17339W        W89687  18.765   0.770   3.311
17340W        W89688  33.945  14.189   3.669
17341W        W89689  31.146   2.266   3.652
17342W        W89690  25.485  40.923  10.509
17343W        W89691  31.457   4.756  10.479
17344W        W89692  44.359  19.113   0.829
17345W        W89693  11.649  31.986  11.605
17346W        W89694  38.539  35.900   3.292
17347W        W89695  43.014  34.881  11.882
17348W        W89696  13.320  23.040   2.713
17349W        W89697  22.610   0.357   3.271
17350W        W89698  12.229  14.225  14.774
17351W        W89699  27.121  17.650   0.476
17352W        W89700   0.431  15.587  12.529
17353W        W89701   5.201  31.640  11.995
17354W        W89702  19.105  13.639  11.962
17355W        W89703  42.452  31.935   3.356
17356W        W89704  13.131   9.199  11.391
17357W        W89705  33.405  41.972   2.673
17358W        W89706  29.113  30.148  13.053
17359W        W89707  29.152  18.667   1.721
17360W        W89708   5.372  35.951   4.316
17361W        W89709  27.613  13.623  10.498
17362W        W89710  34.439  16.084   4.166
17363W        W89711  44.264  43.793   9.971
17364W        W89712  21.031  21.729  12.972
17365W        W89713  30.586  43.872  13.805
17366W        W89714  19.663  36.971  13.791
17367W        W89715  40.320  18.624  14.842
17368W        W89716   6.259  12.316   1.307
17369W        W89717  19.745   3.737  13.524
17370W        W89718   1.973   4.861  11.445
17371W        W89719  33.118  30.061  14.311
17372W        W89720  32.099   7.394  13.412
17373W        W89721   2.464  31.517   4.739
17374W        W89722  23.533  24.218  12.380
17375W        W89723  20.102   7.195  13.536
17376W        W89724  39.825  16.718   2.202
17377W        W89725  41.951  34.901   2.360
17378W        W89726  20.079   8.664  14.348
17379W        W89727  30.447  20.236   4.759
17380W        W89728  33.119  30.020   0.300
17381W        W89729  10.645  26.483  13.329
17382W        W89730  18.230  30.608  10.413
17383W        W89731  21.642  14.153  13.030
17384W        W89732   7.210  26.955  13.446
17385W        W89733  20.184  42.283   2.737
17386W        W89734  17.175  34.411  14.376
17387W        W89735  24.142  40.935  14.924
17388W        W89736  27.023  43.898   1.812
17389W        W89737  16.075  30.150  10.424
17390W        W89738  20.662   3.277   2.360
17391W        W89739  42.816   7.729  12.422
17392W        W89740  43.306   2.357  13.511
17393W        W89741  13.838  42.429  10.434
17394W        W89742  19.172  24.589   3.364
17395W        W89743   9.188  25.597   3.187
17396W        W89744   9.740  13.318  10.486
17397W        W89745   7.196  12.318  12.840
17398W        W89746  31.576  43.952  12.453
17399W        W89747   7.217  21.072  12.493
17400W        W89748  44.281   2.431   4.127
17401W        W89749  38.427  39.388   4.768
17402W        W89750  14.634  40.022   0.871
17403W        W89751  24.129  11.851  11.575
17404W        W89752  31.573  22.122  12.992
17405W        W89753  18.178  43.869  13.045
17406W        W89754  38.438  23.674  13.868
17407W        W89755  17.725  29.546  13.987
17408W        W89756  12.702  37.054  14.396
17409W        W89757  10.187  44.948   3.324
17410W        W89758  30.148  21.726  14.438
17411W        W89759   4.732  11.199   4.231
17412W        W89760  22.006  23.138  10.928
17413W        W89761  10.242  31.585  13.421
17414W        W89762  34.018   5.868   2.745
17415W        W89763   3.285  22.739   5.224
17416W        W89764   0.835  26.072  11.066
17417W        W89765   6.225   0.975   9.953
17418W        W89766   3.416   1.832  14.028
17419W        W89767  36.440  21.184   3.743
17420W        W89768  40.461  28.145  10.012
17421W        W89769  18.785  37.081   1.306
17422W        W89770  22.037  31.128  12.999
17423W        W89771  28.493   0.794  11.515
17424W        W89772  10.813   6.286   0.940
17425W        W89773  42.415  33.573  11.885
17426W        W89774  23.570   7.678  10.507
17427W        W89775  26.544  44.913   3.809
17428W        W89776  40.316  20.638   3.827
17429W        W89777  10.265  26.624  14.823
17430W        W89778  25.203  38.434  11.526
17431W        W89779  11.760  44.340   2.772
17432W        W89780  27.101  10.240   2.776
17433W        W89781  12.816   7.204  13.982
17434W        W89782   7.906  19.220   2.780
17435W        W89783   1.860   0.887  14.913
17436W        W89784   7.858  22.636   5.146
17437W        W89785  15.215  18.569  11.601
17438W        W89786   8.654  31.524   2.323
17439W        W89787  31.050  26.135  13.542
17440W        W89788  23.705  18.273  14.450
17441W        W89789   3.736   2.862  13.326
17442W        W89790  35.480  29.472  10.918
17443W        W89791  40.361  10.215  12.889
17444W        W89792  10.711   8.367  11.607
17445W        W89793  34.051  18.052   1.896
17446W        W89794  23.504   2.464   3.192
17447W        W89795  19.649  22.509   5.292
17448W        W89796  29.140   5.734  12.981
17449W        W89797   8.874  16.130  14.011
17450W        W89798  33.912  19.236  14.362
17451W        W89799  23.661  18.780   4.603
17452W        W89800   5.818  25.026  13.910
17453W        W89801  26.167  29.540   3.689
17454W        W89802  22.235  18.267   4.164
17455W        W89803   2.888  20.255  13.036
17456W        W89804  25.214  21.666   1.246
17457W        W89805  10.183  33.466  13.824
17458W        W89806  23.200  25.609  13.006
17459W        W89807  31.049   5.223  12.878
17460W        W89808   5.436  34.545   4.301
17461W        W89809  22.038  15.701  14.998
17462W        W89810  31.091  22.586  12.409
17463W        W89811   0.864  25.059   2.366
17464W        W89812  31.009   1.420  12.000
17465W        W89813  17.081  26.679  13.003
17466W        W89814  36.562   2.413  14.847
17467W        W89815  29.565   4.409   0.343
17468W        W89816   4.367  41.823  14.871
17469W        W89817  38.520  36.488  12.915
17470W        W89818   4.797  37.838   1.838
17471W        W89819  14.632  36.079  13.934
17472W        W89820   4.768  31.534  12.045
17473W        W89821  28.519   9.382   2.696
17474W        W89822   4.865   7.176  14.785
17475W        W89823   1.816  30.463  11.494
17476W        W89824  22.158   6.763   4.186
17477W        W89825  10.191  30.588   1.889
17478W        W89826  24.977   1.411   3.355
17479W        W89827  10.750  41.391  10.439
17480W        W89828  21.563  44.789  14.980
17481W        W89829  30.559  44.329  11.890
17482W        W89830  39.319   5.340   9.577
17483W        W89831   9.280  40.886   3.720
17484W        W89832  33.391  25.675  11.426
17485W        W89833   0.869   4.415  11.437
17486W        W89834  34.900   6.376   4.327
17487W        W89835   3.422  29.972  14.826
17488W        W89836  14.117  23.097   0.768
17489W        W89837  33.409   8.348  10.988
17490W        W89838   9.815   4.923  14.893
17491W        W89839  21.207  15.707  11.604
17492W        W89840   3.737  38.375   4.151
17493W        W89841   1.444  17.103   3.201
17494W        W89842  44.495  25.084   3.667
17495W        W89843   6.698   2.247   2.294
17496W        W89844  13.834  20.625   4.228
17497W        W89845  40.959  33.402  10.513
17498W        W89846   1.366  29.468  10.541
17499W        W89847  21.230  19.659   4.638
17500W        W89848  12.195  19.556   3.738
17501W        W89849   2.789  21.644   1.399
17502W        W89850  19.619   9.668   2.309
17503W        W89851  23.238  35.034  12.529
17504W        W89852  31.645  14.155   0.350
17505W        W89853  24.158  31.118  14.816
17506W        W89854  25.022  16.646  11.086
17507W        W89855  11.357   7.247   2.901
17508W        W89856  16.152   6.273   4.723
17509W        W89857   0.426   3.718   0.810
17510W        W89858  36.968  17.295   2.707
17511W        W89859  35.526   5.263  11.966
17512W        W89860  29.160   5.225  10.631
17513W        W89861  16.315  42.284  11.510
17514W        W89862  15.718   9.171  10.424
17515W        W89863   9.152  31.989   4.796
17516W        W89864  26.037   1.465   1.376
17517W        W89865  35.575  14.197   1.893
17518W        W89866  37.948  26.525  11.895
17519W        W89867  41.319  20.646  11.054
17520W        W89868  43.873  37.976  14.771
17521W        W89869   1.831  38.432   4.236
17522W        W89870  25.151   4.721   5.122
17523W        W89871  19.126   4.931   2.666
17524W        W89872  42.304   8.847   2.239
17525W        W89873   7.877  29.062   3.715
17526W        W89874   5.383  32.007   2.666
17527W        W89875  17.653  32.972  11.485
17528W        W89876  36.430  39.400  14.915
17529W        W89877  38.519  33.884  11.580
17530W        W89878   6.832  30.087   0.860
17531W        W89879   4.253  11.819  10.505
17532W        W89880   9.257  11.801   4.765
17533W        W89881  29.504   7.677  14.897
17534W        W89882  35.367   7.891  11.564
17535W        W89883  15.786  28.584   0.941
17536W        W89884  28.022  21.039   0.833
17537W        W89885  24.518  21.261   1.442
17538W        W89886  24.131  17.107   5.177
17539W        W89887  11.811  37.362  10.950
17540W        W89888  24.975  44.386   0.875
17541W        W89889  28.436  18.114  12.955
17542W        W89890  11.347  11.189   0.412
17543W        W89891  27.681  13.766  11.546
17544W        W89892  24.602  40.479  12.055
17545W        W89893   9.329  31.458   0.414
17546W        W89894   9.708  10.801   3.673
17547W        W89895  41.358   9.807   0.844
17548W        W89896  44.332  22.186  14.011
17549W        W89897  28.053  44.004  10.603
17550W        W89898  36.980  28.610   4.691
17551W        W89899   0.952  40.917  14.876
17552W        W89900  17.566  41.349  11.900
17553W        W89901  35.073  13.263   2.272
17554W        W89902   0.323   6.916  12.358
17555W        W89903  27.137   6.822   2.262
17556W        W89904  40.503  25.044   2.277
17557W        W89905  19.063  42.494  12.391
17558W        W89906  30.446   7.328  11.473
17559W        W89907  21.232  17.106   4.292
17560W        W89908  27.135  29.038  11.565
17561W        W89909  20.086  29.514   4.604
17562W        W89910  11.182  17.560   4.277
17563W        W89911  10.347  15.183   2.265
17564W        W89912  23.678  42.323  11.952
17565W        W89913   9.750  27.074  12.920
17566W        W89914  11.847  14.269   1.426
17567W        W89915  28.178  35.566   4.669
17568W        W89916  38.017  23.151  10.423
17569W        W89917   8.822   5.216  13.389
17570W        W89918  41.305  16.188   2.807
17571W        W89919  19.060  34.574   3.692
17572W        W89920  34.092  42.311  13.447
17573W        W89921  19.256  25.112   2.740
17574W        W89922   8.746  29.476   5.207
17575W        W89923  24.058   7.687   5.789
17576W        W89924  29.046  30.067   1.246
17577W        W89925  42.987  27.182  13.863
17578W        W89926   3.739  17.235   0.793
17579W        W89927  35.035   8.305   2.355
17580W        W89928  29.445  19.696   0.823
17581W        W89929  23.620  36.542   3.240
17582W        W89930   5.887  34.405   3.686
17583W        W89931  31.909  40.047  12.402
17584W        W89932  14.608   5.359  13.855
17585W        W89933  32.934  14.313  13.010
17586W        W89934   6.701  17.753  13.493
17587W        W89935  15.084  20.272  11.897
17588W        W89936  18.055  18.626   0.799
17589W        W89937  15.745  30.068   4.227
17590W        W89938  27.091  25.032   1.321
17591W        W89939  24.648  16.221   4.237
17592W        W89940   4.325  39.530   3.352
17593W        W89941  42.486  30.633  13.976
17594W        W89942  12.710  23.603  14.989
17595W        W89943   9.213  38.349  12.015
17596W        W89944   3.818  17.104  14.306
17597W        W89945  13.298   0.325   4.310
17598W        W89946  14.737   3.788  11.064
17599W        W89947  28.016  20.547  13.325
17600W        W89948  27.120  37.930  11.493
17601W        W89949  34.006   6.183   1.735
17602W        W89950  27.681  40.936  13.309
17603W        W89951   5.933  13.844   1.852
17604W        W89952  13.131  26.188  10.449
17605W        W89953  35.023  14.666   2.895
17606W        W89954  27.677  26.680   1.243
17607W        W89955  34.943  43.940  10.421
17608W        W89956  30.993  11.194  14.889
17609W        W89957  23.590  34.563  13.807
17610W        W89958  24.538   4.395   1.424
17611W        W89959  26.529  27.574   2.310
17612W        W89960  10.812  16.773   1.347
17613W        W89961   2.446   0.324   4.335
17614W        W89962  20.660  28.485  11.029
17615W        W89963  17.597  10.752   3.747
17616W        W89964  25.052   7.279  12.038
17617W        W89965  38.824  35.106  13.817
17618W        W89966  19.612  20.028  10.484
17619W        W89967  28.953  12.361   0.480
17620W        W89968  18.160  43.769   3.170
17621W        W89969   3.738  36.573  13.836
17622W        W89970  30.528  44.983  10.950
17623W        W89971  31.995  39.866  12.880
17624W        W89972  29.647   6.821   2.741
17625W        W89973   5.195  43.927  10.941
17626W        W89974  13.782  31.526   1.369
17627W        W89975  28.496  29.468   1.904
17628W        W89976   9.752  38.014  12.975
17629W        W89977  33.085  36.914  13.936
17630W        W89978   8.774  40.038   3.737
17631W        W89979  19.699  25.487  13.805
17632W        W89980  15.653  20.092   2.816
17633W        W89981  24.142   6.781   2.726
17634W        W89982   0.293  20.154   0.252
17635W        W89983  32.993  18.198   1.757
17636W        W89984   6.860  17.624   4.267
17637W        W89985  20.125  13.109   0.377
17638W        W89986  14.216  37.454  12.442
17639W        W89987  43.472  36.455  14.882
17640W        W89988   3.354  42.965  13.023
17641W        W89989  29.066   1.743  14.937
17642W        W89990  28.467  21.074  13.832
17643W        W89991   2.795  26.120  14.942
17644W        W89992  33.409  39.925   2.680
17645W        W89993  32.400  16.733  14.952
17646W        W89994  21.647  34.613  12.561
17647W        W89995  16.678  36.876  14.351
17648W        W89996  28.974  38.911  10.631
17649W        W89997  24.719  42.955  10.128
17650W        W89998  17.079  28.641  13.964
17651W        W89999  20.041  38.470  11.533
17652W        W90000  35.487  25.482   0.253
17653W        W90001  34.988   0.483   1.830
17654W        W90002  42.980  32.602   2.327
17655W        W90003   0.439   7.721   2.312
17656W        W90004  38.938   5.273  10.595
17657W        W90005  41.835  39.885   2.360
17658W        W90006  41.467  10.176  14.329
17659W        W90007  31.414  19.719  12.562
17660W        W90008  29.107  22.247  12.086
17661W        W90009  37.345  32.036  13.933
17662W        W90010   1.336  21.726  11.497
17663W        W90011   8.753  20.762  13.972
17664W        W90012   8.785  34.040   4.320
17665W        W90013   9.723  14.206   2.407
17666W        W90014  29.519  33.415   0.810
17667W        W90015  12.803  13.673  10.439
17668W        W90016   1.383  38.998  10.013
17669W        W90017  14.309  34.943   1.832
17670W        W90018  37.420  22.124   2.810
17671W        W90019   4.254  17.638  10.569
17672W        W90020   4.307  11.758   3.370
17673W        W90021  28.978  35.990  14.282
17674W        W90022  34.526   4.807  13.828
17675W        W90023   5.198  18.582   1.420
17676W        W90024  22.184  24.976   0.421
17677W        W90025   8.264   8.736   4.631
17678W        W90026   5.356  37.437  13.976
17679W        W90027  38.931  24.186   0.449
17680W        W90028   2.455  10.328   4.613
17681W        W90029  32.012  27.138   0.377
17682W        W90030  16.619   8.231   1.238
17683W        W90031  37.006  12.790  11.548
17684W        W90032  17.282  26.064   3.297
17685W        W90033  41.027   6.911  12.031
17686W        W90034  16.090  40.950   4.174
17687W        W90035  33.422  36.436  13.340
17688W        W90036  20.033  23.103  12.991
17689W        W90037  35.906   2.330   1.391
17690W        W90038  19.192   1.842  13.000
17691W        W90039  33.552  18.667   4.759
17692W        W90040  27.595  19.234  14.394
17693W        W90041   4.894  44.763  13.974
17694W        W90042  26.508  37.551  14.936
17695W        W90043  36.006  24.138  14.787
17696W        W90044  36.570  17.234   2.806
17697W        W90045  39.930  26.691  11.580
17698W        W90046   9.218  18.621   5.244
17699W        W90047  42.889  37.849   4.250
17700W        W90048  18.766  32.423  13.798
17701W        W90049  39.462  10.213  12.518
17702W        W90050  29.152  30.999  14.484
17703W        W90051  30.932  15.714  12.911
17704W        W90052  10.280  17.196   2.375
17705W        W90053   1.747   9.379  13.826
17706W        W90054  14.590  42.940  14.939
17707W        W90055  39.830  24.639   1.831
17708W        W90056  11.695  22.700   2.684
17709W        W90057  35.068   9.267   2.300
17710W        W90058  34.933  23.196   4.130
17711W        W90059  34.488  30.091  12.941
17712W        W90060  41.422   5.417  11.452
17713W        W90061  24.535   3.735   4.820
17714W        W90062  11.621  34.931  12.993
17715W        W90063  35.884  10.374   9.928
17716W        W90064  37.975  13.829   2.858
17717W        W90065  27.446  27.691  14.847
17718W        W90066  15.151  39.509   2.356
17719W        W90067  35.590  15.276  10.466
17720W        W90068  36.018  26.997   0.288
17721W        W90069  39.358  36.021   1.235
17722W        W90070  38.542  12.302  10.949
17723W        W90071  19.614  30.974  13.801
17724W        W90072  38.449  14.694   3.159
17725W        W90073   8.691   5.832   4.687
17726W        W90074  35.967  13.115   5.108
17727W        W90075  32.007  12.840   1.238
17728W        W90076   9.258  35.585   1.236
17729W        W90077  28.090  39.972   3.744
17730W        W90078   6.871   0.956   0.459
17731W        W90079   5.905   3.274   0.388
17732W        W90080   0.307  32.112  11.456
17733W        W90081  26.525  34.517  11.430
17734W        W90082  43.788  34.874   1.792
17735W        W90083  11.767  36.365   4.656
17736W        W90084  22.121   3.323   3.163
17737W        W90085  33.008  28.567   2.681
17738W        W90086   2.415  35.371  12.949
17739W        W90087   1.461  16.251  13.946
17740W        W90088  25.581  10.790   2.874
17741W        W90089   4.403  29.951   4.320
17742W        W90090  32.408  37.350   0.879
17743W        W90091  10.199   2.321  13.976
17744W        W90092  38.031  27.049  12.057
17745W        W90093  36.541   2.369   0.795
17746W        W90094  38.386  32.516   3.636
17747W        W90095   0.274  23.666   1.434
17748W        W90096  14.278  19.617   0.405
17749W        W90097  15.175   6.691   0.796
17750W        W90098  15.683  30.957  12.429
17751W        W90099  31.635  42.008  11.912
17752W        W90100  25.471   4.781  11.071
17753W        W90101  38.914  14.806   3.190
17754W        W90102  20.743  11.698   2.394
17755W        W90103  17.083  43.932  10.024
17756W        W90104  31.104   9.386  11.502
17757W        W90105   2.313  34.041   4.838
17758W        W90106  13.206   4.224   3.717
17759W        W90107   1.788   3.448   1.425
17760W        W90108  31.496  28.576   3.329
17761W        W90109  37.398  12.837   1.829
17762W        W90110  24.063  29.460  12.925
17763W        W90111  24.584  26.583   1.423
17764W        W90112  44.946  15.707   0.742
17765W        W90113  38.029  22.114   9.957
17766W        W90114  25.048  17.707  12.359
17767W        W90115  24.703  11.678   2.680
17768W        W90116  36.033  28.660   3.762
17769W        W90117  19.767  43.304  11.602
17770W        W90118  22.629  28.064   2.181
17771W        W90119  25.097  19.683   3.661
17772W        W90120  16.195  27.498   3.357
17773W        W90121  10.792  20.763  10.512
17774W        W90122  20.184  38.951  13.913
17775W        W90123  43.318   3.934   4.331
17776W        W90124  18.190  44.003  14.421
17777W        W90125  30.534  36.092  12.354
17778W        W90126  31.594  30.546   4.338
17779W        W90127  32.559  39.839  11.421
17780W        W90128  32.143   3.301   2.775
17781W        W90129  23.545  32.605   3.178
17782W        W90130  14.133  27.656   3.849
17783W        W90131  32.547  41.788  14.848
17784W        W90132  37.435  19.194   0.390
17785W        W90133   8.222   6.265   1.716
17786W        W90134  11.802  11.798  14.390
17787W        W90135  31.547  25.688   2.306
17788W        W90136  30.494  39.019  13.968
17789W        W90137  37.967  32.570  13.935
17790W        W90138  36.091  25.059  12.884
17791W        W90139  11.321  25.058  12.913
17792W        W90140  14.689  35.544  11.597
17793W        W90141  11.751  12.205  14.839
17794W        W90142  14.110  16.736   0.797
17795W        W90143   6.271   4.844  13.011
17796W        W90144  12.144  21.673   2.867
17797W        W90145  26.654  18.744   3.721
17798W        W90146  40.002   0.774  13.505
17799W        W90147  12.708   4.335   3.756
17800W        W90148  35.033  27.633  14.470
17801W        W90149   7.249  33.587  13.322
17802W        W90150   0.949   9.816  10.994
17803W        W90151  19.204  12.141  13.918
17804W        W90152  15.301  16.095   4.251
17805W        W90153  22.559  23.494  13.061
17806W        W90154  17.555  20.691   0.927
17807W        W90155  37.389  28.569   3.237
17808W        W90156  44.354  36.994   3.795
17809W        W90157  31.533   0.978   2.381
17810W        W90158  38.989  15.083  12.903
17811W        W90159  31.590  33.094  12.377
17812W        W90160  18.259   4.848   4.623
17813W        W90161   0.911  29.960  13.315
17814W        W90162  19.130  13.711  14.478
17815W        W90163  41.883  40.928  12.993
17816W        W90164  29.638   3.752   2.197
17817W        W90165  23.736  16.764  14.011
17818W        W90166  40.030   0.752  11.397
17819W        W90167  44.938  15.182  14.279
17820W        W90168  32.482  24.000  10.404
17821W        W90169  13.248  21.718   2.817
17822W        W90170   0.855   1.340  11.987
17823W        W90171  33.115  32.424  14.392
17824W        W90172  22.628  14.116   4.239
17825W        W90173  37.887  34.100   4.741
17826W        W90174  38.418  30.563  14.392
17827W        W90175  13.667  40.934  10.463
17828W        W90176  22.744  37.064   3.191
17829W        W90177  39.488  35.027   4.752
17830W        W90178  31.122  40.436  13.930
17831W        W90179   9.730   3.290  14.855
17832W        W90180  21.194  23.990   2.902
17833W        W90181  37.364  19.225   3.380
17834W        W90182  38.410   1.333  12.467
17835W        W90183  42.849  13.282   2.406
17836W        W90184  35.056  23.234   5.138
17837W        W90185  36.476  35.375   1.276
17838W        W90186  14.294   6.210  12.462
17839W        W90187  15.137   9.162  14.979
17840W        W90188   7.214   5.315   0.288
17841W        W90189  38.036  31.407  10.994
17842W        W90190  24.619   1.966   3.157
17843W        W90191  21.610  34.611   4.808
17844W        W90192  32.000  40.521  10.635
17845W        W90193  33.499  11.759  11.488
17846W        W90194  11.321  42.456  11.598
17847W        W90195  13.632  32.899   4.616
17848W        W90196  18.271  16.279   4.703
17849W        W90197  42.790  43.313  11.514
17850W        W90198  35.482  24.106  12.895
17851W        W90199  35.603  20.747  13.977
17852W        W90200  35.997  43.365  13.507
17853W        W90201   9.790  26.461   2.225
17854W        W90202  21.033   4.355  14.952
17855W        W90203   5.293  42.798   1.854
17856W        W90204  44.797  41.897  10.935
17857W        W90205   6.704   2.262  10.557
17858W        W90206  23.713   5.412   1.310
17859W        W90207  41.854   2.794  10.987
17860W        W90208  15.095  35.905  14.852
17861W        W90209  29.958   4.809   3.643
17862W        W90210  39.484   6.896   1.274
17863W        W90211  25.052  11.651  14.948
17864W        W90212   7.841  41.435  11.948
17865W        W90213   0.320  24.100   2.412
17866W        W90214  44.954  11.758   1.880
17867W        W90215  29.533  24.127  12.365
17868W        W90216  29.651  34.397   3.858
17869W        W90217  16.218  19.066   2.671
17870W        W90218  17.797  28.549  10.985
17871W        W90219  26.019   3.745  12.368
17872W        W90220  17.308  17.197  12.517
17873W        W90221  37.499  18.590   3.379
17874W        W90222  10.859   6.769   0.868
17875W        W90223  14.170   2.465  13.801
17876W        W90224  21.586  29.139  13.417
17877W        W90225   4.818  38.435  14.859
17878W        W90226  36.425  11.193   4.253
17879W        W90227  12.698   9.383  11.401
17880W        W90228  11.682   8.164  11.450
17881W        W90229  22.556  41.954   1.726
17882W        W90230  20.529   2.843   3.372
17883W        W90231  36.040   9.779  10.452
17884W        W90232   5.403  28.606  12.003
17885W        W90233   0.367  17.677  13.898
17886W        W90234   0.358  10.292   1.412
17887W        W90235  26.141   0.771  10.642
17888W        W90236   8.337  32.070   0.395
17889W        W90237  34.931  37.898   1.757
17890W        W90238  43.006  29.972  11.549
17891W        W90239  28.653  16.127  12.503
17892W        W90240  20.097  41.033  10.481
17893W        W90241  10.352  36.995  11.877
17894W        W90242  30.644  38.843  11.110
17895W        W90243  21.233   4.797  11.976
17896W        W90244  21.076  18.134  10.641
17897W        W90245  41.471  34.540   3.344
17898W        W90246   3.913  36.519  13.375
17899W        W90247  39.544  20.623   1.416
17900W        W90248  36.547   8.178   3.650
17901W        W90249   6.362  26.969   0.313
17902W        W90250  22.526  33.447   2.289
17903W        W90251  39.415   2.883  11.593
17904W        W90252  15.735  12.709   2.227
17905W        W90253  27.615  39.332   1.418
17906W        W90254  31.608  15.149   0.337
17907W        W90255  10.739  17.787   3.315
17908W        W90256  24.564  25.629  11.604
17909W        W90257   1.893   9.818   4.163
17910W        W90258   6.891  26.121  13.317
17911W        W90259  15.735  32.988   1.831
17912W        W90260   4.410   1.330   0.801
17913W        W90261  41.479  42.891   1.897
17914W        W90262  14.156   1.736  14.030
17915W        W90263  39.483  16.111  13.417
17916W        W90264  31.053   4.284  14.396
17917W        W90265  37.383  15.302  13.929
17918W        W90266  20.761  19.173   2.397
17919W        W90267  23.727  18.160  11.612
17920W        W90268  32.031  14.322   4.159
17921W        W90269  16.660   9.351  12.868
17922W        W90270  25.549  30.119  11.046
17923W        W90271  19.621  36.350  12.565
17924W        W90272  19.062   9.695   1.728
17925W        W90273  20.606  10.143   1.747
17926W        W90274   9.872  22.114  12.845
17927W        W90275  43.476  16.104   0.932
17928W        W90276  11.692  38.866  13.925
17929W        W90277  41.350  19.647   3.309
17930W        W90278   3.933   8.721   3.300
17931W        W90279  44.289  17.256  10.456
17932W        W90280  20.757  14.150  14.827
17933W        W90281  43.917  44.311   4.167
17934W        W90282  20.197   3.842  10.616
17935W        W90283  43.360   5.202  13.352
17936W        W90284  10.828  17.606  14.278
17937W        W90285  10.873   3.865   5.293
17938W        W90286   6.317  44.783   2.856
17939W        W90287  32.033  18.655  13.976
17940W        W90288  28.495  35.588  14.327
17941W        W90289  42.362   0.448   2.408
17942W        W90290  26.583   0.374  11.594
17943W        W90291   2.329  33.013  13.896
17944W        W90292  44.006   7.359  11.468
17945W        W90293  37.036  19.633   1.224
17946W        W90294  11.238  10.205  14.426
17947W        W90295   6.910  10.739  14.927
17948W        W90296  29.967   1.475   1.865
17949W        W90297  44.760  37.066  11.962
17950W        W90298  41.415  13.350  12.081
17951W        W90299  25.538   5.754   4.306
17952W        W90300  15.293  41.927   0.409
17953W        W90301  37.470  38.327   3.173
17954W        W90302  27.150   7.841  11.928
17955W        W90303   1.448  39.000   2.203
17956W        W90304   4.708  29.162   1.313
17957W        W90305  15.225   7.215   4.182
17958W        W90306  14.720  12.647   4.655
17959W        W90307  16.610  11.690   1.748
17960W        W90308   9.717  16.619  11.940
17961W        W90309  35.372  18.689   4.306
17962W        W90310  27.547  19.668  12.411
17963W        W90311  26.573   7.294   9.967
17964W        W90312  24.142   5.922  14.861
17965W        W90313  13.755   4.261  13.314
17966W        W90314  25.015  10.295  11.559
17967W        W90315  22.623  31.528   2.312
17968W        W90316  40.549  15.756   3.637
17969W        W90317  30.511  10.747   0.911
17970W        W90318  32.047  28.496  13.545
17971W        W90319  23.233  44.003  12.344
17972W        W90320  37.056  25.573  10.439
17973W        W90321  30.648  40.880  14.792
17974W        W90322  41.498   4.766  11.935
17975W        W90323  44.363  36.063  10.443
17976W        W90324  36.942  18.557   1.284
17977W        W90325  24.094  24.125   0.332
17978W        W90326  17.094   1.922   0.928
17979W        W90327   0.340  32.395   4.261
17980W        W90328  42.805  25.619   4.281
17981W        W90329  38.325  29.133   2.300
17982W        W90330  13.280  33.097  12.526
17983W        W90331  12.703  22.533   3.201
17984W        W90332  20.037  20.623   4.632
17985W        W90333  11.158  26.964  11.612
17986W        W90334   2.411  22.013  11.015
17987W        W90335  15.181  40.346   2.867
17988W        W90336  32.975  19.717   0.930
17989W        W90337  13.115  36.065   4.345
17990W        W90338  23.538   3.923  14.896
17991W        W90339  34.983  13.145  13.520
17992W        W90340  10.141  36.883  12.969
17993W        W90341   9.822  24.977   2.362
17994W        W90342  13.811  44.993   4.672
17995W        W90343   4.315  17.748   2.889
17996W        W90344  27.105  26.633   3.713
17997W        W90345   4.778  22.587   3.149
17998W        W90346  31.024  31.589  14.473
17999W        W90347  27.084  19.576  11.109
18000W        W90348  27.464   2.771   4.336
18001W        W90349  34.583  36.351   5.637
18002W        W90350  15.582   3.941  10.535
18003W        W90351  13.659   3.869  12.996
18004W        W90352  31.601  41.422  11.466
18005W        W90353  12.792  44.458  14.327
18006W        W90354   2.378  26.164  12.885
18007W        W90355  25.593  41.444  13.346
18008W        W90356  12.683  22.046   4.320
18009W        W90357   3.454   0.342   2.704
18010W        W90358  19.146  35.460  13.925
18011W        W90359  28.577   9.159   1.367
18012W        W90360   0.929   8.821  10.084
18013W        W90361   8.680  26.548  13.838
18014W        W90362  44.964  35.073  13.495
18015W        W90363  18.665  37.582   3.236
18016W        W90364  15.205  27.607   1.441
18017W        W90365  14.181  14.306  10.056
18018W        W90366   6.776   5.208   2.235
18019W        W90367  35.567   4.441  12.871
18020W        W90368  31.595  35.942   1.858
18021W        W90369   8.207  41.482   4.728
18022W        W90370  39.332  42.798  12.932
18023W        W90371  19.653  35.905   2.875
18024W        W90372  40.489  39.454   0.244
18025W        W90373  12.342  10.704  14.484
18026W        W90374  36.862  28.554  11.508
18027W        W90375  33.025  33.885   5.699
18028W        W90376  32.005  33.981   1.268
18029W        W90377  39.854  26.017   0.303
18030W        W90378  29.633  15.121   2.866
18031W        W90379   0.743  34.876  14.374
18032W        W90380  19.675  40.472   2.234
18033W        W90381  14.250  17.603   1.727
18034W        W90382  31.605  35.572  10.503
18035W        W90383  23.690  40.335   2.202
18036W        W90384  22.096  40.429   3.215
18037W        W90385  21.553  34.918  14.509
18038W        W90386  35.108   1.350   2.837
18039W        W90387  21.515   0.874   1.753
18040W        W90388  16.145  11.146  10.998
18041W        W90389  35.002  36.035  14.909
18042W        W90390  39.364   5.221   3.637
18043W        W90391  17.261   4.792   0.965
18044W        W90392   3.794  19.612  11.501
18045W        W90393  17.619  36.352  13.884
18046W        W90394  15.307  13.665  12.455
18047W        W90395  15.147  41.817   0.842
18048W        W90396  36.057  25.035   2.205
18049W        W90397  43.378  16.245  12.838
18050W        W90398   0.967  30.013  10.605
18051W        W90399  33.540  40.991   0.449
18052W        W90400  35.512  16.718   3.866
18053W        W90401   3.710  44.921   3.311
18054W        W90402   4.918   7.873  14.784
18055W        W90403   8.405   1.357  10.444
18056W        W90404  42.495  22.051   0.793
18057W        W90405  32.561  33.903   9.535
18058W        W90406  16.108  32.886   2.413
18059W        W90407  25.054   3.216   2.692
18060W        W90408  38.458  30.468   4.270
18061W        W90409  41.336  42.404   1.836
18062W        W90410  41.528  43.335   4.762
18063W        W90411  22.713  13.259  13.413
18064W        W90412  41.350  35.594  14.400
18065W        W90413  44.008  24.020  12.475
18066W        W90414  30.031  42.984   4.244
18067W        W90415  18.277   6.319  13.329
18068W        W90416  21.184   5.746  10.644
18069W        W90417  22.029  41.834  11.474
18070W        W90418  11.791   8.894  14.389
18071W        W90419  16.630  14.180  11.035
18072W        W90420  29.489  36.009  14.872
18073W        W90421   4.876  26.951  12.369
18074W        W90422  39.319  41.816  14.951
18075W        W90423  25.078  23.529  14.501
18076W        W90424   3.844   5.341   0.863
18077W        W90425  32.999   6.399  11.965
18078W        W90426  12.693  19.724   1.319
18079W        W90427  22.680  36.493   3.224
18080W        W90428   9.177  15.644   0.829
18081W        W90429   3.357  28.604   2.693
18082W        W90430  17.110   7.689   0.264
18083W        W90431   7.897  19.584   2.849
18084W        W90432  35.952  23.675   1.764
18085W        W90433  28.631  14.139   4.225
18086W        W90434  43.792   4.899  12.839
18087W        W90435  22.135  31.050   1.322
18088W        W90436   0.753   9.643  10.428
18089W        W90437  19.770  12.275   3.850
18090W        W90438  29.631  43.326  13.881
18091W        W90439  14.294  18.733  11.539
18092W        W90440  30.081   0.331   0.387
18093W        W90441  12.677  37.432   4.330
18094W        W90442  15.217  31.587  13.893
18095W        W90443   4.768  24.718   3.701
18096W        W90444  20.713  21.236  14.966
18097W        W90445  33.458  39.550  12.432
18098W        W90446  40.505  16.086  12.851
18099W        W90447  36.887  28.992   0.775
18100W        W90448   5.302  42.397  12.412
18101W        W90449  36.348   2.243   1.301
18102W        W90450   7.732  26.581   0.944
18103W        W90451  24.619  17.789   2.783
18104W        W90452   5.705   1.251   0.815
18105W        W90453   6.284  28.659   4.806
18106W        W90454  27.158  35.093   4.351
18107W        W90455  10.846  20.107   4.160
18108W        W90456   7.369  33.500   4.165
18109W        W90457  43.442  13.287  11.002
18110W        W90458  16.244  27.483  14.963
18111W        W90459  23.496  32.124   3.649
18112W        W90460  10.664  22.604  14.442
18113W        W90461  17.559  41.878  11.440
18114W        W90462  22.718  13.308  10.419
18115W        W90463  42.432  13.628   3.779
18116W        W90464  22.073  33.050  12.929
18117W        W90465  22.246  15.588   2.828
18118W        W90466  39.360  38.505  13.835
18119W        W90467  24.580  41.800  12.925
18120W        W90468  28.607   0.757  12.438
18121W        W90469   4.266  42.458   3.686
18122W        W90470  43.355  29.946   3.671
18123W        W90471   4.805  29.021  12.550
18124W        W90472  29.978   8.270   4.613
18125W        W90473  24.095  30.095   3.230
18126W        W90474  43.788  41.806  11.488
18127W        W90475  13.222   8.173   1.214
18128W        W90476  38.058  38.073   1.855
18129W        W90477  31.947  12.244   2.245
18130W        W90478  21.524   0.871  12.552
18131W        W90479  36.442  29.430  12.963
18132W        W90480  28.666  32.988   1.844
18133W        W90481  14.214  43.843   2.860
18134W        W90482   0.913   3.349   3.338
18135W        W90483  10.318  19.053   1.824
18136W        W90484  25.053  20.613   1.244
18137W        W90485  20.606  19.209  12.445
18138W        W90486   5.928  23.108  11.942
18139W        W90487   0.929  33.061   4.225
18140W        W90488   8.747  14.138  10.947
18141W        W90489  36.513   5.689  12.086
18142W        W90490  16.673  15.282   0.415
18143W        W90491   2.915  20.207  13.411
18144W        W90492  40.865  30.534   0.870
18145W        W90493   5.284  25.133  11.552
18146W        W90494  13.306  31.647   1.381
18147W        W90495  27.126  31.066   4.665
18148W        W90496  44.303  11.298   4.251
18149W        W90497   6.838  33.551   3.336
18150W        W90498  39.478  38.898   0.328
18151W        W90499   9.157  23.612   2.689
18152W        W90500  29.602  18.155  14.414
18153W        W90501  36.943   4.290  11.480
18154W        W90502  31.083  30.503  12.087
18155W        W90503  10.181   2.898   2.695
18156W        W90504  18.269  39.559   2.300
18157W        W90505  28.957  32.503   0.846
18158W        W90506  40.030  30.060  14.442
18159W        W90507  28.668  41.494   4.251
18160W        W90508  14.145  37.969  12.880
18161W        W90509  42.957  21.038   0.408
18162W        W90510  28.587   8.727  12.974
18163W        W90511   3.217  34.448  14.496
18164W        W90512   3.432   1.921  11.447
18165W        W90513  17.767   4.443   4.684
18166W        W90514  30.658  29.535   1.713
18167W        W90515  28.510  17.619   0.902
18168W        W90516   4.788  12.698  14.022
18169W        W90517  10.742  31.409   2.285
18170W        W90518  41.399  24.564  10.975
18171W        W90519  44.992   5.385  14.359
18172W        W90520  42.855  40.333  12.553
18173W        W90521  34.573  12.630   0.299
18174W        W90522  40.936   0.440   0.950
18175W        W90523  31.411  27.540   1.449
18176W        W90524  42.426  19.165   3.304
18177W        W90525  31.449  15.192  13.980
18178W        W90526   2.821  24.977  10.495
18179W        W90527  43.871  37.860  14.464
18180W        W90528  30.497  37.021   3.168
18181W        W90529   6.822  38.441   4.289
18182W        W90530  11.237  11.239   2.180
18183W        W90531  32.078  36.979  11.461
18184W        W90532  22.057  31.526   0.852
18185W        W90533  38.844  21.124   4.282
18186W        W90534  41.510   7.780   4.639
18187W        W90535   9.689  10.691  13.505
18188W        W90536  41.471  30.596  12.422
18189W        W90537  20.621  31.971  11.513
18190W        W90538  12.824   5.924   2.202
18191W        W90539  19.720  10.287   0.362
18192W        W90540   5.388  30.607  11.910
18193W        W90541  37.553   0.890  12.443
18194W        W90542  32.947  16.159   1.241
18195W        W90543   8.359  32.549   1.319
18196W        W90544  25.146  30.445  13.417
18197W        W90545  18.579  26.059  12.481
18198W        W90546  15.669  29.547  11.420
18199W        W90547   0.430   0.759  10.411
18200W        W90548  19.283   2.471  12.559
18201W        W90549  11.757  16.701   1.327
18202W        W90550   4.773  40.891  12.855
18203W        W90551  22.156  30.072   1.426
18204W        W90552  42.407  28.566  14.004
18205W        W90553  41.395  12.857  11.538
18206W        W90554  23.141   2.726  12.089
18207W        W90555  36.046   8.370   4.717
18208W        W90556  36.040  28.143  11.971
18209W        W90557  40.015  44.373  13.310
18210W        W90558  14.302  30.949  14.905
18211W        W90559   4.317  33.914   2.754
18212W        W90560  28.067  33.036   0.775
18213W        W90561  19.108  21.167   2.194
18214W        W90562  32.956  36.532   1.262
18215W        W90563   4.928  36.048   0.439
18216W        W90564  27.073  19.171  13.532
18217W        W90565  15.099  21.707  13.526
18218W        W90566   8.325  29.511  11.517
18219W        W90567  23.582  17.736  14.282
18220W        W90568  39.009  39.429   2.673
18221W        W90569   2.330  32.034   2.392
18222W        W90570   4.253  13.625   2.381
18223W        W90571   0.827   2.873  13.330
18224W        W90572  21.723  44.425   9.945
18225W        W90573  42.910  25.570  10.454
18226W        W90574  27.135  11.677   0.441
18227W        W90575  35.040  38.450   2.811
18228W        W90576   4.872   0.922   4.675
18229W        W90577  19.696  17.259  13.875
18230W        W90578  34.411  23.193   3.832
18231W        W90579  39.938   1.785   4.771
18232W        W90580  34.049  22.701  14.399
18233W        W90581  39.007  35.597  10.575
18234W        W90582  39.035   9.855  13.848
18235W        W90583   5.389   5.386   1.284
18236W        W90584  26.105  15.817   3.867
18237W        W90585   5.883  11.199  11.034
18238W        W90586  14.101  40.841   2.222
18239W        W90587  22.524  29.645   4.290
18240W        W90588  13.282  28.571   1.745
18241W        W90589  37.080   1.816   1.815
18242W        W90590  38.839  19.192   3.296
18243W        W90591  33.074   0.984  13.464
18244W        W90592  31.950  35.462  12.911
18245W        W90593   0.327   3.426  14.305
18246W        W90594   7.250  41.432   4.704
18247W        W90595  12.339   6.408  12.924
18248W        W90596  44.944  30.941  13.041
18249W        W90597  21.054  27.618  13.419
18250W        W90598  33.891  13.305   0.760
18251W        W90599  24.051   5.919   2.665
18252W        W90600  24.535  37.899   0.272
18253W        W90601  33.050  39.482   0.881
18254W        W90602  38.350  15.624   4.695
18255W        W90603  27.575  27.456   2.890
18256W        W90604  20.267  12.291   0.311
18257W        W90605   2.382  32.022   0.737
18258W        W90606  37.403  39.984   4.805
18259W        W90607  25.206   1.976  10.441
18260W        W90608   7.762   3.789   3.676
18261W        W90609  30.493   3.365   4.243
18262W        W90610  10.250   3.727   0.277
18263W        W90611  36.882  40.978  13.332
18264W        W90612   5.430  23.023   4.648
18265W        W90613  33.027  31.052   3.788
18266W        W90614  41.523  34.552  12.522
18267W        W90615  14.204  36.482  12.468
18268W        W90616  41.396   0.377  12.520
18269W        W90617   5.437   0.949   0.421
18270W        W90618  28.056  43.874   0.881
18271W        W90619  10.853  39.874  14.335
18272W        W90620   0.302  22.547   2.312
18273W        W90621  11.338   3.875  10.933
18274W        W90622  42.516  42.391  13.812
18275W        W90623   9.698  39.962   0.450
18276W        W90624  27.105   2.426   4.780
18277W        W90625  20.558  40.412   3.843
18278W        W90626  26.464  31.445   0.811
18279W        W90627   9.330  15.683  10.109
18280W        W90628  35.493  18.189   2.265
18281W        W90629  10.805  12.696   4.815
18282W        W90630  31.068  28.049   2.362
18283W        W90631  43.006  23.232   2.295
18284W        W90632  25.480  27.676  12.999
18285W        W90633  25.641  14.097   3.757
18286W        W90634   7.809  32.933  14.444
18287W        W90635  35.391  32.907  14.453
18288W        W90636   2.348  25.486  14.455
18289W        W90637  34.047  43.920  13.861
18290W        W90638   3.883  31.588   4.230
18291W        W90639   2.747  17.644  11.876
18292W        W90640   4.419  13.807   3.223
18293W        W90641  17.097  29.504   5.096
18294W        W90642  43.453  26.125  10.603
18295W        W90643  10.794  27.560  13.047
18296W        W90644  44.355   4.313  11.895
18297W        W90645  23.009  15.310  14.937
18298W        W90646  28.041  24.713   0.431
18299W        W90647  28.526  18.059   1.711
18300W        W90648   3.719  14.777  13.371
18301W        W90649  34.008   4.856   2.763
18302W        W90650   6.275  40.909   0.841
18303W        W90651   2.392  24.539  12.449
18304W        W90652   4.356   1.783   4.606
18305W        W90653  41.803  29.980   0.348
18306W        W90654  44.986  13.785  14.967
18307W        W90655  22.672   7.211  14.891
18308W        W90656  32.003   0.985  13.992
18309W        W90657  38.514  29.656  13.435
18310W        W90658  36.995  11.166   4.838
18311W        W90659  13.156  17.721   1.238
18312W        W90660   7.895  11.634  13.391
18313W        W90661  17.190  10.770  10.151
18314W        W90662  41.522  29.086  10.526
18315W        W90663  44.420  44.460  11.441
18316W        W90664  20.655   0.874   2.840
18317W        W90665   2.761  19.281   2.764
18318W        W90666  42.369  19.269  14.930
18319W        W90667  36.870  13.779  10.521
18320W        W90668  14.331   5.415  14.810
18321W        W90669  11.804  35.068  10.517
18322W        W90670  23.177  30.988   4.309
18323W        W90671  22.061  16.732  13.874
18324W        W90672  30.444   5.885   2.735
18325W        W90673   0.756  19.234   2.803
18326W        W90674  25.540  34.968  10.007
18327W        W90675  22.048   9.393   3.387
18328W        W90676  42.346  34.592   3.760
18329W        W90677   5.325  14.298   3.846
18330W        W90678  40.982   7.666  11.048
18331W        W90679   2.959  17.626  11.029
18332W        W90680   2.796  20.685   1.257
18333W        W90681  16.085  19.068   4.698
18334W        W90682  22.222  31.142   0.806
18335W        W90683  37.550  29.919   3.764
18336W        W90684  20.557   8.859  13.895
18337W        W90685   0.361   4.441  13.448
18338W        W90686  44.297  20.666   3.378
18339W        W90687   1.372   6.329   1.345
18340W        W90688  40.410   4.384   3.172
18341W        W90689  35.876  34.989  13.307
18342W        W90690  20.690  34.081  10.427
18343W        W90691  22.214  42.850   4.772
18344W        W90692  18.207  41.821   4.333
18345W        W90693  15.123   5.291  10.474
18346W        W90694  39.559  39.548  14.461
18347W        W90695  40.422  18.740   2.285
18348W        W90696  41.864   8.247  11.017
18349W        W90697  12.680   1.398   2.695
18350W        W90698   6.911  17.779   3.171
18351W        W90699  36.846  44.461   0.784
18352W        W90700  39.387  19.654   3.303
18353W        W90701  21.162  43.866   1.309
18354W        W90702  41.026  20.623  13.903
18355W        W90703  32.604   7.365  11.973
18356W        W90704  16.129  36.866   2.828
18357W        W90705  22.674  13.232   3.822
18358W        W90706  31.410  15.322   2.750
18359W        W90707   4.856  42.838   0.943
18360W        W90708   6.308  42.819   3.670
18361W        W90709  26.123  39.973   3.658
18362W        W90710  42.307   2.433  14.838
18363W        W90711  32.901  17.796  11.477
18364W        W90712  13.805   5.396  10.486
18365W        W90713  16.186  14.094   9.524
18366W        W90714  10.704  26.676   4.775
18367W        W90715  15.329  10.365  10.563
18368W        W90716  41.498   9.715   1.270
18369W        W90717   1.365   8.290  13.994
18370W        W90718  38.935  11.159   3.287
18371W        W90719  43.432  43.459  12.939
18372W        W90720  29.645  17.210  10.506
18373W        W90721   7.694  27.984   4.345
18374W        W90722  44.370   4.732  14.302
18375W        W90723   4.732  24.210  12.917
18376W        W90724  25.153  39.953  11.063
18377W        W90725   2.346  16.774   1.829
18378W        W90726  14.307  10.378   1.264
18379W        W90727  42.464  38.422   0.765
18380W        W90728  32.965   2.428   0.360
18381W        W90729  32.404  28.025  14.396
18382W        W90730  39.478  42.014   1.367
18383W        W90731  22.573  20.265  12.030
18384W        W90732  25.492  10.793  11.589
18385W        W90733   6.290  11.813   1.276
18386W        W90734   3.405   8.381  12.423
18387W        W90735  44.482  32.116   2.298
18388W        W90736  35.943  30.060   2.710
18389W        W90737   1.421  26.673   3.157
18390W        W90738  44.466  29.952   2.314
18391W        W90739  12.307  33.883   1.775
18392W        W90740  10.672  24.489  14.021
18393W        W90741   7.219   6.697  14.934
18394W        W90742  42.937  37.346  10.945
18395W        W90743  22.734  38.921   2.408
18396W        W90744  23.159  14.099  14.289
18397W        W90745   0.326  36.994  11.993
18398W        W90746  29.517  19.259  11.018
18399W        W90747  37.063  15.619  11.934
18400W        W90748   8.301  29.956   0.887
18401W        W90749   4.782  39.439   1.239
18402W        W90750  30.511  40.801  10.928
18403W        W90751   9.842  36.945   2.702
18404W        W90752  22.082  13.351   3.765
18405W        W90753   6.801  41.850  11.401
18406W        W90754  42.508  14.792  14.928
18407W        W90755   8.669  23.099  11.550
18408W        W90756  35.396  34.370  10.549
18409W        W90757  24.581   1.246   0.935
18410W        W90758  33.941  31.109  12.899
18411W        W90759  16.653  24.709  11.581
18412W        W90760  17.726  20.680  13.041
18413W        W90761  28.997   9.216  10.616
18414W        W90762  39.003  10.252  14.867
18415W        W90763  18.658  35.110  11.417
18416W        W90764  36.452  20.730  10.078
18417W        W90765  41.461  23.554   0.262
18418W        W90766  28.156  40.946   1.887
18419W        W90767  10.844   8.187   2.683
18420W        W90768  21.732  24.109  12.935
18421W        W90769   5.848  30.428   0.343
18422W        W90770  43.881  37.360  14.897
18423W        W90771  44.384  24.628   1.394
18424W        W90772  37.005  40.415   4.336
18425W        W90773  34.914  44.324   0.431
18426W        W90774  24.677  44.994  12.341
18427W        W90775  14.670  21.554  12.867
18428W        W90776  39.019  21.072  10.492
18429W        W90777  19.202  26.682  12.423
18430W        W90778  44.780  15.125   0.303
18431W        W90779  38.446   9.666  11.079
18432W        W90780   3.913  15.663   5.272
18433W        W90781   6.865  20.247  11.864
18434W        W90782  40.535  39.014  12.477
18435W        W90783  28.964  30.435   1.227
18436W        W90784  42.890  26.666  13.444
18437W        W90785   9.253  34.940  12.450
18438W        W90786  34.370  30.994   0.275
18439W        W90787  36.406   3.343   5.309
18440W        W90788   1.377  26.159  13.812
18441W        W90789  24.506  36.950   2.865
18442W        W90790  27.454   8.731  13.462
18443W        W90791  42.330  31.431  14.276
18444W        W90792   4.920  37.991  14.333
18445W        W90793   8.725  40.901  13.447
18446W        W90794  40.863   1.244   4.710
18447W        W90795  44.989  17.082   4.773
18448W        W90796  37.487   6.243  13.866
18449W        W90797  25.207  30.977  10.463
18450W        W90798  15.084  18.597  13.459
18451W        W90799  20.553  15.234   2.311
18452W        W90800  12.300  14.675   2.781
18453W        W90801  18.640   9.320  14.292
18454W        W90802  30.531   0.294   2.179
18455W        W90803  44.466  12.822  14.013
18456W        W90804  21.095   4.837   4.820
18457W        W90805  44.921  22.146   0.949
18458W        W90806   7.822   5.300  13.795
18459W        W90807  43.512  32.627   4.232
18460W        W90808  19.591   0.869   2.396
18461W        W90809  28.056  27.692  10.514
18462W        W90810   0.830  37.338  10.944
18463W        W90811  30.971  16.803   2.187
18464W        W90812  42.448  17.234   1.907
18465W        W90813  35.916  14.250  14.508
18466W        W90814  44.833  38.972   0.364
18467W        W90815   0.476  22.685  14.451
18468W        W90816   6.788   2.797   4.242
18469W        W90817   5.706   2.722   0.471
18470W        W90818  35.370  30.093  10.613
18471W        W90819  39.391  33.945   4.640
18472W        W90820   3.937  37.016   2.894
18473W        W90821   7.703   2.429   2.200
18474W        W90822  15.771  21.232  14.900
18475W        W90823  16.140   6.806   4.307
18476W        W90824   1.342  27.976   4.202
18477W        W90825  13.295  23.607   1.364
18478W        W90826  25.205  40.549  14.020
18479W        W90827  34.087  31.067  10.529
18480W        W90828  37.448  11.350   1.933
18481W        W90829  27.106  12.686   0.327
18482W        W90830  41.833   7.687  14.858
18483W        W90831  27.586  13.300   1.421
18484W        W90832  17.625  16.730   2.260
18485W        W90833   0.367   5.361   4.802
18486W        W90834  31.525  30.063   3.186
18487W        W90835  27.074  12.155  12.386
18488W        W90836  31.447  12.664   1.292
18489W        W90837  10.674   7.680  14.455
18490W        W90838  38.030  14.174  14.944
18491W        W90839  42.347   6.326  11.036
18492W        W90840  30.921  34.948   1.326
18493W        W90841  43.273   5.309   2.866
18494W        W90842  30.154  22.554  12.050
18495W        W90843  42.457  23.556  14.502
18496W        W90844  21.134  20.051  12.455
18497W        W90845  35.518  27.447  11.890
18498W        W90846  35.857  25.197  14.312
18499W        W90847  32.545   0.967   0.319
18500W        W90848  14.739  34.920   1.875
18501W        W90849  24.701  17.114   4.317
18502W        W90850  38.357  42.479  11.920
18503W        W90851  29.633  17.299   2.402
18504W        W90852  39.467   3.377  11.395
18505W        W90853  19.163  32.941   3.199
18506W        W90854  22.709  20.661   2.772
18507W        W90855  12.703  15.812   1.707
18508W        W90856  22.090  21.071   1.390
18509W        W90857   3.898  32.094  12.554
18510W        W90858  11.755  44.494   1.698
18511W        W90859  29.561   8.860  12.995
18512W        W90860  33.533  24.611  14.859
18513W        W90861  31.490  16.253  10.486
18514W        W90862  10.671  27.632  13.874
18515W        W90863   9.216  40.883   1.927
18516W        W90864  13.628  21.060  14.303
18517W        W90865  35.106  43.767  12.392
18518W        W90866  19.153  40.007  13.438
18519W        W90867  17.760   6.836   2.706
18520W        W90868  42.436   8.690   1.250
18521W        W90869  42.963   9.846  12.045
18522W        W90870  40.473  31.938   4.152
18523W        W90871  12.621  11.780  13.508
18524W        W90872  38.946  29.000  12.544
18525W        W90873  37.420  27.036  13.426
18526W        W90874  36.573  13.608  14.855
18527W        W90875  26.086  24.559   4.638
18528W        W90876  39.527  44.863  12.839
18529W        W90877  29.924   9.753  10.936
18530W        W90878  11.802  22.707   3.319
18531W        W90879  37.498   8.736   1.262
18532W        W90880   8.250  30.567   1.859
18533W        W90881  14.111  35.484   2.688
18534W        W90882  11.157  15.164   0.765
18535W        W90883  30.452  19.147   3.682
18536W        W90884  35.490  15.627  11.925
18537W        W90885  26.165  34.960  10.529
18538W        W90886  28.186  30.150   3.220
18539W        W90887  37.566  15.102   0.859
18540W        W90888  10.354   9.187  13.052
18541W        W90889  20.117  29.584   5.611
18542W        W90890  36.363  43.471   0.860
18543W        W90891  12.296   8.701  13.442
18544W        W90892   4.735  29.629   0.794
18545W        W90893  17.274  30.097   0.451
18546W        W90894   7.756  30.517  14.390
18547W        W90895  31.942  38.876   4.771
18548W        W90896   5.270  39.451  12.533
18549W        W90897   3.447  17.277   1.218
18550W        W90898  19.044  37.054   3.751
18551W        W90899   4.290  11.329   3.290
18552W        W90900  23.062  19.748  10.924
18553W        W90901  26.029  32.411  10.535
18554W        W90902  20.695  38.486  12.918
18555W        W90903   5.199  14.096   0.727
18556W        W90904  27.009  36.489   0.852
18557W        W90905  39.823   5.372   0.747
18558W        W90906  24.637  40.547   0.257
18559W        W90907  10.282  18.573   4.279
18560W        W90908   4.740  22.511   4.665
18561W        W90909  35.569  12.283   2.781
18562W        W90910  17.743  17.607  11.880
18563W        W90911  32.582  40.030  11.089
18564W        W90912  42.856   7.865  10.946
18565W        W90913   4.933  23.027  14.901
18566W        W90914  12.129   1.886  12.404
18567W        W90915  20.042  33.392   2.667
18568W        W90916  37.354  39.942  13.406
18569W        W90917  38.932   3.795   0.247
18570W        W90918  25.620  14.324   0.244
18571W        W90919  28.038  16.739  14.809
18572W        W90920  17.618  11.186  14.974
18573W        W90921  44.939   2.471  12.902
18574W        W90922  10.680  44.264  12.365
18575W        W90923  30.557   5.868  11.443
18576W        W90924  20.270  37.007  14.335
18577W        W90925  24.607   2.946  11.021
18578W        W90926  26.100  22.246   2.356
18579W        W90927  23.236  15.628  12.929
18580W        W90928  38.477  42.789  10.493
18581W        W90929   7.848  32.531   9.960
18582W        W90930   6.798   9.378   4.256
18583W        W90931  10.731  19.215  12.091
18584W        W90932   6.413   9.345   0.266
18585W        W90933  38.829  37.544   5.123
18586W        W90934  37.567  43.486  10.480
18587W        W90935  36.453  17.745   3.865
18588W        W90936  18.765  37.891   4.730
18589W        W90937  21.174  42.485  13.929
18590W        W90938  15.681  32.631   4.332
18591W        W90939  14.670  38.986   2.206
18592W        W90940   5.367  27.511   0.365
18593W        W90941  37.564  31.541   2.664
18594W        W90942  16.273  11.294   3.634
18595W        W90943   6.379  35.493  14.920
18596W        W90944   2.244  15.126   0.943
18597W        W90945  39.330  25.035   0.404
18598W        W90946   4.901  44.422   5.154
18599W        W90947  29.148  12.185   3.832
18600W        W90948   8.868  10.654   1.328
18601W        W90949  28.528  15.225  13.828
18602W        W90950  19.751   7.669  14.027
18603W        W90951  25.184   4.349   2.707
18604W        W90952  28.478  44.277  12.038
18605W        W90953   7.709  41.320  10.039
18606W        W90954  21.709  26.963   3.742
18607W        W90955  35.476  30.434   3.848
18608W        W90956   8.869  18.087   3.796
18609W        W90957  29.129  30.576   3.159
18610W        W90958  14.186  35.363  11.467
18611W        W90959  14.615  29.652  11.579
18612W        W90960  18.195  31.004  11.522
18613W        W90961   0.956  34.373   3.289
18614W        W90962  20.682  28.545  13.932
18615W        W90963  25.144  33.380   4.323
18616W        W90964  31.931  36.478   9.549
18617W        W90965  11.640  29.099  13.523
18618W        W90966  11.226  41.946   4.273
18619W        W90967  24.081   7.296  12.434
18620W        W90968  31.099  14.677  12.015
18621W        W90969  32.561  28.572  11.965
18622W        W90970   7.373  19.233  13.860
18623W        W90971  33.470   9.777  13.358
18624W        W90972  11.178  40.907  13.444
18625W        W90973  17.145   3.763  12.563
18626W        W90974  11.363  26.173   0.400
18627W        W90975  35.001  36.057  11.118
18628W        W90976  23.607  16.287   3.657
18629W        W90977  28.488  34.102  14.857
18630W        W90978  24.177   7.752  11.465
18631W        W90979  34.995  17.709  10.594
18632W        W90980  14.277  40.969   1.824
18633W        W90981  41.811  35.949   4.308
18634W        W90982  14.655   6.410  10.100
18635W        W90983  16.644   6.763  14.987
18636W        W90984   2.326  35.922  11.861
18637W        W90985  34.501  16.271  13.812
18638W        W90986  14.315   4.779   4.645
18639W        W90987  19.572  30.158   0.413
18640W        W90988  22.223  20.724   1.893
18641W        W90989  21.689  28.519  14.775
18642W        W90990   4.912  39.843   3.654
18643W        W90991  16.268  28.131   2.299
18644W        W90992  25.182  24.637   4.610
18645W        W90993   3.833  24.482  12.471
18646W        W90994  15.726  19.573  10.516
18647W        W90995  10.291  42.948   1.808
18648W        W90996  23.598  44.867  13.373
18649W        W90997  11.210  23.567   0.964
18650W        W90998  29.011  35.953   1.395
18651W        W90999  35.071  44.988  12.413
18652W        W91000  41.373  14.748   1.261
18653W        W91001  22.137   8.178  13.860
18654W        W91002  41.304   6.790  11.377
18655W        W91003   7.363   6.690   2.273
18656W        W91004  16.137  21.726  14.416
18657W        W91005  19.206  43.981   3.733
18658W        W91006   8.357  24.167   0.916
18659W        W91007  31.438  37.879   2.822
18660W        W91008  19.147   7.742   1.732
18661W        W91009  18.050  27.173   4.743
18662W        W91010  43.823  36.527   1.789
18663W        W91011   3.373  18.235  12.441
18664W        W91012   8.382  19.074  14.997
18665W        W91013  30.075  14.705  13.456
18666W        W91014  34.902  42.517  13.846
18667W        W91015  24.724   7.236   2.198
18668W        W91016  32.426  25.210   0.910
18669W        W91017  12.784  15.301   3.738
18670W        W91018  37.069   9.748  12.036
18671W        W91019   2.264  10.851  10.955
18672W        W91020  15.092  24.994  10.461
18673W        W91021   8.404   2.842   0.815
18674W        W91022  10.712  40.433   4.259
18675W        W91023  44.270   2.796  10.626
18676W        W91024  17.210  11.657  10.980
18677W        W91025  14.158   8.394   1.378
18678W        W91026  19.778  17.075   1.364
18679W        W91027  13.713  25.044  11.379
18680W        W91028  44.907   5.690   2.239
18681W        W91029   2.421  39.411  13.861
18682W        W91030  25.089   8.307  12.362
18683W        W91031   8.657  42.290  11.970
18684W        W91032  19.584  21.526  14.327
18685W        W91033  16.163   4.723   1.261
18686W        W91034  20.140  37.386   0.779
18687W        W91035  39.538  26.634   5.144
18688W        W91036   9.338  20.238   4.222
18689W        W91037   0.780  33.130  12.580
18690W        W91038  14.336  23.121   1.740
18691W        W91039  40.538   0.311  10.475
18692W        W91040   3.874  33.945   1.402
18693W        W91041  32.620  35.959  14.345
18694W        W91042   9.389  26.127  13.462
18695W        W91043  27.060  10.184  11.091
18696W        W91044  40.502  28.511   2.259
18697W        W91045  32.922   8.688   3.326
18698W        W91046   6.913  16.186  11.513
18699W        W91047  13.233  23.204   1.242
18700W        W91048  26.145  41.882   4.299
18701W        W91049  30.975  21.248   5.240
18702W        W91050  23.560  19.198  12.511
18703W        W91051   1.842  12.849  14.796
18704W        W91052  37.571  32.594   3.780
18705W        W91053  21.615  36.011   4.605
18706W        W91054  24.645  14.741  14.763
18707W        W91055  25.162  18.054   0.331
18708W        W91056  37.068  35.438  12.081
18709W        W91057  41.030   9.795  12.374
18710W        W91058  42.941  30.634  14.475
18711W        W91059   1.762  15.777   1.700
18712W        W91060  36.982   6.857  13.897
18713W        W91061  22.184  38.555  14.338
18714W        W91062  44.923  28.533   3.722
18715W        W91063  18.154  13.215   4.207
18716W        W91064   3.867  11.642  14.283
18717W        W91065   6.739  22.043  12.379
18718W        W91066  40.330  33.415  11.534
18719W        W91067   6.318  11.224  13.544
18720W        W91068  33.062  34.510   5.566
18721W        W91069  16.175  28.539  14.990
18722W        W91070  23.716  13.707   2.376
18723W        W91071  34.948  33.118   1.406
18724W        W91072   0.951  35.412   3.227
18725W        W91073  22.588  25.068   3.208
18726W        W91074  40.521  23.572  14.503
18727W        W91075  40.874  37.533   3.752
18728W        W91076  29.531  30.142  13.979
18729W        W91077  11.794  44.424  14.287
18730W        W91078  24.603  17.613  11.052
18731W        W91079  17.704  39.899   4.673
18732W        W91080  26.192  43.278   4.125
18733W        W91081  26.125  14.777   1.341
18734W        W91082  11.657  20.625   5.138
18735W        W91083   5.933  35.985   2.179
18736W        W91084  24.052  14.206   0.779
18737W        W91085   1.250  25.202   3.648
18738W        W91086   9.795  10.238  12.037
18739W        W91087   7.771  16.742   3.234
18740W        W91088  44.497  28.459  11.579
18741W        W91089   5.232   1.342   3.729
18742W        W91090  27.176  29.519  10.416
18743W        W91091  19.091  39.483   2.231
18744W        W91092  18.194  21.588  13.929
18745W        W91093  12.695  31.488  14.854
18746W        W91094   0.837   0.462   0.927
18747W        W91095  22.601  26.009  12.842
18748W        W91096  31.134  35.431  12.497
18749W        W91097  32.538   7.359   5.192
18750W        W91098   9.336  35.104   2.287
18751W        W91099  27.994  42.298   2.754
18752W        W91100  33.611   9.339   1.257
18753W        W91101   9.671  30.982   1.266
18754W        W91102  29.501  12.256  12.858
18755W        W91103  24.986  20.171  14.472
18756W        W91104  12.156   5.749   3.739
18757W        W91105   3.879  29.995   4.623
18758W        W91106  15.223   1.252  10.481
18759W        W91107  23.690   6.267  14.423
18760W        W91108  18.074  36.914   3.829
18761W        W91109   7.703  10.319  12.524
18762W        W91110  33.559  35.934   4.153
18763W        W91111  11.686  26.662   3.646
18764W        W91112  34.109   5.293  11.373
18765W        W91113   7.235  40.399  12.363
18766W        W91114  25.058  25.659   3.840
18767W        W91115   3.924  18.097  10.944
18768W        W91116  28.074  19.740   2.401
18769W        W91117  44.904  29.157  13.854
18770W        W91118  27.671  35.416  13.466
18771W        W91119  12.341  27.081  13.405
18772W        W91120  15.211   3.350   2.323
18773W        W91121  16.717  13.743  11.904
18774W        W91122  26.101   9.838   1.802
18775W        W91123  22.160   3.278   4.661
18776W        W91124  36.949  38.024   1.932
18777W        W91125   3.817  26.601  11.602
18778W        W91126   2.769   2.820  14.963
18779W        W91127   2.808  31.032  13.519
18780W        W91128  44.417  42.357   1.284
18781W        W91129  30.143  37.377   0.275
18782W        W91130  12.257  13.232   4.794
18783W        W91131  23.680  32.442  10.996
18784W        W91132   5.928  35.964   1.424
18785W        W91133  33.028  27.555  14.901
18786W        W91134  41.787  28.654  14.416
18787W        W91135  25.003  23.224  13.924
18788W        W91136  33.058   8.309   2.828
18789W        W91137  18.172  20.158  10.436
18790W        W91138   8.796  31.574  11.946
18791W        W91139  40.424  24.127   1.856
18792W        W91140  28.986  16.650   3.314
18793W        W91141  41.830  25.052   2.900
18794W        W91142  39.332  41.463  10.901
18795W        W91143  27.585  31.440   0.764
18796W        W91144  20.530  37.884   0.404
18797W        W91145  14.152   8.307   0.912
18798W        W91146   1.831   8.704   2.253
18799W        W91147   1.770  32.120   3.368
18800W        W91148  21.708   9.282  13.051
18801W        W91149   1.844  36.491   3.200
18802W        W91150  41.436  32.510  13.896
18803W        W91151  44.908  20.211   3.811
18804W        W91152  39.461   6.896  13.457
18805W        W91153   0.885  15.192  14.020
18806W        W91154  23.729  37.346  10.895
18807W        W91155  29.036  17.635   0.730
18808W        W91156  32.933  28.547   3.663
18809W        W91157  27.963  20.686   4.819
18810W        W91158  43.783  41.417   3.205
18811W        W91159  19.645  11.641   3.835
18812W        W91160   1.479  15.757  14.890
18813W        W91161  44.796   1.444   0.399
18814W        W91162  42.021  10.743   2.724
18815W        W91163  19.086  34.399  13.967
18816W        W91164  27.127  32.497   0.960
18817W        W91165  18.281  21.723   3.761
18818W        W91166  15.578  42.898   3.283
18819W        W91167  13.123  44.459  14.490
18820W        W91168  17.686  10.690  14.027
18821W        W91169  31.420  27.061  13.910
18822W        W91170  14.691  32.411   4.752
18823W        W91171  22.250  14.820  13.852
18824W        W91172   1.284  28.163  13.472
18825W        W91173  10.642  12.330   3.267
18826W        W91174  41.879  22.149   1.776
18827W        W91175  39.920   3.864   0.337
18828W        W91176  36.575   7.413  11.551
18829W        W91177  28.016  38.464   4.728
18830W        W91178  13.226  34.914   0.827
18831W        W91179  36.961   6.908   0.286
18832W        W91180   3.733  37.385   3.632
18833W        W91181   6.713  30.071   3.656
18834W        W91182  36.567  27.454  14.413
18835W        W91183  21.697  42.912   0.404
18836W        W91184  17.081  16.722  13.897
18837W        W91185  35.511  22.061  14.482
18838W        W91186  10.214   9.178  13.450
18839W        W91187  29.589  21.203   3.300
18840W        W91188  37.077  21.640   3.238
18841W        W91189  39.935   7.718   3.211
18842W        W91190   5.405  41.520   3.279
18843W        W91191  24.611  41.470   2.327
18844W        W91192  28.006  31.448   4.777
18845W        W91193  34.404  26.609   3.196
18846W        W91194   2.916  42.903   0.877
18847W        W91195  18.060  41.852  12.930
18848W        W91196   2.771  30.958   4.632
18849W        W91197   1.251   4.324   0.256
18850W        W91198  34.985   4.242   3.656
18851W        W91199  10.275  37.865   0.341
18852W        W91200  10.183  23.574   1.386
18853W        W91201  12.264  26.698   1.314
18854W        W91202  13.810  25.635   2.294
18855W        W91203  29.964   3.277  13.318
18856W        W91204  30.500  30.935  11.103
18857W        W91205  21.696  32.086   4.634
18858W        W91206  41.895  42.373  14.380
18859W        W91207  17.102  30.495  11.024
18860W        W91208  24.226  27.666  10.542
18861W        W91209  11.800  30.991   4.644
18862W        W91210   7.829  15.676  11.010
18863W        W91211  42.456  34.094  14.800
18864W        W91212   7.373   7.690   0.321
18865W        W91213  14.128   3.310  12.940
18866W        W91214  15.808  11.774  14.466
18867W        W91215   4.846   1.246  12.948
18868W        W91216   6.410  41.398  12.079
18869W        W91217  28.180  11.824   3.664
18870W        W91218   6.868  16.736   0.770
18871W        W91219  44.965  28.527  11.073
18872W        W91220  12.156  24.622  12.398
18873W        W91221  11.722  21.725   3.810
18874W        W91222  30.920  32.101   4.627
18875W        W91223  14.165   9.815  12.840
18876W        W91224  22.053  36.379  11.881
18877W        W91225  32.498  34.090  10.964
18878W        W91226  36.997   0.481  12.396
18879W        W91227  27.115  43.271  13.970
18880W        W91228  10.153   5.887   0.770
18881W        W91229  39.940   4.843   3.270
18882W        W91230   7.689  36.091  10.539
18883W        W91231  25.963  23.640   4.288
18884W        W91232   4.309  10.703   4.259
18885W        W91233   5.838  26.509   1.312
18886W        W91234  33.897  40.387   0.356
18887W        W91235  14.750  32.044   2.883
18888W        W91236   4.421  24.127  12.878
18889W        W91237  27.162  22.697  12.841
18890W        W91238   6.375   9.735   0.927
18891W        W91239  32.485   1.836  13.520
18892W        W91240  42.973  35.439  10.935
18893W        W91241  22.698  30.027  11.583
18894W        W91242  29.162  24.119   1.737
18895W        W91243  29.003  39.470   1.375
18896W        W91244  29.055  27.973   1.728
18897W        W91245  15.123  29.112   2.901
18898W        W91246  18.169   9.809   0.813
18899W        W91247  42.967  32.068  11.920
18900W        W91248  32.632   3.263  13.983
18901W        W91249   0.451  24.666  10.416
18902W        W91250   1.849  12.699   0.771
18903W        W91251   3.728   7.253   3.187
18904W        W91252  12.808  42.848  12.047
18905W        W91253  31.608  23.221  12.396
18906W        W91254  12.669  38.073  11.002
18907W        W91255  38.415  34.958   0.924
18908W        W91256   3.230  42.806   0.366
18909W        W91257  37.866  40.838  13.397
18910W        W91258   7.892  20.704   1.296
18911W        W91259   2.312  40.378   4.630
18912W        W91260  21.609  36.579  14.025
18913W        W91261  28.529  15.166  11.550
18914W        W91262  14.105  37.342  13.417
18915W        W91263  14.251  37.074   1.698
18916W        W91264  38.061   7.340  13.350
18917W        W91265  39.017  14.798   0.410
18918W        W91266  16.259  19.697   2.302
18919W        W91267  44.869  13.729  10.612
18920W        W91268  22.064  30.648  13.796
18921W        W91269  18.789  22.600  14.783
18922W        W91270  14.162   3.729  11.995
18923W        W91271  18.733  38.034   0.750
18924W        W91272  35.507  24.082  11.920
18925W        W91273  16.155   4.905  14.275
18926W        W91274  21.094  24.138   3.648
18927W        W91275  21.173  35.457  11.461
18928W        W91276   9.758  40.004   1.318
18929W        W91277  30.541  37.524  11.061
18930W        W91278   6.771  40.411   3.706
18931W        W91279  33.053  40.471   0.850
18932W        W91280  29.058  26.689   4.146
18933W        W91281  26.172  15.717   0.874
18934W        W91282  14.795  16.218  12.852
18935W        W91283   2.794  29.103   1.401
18936W        W91284  19.626  40.032  11.567
18937W        W91285   4.803   2.773  14.290
18938W        W91286  35.540   4.784   0.957
18939W        W91287  41.819  21.259   2.782
18940W        W91288   0.839  35.896   0.816
18941W        W91289  33.915  42.399   2.843
18942W        W91290  32.571  14.214   2.225
18943W        W91291  34.959  28.005  13.436
18944W        W91292  44.954  27.595  14.450
18945W        W91293   4.238  43.963   0.739
18946W        W91294  10.208  27.662  11.992
18947W        W91295  42.913   2.811  14.466
18948W        W91296   6.277  15.155  10.484
18949W        W91297  31.551  39.342   4.617
18950W        W91298  40.420  38.851   9.992
18951W        W91299  17.215  28.477   0.818
18952W        W91300   7.214  15.649   1.896
18953W        W91301   8.354  21.643  14.937
18954W        W91302  43.926  24.557  14.290
18955W        W91303   4.226   8.807   4.604
18956W        W91304   9.268  32.500   9.517
18957W        W91305  23.053  23.125  14.280
18958W        W91306  37.486   2.884  14.333
18959W        W91307  15.154  41.537  11.964
18960W        W91308  29.666   9.157   2.740
18961W        W91309  33.886  16.119   4.830
18962W        W91310  16.308   2.282  10.962
18963W        W91311  20.648  41.035  13.320
18964W        W91312   9.289  25.670   2.311
18965W        W91313  26.501   0.906  13.798
18966W        W91314   1.763   8.380  13.028
18967W        W91315  26.999  18.721   0.743
18968W        W91316  25.483   7.172  13.059
18969W        W91317  36.388   1.409  13.867
18970W        W91318  40.398  14.260  14.449
18971W        W91319  37.508  22.669  11.119
18972W        W91320   9.871  20.614   4.274
18973W        W91321  39.515  34.391   3.761
18974W        W91322  36.411  43.280   3.299
18975W        W91323   8.283  17.213  13.532
18976W        W91324   5.926  39.489   4.712
18977W        W91325  43.389  41.392  10.980
18978W        W91326  34.110   7.791   0.401
18979W        W91327   6.867  36.396  10.522
18980W        W91328   9.791   7.285   1.751
18981W        W91329  11.338  42.285   0.949
18982W        W91330   6.248  34.387  14.780
18983W        W91331  38.056  25.077   2.728
18984W        W91332  37.929  43.925  14.361
18985W        W91333  32.532  29.443  12.483
18986W        W91334  21.598  16.173  11.558
18987W        W91335  14.788   7.409  10.125
18988W        W91336   6.202   5.891   0.836
18989W        W91337  24.046   6.707  14.435
18990W        W91338   5.740  44.938   4.334
18991W        W91339   5.708   6.765   2.721
18992W        W91340  13.764  20.739   1.271
18993W        W91341   2.903  24.563  11.495
18994W        W91342  34.501   6.321  14.028
18995W        W91343  42.026  44.466  12.435
18996W        W91344  12.209  35.052  11.885
18997W        W91345  16.075  41.880   3.631
18998W        W91346  36.990  13.638   4.795
18999W        W91347  23.151  22.500   2.737
19000W        W91348   1.425  41.891  14.761
19001W        W91349  20.074  15.265  14.485
19002W        W91350  43.463  23.128  13.487
19003W        W91351   9.836  35.877  13.943
19004W        W91352  12.785   8.846   3.864
19005W        W91353  38.542  18.131   4.288
19006W        W91354  24.680  34.412   2.674
19007W        W91355  33.423  41.995  13.373
19008W        W91356  41.034  35.586   3.196
19009W        W91357  37.516  27.169  14.026
19010W        W91358   3.450   4.380   1.401
19011W        W91359  27.055  40.481  14.407
19012W        W91360  25.666  30.481   3.861
19013W        W91361  18.598  18.606   2.389
19014W        W91362  15.089  18.767   2.249
19015W        W91363  23.161  26.973   2.385
19016W        W91364   6.822  41.408   3.674
19017W        W91365  18.086  34.071  10.490
19018W        W91366  14.175   2.333  14.859
19019W        W91367  15.699  14.637  10.956
19020W        W91368  31.039  31.031  14.351
19021W        W91369   5.812  21.048   5.314
19022W        W91370  36.993  27.994   0.830
19023W        W91371  41.306  24.196  13.444
19024W        W91372  38.391  20.147   1.232
19025W        W91373  10.242  26.537  12.483
19026W        W91374  35.918  26.207   3.687
19027W        W91375  12.706  13.349  12.851
19028W        W91376  29.609   7.186   2.831
19029W        W91377  13.761  19.263   4.598
19030W        W91378   1.482  39.930  11.418
19031W        W91379  15.283  18.588  12.852
19032W        W91380  16.286  39.436   4.161
19033W        W91381  38.036  11.196   2.202
19034W        W91382  26.543  32.960  10.519
19035W        W91383  25.564  20.540   4.293
19036W        W91384  34.109  14.764  12.975
19037W        W91385  23.595  42.358  10.949
19038W        W91386  27.943  11.726  14.403
19039W        W91387  40.491  12.180  14.292
19040W        W91388  10.342  21.207  12.425
19041W        W91389  44.437  11.778   0.853
19042W        W91390   6.323  12.274  11.564
19043W        W91391  23.577  25.076  13.791
19044W        W91392  24.038   3.762   1.908
19045W        W91393   7.337  32.940   4.145
19046W        W91394  11.818  22.535   4.626
19047W        W91395  20.197  27.489  14.351
19048W        W91396  28.931  37.861   3.227
19049W        W91397  41.498   3.447  12.528
19050W        W91398  39.947  43.851   4.708
19051W        W91399  34.578  24.592   2.678
19052W        W91400  33.990  16.699   0.889
19053W        W91401  21.582  39.511   1.418
19054W        W91402   1.743   4.312  14.827
19055W        W91403  44.755   4.739   2.788
19056W        W91404  25.614  21.746  10.500
19057W        W91405  13.611  38.016  11.559
19058W        W91406   8.366   6.792  12.959
19059W        W91407   8.692  35.094   0.753
19060W        W91408  44.774  35.566   3.207
19061W        W91409   8.737  28.070  14.458
19062W        W91410  16.224   4.298  12.472
19063W        W91411  11.343   7.376   4.208
19064W        W91412  14.686   0.396   0.452
19065W        W91413  38.827  16.626   3.386
19066W        W91414  39.392   1.922   2.739
19067W        W91415  29.106  30.484   4.705
19068W        W91416  22.600  42.362   1.367
19069W        W91417  22.743  25.041  13.347
19070W        W91418   2.253   3.949  11.900
19071W        W91419  30.142  39.834  14.409
19072W        W91420  32.016   9.734  13.871
19073W        W91421   5.895   0.748  10.541
19074W        W91422  13.247  43.936   0.421
19075W        W91423  41.870  20.718  11.589
19076W        W91424  27.055  35.467  13.957
19077W        W91425  34.557  19.156  14.379
19078W        W91426  31.997  25.004   5.262
19079W        W91427  41.786  14.717   4.825
19080W        W91428  43.011  14.249  12.530
19081W        W91429  22.547  14.790  13.517
19082W        W91430  31.517  40.487  10.512
19083W        W91431  29.423   0.951   1.377
19084W        W91432  33.119   2.776   2.757
19085W        W91433  40.902  34.552  10.979
19086W        W91434  24.111  44.760   4.629
19087W        W91435   8.716  24.034  12.879
19088W        W91436  36.426  44.986  11.883
19089W        W91437  39.003  28.546  13.489
19090W        W91438  27.453  10.661  11.426
19091W        W91439   7.316  34.004  12.957
19092W        W91440  26.142  27.988   3.660
19093W        W91441  19.549  26.040   2.865
19094W        W91442  20.562  27.508   2.780
19095W        W91443  18.210  24.619   0.456
19096W        W91444   9.154  18.663  13.479
19097W        W91445  34.028  15.260   0.331
19098W        W91446  38.380  18.156  12.845
19099W        W91447  25.195  13.746  14.349
19100W        W91448  37.481  10.722  14.462
19101W        W91449  10.217   6.705  14.898
19102W        W91450   9.712  30.110   2.305
19103W        W91451   9.256  16.696   2.668
19104W        W91452  27.081  43.007  13.365
19105W        W91453  23.134  26.028  10.411
19106W        W91454  31.522  13.256   0.331
19107W        W91455   0.275  35.394  13.520
19108W        W91456  18.680  12.215   3.211
19109W        W91457  34.484   7.386   4.699
19110W        W91458  42.872   0.800   4.176
19111W        W91459  38.455  28.557   4.298
19112W        W91460  36.497  19.168  13.331
19113W        W91461  14.649  40.491   3.861
19114W        W91462   9.176   1.386  12.060
19115W        W91463  24.159  11.791   2.759
19116W        W91464  21.686  16.292   3.717
19117W        W91465  44.281  36.061   2.861
19118W        W91466  24.593  44.855   4.723
19119W        W91467   9.211   1.834  14.977
19120W        W91468  37.009  18.117  13.349
19121W        W91469  20.068  11.757   2.324
19122W        W91470  41.497  12.261  12.410
19123W        W91471  39.334  25.163   4.617
19124W        W91472  29.967  13.136  14.297
19125W        W91473  31.442  41.933   4.717
19126W        W91474   3.838  27.170   2.404
19127W        W91475   7.698  41.493  14.469
19128W        W91476  24.054  34.933  14.275
19129W        W91477  13.124  30.028  12.396
19130W        W91478  38.015  36.546  11.009
19131W        W91479  26.995  43.473  12.527
19132W        W91480   0.488   9.168   1.439
19133W        W91481  40.417  21.743   4.330
19134W        W91482  25.964  12.191  13.015
19135W        W91483  17.152   0.384   0.794
19136W        W91484  36.867  37.353  12.837
19137W        W91485   3.781  35.560   1.447
19138W        W91486  40.413  16.316   3.259
19139W        W91487  12.700  14.810   1.871
19140W        W91488  13.819   1.380  11.099
19141W        W91489  12.777  29.591   1.360
19142W        W91490  23.221  18.083  14.355
19143W        W91491   9.194  18.745   3.345
19144W        W91492  16.212  15.195  14.450
19145W        W91493  28.565  19.731  13.884
19146W        W91494  36.061  35.981  12.911
19147W        W91495  42.851   2.366  14.967
19148W        W91496   8.695  34.008   1.404
19149W        W91497  16.292  24.541  11.888
19150W        W91498  30.519   5.374   0.435
19151W        W91499   3.338  30.594   3.727
19152W        W91500  26.088   6.346  11.883
19153W        W91501  21.637  14.232  11.475
19154W        W91502  12.323  15.182  14.889
19155W        W91503   4.763  15.215  11.055
19156W        W91504  11.632   5.420   1.918
19157W        W91505  35.508   5.245  13.868
19158W        W91506  39.009  19.768  12.394
19159W        W91507  25.528  12.761  10.990
19160W        W91508   2.317  21.222   4.766
19161W        W91509  39.828  18.637   3.290
19162W        W91510  43.952  40.452  11.904
19163W        W91511  23.606  19.634   4.656
19164W        W91512  19.249  14.335  11.386
19165W        W91513  11.129  41.902  10.921
19166W        W91514  10.826  29.982  14.832
19167W        W91515  30.417  28.459  10.570
19168W        W91516  33.900  25.709  12.351
19169W        W91517   9.176   3.853  13.062
19170W        W91518  43.980  29.964   2.324
19171W        W91519  21.074  42.450   3.840
19172W        W91520  37.353  16.088  10.511
19173W        W91521  44.363   8.195  12.543
19174W        W91522  13.177  38.429  13.310
19175W        W91523  32.913  26.626   2.746
19176W        W91524  44.899  13.615   1.405
19177W        W91525  35.526  21.237   1.888
19178W        W91526  42.814  16.122   2.735
19179W        W91527  18.651  11.154  12.000
19180W        W91528   5.310  19.772  14.821
19181W        W91529  39.979  10.746  12.999
19182W        W91530   1.436   3.375   3.148
19183W        W91531  31.462  22.632   4.611
19184W        W91532  41.460  41.530   4.150
19185W        W91533  34.105  34.104  10.889
19186W        W91534  40.387  20.639   3.171
19187W        W91535   9.345  32.913   5.781
19188W        W91536  21.232   3.754   0.851
19189W        W91537  39.039  38.506   1.341
19190W        W91538  27.585  31.471   1.935
19191W        W91539  36.079  22.998  13.982
19192W        W91540  42.909  16.149  14.365
19193W        W91541  29.476   4.273   2.270
19194W        W91542  11.768  29.106  14.986
19195W        W91543   8.802   6.694   2.711
19196W        W91544  23.206  19.117   1.261
19197W        W91545  43.511  18.166   3.635
19198W        W91546  18.124  39.987  12.088
19199W        W91547  43.003  19.070   3.254
19200W        W91548  32.408  31.571   2.769
19201W        W91549   6.212  16.642   2.376
19202W        W91550  25.028  10.837   2.334
19203W        W91551  18.101  12.660  13.853
19204W        W91552  38.957  27.663  12.965
19205W        W91553   3.444  24.596  14.340
19206W        W91554   8.234  14.722  12.979
19207W        W91555  43.956  13.287   4.765
19208W        W91556   7.783  40.857   3.356
19209W        W91557   6.304   3.293   3.775
19210W        W91558  26.618   2.898  11.560
19211W        W91559  26.627  32.963   4.269
19212W        W91560  29.137  22.208  14.405
19213W        W91561  16.094  34.596  14.031
19214W        W91562  31.076   2.876  11.508
19215W        W91563   7.342  34.376  11.080
19216W        W91564  43.410   5.384  14.292
19217W        W91565  33.025  43.972   2.747
19218W        W91566  19.059  29.549  10.913
19219W        W91567  42.336   1.455   2.871
19220W        W91568  10.205   4.337  10.471
19221W        W91569  17.214  44.313  12.082
19222W        W91570  40.931  25.218   1.801
19223W        W91571  26.663  35.557  11.529
19224W        W91572  11.168  36.357  10.417
19225W        W91573  27.146   9.790  14.895
19226W        W91574  14.294  20.048  11.402
19227W        W91575   7.777   8.877   0.448
19228W        W91576  11.742   6.892   5.127
19229W        W91577   9.706  31.977   3.816
19230W        W91578  43.274   9.378  10.967
19231W        W91579  32.471  32.085   1.313
19232W        W91580  34.448   2.321  13.424
19233W        W91581  33.507  29.501   4.610
19234W        W91582  17.789  15.755   3.633
19235W        W91583  33.987   8.671  10.087
19236W        W91584  34.415  39.031  13.363
19237W        W91585  20.613  29.922  13.401
19238W        W91586  16.785  44.807  10.438
19239W        W91587  43.502  34.432  12.084
19240W        W91588  13.231  43.996  14.835
19241W        W91589  32.560  13.683  12.460
19242W        W91590  17.143   1.855  10.106
19243W        W91591  30.415  42.436  10.530
19244W        W91592   5.735  17.629  14.349
19245W        W91593  35.474  14.737   3.634
19246W        W91594   1.896  28.940   3.762
19247W        W91595  13.259   6.819   4.663
19248W        W91596  23.113  35.041   4.614
19249W        W91597  44.501  41.462  11.421
19250W        W91598  33.928  21.246   4.713
19251W        W91599  18.570   7.321  14.868
19252W        W91600  13.810  15.093  10.913
19253W        W91601   2.390  30.417  10.069
19254W        W91602  36.954  14.156  13.466
19255W        W91603  44.272  12.769  12.985
19256W        W91604  29.454   6.715  12.418
19257W        W91605  17.719  30.561   5.290
19258W        W91606  41.535  28.010   4.612
19259W        W91607  13.716  22.011  12.420
19260W        W91608  18.208  20.691  12.085
19261W        W91609  21.068  22.198   3.665
19262W        W91610  32.124  41.518  13.857
19263W        W91611  11.202  15.232   1.801
19264W        W91612  44.395  11.738   2.392
19265W        W91613  18.269   9.844   4.140
19266W        W91614  15.255  29.562   4.287
19267W        W91615  14.318  12.762   5.568
19268W        W91616  28.133   9.691   3.343
19269W        W91617  18.171  38.499   0.911
19270W        W91618   1.858  11.729   2.791
19271W        W91619  23.022  36.574  12.971
19272W        W91620  35.919   6.188   1.392
19273W        W91621  26.473  38.944  13.522
19274W        W91622  40.542  39.508  13.914
19275W        W91623  17.764   7.715   1.423
19276W        W91624  19.128  44.997  12.980
19277W        W91625  29.142  11.766   3.275
19278W        W91626   1.446   4.710   3.754
19279W        W91627  41.031  23.147   0.748
19280W        W91628  44.828  23.681  12.531
19281W        W91629   5.205  42.880  10.159
19282W        W91630   1.329   9.860  14.379
19283W        W91631  12.271  13.669  12.468
19284W        W91632   5.202  37.560  12.008
19285W        W91633  40.500  18.092  10.523
19286W        W91634  26.161  32.480  12.890
19287W        W91635   2.842  37.939  12.956
19288W        W91636  38.997  29.032  10.594
19289W        W91637  29.457  10.843  12.508
19290W        W91638  18.059   0.773   1.307
19291W        W91639  11.787  38.482   3.857
19292W        W91640  32.399  37.422  11.868
19293W        W91641  18.060  26.634   3.761
19294W        W91642  29.117   7.203  14.331
19295W        W91643  31.581  32.886  12.861
19296W        W91644  12.788  33.554  14.359
19297W        W91645  42.858   0.871  11.399
19298W        W91646   6.248  15.691  12.997
19299W        W91647  42.014  30.526  14.385
19300W        W91648  40.988  30.655  14.482
19301W        W91649  11.262  28.950   0.732
19302W        W91650  26.094  38.002   0.327
19303W        W91651   3.723  16.617   0.883
19304W        W91652  39.540  38.997  12.566
19305W        W91653  39.027   8.854   4.145
19306W        W91654  33.618  12.147  14.325
19307W        W91655  30.994   2.468  10.892
19308W        W91656  18.649  19.094   3.675
19309W        W91657  42.379  40.797  12.044
19310W        W91658  44.269   9.702   0.246
19311W        W91659  17.698  34.980  10.931
19312W        W91660  27.995  10.741  14.789
19313W        W91661  27.583  44.905  10.968
19314W        W91662  23.496  19.274  11.985
19315W        W91663  28.559   2.890  11.557
19316W        W91664  20.236  43.286   1.448
19317W        W91665   6.835  34.379   3.213
19318W        W91666  23.087  12.847  10.457
19319W        W91667   8.716   0.407  11.521
19320W        W91668  44.850  16.674  11.526
19321W        W91669  32.605  27.194  14.492
19322W        W91670  43.425   4.900  13.926
19323W        W91671  40.537  28.570   3.690
19324W        W91672  25.039   0.471  10.093
19325W        W91673  44.315  20.660  11.075
19326W        W91674  10.777  37.841   3.219
19327W        W91675  12.227  10.250   2.248
19328W        W91676  38.839  24.046   2.270
19329W        W91677  13.210  40.465   2.351
19330W        W91678  35.396  10.171   3.286
19331W        W91679   0.348  25.617  13.429
19332W        W91680  13.601  28.561  12.985
19333W        W91681  19.078  44.765   4.674
19334W        W91682  12.658  42.866   0.799
19335W        W91683  16.579   3.434   9.934
19336W        W91684  30.998  26.126  14.446
19337W        W91685  19.614   4.766  13.308
19338W        W91686  36.975   7.736   5.267
19339W        W91687   3.923  13.606  14.883
19340W        W91688  33.991  27.518  11.920
19341W        W91689   4.227  36.920  13.907
19342W        W91690  25.579  27.016   3.217
19343W        W91691   3.386  39.971  11.011
19344W        W91692  40.344   9.289  12.029
19345W        W91693   8.806   3.813   4.831
19346W        W91694  27.059  15.101  12.967
19347W        W91695  16.593  43.969  11.042
19348W        W91696  14.142  27.472   1.760
19349W        W91697  36.544  31.027  13.974
19350W        W91698  17.245  10.333   0.462
19351W        W91699   6.686  42.961   1.803
19352W        W91700  18.127  28.089  14.398
19353W        W91701  13.742   4.702   9.996
19354W        W91702  32.082  41.374   0.406
19355W        W91703   0.468  21.666  14.760
19356W        W91704   0.749  28.106  14.823
19357W        W91705  40.951  13.219  12.375
19358W        W91706  41.497  35.423  13.826
19359W        W91707  30.630   4.882   3.235
19360W        W91708  18.568  16.082  14.276
19361W        W91709   4.918   1.921  13.323
19362W        W91710   0.772  25.164  11.118
19363W        W91711  20.583  34.407  13.332
19364W        W91712   6.247  32.074  12.935
19365W        W91713   3.785  33.962   2.751
19366W        W91714   2.722   7.300   3.692
19367W        W91715   0.847  14.109  13.793
19368W        W91716  44.854  14.647  14.275
19369W        W91717  21.154  37.932   2.691
19370W        W91718  34.887   5.217  13.848
19371W        W91719   1.241   0.479  10.586
19372W        W91720  24.608  20.555   3.382
19373W        W91721   9.159  28.466  13.031
19374W        W91722   0.845   1.757  14.383
19375W        W91723  41.930  40.371   0.364
19376W        W91724  28.091  32.921  12.499
19377W        W91725  10.862  15.785   0.441
19378W        W91726  32.016  38.370   1.767
19379W        W91727  43.423  42.999   5.161
19380W        W91728  11.208   5.410  11.497
19381W        W91729  14.172  26.636   2.258
19382W        W91730  28.995  13.611   2.863
19383W        W91731  13.735  36.975  14.773
19384W        W91732  18.158   2.283   2.194
19385W        W91733  22.226   0.752  10.597
19386W        W91734  43.465  36.406  12.004
19387W        W91735  39.848   0.490  12.396
19388W        W91736  19.645  20.758   3.638
19389W        W91737  42.328  10.243  14.498
19390W        W91738  41.398   4.794   2.228
19391W        W91739  43.800  23.572   3.781
19392W        W91740  40.481   7.354   3.768
19393W        W91741   5.413  21.124   2.869
19394W        W91742  24.042   6.396  10.610
19395W        W91743  36.038  40.533   3.160
19396W        W91744   3.777  10.778  12.972
19397W        W91745   0.398  31.439  12.528
19398W        W91746   3.447  20.217   0.819
19399W        W91747  38.503   2.749   0.856
19400W        W91748   8.661   2.371  11.919
19401W        W91749  43.854  37.062  14.360
19402W        W91750   0.964  12.233   2.866
19403W        W91751  17.649  33.087   3.367
19404W        W91752  31.095   3.741   4.736
19405W        W91753  31.115  28.454   1.217
19406W        W91754  10.758  18.160   3.379
19407W        W91755  44.958   3.805   1.441
19408W        W91756  19.129  39.510   0.311
19409W        W91757  30.129  29.017   1.929
19410W        W91758  11.817  29.531  11.981
19411W        W91759  33.606  28.101  10.947
19412W        W91760   9.885  17.300  12.545
19413W        W91761  33.882  30.907   1.319
19414W        W91762   6.297  27.611  14.013
19415W        W91763  11.668  28.446   3.754
19416W        W91764  44.306  11.342  10.072
19417W        W91765  31.535  18.640   3.317
19418W        W91766  37.847  22.708  11.413
19419W        W91767   1.849  26.528  12.385
19420W        W91768  12.357  28.098   0.288
19421W        W91769  25.492  33.034   4.182
19422W        W91770  25.055   5.227   1.915
19423W        W91771   0.258  24.225  12.389
19424W        W91772   2.865   3.865  12.888
19425W        W91773  16.711  19.727   2.753
19426W        W91774  36.960  13.755  12.456
19427W        W91775  19.170  15.606   4.318
19428W        W91776  10.711  35.017   0.289
19429W        W91777  27.555  29.478  13.377
19430W        W91778  22.686  12.744   0.753
19431W        W91779  21.525  15.187   2.840
19432W        W91780  36.056  23.211   0.741
19433W        W91781   5.275   4.706   4.304
19434W        W91782  16.283  23.716  14.346
19435W        W91783  31.597   5.290  11.552
19436W        W91784  37.563   3.250  12.016
19437W        W91785  39.027   6.344  12.934
19438W        W91786  23.158   7.339  11.898
19439W        W91787  39.378  21.143  14.900
19440W        W91788  10.747  35.927  10.939
19441W        W91789   3.370  23.587  13.062
19442W        W91790  42.443  35.108  11.985
19443W        W91791  17.171  36.062   2.203
19444W        W91792   0.783  17.189  14.394
19445W        W91793  34.084  23.581   4.207
19446W        W91794  42.345  43.344  11.942
19447W        W91795   7.388  32.995   5.730
19448W        W91796  34.901  28.020   2.884
19449W        W91797  15.632   2.831  11.375
19450W        W91798   5.893  38.072   4.354
19451W        W91799  13.129  21.644   1.760
19452W        W91800   4.444  18.738   2.676
19453W        W91801  43.790   0.877  11.004
19454W        W91802   1.451  10.383   3.271
19455W        W91803  33.925   7.769   0.908
19456W        W91804  30.471  27.098  10.408
19457W        W91805   3.298  21.088  10.906
19458W        W91806  40.419  38.950   2.842
19459W        W91807   9.247  44.329   4.812
19460W        W91808   2.470   1.842   0.789
19461W        W91809  27.482  37.412  14.825
19462W        W91810  20.548  42.351  14.862
19463W        W91811  27.942  44.276  12.579
19464W        W91812   4.271  42.959  13.425
19465W        W91813  39.493  38.383   4.781
19466W        W91814  16.234  43.411  11.122
19467W        W91815  38.395  33.533   3.168
19468W        W91816  13.676  28.023   1.421
19469W        W91817  29.136   8.794   1.837
19470W        W91818  13.615   0.381  14.360
19471W        W91819  28.493  23.057   2.324
19472W        W91820  22.078  44.497   2.712
19473W        W91821  18.157  28.534   3.378
19474W        W91822   8.723  11.203  11.611
19475W        W91823  16.724  13.793   0.849
19476W        W91824   3.829   2.454   3.258
19477W        W91825  30.532  22.193   1.217
19478W        W91826  27.094  10.288  11.551
19479W        W91827  22.226  43.426   0.926
19480W        W91828  44.350  16.265  11.116
19481W        W91829  28.532   1.461   4.177
19482W        W91830   7.890  35.449   0.821
19483W        W91831   9.791  39.408  13.319
19484W        W91832  44.785  35.497   1.219
19485W        W91833  32.483  24.084  12.086
19486W        W91834  15.613  42.403   3.176
19487W        W91835  36.080   3.797   1.233
19488W        W91836  42.452  29.513   3.698
19489W        W91837   0.888  23.538   0.375
19490W        W91838  40.996  29.537  14.360
19491W        W91839   3.331  28.064   4.599
19492W        W91840  24.027  29.558   2.801
19493W        W91841  15.249   2.888   1.366
19494W        W91842  30.559  14.312  10.470
19495W        W91843  33.564  14.286   4.143
19496W        W91844  21.566   6.263   4.621
19497W        W91845   5.197  21.163  11.868
19498W        W91846   3.773  31.942   1.835
19499W        W91847  27.475  26.519   0.470
19500W        W91848   9.266  24.214   2.805
19501W        W91849  39.941  36.573  13.459
19502W        W91850  13.231   8.233   3.365
19503W        W91851   4.396   8.736  12.416
19504W        W91852  36.358  17.146  10.621
19505W        W91853  35.590  11.658   3.682
19506W        W91854  34.989   6.835  14.961
19507W        W91855  31.954  42.516  13.023
19508W        W91856  16.156  27.625   2.663
19509W        W91857  19.180  31.456   4.249
19510W        W91858  23.683  25.039   2.783
19511W        W91859   6.363  33.599  10.473
19512W        W91860  16.603  40.485  11.909
19513W        W91861  28.182  21.531   4.278
19514W        W91862  13.606  17.772  11.451
19515W        W91863  35.965  36.092   2.325
19516W        W91864  33.037   5.849   1.763
19517W        W91865   9.310  38.075  13.909
19518W        W91866  12.645  17.095  11.473
19519W        W91867  38.828  32.043   2.253
19520W        W91868  21.718  35.601  11.074
19521W        W91869  39.811  42.385  14.345
19522W        W91870  23.560   6.881  12.072
19523W        W91871  21.649  40.390  14.471
19524W        W91872  41.797   3.735   0.321
19525W        W91873  37.976   6.814   4.119
19526W        W91874  16.645  17.181  12.040
19527W        W91875  20.210  25.117   3.808
19528W        W91876  35.998  16.629  14.484
19529W        W91877  39.932   5.229  12.969
19530W        W91878  11.627  44.860  10.962
19531W        W91879  34.506  21.053  11.044
19532W        W91880   7.670  38.414   2.810
19533W        W91881  19.649   2.259  10.618
19534W        W91882  22.581   1.772   3.290
19535W        W91883  12.762  39.383  14.865
19536W        W91884  19.750  17.764  12.071
19537W        W91885  13.206  16.650  14.909
19538W        W91886  33.891  43.499   2.719
19539W        W91887  38.957   0.816  12.453
19540W        W91888   1.264  42.963   0.747
19541W        W91889  35.430  31.018  14.446
19542W        W91890  28.538  23.093  14.961
19543W        W91891  31.932  43.371  11.450
19544W        W91892  10.810   0.949   2.272
19545W        W91893  32.602  33.623  13.821
19546W        W91894  18.097   4.700  11.022
19547W        W91895  15.595   0.870   4.150
19548W        W91896  27.940  42.814   3.251
19549W        W91897   3.871  38.352  12.006
19550W        W91898  31.969   6.406  12.445
19551W        W91899  16.759   4.749  10.960
19552W        W91900   5.349  42.398  14.321
19553W        W91901  28.650  12.246   2.180
19554W        W91902  37.872  39.044   0.324
19555W        W91903  30.990   3.951  14.808
19556W        W91904   7.348  44.816   4.730
19557W        W91905  11.224  23.050   2.662
19558W        W91906  40.323  23.594   3.262
19559W        W91907  24.527   8.880  14.317
19560W        W91908  43.989  40.921   1.746
19561W        W91909  14.688  33.882  11.064
19562W        W91910  31.411  41.034  11.855
19563W        W91911  18.215  17.136  14.823
19564W        W91912  15.168  26.529  12.915
19565W        W91913   3.863  28.140   4.811
19566W        W91914  44.970  27.980  11.534
19567W        W91915  13.719  26.661  12.920
19568W        W91916   4.225  16.665   3.836
19569W        W91917  25.205  23.993   4.781
19570W        W91918  21.161   9.380  12.376
19571W        W91919  23.237  32.915   4.619
19572W        W91920  15.765   7.725  11.026
19573W        W91921  23.047  24.698   0.761
19574W        W91922  43.826  38.978   0.304
19575W        W91923  38.415  34.902   1.227
19576W        W91924  38.530  31.913   3.289
19577W        W91925  10.361  20.119  13.802
19578W        W91926  14.312   4.343   0.929
19579W        W91927  18.226  24.578  11.437
19580W        W91928   3.247   3.361   2.357
19581W        W91929  16.650  11.675   0.290
19582W        W91930  11.741  28.447  12.876
19583W        W91931  26.153  25.476   0.299
19584W        W91932  37.366  39.872  14.451
19585W        W91933   8.673   4.392   1.390
19586W        W91934  32.577  21.546   1.918
19587W        W91935  24.003   0.977   5.119
19588W        W91936  12.656  18.269   0.773
19589W        W91937  10.691  44.788   2.384
19590W        W91938  11.156  19.548   0.848
19591W        W91939  31.143   1.319   4.727
19592W        W91940  24.605  44.325  12.898
19593W        W91941  44.294  20.707  12.945
19594W        W91942  16.686  25.695  10.459
19595W        W91943  25.219  12.775   2.794
19596W        W91944  12.837   4.741   3.675
19597W        W91945  29.110  24.582  10.444
19598W        W91946  31.519  26.598   3.169
19599W        W91947  20.174  41.003   4.224
19600W        W91948  25.120  18.701   0.758
19601W        W91949   0.799  42.911   1.855
19602W        W91950  38.403   0.289   3.681
19603W        W91951  37.426  20.049  11.596
19604W        W91952  31.546  28.178   3.868
19605W        W91953  10.146  12.825   3.718
19606W        W91954  17.076  37.883  10.533
19607W        W91955  34.476  29.548  12.497
19608W        W91956  40.838  27.484  14.900
19609W        W91957  31.630   6.874   1.322
19610W        W91958  41.959  37.393   2.737
19611W        W91959  30.036  28.004  14.888
19612W        W91960  34.504  12.157  14.786
19613W        W91961  20.685  11.226   1.812
19614W        W91962  33.405  43.274   1.923
19615W        W91963   6.196  18.071   1.231
19616W        W91964  37.563  23.597  11.058
19617W        W91965  32.603   0.894  12.557
19618W        W91966  28.599  12.752  13.475
19619W        W91967   4.866  30.970  12.876
19620W        W91968  28.102  34.043   3.151
19621W        W91969  11.243  35.427   0.385
19622W        W91970  25.621  32.066   4.709
19623W        W91971  36.402  35.941   2.845
19624W        W91972  41.327  29.589   0.757
19625W        W91973  22.510  44.808  12.462
19626W        W91974   1.447  40.016  12.020
19627W        W91975  17.082  29.111   0.439
19628W        W91976  25.540  12.123  12.047
19629W        W91977   0.845  34.604   4.792
19630W        W91978  13.157  12.700   4.678
19631W        W91979  14.283  42.386  10.563
19632W        W91980  28.116  32.124  14.818
19633W        W91981  42.419  17.561  14.299
19634W        W91982  33.457  43.516  11.563
19635W        W91983  40.319  28.589   1.273
19636W        W91984  32.062  36.478   5.663
19637W        W91985   3.282  21.097   4.179
19638W        W91986   7.667  24.995  11.093
19639W        W91987   2.357  14.788   4.170
19640W        W91988  38.451  29.093  11.582
19641W        W91989  18.632   3.764   3.640
19642W        W91990  28.980  17.718   2.705
19643W        W91991   0.422   4.419   0.836
19644W        W91992  25.539   2.375   2.313
19645W        W91993  37.528   8.224  12.994
19646W        W91994   4.220  26.660  11.878
19647W        W91995  30.483  24.091   3.778
19648W        W91996  28.178  39.855  12.074
19649W        W91997  21.547  19.047   4.763
19650W        W91998  15.183  15.150   1.292
19651W        W91999  32.585   3.836   0.281
19652W        W92000   3.275   3.871   1.267
19653W        W92001  30.964  26.179  13.918
19654W        W92002  32.489  16.167  14.888
19655W        W92003   9.156   6.360  10.921
19656W        W92004  25.555  36.399   3.326
19657W        W92005  43.814   1.949  13.865
19658W        W92006  37.012   8.235  14.945
19659W        W92007  18.677  24.675  12.540
19660W        W92008  36.523   1.858  13.367
19661W        W92009   1.878   1.272   3.186
19662W        W92010  10.723   4.896   1.396
19663W        W92011  19.657   1.432  12.401
19664W        W92012  22.598  28.075   3.247
19665W        W92013  28.522  35.881   5.242
19666W        W92014  15.719  43.491  11.453
19667W        W92015  16.172  25.172   4.348
19668W        W92016  14.175   0.378  11.975
19669W        W92017  34.593  13.752   2.278
19670W        W92018   5.763  26.984  14.429
19671W        W92019  35.592  34.981   4.268
19672W        W92020  40.455  21.207   4.223
19673W        W92021  17.728  30.156   0.875
19674W        W92022  35.474   8.359  13.055
19675W        W92023  30.033  26.621  14.795
19676W        W92024  37.420   1.360   2.827
19677W        W92025  36.412  25.006  12.475
19678W        W92026  44.413  21.756   1.392
19679W        W92027  12.298   3.324   0.473
19680W        W92028   9.224  15.107   2.693
19681W        W92029  23.736   1.771   2.712
19682W        W92030  20.168  14.734  12.473
19683W        W92031   1.745  13.622  11.877
19684W        W92032  43.983   2.410   3.750
19685W        W92033  17.119  27.000   4.656
19686W        W92034  36.004  29.648  10.609
19687W        W92035   8.375  35.426  10.502
19688W        W92036  34.397  38.955   4.338
19689W        W92037  26.617  37.918   0.828
19690W        W92038   2.346  36.560  14.440
19691W        W92039   3.443  22.707   4.745
19692W        W92040  12.307  29.655   3.719
19693W        W92041  24.508  26.598  10.630
19694W        W92042   3.324  40.909   2.201
19695W        W92043  10.748  19.262  13.964
19696W        W92044  12.136  23.202  11.960
19697W        W92045  39.024  44.003   2.249
19698W        W92046  32.923  32.630   3.792
19699W        W92047  39.362   5.718  11.501
19700W        W92048  13.141  29.615  11.009
19701W        W92049   8.329   8.713  10.461
19702W        W92050  38.048  41.882   0.314
19703W        W92051  34.971  30.637   5.224
19704W        W92052  17.262  20.759   1.756
19705W        W92053  40.847  22.740  14.006
19706W        W92054   2.933   0.340  14.416
19707W        W92055  43.499  14.302  11.043
19708W        W92056  27.136   3.450  14.019
19709W        W92057  34.910  27.585   0.908
19710W        W92058  15.227  30.534   1.768
19711W        W92059  11.868   5.200   4.833
19712W        W92060  38.522  36.573  14.979
19713W        W92061  33.080  15.583   0.856
19714W        W92062  19.242  33.432   4.611
19715W        W92063  19.274  41.422  11.122
19716W        W92064  18.058  29.513  11.416
19717W        W92065  10.349  35.388   2.408
19718W        W92066   5.391  31.098   1.361
19719W        W92067  37.010  20.273  14.305
19720W        W92068  15.678  13.717   0.915
19721W        W92069  30.436  24.173  12.005
19722W        W92070  24.682  24.057  11.581
19723W        W92071  43.352   7.830   3.766
19724W        W92072  37.575   5.430   0.730
19725W        W92073  39.044  20.099  12.901
19726W        W92074  32.990  37.373   0.853
19727W        W92075  10.792  25.471   2.391
19728W        W92076  38.397  37.489   3.681
19729W        W92077  25.137  22.061  12.955
19730W        W92078  42.003  13.809  11.561
19731W        W92079   6.836  43.350   0.376
19732W        W92080  20.224   1.856   1.440
19733W        W92081  43.290  44.359   4.259
19734W        W92082  22.696  14.752   4.725
19735W        W92083  36.972  31.997  11.117
19736W        W92084  23.143  32.567  12.521
19737W        W92085  31.407  28.936   0.958
19738W        W92086  13.841  32.133  11.008
19739W        W92087  31.152  10.282  14.316
19740W        W92088  44.842  17.774   1.218
19741W        W92089  41.531  16.212   1.281
19742W        W92090  11.321  20.751  11.474
19743W        W92091  44.271  10.865   2.794
19744W        W92092  21.083  25.201  10.493
19745W        W92093  18.715  17.231  13.888
19746W        W92094   5.766   3.231  12.558
19747W        W92095  14.625  23.538   4.674
19748W        W92096  34.970  10.207   1.896
19749W        W92097   5.721  22.715  10.630
19750W        W92098  40.502   1.431   0.410
19751W        W92099  32.515  20.523   1.275
19752W        W92100  37.552   0.273  10.445
19753W        W92101  39.451  32.635  13.926
19754W        W92102  32.103  40.519  13.962
19755W        W92103  19.724   6.762  14.981
19756W        W92104   8.688  18.744   4.770
19757W        W92105  32.029  34.112   0.325
19758W        W92106  22.070  44.007  12.061
19759W        W92107  22.502  17.731   4.141
19760W        W92108  33.518   6.399   0.245
19761W        W92109  24.014  10.850   4.714
19762W        W92110  39.552   6.853   4.796
19763W        W92111  11.813  12.628  11.097
19764W        W92112  22.050  13.606   4.604
19765W        W92113  16.234  34.970   0.314
19766W        W92114  26.603  32.473   1.917
19767W        W92115   3.417  34.981  12.401
19768W        W92116  28.036  31.069   0.327
19769W        W92117  44.345  37.565  11.547
19770W        W92118  13.802  35.877   2.844
19771W        W92119  24.044   7.725   1.377
19772W        W92120  31.044  35.465   1.858
19773W        W92121   0.371  32.456  10.891
19774W        W92122  23.554  42.828  12.847
19775W        W92123  20.630   6.336  10.608
19776W        W92124  23.582  10.184   1.429
19777W        W92125  17.621  13.741   3.828
19778W        W92126  34.930  24.531  14.324
19779W        W92127  16.612  21.615  11.386
19780W        W92128  35.009  34.448   0.874
19781W        W92129  34.376   0.877   2.720
19782W        W92130   1.399  25.643  13.911
19783W        W92131  32.012  18.220  11.053
19784W        W92132  39.824   2.407   1.755
19785W        W92133   4.431  39.969  11.108
19786W        W92134  19.603  23.654  13.403
19787W        W92135  36.393  18.116   3.689
19788W        W92136  15.264  14.610  13.341
19789W        W92137  36.572  43.296  13.862
19790W        W92138  19.278  35.592   0.850
19791W        W92139   5.352  20.198   3.191
19792W        W92140  27.102   9.220  10.629
19793W        W92141  26.186   1.394   2.379
19794W        W92142   1.371  43.822  10.437
19795W        W92143  32.473  44.285  10.989
19796W        W92144  44.911  35.010  10.521
19797W        W92145   5.753  29.149   1.860
19798W        W92146  24.699   9.224  13.831
19799W        W92147  35.465  42.517  12.445
19800W        W92148  43.275  42.447   3.228
19801W        W92149   9.693   2.917   0.306
19802W        W92150  30.652  37.544   4.210
19803W        W92151  25.099   7.768  10.468
19804W        W92152  28.186   4.274   1.839
19805W        W92153  40.344   8.396   1.300
19806W        W92154  34.463  29.575   2.259
19807W        W92155  33.987  42.950  13.421
19808W        W92156  30.117  18.152  12.566
19809W        W92157  42.874  29.047  10.017
19810W        W92158  35.383  11.244  11.393
19811W        W92159  19.771  29.135  10.079
19812W        W92160  42.339  16.708   3.733
19813W        W92161  36.096   9.885  13.927
19814W        W92162  18.552  12.190   2.223
19815W        W92163  20.644  27.968  12.915
19816W        W92164  35.402   5.325   1.817
19817W        W92165  42.400  43.510  10.423
19818W        W92166   5.363  13.655   3.809
19819W        W92167  18.709  37.905  10.946
19820W        W92168   0.351  26.589  13.325
19821W        W92169  10.331  43.962   2.784
19822W        W92170  43.282  16.221  10.419
19823W        W92171   1.481  32.129  14.869
19824W        W92172  38.394  16.637   3.372
19825W        W92173  33.418  39.490   1.833
19826W        W92174   6.428   8.722  13.358
19827W        W92175  12.680   3.824  12.525
19828W        W92176  25.660  18.684  13.983
19829W        W92177  39.538  13.225   0.360
19830W        W92178  35.025  19.271  12.842
19831W        W92179  28.527  17.232   0.315
19832W        W92180   6.328  33.118   1.899
19833W        W92181  19.773   0.976  10.568
19834W        W92182   4.909  30.106   3.782
19835W        W92183  24.559   6.908   1.766
19836W        W92184  18.556  19.718   3.386
19837W        W92185  24.721  14.317   2.676
19838W        W92186  13.139  13.704   2.354
19839W        W92187  22.547   7.299  10.044
19840W        W92188  32.548  24.665   4.630
19841W        W92189  13.335  30.106   4.246
19842W        W92190  34.881  32.048  14.768
19843W        W92191   4.885  17.135   0.911
19844W        W92192  44.894  19.181   0.394
19845W        W92193   4.366  15.782   3.784
19846W        W92194  44.331  34.410   2.253
19847W        W92195  35.048   6.743   3.314
19848W        W92196   2.778  14.800   0.783
19849W        W92197   4.713  17.739  10.615
19850W        W92198  42.283  43.896   0.350
19851W        W92199   8.192  20.609   9.992
19852W        W92200  10.850   5.248  14.021
19853W        W92201  17.769  13.607  10.447
19854W        W92202  39.961  31.965  14.460
19855W        W92203  40.373  29.950  12.975
19856W        W92204  41.338  37.419  12.580
19857W        W92205  21.570  17.720  14.898
19858W        W92206  24.718  18.733   2.852
19859W        W92207  23.517  33.587  10.493
19860W        W92208  25.072  18.127   1.378
19861W        W92209  34.099   5.358   2.880
19862W        W92210   8.669  14.695   2.410
19863W        W92211  30.656  37.370  11.538
19864W        W92212  43.513  24.562   1.804
19865W        W92213   6.258   3.236  12.893
19866W        W92214  27.539  29.455   3.375
19867W        W92215  17.080  37.919   4.635
19868W        W92216   4.782  29.950   4.193
19869W        W92217  37.957  10.862  10.983
19870W        W92218  14.256  11.221  10.567
19871W        W92219   0.929  18.066  11.575
19872W        W92220   8.296  43.817   3.689
19873W        W92221  38.878   8.211  13.061
19874W        W92222  25.520  15.179  12.476
19875W        W92223  19.642  29.120   5.118
19876W        W92224  40.420  25.660  13.796
19877W        W92225  16.161  22.112  12.079
19878W        W92226  15.212  32.117   1.243
19879W        W92227  15.121   1.936   2.768
19880W        W92228  23.552   4.214  12.371
19881W        W92229  27.567  33.544  10.979
19882W        W92230  20.256  23.663  12.374
19883W        W92231  41.964  34.062   3.723
19884W        W92232  33.883  38.881  10.430
19885W        W92233   0.747  28.454  13.318
19886W        W92234  44.344  19.689  10.901
19887W        W92235  29.982   1.257  13.990
19888W        W92236  17.301  33.922  13.376
19889W        W92237   4.775  22.620   0.786
19890W        W92238  13.816  40.497   1.240
19891W        W92239   2.340  11.360  13.519
19892W        W92240  11.190  11.805  14.460
19893W        W92241  37.433  25.176   2.684
19894W        W92242  24.153  22.244  13.923
19895W        W92243  13.769  17.305  13.059
19896W        W92244   0.493  39.039   0.818
19897W        W92245   0.910   1.292   2.359
19898W        W92246   5.841  34.528   3.305
19899W        W92247  24.539  36.082  13.330
19900W        W92248  30.531  10.262  10.908
19901W        W92249  42.806   7.362   2.290
19902W        W92250   5.343  13.832   1.743
19903W        W92251   2.375  30.471   5.192
19904W        W92252  39.955  24.020  11.860
19905W        W92253   5.726  14.289  13.382
19906W        W92254  18.701   4.913   5.098
19907W        W92255  42.402  43.311   1.225
19908W        W92256  14.772  33.939   4.812
19909W        W92257  13.640  35.576  11.890
19910W        W92258  14.635   3.240   1.793
19911W        W92259   2.934  21.037   0.356
19912W        W92260  30.037  19.612  13.397
19913W        W92261  34.069  43.777  13.430
19914W        W92262  38.064  34.940  12.867
19915W        W92263  34.379  29.448   0.942
19916W        W92264   7.258   7.811  12.462
19917W        W92265  38.426  35.526  12.915
19918W        W92266  20.708   6.868  13.963
19919W        W92267   9.213  35.372  13.407
19920W        W92268   8.697  40.306   1.260
19921W        W92269  17.214   9.683  12.826
19922W        W92270  30.443  11.352   3.697
19923W        W92271  43.817  26.017  10.528
19924W        W92272  34.539   4.377   3.671
19925W        W92273  23.698  12.256  13.472
19926W        W92274   7.211  25.143   2.372
19927W        W92275  25.057   4.811  10.645
19928W        W92276   1.394   0.354  13.512
19929W        W92277  13.215   8.677  14.908
19930W        W92278  29.578  15.796   4.146
19931W        W92279   1.295  21.262   5.120
19932W        W92280  29.108  10.694   1.248
19933W        W92281  25.535   2.930  12.547
19934W        W92282  27.101  42.518   0.332
19935W        W92283  24.630   3.824   3.756
19936W        W92284  28.181   9.262   3.300
19937W        W92285   2.313  24.009   4.315
19938W        W92286  23.029   4.367  11.601
19939W        W92287  23.648  39.957  11.392
19940W        W92288   9.308   7.700  11.875
19941W        W92289  33.612  21.744   4.688
19942W        W92290  42.781  26.044   2.345
19943W        W92291   9.710  16.631   1.769
19944W        W92292  38.991   7.224  14.003
19945W        W92293  36.557   7.261   1.227
19946W        W92294   9.299  19.744   3.791
19947W        W92295  18.558  35.958  14.397
19948W        W92296   7.909  23.222  12.857
19949W        W92297  28.643   4.876   1.322
19950W        W92298  30.973   2.888   0.852
19951W        W92299  31.529   7.732   2.865
19952W        W92300  34.521   0.285  13.037
19953W        W92301  30.454  19.143   2.874
19954W        W92302  29.052  42.776  11.911
19955W        W92303  22.726  18.207   0.947
19956W        W92304  30.594   8.740  11.961
19957W        W92305  10.874  39.347   4.638
19958W        W92306  12.763   0.469   4.691
19959W        W92307  29.958  35.579  12.927
19960W        W92308   2.806  14.160   2.720
19961W        W92309  27.084  33.458   9.987
19962W        W92310   5.880  20.525  13.357
19963W        W92311  23.046  16.262   0.747
19964W        W92312  36.406   9.363   2.214
19965W        W92313  32.569  10.292  10.435
19966W        W92314  33.568   3.285   4.699
19967W        W92315  30.555  44.379  11.381
19968W        W92316  30.475  28.135   4.266
19969W        W92317  18.139  23.213   2.790
19970W        W92318  22.597  13.704  14.386
19971W        W92319  25.581  24.123   4.305
19972W        W92320  15.148  11.370   2.337
19973W        W92321  21.619  43.957   0.898
19974W        W92322  34.048  14.097   4.752
19975W        W92323  23.215   1.283   4.613
19976W        W92324  15.702  36.561   0.482
19977W        W92325  24.224   7.385  13.835
19978W        W92326  19.578  16.311   3.223
19979W        W92327  43.948  35.440  10.498
19980W        W92328  41.885  11.691  12.900
19981W        W92329   8.687  15.167   1.235
19982W        W92330  35.886  24.635  11.122
19983W        W92331  44.435  10.212   1.793
19984W        W92332  38.898   0.792  11.590
19985W        W92333  33.536   9.199  14.776
19986W        W92334  14.820  43.296  13.818
19987W        W92335  22.081  17.305  14.389
19988W        W92336  42.478  33.071   4.838
19989W        W92337  43.401  10.272   3.376
19990W        W92338  32.599  19.112  13.847
19991W        W92339  34.378  30.911  11.856
19992W        W92340   0.806  43.837  14.326
19993W        W92341   9.759  31.590   0.751
19994W        W92342  15.740  33.479  12.021
19995W        W92343  38.437  14.280  14.025
19996W        W92344  27.648  30.922   3.751
19997W        W92345  43.922   4.225  10.591
19998W        W92346   5.816   3.292   4.286
19999W        W92347  10.262  26.572   2.723
20000W        W92348  32.459   9.390   1.286
20001W        W92349  35.879  38.946   3.344
20002W        W92350   0.431  34.490   2.362
20003W        W92351  43.486  20.169  12.988
20004W        W92352   7.701  14.320  13.504
20005W        W92353  31.633  42.469  12.981
20006W        W92354  19.649  15.630   2.246
20007W        W92355   5.762  39.343  10.441
20008W        W92356  39.871  30.595   3.359
20009W        W92357  10.815  35.108   0.808
20010W        W92358  36.460  43.904   4.319
20011W        W92359  33.583  44.350  13.949
20012W        W92360   7.845  21.038  12.388
20013W        W92361   1.936  38.042   5.190
20014W        W92362  12.270  26.101  11.387
20015W        W92363  22.650  36.909  11.925
20016W        W92364  16.095  40.000  13.326
20017W        W92365   7.386   6.418  11.473
20018W        W92366  12.626  26.608   4.236
20019W        W92367  17.600  41.951  14.786
20020W        W92368  19.130  37.531   2.838
20021W        W92369  12.629  27.137  13.361
20022W        W92370  15.758  31.942  11.437
20023W        W92371  17.212  42.821   5.188
20024W        W92372  12.360  33.401  14.961
20025W        W92373  35.926  24.595  12.943
20026W        W92374  26.066  23.101  10.537
20027W        W92375  19.712  27.098   4.603
20028W        W92376  40.909  33.948  13.314
20029W        W92377  14.718   5.271   4.703
20030W        W92378  39.365   5.890   4.213
20031W        W92379  11.753  41.036   0.811
20032W        W92380  31.581  22.584  10.619
20033W        W92381   5.240  18.559   3.734
20034W        W92382  29.061   8.837   3.166
20035W        W92383  32.528  26.042  13.918
20036W        W92384  38.356  25.517  12.465
20037W        W92385  21.034  41.349   0.386
20038W        W92386  32.937  39.974  14.950
20039W        W92387  40.868   0.378  12.985
20040W        W92388  43.287  26.589  13.336
20041W        W92389  26.017  16.606  12.500
20042W        W92390  19.762  18.125   4.226
20043W        W92391  35.964  38.540   2.362
20044W        W92392  36.510  40.306  13.432
20045W        W92393  12.131  39.918   4.739
20046W        W92394  12.626  15.594  10.567
20047W        W92395  18.286  27.974  14.878
20048W        W92396  24.107   2.727   2.847
20049W        W92397  31.950   1.744  14.975
20050W        W92398  31.553   2.427  10.553
20051W        W92399  19.126   2.819   3.712
20052W        W92400  17.588   4.251   3.272
20053W        W92401  32.463  30.571  14.014
20054W        W92402   1.402  13.765  10.587
20055W        W92403  26.610  35.557  13.513
20056W        W92404  15.581  11.856   3.261
20057W        W92405   7.252   8.872  11.461
20058W        W92406   3.756   3.458   4.683
20059W        W92407  15.100  25.138   0.419
20060W        W92408  22.244  23.605  14.380
20061W        W92409  34.878  30.986  14.933
20062W        W92410   9.775   4.376   3.321
20063W        W92411  31.117  35.994   1.451
20064W        W92412  28.117  29.632   0.362
20065W        W92413  35.526  27.170  10.449
20066W        W92414  13.653  11.360  14.463
20067W        W92415   9.662  10.796  12.043
20068W        W92416   7.771  26.603   4.728
20069W        W92417  26.465  21.696   1.717
20070W        W92418   4.395   5.757   1.935
20071W        W92419  35.385   9.389  14.401
20072W        W92420  23.644  18.051  13.822
20073W        W92421  44.843  16.678   0.740
20074W        W92422  10.198  41.887   3.311
20075W        W92423  34.882  43.327  10.443
20076W        W92424  38.391  44.875   2.373
20077W        W92425  19.773  41.452   1.266
20078W        W92426  38.034  36.515  10.585
20079W        W92427  41.307   8.399   1.886
20080W        W92428  16.776  16.211   1.342
20081W        W92429  29.965  11.845  14.970
20082W        W92430  25.052  18.240  10.611
20083W        W92431  44.784  20.090  11.970
20084W        W92432  27.008  35.421   4.136
20085W        W92433   8.169  35.436  11.482
20086W        W92434  27.454  41.328   2.178
20087W        W92435  19.657  21.717   4.741
20088W        W92436  29.096   5.413  13.897
20089W        W92437  14.284   4.275   1.855
20090W        W92438   5.925  30.946  12.401
20091W        W92439  25.597   9.259   0.329
20092W        W92440  35.494  38.024   3.712
20093W        W92441  41.498  21.107  14.366
20094W        W92442  26.190  24.203  14.889
20095W        W92443  26.208  33.952   4.127
20096W        W92444  29.621  18.758  13.361
20097W        W92445  29.036   3.359  11.096
20098W        W92446   0.972  17.145  13.025
20099W        W92447  42.400  24.152   0.307
20100W        W92448  19.753  26.470   1.349
20101W        W92449  17.600  39.891  11.558
20102W        W92450  19.240  43.350   1.919
20103W        W92451  23.202   8.300   3.840
20104W        W92452  42.899  42.369  11.981
20105W        W92453  34.390  31.925  11.399
20106W        W92454  41.960  11.841   0.768
20107W        W92455  28.025  25.610   4.350
20108W        W92456   4.432   2.229   3.820
20109W        W92457   4.389  21.563   3.642
20110W        W92458  31.482  11.678   2.257
20111W        W92459  41.919  33.929  11.400
20112W        W92460  27.539   2.249  14.862
20113W        W92461  27.959  18.721   0.291
20114W        W92462  37.959   6.864   3.168
20115W        W92463  29.451  11.835   5.193
20116W        W92464  28.134  43.439  13.849
20117W        W92465  21.109   8.715   2.251
20118W        W92466  14.301   1.309   3.777
20119W        W92467   5.839  10.232  12.083
20120W        W92468  30.627   8.403  14.002
20121W        W92469  19.560  17.802   3.845
20122W        W92470  13.709   4.849  13.403
20123W        W92471  43.872  28.100  12.974
20124W        W92472  44.423  13.178   3.825
20125W        W92473  10.780   7.894   3.664
20126W        W92474  40.304  20.719  13.957
20127W        W92475  33.087   5.728   3.715
20128W        W92476  24.170  15.796  14.303
20129W        W92477   6.819  23.079   4.117
20130W        W92478  28.599  28.527   1.717
20131W        W92479   9.662   0.770  11.868
20132W        W92480   7.797  21.614   0.898
20133W        W92481   2.758  21.713   2.229
20134W        W92482  34.379  40.410   0.250
20135W        W92483   2.758  16.251   4.136
20136W        W92484  38.974  41.914  13.491
20137W        W92485  11.302  44.802   2.800
20138W        W92486  29.540  43.314  12.399
20139W        W92487  14.770   2.731  13.506
20140W        W92488  39.545  42.888   3.670
20141W        W92489  36.433  41.002  10.412
20142W        W92490  34.895   9.210   1.780
20143W        W92491  23.498   2.328  13.490
20144W        W92492  30.434  24.722   4.711
20145W        W92493  38.414  14.280  11.466
20146W        W92494  10.705  25.563   1.919
20147W        W92495  44.321   9.735   2.673
20148W        W92496   5.826  30.911   4.723
20149W        W92497   5.250  23.511   4.183
20150W        W92498  24.981  44.003  11.024
20151W        W92499  23.593  32.085   1.348
20152W        W92500   0.935  40.460   1.442
20153W        W92501  37.392  13.610   2.351
20154W        W92502  11.306  22.238   5.197
20155W        W92503  39.022  18.548  13.809
20156W        W92504  36.446  28.459   1.783
20157W        W92505  26.182  35.484  11.537
20158W        W92506  25.666  25.081   4.182
20159W        W92507  16.613  41.008   0.308
20160W        W92508  25.554  17.723  14.997
20161W        W92509  29.471  13.783  11.050
20162W        W92510  19.558  13.794   2.255
20163W        W92511  38.904  17.738   0.780
20164W        W92512  10.703  34.049  13.479
20165W        W92513  20.116   9.340   0.908
20166W        W92514   7.193  42.304  12.870
20167W        W92515   0.880  27.971  13.815
20168W        W92516  23.500  22.147  11.871
20169W        W92517   9.290  23.540  13.804
20170W        W92518  16.627  18.711  10.924
20171W        W92519  22.065  17.593   3.706
20172W        W92520  31.937   7.896   4.802
20173W        W92521  25.120  26.698  10.043
20174W        W92522   4.943   8.214   1.935
20175W        W92523   1.797  37.373   4.605
20176W        W92524  29.170  40.031  13.529
20177W        W92525   0.443  13.811  14.407
20178W        W92526  24.632  13.145   2.881
20179W        W92527  26.098  25.522  12.876
20180W        W92528   1.336   4.449   4.658
20181W        W92529  34.588  11.177   2.379
20182W        W92530   9.338  18.755  12.024
20183W        W92531  31.039  32.939  10.416
20184W        W92532  36.941  27.490   0.879
20185W        W92533  44.402  40.337   4.165
20186W        W92534   0.888  33.429   2.285
20187W        W92535  34.517  22.549   3.691
20188W        W92536   2.753  20.190   1.286
20189W        W92537  21.527  29.447  13.439
20190W        W92538  27.971  22.578   3.167
20191W        W92539  20.032  18.058  13.446
20192W        W92540  28.946  22.522   3.844
20193W        W92541  35.464   5.433  10.467
20194W        W92542  21.080  14.597   1.246
20195W        W92543  22.518  11.372   4.653
20196W        W92544   1.739  11.657  14.853
20197W        W92545   7.272  36.925  12.867
20198W        W92546  33.420  44.921   2.866
20199W        W92547  12.726   9.824  12.079
20200W        W92548  42.376  17.658   4.312
20201W        W92549  32.396  41.462   0.462
20202W        W92550  17.765  42.420   0.368
20203W        W92551  20.217  34.475   3.636
20204W        W92552  12.203  39.525   4.717
20205W        W92553   6.351  25.498  11.556
20206W        W92554  39.960  20.227   0.394
20207W        W92555   3.886  33.000  14.029
20208W        W92556   6.853   2.889   1.306
20209W        W92557  36.070  17.155  11.966
20210W        W92558  20.119  34.902  14.006
20211W        W92559  28.609  27.020   1.842
20212W        W92560  16.571   2.267   3.201
20213W        W92561   2.790  19.730   1.730
20214W        W92562  44.452  39.920   4.304
20215W        W92563  13.322   2.322  12.579
20216W        W92564   2.359  13.206  10.634
20217W        W92565  16.194  16.193  14.440
20218W        W92566  16.283  10.284  11.044
20219W        W92567  12.249   3.776  13.973
20220W        W92568   5.733  31.955  13.401
20221W        W92569  22.076  36.450   3.205
20222W        W92570  40.876  10.346   1.706
20223W        W92571   0.959   6.266  13.439
20224W        W92572  19.089   0.410  11.580
20225W        W92573  18.053  31.078  10.609
20226W        W92574  25.043  31.099  12.940
20227W        W92575  26.094  43.462   2.683
20228W        W92576  13.127  21.562  14.883
20229W        W92577   8.368   3.744  13.528
20230W        W92578  36.554   6.755   4.618
20231W        W92579   2.298  34.902  11.372
20232W        W92580  15.157   2.907  11.426
20233W        W92581  27.453   3.948   2.873
20234W        W92582  27.456  22.718  10.899
20235W        W92583  32.414  37.012  14.499
20236W        W92584  14.238  15.093   0.337
20237W        W92585  40.976  26.156   1.366
20238W        W92586  20.562  40.862  14.968
20239W        W92587   5.746   4.246   4.676
20240W        W92588   1.300   6.326  14.407
20241W        W92589  34.598  24.194  12.347
20242W        W92590  26.506  10.862   3.231
20243W        W92591  38.530   9.182   4.751
20244W        W92592  22.113  26.610  14.943
20245W        W92593  34.485  19.737  14.303
20246W        W92594  42.513  37.421   0.279
20247W        W92595  30.990  23.133   2.272
20248W        W92596  43.359  35.895   2.895
20249W        W92597  43.276  17.798   2.892
20250W        W92598  38.975  36.409  14.800
20251W        W92599   3.844  37.022   3.194
20252W        W92600  23.505   0.350  10.996
20253W        W92601  27.565  37.993  14.838
20254W        W92602  16.244  11.222  12.093
20255W        W92603  34.062  20.576  13.856
20256W        W92604   1.781  33.114  11.499
20257W        W92605  21.567  40.970   2.237
20258W        W92606  33.585  36.977   9.999
20259W        W92607  24.994   4.210  13.375
20260W        W92608   6.270  12.741  10.628
20261W        W92609  34.976  22.621   5.258
20262W        W92610  32.057  35.542  10.950
20263W        W92611  44.463   1.757   3.298
20264W        W92612  43.910   1.283  13.010
20265W        W92613  26.514  42.816  10.087
20266W        W92614  32.077  24.579   4.680
20267W        W92615  34.411  44.803   1.899
20268W        W92616  39.030   5.793  10.945
20269W        W92617  32.965  29.548  12.525
20270W        W92618  43.332  18.622   3.273
20271W        W92619  17.105  31.111   1.815
20272W        W92620  25.979  10.841   3.747
20273W        W92621  15.730  37.899   2.869
20274W        W92622  28.512  14.313   3.285
20275W        W92623  29.542  12.771  10.998
20276W        W92624  25.968   3.427   3.352
20277W        W92625  42.945   9.260  11.975
20278W        W92626   9.643  26.956   3.854
20279W        W92627  10.160  21.714   4.168
20280W        W92628   0.404   3.231  13.014
20281W        W92629  44.306  26.665  11.549
20282W        W92630  28.569  42.864  11.020
20283W        W92631   2.738  10.718   3.373
20284W        W92632   7.903  16.641   4.660
20285W        W92633   5.745  20.562   1.904
20286W        W92634  38.545  12.166   1.350
20287W        W92635  21.253  28.510   1.817
20288W        W92636  36.369  14.686   1.253
20289W        W92637  14.255  27.044   1.825
20290W        W92638  15.580   3.733   4.337
20291W        W92639  42.847  42.919  13.974
20292W        W92640  42.952  24.021  14.374
20293W        W92641  28.081  19.563  14.324
20294W        W92642  37.963   8.667  10.591
20295W        W92643  35.377  29.496  14.326
20296W        W92644  36.897   2.860  13.329
20297W        W92645   8.333  13.599   4.245
20298W        W92646   2.252  11.736  11.547
20299W        W92647  27.081  10.383   0.271
20300W        W92648  12.695  38.934  12.401
20301W        W92649   9.174   4.308  13.003
20302W        W92650  18.068  20.650  13.474
20303W        W92651  14.304  11.297   1.236
20304W        W92652  21.543  32.932  11.982
20305W        W92653  13.342  36.073   2.883
20306W        W92654   9.340  16.737  11.957
20307W        W92655  12.727  27.127  10.985
20308W        W92656  17.746  17.650  13.384
20309W        W92657  28.522   6.849   0.779
20310W        W92658  20.622  31.566   4.269
20311W        W92659   4.377   1.976  12.439
20312W        W92660  44.845   0.907   0.259
20313W        W92661  28.053   9.161  13.849
20314W        W92662  38.030   3.336   5.285
20315W        W92663  27.589  24.506   2.337
20316W        W92664  27.676  22.182   1.235
20317W        W92665  13.798  39.326  10.548
20318W        W92666  15.143  36.354   3.223
20319W        W92667  38.040  29.450  12.577
20320W        W92668  10.863  21.128  13.435
20321W        W92669  43.020  35.384  11.968
20322W        W92670  11.303  21.644   3.215
20323W        W92671   3.319  23.196   1.766
20324W        W92672  25.475   8.681   5.617
20325W        W92673   8.349   3.891   2.738
20326W        W92674   1.399  12.144  14.774
20327W        W92675  33.961  28.039  11.057
20328W        W92676   5.269   1.965   2.770
20329W        W92677  32.024  19.094  12.551
20330W        W92678  40.804  25.024   4.752
20331W        W92679  19.712  38.980   5.152
20332W        W92680   6.772   5.843  14.509
20333W        W92681  29.948  26.128   1.882
20334W        W92682   2.346   4.787   1.805
20335W        W92683   6.915   5.741   1.905
20336W        W92684   6.844  44.339   3.214
20337W        W92685  18.752  16.603   2.238
20338W        W92686   2.930  25.047  12.929
20339W        W92687  39.464  16.174  12.561
20340W        W92688  13.331   8.317  13.448
20341W        W92689  12.717   1.308   2.263
20342W        W92690  11.176   5.723   4.271
20343W        W92691  13.686  26.576  14.460
20344W        W92692   5.243   2.286  11.022
20345W        W92693  15.159  28.958  14.389
20346W        W92694  23.116   2.277   1.414
20347W        W92695  34.601  38.566  14.328
20348W        W92696  35.405  15.217  14.505
20349W        W92697  20.545  10.735   4.666
20350W        W92698  16.687  26.526  13.361
20351W        W92699  40.049  13.805  10.495
20352W        W92700   9.883  32.124  11.406
20353W        W92701  31.415   8.354   0.764
20354W        W92702  18.221  15.654  11.385
20355W        W92703  42.968  40.481  14.398
20356W        W92704  40.823  28.627  11.010
20357W        W92705  18.133  21.131   1.747
20358W        W92706  43.421  37.049   3.847
20359W        W92707   2.747  31.451  14.512
20360W        W92708  36.906  28.936   4.675
20361W        W92709  44.303  10.871   3.708
20362W        W92710  25.680  30.987   1.283
20363W        W92711  15.599   8.202  14.811
20364W        W92712   2.370   9.747  11.386
20365W        W92713   0.251   5.399   1.414
20366W        W92714  27.980  20.159   0.839
20367W        W92715  33.023  15.586  14.333
20368W        W92716   4.852   7.751   4.185
20369W        W92717  15.148  17.587  14.494
20370W        W92718   1.454  11.858   2.818
20371W        W92719  42.964   4.398  12.984
20372W        W92720  34.054  12.349   1.329
20373W        W92721   6.773  19.225  12.479
20374W        W92722  36.906  25.098  12.051
20375W        W92723   6.875  18.721  11.605
20376W        W92724   8.266  28.672  12.345
20377W        W92725  22.080   4.799  14.488
20378W        W92726  16.601  39.887   1.294
20379W        W92727  34.439  15.646  10.890
20380W        W92728   3.240  26.082  11.077
20381W        W92729  38.991  17.724   1.818
20382W        W92730  18.632  29.532   3.314
20383W        W92731   9.784  34.423   3.639
20384W        W92732  34.526  32.981  11.519
20385W        W92733  37.942  13.121  11.017
20386W        W92734  22.126  37.548  14.274
20387W        W92735   3.261  41.295  13.849
20388W        W92736  32.142   2.847   4.719
20389W        W92737  30.582  21.191   2.788
20390W        W92738   9.241  14.684  14.365
20391W        W92739  21.140  35.067  13.790
20392W        W92740  18.717  14.640   3.355
20393W        W92741  33.936  28.534  14.298
20394W        W92742  34.470  32.607   4.204
20395W        W92743  23.530   4.892   2.286
20396W        W92744  29.582  36.891   1.787
20397W        W92745  17.716  37.069  11.558
20398W        W92746  21.595   8.289  12.005
20399W        W92747  31.977   5.838   2.240
20400W        W92748  30.529  19.734   2.883
20401W        W92749  33.106   5.364   9.493
20402W        W92750  33.610  36.520  12.522
20403W        W92751  42.302  29.156  14.981
20404W        W92752   6.260  16.143  12.434
20405W        W92753  12.829  24.579   4.698
20406W        W92754   7.262  17.749  14.928
20407W        W92755  34.453  14.810   4.836
20408W        W92756   3.809  30.489  13.432
20409W        W92757  40.015  24.647   4.619
20410W        W92758  44.920  14.710  12.347
20411W        W92759   1.731   4.733  12.946
20412W        W92760  14.264  14.233  11.986
20413W        W92761  18.687  31.557  14.809
20414W        W92762  36.977  19.552   3.257
20415W        W92763   8.217  36.504   2.703
20416W        W92764  42.977  36.945   3.767
20417W        W92765  18.236  34.536   0.409
20418W        W92766  29.568  28.144  14.504
20419W        W92767   7.900   2.307  14.499
20420W        W92768  41.532   6.709   1.771
20421W        W92769   5.241  32.577   1.325
20422W        W92770  21.514  37.952  11.939
20423W        W92771  34.950  20.575   5.787
20424W        W92772  11.323  17.779  10.904
20425W        W92773   4.268  17.285  12.389
20426W        W92774   2.353  39.825  14.916
20427W        W92775  39.549   7.241  12.868
20428W        W92776  29.162   3.772  11.070
20429W        W92777  26.026  31.463   1.231
20430W        W92778   8.189  32.119  13.889
20431W        W92779  28.050  18.164   3.640
20432W        W92780  22.227  35.020   4.749
20433W        W92781  16.174   6.855   3.196
20434W        W92782  38.896   0.479  12.866
20435W        W92783  14.140  30.636   0.266
20436W        W92784  16.095  21.124   0.758
20437W        W92785   2.908  19.545   0.342
20438W        W92786  30.068  18.676  12.859
20439W        W92787  43.800  13.157  12.432
20440W        W92788  21.248  20.253   1.424
20441W        W92789  20.180  28.537   4.646
20442W        W92790   1.943  44.271   1.325
20443W        W92791  24.129   3.916  10.536
20444W        W92792  43.498  36.391   2.345
20445W        W92793  20.760  29.051   3.337
20446W        W92794  41.796  42.984  12.891
20447W        W92795   5.254   2.767  10.597
20448W        W92796   3.909  11.332  14.456
20449W        W92797   1.388   9.203   2.192
20450W        W92798  24.594  32.908  11.919
20451W        W92799  23.529   6.223   4.320
20452W        W92800  35.391  19.681  12.363
20453W        W92801  36.088  11.219   2.235
20454W        W92802  30.011  21.562   1.220
20455W        W92803  39.350  31.071   4.278
20456W        W92804  20.117  27.179  10.551
20457W        W92805  14.326  37.951  14.841
20458W        W92806  12.804  32.895  12.512
20459W        W92807  37.045  44.754  11.532
20460W        W92808  44.366  13.767  11.467
20461W        W92809  30.927   4.414   4.239
20462W        W92810   5.288   2.918  12.417
20463W        W92811   0.256   2.896  12.371
20464W        W92812   3.399  18.219   0.272
20465W        W92813  25.566   0.441   2.770
20466W        W92814  28.964  33.595  13.482
20467W        W92815  35.472  10.333   2.269
20468W        W92816  28.034  28.996  14.295
20469W        W92817  35.889   1.791  12.418
20470W        W92818  11.674   8.772  10.558
20471W        W92819  11.182  17.069   0.917
20472W        W92820  43.000  18.193   0.823
20473W        W92821   1.266   4.253   0.939
20474W        W92822   5.266  25.121  14.922
20475W        W92823   0.800  27.030   1.340
20476W        W92824  44.286   5.336  11.390
20477W        W92825  36.560   1.930  14.432
20478W        W92826   9.382  29.973   0.317
20479W        W92827  44.379   6.397  12.403
20480W        W92828  38.840   7.291   3.243
20481W        W92829   5.788  30.913  13.819
20482W        W92830  42.495   7.755   1.773
20483W        W92831   3.416  18.099  13.043
20484W        W92832  21.723  39.020   1.271
20485W        W92833  29.083   3.452  13.510
20486W        W92834  41.345  33.107  13.389
20487W        W92835   8.678  22.072  14.451
20488W        W92836  33.402  26.987   2.411
20489W        W92837  24.708   6.745  12.396
20490W        W92838  31.608   2.904   0.281
20491W        W92839  35.103  34.590   5.101
20492W        W92840  29.106  24.996  13.869
20493W        W92841  16.618  38.482  12.915
20494W        W92842   3.945  14.825   2.339
20495W        W92843   4.348  22.545  14.880
20496W        W92844  15.300  19.275  12.838
20497W        W92845  36.446  11.622  14.475
20498W        W92846  40.806  40.512  14.489
20499W        W92847  22.095  20.116  11.433
20500W        W92848  26.487  31.123   4.639
20501W        W92849  22.683  42.023  10.633
20502W        W92850  42.967  24.614   1.277
20503W        W92851  29.079  36.461   3.636
20504W        W92852   0.265  21.687  12.515
20505W        W92853   4.819   1.884  11.035
20506W        W92854  34.972  14.824  14.818
20507W        W92855  21.082   7.337   3.862
20508W        W92856  39.478  21.685  12.087
20509W        W92857  40.538  26.522   0.773
20510W        W92858   8.235  20.129  12.405
20511W        W92859   7.837  19.089  11.027
20512W        W92860  27.666  16.695  13.872
20513W        W92861   6.200   0.485  12.056
20514W        W92862  13.633  42.331   2.885
20515W        W92863  30.587  37.385   3.237
20516W        W92864  17.656  11.673  12.569
20517W        W92865  20.579  13.129  10.508
20518W        W92866  10.642   5.365   2.388
20519W        W92867  23.124   8.305   1.368
20520W        W92868  27.491  34.864  14.318
20521W        W92869  35.417  10.372  13.420
20522W        W92870  33.946  13.661   4.727
20523W        W92871  33.999   6.193  11.418
20524W        W92872  13.339  40.414  12.992
20525W        W92873   4.353  23.200   2.669
20526W        W92874  10.248  22.548   1.234
20527W        W92875  36.359  24.158   2.775
20528W        W92876  36.951  39.536  14.285
20529W        W92877   7.217  41.946  10.593
20530W        W92878   7.849  37.869   4.795
20531W        W92879  23.199  22.034   0.271
20532W        W92880  39.425  26.535   0.951
20533W        W92881  39.481  25.661  10.640
20534W        W92882  44.941  26.117   4.722
20535W        W92883  42.354  29.994  13.516
20536W        W92884   7.911  18.180   1.314
20537W        W92885  34.918  14.689  12.497
20538W        W92886   7.900  33.390  13.498
20539W        W92887   5.313  17.573   2.239
20540W        W92888   0.311   7.246  13.917
20541W        W92889   2.750  32.001  12.542
20542W        W92890  34.012  31.974   1.883
20543W        W92891  43.338   3.253  14.934
20544W        W92892   4.822   6.251   4.778
20545W        W92893   6.914  21.056  14.460
20546W        W92894  24.006  34.391   5.322
20547W        W92895  22.236  21.041   0.375
20548W        W92896  10.795  11.864   0.733
20549W        W92897   4.831  12.282   4.288
20550W        W92898  33.555  25.571  10.988
20551W        W92899  30.438  15.646   4.285
20552W        W92900  32.897  19.747  12.369
20553W        W92901  33.111  11.181   3.714
20554W        W92902  17.251  12.736   4.739
20555W        W92903  12.229   6.219  13.475
20556W        W92904  35.401  38.900   1.415
20557W        W92905  18.104  44.394   3.770
20558W        W92906  19.129   1.398  10.555
20559W        W92907   7.796  36.900   0.949
20560W        W92908  43.516  13.740   0.266
20561W        W92909   5.866  29.935  10.459
20562W        W92910  42.426  18.168   2.249
20563W        W92911  19.256  28.481   0.966
20564W        W92912  19.100  26.083   2.361
20565W        W92913  10.291  25.561   4.284
20566W        W92914  25.516  17.207  11.472
20567W        W92915  26.015  43.921  14.320
20568W        W92916  31.091  18.053   1.390
20569W        W92917  39.868  28.586  12.865
20570W        W92918  34.107  20.764   2.805
20571W        W92919  17.742  14.602   5.199
20572W        W92920  20.112  36.478   4.702
20573W        W92921  27.990  39.978   1.355
20574W        W92922   9.349   0.298   2.328
20575W        W92923  39.455   0.484   2.353
20576W        W92924   9.363  32.926   4.346
20577W        W92925  27.167  19.570   4.626
20578W        W92926  23.000  41.821   3.734
20579W        W92927  42.517  40.308   0.247
20580W        W92928  35.528  20.590   4.202
20581W        W92929   0.430  16.588  13.821
20582W        W92930  31.926  42.852  14.903
20583W        W92931  11.622  18.163  11.121
20584W        W92932  39.025  22.043   0.842
20585W        W92933  12.292  32.137   4.189
20586W        W92934  26.963   6.870  14.915
20587W        W92935  27.573  17.785  11.418
20588W        W92936  37.920  25.491  12.462
20589W        W92937  27.549  40.516   4.651
20590W        W92938  37.054  25.003  11.424
20591W        W92939  35.878  38.922  14.890
20592W        W92940  10.210  28.012   2.887
20593W        W92941  24.034  15.589  13.061
20594W        W92942  10.371   3.801   3.647
20595W        W92943  40.849  28.073   4.723
20596W        W92944   9.848  41.461   1.770
20597W        W92945  25.541  17.750   0.849
20598W        W92946  16.162  12.189   3.688
20599W        W92947  40.894  44.758   3.355
20600W        W92948  31.994  30.107   3.179
20601W        W92949  34.043   2.733  14.328
20602W        W92950  39.829  26.549   2.811
20603W        W92951  39.546  40.335   0.376
20604W        W92952   9.789  19.704   5.240
20605W        W92953  24.129  32.580  13.323
20606W        W92954  37.025  25.483   1.398
20607W        W92955  31.032  15.682   3.221
20608W        W92956  43.384   0.311   0.799
20609W        W92957  14.793  26.101   1.357
20610W        W92958  40.365  33.941   0.395
20611W        W92959  13.131  12.667   4.184
20612W        W92960  20.055   0.278   3.646
20613W        W92961  38.846  14.603  12.043
20614W        W92962  28.984  28.019   4.764
20615W        W92963  11.816  10.754  12.004
20616W        W92964   3.926  21.094  14.377
20617W        W92965  19.622  34.539   3.815
20618W        W92966   5.358  39.531  10.529
20619W        W92967  11.347   9.315   4.818
20620W        W92968  12.790  21.044   1.400
20621W        W92969  32.483   0.784   4.253
20622W        W92970  24.626  31.999  12.458
20623W        W92971  29.591  41.535   3.212
20624W        W92972  25.112   6.357  10.631
20625W        W92973   1.962  10.383  13.513
20626W        W92974  12.278  32.994  10.948
20627W        W92975   2.461  30.061  10.413
20628W        W92976  11.271  41.481   2.770
20629W        W92977  32.584   8.211   9.949
20630W        W92978  21.652  26.658  14.980
20631W        W92979  39.951   1.244   0.317
20632W        W92980  10.848  14.317  10.536
20633W        W92981  39.973   1.309   4.772
20634W        W92982  23.518  30.638   2.414
20635W        W92983   2.890  25.503  13.383
20636W        W92984  39.930  14.181  11.411
20637W        W92985  43.933   8.863  10.602
20638W        W92986  35.514  10.214   3.677
20639W        W92987  43.311  32.075   3.219
20640W        W92988  36.500  18.211   2.692
20641W        W92989  29.171  15.683   4.284
20642W        W92990  25.629  36.488  13.899
20643W        W92991  42.986  11.226  14.312
20644W        W92992  16.806   8.717   3.363
20645W        W92993  20.598  40.412   2.195
20646W        W92994  34.029   9.666  10.528
20647W        W92995  23.655  42.307  11.589
20648W        W92996  30.455   6.426   3.293
20649W        W92997   6.297  15.182   3.710
20650W        W92998  32.077   2.226   4.672
20651W        W92999  23.082  41.518   3.239
20652W        W93000  23.061  20.610  12.495
20653W        W93001  32.985  22.509  14.386
20654W        W93002  27.510  29.165   3.831
20655W        W93003  39.533   0.373   0.807
20656W        W93004   0.322  14.766  11.859
20657W        W93005  29.537   6.326  12.392
20658W        W93006  40.387  33.418  10.580
20659W        W93007  31.986  17.763  13.500
20660W        W93008  33.391  31.026  13.048
20661W        W93009  36.426  27.182   4.165
20662W        W93010  35.932   3.223   3.747
20663W        W93011  22.504   5.270  12.839
20664W        W93012  38.019  39.895   3.746
20665W        W93013   9.655  29.944  13.540
20666W        W93014  33.053  43.308   4.133
20667W        W93015  28.129  34.049  11.519
20668W        W93016  43.326  11.835  12.941
20669W        W93017  31.041  30.944   3.742
20670W        W93018  27.994  15.234  13.821
20671W        W93019  14.234  22.233   0.467
20672W        W93020  27.546  19.599   0.761
20673W        W93021  26.037  27.014   0.431
20674W        W93022  23.188  23.490  11.530
20675W        W93023  41.443  11.250  14.769
20676W        W93024   3.837  12.327   2.765
20677W        W93025  37.547  35.462  12.876
20678W        W93026  21.159   4.305   0.889
20679W        W93027   0.888  25.693  10.513
20680W        W93028   8.734  38.010   1.266
20681W        W93029  22.012   4.238   3.730
20682W        W93030  27.489  11.257  12.409
20683W        W93031  37.374   8.737  13.425
20684W        W93032  33.947  16.652   0.314
20685W        W93033  17.689  30.128   3.868
20686W        W93034   6.190  37.384   4.637
20687W        W93035  40.320  44.760  13.974
20688W        W93036  36.043   5.871   2.319
20689W        W93037  16.201  37.542  11.054
20690W        W93038  40.513  25.612   1.413
20691W        W93039  36.026  38.376   4.698
20692W        W93040  12.706  30.607  10.579
20693W        W93041  42.775  41.946   3.375
20694W        W93042   5.826  25.470   1.315
20695W        W93043  44.266  17.166   1.253
20696W        W93044  26.508  23.733  14.898
20697W        W93045   5.241  18.138   0.808
20698W        W93046   3.249  15.802  14.328
20699W        W93047   4.876  33.955  13.480
20700W        W93048  40.028   2.343   4.289
20701W        W93049  37.966  38.932  12.878
20702W        W93050  12.203  13.246   4.271
20703W        W93051   9.248  11.794   3.772
20704W        W93052  18.246  23.121   4.299
20705W        W93053  23.010   5.251   0.405
20706W        W93054   5.786  35.070   2.728
20707W        W93055   0.749  40.359  14.362
20708W        W93056  16.597   6.900  12.914
20709W        W93057  10.687  13.719   1.303
20710W        W93058  16.741  33.394   0.324
20711W        W93059  11.868  27.002   4.143
20712W        W93060  11.231  20.724  10.918
20713W        W93061  19.228  28.040   1.390
20714W        W93062   6.399  23.049  10.544
20715W        W93063  27.507  24.603  14.290
20716W        W93064   9.333  15.731  13.308
20717W        W93065  15.112   7.752  14.285
20718W        W93066   8.175  33.383   1.241
20719W        W93067  10.844   0.273  11.960
20720W        W93068  42.316  27.621  11.411
20721W        W93069   4.447  37.360  11.572
20722W        W93070  20.593  15.620   3.720
20723W        W93071  30.989   3.878   0.318
20724W        W93072   1.894  24.204   0.920
20725W        W93073  42.505  30.991   1.356
20726W        W93074  37.885  21.518  13.395
20727W        W93075  32.603  18.668   3.714
20728W        W93076  17.729  31.568  11.418
20729W        W93077  25.500   2.822  12.016
20730W        W93078  38.848  10.204   2.889
20731W        W93079   7.317  34.017   0.256
20732W        W93080  43.488  32.123   4.181
20733W        W93081  35.506   0.362   4.215
20734W        W93082  19.630  17.225   3.681
20735W        W93083   6.258  28.610   4.274
20736W        W93084  41.029  43.412   0.923
20737W        W93085  28.501  35.465   3.377
20738W        W93086   4.374  29.084   2.826
20739W        W93087  15.707  39.323  13.029
20740W        W93088  31.935  36.353   1.242
20741W        W93089  14.247  22.693  11.937
20742W        W93090  11.733  11.859  14.967
20743W        W93091  22.614  30.973  11.400
20744W        W93092  41.305  44.770   2.364
20745W        W93093  17.148  34.516  13.842
20746W        W93094   3.406  14.102   0.939
20747W        W93095  21.631   8.689   1.240
20748W        W93096  38.492  12.816  12.522
20749W        W93097   0.288  13.792  10.540
20750W        W93098  13.123  14.632  13.029
20751W        W93099   0.267  37.384  12.373
20752W        W93100  14.285  27.633  14.393
20753W        W93101  11.247  35.034   4.774
20754W        W93102  13.709  20.766   0.852
20755W        W93103  17.136   4.738  13.520
20756W        W93104   5.689  14.618   3.706
20757W        W93105   8.704  22.236  11.536
20758W        W93106  18.276   8.672   0.392
20759W        W93107  33.521  39.360  14.495
20760W        W93108  27.064  36.406  13.343
20761W        W93109  14.682   0.824  11.508
20762W        W93110  35.414  41.470  11.901
20763W        W93111  25.183   5.255   3.731
20764W        W93112  14.134  29.521  10.515
20765W        W93113  23.506  22.574  13.496
20766W        W93114   5.366   4.878  11.594
20767W        W93115   1.411  32.898  12.553
20768W        W93116   0.429  26.001  10.899
20769W        W93117  41.513  19.259   0.442
20770W        W93118  34.539   3.955  13.847
20771W        W93119  11.357   5.231  13.455
20772W        W93120  10.328  24.543   3.252
20773W        W93121  25.057  36.068  12.579
20774W        W93122   1.342   3.879  12.971
20775W        W93123  43.769  17.073  12.063
20776W        W93124  41.406  28.080  12.421
20777W        W93125  18.565  10.146   3.262
20778W        W93126   9.262  25.637  13.341
20779W        W93127  37.433  10.658   1.383
20780W        W93128  22.117  27.497  12.995
20781W        W93129  21.629  29.004   1.797
20782W        W93130  41.980  28.052  13.477
20783W        W93131   9.297   2.261  14.276
20784W        W93132  26.108  43.313   1.307
20785W        W93133  10.372  16.256  10.415
20786W        W93134   9.772  20.156   4.780
20787W        W93135  16.098  25.161  12.342
20788W        W93136  22.042  36.472  14.801
20789W        W93137  31.545  23.544   4.194
20790W        W93138  34.068  37.065   3.821
20791W        W93139   8.804  29.957  13.941
20792W        W93140  31.473  13.140  10.588
20793W        W93141   5.317  31.000   4.288
20794W        W93142  37.532  39.955  11.595
20795W        W93143  32.043  32.477  11.587
20796W        W93144  29.119  34.552  14.944
20797W        W93145  44.934  33.481   1.732
20798W        W93146   5.710  41.866   1.695
20799W        W93147  31.600  13.153  11.977
20800W        W93148  40.001   0.474   2.813
20801W        W93149  27.148  27.994   1.813
20802W        W93150  36.037   7.763   1.705
20803W        W93151  20.580   4.239  10.570
20804W        W93152   2.297   7.351   9.943
20805W        W93153  38.477  22.064   2.711
20806W        W93154   6.801  44.782   0.408
20807W        W93155  26.972   4.301   0.258
20808W        W93156  35.089  20.084  13.316
20809W        W93157  17.666  32.982   4.667
20810W        W93158  31.575  33.470   2.782
20811W        W93159   5.422  41.304  12.405
20812W        W93160  41.410  30.979   4.298
20813W        W93161  29.602   1.286   1.223
20814W        W93162  28.983  44.367  12.829
20815W        W93163  34.040   5.870   0.901
20816W        W93164  19.048  44.864  13.518
20817W        W93165  13.137  19.179  10.453
20818W        W93166  41.829  15.705  14.324
20819W        W93167  16.706   2.372   4.701
20820W        W93168  19.169  12.207   2.348
20821W        W93169  28.450  36.497  13.484
20822W        W93170  13.194  21.097  13.802
20823W        W93171  18.696  29.617   5.286
20824W        W93172  26.191   9.363  11.911
20825W        W93173  20.130  40.898   2.712
20826W        W93174  23.526   0.249  13.855
20827W        W93175  42.512  13.724   2.902
20828W        W93176   3.358   4.854  14.507
20829W        W93177  34.044  16.123   2.889
20830W        W93178  28.441  28.449  14.335
20831W        W93179  39.043  43.851   0.925
20832W        W93180  43.945  28.484   0.805
20833W        W93181   2.432  11.337   1.427
20834W        W93182  35.073  28.545  11.611
20835W        W93183  33.444  32.025   4.762
20836W        W93184  35.003   0.493   2.849
20837W        W93185  32.041  18.172   3.638
20838W        W93186   3.870   2.229  14.026
20839W        W93187   2.339  43.367   0.401
20840W        W93188   2.873   5.749   3.261
20841W        W93189  35.933  21.725  13.034
20842W        W93190  24.630   8.866   1.282
20843W        W93191  31.029  41.307   1.709
20844W        W93192  42.433  23.661   0.330
20845W        W93193  20.767  28.439   3.655
20846W        W93194  30.092  29.001   2.248
20847W        W93195  34.499  31.500   0.334
20848W        W93196  37.919  18.204  12.488
20849W        W93197   6.790  26.701   3.186
20850W        W93198  43.959  20.652  12.020
20851W        W93199  34.601  17.307  13.977
20852W        W93200  26.064  15.728   1.223
20853W        W93201  25.505  42.443   0.859
20854W        W93202  26.560   6.345  13.800
20855W        W93203  38.047  36.360  12.013
20856W        W93204  22.688  27.545  14.327
20857W        W93205  27.591  29.614   1.282
20858W        W93206   5.229  24.080  12.877
20859W        W93207  20.546  27.119  11.876
20860W        W93208  34.448  11.850   1.808
20861W        W93209  22.659  29.489  13.508
20862W        W93210  32.511  35.061  13.887
20863W        W93211   8.224   9.836  13.533
20864W        W93212  32.901  27.543  14.422
20865W        W93213  26.606  12.249   1.422
20866W        W93214  27.991  24.620  14.922
20867W        W93215  26.461  37.848  11.032
20868W        W93216  39.369  16.615  12.345
20869W        W93217  10.835   2.280  10.437
20870W        W93218  38.434  15.107  10.410
20871W        W93219  22.616   5.434   0.844
20872W        W93220  29.153  43.829  13.967
20873W        W93221  30.114  43.999  10.891
20874W        W93222  38.872  11.654   2.759
20875W        W93223  37.529   1.939   2.837
20876W        W93224  41.828  39.509   2.326
20877W        W93225  33.544  41.476   3.843
20878W        W93226  43.492  10.334  14.010
20879W        W93227   0.761  26.118  13.817
20880W        W93228  36.587  43.818   2.849
20881W        W93229  20.174  13.192  10.528
20882W        W93230   0.832  24.541   1.699
20883W        W93231  43.882  33.401  12.543
20884W        W93232   3.952  35.438   4.275
20885W        W93233  15.220   2.293   2.240
20886W        W93234  44.280  27.690   0.756
20887W        W93235   8.894   9.667   3.778
20888W        W93236  14.714   8.351   4.658
20889W        W93237  15.107  40.383  12.066
20890W        W93238  40.912  12.837   0.800
20891W        W93239   0.424  20.578  13.884
20892W        W93240  21.097  22.047  12.523
20893W        W93241   5.243  27.451   3.746
20894W        W93242  31.470  25.152   4.146
20895W        W93243  25.634  16.636   3.239
20896W        W93244  15.094  37.915   0.424
20897W        W93245   6.747  23.115   0.952
20898W        W93246  15.313   8.811   0.855
20899W        W93247  39.038  41.331   0.315
20900W        W93248   8.246  40.033  14.777
20901W        W93249  17.167  39.884  12.841
20902W        W93250  39.476  37.498  11.886
20903W        W93251  26.035  24.645   0.438
20904W        W93252  24.137  11.246  13.369
20905W        W93253  27.072  42.476  13.526
20906W        W93254  29.513  29.461  13.410
20907W        W93255  28.566   9.811   3.303
20908W        W93256  28.138  31.527   4.224
20909W        W93257  41.434  13.823   0.885
20910W        W93258   9.652  38.949  12.391
20911W        W93259  42.412  27.628   4.796
20912W        W93260  17.602  22.730  10.422
20913W        W93261   0.284   8.396  12.443
20914W        W93262   6.318   0.789  14.799
20915W        W93263  21.541  12.809  12.391
20916W        W93264  44.295  23.160   3.241
20917W        W93265  39.498  27.558  14.908
20918W        W93266   3.257  11.211   2.780
20919W        W93267  31.506  39.488  10.939
20920W        W93268  23.668  10.654   1.800
20921W        W93269  32.399  27.479  10.581
20922W        W93270  42.827  40.381  13.798
20923W        W93271  27.992  40.546   5.130
20924W        W93272  18.234  23.601  14.001
20925W        W93273   6.868  31.967  12.526
20926W        W93274  15.735  28.580   2.230
20927W        W93275  43.444   7.185   0.934
20928W        W93276  25.077  34.000   2.715
20929W        W93277  14.103  20.177   5.188
20930W        W93278  13.834   8.360  12.883
20931W        W93279   3.328  42.834   4.315
20932W        W93280  10.143  26.957   4.827
20933W        W93281   6.260  31.458   2.282
20934W        W93282   3.800   4.703  14.423
20935W        W93283  42.849   2.830  13.487
20936W        W93284  34.568  18.259   2.729
20937W        W93285  29.143  17.263   2.784
20938W        W93286  13.322  30.019   2.413
20939W        W93287  43.432  15.630  12.552
20940W        W93288   9.181   2.388   1.223
20941W        W93289   2.950  36.922  13.975
20942W        W93290  44.807  31.583  13.987
20943W        W93291   4.819  21.672   2.707
20944W        W93292  33.424   7.867   0.320
20945W        W93293  29.075  27.637  13.400
20946W        W93294  35.393   4.327  11.438
20947W        W93295  42.843  43.443   5.199
20948W        W93296  23.683   3.442   0.362
20949W        W93297  34.107  16.701   2.285
20950W        W93298   6.322   8.251  14.769
20951W        W93299   0.486   0.769  13.481
20952W        W93300  21.612  15.673  10.120
20953W        W93301  40.344   9.233   2.275
20954W        W93302  38.371  40.995  11.118
20955W        W93303  17.648   8.687   1.862
20956W        W93304   0.275  28.440   2.188
20957W        W93305   8.819  43.298  13.542
20958W        W93306   8.840  26.586   1.696
20959W        W93307  12.611  15.606   2.768
20960W        W93308  22.562   5.811   3.365
20961W        W93309  37.481  28.935   2.408
20962W        W93310  16.181   1.275  14.008
20963W        W93311  43.770  15.144   1.327
20964W        W93312   5.230   8.274  13.486
20965W        W93313  35.426  12.272   4.660
20966W        W93314   9.796  43.467  12.505
20967W        W93315  32.965  24.170   0.820
20968W        W93316  40.322   9.227  11.487
20969W        W93317  30.083  11.307  12.005
20970W        W93318  27.026  44.811   2.256
20971W        W93319  14.230   8.829  11.024
20972W        W93320  13.340  31.005  13.472
20973W        W93321  43.462  32.977   2.691
20974W        W93322  25.511   0.414   4.192
20975W        W93323  38.363  34.415  10.434
20976W        W93324  10.645  23.990   0.858
20977W        W93325  34.549   9.254  13.320
20978W        W93326   4.261  37.347  13.956
20979W        W93327  27.036  40.978  13.403
20980W        W93328  27.162  36.874  14.318
20981W        W93329   7.723  36.935  14.447
20982W        W93330   2.959  20.629   2.244
20983W        W93331  28.601   1.922  10.895
20984W        W93332  36.912  35.915   1.879
20985W        W93333  44.401   3.926  14.300
20986W        W93334  16.806  42.514   0.352
20987W        W93335  19.099  32.404  14.356
20988W        W93336  43.398  41.373   0.821
20989W        W93337  27.075   1.832   2.748
20990W        W93338   2.769  32.603   1.716
20991W        W93339  36.429  38.355  11.430
20992W        W93340   4.338  29.514  13.932
20993W        W93341  33.457  25.151   4.725
20994W        W93342  36.417  40.316  14.289
20995W        W93343   9.762  24.616  12.011
20996W        W93344   7.705  10.329  13.985
20997W        W93345  39.456  21.153   2.234
20998W        W93346  39.012  42.982  14.947
20999W        W93347   5.734   7.360   3.838
21000W        W93348  11.242  40.935   2.403
21001W        W93349  35.470  43.926  14.468
21002W        W93350  23.068  11.197   2.792
21003W        W93351  12.183  25.643   2.878
21004W        W93352  29.987  31.614   3.371
21005W        W93353  23.721   2.458  14.295
21006W        W93354  33.483  22.162   2.213
21007W        W93355  15.707   7.730   1.214
21008W        W93356  24.707   8.191  13.415
21009W        W93357  30.634   9.216  11.426
21010W        W93358  43.284  34.555  12.890
21011W        W93359  19.736  31.586   3.776
21012W        W93360  17.771   5.313   3.664
21013W        W93361  13.172  24.523  12.580
21014W        W93362  15.712  12.145  10.101
21015W        W93363  41.983  44.783  14.514
21016W        W93364  19.242   4.445  14.434
21017W        W93365  33.456  39.908  13.957
21018W        W93366   1.447   5.798   4.345
21019W        W93367  44.963  22.157   1.395
21020W        W93368  30.513  31.923   1.233
21021W        W93369  12.760  20.226   3.797
21022W        W93370  28.090  22.129  14.488
21023W        W93371  24.679  13.750  11.033
21024W        W93372  28.006  15.599  14.807
21025W        W93373  30.091   2.465   1.350
21026W        W93374  10.189  13.737  12.044
21027W        W93375  13.105  42.282  12.953
21028W        W93376  37.978  29.589   3.355
21029W        W93377  11.645  35.570  10.955
21030W        W93378  27.049  24.979  10.618
21031W        W93379  19.610  25.534  11.441
21032W        W93380   4.810  12.285  12.474
21033W        W93381  36.966   6.223   0.401
21034W        W93382  10.302  41.967   4.304
21035W        W93383  42.320  36.391   0.360
21036W        W93384   1.796   5.392  12.456
21037W        W93385   5.430  21.190   0.911
21038W        W93386  18.693  30.643   1.287
21039W        W93387  32.622  27.511   0.788
21040W        W93388   6.776  25.977  10.985
21041W        W93389  26.952   5.774   3.244
21042W        W93390  28.115   8.676   0.352
21043W        W93391  44.442  38.391  13.885
21044W        W93392  26.703   4.389   3.685
21045W        W93393  40.843   8.374   1.211
21046W        W93394  30.545  12.213  11.487
21047W        W93395  36.556   5.816  12.493
21048W        W93396   0.951  11.716   4.698
21049W        W93397  29.648  10.270   2.371
21050W        W93398  14.622  36.995  11.448
21051W        W93399  40.303   1.335  13.029
21052W        W93400  16.298  27.096  13.860
21053W        W93401  17.766   7.875  13.307
21054W        W93402  35.074  17.135  12.535
21055W        W93403  42.513   2.257  11.991
21056W        W93404  31.646   2.847  10.997
21057W        W93405  38.916   6.339   3.358
21058W        W93406  23.709  22.116   3.680
21059W        W93407   1.412   5.381  10.619
21060W        W93408   4.380   1.765   0.796
21061W        W93409   1.263   3.817   0.246
21062W        W93410  29.609  26.986  11.947
21063W        W93411   9.385  19.164  10.506
21064W        W93412   6.255   8.235  14.409
21065W        W93413   2.918  14.703   3.174
21066W        W93414   8.315  26.641   0.967
21067W        W93415   5.732   8.321   2.813
21068W        W93416   2.347  19.208   1.220
21069W        W93417  34.540  19.571  13.843
21070W        W93418  39.528  15.809  13.959
21071W        W93419  35.990  15.100   1.355
21072W        W93420  10.653  40.336  14.905
21073W        W93421  14.652   1.841   3.780
21074W        W93422  35.513  25.578   0.804
21075W        W93423  26.107  33.506   4.181
21076W        W93424  13.245  31.969   0.483
21077W        W93425   7.900   5.226  14.796
21078W        W93426   1.803  41.459   1.236
21079W        W93427  21.660  31.117  13.490
21080W        W93428  32.022   9.304  12.876
21081W        W93429  20.257   2.837   0.925
21082W        W93430   4.410  20.550   1.316
21083W        W93431  26.977   5.314   4.837
21084W        W93432  25.519  17.666   1.362
21085W        W93433   2.788  29.602   4.288
21086W        W93434  20.039  24.708   0.819
21087W        W93435  33.553   5.354   3.155
21088W        W93436  13.207  12.204  14.844
21089W        W93437  32.454  26.646  10.091
21090W        W93438   2.401  13.632  11.377
21091W        W93439  22.246  17.261   0.753
21092W        W93440  38.516  26.125  12.849
21093W        W93441  33.621  33.038  12.998
21094W        W93442   9.814  18.634  11.474
21095W        W93443  20.094  33.534  12.976
21096W        W93444  23.499  26.062  13.495
21097W        W93445  38.489   3.813  14.405
21098W        W93446  39.325  29.092  14.390
21099W        W93447  20.565  10.298  12.855
21100W        W93448  26.617  32.474  12.375
21101W        W93449  29.092  35.102  12.387
21102W        W93450  34.588  26.564   4.177
21103W        W93451  30.479  18.779   1.321
21104W        W93452  25.468   6.711  12.484
21105W        W93453  33.510  13.231   3.732
21106W        W93454  25.612  32.629  11.937
21107W        W93455  34.491  14.112  11.107
21108W        W93456   9.661   2.769  14.377
21109W        W93457   5.380  15.309   1.223
21110W        W93458  22.502  27.505  12.347
21111W        W93459  41.416  16.645  13.899
21112W        W93460  14.831   6.409   5.126
21113W        W93461  37.388  40.999   1.829
21114W        W93462  13.234  26.648  12.528
21115W        W93463  25.105  10.660  13.936
21116W        W93464  23.705  13.168   0.821
21117W        W93465   0.312  23.132  11.948
21118W        W93466  43.438  33.901  14.993
21119W        W93467  32.456  15.275  14.804
21120W        W93468  14.783  37.469  12.340
21121W        W93469  11.702  31.456  11.900
21122W        W93470  25.096  32.914   3.697
21123W        W93471  27.120  17.256   4.736
21124W        W93472  30.419   6.839   1.385
21125W        W93473  33.923  10.230  14.771
21126W        W93474  39.925  30.985  13.529
21127W        W93475  44.280   6.260   5.214
21128W        W93476  19.259   0.952   3.759
21129W        W93477   3.925  28.663  13.316
21130W        W93478  37.493  23.578  12.978
21131W        W93479  27.030  11.213  14.293
21132W        W93480  39.938  19.549  11.395
21133W        W93481   9.888  12.290  10.604
21134W        W93482   4.268  34.036  10.538
21135W        W93483  14.655  23.985  13.442
21136W        W93484  25.218  37.425  12.362
21137W        W93485  31.977  34.571  10.624
21138W        W93486  10.789  23.566  13.053
21139W        W93487  33.921  43.450   1.801
21140W        W93488  24.495  32.061   5.130
21141W        W93489   2.405   9.678  11.076
21142W        W93490  16.607  44.896  12.454
21143W        W93491  39.386  26.134  11.069
21144W        W93492  34.898  10.319   5.227
21145W        W93493   3.955  36.889   0.417
21146W        W93494  32.136   6.714  13.037
21147W        W93495  43.403  23.044  12.991
21148W        W93496   4.449  30.456   0.749
21149W        W93497  37.876  41.995  12.394
21150W        W93498  29.162  17.258  12.506
21151W        W93499   1.268   1.472   0.355
21152W        W93500   4.352  43.288  13.492
21153W        W93501  31.058  22.174  12.875
21154W        W93502   2.840  42.779   3.307
21155W        W93503  39.938  44.282   0.833
21156W        W93504  16.234  41.023   3.712
21157W        W93505  13.283  24.616  10.984
21158W        W93506  34.428  30.065  10.490
21159W        W93507   5.817  30.413   3.367
21160W        W93508  28.930   9.285  14.281
21161W        W93509  11.142  37.916   3.639
21162W        W93510  21.021  13.713  11.870
21163W        W93511  15.639  29.085  12.371
21164W        W93512  11.786  30.063  12.073
21165W        W93513  37.497  35.035   1.728
21166W        W93514  19.176  25.656  10.962
21167W        W93515   4.729  42.515  13.309
21168W        W93516  25.648  12.793   4.255
21169W        W93517  17.704  18.160  10.531
21170W        W93518  35.494  13.777  11.390
21171W        W93519  16.073  38.855   3.642
21172W        W93520  39.013   4.931   0.843
21173W        W93521  13.826   5.731   5.720
21174W        W93522  12.279  14.702   1.740
21175W        W93523  25.980  35.957   4.316
21176W        W93524  10.330  43.499   0.480
21177W        W93525   5.336  33.875  11.020
21178W        W93526  10.798  31.088   4.351
21179W        W93527   5.197  41.383   2.861
21180W        W93528  13.141  17.609  11.043
21181W        W93529  36.492   8.208  10.520
21182W        W93530  11.178  34.940   3.341
21183W        W93531   8.391  22.143   9.463
21184W        W93532   7.267  27.589   0.948
21185W        W93533  25.677  39.839   1.740
21186W        W93534  22.037  40.489   2.687
21187W        W93535  28.676   8.820   3.633
21188W        W93536  31.944  41.500   4.241
21189W        W93537  30.088  37.077   2.719
21190W        W93538  25.033  44.454   1.355
21191W        W93539  40.956  29.570  14.795
21192W        W93540  37.514  37.010  10.617
21193W        W93541  15.151  43.792   0.437
21194W        W93542   5.215  38.465  11.403
21195W        W93543  22.617   8.195   2.221
21196W        W93544  41.827  27.610   1.842
21197W        W93545   7.353   2.919   4.720
21198W        W93546  40.820  40.828  11.098
21199W        W93547  36.900  11.326   2.852
21200W        W93548  24.603  39.061  13.378
21201W        W93549   1.237  35.873  12.935
21202W        W93550  19.572  32.097   0.466
21203W        W93551  13.730   9.257  10.929
21204W        W93552  24.053  25.967   1.895
21205W        W93553  44.810  42.295   3.241
21206W        W93554  12.294  39.820   3.701
21207W        W93555   7.809  19.183   0.853
21208W        W93556  39.426  41.465   3.211
21209W        W93557  32.118  34.468   4.127
21210W        W93558   7.885  31.928  12.565
21211W        W93559  37.938  28.631  10.573
21212W        W93560  26.095  36.905   2.243
21213W        W93561  16.118   9.281  11.436
21214W        W93562  39.372  37.435  12.957
21215W        W93563  19.760  21.260  14.304
21216W        W93564  27.996   6.312   1.800
21217W        W93565  31.619   4.779   2.766
21218W        W93566  15.699  19.232  11.480
21219W        W93567  29.041   3.284   3.786
21220W        W93568  15.179  23.625   0.883
21221W        W93569  12.651  43.851   0.246
21222W        W93570   8.216  20.563   0.269
21223W        W93571  36.067   9.150  14.007
21224W        W93572   9.184  43.925   2.687
21225W        W93573  15.238   3.946  12.908
21226W        W93574   9.334   7.890  13.061
21227W        W93575  11.826   3.819  10.985
21228W        W93576  22.049   7.814  13.926
21229W        W93577  39.990  12.854   4.605
21230W        W93578   4.708  33.540   1.367
21231W        W93579  31.101  39.817   3.250
21232W        W93580  18.099   0.417   2.852
21233W        W93581  28.500  28.086  14.475
21234W        W93582   4.376   9.264   1.877
21235W        W93583  42.924   7.839  11.979
21236W        W93584  39.377  22.690   0.827
21237W        W93585  13.738   5.419  11.862
21238W        W93586   3.440  12.852  12.869
21239W        W93587   9.378  29.145  11.495
21240W        W93588  13.273   9.853   1.349
21241W        W93589  17.743  30.446  10.607
21242W        W93590  12.688   3.775   4.818
21243W        W93591   7.673  33.425  12.396
21244W        W93592  33.485  10.853   1.333
21245W        W93593  24.536  12.769   0.957
21246W        W93594  31.941  24.700   0.353
21247W        W93595  34.002  19.138   3.769
21248W        W93596  35.467  28.441  12.855
21249W        W93597  26.561  28.496  12.829
21250W        W93598   2.302  38.964  14.967
21251W        W93599  20.217  40.968  13.345
21252W        W93600  43.874  12.205  13.038
21253W        W93601   0.977   7.727   3.321
21254W        W93602   8.294   0.773   4.830
21255W        W93603  39.350  19.761   4.627
21256W        W93604   1.422  41.407  14.297
21257W        W93605  23.032  25.488   2.256
21258W        W93606  29.991   6.276   1.351
21259W        W93607  33.517  25.507  12.528
21260W        W93608   3.348   5.265   1.316
21261W        W93609  27.944  15.645  12.883
21262W        W93610  17.142  37.036   1.278
21263W        W93611   8.193  23.104  13.798
21264W        W93612  40.974  42.448  11.965
21265W        W93613  27.187  26.078  11.448
21266W        W93614   7.277  31.910  14.322
21267W        W93615   4.245  20.653   2.752
21268W        W93616  30.120   0.982   1.303
21269W        W93617  44.872   0.883  13.433
21270W        W93618  40.812  21.523   1.790
21271W        W93619  14.199   0.445  12.443
21272W        W93620  42.414  15.155  10.636
21273W        W93621  41.400  14.808  10.907
21274W        W93622  31.070  10.877  12.954
21275W        W93623  14.146   7.257  10.638
21276W        W93624  25.134  17.155  11.549
21277W        W93625  12.613  37.035   3.653
21278W        W93626   9.332  12.165   4.303
21279W        W93627  23.073  43.767  10.474
21280W        W93628   7.366  21.715  13.532
21281W        W93629  12.268  31.424   3.702
21282W        W93630   2.457  16.811   3.174
21283W        W93631  33.124  31.121  12.551
21284W        W93632  30.589  38.365   3.639
21285W        W93633  27.519  23.541   4.133
21286W        W93634  42.852  13.819  14.905
21287W        W93635   0.328  24.042  14.388
21288W        W93636  41.916  27.684   2.214
21289W        W93637   3.853  38.059   1.354
21290W        W93638  38.916  20.587   2.722
21291W        W93639  21.521  24.051   3.262
21292W        W93640  12.748  36.974   1.268
21293W        W93641  28.158  16.610   3.802
21294W        W93642   0.368   7.192  13.519
21295W        W93643  18.249   4.240   0.729
21296W        W93644  19.269  24.549   1.922
21297W        W93645  27.981  26.186   3.838
21298W        W93646  18.265  13.662   3.290
21299W        W93647  10.820  43.446  10.439
21300W        W93648  39.008  43.980  14.436
21301W        W93649  10.338  26.075  12.354
21302W        W93650   4.901  17.563  13.829
21303W        W93651   9.838  37.571  14.495
21304W        W93652  11.837  11.218  12.029
21305W        W93653  12.296  43.840   1.880
21306W        W93654  34.947  32.609   3.353
21307W        W93655  10.730  26.585  13.990
21308W        W93656  10.183  13.808  10.956
21309W        W93657  23.198  24.061   2.202
21310W        W93658   1.358  38.906  10.950
21311W        W93659  43.420  28.496   3.278
21312W        W93660  15.622  39.876   1.771
21313W        W93661   3.770  20.556  11.001
21314W        W93662  36.978   3.284   1.846
21315W        W93663  31.623  39.520  13.350
21316W        W93664  31.648  29.142  10.578
21317W        W93665  42.304  29.647  14.781
21318W        W93666   6.294  40.982  10.615
21319W        W93667  43.317  15.101   0.861
21320W        W93668  21.199  29.498  11.588
21321W        W93669  11.180  36.533  12.054
21322W        W93670  20.640  22.111   4.172
21323W        W93671  40.856  26.494   0.919
21324W        W93672  35.042  10.720   2.413
21325W        W93673   6.697  28.524   3.734
21326W        W93674  40.978  42.472   1.837
21327W        W93675   3.462  12.663   3.801
21328W        W93676  11.144  21.066   4.821
21329W        W93677  30.018  15.158  13.543
21330W        W93678  20.746  30.012   0.860
21331W        W93679  24.211  20.738  13.393
21332W        W93680  35.368  29.102  10.595
21333W        W93681  36.523  29.078  10.033
21334W        W93682  15.762  44.447  10.486
21335W        W93683   8.697   1.437   4.250
21336W        W93684  34.041  37.070  14.919
21337W        W93685  17.119  11.759  14.470
21338W        W93686  13.628  19.665   4.789
21339W        W93687   7.819  33.406  13.822
21340W        W93688  31.025  34.439   5.175
21341W        W93689  33.989  32.903  14.912
21342W        W93690  32.573  28.064   3.672
21343W        W93691  18.551  20.126   2.210
21344W        W93692  36.029  40.435  11.953
21345W        W93693  35.365  43.402   3.376
21346W        W93694  22.660  11.253   3.845
21347W        W93695  34.557  30.094   2.885
21348W        W93696  17.625  33.539   0.436
21349W        W93697  43.916  14.814  11.949
21350W        W93698  20.101  27.523   0.902
21351W        W93699   4.944   1.948  11.964
21352W        W93700  36.475  34.996  13.399
21353W        W93701   5.715   9.201  11.453
21354W        W93702   1.400  39.371   2.414
21355W        W93703  15.633   8.840   5.260
21356W        W93704   6.281  15.703  13.947
21357W        W93705   5.417  22.714   4.296
21358W        W93706  36.006  15.147   3.727
21359W        W93707  35.402  11.649   1.815
21360W        W93708  26.613  13.119   0.452
21361W        W93709   4.879  31.564   3.777
21362W        W93710   2.879  44.758   1.270
21363W        W93711  40.009  28.625   3.646
21364W        W93712   7.356  28.597  13.996
21365W        W93713   8.810  13.189   2.291
21366W        W93714  35.887  42.000  11.948
21367W        W93715  31.988  23.048  13.982
21368W        W93716  42.448  35.938  12.394
21369W        W93717   8.175  19.279   2.843
21370W        W93718   0.358  29.145  14.346
21371W        W93719  41.406  28.121   4.187
21372W        W93720  41.489  19.596   1.782
21373W        W93721  36.368  34.889   3.239
21374W        W93722   7.323  39.379   1.742
21375W        W93723  19.102  33.039   2.814
21376W        W93724  20.709   7.859   4.761
21377W        W93725  10.842  39.043   4.301
21378W        W93726  12.306  22.501  14.514
21379W        W93727  40.945   4.208  14.988
21380W        W93728  10.752  37.065   4.681
21381W        W93729  20.655   6.209  12.442
21382W        W93730  39.999  38.537  11.086
21383W        W93731   6.295  44.803  10.964
21384W        W93732  13.739  37.884  13.035
21385W        W93733   0.354  25.016   0.424
21386W        W93734  19.239  41.956   1.768
21387W        W93735  34.892  25.984  14.479
21388W        W93736   5.391  22.678   1.365
21389W        W93737   3.267  22.054  14.392
21390W        W93738  25.093  17.720  11.127
21391W        W93739  21.070  31.627  10.115
21392W        W93740  26.498   1.380  13.518
21393W        W93741  39.468  39.402  12.421
21394W        W93742  40.964  31.515   3.729
21395W        W93743  40.916  40.363  10.934
21396W        W93744  36.483  23.722  12.537
21397W        W93745  15.712  26.556   5.099
21398W        W93746  10.675   2.744   3.719
21399W        W93747   3.406   7.350   4.769
21400W        W93748   6.354  27.667  11.948
21401W        W93749  23.565  19.109  13.469
21402W        W93750  19.260  22.228   3.233
21403W        W93751  20.540  31.636  13.867
21404W        W93752  18.781  21.145  11.593
21405W        W93753  14.340  11.866  14.885
21406W        W93754  44.817   3.408   4.775
21407W        W93755  29.668  17.637  11.878
21408W        W93756  19.744  42.032   1.879
21409W        W93757  29.632  11.371   4.200
21410W        W93758  16.305  37.424  13.047
21411W        W93759   0.971   6.387  11.596
21412W        W93760  30.603  29.472  13.485
21413W        W93761  38.373  36.851  13.053
21414W        W93762  13.689  22.544  10.608
21415W        W93763   8.243  14.661  11.611
21416W        W93764  18.139  24.189  13.975
21417W        W93765   4.284  10.764   0.417
21418W        W93766  20.174  41.969  13.322
21419W        W93767  40.022   5.341   3.735
21420W        W93768  30.521  27.082   4.641
21421W        W93769  21.023  13.119   1.268
21422W        W93770  42.380   9.272   0.813
21423W        W93771  41.927  38.417   1.451
21424W        W93772   2.928   2.807   0.818
21425W        W93773  44.860  41.994   0.865
21426W        W93774   9.309  22.543  11.993
21427W        W93775  35.441  28.004   3.150
21428W        W93776   8.308  29.077   0.793
21429W        W93777  41.340  33.485  10.924
21430W        W93778  39.499  26.986   0.427
21431W        W93779   3.720  35.987  12.994
21432W        W93780  13.203  27.608  11.983
21433W        W93781  22.729  14.266   4.826
21434W        W93782  21.632  39.014   2.865
21435W        W93783   3.261  10.367  10.911
21436W        W93784  14.745  40.838  11.895
21437W        W93785  19.708  12.146  14.295
21438W        W93786  34.499  13.626  14.968
21439W        W93787  10.276   2.767  12.927
21440W        W93788  22.603  15.675   4.756
21441W        W93789  15.122  31.039   1.853
21442W        W93790  22.630  14.130  10.446
21443W        W93791   0.380  33.526  11.429
21444W        W93792  13.608  29.603  14.295
21445W        W93793  12.744  32.026  11.049
21446W        W93794  44.498   9.761  10.057
21447W        W93795  43.920  26.670   2.298
21448W        W93796  24.153   9.188  12.898
21449W        W93797  13.749  16.229   3.661
21450W        W93798  35.376   2.311   1.888
21451W        W93799   9.194  26.508  14.448
21452W        W93800   5.880  28.945  14.287
21453W        W93801  21.231  24.481  10.916
21454W        W93802  44.835  17.239  12.056
21455W        W93803  21.153  23.110   5.176
21456W        W93804  32.559  44.850  12.356
21457W        W93805  21.210  22.687   2.882
21458W        W93806   6.274   6.428  12.383
21459W        W93807  25.494  17.667  13.907
21460W        W93808   6.293  36.360  11.981
21461W        W93809  30.582   8.385   3.793
21462W        W93810  42.292  41.525   0.342
21463W        W93811   9.201  35.044   3.237
21464W        W93812  24.705  32.926  14.935
21465W        W93813   7.205  14.693   4.784
21466W        W93814   8.806  32.932   9.962
21467W        W93815  43.822   0.788  12.095
21468W        W93816   1.367   0.348  13.045
21469W        W93817  26.690  12.226  11.516
21470W        W93818  26.980  12.323   2.285
21471W        W93819  24.554  22.599   3.757
21472W        W93820  15.166  32.013  11.426
21473W        W93821  38.989  12.805  11.563
21474W        W93822  33.124  44.480  14.794
21475W        W93823  43.301   4.390  10.616
21476W        W93824  37.956  25.142   2.187
21477W        W93825  40.934  40.352   2.184
21478W        W93826   9.693  20.040   5.283
21479W        W93827  30.140   6.287   3.263
21480W        W93828  39.973   8.200   3.212
21481W        W93829  34.064  26.980  11.542
21482W        W93830  29.965  25.531  13.015
21483W        W93831   3.823  18.733  11.462
21484W        W93832   5.727   9.258   2.864
21485W        W93833   7.777  44.452  11.403
21486W        W93834  34.478   3.312  12.942
21487W        W93835  34.455   5.295   1.259
21488W        W93836  27.091  24.490   4.240
21489W        W93837  37.359  26.599   0.444
21490W        W93838  41.826  37.913   1.721
21491W        W93839  37.487  41.969  11.547
21492W        W93840  17.089  19.212  12.925
21493W        W93841   8.703  22.077   2.715
21494W        W93842  42.807   4.753  12.454
21495W        W93843  16.606  40.306   1.403
21496W        W93844  28.065  26.055  11.478
21497W        W93845  32.465  17.205   3.343
21498W        W93846  27.096  15.765   3.213
21499W        W93847   2.817  15.157   3.703
21500W        W93848  26.130   6.276   3.863
21501W        W93849  41.955  41.441   2.862
21502W        W93850  36.350  36.472   3.310
21503W        W93851  30.619  30.521   0.801
21504W        W93852  42.839   1.349   1.295
21505W        W93853   0.338  13.318   4.183
21506W        W93854   7.852  23.538   1.309
21507W        W93855  25.478  23.682   2.851
21508W        W93856  37.003  11.730  14.446
21509W        W93857   9.373   9.377   0.799
21510W        W93858  11.749  13.217  11.037
21511W        W93859  20.178  11.274   2.220
21512W        W93860  29.666  32.543  12.893
21513W        W93861   9.747   8.210  11.374
21514W        W93862  40.501   8.735  12.039
21515W        W93863  11.631  37.986  10.556
21516W        W93864   8.321  38.824  12.010
21517W        W93865  42.293  23.636  14.866
21518W        W93866  44.386   1.375  14.288
21519W        W93867  33.875  17.709  13.837
21520W        W93868   8.302  23.598   4.219
21521W        W93869  10.752   7.716  12.952
21522W        W93870  34.118   0.493   1.429
21523W        W93871  19.125  12.227  12.905
21524W        W93872   0.493  32.520   0.948
21525W        W93873  19.778  40.000  12.493
21526W        W93874   7.240   8.854   4.739
21527W        W93875  32.559  25.142   0.457
21528W        W93876  11.690  28.642  10.525
21529W        W93877  24.664  40.969   3.292
21530W        W93878  26.960  41.347  13.004
21531W        W93879  29.497  15.701  12.468
21532W        W93880   5.330  23.491   3.746
21533W        W93881  15.633   4.899  11.867
21534W        W93882   0.791   0.766   1.746
21535W        W93883   5.910  10.165  14.502
21536W        W93884  23.104  24.693   2.293
21537W        W93885   2.229  33.887  11.055
21538W        W93886  44.978  44.801   0.892
21539W        W93887  37.958  13.213  13.404
21540W        W93888  14.649   3.930  13.370
21541W        W93889  32.538  11.624   4.756
21542W        W93890  16.643   7.387   1.244
21543W        W93891  43.856  31.642   1.809
21544W        W93892  29.947  15.135   2.705
21545W        W93893   9.384  32.911   1.212
21546W        W93894  33.482  43.958  12.501
21547W        W93895  34.079  27.685   2.286
21548W        W93896   5.890   0.802   4.165
21549W        W93897  26.538  14.783   3.644
21550W        W93898  14.136  10.347  14.869
21551W        W93899  40.050  15.759  14.933
21552W        W93900  30.986   5.424  14.960
21553W        W93901  33.004  43.013  12.434
21554W        W93902   1.835  36.065  12.522
21555W        W93903  30.918  25.470  11.880
21556W        W93904  29.576  39.356   0.903
21557W        W93905  43.374   5.867   0.927
21558W        W93906   9.800  23.658   4.621
21559W        W93907  15.095   2.451  11.931
21560W        W93908  21.242  44.450  14.400
21561W        W93909  13.226   9.872  13.899
21562W        W93910  36.938  40.485  14.819
21563W        W93911   7.187  21.667  10.549
21564W        W93912  10.379  18.234  11.856
21565W        W93913  24.688   6.823  14.819
21566W        W93914   4.265  43.334  14.398
21567W        W93915  14.782  29.022  12.507
21568W        W93916   5.743   2.438  14.422
21569W        W93917  18.071  19.762  13.056
21570W        W93918  24.615  34.098   3.782
21571W        W93919  11.161  22.130   4.785
21572W        W93920  26.136  43.981  12.450
21573W        W93921  23.721   0.491  10.594
21574W        W93922   9.805   7.350   1.341
21575W        W93923  40.836  15.151   3.803
21576W        W93924  18.692  14.145   2.898
21577W        W93925   9.249  35.028  11.965
21578W        W93926   1.302  38.891   3.761
21579W        W93927  40.009  19.139   3.779
21580W        W93928  40.975  39.406  12.887
21581W        W93929  39.404   8.707  12.560
21582W        W93930  11.330  10.722   4.694
21583W        W93931  39.377  44.322   2.871
21584W        W93932  21.609  29.022  12.356
21585W        W93933   3.222   4.445   4.771
21586W        W93934  34.864  10.771  12.374
21587W        W93935   2.857   3.784  11.407
21588W        W93936  23.688  27.573  12.077
21589W        W93937   7.319  24.500   1.810
21590W        W93938  36.434  24.101   1.337
21591W        W93939  21.027  10.323   3.712
21592W        W93940   1.883  27.016   2.872
21593W        W93941  44.370  30.068  14.399
21594W        W93942   8.292  18.254  12.969
21595W        W93943   7.874   9.204   1.832
21596W        W93944  15.244   8.350   1.232
21597W        W93945   0.294  11.723   3.674
21598W        W93946  16.147  43.470   2.395
21599W        W93947   8.386   1.459   0.934
21600W        W93948  24.614   0.359  13.939
21601W        W93949  21.620   6.186  14.887
21602W        W93950   3.921  11.754   4.823
21603W        W93951  27.169   8.732  13.349
21604W        W93952   9.806   3.266   0.315
21605W        W93953   1.356  34.502   0.821
21606W        W93954  35.545  21.023  12.937
21607W        W93955  27.677  15.122   3.737
21608W        W93956  35.577  19.262   3.679
21609W        W93957  37.431   3.938   5.138
21610W        W93958  29.509  10.785   2.708
21611W        W93959   5.435  44.770  12.574
21612W        W93960  32.107  17.133   4.719
21613W        W93961  33.920   9.695  13.502
21614W        W93962  24.020  39.023  13.334
21615W        W93963  22.632  24.202   3.216
21616W        W93964  38.359  15.716  10.493
21617W        W93965  18.200  42.849  11.000
21618W        W93966  28.013  21.223  14.835
21619W        W93967   7.900  10.741  14.811
21620W        W93968  36.844   8.782   3.693
21621W        W93969  44.502  21.715   4.730
21622W        W93970  16.255   7.386  11.517
21623W        W93971  14.300   1.264   1.305
21624W        W93972   1.469  40.871   0.889
21625W        W93973  34.450  20.648   1.845
21626W        W93974   7.750  37.003   1.862
21627W        W93975  31.626  21.061   3.279
21628W        W93976  11.755   7.280  10.968
21629W        W93977  34.977   3.311   2.838
21630W        W93978  42.395   3.246   3.840
21631W        W93979   4.906  29.583   2.257
21632W        W93980  18.156  21.751  11.426
21633W        W93981  24.577   8.386   3.718
21634W        W93982  20.123  38.516   3.737
21635W        W93983  44.305  25.572   2.679
21636W        W93984  25.046  10.230   4.121
21637W        W93985   1.384   9.221  12.443
21638W        W93986  34.611  28.600   3.379
21639W        W93987   4.782  27.158  14.975
21640W        W93988  17.756   0.874   3.355
21641W        W93989  22.560   1.426  11.965
21642W        W93990   4.405   1.865  11.878
21643W        W93991  14.189  21.573   3.794
21644W        W93992  14.164  31.003   3.188
21645W        W93993  38.364  14.290   1.344
21646W        W93994  18.789   0.932   4.225
21647W        W93995  17.191  14.203  11.547
21648W        W93996  27.035   4.867  10.640
21649W        W93997  43.914  18.621  13.430
21650W        W93998   8.673  39.517   4.610
21651W        W93999   2.326   9.374   2.346
21652W        W94000   5.835   9.694  11.599
21653W        W94001  14.126  12.209   3.780
21654W        W94002   9.809  38.345  11.579
21655W        W94003  14.108  43.820   0.772
21656W        W94004   7.672  12.700   4.164
21657W        W94005  31.631  25.106   1.296
21658W        W94006  13.816   2.897   3.357
21659W        W94007  37.361   5.922  10.097
21660W        W94008  20.103  40.343  13.820
21661W        W94009  13.145   0.884  10.624
21662W        W94010   6.783  11.226   4.169
21663W        W94011  34.000  42.291   3.867
21664W        W94012  39.917  40.377  12.355
21665W        W94013   6.265  16.689  10.985
21666W        W94014  40.957   3.346  11.124
21667W        W94015  10.709  41.464  11.052
21668W        W94016  13.801  16.627  13.947
21669W        W94017  44.783   4.359  12.879
21670W        W94018  23.587  29.961   1.708
21671W        W94019  28.943  38.500   2.196
21672W        W94020  27.599  30.992  10.479
21673W        W94021  10.700  12.222  10.565
21674W        W94022  38.437  23.012  12.412
21675W        W94023   9.682  32.611   0.289
21676W        W94024  18.072  27.132  14.332
21677W        W94025  14.231  37.377  12.901
21678W        W94026  32.921  27.659   3.855
21679W        W94027   4.371  13.309  11.912
21680W        W94028  21.023  10.375  14.409
21681W        W94029  13.796  13.727   0.870
21682W        W94030  20.716   1.884   4.774
21683W        W94031   5.244   2.731  10.992
21684W        W94032  35.950  38.954   1.866
21685W        W94033   8.177   8.392  13.381
21686W        W94034  28.516  41.030  11.958
21687W        W94035  20.131  43.381  14.847
21688W        W94036  18.751  37.395   0.761
21689W        W94037  22.641  30.089  10.453
21690W        W94038  27.073  17.172   1.304
21691W        W94039  19.778  33.904  12.392
21692W        W94040  33.033  30.419  11.589
21693W        W94041  29.627   2.765  14.015
21694W        W94042   9.345  19.286  11.090
21695W        W94043   5.849  43.874   0.420
21696W        W94044  15.757   0.309  10.637
21697W        W94045  15.186   9.193  13.954
21698W        W94046  34.963   9.279  10.999
21699W        W94047  16.199   2.850  11.480
21700W        W94048  14.764  40.846   1.371
21701W        W94049  35.008   1.798  12.916
21702W        W94050   4.732  43.395   1.294
21703W        W94051  14.613  15.764  11.996
21704W        W94052  15.730  39.507   2.833
21705W        W94053  16.314  24.203  10.500
21706W        W94054   9.784  38.986  12.022
21707W        W94055   1.376  39.877  12.344
21708W        W94056   2.231  21.535   0.308
21709W        W94057  12.837  27.958  10.621
21710W        W94058   4.748   1.445   4.617
21711W        W94059  38.876  12.802  14.353
21712W        W94060  30.652  18.156  12.836
21713W        W94061  11.242   2.890   3.339
21714W        W94062   6.751   8.353  14.806
21715W        W94063  25.112  36.899  13.869
21716W        W94064  20.650   9.180   2.694
21717W        W94065  22.621  34.927  14.775
21718W        W94066  14.727   7.857  13.840
21719W        W94067  37.454  16.239  10.987
21720W        W94068  22.137   2.859   4.197
21721W        W94069  10.861  12.362   2.779
21722W        W94070  30.019  15.286   0.901
21723W        W94071  31.605   7.831   5.166
21724W        W94072   2.455  32.446   0.247
21725W        W94073  22.176   7.377   5.115
21726W        W94074   6.227   9.298   0.931
21727W        W94075   2.410  15.133  12.003
21728W        W94076  42.889  13.257   3.749
21729W        W94077  27.076  40.939   2.243
21730W        W94078  24.015  14.613   0.963
21731W        W94079   0.480  23.191  13.858
21732W        W94080  39.954  16.077   4.646
21733W        W94081   8.874  18.146  14.854
21734W        W94082   7.189  22.049   1.787
21735W        W94083  23.206  32.889  13.966
21736W        W94084  32.943  27.978   3.291
21737W        W94085   4.855  23.675  11.373
21738W        W94086  40.410   3.743  13.064
21739W        W94087  10.235  33.553   5.085
21740W        W94088  16.093  17.785  11.540
21741W        W94089  37.048  33.489   1.363
21742W        W94090  35.496  18.563  14.970
21743W        W94091  23.175   7.836  10.052
21744W        W94092  24.990   5.285  12.969
21745W        W94093  40.421  37.557   1.919
21746W        W94094  33.028  39.457   0.244
21747W        W94095  15.750  43.852  13.806
21748W        W94096  10.859  21.259   3.248
21749W        W94097  22.123  28.467  12.055
21750W        W94098  22.093  37.395  10.903
21751W        W94099  26.458  22.513   0.424
21752W        W94100  21.043  38.520   0.479
21753W        W94101  17.754  10.308  12.438
21754W        W94102   5.777   4.838  14.778
21755W        W94103  29.592   5.336   0.413
21756W        W94104   3.348  12.186   0.850
21757W        W94105  10.764   5.269   3.677
21758W        W94106   7.768   7.838  11.965
21759W        W94107  37.870   0.255   4.763
21760W        W94108   8.216   8.824   3.847
21761W        W94109  34.108  30.497   4.790
21762W        W94110  12.197  30.062  12.021
21763W        W94111  18.551  42.813   1.930
21764W        W94112  30.626  29.605   4.666
21765W        W94113  41.872  10.846  11.070
21766W        W94114  34.101   6.700  14.370
21767W        W94115  10.166   4.916  12.060
21768W        W94116  35.900   7.241   4.784
21769W        W94117   8.681   8.379   2.676
21770W        W94118  44.764  34.867  12.876
21771W        W94119  11.314  39.064  12.561
21772W        W94120  22.670   7.279   4.286
21773W        W94121  15.298  14.128  14.282
21774W        W94122  40.840  39.388   1.350
21775W        W94123  30.503  40.002   4.737
21776W        W94124   2.731  33.600  12.916
21777W        W94125  21.648  13.254  10.952
21778W        W94126  25.070  38.848   3.633
21779W        W94127  21.091  15.613   3.739
21780W        W94128  42.409  27.538   0.845
21781W        W94129   9.886  23.049  10.405
21782W        W94130  33.521   5.729  14.334
21783W        W94131  34.930  44.899  10.558
21784W        W94132   3.297  14.244  13.017
21785W        W94133   2.342  12.142   3.260
21786W        W94134   2.468   3.340  14.411
21787W        W94135  29.173   5.891   1.214
21788W        W94136  32.447  31.052  13.444
21789W        W94137  13.148  44.000  10.932
21790W        W94138  44.272   0.471   9.988
21791W        W94139  27.568  19.702   4.744
21792W        W94140  14.632  34.392  12.860
21793W        W94141   5.207   0.974  10.408
21794W        W94142  44.862  10.789  13.939
21795W        W94143  41.332  42.338   2.326
21796W        W94144   6.217  37.994  11.425
21797W        W94145  25.589   6.682  14.374
21798W        W94146  35.521  23.030   2.303
21799W        W94147  22.619   0.339  10.977
21800W        W94148  22.230  26.187  14.032
21801W        W94149   6.181  25.510   2.853
21802W        W94150  27.153  36.971   3.678
21803W        W94151  44.943  41.485   3.354
21804W        W94152   2.395   5.745  11.871
21805W        W94153  35.054  19.224   1.296
21806W        W94154  42.499  17.072  13.883
21807W        W94155  17.600   8.891  11.530
21808W        W94156   2.460  13.319   3.147
21809W        W94157  32.056  42.969   2.196
21810W        W94158  25.576  28.599   4.627
21811W        W94159  34.471   5.248   4.834
21812W        W94160  33.609  24.532   4.694
21813W        W94161  34.479  23.234   2.673
21814W        W94162  10.265  10.821   4.131
21815W        W94163  38.906  16.138   0.859
21816W        W94164   5.871  42.845  10.438
21817W        W94165  27.618  36.921   1.819
21818W        W94166   8.897  23.636  12.414
21819W        W94167  27.966  43.308  12.354
21820W        W94168  23.992  31.460  13.935
21821W        W94169  41.395  16.235   0.271
21822W        W94170  34.000  15.741  11.942
21823W        W94171  40.514  42.523  10.616
21824W        W94172  24.508  21.042  10.488
21825W        W94173  13.345  14.268   1.273
21826W        W94174  43.937   9.666  13.470
21827W        W94175  32.468   5.753  13.521
21828W        W94176  38.518   9.784   4.214
21829W        W94177   3.370   2.840  11.376
21830W        W94178  30.128  39.348  10.438
21831W        W94179  23.639  26.198   2.190
21832W        W94180  39.545  33.479   0.411
21833W        W94181  30.634  31.040  13.451
21834W        W94182  17.273  39.976   0.893
21835W        W94183   5.226   7.389  13.456
21836W        W94184  43.884   7.731  11.609
21837W        W94185  32.041  27.083  11.954
21838W        W94186  37.354  11.182  12.010
21839W        W94187  10.777   3.881  12.395
21840W        W94188  32.068  36.898  14.988
21841W        W94189  39.919   5.280   2.392
21842W        W94190  14.736  43.451  12.419
21843W        W94191   6.735  23.987   3.258
21844W        W94192  34.045  31.490   2.873
21845W        W94193  16.219  10.302   1.719
21846W        W94194  34.963   9.739   2.830
21847W        W94195  21.132  23.666   4.831
21848W        W94196  14.169  37.460  14.505
21849W        W94197   0.330  39.895  13.816
21850W        W94198  30.045  19.778  13.803
21851W        W94199  21.235  41.520  14.443
21852W        W94200  38.908   4.298  11.068
21853W        W94201   9.697  43.932  10.969
21854W        W94202  17.700  22.220  13.523
21855W        W94203  23.240   2.787   3.253
21856W        W94204   2.430  31.548  13.380
21857W        W94205  24.517  33.381  11.578
21858W        W94206   4.767  25.711  13.982
21859W        W94207   7.800  26.067  11.085
21860W        W94208   6.189  44.280   4.781
21861W        W94209  29.077  14.293   2.256
21862W        W94210  12.770  11.309  11.570
21863W        W94211  17.688  34.484   4.674
21864W        W94212  38.056  18.594   0.450
21865W        W94213  36.981  18.246   1.430
21866W        W94214  20.056  24.195  12.343
21867W        W94215  32.419  39.952  12.826
21868W        W94216   0.895  41.883  12.909
21869W        W94217  36.921  35.000  11.063
21870W        W94218  39.064  16.122   1.753
21871W        W94219   4.876  35.413   2.854
21872W        W94220   0.286   1.306  11.900
21873W        W94221   0.763  15.208   3.272
21874W        W94222  15.821  43.371  12.392
21875W        W94223  37.557  36.574  11.094
21876W        W94224  20.090  26.484   2.720
21877W        W94225  23.208  39.977   0.467
21878W        W94226   9.185  10.786  11.385
21879W        W94227  41.484  37.894   4.207
21880W        W94228  20.611  16.296   0.873
21881W        W94229  15.317  23.991   2.835
21882W        W94230  40.811  31.469  12.369
21883W        W94231   6.318  31.116   0.267
21884W        W94232  30.137  20.768   2.816
21885W        W94233  14.616  18.712  12.885
21886W        W94234  36.934  40.348  12.922
21887W        W94235  15.296  19.661  10.486
21888W        W94236  20.599  36.955  13.821
21889W        W94237  23.703   0.414  14.487
21890W        W94238  28.128  10.748  11.602
21891W        W94239  27.586   5.700   2.376
21892W        W94240  38.346   3.391  10.966
21893W        W94241  13.621  11.730   1.700
21894W        W94242   2.240   6.323   4.796
21895W        W94243  17.800  34.899  12.031
21896W        W94244   8.773  11.335   4.785
21897W        W94245  44.431  17.787   3.771
21898W        W94246  35.109  16.304  14.874
21899W        W94247   4.218  29.927  11.439
21900W        W94248  37.474  40.833  10.592
21901W        W94249  26.691   8.352  11.428
21902W        W94250  39.909  26.481   0.310
21903W        W94251  41.389   5.262   4.672
21904W        W94252  19.207   8.754  14.931
21905W        W94253  11.828  42.486  12.527
21906W        W94254  19.553  15.143   1.887
21907W        W94255  36.996  16.571   3.805
21908W        W94256  36.045  14.215  10.568
21909W        W94257  18.276   1.858  11.421
21910W        W94258  44.783   1.732   0.366
21911W        W94259  18.731  40.363   3.787
21912W        W94260  43.014  16.721   2.389
21913W        W94261  13.636  19.582   0.437
21914W        W94262  25.219   4.779  11.989
21915W        W94263   1.425  38.010  14.386
21916W        W94264   2.357   2.733  14.909
21917W        W94265  17.663   9.728  11.921
21918W        W94266  32.054  14.811  14.780
21919W        W94267  26.077   6.723  13.806
21920W        W94268  13.110   8.800   4.297
21921W        W94269   1.258  26.181   4.797
21922W        W94270  28.066  31.154   0.950
21923W        W94271  23.056   2.316  13.850
21924W        W94272  28.107  10.378  13.969
21925W        W94273   1.825  37.937   4.198
21926W        W94274   9.384  22.687  13.447
21927W        W94275  41.359   3.854   4.800
21928W        W94276   7.336  26.584  10.506
21929W        W94277  22.059   1.861   1.838
21930W        W94278  26.987  20.756   2.191
21931W        W94279   6.182  12.292   0.847
21932W        W94280   7.811  32.547   0.740
21933W        W94281  41.787  32.511  11.466
21934W        W94282  10.878  38.868  10.593
21935W        W94283  22.252  18.273  12.469
21936W        W94284  34.443  16.149   1.352
21937W        W94285  27.949  23.132   4.748
21938W        W94286  28.182   2.775   1.440
21939W        W94287  33.065  11.625  10.488
21940W        W94288  40.410   7.884  12.355
21941W        W94289  25.082  35.443   3.693
21942W        W94290  24.544  43.876   2.790
21943W        W94291  31.494  18.596  12.905
21944W        W94292  22.515  15.664  10.056
21945W        W94293   1.887  34.496  13.324
21946W        W94294  19.208  15.711  12.427
21947W        W94295   1.431  27.516   0.912
21948W        W94296  33.971  32.434  14.433
21949W        W94297  14.197  30.499  12.900
21950W        W94298  30.460  16.628   0.904
21951W        W94299  13.264  10.173   1.411
21952W        W94300  27.557  20.625  10.591
21953W        W94301  35.469   5.201   9.961
21954W        W94302  12.164  20.618  12.022
21955W        W94303  17.798  29.924   1.359
21956W        W94304  40.980  39.972  11.862
21957W        W94305  22.167  27.489   1.717
21958W        W94306  18.252  35.602  13.977
21959W        W94307  38.821  35.986  13.308
21960W        W94308   2.226   3.297  10.460
21961W        W94309   3.821  17.306   3.326
21962W        W94310  19.590  32.095   2.840
21963W        W94311  20.202   8.707   3.718
21964W        W94312   5.344   0.259   1.283
21965W        W94313  26.086  13.797   0.455
21966W        W94314  27.123  30.654   4.597
21967W        W94315   0.425  12.667  14.452
21968W        W94316   5.284   2.815  11.460
21969W        W94317   9.396  13.213   1.258
21970W        W94318  11.735   6.317   3.808
21971W        W94319   7.178  39.358   0.875
21972W        W94320   1.303  17.155   0.356
21973W        W94321  25.147  22.646  12.547
21974W        W94322   3.780  16.091   3.757
21975W        W94323  37.080  17.155   3.278
21976W        W94324  32.575  19.554  11.990
21977W        W94325  42.894   2.867   1.696
21978W        W94326   4.289  11.725   4.674
21979W        W94327  29.033  16.727  11.401
21980W        W94328  42.978  17.785  12.918
21981W        W94329  19.694  33.455  11.103
21982W        W94330  44.373  11.147  13.427
21983W        W94331   4.258  39.327  13.517
21984W        W94332   0.290  22.051   1.349
21985W        W94333  41.362  19.074   0.943
21986W        W94334   5.371  35.974   2.703
21987W        W94335  21.202  13.798   0.863
21988W        W94336   7.877  39.323   3.191
21989W        W94337   7.281   9.269  13.384
21990W        W94338   3.452  14.158  11.978
21991W        W94339  19.581  34.050   3.862
21992W        W94340  35.384  12.233  13.041
21993W        W94341  19.558  22.184  13.059
21994W        W94342  25.529  22.602   4.246
21995W        W94343  24.154  20.594   2.307
21996W        W94344  31.445  18.609   0.277
21997W        W94345   0.894  16.809   1.424
21998W        W94346  28.079  42.522  14.409
21999W        W94347  44.000  12.845   4.302
22000W        W94348  34.420  25.011  14.022
22001W        W94349  40.973   4.912   3.711
22002W        W94350   8.350   3.732   0.943
22003W        W94351  16.287  16.760   1.305
22004W        W94352  16.742   0.418  10.443
22005W        W94353   6.769  38.047  11.108
22006W        W94354  19.685  41.422  12.857
22007W        W94355   4.725  44.345   2.729
22008W        W94356   7.758  21.742  14.022
22009W        W94357  18.701  30.142   1.437
22010W        W94358   9.863  25.997  14.810
22011W        W94359  17.769  23.670  10.565
22012W        W94360  34.932  32.563   0.254
22013W        W94361  14.161  20.216  12.055
22014W        W94362  17.780  11.293  10.971
22015W        W94363   9.255  30.009  11.428
22016W        W94364  44.497   8.664  11.492
22017W        W94365  30.475  11.754   1.928
22018W        W94366  24.196   9.678  12.907
22019W        W94367   9.647   8.332  10.484
22020W        W94368  36.578  27.685  12.967
22021W        W94369   0.972  38.406   4.757
22022W        W94370  28.586   6.267   3.775
22023W        W94371  41.376  21.253   0.295
22024W        W94372  42.833  20.239  10.609
22025W        W94373  14.625   6.708   1.234
22026W        W94374   4.936  15.109  12.357
22027W        W94375  16.305  38.384   1.408
22028W        W94376  27.970  33.046   4.171
22029W        W94377  24.006  27.998   0.880
22030W        W94378   2.882   3.387  11.561
22031W        W94379  42.006   1.464  13.808
22032W        W94380  41.941   2.804   3.338
22033W        W94381  14.310  21.644   0.765
22034W        W94382  30.030  17.672   3.634
22035W        W94383  11.271  22.518   0.431
22036W        W94384   6.306   2.247  12.004
22037W        W94385  11.765  17.083  11.095
22038W        W94386  40.538  39.391  14.512
22039W        W94387   4.430  21.207  11.933
22040W        W94388  36.493  22.058   3.325
22041W        W94389  37.394  10.171  14.380
22042W        W94390  10.695  34.978   1.887
22043W        W94391   9.676  26.207  12.970
22044W        W94392  31.974  30.544  12.432
22045W        W94393   0.371  35.034  12.923
22046W        W94394  27.490  36.448  14.349
22047W        W94395  12.694  32.102   3.350
22048W        W94396  37.579  12.118   4.224
22049W        W94397  20.695   1.960   1.816
22050W        W94398  42.378  28.526  11.929
22051W        W94399  13.662   5.283   4.719
22052W        W94400  44.763  29.575   3.345
22053W        W94401   7.792  10.795  13.422
22054W        W94402  30.103   4.336   0.891
22055W        W94403  41.812  31.546  14.446
22056W        W94404  38.533   5.423   3.322
22057W        W94405  13.293  34.522  11.938
22058W        W94406  32.123  33.945  10.572
22059W        W94407   7.249  25.557  11.914
22060W        W94408  11.850  28.643   3.174
22061W        W94409  40.935  22.690  13.455
22062W        W94410  29.472  38.412  11.867
22063W        W94411  33.099  18.759  13.506
22064W        W94412   6.277   4.888  11.905
22065W        W94413  42.315  16.264   4.793
22066W        W94414   1.322   2.443   4.690
22067W        W94415  42.837  22.511   2.187
22068W        W94416  27.075  39.967   4.202
22069W        W94417  31.910  34.902   2.755
22070W        W94418  29.445   2.867   4.115
22071W        W94419  11.648   9.750  10.970
22072W        W94420  29.435  12.662  10.542
22073W        W94421  43.885  31.023   2.842
22074W        W94422  38.369  37.458   2.251
22075W        W94423  44.320  43.417   1.849
22076W        W94424  20.660   5.765   4.224
22077W        W94425  44.356  18.112  11.896
22078W        W94426  10.706  44.915  11.549
22079W        W94427  26.025  40.924   1.780
22080W        W94428  35.360   2.299   0.848
22081W        W94429  40.492  14.732   1.788
22082W        W94430  11.731  24.547   0.760
22083W        W94431  41.813   5.913   3.161
22084W        W94432  35.929  42.796  14.365
22085W        W94433  15.709  19.063  12.527
22086W        W94434  22.610  42.832   2.270
22087W        W94435  44.927  29.034  12.487
22088W        W94436  32.620  24.087  11.438
22089W        W94437  27.690   4.768  13.908
22090W        W94438  17.243   8.307   0.340
22091W        W94439  33.109  30.085   2.791
22092W        W94440  29.153   2.768   0.308
22093W        W94441  17.208  32.599   4.816
22094W        W94442  17.748   2.833   4.675
22095W        W94443  30.558  24.595   2.683
22096W        W94444  11.842  33.984  13.957
22097W        W94445  37.400   4.334  14.440
22098W        W94446   0.800  22.505   2.272
22099W        W94447   5.421  34.409  14.379
22100W        W94448  21.628  12.822   0.361
22101W        W94449  44.776  21.518  14.458
22102W        W94450   5.281  27.113   2.729
22103W        W94451  33.078  44.381  12.967
22104W        W94452  21.550  20.220  13.896
22105W        W94453   7.200  33.491   0.268
22106W        W94454  24.612   4.288  14.478
22107W        W94455  23.510   1.384   0.376
22108W        W94456  27.691  15.173   1.782
22109W        W94457  22.525   4.797   1.222
22110W        W94458   8.383  13.272  10.528
22111W        W94459  44.464  34.907   0.816
22112W        W94460   2.804  16.713  13.403
22113W        W94461   1.758   0.871   4.809
22114W        W94462  15.812  40.504  13.383
22115W        W94463   8.688  26.160   4.755
22116W        W94464   1.970  32.598  14.832
22117W        W94465  10.213  34.975  13.840
22118W        W94466  32.996  36.078   5.221
22119W        W94467   4.759  40.936  13.449
22120W        W94468  24.204  42.291   0.349
22121W        W94469  37.851  20.632  11.122
22122W        W94470   8.879  20.536  14.882
22123W        W94471  30.638   1.315   3.193
22124W        W94472   1.334  35.073  10.476
22125W        W94473  42.790  11.771  13.836
22126W        W94474  39.353  11.815   3.694
22127W        W94475  33.590  35.016   4.715
22128W        W94476  25.676  40.347  10.520
22129W        W94477  25.141  24.723  11.375
22130W        W94478  24.136   7.675  11.024
22131W        W94479  44.467  18.145  14.988
22132W        W94480  33.045   6.193  11.050
22133W        W94481  10.809  37.415  12.512
22134W        W94482  30.564  23.088  13.317
22135W        W94483  26.543  15.106  13.927
22136W        W94484  23.545  38.936   1.771
22137W        W94485  30.970  31.488   2.777
22138W        W94486  24.676  30.621   0.900
22139W        W94487  12.644  25.962  11.529
22140W        W94488  14.769  15.714  13.810
22141W        W94489   7.681  12.182   3.712
22142W        W94490   7.701  24.990  13.944
22143W        W94491   1.937   4.307   0.248
22144W        W94492  40.008  27.017   1.898
22145W        W94493  24.692  15.203  13.917
22146W        W94494   4.390  26.061   4.122
22147W        W94495   3.778  44.850   2.314
22148W        W94496  16.287   3.763   0.370
22149W        W94497  27.616  33.424  13.941
22150W        W94498  18.545  12.704  12.427
22151W        W94499   8.888  18.609  11.454
22152W        W94500  33.536  10.343  14.335
22153W        W94501  25.197  32.142   4.126
22154W        W94502   4.925  21.136   4.294
22155W        W94503   3.263  38.985   0.814
22156W        W94504  37.887  11.177   3.719
22157W        W94505   2.821  41.311  12.062
22158W        W94506  11.688  11.746   2.345
22159W        W94507  36.406   6.240  13.986
22160W        W94508  10.655  35.920  11.575
22161W        W94509  33.055  41.395  12.019
22162W        W94510  34.493  22.718   1.229
22163W        W94511  17.729  13.261  13.485
22164W        W94512   8.747  10.253   3.829
22165W        W94513  33.584  18.192  14.943
22166W        W94514  11.824  32.420  13.948
22167W        W94515  44.998  15.592  12.534
22168W        W94516  44.842   6.425  14.438
22169W        W94517  14.623  31.009   0.453
22170W        W94518  14.315  42.965  12.553
22171W        W94519  26.683  14.715  10.970
22172W        W94520  34.473   7.730  14.983
22173W        W94521  20.130  28.595  11.127
22174W        W94522  31.426   0.449   0.345
22175W        W94523  30.571   0.923  11.460
22176W        W94524  25.593  17.161  13.053
22177W        W94525   1.324  24.973  13.882
22178W        W94526  16.698   1.918  14.892
22179W        W94527  40.454  33.382   0.306
22180W        W94528   9.361  25.962   0.396
22181W        W94529   5.386  24.050  14.298
22182W        W94530   1.756  29.534   4.242
22183W        W94531  12.125   0.271   0.272
22184W        W94532  25.565  35.869  10.117
22185W        W94533   8.819   6.864  10.903
22186W        W94534   6.271  44.881   0.481
22187W        W94535   3.232  11.843   3.693
22188W        W94536   1.827   6.200  12.407
22189W        W94537  30.423   7.786  10.894
22190W        W94538  17.062  31.512  11.888
22191W        W94539  38.504  10.304  10.619
22192W        W94540  42.473   1.257  11.584
22193W        W94541  34.407  42.792   2.698
22194W        W94542  12.611  27.940   2.299
22195W        W94543  15.719  26.583  13.413
22196W        W94544  31.648  31.447   1.841
22197W        W94545  37.541   6.370  11.392
22198W        W94546   9.872  35.491   3.818
22199W        W94547  29.644  18.650  10.895
22200W        W94548  22.656  12.624  12.000
22201W        W94549  17.103  19.724  13.448
22202W        W94550  22.725  28.586   3.718
22203W        W94551  18.590  31.601   4.211
22204W        W94552  22.657  13.113   2.758
22205W        W94553  25.140  15.232  14.332
22206W        W94554  43.435   1.430  11.520
22207W        W94555  30.007  13.602  12.466
22208W        W94556  37.361   7.372  12.395
22209W        W94557   9.768  37.581   0.467
22210W        W94558  12.335  36.983   0.453
22211W        W94559  15.680   4.772  14.444
22212W        W94560  19.076  43.358   0.804
22213W        W94561   7.363  27.943   4.819
22214W        W94562  42.030  11.140   2.708
22215W        W94563   8.660  26.501  14.376
22216W        W94564  21.596  27.644   4.606
22217W        W94565  42.454  19.629  11.495
22218W        W94566  17.746  24.093   0.881
22219W        W94567  31.904  27.971  14.320
22220W        W94568  30.463   9.206  12.536
22221W        W94569  28.557  26.160  10.499
22222W        W94570  13.709  39.812   4.775
22223W        W94571  42.983  34.511  12.008
22224W        W94572  29.958   3.457   4.149
22225W        W94573  32.130   5.885  13.810
22226W        W94574  10.217   5.882  10.133
22227W        W94575  25.470  15.242  12.893
22228W        W94576   6.816   0.891  10.981
22229W        W94577  10.873  16.631  13.985
22230W        W94578   0.482   7.189   0.250
22231W        W94579  11.762   3.949   2.209
22232W        W94580   5.399  11.639   4.640
22233W        W94581  36.511  20.671   0.842
22234W        W94582  41.913  31.422  11.066
22235W        W94583  26.032   2.332   1.712
22236W        W94584   7.802   1.324   2.219
22237W        W94585  19.278  32.518  13.444
22238W        W94586  13.344  36.562   0.305
22239W        W94587   8.874  30.435  12.985
22240W        W94588   6.270  24.072   3.859
22241W        W94589  16.161  12.665   2.789
22242W        W94590   3.730  31.405   0.927
22243W        W94591  24.559  24.210  11.924
22244W        W94592   3.799  33.024  13.386
22245W        W94593   9.217   5.354   0.311
22246W        W94594  28.628  30.126  13.534
22247W        W94595  24.714  15.792  10.580
22248W        W94596  12.749  26.186   1.280
22249W        W94597  32.609  26.463   2.244
22250W        W94598  14.213  38.882  11.456
22251W        W94599  20.709  24.547   0.331
22252W        W94600  13.765  30.968  10.954
22253W        W94601  39.050   1.435  12.856
22254W        W94602   5.708   6.270  14.399
22255W        W94603  23.078  20.589   1.379
22256W        W94604  31.516   6.729  10.425
22257W        W94605  23.622  10.295  11.612
22258W        W94606  12.151  23.623  10.990
22259W        W94607   4.323   3.285  14.474
22260W        W94608   9.192  29.550   3.147
22261W        W94609  30.522  18.051  11.103
22262W        W94610  18.168  20.031  10.918
22263W        W94611   9.828  40.443  10.503
22264W        W94612  11.796  23.212  10.462
22265W        W94613   9.823  32.604  12.383
22266W        W94614  36.444   9.350   4.710
22267W        W94615  18.574  11.278  12.392
22268W        W94616  28.519  28.642  11.991
22269W        W94617  43.479  11.760   3.767
22270W        W94618  31.012  29.927  13.411
22271W        W94619  26.695   0.352  14.975
22272W        W94620  40.029  26.486  14.795
22273W        W94621   9.715   6.766   1.357
22274W        W94622  14.233  34.414  14.802
22275W        W94623   4.245  34.592  14.953
22276W        W94624  15.249  36.552  12.866
22277W        W94625  30.111   0.265  13.016
22278W        W94626  16.787   1.435   2.793
22279W        W94627  12.362  21.190  12.043
22280W        W94628   8.658  17.599  14.394
22281W        W94629  12.703  27.689   0.267
22282W        W94630  38.895   1.751   1.346
22283W        W94631   2.900  17.574  13.344
22284W        W94632  15.740  30.581  13.837
22285W        W94633  16.277  28.658   3.209
22286W        W94634  40.412  18.052   2.681
22287W        W94635  10.281  18.626  14.026
22288W        W94636  38.495  25.663  12.953
22289W        W94637  15.243   9.312  10.462
22290W        W94638  31.455  31.951   4.256
22291W        W94639   2.271  40.347  12.506
22292W        W94640  40.515  39.389   2.730
22293W        W94641  32.052  16.633  10.111
22294W        W94642  21.594  19.633  10.439
22295W        W94643  10.169   9.367   1.791
22296W        W94644  34.460  29.453  11.063
22297W        W94645  26.013  43.987   3.834
22298W        W94646  31.102  15.712  11.441
22299W        W94647  33.625  40.809  12.458
22300W        W94648  24.519  33.039  11.512
22301W        W94649   9.716  30.037   4.211
22302W        W94650   7.756   0.892   0.899
22303W        W94651  29.071   8.868  11.107
22304W        W94652   3.936  15.615   4.180
22305W        W94653  31.522  27.506  14.810
22306W        W94654  21.706  36.560   1.717
22307W        W94655  32.087  29.515  13.425
22308W        W94656  35.604   4.932  13.448
22309W        W94657  33.444  13.202  12.571
22310W        W94658   2.426  37.884  10.589
22311W        W94659   0.490  43.302   1.781
22312W        W94660  27.656  22.687   0.745
22313W        W94661  27.987  41.456  11.528
22314W        W94662  44.342  28.111   2.371
22315W        W94663  30.108   3.279   0.367
22316W        W94664  37.853  27.991   3.829
22317W        W94665  35.037   7.281  11.476
22318W        W94666   7.239  11.363   2.377
22319W        W94667  37.948  30.939   0.758
22320W        W94668  20.212  30.446  13.450
22321W        W94669  33.447  35.013  12.513
22322W        W94670  25.478   6.256   0.856
22323W        W94671  34.522  14.835  12.562
22324W        W94672  43.383   9.785   2.241
22325W        W94673  41.509   6.300   1.841
22326W        W94674  33.475  30.040   1.361
22327W        W94675  20.524  30.057   5.678
22328W        W94676  23.509  20.180  11.607
22329W        W94677  11.247  20.059   2.252
22330W        W94678   6.921  21.628  14.920
22331W        W94679  34.103  10.690  13.335
22332W        W94680  30.157  22.153   3.802
22333W        W94681  41.407  32.418  10.555
22334W        W94682  13.191  30.010  10.468
22335W        W94683  19.249  24.217  10.900
22336W        W94684   8.713   2.900   2.700
22337W        W94685  13.287  31.585   4.193
22338W        W94686  33.522  38.062  11.454
22339W        W94687  20.709  11.324   4.211
22340W        W94688  38.452  23.575  10.501
22341W        W94689  34.073  20.226  11.037
22342W        W94690  31.431  20.743   3.836
22343W        W94691  44.501  24.145   4.215
22344W        W94692  41.413  28.132  10.496
22345W        W94693  29.612   5.342  13.003
22346W        W94694  42.450   5.880  11.061
22347W        W94695  26.118  21.550  14.426
22348W        W94696  41.362  28.584  12.889
22349W        W94697  11.180  11.342   1.708
22350W        W94698  39.876  35.976   3.187
22351W        W94699  33.052  35.530   9.961
22352W        W94700   6.780   5.773   0.474
22353W        W94701  36.379   3.888  14.974
22354W        W94702  32.610  10.193   3.272
22355W        W94703  21.130  44.469   3.662
22356W        W94704  14.635  29.004   2.894
22357W        W94705  22.101  43.295   2.406
22358W        W94706  14.829  14.812  10.534
22359W        W94707  16.713  24.999  11.393
22360W        W94708   6.749  26.178  14.008
22361W        W94709  28.438  12.780   2.823
22362W        W94710  28.185  43.475  10.629
22363W        W94711  26.674  18.107  12.551
22364W        W94712   0.956  40.504   3.315
22365W        W94713  27.538  15.096   2.180
22366W        W94714  15.693  17.724  10.560
22367W        W94715  14.710  23.150   4.709
22368W        W94716  16.078  24.035   4.249
22369W        W94717   1.336   2.882  11.953
22370W        W94718  40.958  34.969  12.486
22371W        W94719  21.054  28.935   1.378
22372W        W94720  35.020  42.518  11.960
22373W        W94721  15.124  20.548  10.632
22374W        W94722  38.897  22.663  12.951
22375W        W94723  25.966  31.149  12.339
22376W        W94724  44.863  13.644   0.736
22377W        W94725  44.498  10.714   1.298
22378W        W94726   5.853   7.731  12.459
22379W        W94727  43.847  21.589   0.402
22380W        W94728   9.364  41.373  13.988
22381W        W94729  23.706  35.478  10.479
22382W        W94730  22.165   4.867  14.909
22383W        W94731  15.589  27.657   4.798
22384W        W94732   5.687  16.246  13.928
22385W        W94733  30.522   2.290   5.307
22386W        W94734  41.294   0.412  11.464
22387W        W94735  24.151  26.094   0.333
22388W        W94736  17.135  21.041   5.244
22389W        W94737  10.201   3.755   4.744
22390W        W94738  26.665  44.458  12.987
22391W        W94739  26.100  40.878   0.787
22392W        W94740  40.304  27.474  12.468
22393W        W94741  33.535  10.257   5.094
22394W        W94742   7.819  42.447   3.328
22395W        W94743  10.864  13.838   4.195
22396W        W94744  13.107  25.591  14.853
22397W        W94745  22.028  38.852   4.265
22398W        W94746  20.087  30.629   2.320
22399W        W94747   7.766  13.198   3.795
22400W        W94748   4.887  12.350   1.333
22401W        W94749   8.853  27.506  14.774
22402W        W94750  32.560   2.782   1.333
22403W        W94751  34.893  40.973   4.258
22404W        W94752   7.869  36.888   3.307
22405W        W94753  44.365  29.936   3.158
22406W        W94754  29.552  34.976   4.328
22407W        W94755  36.365  14.105   3.868
22408W        W94756  37.407  27.665  14.356
22409W        W94757  33.874  37.907   1.790
22410W        W94758  24.678  29.927  11.497
22411W        W94759  44.348   7.882  11.592
22412W        W94760  13.678  35.455  13.536
22413W        W94761  17.591  13.172   4.120
22414W        W94762  27.033   5.807   2.901
22415W        W94763  20.163  42.936   1.755
22416W        W94764  10.370  32.456   2.857
22417W        W94765   0.458  34.977   1.277
22418W        W94766  12.792  42.919  11.387
22419W        W94767  18.296  43.452  12.461
22420W        W94768  37.451  42.851   1.442
22421W        W94769  11.210  23.702   0.286
22422W        W94770  33.446  39.483   4.676
22423W        W94771   0.883  19.248  13.981
22424W        W94772  35.106  40.475   1.930
22425W        W94773  11.286  22.052   1.367
22426W        W94774   5.816   5.688   1.272
22427W        W94775  31.006   6.337   4.613
22428W        W94776  27.137  35.433  11.092
22429W        W94777  18.257  18.159   4.143
22430W        W94778  39.809  20.734  12.936
22431W        W94779  25.665  29.925  14.498
22432W        W94780  30.126  10.368   2.358
22433W        W94781  12.150  44.303   3.261
22434W        W94782   8.297  16.631  14.364
22435W        W94783  23.501  19.041   0.480
22436W        W94784  43.841  29.067  10.961
22437W        W94785  27.478  29.006  13.820
22438W        W94786  25.991  35.916   2.807
22439W        W94787  36.359  35.059  13.059
22440W        W94788  24.118   5.365   1.368
22441W        W94789  31.948  14.164  11.524
22442W        W94790  29.440   8.195   4.691
22443W        W94791  34.063  31.057   4.245
22444W        W94792   3.455   8.183   2.903
22445W        W94793  30.909  33.449   1.868
22446W        W94794  32.449  28.625   0.775
22447W        W94795  26.546  44.775   2.239
22448W        W94796  31.567  27.672  13.523
22449W        W94797  33.892  23.069  12.862
22450W        W94798  35.542  18.197   0.332
22451W        W94799  24.106  35.437   3.762
22452W        W94800   5.929  30.004  13.318
22453W        W94801  34.468  15.719  13.980
22454W        W94802  20.256  26.525  12.979
22455W        W94803  39.050  42.880   9.942
22456W        W94804  40.811  32.607  11.510
22457W        W94805  11.260  17.701   4.728
22458W        W94806  15.188  25.659  13.406
22459W        W94807  22.072  20.082  13.515
22460W        W94808   9.374  22.558  12.858
22461W        W94809  15.106  22.122  14.969
22462W        W94810  29.096  15.630  12.354
22463W        W94811  42.832   5.700   4.290
22464W        W94812  15.627  16.083  13.055
22465W        W94813  34.062  33.925  11.386
22466W        W94814  11.192   5.889  13.864
22467W        W94815  33.007   7.341  12.471
22468W        W94816  32.009  10.243  13.917
22469W        W94817  11.165  43.000  14.995
22470W        W94818  21.107  31.005   3.159
22471W        W94819   2.758  24.593   3.770
22472W        W94820  17.568  23.087   2.333
22473W        W94821  41.818   2.260   2.250
22474W        W94822  24.581  29.579   4.294
22475W        W94823  35.910  31.593  12.823
22476W        W94824  36.051  31.550   3.175
22477W        W94825  17.287   0.800  12.525
22478W        W94826  33.111  34.111   4.774
22479W        W94827  24.500   7.685  11.901
22480W        W94828  14.758  14.191   3.685
22481W        W94829  29.595  19.048  14.477
22482W        W94830  43.355  35.424  12.823
22483W        W94831  26.068   8.867   4.340
22484W        W94832   1.462   8.664   0.288
22485W        W94833   8.766  23.671  14.438
22486W        W94834  43.389   9.228   3.823
22487W        W94835  29.049  42.496  12.961
22488W        W94836  20.531  29.599   0.780
22489W        W94837  39.066  32.571  14.993
22490W        W94838  42.972   6.749   0.276
22491W        W94839  12.269  29.495  11.597
22492W        W94840  18.634  16.759   0.386
22493W        W94841  10.308  29.530   5.211
22494W        W94842  17.282  36.566  10.640
22495W        W94843  20.185  14.264  12.934
22496W        W94844  24.102   7.888   9.619
22497W        W94845   1.897   1.477  14.938
22498W        W94846  27.561  24.048  13.363
22499W        W94847   4.361   5.399   3.722
22500W        W94848  12.184  11.762   4.721
22501W        W94849  26.536   3.741   2.670
22502W        W94850   9.328  34.543   4.688
22503W        W94851  31.580  27.083   4.222
22504W        W94852  39.005   6.824   0.783
22505W        W94853  38.498  10.199   0.922
22506W        W94854   4.211  12.684   1.238
22507W        W94855   2.409   5.419   0.731
22508W        W94856  25.968  26.068   0.246
22509W        W94857  11.302  40.960   0.419
22510W        W94858  23.703   5.323   0.915
22511W        W94859   1.369  24.054  12.057
22512W        W94860  33.996  17.751   0.952
22513W        W94861  33.397  18.120   4.200
22514W        W94862  20.737  28.961  14.337
22515W        W94863  39.431   3.711   1.222
22516W        W94864  27.584  31.420  14.951
22517W        W94865  27.003  11.836   3.864
22518W        W94866   0.950  26.602  11.512
22519W        W94867  33.523  27.007   1.411
22520W        W94868  29.553  23.495  13.442
22521W        W94869  23.691   1.462   4.636
22522W        W94870  31.084   6.749  11.552
22523W        W94871   1.789  35.379   2.404
22524W        W94872  11.269  20.739   5.641
22525W        W94873   4.318  12.663   0.401
22526W        W94874   2.462  43.815  14.275
22527W        W94875  27.477   6.192   3.867
22528W        W94876   5.732  41.016  12.074
22529W        W94877  40.340  35.410   1.418
22530W        W94878   9.329   4.758   2.721
22531W        W94879   7.332  22.153   3.869
22532W        W94880  10.799  26.966   0.761
22533W        W94881  44.978  30.115   4.183
22534W        W94882  10.871  42.989  14.768
22535W        W94883  35.444  29.586  12.049
22536W        W94884  25.992  18.572  14.940
22537W        W94885  36.934   2.334  12.086
22538W        W94886  14.233   6.836   3.231
22539W        W94887  38.895  35.081  13.315
22540W        W94888  35.384  26.606  11.895
22541W        W94889   1.261  21.024  11.909
22542W        W94890  13.223   8.709  11.047
22543W        W94891  42.515  15.736  10.888
22544W        W94892  18.173   7.382  13.542
22545W        W94893  43.850   5.892  12.968
22546W        W94894  28.942  37.424   2.200
22547W        W94895  17.800  13.175   2.901
22548W        W94896  26.207  14.308  14.494
22549W        W94897   5.256   2.429   4.745
22550W        W94898  16.237  13.219   2.259
22551W        W94899  28.950  37.493  11.602
22552W        W94900  43.370  17.791  14.452
22553W        W94901  17.261  36.571   2.385
22554W        W94902  36.009  37.336   0.947
22555W        W94903  20.160  22.179   0.453
22556W        W94904   3.823  11.832  12.518
22557W        W94905  39.988  42.491   1.387
22558W        W94906   8.681   3.314  10.959
22559W        W94907  33.568  17.689  10.039
22560W        W94908   4.268  32.500  13.908
22561W        W94909  22.037  12.288   2.237
22562W        W94910   0.974  11.233  13.335
22563W        W94911  21.573   4.909   0.835
22564W        W94912  40.806  36.453  12.075
22565W        W94913   9.298  32.893   2.234
22566W        W94914  44.293   4.444  12.838
22567W        W94915  28.099   1.369  14.868
22568W        W94916  12.280  18.625   0.299
22569W        W94917  29.600  19.691   4.314
22570W        W94918  18.585  13.312   2.669
22571W        W94919  15.140   4.861  11.449
22572W        W94920  23.196  24.597   3.793
22573W        W94921  22.176   3.948  13.468
22574W        W94922  16.734  21.581   1.840
22575W        W94923  33.527  16.676   0.764
22576W        W94924  32.971  36.504   2.664
22577W        W94925  37.835  25.655   4.684
22578W        W94926  43.019  10.232   3.867
22579W        W94927  29.596  37.965   0.416
22580W        W94928   2.960   6.757  13.905
22581W        W94929  19.190  13.303  12.548
22582W        W94930   0.951  18.699  10.588
22583W        W94931  33.580  28.167   1.889
22584W        W94932  11.653  15.667   4.171
22585W        W94933  38.471  42.500   2.208
22586W        W94934  25.539   8.363   9.637
22587W        W94935  19.122   4.318   3.821
22588W        W94936  34.396  25.572   2.842
22589W        W94937  16.139  19.650   0.755
22590W        W94938  43.966  30.484   1.719
22591W        W94939   9.858  23.606   3.822
22592W        W94940  29.952  12.210   3.798
22593W        W94941  39.938  22.704   3.637
22594W        W94942  30.956  24.219   4.291
22595W        W94943  39.002  30.139  10.551
22596W        W94944   1.476  43.349  12.032
22597W        W94945   2.761  20.210   2.203
22598W        W94946  28.512  28.650  11.466
22599W        W94947  32.902  20.044   1.405
22600W        W94948  15.141  23.022   1.215
22601W        W94949   5.736  11.794   4.279
22602W        W94950   0.303   3.883  13.841
22603W        W94951   4.280  17.143  10.595
22604W        W94952  15.740  40.345   1.335
22605W        W94953  31.459  19.139  12.852
22606W        W94954  28.487   0.764   2.733
22607W        W94955  15.594   7.682  13.492
22608W        W94956  43.506  39.817   3.341
22609W        W94957  26.984  25.498  14.328
22610W        W94958   5.284  25.483  14.366
22611W        W94959  37.914  12.229   0.727
22612W        W94960  30.590  33.110   3.319
22613W        W94961  28.080   8.826   0.886
22614W        W94962  17.708   3.846  13.046
22615W        W94963  26.612  32.922  12.902
22616W        W94964   7.772  21.668   3.661
22617W        W94965  26.985   3.774   2.188
22618W        W94966   3.795  29.009   4.670
22619W        W94967  35.453  10.637   2.366
22620W        W94968   9.158  42.390  14.800
22621W        W94969   5.771   8.771  11.551
22622W        W94970  15.685  42.515  11.115
22623W        W94971  37.014  21.751  13.033
22624W        W94972   8.258  16.282   1.305
22625W        W94973   9.814  29.659  14.384
22626W        W94974  28.479  41.916   3.719
22627W        W94975  41.968  23.603   3.679
22628W        W94976  37.446  41.300   0.728
22629W        W94977   5.211  19.186   3.817
22630W        W94978  18.098  39.532  10.611
22631W        W94979  12.208  13.247  12.510
22632W        W94980  43.365   9.364  10.434
22633W        W94981  10.216  22.583  14.870
22634W        W94982  25.476  27.003   3.857
22635W        W94983  32.468  26.099  12.460
22636W        W94984  41.500  37.939  11.008
22637W        W94985   6.360   1.764   3.783
22638W        W94986  30.990   6.314   0.338
22639W        W94987  43.768  10.380  12.550
22640W        W94988  43.311   1.917  12.876
22641W        W94989  44.478  34.489   3.364
22642W        W94990  38.403   3.257   1.416
22643W        W94991  42.466  16.118  14.368
22644W        W94992  11.704  18.635  14.967
22645W        W94993   4.371  10.304  10.895
22646W        W94994   2.434   9.170   3.174
22647W        W94995  34.011  37.367  11.525
22648W        W94996   2.387  16.688  13.951
22649W        W94997  13.289   2.774   3.779
22650W        W94998  33.949   1.799   3.820
22651W        W94999  12.815  20.735  11.904
22652W        W95000  32.493  23.150  12.903
22653W        W95001  23.104  26.005  12.056
22654W        W95002  24.017  40.377  13.057
22655W        W95003  23.115   9.362  14.969
22656W        W95004  15.802  38.517   1.893
22657W        W95005  43.935   6.864   2.229
22658W        W95006   8.344  43.501  13.437
22659W        W95007  32.916  38.844   3.335
22660W        W95008  18.068   1.394  11.548
22661W        W95009  34.543  22.605  14.361
22662W        W95010  28.473   7.800   2.718
22663W        W95011  44.279   4.924   2.361
22664W        W95012   5.881  24.047   0.965
22665W        W95013  12.775  17.595   1.395
22666W        W95014  15.158   1.892  14.808
22667W        W95015  30.027  34.425   3.226
22668W        W95016  31.431  31.466  13.011
22669W        W95017  25.509  42.962  13.894
22670W        W95018  42.497  43.874   3.669
22671W        W95019  14.275  32.630   2.733
22672W        W95020  28.450   9.883   2.767
22673W        W95021   1.831  27.456   4.737
22674W        W95022   1.923  37.978  14.792
22675W        W95023  36.572  31.432   3.175
22676W        W95024   0.358  17.592  11.503
22677W        W95025   5.403  21.155   2.295
22678W        W95026  44.384  14.218   0.474
22679W        W95027   1.950  29.951   4.268
22680W        W95028   8.835   1.945  10.617
22681W        W95029   9.325  25.474  14.015
22682W        W95030   2.925  42.439  12.974
22683W        W95031  18.787  29.144   0.308
22684W        W95032   1.939   9.179   1.247
22685W        W95033  30.982   6.185  13.982
22686W        W95034  32.607  36.960  14.920
22687W        W95035   5.274  32.908  10.432
22688W        W95036  37.433  24.985  10.962
22689W        W95037  13.788   4.789  11.412
22690W        W95038  37.000  27.098   1.279
22691W        W95039  16.714  16.253  12.933
22692W        W95040  33.893  40.545   1.435
22693W        W95041  17.792  16.241  14.923
22694W        W95042  17.619   3.948   3.335
22695W        W95043  31.151   2.890  14.762
22696W        W95044   7.670   9.218   2.234
22697W        W95045  40.529   5.260   2.711
22698W        W95046  19.705  14.179   2.678
22699W        W95047  41.317   7.876   2.203
22700W        W95048  33.432  36.871  12.997
22701W        W95049  42.419  44.463  14.377
22702W        W95050  14.295  25.629  14.869
22703W        W95051   6.757   3.904  11.037
22704W        W95052   1.366  25.709  14.945
22705W        W95053   2.932  39.052  11.515
22706W        W95054  28.676  20.069   3.797
22707W        W95055  28.644  35.866   4.609
22708W        W95056  37.006   7.389   3.746
22709W        W95057  27.574  21.553   0.852
22710W        W95058  25.645   5.248  14.306
22711W        W95059  24.558  15.688  14.835
22712W        W95060  12.177   7.355   2.893
22713W        W95061  28.061  13.814  10.521
22714W        W95062  23.513  36.360   4.326
22715W        W95063  28.010  34.877  12.026
22716W        W95064  41.017  25.649   2.759
22717W        W95065  14.246  36.862   3.866
22718W        W95066   2.962  43.002   4.335
22719W        W95067  31.518  36.382  13.365
22720W        W95068  32.635  43.895  14.890
22721W        W95069   2.314  11.865   2.206
22722W        W95070  42.309  40.880  14.813
22723W        W95071  15.288  14.094   0.897
22724W        W95072   8.851  28.670  12.397
22725W        W95073  10.766  18.296  14.903
22726W        W95074  40.381  10.305  12.071
22727W        W95075   5.341  30.019   3.386
22728W        W95076  29.667  39.363  11.969
22729W        W95077   3.734   0.904   2.221
22730W        W95078  40.853  42.902   3.349
22731W        W95079  16.083  20.239   1.853
22732W        W95080   5.738  25.046   3.227
22733W        W95081   6.883  26.142   1.232
22734W        W95082  40.372  10.802   1.227
22735W        W95083  32.621  35.858  11.534
22736W        W95084  14.135  20.111   4.683
22737W        W95085  22.038  33.443   2.862
22738W        W95086  17.590  44.368  14.028
22739W        W95087   0.888  16.724  11.085
22740W        W95088  13.312   1.314  10.490
22741W        W95089  42.310  41.503  10.413
22742W        W95090  41.818  17.215  10.926
22743W        W95091   9.710   2.451  12.577
22744W        W95092  33.890  28.501   1.282
22745W        W95093  30.982  10.692   2.300
22746W        W95094  11.257  14.787   0.360
22747W        W95095  26.505   8.831  10.092
22748W        W95096  41.415  33.459   0.949
22749W        W95097  32.032  40.400   5.299
22750W        W95098  39.457   6.265  11.426
22751W        W95099   4.816   5.402  13.371
22752W        W95100   3.864  39.854  12.546
22753W        W95101  15.133  28.092   0.386
22754W        W95102  32.013  10.808  12.020
22755W        W95103   8.347   1.422   0.346
22756W        W95104  36.521   8.736   1.391
22757W        W95105  22.540  41.971   0.915
22758W        W95106  23.540   9.708   0.853
22759W        W95107  19.281  29.495  14.771
22760W        W95108  42.309  25.569  14.998
22761W        W95109  33.966  40.025   3.665
22762W        W95110  24.034  36.435   3.804
22763W        W95111  38.902  26.547  10.910
22764W        W95112  30.493  24.112  11.379
22765W        W95113  27.082  26.536   2.739
22766W        W95114  30.959  10.220  11.059
22767W        W95115   7.255  28.607  14.382
22768W        W95116   2.826  26.152  11.548
22769W        W95117  31.505  26.074   0.740
22770W        W95118  25.207   2.261   1.349
22771W        W95119   0.357  17.591   2.272
22772W        W95120  36.873  24.674  11.449
22773W        W95121  42.465  35.894  13.799
22774W        W95122  24.201   9.738   5.178
22775W        W95123  16.624   4.771  13.971
22776W        W95124  39.333  42.836   5.184
22777W        W95125  22.600  39.362  14.796
22778W        W95126  31.592   1.882   1.309
22779W        W95127  23.558  14.250  10.972
22780W        W95128   1.312  24.528   0.884
22781W        W95129  24.147  30.944   1.923
22782W        W95130   1.949   9.385   3.270
22783W        W95131  39.962  21.124  13.909
22784W        W95132  26.969  41.990   4.692
22785W        W95133   5.921  22.568  13.877
22786W        W95134   8.856   2.751  13.980
22787W        W95135  21.209  14.671   2.243
22788W        W95136   8.360  44.813   3.366
22789W        W95137  40.345  20.707   1.860
22790W        W95138   3.236  15.157  14.839
22791W        W95139  22.173  34.060  10.472
22792W        W95140  37.016   6.425   2.707
22793W        W95141   7.367  38.878   1.243
22794W        W95142  33.443  35.960   4.645
22795W        W95143  44.836   0.928   4.676
22796W        W95144  13.167  44.333   3.760
22797W        W95145  34.894   0.955  12.360
22798W        W95146  17.646  27.103  12.828
22799W        W95147  22.559  30.127  11.029
22800W        W95148   9.788  40.450   2.230
22801W        W95149   8.890   4.253   2.682
22802W        W95150  24.220  38.858   3.667
22803W        W95151  32.900  34.867  14.508
22804W        W95152   2.849  17.690  14.416
22805W        W95153  22.095   1.425  14.507
22806W        W95154  36.539  15.225  14.396
22807W        W95155  29.570   4.353  11.483
22808W        W95156  13.143  36.546  11.882
22809W        W95157  19.650  12.198  14.784
22810W        W95158  33.987   9.644  10.901
22811W        W95159  10.859  11.649  10.026
22812W        W95160  24.099  39.504  13.952
22813W        W95161  12.673  41.876   2.405
22814W        W95162  36.959  31.456   2.797
22815W        W95163   9.384  28.091  11.029
22816W        W95164  10.734  27.554  10.467
22817W        W95165   4.331   3.400  10.505
22818W        W95166   2.933  31.146   0.380
22819W        W95167  44.754  18.096  14.018
22820W        W95168  18.557  27.035  11.095
22821W        W95169  39.997  43.300  13.948
22822W        W95170  28.519  19.073  10.582
22823W        W95171  39.527  33.518  13.357
22824W        W95172  38.884   0.847   3.345
22825W        W95173  38.336  23.702   2.758
22826W        W95174  39.367   9.788  10.561
22827W        W95175  34.443  12.835  11.509
22828W        W95176   9.172  34.983   3.678
22829W        W95177   8.260  44.292  13.816
22830W        W95178  19.741   2.722  13.478
22831W        W95179  41.527   6.338   4.300
22832W        W95180   2.345  37.433   4.257
22833W        W95181  31.063  11.362   0.293
22834W        W95182  19.738  43.999   1.694
22835W        W95183  31.085  33.553   4.656
22836W        W95184  29.993  21.689  14.835
22837W        W95185  25.146   0.277   4.752
22838W        W95186  29.575   8.700   1.247
22839W        W95187   6.870   4.917   1.341
22840W        W95188   8.293  22.243  12.964
22841W        W95189  14.615  32.962  14.923
22842W        W95190  17.791  35.044   2.721
22843W        W95191   4.251  28.134   3.728
22844W        W95192   8.188  11.248   0.391
22845W        W95193  36.075  23.066   9.438
22846W        W95194  34.613  42.281  11.562
22847W        W95195  38.869  13.334  11.510
22848W        W95196  19.109  15.316   1.904
22849W        W95197  19.632  38.021   1.811
22850W        W95198  15.160  41.938   2.191
22851W        W95199  35.036  30.646  10.152
22852W        W95200  13.342  10.758  10.533
22853W        W95201  19.184  34.908   3.742
22854W        W95202   7.817  41.470   0.252
22855W        W95203   2.240  26.115   0.822
22856W        W95204  11.865  42.920   0.346
22857W        W95205  33.892  36.379   0.862
22858W        W95206  37.520  10.158  14.919
22859W        W95207  38.877  39.507  13.808
22860W        W95208   7.278  40.866  12.090
22861W        W95209  36.437  28.142  13.860
22862W        W95210   9.872  15.093  10.554
22863W        W95211   0.970  14.166  12.485
22864W        W95212  18.683  16.602  13.891
22865W        W95213  21.750  35.461   0.760
22866W        W95214   7.751   2.434   0.869
22867W        W95215   3.389  19.714  12.992
22868W        W95216   4.406   3.835  11.957
22869W        W95217   6.426  14.173  13.387
22870W        W95218   1.427  35.464   1.777
22871W        W95219  10.145  15.628  12.004
22872W        W95220  35.934   1.916   1.771
22873W        W95221  31.973  31.432   4.300
22874W        W95222  21.552  41.878   1.929
22875W        W95223  37.836   9.324  14.398
22876W        W95224  13.666  44.968   4.254
22877W        W95225   9.158  23.087  11.535
22878W        W95226   7.362   4.797   3.818
22879W        W95227  10.773  19.244   2.817
22880W        W95228  32.098  26.659   0.312
22881W        W95229  12.651   4.849  13.980
22882W        W95230   2.245   1.470  13.501
22883W        W95231   6.279  18.175   3.704
22884W        W95232  28.047  28.647   4.162
22885W        W95233  11.719  20.569   2.857
22886W        W95234  39.994   7.293  14.501
22887W        W95235  40.874  26.986   4.662
22888W        W95236   1.304   4.734  14.785
22889W        W95237   0.261  20.584  14.918
22890W        W95238  31.582  14.256   2.812
22891W        W95239  22.514  38.010  13.841
22892W        W95240   8.280  40.533   2.300
22893W        W95241   4.843  35.039  12.945
22894W        W95242  12.143   2.868   0.414
22895W        W95243   1.732  33.550  13.836
22896W        W95244   0.935  21.695  14.885
22897W        W95245   7.367  19.642  12.095
22898W        W95246  25.511  40.902   1.434
22899W        W95247   9.725  17.627  12.983
22900W        W95248  30.556  15.149   0.287
22901W        W95249  13.175  43.866   2.830
22902W        W95250  19.186   8.302  11.494
22903W        W95251  40.376  21.736   0.777
22904W        W95252  37.353  38.934  13.967
22905W        W95253  30.911  32.961  14.492
22906W        W95254  30.644  44.279  13.052
22907W        W95255  33.054  32.625  11.022
22908W        W95256  13.334  19.638  14.304
22909W        W95257   8.736   2.945   3.673
22910W        W95258  34.056   5.696   1.874
22911W        W95259   7.784  43.382  11.386
22912W        W95260   4.449  23.644  11.115
22913W        W95261  16.630  12.140   2.670
22914W        W95262   8.193  30.037  13.010
22915W        W95263  34.492  27.196   4.832
22916W        W95264  38.542  22.678   0.754
22917W        W95265   7.271  40.351   3.219
22918W        W95266  31.070  31.995  13.947
22919W        W95267  21.618  11.229  12.983
22920W        W95268  38.506  37.454  11.554
22921W        W95269  44.343  18.231   4.787
22922W        W95270  42.408  35.016  11.575
22923W        W95271  41.822  41.987   1.237
22924W        W95272  29.109   7.301   1.230
22925W        W95273   7.188  26.602  12.350
22926W        W95274   5.702  21.636  10.447
22927W        W95275   4.824  22.665  13.995
22928W        W95276  37.848   7.812   4.324
22929W        W95277   9.708   4.376   2.745
22930W        W95278   7.795   6.786   0.956
22931W        W95279   0.757  23.996  11.028
22932W        W95280   8.173  41.523   0.433
22933W        W95281  23.567   9.368   4.637
22934W        W95282  26.026   4.888  13.326
22935W        W95283  14.809   8.369  14.478
22936W        W95284   2.918  11.131   0.249
22937W        W95285  34.871  35.057  13.016
22938W        W95286  17.210  25.702  14.918
22939W        W95287  28.542  30.597  11.938
22940W        W95288  26.625   6.842   2.670
22941W        W95289   6.231   4.824  13.444
22942W        W95290   2.375  37.391  13.021
22943W        W95291  33.467  31.003   2.666
22944W        W95292  38.038  17.306   3.752
22945W        W95293   4.838   1.338  14.981
22946W        W95294  13.752  12.808  12.387
22947W        W95295  43.849   5.394   1.314
22948W        W95296  20.084  22.555  13.048
22949W        W95297  14.119  22.720   4.280
22950W        W95298  38.074  36.032  12.461
22951W        W95299  34.570  27.557   0.306
22952W        W95300   5.751  31.988   3.699
22953W        W95301   9.806   6.192   4.262
22954W        W95302  28.151  26.585  14.362
22955W        W95303  38.975  44.407  12.852
22956W        W95304  26.642  10.255  12.849
22957W        W95305   9.161   8.256  14.966
22958W        W95306  40.363   2.349   0.760
22959W        W95307  34.551  15.596   4.118
22960W        W95308  44.377  19.632  11.558
22961W        W95309  20.260  10.379  11.468
22962W        W95310  13.718  20.143   3.181
22963W        W95311   9.247   0.303  10.992
22964W        W95312  27.068  22.022   1.318
22965W        W95313  38.346  24.206  13.529
22966W        W95314  14.324  33.476   4.802
22967W        W95315  43.978   3.251   3.365
22968W        W95316  40.896  24.062   1.249
22969W        W95317  20.195  40.930  11.892
22970W        W95318  38.849  31.010   3.860
22971W        W95319  22.221  19.728   3.303
22972W        W95320  15.195  10.342  11.522
22973W        W95321  42.461  30.908  10.644
22974W        W95322   0.972  24.690  13.533
22975W        W95323  10.721   5.756  11.937
22976W        W95324  40.930  35.369   0.903
22977W        W95325   1.774  21.741   1.321
22978W        W95326  34.537  16.742  14.800
22979W        W95327  16.273  25.705   4.125
22980W        W95328   5.923  25.000  11.572
22981W        W95329  32.569  29.993   3.643
22982W        W95330  11.777  10.862  10.594
22983W        W95331  11.674  15.096   3.847
22984W        W95332  34.608   5.708  13.030
22985W        W95333   7.219  33.393  10.022
22986W        W95334  44.851   1.806  10.944
22987W        W95335   8.768  34.057  14.879
22988W        W95336  41.818  12.362   4.759
22989W        W95337  32.048  21.690  14.290
22990W        W95338  42.868  11.655  11.599
22991W        W95339  35.865   5.910  11.556
22992W        W95340  34.059   5.249  14.005
22993W        W95341  35.102  24.703   4.260
22994W        W95342  25.135   3.403   4.246
22995W        W95343   2.899   7.724  12.979
22996W        W95344  23.003  17.110   4.643
22997W        W95345  29.173  19.748   1.381
22998W        W95346  25.065  14.247  12.841
22999W        W95347  19.559   3.430  11.866
23000W        W95348  34.501   8.891   1.394
23001W        W95349  37.948  36.028  13.915
23002W        W95350  11.139  21.143   2.346
23003W        W95351  29.511  30.609  12.507
23004W        W95352  10.282   1.385   0.885
23005W        W95353   4.209  19.238  12.927
23006W        W95354  18.720   5.807   1.862
23007W        W95355   5.873  21.097  10.457
23008W        W95356  35.570   5.300   5.714
23009W        W95357  33.598  41.023   2.306
23010W        W95358  19.061   6.368   4.154
23011W        W95359  24.546  10.235   0.825
23012W        W95360  39.523  11.829   1.900
23013W        W95361  15.297  42.864  10.048
23014W        W95362  30.986  35.021  12.908
23015W        W95363  21.055  20.683  11.515
23016W        W95364  21.079   4.368   2.755
23017W        W95365  18.227  18.262  14.373
23018W        W95366   0.831  36.588   0.855
23019W        W95367   2.752  44.920  14.508
23020W        W95368  35.992  42.324  13.840
23021W        W95369  19.622   8.392   0.921
23022W        W95370  23.595  37.452  10.027
23023W        W95371   7.241  21.663  13.007
23024W        W95372  10.817  16.226   2.705
23025W        W95373  22.698  19.069   3.311
23026W        W95374  36.448  38.510  12.856
23027W        W95375   3.223  38.542  11.939
23028W        W95376  38.003  38.834   9.956
23029W        W95377   1.295  43.322  13.372
23030W        W95378   7.864  40.932   2.303
23031W        W95379   8.676  44.275   4.138
23032W        W95380  36.446  36.945   2.750
23033W        W95381  28.967   0.320   0.808
23034W        W95382  17.658  20.689  12.356
23035W        W95383  27.022  25.101  14.015
23036W        W95384  34.586  28.941  14.282
23037W        W95385  26.967  16.639   2.840
23038W        W95386  20.660  21.653  12.974
23039W        W95387  10.237   7.225   0.863
23040W        W95388   2.323  28.521   0.875
23041W        W95389  17.719  29.588  12.957
23042W        W95390   1.952   3.226   4.171
23043W        W95391  35.375  40.030  11.462
23044W        W95392  38.842   6.866   2.352
23045W        W95393   4.295   8.336  10.641
23046W        W95394  14.795  42.842   1.749
23047W        W95395  24.610  19.584  14.872
23048W        W95396  42.522   0.952   3.807
23049W        W95397  41.883  12.324  11.590
23050W        W95398  27.982  24.118  13.418
23051W        W95399   3.224  23.147   2.376
23052W        W95400  30.635   3.409  12.488
23053W        W95401   2.938  28.092   3.162
23054W        W95402  29.136   5.278   3.688
23055W        W95403  23.035   5.345   2.898
23056W        W95404  26.127  10.341   1.439
23057W        W95405  16.699   0.931   4.340
23058W        W95406  18.285  41.332   2.835
23059W        W95407  18.271  23.500  13.508
23060W        W95408  26.613  10.161   3.225
23061W        W95409  11.621   6.888  13.441
23062W        W95410  40.871  36.443   1.825
23063W        W95411   2.759  20.236  13.924
23064W        W95412  38.487   6.762  10.512
23065W        W95413  36.367  28.015   2.792
23066W        W95414   8.341   2.374  13.374
23067W        W95415  23.193  37.895  14.339
23068W        W95416  32.462   7.746  11.429
23069W        W95417  16.255  17.251   2.807
23070W        W95418  30.952   0.277  13.349
23071W        W95419  26.207  37.016  12.901
23072W        W95420   5.283  38.436  14.945
23073W        W95421  18.234  14.189   4.801
23074W        W95422  40.832  35.096   1.375
23075W        W95423  31.048   5.689  10.151
23076W        W95424  18.181  20.568  14.971
23077W        W95425  19.273  17.564   1.759
23078W        W95426  29.666  33.070   3.709
23079W        W95427   9.326  29.037   0.453
23080W        W95428   6.801  36.534  12.423
23081W        W95429   3.874   8.670  13.943
23082W        W95430  42.452  15.096   0.903
23083W        W95431  37.452   2.320  14.388
23084W        W95432   4.926  23.649  11.035
23085W        W95433   5.382  39.473  13.365
23086W        W95434  30.584  13.168   0.477
23087W        W95435  19.676   9.311   3.857
23088W        W95436   3.428   6.689   4.707
23089W        W95437  30.033  14.282  11.905
23090W        W95438  26.196   8.261  14.764
23091W        W95439   9.685  32.460  10.098
23092W        W95440  16.098  19.112  11.925
23093W        W95441  43.280  32.934  11.912
23094W        W95442  38.556  38.940  11.087
23095W        W95443  25.062  24.509  12.882
23096W        W95444  27.659  44.294  13.965
23097W        W95445  15.680  37.537   2.875
23098W        W95446  44.295  13.143   4.216
23099W        W95447   9.694  40.980   2.413
23100W        W95448  25.606  36.040  11.015
23101W        W95449  22.039  24.488   3.276
23102W        W95450  12.187  20.036   2.238
23103W        W95451  19.247  25.583   3.348
23104W        W95452  40.468  18.209   2.279
23105W        W95453  13.807  23.606  12.506
23106W        W95454  10.269  26.517  10.634
23107W        W95455  18.699  43.019  12.962
23108W        W95456  13.618  27.647  13.792
23109W        W95457  35.104  36.023  12.982
23110W        W95458   5.425   0.946  11.545
23111W        W95459   4.857  24.205  14.325
23112W        W95460  23.219   9.678   3.167
23113W        W95461  44.762   9.393   4.653
23114W        W95462  40.011  23.198   3.740
23115W        W95463  38.928   3.330   0.266
23116W        W95464  41.905  37.457   4.195
23117W        W95465   2.377   4.880   2.688
23118W        W95466  35.086  32.036   5.130
23119W        W95467  11.800  15.783   2.247
23120W        W95468  12.835  42.972   1.846
23121W        W95469  41.829  22.531   1.816
23122W        W95470   0.932  29.098  12.403
23123W        W95471  31.435  20.612   1.282
23124W        W95472   6.823   4.290  13.040
23125W        W95473   8.302  40.817   1.360
23126W        W95474  18.761  18.651  14.421
23127W        W95475  36.582  36.422   1.443
23128W        W95476  19.747   8.676   1.369
23129W        W95477  36.348  19.537   0.813
23130W        W95478  16.594  25.049   3.788
23131W        W95479  14.589  25.012  12.882
23132W        W95480  32.050  33.384   4.702
23133W        W95481  17.103   1.748   1.370
23134W        W95482  40.329  42.472  11.079
23135W        W95483  42.307   2.294   0.428
23136W        W95484   1.744   9.841   1.918
23137W        W95485  38.533   7.820   0.439
23138W        W95486  37.907  21.023   3.272
23139W        W95487  25.591  37.338   4.305
23140W        W95488  42.325  12.831   4.654
23141W        W95489  34.991   5.422   3.668
23142W        W95490  37.015  31.042  12.009
23143W        W95491  19.039  26.126  12.532
23144W        W95492  35.876  43.488   1.304
23145W        W95493  10.680  20.634   4.747
23146W        W95494  19.719  29.976  10.511
23147W        W95495   4.836  14.615  11.041
23148W        W95496  22.201  24.084   0.959
23149W        W95497  40.891  31.512  10.501
23150W        W95498  41.991   3.855  13.404
23151W        W95499  32.940  19.210  13.982
23152W        W95500  40.805  23.605   3.651
23153W        W95501  42.415  31.440  12.391
23154W        W95502  18.596  36.419  12.502
23155W        W95503  42.527  20.603  13.460
23156W        W95504  20.058  26.207  12.479
23157W        W95505  27.536  27.648   0.837
23158W        W95506  39.360  39.965   0.367
23159W        W95507  11.342  29.097   4.757
23160W        W95508  12.852  19.266   0.405
23161W        W95509  20.273  20.253   0.737
23162W        W95510  31.896  19.736  14.921
23163W        W95511  37.968  22.679  10.900
23164W        W95512  41.956  26.662  12.843
23165W        W95513  13.657  42.363   0.380
23166W        W95514  37.851   9.698   4.208
23167W        W95515  34.998  36.567   2.816
23168W        W95516  33.892  43.954  10.987
23169W        W95517  20.210  22.127  13.512
23170W        W95518   0.269  19.207   2.357
23171W        W95519  38.041  37.991  11.088
23172W        W95520  42.880   4.757  14.287
23173W        W95521  43.308  30.653   5.140
23174W        W95522  29.537  38.836   4.124
23175W        W95523  40.458   6.918   1.329
23176W        W95524  27.029  32.073  12.475
23177W        W95525   5.301  21.216  12.384
23178W        W95526  25.580  27.665  14.511
23179W        W95527  18.682  33.975  13.855
23180W        W95528  25.174   6.233   2.371
23181W        W95529  25.973  41.331  13.470
23182W        W95530   9.151   9.793   4.299
23183W        W95531  39.369  38.509  11.467
23184W        W95532  10.789  24.691   4.198
23185W        W95533  19.260  18.067   3.849
23186W        W95534  39.362  44.322   4.247
23187W        W95535   9.231  16.802   4.774
23188W        W95536  17.225   2.959  12.948
23189W        W95537  30.104  39.332  14.502
23190W        W95538   0.882   0.962   4.637
23191W        W95539  11.256  39.013  11.040
23192W        W95540  28.005  30.929   2.274
23193W        W95541  29.009  43.490   0.242
23194W        W95542  32.480  23.664  11.981
23195W        W95543  31.009   6.422   4.293
23196W        W95544  34.907   0.795   1.303
23197W        W95545  43.365  21.732   2.209
23198W        W95546  36.025   5.222   5.137
23199W        W95547  30.609  12.143  14.851
23200W        W95548   1.479  39.538   3.310
23201W        W95549  15.675   9.712   0.263
23202W        W95550  16.596  16.106  13.437
23203W        W95551   6.850  25.104  12.361
23204W        W95552  24.560  15.681   4.751
23205W        W95553  27.077  34.894  13.976
23206W        W95554   1.739  10.353   0.808
23207W        W95555  19.657  44.385   1.702
23208W        W95556  25.178  20.729  12.964
23209W        W95557  44.890   4.296   2.691
23210W        W95558  27.993   1.278  12.885
23211W        W95559  44.325  10.210  14.434
23212W        W95560  12.803   5.388   4.149
23213W        W95561  23.615  36.050   1.279
23214W        W95562  19.542  24.039   2.273
23215W        W95563  16.694   7.895  14.925
23216W        W95564  28.661  35.035  12.341
23217W        W95565  22.175  41.006  13.986
23218W        W95566  20.619  33.560  10.899
23219W        W95567  41.035  13.661   1.814
23220W        W95568  18.132  41.407   3.336
23221W        W95569  32.109  27.103   4.225
23222W        W95570  19.196  24.042   0.303
23223W        W95571  31.594  10.303  14.433
23224W        W95572   8.765  32.116  14.357
23225W        W95573  38.532   4.288   2.690
23226W        W95574  15.640  11.751  11.013
23227W        W95575  22.028  24.703  11.895
23228W        W95576  25.539   0.747   0.378
23229W        W95577  38.495  27.039  14.808
23230W        W95578  44.989  29.990  11.982
23231W        W95579  23.505  39.926   1.758
23232W        W95580  23.588  40.522  10.552
23233W        W95581  13.691  33.126  12.961
23234W        W95582  17.102  31.455   0.328
23235W        W95583  31.478  40.871   2.667
23236W        W95584   1.762   5.850   4.699
23237W        W95585  24.084  10.303   3.185
23238W        W95586  36.538  38.430   0.414
23239W        W95587   7.891  20.145  10.902
23240W        W95588   7.239  11.175  11.578
23241W        W95589  29.050  44.355  11.566
23242W        W95590  28.067  36.860  12.993
23243W        W95591  24.720  22.164   3.816
23244W        W95592   5.286  27.627  13.856
23245W        W95593   6.751  41.798   3.314
23246W        W95594   5.195  35.883   1.292
23247W        W95595   7.414  17.585   0.347
23248W        W95596  42.872  34.018   4.330
23249W        W95597   1.483  18.113   1.402
23250W        W95598   3.721  11.288   0.256
23251W        W95599  36.405   2.230  12.382
23252W        W95600  16.657  44.902   0.807
23253W        W95601  14.210  29.126  12.469
23254W        W95602  31.563  12.675  13.535
23255W        W95603  25.149  28.022   1.372
23256W        W95604  11.780   8.243  14.854
23257W        W95605   4.347  25.213   4.613
23258W        W95606  10.677  28.142   3.163
23259W        W95607  18.609  16.234  13.937
23260W        W95608  23.011  15.818   9.962
23261W        W95609  40.472  34.112   4.776
23262W        W95610  35.513  26.542  14.472
23263W        W95611  15.129  27.534  14.847
23264W        W95612  32.094  21.580   4.290
23265W        W95613  36.911  10.226  12.908
23266W        W95614  20.712  39.470   0.783
23267W        W95615  20.225  12.668  12.357
23268W        W95616  44.005  26.643  13.529
23269W        W95617  11.654  19.737   0.829
23270W        W95618   5.759  43.908   1.927
23271W        W95619  32.401  21.598  10.980
23272W        W95620   2.721  37.346   3.370
23273W        W95621   2.430  41.010  11.933
23274W        W95622  28.669   6.302   2.874
23275W        W95623  28.080   4.817  11.557
23276W        W95624   9.878  30.936   0.446
23277W        W95625   8.809  36.487   3.220
23278W        W95626  37.484  14.226  13.452
23279W        W95627  12.332   5.256   3.147
23280W        W95628   7.372   3.907  14.914
23281W        W95629  30.148  42.316   0.440
23282W        W95630  44.775   5.264  10.449
23283W        W95631  11.130   6.319  13.955
23284W        W95632  33.389  17.796  11.547
23285W        W95633  39.049  34.929  11.447
23286W        W95634   0.799  32.122   5.286
23287W        W95635  10.254  42.930  12.901
23288W        W95636  13.154   4.732  10.492
23289W        W95637  36.499   6.199   3.227
23290W        W95638   9.650  15.160  13.865
23291W        W95639  40.889  21.064  13.443
23292W        W95640  32.524  34.395   1.808
23293W        W95641  39.458  23.531  11.491
23294W        W95642  12.134  32.555   2.373
23295W        W95643   8.788  15.115   2.240
23296W        W95644  40.946  13.719  12.535
23297W        W95645   6.349  15.602   5.224
23298W        W95646  27.615   2.771  10.523
23299W        W95647   8.309  43.008   4.618
23300W        W95648   0.921   0.386   2.730
23301W        W95649   8.170  34.546  10.417
23302W        W95650   8.365  21.136   0.888
23303W        W95651  24.627  37.910  14.890
23304W        W95652  33.957  36.875  11.503
23305W        W95653   3.730  29.528  11.908
23306W        W95654  31.481  42.493   1.334
23307W        W95655  44.272   0.878  13.013
23308W        W95656   7.259  16.316   4.215
23309W        W95657  35.363   3.901  10.528
23310W        W95658  42.486  44.868   3.756
23311W        W95659   8.762   0.851  11.470
23312W        W95660  18.674  39.379  14.026
23313W        W95661  13.604   3.242   5.263
23314W        W95662   9.291   6.355  13.791
23315W        W95663   7.349  41.322   4.123
23316W        W95664  15.772  13.252   1.732
23317W        W95665  27.113  18.161  11.468
23318W        W95666   4.416   0.384  10.488
23319W        W95667  41.373  41.403  12.369
23320W        W95668  26.978  34.480   1.319
23321W        W95669  20.531   7.241   1.219
23322W        W95670  33.971  25.561   3.748
23323W        W95671   8.843  41.523  13.062
23324W        W95672  16.637  37.505  14.388
23325W        W95673  19.673  10.646   4.118
23326W        W95674   3.885   0.306  11.111
23327W        W95675   2.382  32.952  10.914
23328W        W95676  14.135   7.218  10.910
23329W        W95677  32.568  27.497  14.465
23330W        W95678  20.089   2.964   2.374
23331W        W95679   9.685  22.119  13.992
23332W        W95680  16.800   7.230   4.719
23333W        W95681  26.574  10.861   0.887
23334W        W95682  17.153  28.455  14.306
23335W        W95683  39.559   2.243  14.952
23336W        W95684  14.679  38.466  12.461
23337W        W95685  26.956  37.049  11.892
23338W        W95686   3.351  28.952  14.917
23339W        W95687   8.809  17.086  14.485
23340W        W95688   6.276  12.242   3.240
23341W        W95689  14.275  24.149   0.793
23342W        W95690  26.183  42.477   1.924
23343W        W95691  25.973  35.483  10.409
23344W        W95692   4.311  43.980   1.391
23345W        W95693   9.799  42.866  10.960
23346W        W95694  13.163  23.178  10.586
23347W        W95695  25.585  19.131  11.399
23348W        W95696   2.909  34.092   2.857
23349W        W95697   7.705  24.191  10.498
23350W        W95698  25.179  24.096  11.868
23351W        W95699  15.807  20.535  11.079
23352W        W95700  23.211  10.253  11.599
23353W        W95701  10.225  14.285   0.871
23354W        W95702  16.301  23.569  11.992
23355W        W95703  13.729  17.268   2.263
23356W        W95704  37.054  21.198   2.682
23357W        W95705  38.472  42.314   2.728
23358W        W95706   6.265  16.607  12.918
23359W        W95707   9.751  40.511  12.958
23360W        W95708  32.594  16.311   0.729
23361W        W95709  30.157  16.683   1.231
23362W        W95710  12.732  37.042   0.742
23363W        W95711  40.926  20.555   2.730
23364W        W95712   8.846  29.151  12.365
23365W        W95713   9.799  25.656  11.607
23366W        W95714  25.126  28.103  13.999
23367W        W95715  13.746  42.799   2.205
23368W        W95716  25.642  11.756   0.448
23369W        W95717  13.265  28.510  13.445
23370W        W95718  23.205  35.898  10.414
23371W        W95719  43.373  27.178  12.433
23372W        W95720   0.746  21.531   3.211
23373W        W95721  43.791  42.418  12.548
23374W        W95722   3.315  19.610   0.748
23375W        W95723  38.411  12.294   0.948
23376W        W95724  20.237  27.186   1.800
23377W        W95725   7.351   7.184   3.822
23378W        W95726  23.127  28.033   1.723
23379W        W95727  39.344  26.509  13.541
23380W        W95728  39.352  39.433  11.057
23381W        W95729  23.564  16.722   0.754
23382W        W95730  28.125  36.411  14.295
23383W        W95731  12.829  31.440   3.828
23384W        W95732  40.981   2.302   2.709
23385W        W95733   1.453  28.157   0.455
23386W        W95734  22.172  38.390  10.951
23387W        W95735  11.211  14.741  13.429
23388W        W95736   2.815  19.697   4.623
23389W        W95737  31.460  41.857   2.677
23390W        W95738  32.928  22.549  10.575
23391W        W95739  38.496   6.331   3.211
23392W        W95740  26.532  36.023  13.490
23393W        W95741  26.483   1.425  10.535
23394W        W95742  27.098   2.767   2.691
23395W        W95743  10.377  28.581   0.421
23396W        W95744  25.208  39.383  11.872
23397W        W95745  11.683   5.795  13.349
23398W        W95746   0.815  22.519   9.991
23399W        W95747   6.374  37.056   2.837
23400W        W95748  40.544   5.199   2.257
23401W        W95749  33.607   4.944  13.820
23402W        W95750  15.110   0.902  14.398
23403W        W95751  13.693  10.818   4.674
23404W        W95752  31.595   8.328   3.193
23405W        W95753  29.587   1.365   2.802
23406W        W95754  34.866  32.571   1.772
23407W        W95755  30.109   1.966   1.344
23408W        W95756  25.072  19.615  14.489
23409W        W95757  19.074  23.666  14.913
23410W        W95758  41.885  29.133  13.058
23411W        W95759  44.452  26.621  13.505
23412W        W95760  18.284  34.085  13.935
23413W        W95761  38.389  18.126  14.792
23414W        W95762  17.260  32.055   2.284
23415W        W95763  25.092   0.878  14.488
23416W        W95764   0.491  39.831  14.823
23417W        W95765  28.043  11.740   2.873
23418W        W95766  15.168  18.790  12.406
23419W        W95767  17.152   4.771   0.309
23420W        W95768  38.514  38.374   0.272
23421W        W95769  15.235  23.642   1.334
23422W        W95770  27.589  32.544   3.294
23423W        W95771  40.922  28.612  14.500
23424W        W95772  20.228   9.834   0.870
23425W        W95773  40.355  22.711   1.432
23426W        W95774  22.092   6.397   0.940
23427W        W95775  44.786  21.521  12.908
23428W        W95776  17.557   1.437  14.759
23429W        W95777  35.571  40.364   4.661
23430W        W95778  16.139   2.282   2.847
23431W        W95779   9.676  34.097   3.722
23432W        W95780  16.093  10.313  13.028
23433W        W95781   9.665  31.929   1.396
23434W        W95782  26.965  30.942   0.455
23435W        W95783  42.856   9.803   0.794
23436W        W95784  37.997  43.465  10.951
23437W        W95785  18.609   9.786  14.911
23438W        W95786  37.414  14.308  11.880
23439W        W95787  14.676  34.954  10.894
23440W        W95788   2.847  20.052  11.919
23441W        W95789  22.514   9.874   5.642
23442W        W95790  17.783  35.941  14.361
23443W        W95791  31.584   6.855  14.968
23444W        W95792  26.172  22.042  10.472
23445W        W95793  30.612  37.981   4.778
23446W        W95794  15.161  26.607   4.684
23447W        W95795   2.938  21.125   1.778
23448W        W95796   9.799  39.053  10.134
23449W        W95797   9.192  16.215   1.757
23450W        W95798  40.401  25.098  12.073
23451W        W95799  22.174  28.447   0.336
23452W        W95800   6.417  44.009   4.834
23453W        W95801  18.200  19.108  10.493
23454W        W95802  20.208  28.931  14.394
23455W        W95803  22.029  15.271  10.437
23456W        W95804  40.352  24.106  14.768
23457W        W95805   6.227  42.369  14.973
23458W        W95806  21.641   1.289   0.896
23459W        W95807  15.657  37.551  14.783
23460W        W95808   1.250  39.008  10.540
23461W        W95809  42.965  30.631  11.427
23462W        W95810  43.808  11.819  11.938
23463W        W95811  41.482  14.179  12.415
23464W        W95812  12.714  38.018   1.274
23465W        W95813   3.921  29.038   3.181
23466W        W95814  35.382  28.943   2.680
23467W        W95815  33.079  41.859   0.730
23468W        W95816  16.309  40.395   3.752
23469W        W95817  23.081  33.131  14.937
23470W        W95818  17.291  14.153  12.050
23471W        W95819  26.165  11.325   0.886
23472W        W95820  23.608  39.933  13.820
23473W        W95821   0.792  37.022  14.477
23474W        W95822  36.443  22.640   9.491
23475W        W95823  13.679  27.196  12.946
23476W        W95824  14.822   9.795  12.901
23477W        W95825   4.894  22.175  10.500
23478W        W95826  40.407  23.524  11.463
23479W        W95827   4.330  34.991   3.678
23480W        W95828  21.091  37.072  12.992
23481W        W95829  43.365   2.472   2.212
23482W        W95830   0.417   6.410  12.515
23483W        W95831  16.623  19.078   0.771
23484W        W95832  43.779   1.897  11.465
23485W        W95833   3.452  18.787  14.329
23486W        W95834   5.387   6.369   0.917
23487W        W95835  35.400  15.593  12.398
23488W        W95836   1.956   4.710  14.838
23489W        W95837  20.071  33.949   2.812
23490W        W95838  40.929   1.278  13.355
23491W        W95839   3.872  31.570  13.361
23492W        W95840   6.914  29.116   1.700
23493W        W95841  31.516  42.894  10.481
23494W        W95842  29.628  34.439  14.013
23495W        W95843  37.019  10.827  14.962
23496W        W95844   9.244  17.599   0.773
23497W        W95845  20.041   5.903  11.599
23498W        W95846  20.080   0.845   0.836
23499W        W95847  20.204   3.758  11.034
23500W        W95848  15.664  14.760  13.525
23501W        W95849  20.127   0.929   2.667
23502W        W95850  16.265  40.950   3.325
23503W        W95851   7.259   0.889   2.268
23504W        W95852  23.054  25.154   0.431
23505W        W95853  33.612  26.676  12.558
23506W        W95854  35.031  26.647   0.335
23507W        W95855  33.382  36.050   3.694
23508W        W95856  36.892  19.098   3.641
23509W        W95857  41.472  38.329   1.880
23510W        W95858   1.826  22.043   4.795
23511W        W95859  39.065  26.584   4.757
23512W        W95860  10.302   9.859   1.326
23513W        W95861  27.631  40.443   0.386
23514W        W95862  43.388  31.423   0.377
23515W        W95863   6.187  23.240   2.209
23516W        W95864   5.740   6.756   1.708
23517W        W95865  38.935  31.410  12.882
23518W        W95866  41.011  14.233  11.913
23519W        W95867  32.546  17.266  11.553
23520W        W95868  11.186  27.578   4.310
23521W        W95869   2.368  27.636  10.507
23522W        W95870   2.855  44.971   3.383
23523W        W95871  41.534  36.970  14.289
23524W        W95872  19.273  35.403   0.405
23525W        W95873  28.449   7.903   1.772
23526W        W95874   2.328  20.070  11.869
23527W        W95875  35.992  11.811   4.598
23528W        W95876  17.726  40.353  12.479
23529W        W95877   1.306  29.657   1.328
23530W        W95878   0.387  30.102  14.953
23531W        W95879  44.830   9.740   2.793
23532W        W95880  19.571  38.065  13.474
23533W        W95881   2.795  16.775  11.456
23534W        W95882  32.522  27.121  12.529
23535W        W95883   8.747  36.993  13.423
23536W        W95884  17.105  11.769  10.640
23537W        W95885  25.015   6.407  12.385
23538W        W95886  13.761  13.646  12.047
23539W        W95887   3.268   7.243  11.457
23540W        W95888  24.523  26.048   3.841
23541W        W95889  31.611  14.339  14.874
23542W        W95890  19.154   8.292   4.643
23543W        W95891  23.531  41.791   4.329
23544W        W95892  41.873  23.111   3.682
23545W        W95893  18.593   9.787   1.889
23546W        W95894   3.919  39.994  10.425
23547W        W95895  30.117  28.993   4.305
23548W        W95896   6.734  42.800  13.364
23549W        W95897   9.226   6.259  10.111
23550W        W95898  27.479  16.271   1.349
23551W        W95899  19.715   3.337   4.158
23552W        W95900  37.870  24.622  11.404
23553W        W95901   5.213  26.464   3.757
23554W        W95902  26.554  21.567   4.677
23555W        W95903  24.186  21.243   1.250
23556W        W95904  14.666  20.204  13.840
23557W        W95905  40.976  31.590  11.974
23558W        W95906  33.025   3.830   4.297
23559W        W95907  44.413  32.414   1.322
23560W        W95908  22.566  29.922  14.341
23561W        W95909   4.362  13.203  14.009
23562W        W95910  12.728  38.008   2.215
23563W        W95911   6.880  43.878   1.702
23564W        W95912  13.167  27.497  14.478
23565W        W95913  31.480   3.397  14.934
23566W        W95914  42.871  30.456  12.490
23567W        W95915  13.682  17.290   0.946
23568W        W95916   2.340  34.388   2.331
23569W        W95917  22.143  24.013  10.590
23570W        W95918  33.962  13.119   0.385
23571W        W95919  33.892  28.069  14.919
23572W        W95920  11.777  24.044   3.833
23573W        W95921  11.633  10.689  13.944
23574W        W95922  13.725  10.788   4.307
23575W        W95923   9.845  34.529  11.878
23576W        W95924  14.161   0.482   0.335
23577W        W95925  30.068  21.717  10.471
23578W        W95926   1.281  31.000   2.839
23579W        W95927  23.200  33.965   2.767
23580W        W95928  17.556  38.051  14.343
23581W        W95929  33.959   0.284  14.801
23582W        W95930  25.142  15.128   2.737
23583W        W95931  22.529  38.544   3.247
23584W        W95932  42.291   4.828   4.837
23585W        W95933  24.146  31.084   3.715
23586W        W95934   4.718  36.581   2.830
23587W        W95935  19.569  31.551   2.850
23588W        W95936   6.195  32.047  10.514
23589W        W95937  25.651  28.166   2.858
23590W        W95938  35.956   5.743   2.850
23591W        W95939  29.527  10.188  11.483
23592W        W95940  18.128  36.072   2.748
23593W        W95941  13.733   1.861   1.783
23594W        W95942  14.742   2.820  10.539
23595W        W95943  20.046  11.235  10.427
23596W        W95944  40.481  13.180   3.369
23597W        W95945  39.005  24.054  13.858
23598W        W95946   3.381  40.533  11.466
23599W        W95947  17.269  17.147  13.448
23600W        W95948  44.375  29.918   0.751
23601W        W95949   7.250  30.501   2.397
23602W        W95950  32.940  34.611   9.983
23603W        W95951   8.889   0.972  11.914
23604W        W95952  30.999  37.572   1.430
23605W        W95953  31.529   8.243  12.884
23606W        W95954   8.866  15.667   3.657
23607W        W95955   7.402  17.072   4.833
23608W        W95956  23.660  35.033   4.158
23609W        W95957  17.148  42.292   4.172
23610W        W95958  25.126  40.044  11.890
23611W        W95959  12.279  11.827   4.291
23612W        W95960  26.467   7.682  14.932
23613W        W95961   8.686  38.388   1.734
23614W        W95962  20.098  32.470   4.197
23615W        W95963   5.848  20.114  14.308
23616W        W95964  44.978  29.566  13.478
23617W        W95965  43.885  28.586  12.534
23618W        W95966   2.355  41.491  10.588
23619W        W95967  36.063   4.923   9.476
23620W        W95968  12.153  41.310   0.370
23621W        W95969   0.901  10.256  10.070
23622W        W95970  16.771  19.283  13.892
23623W        W95971  34.446  30.597  12.504
23624W        W95972  37.545  38.002   1.244
23625W        W95973  43.403  20.237  14.460
23626W        W95974  13.112  22.531  13.426
23627W        W95975  43.803  12.795  13.895
23628W        W95976  12.747  12.243  13.872
23629W        W95977  19.700  27.160  13.924
23630W        W95978  38.455  30.090   3.839
23631W        W95979  11.839  26.692   5.286
23632W        W95980  39.434  13.339   3.328
23633W        W95981  10.648   4.779  14.030
23634W        W95982  10.840  22.126  12.085
23635W        W95983  23.652  37.064   0.325
23636W        W95984  35.405  16.232  13.998
23637W        W95985  38.903  15.326  11.958
23638W        W95986   9.158  41.321  12.547
23639W        W95987   0.310  35.580   3.353
23640W        W95988  26.192  42.441  13.412
23641W        W95989  38.395   3.356  13.416
23642W        W95990   9.719  35.424  14.422
23643W        W95991  25.674  41.007  14.497
23644W        W95992  36.529  22.103   4.257
23645W        W95993  32.958   6.723  12.425
23646W        W95994   9.795  22.166   3.359
23647W        W95995   2.873  19.667  11.389
23648W        W95996  10.324  38.339   4.749
23649W        W95997  42.950  32.982  11.574
23650W        W95998  18.585  17.738  13.854
23651W        W95999  35.433  22.582  13.468
23652W        W96000  10.174  28.490  14.344
23653W        W96001   7.230  41.441  11.922
23654W        W96002   4.330  17.731   0.920
23655W        W96003  44.956  13.634   2.276
23656W        W96004  31.972   4.941   3.298
23657W        W96005  30.444  32.906   2.764
23658W        W96006  39.482  42.013  13.882
23659W        W96007  44.891  11.781   2.781
23660W        W96008  26.112   0.363  13.929
23661W        W96009  21.072  40.924  14.909
23662W        W96010  14.611   7.195   2.261
23663W        W96011  26.552  33.393   3.334
23664W        W96012  27.183  29.635   2.246
23665W        W96013  10.226  16.659   3.739
23666W        W96014  29.167  29.042   0.938
23667W        W96015  34.988  12.788  13.400
23668W        W96016  16.733  28.169   4.246
23669W        W96017  33.414  39.036  10.980
23670W        W96018  35.415  19.591   0.835
23671W        W96019  31.997  18.182  11.989
23672W        W96020  28.157  36.443  12.943
23673W        W96021  29.563  22.209  10.941
23674W        W96022  26.974  41.813  14.512
23675W        W96023  22.165  41.389   2.235
23676W        W96024  29.053  25.584  12.004
23677W        W96025  25.017   5.354   4.295
23678W        W96026  15.322  18.202  13.448
23679W        W96027  24.624  20.747   2.345
23680W        W96028   4.701  39.419   2.797
23681W        W96029   9.865  43.450   3.843
23682W        W96030   0.319  39.826  12.476
23683W        W96031  40.536  16.263   4.654
23684W        W96032  33.616  44.447   2.761
23685W        W96033  42.414  41.870  11.042
23686W        W96034   8.847  11.165  12.547
23687W        W96035   5.762  41.941  14.872
23688W        W96036  28.166  36.512   0.939
23689W        W96037   7.317  34.064  14.285
23690W        W96038  35.470   9.857  13.511
23691W        W96039   4.841  27.500  12.370
23692W        W96040  20.721  36.578  14.966
23693W        W96041  27.605  34.959  11.087
23694W        W96042  24.712  13.157  11.109
23695W        W96043  29.442  36.913  10.426
23696W        W96044  35.014  19.092   2.854
23697W        W96045  43.494  34.395   3.635
23698W        W96046  20.704  13.290  13.517
23699W        W96047  32.051  29.955   0.337
23700W        W96048  39.991  41.010   3.644
23701W        W96049  18.606  32.113   3.721
23702W        W96050   0.880  23.142  10.545
23703W        W96051  14.326  39.828   4.715
23704W        W96052  13.624  19.285   3.833
23705W        W96053  21.079  25.082  14.469
23706W        W96054  27.636  27.113  13.454
23707W        W96055  18.275   7.255  13.035
23708W        W96056  30.513  13.178  10.452
23709W        W96057  32.547  19.152   0.316
23710W        W96058  44.967  28.598  12.834
23711W        W96059  35.945  40.486  14.026
23712W        W96060  43.399  16.608   0.437
23713W        W96061  33.466  41.463   4.653
23714W        W96062  17.242  13.120  10.621
23715W        W96063  35.086   2.783  12.558
23716W        W96064  12.181  30.535   1.322
23717W        W96065  11.770   8.203  12.892
23718W        W96066   9.159  43.509   4.621
23719W        W96067   2.410  42.297  14.941
23720W        W96068  18.062  16.570  12.034
23721W        W96069  33.127   4.340   0.821
23722W        W96070  35.916  24.043  10.013
23723W        W96071  26.637  16.169   3.312
23724W        W96072   2.322  24.532   4.336
23725W        W96073  36.579  28.669  10.889
23726W        W96074  23.718  18.213   0.333
23727W        W96075  20.090  16.738  12.386
23728W        W96076  40.807  41.864  14.346
23729W        W96077   1.357  10.731  12.442
23730W        W96078  22.237  25.076  14.314
23731W        W96079  26.107  35.468   4.207
23732W        W96080  15.276   1.772   2.364
23733W        W96081   4.846  41.814  13.831
23734W        W96082  12.264  10.814  13.803
23735W        W96083  32.034  14.335   0.360
23736W        W96084   8.766  24.184  11.452
23737W        W96085  37.021  31.957  11.491
23738W        W96086  24.202  40.347  14.913
23739W        W96087   1.413  26.641  14.795
23740W        W96088  16.247  32.635  12.952
23741W        W96089  33.936   1.475   3.150
23742W        W96090   8.831  27.103  14.782
23743W        W96091  36.367  12.637   4.689
23744W        W96092   2.852  32.923   0.862
23745W        W96093   9.763  23.204   5.667
23746W        W96094  24.604  10.655  14.413
23747W        W96095  26.679  30.106  10.600
23748W        W96096   8.171   7.767  13.982
23749W        W96097  28.038  43.910  11.023
23750W        W96098  27.126  11.791   2.379
23751W        W96099  43.794  41.819   3.860
23752W        W96100  42.015   8.295   3.732
23753W        W96101  26.984  30.571   3.808
23754W        W96102  28.592   9.745   4.754
23755W        W96103  20.073  34.593   0.254
23756W        W96104   6.391  33.089  13.906
23757W        W96105  19.552   0.312   0.385
23758W        W96106  17.593  10.641  13.424
23759W        W96107  24.140  31.483   4.165
23760W        W96108  25.106  42.382   2.701
23761W        W96109  21.536  18.690   3.762
23762W        W96110   9.697   2.409  11.415
23763W        W96111  28.075  25.156   4.179
23764W        W96112  38.941  30.970  13.331
23765W        W96113  22.745   8.262   3.343
23766W        W96114  17.223  24.230   3.363
23767W        W96115  19.550  11.214  12.459
23768W        W96116  26.634  25.148   4.211
23769W        W96117  10.334  33.948  11.560
23770W        W96118  13.652  33.064  10.435
23771W        W96119  26.469   9.750  10.137
23772W        W96120  32.091  28.670  11.378
23773W        W96121  23.677  40.384  13.055
23774W        W96122   1.369   2.227   0.332
23775W        W96123  25.534  44.317   2.671
23776W        W96124  38.860  39.976  14.965
23777W        W96125   4.766   0.449   4.198
23778W        W96126  14.769  37.007   1.929
23779W        W96127  34.092  40.958  10.466
23780W        W96128  26.059  14.170  12.561
23781W        W96129  40.313   2.230  10.521
23782W        W96130  44.878  34.108  13.965
23783W        W96131  30.934   6.687  14.792
23784W        W96132  38.369  12.697  11.442
23785W        W96133   3.863  11.351   3.264
23786W        W96134  27.003  14.591   3.814
23787W        W96135  44.295  31.514   4.765
23788W        W96136  32.633  43.439   2.367
23789W        W96137  19.154  10.218   1.380
23790W        W96138  22.069   6.700  11.946
23791W        W96139  42.390  37.522   2.759
23792W        W96140  43.881   1.955   1.845
23793W        W96141   8.323   9.677  14.493
23794W        W96142   5.395  29.550   3.780
23795W        W96143  28.581   9.855  12.575
23796W        W96144  42.515   0.830  13.456
23797W        W96145   9.215  32.568  10.452
23798W        W96146  42.788   6.306   0.301
23799W        W96147   7.301  26.979  14.472
23800W        W96148   1.459  44.841   2.335
23801W        W96149  19.184  35.475  12.989
23802W        W96150  32.546   7.317   3.193
23803W        W96151  42.345  44.395   2.285
23804W        W96152  14.706  42.014   4.214
23805W        W96153  31.076  22.208   0.792
23806W        W96154  24.094   1.321   3.681
23807W        W96155  16.756  43.968  13.872
23808W        W96156  40.500  36.454   0.812
23809W        W96157  12.655  34.541   0.728
23810W        W96158   9.816  44.463  11.976
23811W        W96159  15.593  40.333  11.436
23812W        W96160  22.514  14.108   2.361
23813W        W96161  39.380  38.487  14.393
23814W        W96162  29.624  39.904   3.688
23815W        W96163  23.679  23.537  12.381
23816W        W96164  23.201   8.881  10.504
23817W        W96165  41.382  22.232  10.970
23818W        W96166  13.234   1.300   3.835
23819W        W96167  38.009  35.528   1.727
23820W        W96168  24.048  11.826   0.405
23821W        W96169   7.400  22.514  10.090
23822W        W96170  35.881  35.576   0.255
23823W        W96171  11.866  19.573   2.714
23824W        W96172  44.003  18.671   0.299
23825W        W96173  32.458  15.098  10.951
23826W        W96174   3.278   5.205   1.767
23827W        W96175  35.037  42.472   2.811
23828W        W96176   9.708  21.664   1.284
23829W        W96177  13.625  32.615   4.303
23830W        W96178  18.670  10.868  14.018
23831W        W96179  11.843  28.181  12.042
23832W        W96180   3.788  42.330  11.378
23833W        W96181  17.101  21.106  13.343
23834W        W96182  23.608  43.394   2.675
23835W        W96183  36.349   7.209   1.776
23836W        W96184  21.592  26.181  11.380
23837W        W96185   0.843   4.754  10.032
23838W        W96186  13.680  12.190  13.882
23839W        W96187  10.841  24.544  10.410
23840W        W96188  43.337  41.297  12.855
23841W        W96189  17.603   7.227   1.233
23842W        W96190  33.118  11.778  14.472
23843W        W96191  38.830  28.589   2.755
23844W        W96192  26.697  17.638  14.770
23845W        W96193  18.191   8.847   2.803
23846W        W96194  44.947  39.335   0.902
23847W        W96195  18.702  29.944  12.043
23848W        W96196  13.840  41.497  12.578
23849W        W96197  23.617  18.282  13.407
23850W        W96198  19.132  18.125   0.916
23851W        W96199   7.327   7.731  13.472
23852W        W96200  35.859  34.486  11.531
23853W        W96201  13.657  35.394   2.396
23854W        W96202   9.837   5.389  14.284
23855W        W96203  14.307   9.332   4.689
23856W        W96204  35.371  24.083   0.827
23857W        W96205  28.968  35.000  10.975
23858W        W96206   6.856  15.582   5.272
23859W        W96207  35.049  16.614   3.713
23860W        W96208   4.377  33.539   1.822
23861W        W96209  27.678   9.384   0.835
23862W        W96210  16.180  34.932  14.447
23863W        W96211  41.307   1.909  12.532
23864W        W96212   4.866  18.623   1.240
23865W        W96213  24.521  25.480   4.345
23866W        W96214  26.966  40.322  11.907
23867W        W96215  23.494  24.721   4.161
23868W        W96216  26.675  36.028   1.876
23869W        W96217   3.259  28.492  12.526
23870W        W96218  41.990   0.789   4.317
23871W        W96219  41.295  12.145  13.374
23872W        W96220  26.537   6.331   3.680
23873W        W96221   2.296  12.268   4.701
23874W        W96222  21.188  30.570   2.358
23875W        W96223  32.934  36.050  11.968
23876W        W96224  42.827  27.057  10.614
23877W        W96225  33.484   0.881  10.549
23878W        W96226  38.358  11.704   0.248
23879W        W96227  20.245  19.199  11.044
23880W        W96228  39.922  17.792  14.378
23881W        W96229   2.940  12.639  11.864
23882W        W96230  31.444  26.460   0.919
23883W        W96231  30.480  20.626  11.607
23884W        W96232   9.868  44.776   3.676
23885W        W96233  15.285  29.514  11.441
23886W        W96234  21.609  21.183  12.026
23887W        W96235  43.904  20.704  13.948
23888W        W96236  40.340  17.761  13.803
23889W        W96237  38.035  22.999   5.600
23890W        W96238  30.613  26.001   4.816
23891W        W96239  25.581  31.025   1.792
23892W        W96240   2.272   2.884   3.273
23893W        W96241  37.426   1.968   1.278
23894W        W96242  29.640  22.067   4.713
23895W        W96243   8.812   1.382  10.958
23896W        W96244  34.883  29.114   3.780
23897W        W96245  17.097  33.891  11.565
23898W        W96246  11.644  32.498  10.563
23899W        W96247   5.346  20.725  10.913
23900W        W96248   7.892   9.650  12.880
23901W        W96249  25.637  41.481  10.404
23902W        W96250  34.022  26.462  10.458
23903W        W96251  15.327  34.975  11.060
23904W        W96252  12.137  40.375   1.751
23905W        W96253  32.493  17.748   2.398
23906W        W96254  23.061  27.039  12.967
23907W        W96255  16.200  28.084   1.932
23908W        W96256  25.629  29.670   0.467
23909W        W96257  34.598  36.440  12.349
23910W        W96258  10.652  28.655   0.964
23911W        W96259  27.511  13.730  14.865
23912W        W96260   5.230  22.105   1.761
23913W        W96261  30.046  10.150  10.463
23914W        W96262  24.502   7.700  12.557
23915W        W96263   8.795   7.411  10.039
23916W        W96264  21.534  34.921   3.767
23917W        W96265  34.018   3.817   1.423
23918W        W96266   0.348   0.762   4.332
23919W        W96267  16.213  11.224  13.834
23920W        W96268  38.390   8.363   3.843
23921W        W96269  23.125  24.201  10.531
23922W        W96270  28.485  33.965  14.281
23923W        W96271  21.059  36.531   1.830
23924W        W96272  43.349  29.546  11.873
23925W        W96273  41.293  12.783  14.461
23926W        W96274  44.003   7.802  14.876
23927W        W96275  29.514  20.629   0.966
23928W        W96276  31.627  26.512  14.772
23929W        W96277   5.341   3.451   0.329
23930W        W96278  43.338   9.756  14.486
23931W        W96279  37.558  38.560  11.488
23932W        W96280  33.109  37.838   3.256
23933W        W96281  16.570   4.895   3.167
23934W        W96282  39.032  43.389   2.390
23935W        W96283  25.664  20.245   0.932
23936W        W96284  32.976  10.848   3.239
23937W        W96285  36.465   2.963   2.719
23938W        W96286  34.487  25.090  14.887
23939W        W96287  20.745   8.287  11.885
23940W        W96288  15.166  37.531  10.432
23941W        W96289  43.790  30.114  12.395
23942W        W96290  20.541  27.530   4.820
23943W        W96291  33.581  24.015   4.648
23944W        W96292  30.016  25.615   3.632
23945W        W96293  14.094  11.194  11.936
23946W        W96294  41.855  23.128  11.476
23947W        W96295  18.547  26.204  11.894
23948W        W96296   6.425  16.080   1.266
23949W        W96297  14.737  33.592   1.224
23950W        W96298   5.771  16.671   4.616
23951W        W96299  11.166  44.904  10.545
23952W        W96300  21.250  37.358  14.430
23953W        W96301   9.244  23.672  10.411
23954W        W96302  12.331  39.840   2.266
23955W        W96303  15.238   2.445   4.673
23956W        W96304  19.547  43.462   0.791
23957W        W96305  23.108  33.021  12.935
23958W        W96306  27.101  27.174   4.599
23959W        W96307   1.453  34.427   1.728
23960W        W96308  43.327  25.565  13.899
23961W        W96309  39.557  29.614  11.000
23962W        W96310  26.008  33.063   2.686
23963W        W96311  44.945  26.496   5.293
23964W        W96312  29.522  30.118  11.404
23965W        W96313  32.091   9.329   2.379
23966W        W96314  42.834  16.735   0.824
23967W        W96315  24.507  24.516  11.069
23968W        W96316   7.878  35.033   3.382
23969W        W96317  38.361  38.869   2.232
23970W        W96318  22.613   7.749   0.329
23971W        W96319  12.198  44.976  10.621
23972W        W96320  35.931   6.257  11.860
23973W        W96321  37.957   7.843  14.437
23974W        W96322  27.980  19.153   4.197
23975W        W96323  36.441  20.238   9.507
23976W        W96324   4.855  35.096  11.490
23977W        W96325  15.801  13.339   3.238
23978W        W96326   6.692  30.613  13.448
23979W        W96327  22.710   2.358   1.439
23980W        W96328   7.202  15.132  13.918
23981W        W96329  27.104  35.449  12.050
23982W        W96330  12.181  31.573   1.301
23983W        W96331  11.139  22.677  14.852
23984W        W96332  34.990   9.704   4.783
23985W        W96333   8.805  34.119   0.760
23986W        W96334  24.148  44.402   2.235
23987W        W96335  41.401  26.608  14.381
23988W        W96336  30.489  41.323   3.738
23989W        W96337  22.178  40.039  14.407
23990W        W96338  34.601  35.009  12.443
23991W        W96339   8.259  22.031   9.939
23992W        W96340  32.537  20.560   0.855
23993W        W96341  20.180  23.724   1.296
23994W        W96342   7.673   9.325  11.537
23995W        W96343  29.120  27.617  13.911
23996W        W96344  18.553  25.540  11.587
23997W        W96345  39.470  29.637   0.878
23998W        W96346   3.281  22.092  10.495
23999W        W96347  14.831  10.790  11.107
24000W        W96348  19.123  42.333   1.373
24001W        W96349  44.849   5.326  11.570
24002W        W96350  13.133  17.161   3.846
24003W        W96351  28.076   3.418  13.990
24004W        W96352  39.819  16.165   4.350
24005W        W96353  44.491   5.322  14.021
24006W        W96354  24.138  36.443   4.177
24007W        W96355  33.093  26.576   1.849
24008W        W96356  42.373  15.593  14.946
24009W        W96357  11.242   6.370   1.345
24010W        W96358  39.995  20.043  12.073
24011W        W96359   1.249  16.706  12.354
24012W        W96360  28.590  12.275  14.842
24013W        W96361  19.669  36.070  11.601
24014W        W96362   3.828  13.297   0.806
24015W        W96363  35.567  16.174   1.790
24016W        W96364  36.571   5.754   1.335
24017W        W96365  23.064  34.604   1.422
24018W        W96366  29.109  24.582  11.489
24019W        W96367   2.939  19.128   0.847
24020W        W96368  22.701  16.232  11.602
24021W        W96369  14.287   2.419  11.900
24022W        W96370  29.005  24.571  12.347
24023W        W96371  10.280  28.614   0.763
24024W        W96372  24.671  34.946   2.224
24025W        W96373  12.658  39.856   1.329
24026W        W96374  12.701  31.491   4.715
24027W        W96375  16.304   4.384  13.916
24028W        W96376   4.830  13.273  12.401
24029W        W96377  17.188  43.508   0.341
24030W        W96378   3.332  26.984  11.040
24031W        W96379  11.207  23.563   2.396
24032W        W96380  11.737  28.153   2.299
24033W        W96381   0.385   2.365  11.585
24034W        W96382  24.574  28.592  14.874
24035W        W96383  17.600  11.812  14.031
24036W        W96384  41.291  20.640  14.788
24037W        W96385   5.917  12.243   4.322
24038W        W96386   5.383   9.751  12.998
24039W        W96387  19.275  33.381  12.082
24040W        W96388  20.758   4.208   3.325
24041W        W96389  26.029  30.570  11.917
24042W        W96390   8.357  35.468   0.309
24043W        W96391   1.445   8.801   3.352
24044W        W96392   7.726  18.723   3.839
24045W        W96393  23.192  32.494  12.871
24046W        W96394  39.809  40.051   1.751
24047W        W96395   8.717  25.480  10.634
24048W        W96396  29.049   4.365  11.089
24049W        W96397  26.680  28.596   2.340
24050W        W96398   9.860   9.360   4.289
24051W        W96399  27.117  27.445   3.635
24052W        W96400  22.627  37.024   1.446
24053W        W96401  36.443  14.639  13.989
24054W        W96402   3.221  35.381  12.950
24055W        W96403  23.687   7.767  12.919
24056W        W96404   3.954  26.122   3.325
24057W        W96405   9.273   7.238   3.694
24058W        W96406   5.422  33.600  12.088
24059W        W96407   8.371  30.157   4.635
24060W        W96408  33.429  42.314  14.797
24061W        W96409   5.219   6.313   4.308
24062W        W96410  23.050  41.345   0.920
24063W        W96411  19.696   8.171  12.506
24064W        W96412  40.978  41.512   4.784
24065W        W96413  17.079  10.833   3.777
24066W        W96414   8.399   3.408   4.177
24067W        W96415  19.070  15.086  12.949
24068W        W96416  14.328   0.403   1.698
24069W        W96417  25.215  27.567  12.427
24070W        W96418  37.423   3.405   4.637
24071W        W96419  39.410  39.015  14.768
24072W        W96420  32.608  32.127  14.827
24073W        W96421  10.831  42.299  12.888
24074W        W96422   3.841  44.994  14.382
24075W        W96423   6.248  39.844  13.050
24076W        W96424   4.859  14.296  10.446
24077W        W96425  11.757  29.947  14.941
24078W        W96426  12.745  28.973  14.877
24079W        W96427   3.413  36.453  14.779
24080W        W96428  27.483   4.369   3.731
24081W        W96429   5.355  41.872   3.192
24082W        W96430   2.409  40.350   0.829
24083W        W96431  33.626  25.051  10.617
24084W        W96432   6.221  25.964  10.142
24085W        W96433  14.749  11.228   3.146
24086W        W96434   9.287  28.681   4.813
24087W        W96435  19.543  14.773  14.816
24088W        W96436  43.406  21.696  13.026
24089W        W96437  39.507   3.326   3.349
24090W        W96438  28.609  10.150   4.236
24091W        W96439  39.839  19.603  13.365
24092W        W96440   0.801   7.189   4.190
24093W        W96441  36.025   9.389   3.773
24094W        W96442   2.732   5.788  11.972
24095W        W96443  23.668  10.175   0.424
24096W        W96444  16.648  43.900  11.976
24097W        W96445  23.175  27.644   4.202
24098W        W96446   8.839  14.280   2.309
24099W        W96447  12.286   6.248  11.028
24100W        W96448  15.725   1.395  13.801
24101W        W96449  39.490  43.274  12.458
24102W        W96450  29.621   2.314   1.424
24103W        W96451  14.125   7.768  13.524
24104W        W96452  10.752  43.502  11.975
24105W        W96453  43.305   2.421   3.701
24106W        W96454   8.858  27.088   2.207
24107W        W96455  16.216  39.832  14.489
24108W        W96456  19.780  38.347  11.008
24109W        W96457  34.603  29.619   4.129
24110W        W96458  32.097  20.045   1.317
24111W        W96459  43.937   3.323   3.674
24112W        W96460  35.007  38.012   3.253
24113W        W96461   4.217  32.497  10.946
24114W        W96462  30.415   7.345  12.967
24115W        W96463  27.564  30.940  11.459
24116W        W96464  38.015  23.224  12.064
24117W        W96465  43.835   9.839  14.954
24118W        W96466  40.983  13.113  14.832
24119W        W96467   5.250  11.211   1.819
24120W        W96468  40.866  37.366  11.501
24121W        W96469  23.548  13.609   3.757
24122W        W96470  22.187  25.553  11.549
24123W        W96471  43.354  29.061  11.421
24124W        W96472  16.292   7.355   4.806
24125W        W96473  24.009  43.344  12.854
24126W        W96474  41.316  14.206   4.825
24127W        W96475  11.690   3.936   2.835
24128W        W96476   8.674  20.176   3.650
24129W        W96477  21.710  27.604   4.188
24130W        W96478   1.380  19.134  10.625
24131W        W96479  12.650   7.391   0.862
24132W        W96480  29.100   0.305   3.701
24133W        W96481  29.478  31.567   0.244
24134W        W96482  43.340  39.379  12.342
24135W        W96483  15.607  38.406   4.172
24136W        W96484   1.741  15.219   0.827
24137W        W96485  12.258  11.624   0.749
24138W        W96486  39.913  24.022  14.916
24139W        W96487  36.909  37.894   0.268
24140W        W96488  42.902   2.835  11.098
24141W        W96489  28.043  40.349   4.116
24142W        W96490  28.484  44.885   1.357
24143W        W96491  41.957  27.516  11.870
24144W        W96492  41.972  24.216   1.369
24145W        W96493  34.389   9.352  14.344
24146W        W96494  13.163  19.233   4.189
24147W        W96495  40.392   9.657  12.367
24148W        W96496  21.225  14.124  14.029
24149W        W96497  34.950  38.819   3.857
24150W        W96498  25.214  17.108   3.178
24151W        W96499  15.096  20.273  14.896
24152W        W96500  35.449  40.846  10.959
24153W        W96501  44.825  35.412   3.777
24154W        W96502  43.843  10.854   2.202
24155W        W96503  29.919  31.533  13.375
24156W        W96504  15.175  11.862  14.815
24157W        W96505  16.793  13.202   4.254
24158W        W96506   0.354  18.781  11.990
24159W        W96507  37.883  19.193   0.948
24160W        W96508  43.828   0.397   2.345
24161W        W96509  42.501   2.752  13.890
24162W        W96510  41.409  10.176   3.820
24163W        W96511   7.857   8.745  13.970
24164W        W96512  38.337  24.141   3.347
24165W        W96513  24.157   0.264   2.304
24166W        W96514  40.419  26.200  11.442
24167W        W96515   5.839  40.946  14.788
24168W        W96516  16.109  10.370  10.554
24169W        W96517   9.807  22.156  14.276
24170W        W96518  36.472   2.907  14.816
24171W        W96519  43.463   4.403   2.862
24172W        W96520  23.985  38.873   4.297
24173W        W96521   0.744  36.544   2.290
24174W        W96522  15.308   4.762   4.265
24175W        W96523  12.361  12.821   2.858
24176W        W96524  22.644  36.568  10.607
24177W        W96525  16.147  25.104  13.030
24178W        W96526  40.546  26.089   2.237
24179W        W96527  19.125  36.381  13.546
24180W        W96528  35.920  26.610  14.392
24181W        W96529  26.176  37.876   2.698
24182W        W96530  17.623   8.708  14.894
24183W        W96531  34.568  30.163   1.392
24184W        W96532  38.467  13.221  12.403
24185W        W96533  41.039  43.783  14.010
24186W        W96534  20.746  32.020   2.381
24187W        W96535  21.089  24.596  12.473
24188W        W96536  11.682  33.390  12.518
24189W        W96537  37.532  31.565  12.438
24190W        W96538  21.160   7.859   1.781
24191W        W96539   4.742  18.573  10.476
24192W        W96540  37.371  17.773  14.766
24193W        W96541   7.294  15.322   0.262
24194W        W96542  15.210   8.368  11.876
24195W        W96543  38.379  28.087  14.781
24196W        W96544   5.319  17.244  12.860
24197W        W96545   2.863  15.170  13.472
24198W        W96546  20.753   4.798  10.414
24199W        W96547  41.909  10.177   4.738
24200W        W96548  38.457   6.304   1.371
24201W        W96549  29.647  34.580   2.272
24202W        W96550  18.149   0.338  12.379
24203W        W96551   4.797  23.110  11.605
24204W        W96552  32.540   0.391  10.927
24205W        W96553  37.915  41.024  12.874
24206W        W96554  21.137   1.315  12.034
24207W        W96555  25.592   9.783   0.326
24208W        W96556  39.924  19.585  12.408
24209W        W96557  26.196   8.724  14.316
24210W        W96558  34.461  43.815  14.463
24211W        W96559   3.267  28.996   2.765
24212W        W96560  34.079  22.071  14.922
24213W        W96561  29.497   2.752   4.735
24214W        W96562  25.469   4.308  12.401
24215W        W96563  18.127  32.142  13.538
24216W        W96564  10.370   3.232   4.274
24217W        W96565  39.314  31.643   1.393
24218W        W96566   3.223  25.678   0.944
24219W        W96567  22.712  44.924   2.811
24220W        W96568  11.128  18.084   0.395
24221W        W96569  43.466  26.058  11.572
24222W        W96570  26.517  36.508  13.988
24223W        W96571   2.331   3.875   2.742
24224W        W96572  32.940  30.467  14.412
24225W        W96573   8.719  11.163   1.241
24226W        W96574  28.636  30.029  14.916
24227W        W96575  37.028  10.162   0.737
24228W        W96576  23.612  44.932   0.919
24229W        W96577  22.511  18.187   5.318
24230W        W96578  40.546  21.628   1.788
24231W        W96579   8.666  38.449   3.630
24232W        W96580  30.658   9.791   4.228
24233W        W96581  12.666  30.659  11.004
24234W        W96582  33.118  22.188   1.863
24235W        W96583  27.519  32.419   2.216
24236W        W96584   5.847  28.484  14.485
24237W        W96585  19.555  38.514   2.279
24238W        W96586  33.005  12.664   2.242
24239W        W96587  12.358  19.729  13.415
24240W        W96588   3.274  15.616   1.413
24241W        W96589  44.824  23.658  12.994
24242W        W96590   9.755  32.486  11.021
24243W        W96591  30.608   5.312   1.339
24244W        W96592   1.926   0.789   3.330
24245W        W96593  40.840  22.173   3.277
24246W        W96594   5.781  28.522  12.512
24247W        W96595  24.095  32.035   1.270
24248W        W96596  15.087  41.308   1.346
24249W        W96597  23.570  38.914  12.948
24250W        W96598  27.075  15.270  11.970
24251W        W96599  43.516  32.999   2.235
24252W        W96600  15.632  41.464  11.972
24253W        W96601  20.667  33.520  12.568
24254W        W96602  34.954  31.979  11.059
24255W        W96603  36.472  11.704  12.018
24256W        W96604  19.574   5.239   1.331
24257W        W96605  43.974  37.875   4.334
24258W        W96606  33.040   3.751  11.006
24259W        W96607   4.914   8.192   3.329
24260W        W96608  29.513  24.133   3.262
24261W        W96609   8.861  15.641  13.055
24262W        W96610  20.671  30.629   2.280
24263W        W96611  12.161   5.362  13.922
24264W        W96612  42.967  17.584   3.221
24265W        W96613  27.650  13.791   2.792
24266W        W96614  40.919  37.911  12.464
24267W        W96615  13.789  23.545   3.242
24268W        W96616  36.003  20.659  11.589
24269W        W96617  25.613  33.466   4.315
24270W        W96618  42.309  24.491   3.316
24271W        W96619  40.328  39.887   4.775
24272W        W96620  39.952  31.907  10.929
24273W        W96621  35.984  11.737  11.859
24274W        W96622   3.770  33.545  13.953
24275W        W96623  42.022  24.163   3.753
24276W        W96624   6.259  23.640   3.303
24277W        W96625   8.183  41.959   0.789
24278W        W96626  25.996  23.108  13.867
24279W        W96627   3.747   3.425  11.121
24280W        W96628  21.174  37.058  12.467
24281W        W96629   8.866   0.773   1.387
24282W        W96630   0.911  21.561  11.901
24283W        W96631  12.806  38.545  12.442
24284W        W96632  11.183  33.527  13.868
24285W        W96633  29.053   4.224  14.470
24286W        W96634  18.155  15.711   4.206
24287W        W96635   9.252  39.019   9.921
24288W        W96636  20.053  22.200   0.961
24289W        W96637  41.407  12.671   4.202
24290W        W96638  22.019  38.548   4.644
24291W        W96639  42.380  43.394  13.340
24292W        W96640  33.882  28.137  11.477
24293W        W96641  26.206   3.813  10.566
24294W        W96642  19.667  10.189  11.922
24295W        W96643  37.446  19.043   1.828
24296W        W96644  28.665  40.474   1.238
24297W        W96645  27.029   6.388   3.371
24298W        W96646   7.387  24.683  10.503
24299W        W96647  28.512  33.497   2.737
24300W        W96648  20.089  11.661   1.251
24301W        W96649   8.749  34.119  11.121
24302W        W96650  20.227  38.017  12.922
24303W        W96651  25.494  10.792  12.037
24304W        W96652  12.359  12.263   1.921
24305W        W96653  26.113  39.545   3.863
24306W        W96654  28.965   0.358   4.745
24307W        W96655  26.493  37.526  10.606
24308W        W96656  42.936  23.641   0.438
24309W        W96657  31.459  37.483  10.975
24310W        W96658  34.385  34.419   2.682
24311W        W96659  26.662   8.349  13.890
24312W        W96660  42.355   9.864  13.535
24313W        W96661  13.196  28.469  13.823
24314W        W96662   2.818   9.161   4.313
24315W        W96663  33.979   4.204  11.124
24316W        W96664  27.101  37.387  14.986
24317W        W96665  21.162  35.517  14.906
24318W        W96666  27.963  14.316   1.296
24319W        W96667  15.680  42.955  11.076
24320W        W96668  37.336  17.169   0.867
24321W        W96669  19.236  40.419   3.153
24322W        W96670  14.106  38.484   2.372
24323W        W96671  43.479  35.971  11.935
24324W        W96672  36.894  19.644   0.343
24325W        W96673  36.917   8.300   1.769
24326W        W96674  23.193  43.462  14.825
24327W        W96675   4.935   9.227   0.955
24328W        W96676  44.820  21.686   1.419
24329W        W96677  43.816   8.230   4.620
24330W        W96678  14.816  18.169  11.496
24331W        W96679   6.270  26.523   2.397
24332W        W96680  23.639  26.686   4.348
24333W        W96681  34.508  21.155  14.483
24334W        W96682  30.622  17.063  11.597
24335W        W96683  20.712  37.539   3.171
24336W        W96684   5.930  33.423  14.473
24337W        W96685  34.609  30.583  12.902
24338W        W96686  41.435  18.664   4.796
24339W        W96687  32.910   5.396  13.390
24340W        W96688  21.592  17.285   2.893
24341W        W96689  25.517   1.807   2.312
24342W        W96690  42.514  15.198  12.388
24343W        W96691  17.230  14.256   0.727
24344W        W96692  13.230  20.693  13.942
24345W        W96693   3.870  30.964  12.455
24346W        W96694   7.778   5.428  13.415
24347W        W96695  44.934   4.300   4.702
24348W        W96696  31.980  25.596   2.900
24349W        W96697  36.525  39.315   2.381
24350W        W96698   2.816  40.829  13.413
24351W        W96699  21.749   6.879  12.404
24352W        W96700  18.600  12.623  12.900
24353W        W96701  11.815  31.149   3.145
24354W        W96702  36.919   2.326   3.764
24355W        W96703   2.961   4.216   0.952
24356W        W96704  27.187  10.216  11.877
24357W        W96705  11.285  39.893  14.332
24358W        W96706  11.639  21.740   2.256
24359W        W96707  21.693   0.989   2.296
24360W        W96708  27.682   5.231  11.972
24361W        W96709  20.638  12.242   3.182
24362W        W96710   5.843  36.404   1.442
24363W        W96711   4.916   3.827  13.313
24364W        W96712  31.000  11.288   2.383
24365W        W96713  26.084   2.792  11.384
24366W        W96714  21.131  32.922  12.535
24367W        W96715  13.644  28.991  10.892
24368W        W96716   9.279  16.284  11.856
24369W        W96717   7.809  25.017  14.406
24370W        W96718   2.440  15.793   0.264
24371W        W96719  17.240  35.964  14.902
24372W        W96720  29.612  25.714  13.321
24373W        W96721  24.032   9.870   9.995
24374W        W96722  36.512  32.546   0.323
24375W        W96723  16.671  10.250   4.116
24376W        W96724  21.641  11.661   4.680
24377W        W96725  17.257   8.662   3.827
24378W        W96726  21.213  38.453  11.026
24379W        W96727  29.547  14.317  11.033
24380W        W96728  35.414  25.971   2.777
24381W        W96729  15.299  44.754   0.942
24382W        W96730  38.517  27.516  13.043
24383W        W96731   9.341  11.189  12.493
24384W        W96732   3.881  38.907   3.757
24385W        W96733  12.656  15.196  12.472
24386W        W96734   5.301  26.171   1.411
24387W        W96735  35.543  29.571   3.357
24388W        W96736   9.725  29.526  12.528
24389W        W96737  28.494  31.624   0.294
24390W        W96738  21.578   1.271   2.211
24391W        W96739  16.187  32.521   2.361
24392W        W96740   5.903  33.460   1.850
24393W        W96741   1.782  41.977   5.147
24394W        W96742  24.540  27.602   2.689
24395W        W96743  29.466  43.398  11.541
24396W        W96744  24.698  39.341   1.714
24397W        W96745  18.082  16.666   2.237
24398W        W96746   7.676  22.033  10.477
24399W        W96747  31.966   2.770   4.189
24400W        W96748  26.521  40.414   1.846
24401W        W96749   2.873   8.723  13.027
24402W        W96750  40.544  12.699   3.374
24403W        W96751   4.352  22.241  12.903
24404W        W96752  17.091  24.636   2.663
24405W        W96753  11.745  12.709  11.498
24406W        W96754  16.181  43.390  12.061
24407W        W96755   2.427   8.403   0.381
24408W        W96756  27.176   6.907  13.377
24409W        W96757  33.040  19.101  12.028
24410W        W96758   9.704  24.128  10.435
24411W        W96759  21.090   3.289   4.228
24412W        W96760  27.182  24.171  14.367
24413W        W96761  35.001  30.590  13.424
24414W        W96762  34.475  13.670   0.427
24415W        W96763  38.438  39.475  10.617
24416W        W96764  28.977   9.342  14.977
24417W        W96765  40.410   0.966   2.811
24418W        W96766  40.381   1.481   4.748
24419W        W96767   2.941  36.459  12.829
24420W        W96768  25.989  41.465  14.822
24421W        W96769  13.609  26.134   2.263
24422W        W96770  24.524  33.528  12.464
24423W        W96771   7.760  25.675   3.712
24424W        W96772  27.062  11.340   3.785
24425W        W96773  41.980  31.907   2.407
24426W        W96774   7.365  41.537  13.378
24427W        W96775   8.763  36.025  11.491
24428W        W96776  24.510  10.863  11.532
24429W        W96777  12.274  37.422  11.101
24430W        W96778   0.396   1.362  13.919
24431W        W96779  41.974  14.616  12.474
24432W        W96780   2.419  20.624  13.975
24433W        W96781  26.972  44.778  13.934
24434W        W96782  17.761  13.188   2.396
24435W        W96783   1.758  39.538  10.500
24436W        W96784  43.794  37.528  11.564
24437W        W96785  29.541   6.787   1.799
24438W        W96786  14.698  31.435   4.661
24439W        W96787   3.276  32.567   1.905
24440W        W96788  41.463  27.940  13.408
24441W        W96789  30.126  22.571  12.523
24442W        W96790   7.353  14.330  10.566
24443W        W96791  25.476   3.871   2.746
24444W        W96792  30.949   7.391  13.016
24445W        W96793  27.610  41.868  11.939
24446W        W96794   8.658   8.286   3.637
24447W        W96795  21.657  43.946  13.041
24448W        W96796  39.001  32.395   2.789
24449W        W96797  39.937  13.109  10.603
24450W        W96798   5.916   5.893   4.318
24451W        W96799   0.973  14.654   0.872
24452W        W96800  16.649  42.892  11.557
24453W        W96801   1.291   8.180   2.690
24454W        W96802  13.829  12.689   3.208
24455W        W96803  34.020  44.858   3.204
24456W        W96804   1.767  36.470  10.565
24457W        W96805  17.120  41.027   1.319
24458W        W96806  37.576  12.360  14.773
24459W        W96807  31.975  22.128   1.284
24460W        W96808  18.137  27.069  11.007
24461W        W96809  26.099  35.865  14.032
24462W        W96810  32.463  34.571   0.352
24463W        W96811   8.195   8.680  11.974
24464W        W96812   2.882  37.380  11.909
24465W        W96813  12.719  42.344  13.395
24466W        W96814  10.257  31.501  12.561
24467W        W96815  23.632  18.763  10.924
24468W        W96816   1.399   7.744  14.309
24469W        W96817   7.269  27.525  12.932
24470W        W96818  24.621  11.666  13.827
24471W        W96819   7.171  41.388   2.823
24472W        W96820   7.886  18.676  14.333
24473W        W96821  36.562  41.518  14.988
24474W        W96822  15.205   3.843  12.506
24475W        W96823  39.947  18.199   0.797
24476W        W96824  22.636  10.331   5.745
24477W        W96825  29.580  11.807   0.822
24478W        W96826  20.188  38.838  13.459
24479W        W96827  15.618  43.443   3.326
24480W        W96828  44.962  22.520  11.446
24481W        W96829   5.261  35.435  11.027
24482W        W96830  24.497  39.350   3.288
24483W        W96831  11.627  36.458   0.436
24484W        W96832  16.304  12.291   5.650
24485W        W96833  31.029  14.612   2.722
24486W        W96834  13.293   6.238   1.776
24487W        W96835  13.646  27.556   3.858
24488W        W96836  44.495  44.855   3.235
24489W        W96837  37.439  38.861  13.538
24490W        W96838  14.129  10.184   3.223
24491W        W96839  18.550  15.212   4.212
24492W        W96840  43.779  42.468  11.120
24493W        W96841  13.748  18.554  14.290
24494W        W96842  35.882  25.484  12.023
24495W        W96843   8.901  16.586  14.496
24496W        W96844   4.334  25.525   1.739
24497W        W96845  23.169   7.181  10.123
24498W        W96846   1.450  19.264   3.161
24499W        W96847  26.191   7.236   4.706
24500W        W96848  28.546  28.941  12.411
24501W        W96849   8.699  28.453  14.385
24502W        W96850   0.832  30.060  11.479
24503W        W96851  39.488  34.459  12.414
24504W        W96852  28.960   4.296  14.953
24505W        W96853  29.559  26.641  13.838
24506W        W96854   0.415  17.101   3.821
24507W        W96855   2.839  21.624  13.363
24508W        W96856  35.923   3.921  12.851
24509W        W96857  30.597   9.157  10.641
24510W        W96858  34.932  28.067   0.302
24511W        W96859  11.235  31.063   3.753
24512W        W96860   6.782  19.605  11.517
24513W        W96861  11.633  17.081   9.962
24514W        W96862  28.509  27.467  10.615
24515W        W96863  14.281   4.283  10.977
24516W        W96864  27.479  15.107  11.019
24517W        W96865  33.551  22.549   0.840
24518W        W96866   9.792   4.207  12.950
24519W        W96867  41.348   9.743   4.656
24520W        W96868  26.486   1.772   1.885
24521W        W96869   7.320  12.250   3.840
24522W        W96870  29.516  42.413   2.868
24523W        W96871   5.209  19.062  13.502
24524W        W96872  33.108   6.842  11.006
24525W        W96873  37.964  13.335  10.590
24526W        W96874  35.891  35.519   2.789
24527W        W96875  23.550   3.421  14.328
24528W        W96876   1.739  29.019  13.860
24529W        W96877  33.578  18.122  11.105
24530W        W96878  33.124  32.485   4.753
24531W        W96879  14.234  30.094   4.247
24532W        W96880  43.777  32.962   0.468
24533W        W96881  13.623  30.051  13.923
24534W        W96882   2.879  23.013  14.976
24535W        W96883  31.128  35.916  10.472
24536W        W96884  21.752  35.865  11.001
24537W        W96885  12.182   1.901  13.848
24538W        W96886  19.144  21.678  11.873
24539W        W96887  19.580   6.342  12.051
24540W        W96888  26.629  27.608   0.883
24541W        W96889  17.664  44.467  10.509
24542W        W96890  19.775  11.230   0.810
24543W        W96891  27.645  37.494  10.625
24544W        W96892  29.545  16.192   2.323
24545W        W96893  22.224  21.544  14.396
24546W        W96894  18.751  37.060  12.528
24547W        W96895  14.143  38.438   4.725
24548W        W96896  24.022  12.621  12.474
24549W        W96897  30.656   4.399   2.352
24550W        W96898  16.265   1.740   1.397
24551W        W96899  31.579  16.745  10.425
24552W        W96900   8.281  17.758   1.381
24553W        W96901  37.081  41.462  14.412
24554W        W96902   8.689  34.527  13.821
24555W        W96903  11.235  34.024   2.222
24556W        W96904   9.171  31.500   2.679
24557W        W96905  26.622  33.035   3.303
24558W        W96906  36.474  35.452   2.215
24559W        W96907  35.463  21.580  10.980
24560W        W96908  41.457  43.795   3.804
24561W        W96909  28.451   6.687   1.919
24562W        W96910   5.307  17.086   2.366
24563W        W96911  26.067  32.600  11.889
24564W        W96912  12.122  22.231  10.415
24565W        W96913  30.938  21.017  13.502
24566W        W96914  35.028  13.180   3.778
24567W        W96915  24.659   1.844  13.366
24568W        W96916  12.274  13.154  11.506
24569W        W96917  11.780  24.989  10.892
24570W        W96918  37.435  38.362  10.553
24571W        W96919  28.531  43.307  13.861
24572W        W96920  43.345   4.719   1.888
24573W        W96921   6.329   2.891   3.795
24574W        W96922  10.301  23.604  13.540
24575W        W96923  27.576  21.662   4.773
24576W        W96924   0.398   5.271   3.716
24577W        W96925  32.120  40.509  11.566
24578W        W96926  33.441   7.258  13.469
24579W        W96927   7.201  22.167   3.246
24580W        W96928   1.858  36.415  13.883
24581W        W96929   5.872  36.490   3.289
24582W        W96930  10.307  39.320  14.472
24583W        W96931   3.410  41.298  12.826
24584W        W96932   5.362  38.489  12.995
24585W        W96933  42.330  12.250  13.395
24586W        W96934  11.792  13.649   2.213
24587W        W96935   0.373   2.257  11.951
24588W        W96936  25.017  15.748   3.329
24589W        W96937   9.216   0.393  10.637
24590W        W96938  42.450  11.334  14.282
24591W        W96939  22.176   5.244  13.886
24592W        W96940  34.875  37.994   4.218
24593W        W96941  23.601  34.115  14.374
24594W        W96942  22.043  30.640   1.442
24595W        W96943   7.782  44.987  11.468
24596W        W96944  15.588  27.116  12.430
24597W        W96945  21.168  39.415   0.479
24598W        W96946  35.898  32.398  13.858
24599W        W96947  31.899   1.739  12.946
24600W        W96948   3.747  21.240  11.989
24601W        W96949  43.309  30.137   4.760
24602W        W96950  21.640   6.338   0.940
24603W        W96951  25.548  12.139  12.977
24604W        W96952  26.572  17.226   1.828
24605W        W96953  34.094  20.635   4.754
24606W        W96954  30.418   5.395  14.990
24607W        W96955   6.349  23.553  12.027
24608W        W96956  19.612  32.607   0.853
24609W        W96957  19.707  29.974  12.395
24610W        W96958  38.456  12.614   2.709
24611W        W96959  38.041  20.696  14.951
24612W        W96960   0.493  32.584  14.397
24613W        W96961  17.750  25.601   2.342
24614W        W96962  31.542   8.846   0.311
24615W        W96963  36.431  44.483  12.362
24616W        W96964  17.302  10.869   4.176
24617W        W96965  27.099  17.760   1.763
24618W        W96966  29.172  28.553   3.743
24619W        W96967  11.759  28.935   1.879
24620W        W96968   4.838  35.400   4.230
24621W        W96969  43.340  20.229   2.799
24622W        W96970  35.516  42.972  13.032
24623W        W96971  32.081   1.926   4.306
24624W        W96972  27.475  25.156   3.377
24625W        W96973  21.101  44.941   2.822
24626W        W96974  36.882  17.121  10.918
24627W        W96975  11.150  41.456   4.244
24628W        W96976  27.493  18.207  13.941
24629W        W96977  17.611  15.751  10.445
24630W        W96978  34.385  19.140  12.035
24631W        W96979  14.245   3.870   3.744
24632W        W96980   7.878   2.437   4.291
24633W        W96981  23.725  35.392  11.127
24634W        W96982  41.994  42.942  11.409
24635W        W96983  29.589  36.558   0.943
24636W        W96984  13.272  26.060  10.931
24637W        W96985   0.889  28.962  10.480
24638W        W96986  42.498  31.140  14.281
24639W        W96987  27.100  18.722  12.935
24640W        W96988  40.945   4.861  10.438
24641W        W96989  40.969  34.097   3.782
24642W        W96990   8.831  40.351  13.799
24643W        W96991   8.656  17.262   2.243
24644W        W96992  37.017  29.445   2.269
24645W        W96993  18.164  16.314  11.090
24646W        W96994   3.833  42.433  14.808
24647W        W96995  41.857  44.877  12.374
24648W        W96996  40.337  43.014  14.488
24649W        W96997  36.563  37.054  14.442
24650W        W96998  25.512   3.894  12.948
24651W        W96999   3.947  34.383   0.911
24652W        W97000  34.554  32.914   0.929
24653W        W97001  18.674  34.987  12.010
24654W        W97002  44.753  30.135   3.256
24655W        W97003  28.675  14.713  10.439
24656W        W97004  29.935  20.131  14.479
24657W        W97005  26.993   8.226   3.765
24658W        W97006  40.482  44.313   2.777
24659W        W97007  18.282  37.417  11.952
24660W        W97008  20.053  28.986   1.933
24661W        W97009  33.597  29.945  13.495
24662W        W97010   7.388   1.735   2.759
24663W        W97011   0.967  12.793  12.441
24664W        W97012  22.677   2.848  13.869
24665W        W97013  32.534  14.322  12.990
24666W        W97014  42.846  24.645  12.522
24667W        W97015  29.544  37.425  11.507
24668W        W97016  24.676  13.624   1.703
24669W        W97017  32.054  15.283  13.406
24670W        W97018   3.325   9.221  14.490
24671W        W97019  29.013  15.277  12.492
24672W        W97020  30.620  22.134  11.465
24673W        W97021  11.137   5.690  12.482
24674W        W97022  37.406  16.740   4.678
24675W        W97023  43.764  23.200   0.900
24676W        W97024  28.009  11.836  11.983
24677W        W97025  34.110  41.019  13.322
24678W        W97026  37.388  34.017  10.406
24679W        W97027  38.977  18.284  12.579
24680W        W97028  12.668  11.229  10.431
24681W        W97029  31.460  23.108   4.652
24682W        W97030  43.808  24.090   0.943
24683W        W97031  13.310   3.385   4.348
24684W        W97032   7.830   6.210  10.983
24685W        W97033   3.216  20.123   3.762
24686W        W97034  18.746   7.858  11.581
24687W        W97035  38.958  26.611   1.383
24688W        W97036  20.763  25.547  10.490
24689W        W97037  39.004   3.882  10.565
24690W        W97038  21.182  33.087  13.878
24691W        W97039  11.772  10.857  13.546
24692W        W97040  44.412  25.215   2.887
24693W        W97041  42.452  42.779  12.433
24694W        W97042  42.804  12.729  14.844
24695W        W97043  25.061  16.073   1.331
24696W        W97044  10.844   8.874   2.205
24697W        W97045  17.756  28.996   2.850
24698W        W97046  15.328  36.348   1.223
24699W        W97047  44.870  10.162   3.823
24700W        W97048   6.867   8.390  12.085
24701W        W97049  18.727  36.358   1.911
24702W        W97050   9.670  15.152  11.490
24703W        W97051  40.468  42.422  13.915
24704W        W97052   7.240  24.168   3.203
24705W        W97053  44.430  33.553   4.796
24706W        W97054  24.608   9.657   0.250
24707W        W97055   5.759  25.028   4.806
24708W        W97056  20.738  37.474   4.291
24709W        W97057  28.995  34.011  11.885
24710W        W97058  10.810  41.004  10.469
24711W        W97059   3.831   5.205   3.259
24712W        W97060   8.354  44.439   1.821
24713W        W97061   9.859  42.016  14.396
24714W        W97062  17.732  36.011  12.556
24715W        W97063  22.042  12.820   4.740
24716W        W97064  40.998  34.481   0.342
24717W        W97065  23.183  14.335   3.184
24718W        W97066   9.757  13.737   3.702
24719W        W97067   8.882   4.302   3.677
24720W        W97068  26.066  44.374   4.637
24721W        W97069  27.551  43.288  11.575
24722W        W97070  39.834  30.526  10.454
24723W        W97071  23.650   3.257  14.777
24724W        W97072   6.418   2.365   3.763
24725W        W97073  20.568  30.985   1.722
24726W        W97074   9.776  29.423   0.828
24727W        W97075  33.429  21.555  14.883
24728W        W97076  38.339  31.418  11.054
24729W        W97077  25.181  23.697  11.923
24730W        W97078  32.036  25.478  11.020
24731W        W97079  42.464  25.581  11.032
24732W        W97080  24.048   5.916  10.417
24733W        W97081   3.231  34.996   2.344
24734W        W97082   6.912  28.441  10.510
24735W        W97083  34.028  13.195   1.762
24736W        W97084  28.959   4.397   3.153
24737W        W97085  12.803  10.799   1.884
24738W        W97086   7.809  30.060  12.984
24739W        W97087  24.089  42.780   0.765
24740W        W97088   4.235  13.249   1.348
24741W        W97089  34.094  21.744  14.363
24742W        W97090  30.006   6.352   5.097
24743W        W97091  38.384  19.772   1.784
24744W        W97092   8.373   8.851   5.097
24745W        W97093   7.715   8.160  14.891
24746W        W97094  37.965  33.498   1.237
24747W        W97095  23.124  11.154  13.059
24748W        W97096  15.243   5.794   1.270
24749W        W97097  15.804  24.715  12.889
24750W        W97098  30.545  26.058   2.772
24751W        W97099  22.106  27.604   0.912
24752W        W97100  28.062  38.006  10.965
24753W        W97101   8.724  38.414  11.063
24754W        W97102   6.341  44.386   1.268
24755W        W97103   3.750  17.134  12.542
24756W        W97104   6.362  26.477  10.022
24757W        W97105  10.142  42.990  10.954
24758W        W97106  34.610   5.865   0.934
24759W        W97107   5.251  28.020   2.712
24760W        W97108  42.925   4.879   5.137
24761W        W97109  25.570  36.373  14.447
24762W        W97110  23.157  37.022   3.220
24763W        W97111  42.484  28.984  14.295
24764W        W97112   5.896  25.215   1.730
24765W        W97113   9.312  31.624  10.069
24766W        W97114   9.819  29.149   4.326
24767W        W97115   3.756   2.271   4.777
24768W        W97116  26.698  16.245  11.486
24769W        W97117   5.787  42.874   0.385
24770W        W97118  38.872  20.259  10.512
24771W        W97119  42.801  22.516   4.183
24772W        W97120  44.279   4.714  10.439
24773W        W97121  26.670  23.577   4.672
24774W        W97122  38.517  35.982  11.105
24775W        W97123  22.202  42.855  11.472
24776W        W97124   8.194   5.867   4.244
24777W        W97125   5.768  18.576  13.039
24778W        W97126  31.914  36.073  10.455
24779W        W97127  36.938  13.106   1.849
24780W        W97128  17.639  18.068  10.967
24781W        W97129  19.240  26.135   3.199
24782W        W97130   7.696   0.907  10.919
24783W        W97131   4.754   1.811  13.804
24784W        W97132  27.113  22.145   2.879
24785W        W97133  26.562  26.034   1.855
24786W        W97134  12.750  21.127   0.749
24787W        W97135  26.987  17.118   0.786
24788W        W97136  41.883  27.688  13.047
24789W        W97137  23.206  20.204  10.976
24790W        W97138   0.760  39.853   3.701
24791W        W97139  25.516   5.750   1.251
24792W        W97140  44.968   5.216  12.389
24793W        W97141  10.809  37.997  10.615
24794W        W97142  18.620  40.443   3.265
24795W        W97143   1.920  13.231  12.851
24796W        W97144  11.200   6.297  12.033
24797W        W97145  24.508  29.007   0.912
24798W        W97146  17.082  32.429  11.585
24799W        W97147  34.037   6.856  12.838
24800W        W97148   1.825  10.815  11.019
24801W        W97149   5.352  40.379   3.704
24802W        W97150  37.933  16.264  13.048
24803W        W97151  35.064  21.560  12.561
24804W        W97152   7.685  41.934   2.797
24805W        W97153  37.057  29.157   3.670
24806W        W97154  15.237   0.334  12.341
24807W        W97155  24.181  20.141  10.990
24808W        W97156  20.598  22.680   2.808
24809W        W97157  29.936  39.537  13.454
24810W        W97158  19.264  16.719  13.935
24811W        W97159  16.261  10.192  12.544
24812W        W97160  42.424  23.091   0.896
24813W        W97161  36.581  28.557   2.332
24814W        W97162  10.639  15.621  11.432
24815W        W97163   7.185  40.958  10.571
24816W        W97164  19.169  31.897   1.935
24817W        W97165   0.904  28.552   0.459
24818W        W97166  14.121  31.142  14.383
24819W        W97167  29.086  41.801   4.296
24820W        W97168   6.231  37.450  13.398
24821W        W97169  21.167  36.405   2.361
24822W        W97170   5.784  15.128  11.869
24823W        W97171  11.144  36.996   2.694
24824W        W97172  16.690   9.304   4.627
24825W        W97173   2.464  27.675  13.810
24826W        W97174  34.999  33.995  11.057
24827W        W97175  27.522  24.126   0.346
24828W        W97176  29.448   0.879   5.268
24829W        W97177  10.853  29.579   0.736
24830W        W97178  38.841  36.012   3.751
24831W        W97179  39.486  17.221  14.406
24832W        W97180  31.631   5.810   5.734
24833W        W97181  27.969  26.535   2.202
24834W        W97182  12.220  16.182  12.922
24835W        W97183  19.102   6.841   2.824
24836W        W97184  24.093  30.570  11.020
24837W        W97185  12.616  28.529   3.676
24838W        W97186  27.940  36.399   1.839
24839W        W97187  38.968   5.816   4.289
24840W        W97188  13.308  12.674  12.004
24841W        W97189  40.476  26.673   2.791
24842W        W97190  22.554  24.495   2.783
24843W        W97191  12.234  24.148  14.348
24844W        W97192  17.090  28.990   3.723
24845W        W97193  42.894  24.017   3.166
24846W        W97194  43.902   1.382   3.328
24847W        W97195  15.167  41.924  14.312
24848W        W97196  17.783  39.337   0.465
24849W        W97197  18.241   2.336   3.299
24850W        W97198  13.115   7.364  13.436
24851W        W97199  13.755   8.810  12.353
24852W        W97200  20.052  13.632  13.839
24853W        W97201  24.569  31.614  10.963
24854W        W97202   9.759  11.286  11.038
24855W        W97203  30.598   2.305   0.759
24856W        W97204  12.755  11.681   3.794
24857W        W97205  30.581  20.137  14.299
24858W        W97206  18.548  40.373  14.486
24859W        W97207   1.473  44.838  12.883
24860W        W97208  29.455  10.771  13.420
24861W        W97209  43.480  12.248  10.626
24862W        W97210  27.614  23.705  14.494
24863W        W97211  32.414  38.360   1.392
24864W        W97212  32.091  32.996   0.395
24865W        W97213  17.665  44.777  10.985
24866W        W97214   4.811   2.950  13.951
24867W        W97215  17.097   4.325  13.890
24868W        W97216  32.091  40.824  14.952
24869W        W97217  27.185  33.438   3.700
24870W        W97218  22.103   5.270  12.441
24871W        W97219  33.078   6.721  11.944
24872W        W97220  40.318  20.137  10.457
24873W        W97221   8.881  17.624   4.793
24874W        W97222  44.898  17.240   1.327
24875W        W97223  18.767  11.147   3.353
24876W        W97224  37.530   2.379  12.041
24877W        W97225  40.331  32.974   0.777
24878W        W97226  40.031  12.821  12.833
24879W        W97227  29.498  16.721   3.280
24880W        W97228  14.736  10.731   2.384
24881W        W97229   9.872   2.435   4.818
24882W        W97230  25.058  14.611   1.226
24883W        W97231  37.547  24.508  14.768
24884W        W97232  39.452  19.574  12.473
24885W        W97233  29.952  40.455  14.454
24886W        W97234  34.607  33.433  12.862
24887W        W97235  33.416  18.703  14.471
24888W        W97236  19.161  15.152  12.401
24889W        W97237  23.726  27.956  14.829
24890W        W97238   8.689  12.633  13.999
24891W        W97239  16.783   5.200  12.490
24892W        W97240  30.147  20.649  11.599
24893W        W97241  14.116  10.768  12.403
24894W        W97242  19.546  18.243  14.298
24895W        W97243  31.631  42.873  13.821
24896W        W97244   3.281  26.080  14.912
24897W        W97245  20.109  18.063   0.429
24898W        W97246  16.310  13.249  13.874
24899W        W97247  39.016  16.296   3.360
24900W        W97248  43.020  32.412   3.245
24901W        W97249  13.202  21.574   0.947
24902W        W97250  44.283  32.624   0.343
24903W        W97251  25.646  26.122   3.654
24904W        W97252  18.676  30.918   4.149
24905W        W97253  41.985  17.062   0.383
24906W        W97254   9.840   5.804  11.928
24907W        W97255   6.827  20.238  10.559
24908W        W97256  43.020  29.958   4.817
24909W        W97257  40.438  15.213  14.402
24910W        W97258  26.525  29.487  10.415
24911W        W97259  21.619  32.607   1.397
24912W        W97260  27.654  20.177   0.257
24913W        W97261   5.300  25.156  12.862
24914W        W97262  28.956  13.807  11.906
24915W        W97263  35.496   0.259  11.403
24916W        W97264   0.871  12.684  14.959
24917W        W97265  44.822  26.033   4.227
24918W        W97266  24.657  33.521  12.014
24919W        W97267  38.848  21.109  11.894
24920W        W97268  34.451   1.306  10.425
24921W        W97269   5.882   0.403  14.279
24922W        W97270  40.362   9.353  10.444
24923W        W97271  33.526  17.769  10.910
24924W        W97272  10.351  33.544  14.876
24925W        W97273  12.809  23.595  14.438
24926W        W97274  13.206   1.338  12.390
24927W        W97275  18.789   3.313  14.022
24928W        W97276  30.655   0.763  13.366
24929W        W97277   9.212  25.630  10.491
24930W        W97278  16.114   2.954   2.396
24931W        W97279   6.229  10.760   4.193
24932W        W97280   9.369  29.574   1.425
24933W        W97281  36.465   6.736  11.067
24934W        W97282   9.699  22.082  10.603
24935W        W97283  23.569  43.414   3.151
24936W        W97284  39.358  16.685  13.418
24937W        W97285  30.537  41.824  14.373
24938W        W97286  21.528  28.527   4.129
24939W        W97287   8.283  27.189   1.916
24940W        W97288  14.100   2.780  11.462
24941W        W97289  11.295   3.751   2.301
24942W        W97290  12.681  26.639   3.261
24943W        W97291  32.524  15.121  10.607
24944W        W97292  12.721  24.091  12.975
24945W        W97293   3.838  44.997  11.469
24946W        W97294  31.014  21.089  11.564
24947W        W97295  42.870   8.333  13.854
24948W        W97296  31.011  27.966  12.832
24949W        W97297  14.714  34.540  14.457
24950W        W97298  42.405  27.664  13.031
24951W        W97299  23.226  17.664  10.549
24952W        W97300  10.813  14.769  14.933
24953W        W97301   9.325  34.016  14.290
24954W        W97302  20.575  27.574   2.347
24955W        W97303  20.693  28.968   4.745
24956W        W97304  11.742   7.394  14.956
24957W        W97305  42.946  26.630   1.234
24958W        W97306  34.038   8.846  12.341
24959W        W97307  12.178  44.850  11.874
24960W        W97308  20.758  28.613  14.386
24961W        W97309  28.519  39.523   1.293
24962W        W97310  13.335  24.528   3.267
24963W        W97311   6.262  18.598  12.857
24964W        W97312  25.051  19.652   0.898
24965W        W97313  11.802   1.433   0.902
24966W        W97314  16.107  21.532   4.242
24967W        W97315  26.185  29.482  10.913
24968W        W97316  37.834  19.778   5.091
24969W        W97317  42.416  12.804  11.953
24970W        W97318  33.381  44.756  10.969
24971W        W97319  41.813  43.994  12.363
24972W        W97320  14.182  42.354  11.567
24973W        W97321  12.361   6.825  14.438
24974W        W97322  36.977  40.844   0.309
24975W        W97323  44.986  39.006  14.438
24976W        W97324  17.728  27.109  10.411
24977W        W97325  32.440   6.828  13.386
24978W        W97326  17.140  37.459  13.513
24979W        W97327   9.345  25.531  11.959
24980W        W97328  36.424   4.817   2.853
24981W        W97329  17.768  24.063  11.506
24982W        W97330  21.679  34.602  11.025
24983W        W97331  35.538  11.161   2.385
24984W        W97332  22.167  12.827  14.933
24985W        W97333  24.136   2.386   2.673
24986W        W97334  11.723  21.224  14.392
24987W        W97335  20.042  35.096   1.808
24988W        W97336   1.402  28.571   1.342
24989W        W97337  15.297  33.907  10.431
24990W        W97338  16.630   7.318   0.775
24991W        W97339  26.185  36.572   3.818
24992W        W97340   4.700  14.245   0.891
24993W        W97341   2.435   0.890   2.211
24994W        W97342  24.617   8.325  13.930
24995W        W97343  39.921  44.324   3.315
24996W        W97344  16.171  16.195   3.734
24997W        W97345   0.763  19.774   0.422
24998W        W97346  35.555   9.329  10.944
24999W        W97347  20.222   2.310  10.411
25000W        W97348   5.423  35.932  11.436
25001W        W97349  25.543   8.227   4.758
25002W        W97350  16.755  41.875  14.021
25003W        W97351  21.186  12.798   1.279
25004W        W97352  33.020   6.700  14.515
25005W        W97353  43.015  12.350  10.539
25006W        W97354   7.338   0.255   3.774
25007W        W97355  33.588   0.392  12.508
25008W        W97356  39.540   5.772   0.433
25009W        W97357  32.468  24.100   3.347
25010W        W97358   5.285  11.294  12.562
25011W        W97359  15.296  28.084  13.009
25012W        W97360  38.391  41.884  13.377
25013W        W97361  40.045  21.259   4.189
25014W        W97362   2.827  37.497  11.085
25015W        W97363  34.413   1.970   0.430
25016W        W97364  33.921  25.552   2.197
25017W        W97365  44.498  29.600   4.162
25018W        W97366   6.792  25.093  11.402
25019W        W97367   0.386   6.851  12.045
25020W        W97368  14.654  12.856   0.374
25021W        W97369  17.150  32.044  13.818
25022W        W97370  43.880   6.297   3.784
25023W        W97371  16.586  37.076   3.825
25024W        W97372   6.235  40.375   1.243
25025W        W97373  20.106  30.486   3.164
25026W        W97374  34.413   1.758  13.477
25027W        W97375   4.791  43.335  10.926
25028W        W97376  37.341  25.024   4.819
25029W        W97377  15.686  24.054  14.832
25030W        W97378  21.071  30.603  14.898
25031W        W97379  41.875  43.834   4.190
25032W        W97380  10.859  22.132  10.533
25033W        W97381  31.061  36.532  13.444
25034W        W97382  10.684  33.096   1.748
25035W        W97383  41.929   2.283  10.936
25036W        W97384   9.213  29.964  14.864
25037W        W97385  14.818   7.312   2.873
25038W        W97386  19.266   3.749   4.600
25039W        W97387  15.243  17.111  10.974
25040W        W97388  28.125  21.537  13.914
25041W        W97389  27.950   8.671  14.898
25042W        W97390  29.991  42.010   1.295
25043W        W97391  15.653  41.886   2.755
25044W        W97392  21.262  27.480   0.919
25045W        W97393  32.531  35.044  10.897
25046W        W97394  43.836  33.608   3.300
25047W        W97395   8.708  33.974   0.330
25048W        W97396  31.468  41.949   4.294
25049W        W97397  17.652  27.578   3.250
25050W        W97398  12.180   8.233   1.819
25051W        W97399  26.127  43.869   3.234
25052W        W97400   6.402  29.977   3.242
25053W        W97401   6.322   5.900  12.348
25054W        W97402   4.269   3.795   3.298
25055W        W97403  43.871  16.796   4.268
25056W        W97404   5.724   2.875  10.998
25057W        W97405   9.381  42.485   2.241
25058W        W97406  40.456  36.014   0.891
25059W        W97407  25.681  27.974   2.352
25060W        W97408  24.077  32.611   0.929
25061W        W97409  10.319  27.536  10.102
25062W        W97410  24.987  44.999  12.561
25063W        W97411  44.880   2.267   0.752
25064W        W97412  14.739  42.784   4.746
25065W        W97413  27.655  39.005   0.885
25066W        W97414   1.478  33.610  10.488
25067W        W97415  30.949   8.216   2.370
25068W        W97416  25.141   5.814  12.001
25069W        W97417  35.954  25.671   1.347
25070W        W97418  42.804  35.527   0.343
25071W        W97419  39.842  18.785   1.701
25072W        W97420  22.603  15.696  13.525
25073W        W97421   9.729  31.001  14.828
25074W        W97422  15.781  43.832   9.963
25075W        W97423  43.285   1.362   1.424
25076W        W97424  38.829  34.369  10.963
25077W        W97425   6.314  21.751   2.827
25078W        W97426  39.830  33.915  12.552
25079W        W97427   1.864  14.770  11.372
25080W        W97428   8.836  18.095   3.319
25081W        W97429  42.811  42.459  11.416
25082W        W97430  14.113  27.181  11.898
25083W        W97431  32.437   9.340   9.979
25084W        W97432  15.634  42.357   0.392
25085W        W97433  10.357  31.987  11.472
25086W        W97434  10.281  14.229   1.335
25087W        W97435  41.940  37.991  11.612
25088W        W97436   3.322  17.085   2.364
25089W        W97437   0.275  43.946  13.851
25090W        W97438  15.608   4.313   4.346
25091W        W97439  33.499   4.234   2.287
25092W        W97440  23.993  12.219  13.542
25093W        W97441  20.555   7.810   2.822
25094W        W97442   9.861  22.610   5.669
25095W        W97443  37.499  29.658  14.490
25096W        W97444  20.118  14.763   4.829
25097W        W97445  27.950  15.808  11.448
25098W        W97446  19.258  44.979   1.737
25099W        W97447  33.413  24.523   2.876
25100W        W97448   3.234   6.685   2.782
25101W        W97449  33.004   5.819   0.375
25102W        W97450  33.539  41.845  11.997
25103W        W97451  28.127  23.150  13.901
25104W        W97452  17.283  17.621  10.985
25105W        W97453  23.726   2.920   1.233
25106W        W97454  41.351  13.818  14.313
25107W        W97455   1.824  28.026  14.340
25108W        W97456  38.359   3.253   1.928
25109W        W97457   9.196   0.356  11.422
25110W        W97458  25.067   7.863  13.435
25111W        W97459  23.134  10.297   3.158
25112W        W97460   2.795  44.383   3.190
25113W        W97461  27.026  36.873   2.700
25114W        W97462  27.512  36.908   2.332
25115W        W97463  12.819  14.618  11.377
25116W        W97464  29.645   3.433   1.343
25117W        W97465   0.386  17.768   4.326
25118W        W97466  25.986  13.776  11.547
25119W        W97467   5.856  28.475  12.054
25120W        W97468   3.380  38.435   1.292
25121W        W97469  20.113  30.544   5.148
25122W        W97470   1.853  38.051  11.030
25123W        W97471  31.546   9.179   5.673
25124W        W97472   4.369  42.868  11.487
25125W        W97473  38.872   2.368  12.951
25126W        W97474  26.122  26.702   2.751
25127W        W97475  30.040  13.653   3.372
25128W        W97476  28.001  10.365   2.237
25129W        W97477  28.574  33.945   1.803
25130W        W97478  44.433  31.065   2.838
25131W        W97479   4.806  39.371   1.851
25132W        W97480   3.365  26.616  11.970
25133W        W97481   3.793  28.039   2.262
25134W        W97482  31.493  44.446  10.624
25135W        W97483  20.548  25.524   0.429
25136W        W97484  22.695  33.575  12.369
25137W        W97485  44.374   6.724  13.451
25138W        W97486  10.878   7.783  10.417
25139W        W97487   9.712  43.018   2.298
25140W        W97488   0.763   6.760  14.388
25141W        W97489  12.684  44.786   0.762
25142W        W97490   4.255  20.527  13.491
25143W        W97491   6.190   7.735   1.716
25144W        W97492  17.253  31.064   4.693
25145W        W97493  24.716  29.134   2.814
25146W        W97494  37.080  10.189  12.421
25147W        W97495  11.733  16.147   3.240
25148W        W97496  17.156  20.618   4.637
25149W        W97497  29.991  22.251   2.231
25150W        W97498  10.273   7.245   3.364
25151W        W97499  20.113  41.897  14.904
25152W        W97500   6.269   2.231   4.117
25153W        W97501  38.933   6.916   3.728
25154W        W97502  18.257   8.815  10.479
25155W        W97503  41.905  37.959  11.962
25156W        W97504  10.267  42.849  10.568
25157W        W97505  12.765  32.901  12.017
25158W        W97506  30.915   2.330   0.777
25159W        W97507  32.484  40.471   0.380
25160W        W97508  24.975  16.120   2.265
25161W        W97509   7.782  41.388   4.160
25162W        W97510  20.692  12.638  10.404
25163W        W97511  44.791  27.671  11.543
25164W        W97512   4.720   8.265  13.397
25165W        W97513   9.206   1.258  14.912
25166W        W97514  22.725  31.926   1.889
25167W        W97515   6.256   9.396  11.096
25168W        W97516   5.299  26.960  10.584
25169W        W97517   7.177   9.217  12.485
25170W        W97518  44.950  25.520  14.817
25171W        W97519  11.637   2.874   4.115
25172W        W97520   7.388  12.230   0.436
25173W        W97521   8.180  15.817  12.505
25174W        W97522  40.366  17.061  11.997
25175W        W97523  39.531  34.096  14.478
25176W        W97524  35.068  18.166  10.012
25177W        W97525  32.475  29.051  13.542
25178W        W97526   2.897  38.027  13.485
25179W        W97527  34.965  29.120   2.411
25180W        W97528  37.951  39.047   3.725
25181W        W97529  11.177  25.536  14.814
25182W        W97530  24.590  17.164   4.609
25183W        W97531  21.047  15.150  13.345
25184W        W97532  14.747  23.583   1.805
25185W        W97533  41.827  27.522   0.362
25186W        W97534   0.276  20.069  10.526
25187W        W97535  30.108  19.695  11.869
25188W        W97536  21.139  25.131  12.947
25189W        W97537  20.768  16.603   3.682
25190W        W97538  31.071  31.043  10.531
25191W        W97539  26.963   9.720   2.805
25192W        W97540  32.495  10.371  14.815
25193W        W97541  38.327  27.116   1.776
25194W        W97542  13.775  25.539  13.547
25195W        W97543  38.929  12.341  12.090
25196W        W97544  31.976  25.079  11.058
25197W        W97545  23.022   2.245  12.521
25198W        W97546   0.347  35.037  11.908
25199W        W97547  29.048  37.386  10.936
25200W        W97548  28.619  25.103   1.814
25201W        W97549  22.545  37.408   0.335
25202W        W97550   5.427  32.412   0.402
25203W        W97551  39.925  37.854   2.284
25204W        W97552  28.033   3.928   2.314
25205W        W97553  21.026  11.685   0.837
25206W        W97554   7.910  37.516  14.391
25207W        W97555  40.846  24.493   0.837
25208W        W97556  31.007  25.168   3.724
25209W        W97557   8.302   5.885  10.487
25210W        W97558  33.130  22.501   3.714
25211W        W97559   8.351  34.880  10.508
25212W        W97560  29.429  32.532   3.360
25213W        W97561  27.034   3.745   4.773
25214W        W97562  19.144  32.099   0.894
25215W        W97563  28.044   0.271   0.837
25216W        W97564   9.181  18.125  14.859
25217W        W97565  14.172  32.431  11.907
25218W        W97566  28.497  13.188   2.840
25219W        W97567  18.556  41.039  11.596
25220W        W97568  44.960  36.548   0.341
25221W        W97569  44.985  39.833   2.749
25222W        W97570   8.849   2.230  12.980
25223W        W97571   9.378  23.707  14.962
25224W        W97572  10.243  28.065  11.113
25225W        W97573  20.724  39.431  13.353
25226W        W97574  20.267  44.818   2.835
25227W        W97575  35.898  35.906   1.840
25228W        W97576  25.532  27.524   2.798
25229W        W97577  29.156  34.987  14.951
25230W        W97578  26.977  34.024   4.261
25231W        W97579  26.967  13.656  12.378
25232W        W97580  31.507  35.879  13.339
25233W        W97581  26.986  39.818   3.747
25234W        W97582  40.053  26.090  13.931
25235W        W97583  36.962  21.711   1.703
25236W        W97584   0.797   3.915  12.009
25237W        W97585   6.215  34.389   2.746
25238W        W97586  22.572  19.584  10.452
25239W        W97587  42.407  19.581  10.966
25240W        W97588  44.332  10.147  11.451
25241W        W97589  39.479  43.809  10.408
25242W        W97590  24.200  28.995   3.282
25243W        W97591   1.286  34.956   1.793
25244W        W97592   9.311  39.883   0.732
25245W        W97593  41.426  19.081  14.473
25246W        W97594  39.401  22.069  10.519
25247W        W97595  15.252  43.497   4.619
25248W        W97596   9.159  14.645   3.273
25249W        W97597  31.983  27.607   3.210
25250W        W97598  36.382  36.565  12.080
25251W        W97599   4.321  25.569  14.461
25252W        W97600  33.939  28.675   1.738
25253W        W97601   8.246  43.915  14.820
25254W        W97602   5.916  24.208   1.283
25255W        W97603  28.111  21.207  13.815
25256W        W97604  17.165   7.186  13.527
25257W        W97605  28.617  28.973  12.957
25258W        W97606  22.640  14.310   3.167
25259W        W97607  11.630   3.761   1.919
25260W        W97608  32.974  36.961  10.585
25261W        W97609  16.661  42.299   4.335
25262W        W97610  42.422  33.101  13.958
25263W        W97611  16.182  12.692   1.891
25264W        W97612  12.771  18.730  13.342
25265W        W97613  41.299   4.941  12.866
25266W        W97614   7.766   4.759  14.947
25267W        W97615   8.162  33.060  10.490
25268W        W97616   5.716   9.182   1.335
25269W        W97617   0.279  15.793   4.770
25270W        W97618  24.714  36.010   1.880
25271W        W97619  25.051  35.923  13.540
25272W        W97620  21.064  24.538   4.202
25273W        W97621  35.003  20.148   3.233
25274W        W97622  41.891  34.082   0.925
25275W        W97623  39.389  26.581   0.254
25276W        W97624  14.326  44.983   2.239
25277W        W97625  28.461  26.627  13.017
25278W        W97626  20.091  30.006  12.865
25279W        W97627   2.456  35.000   0.259
25280W        W97628   9.703  17.182  12.026
25281W        W97629  38.839  22.653  14.778
25282W        W97630   6.275   2.859  11.462
25283W        W97631  23.674  25.500   1.291
25284W        W97632   8.749  32.112   0.754
25285W        W97633   0.853  23.591  12.066
25286W        W97634  30.424  42.383   2.794
25287W        W97635  11.257  22.249  14.338
25288W        W97636   0.351  44.865  14.413
25289W        W97637  39.960  20.223  13.416
25290W        W97638  10.816  19.182  11.451
25291W        W97639  31.535  17.264   3.231
25292W        W97640  41.385  20.222  14.011
25293W        W97641  17.300   9.154  11.062
25294W        W97642  39.362  33.435   4.802
25295W        W97643  24.691  33.440  12.986
25296W        W97644  12.334   4.944   2.416
25297W        W97645   9.216   3.868  11.879
25298W        W97646   1.900  10.759  13.468
25299W        W97647  17.602  41.499  13.390
25300W        W97648  41.456  40.954   0.469
25301W        W97649   5.296  20.228  11.987
25302W        W97650  34.494  26.003  14.384
25303W        W97651   6.819  26.481  13.791
25304W        W97652  17.731  14.630   4.224
25305W        W97653  21.219  44.787  11.939
25306W        W97654  17.711   1.346  11.412
25307W        W97655  37.921   2.802   2.891
25308W        W97656  19.728  14.709  11.478
25309W        W97657  20.696  38.907   0.861
25310W        W97658   4.703  16.756  10.021
25311W        W97659  22.602   9.756  14.830
25312W        W97660  25.985  40.447   4.243
25313W        W97661  32.626  43.771  12.369
25314W        W97662  44.993  13.111   3.164
25315W        W97663  22.668  41.527  12.856
25316W        W97664   3.942  11.741   0.411
25317W        W97665  22.153  16.153   0.888
25318W        W97666  29.050  12.771  14.809
25319W        W97667   6.796  15.689   0.276
25320W        W97668   4.853  18.129  10.020
25321W        W97669  26.475  12.173   3.275
25322W        W97670  11.227  24.483   3.684
25323W        W97671  37.948  10.383   3.342
25324W        W97672  31.952  32.485   0.815
25325W        W97673  43.503  35.451  11.581
25326W        W97674  27.020  29.997   4.189
25327W        W97675  34.383  18.580   0.960
25328W        W97676  42.855  28.144  13.848
25329W        W97677  32.569  36.372   4.665
25330W        W97678  43.022  25.492  11.373
25331W        W97679  17.679  31.624   5.146
25332W        W97680  26.177  40.374  13.827
25333W        W97681  35.054  21.125   3.640
25334W        W97682  44.440  24.578  11.088
25335W        W97683  37.053   9.224  12.900
25336W        W97684  29.657  22.093  11.557
25337W        W97685  25.170   4.375  11.895
25338W        W97686  33.553   4.371  11.939
25339W        W97687  31.129   1.818   4.674
25340W        W97688   7.348   0.321   2.673
25341W        W97689   5.304  11.752  13.868
25342W        W97690   7.850  38.923   3.314
25343W        W97691  38.510  22.624  13.058
25344W        W97692  12.261  40.332  14.018
25345W        W97693  24.026   6.203  11.982
25346W        W97694  21.244   9.698  10.136
25347W        W97695  14.781   6.308   3.758
25348W        W97696   6.282   4.941   3.254
25349W        W97697  10.648   6.382   2.371
25350W        W97698  27.611  14.826   0.478
25351W        W97699  36.452  29.614   3.220
25352W        W97700  21.537   8.739  13.504
25353W        W97701  30.517  31.585   4.838
25354W        W97702  13.765  34.882  13.349
25355W        W97703  24.188  32.969   0.825
25356W        W97704  19.570  25.001  12.510
25357W        W97705  17.701  15.628  11.125
25358W        W97706  29.102  42.882  14.993
25359W        W97707  43.511   7.732  14.307
25360W        W97708  39.558  11.691  13.792
25361W        W97709  30.486  16.775   1.864
25362W        W97710  26.600  42.527   2.729
25363W        W97711  10.232  44.398   3.759
25364W        W97712  16.211  24.983   1.289
25365W        W97713  30.508  34.961  14.402
25366W        W97714  33.429  18.782  10.024
25367W        W97715   9.781   4.411  14.009
25368W        W97716   4.372  39.013  12.564
25369W        W97717  39.046  43.870   0.363
25370W        W97718  38.972  14.688  13.388
25371W        W97719  12.654   7.363   4.212
25372W        W97720  12.177   6.267  12.436
25373W        W97721  42.963  24.496   2.778
25374W        W97722   0.946  31.930   0.929
25375W        W97723  39.322  19.224  12.958
25376W        W97724  41.899  17.078   3.778
25377W        W97725  22.132  17.728  14.842
25378W        W97726  14.775  11.868  14.508
25379W        W97727  41.403   2.893   2.766
25380W        W97728   2.397  23.199   4.113
25381W        W97729  21.707   2.777   1.371
25382W        W97730  38.353  44.474   0.389
25383W        W97731  32.496  12.357   3.207
25384W        W97732  19.540  42.490   2.292
25385W        W97733   3.326   0.973  12.550
25386W        W97734  23.021  19.125  13.377
25387W        W97735   0.858  41.412   2.370
25388W        W97736   0.962  31.142   0.877
25389W        W97737   1.761  10.154   2.398
25390W        W97738   4.320  10.864   4.779
25391W        W97739  40.826  24.619  11.375
25392W        W97740  43.403  41.455   3.789
25393W        W97741  29.641   7.292   2.342
25394W        W97742   7.701   4.358   0.455
25395W        W97743  14.221  44.293   0.303
25396W        W97744   9.654  34.584  13.482
25397W        W97745  37.878  16.127  14.390
25398W        W97746  13.113  44.451   1.763
25399W        W97747  12.310  19.567   4.137
25400W        W97748  21.065   6.328   3.844
25401W        W97749  42.878  16.107   3.328
25402W        W97750  17.172  12.327   0.364
25403W        W97751   0.339   3.886  14.869
25404W        W97752  15.102  19.724  13.844
25405W        W97753   3.340  39.055  13.321
25406W        W97754  15.795  11.867  13.316
25407W        W97755  28.133  30.427  14.014
25408W        W97756  30.022  36.376   3.168
25409W        W97757  34.466  40.044   1.911
25410W        W97758  12.214   9.318   1.270
25411W        W97759  36.370  36.399   2.361
25412W        W97760  22.216   2.865  12.542
25413W        W97761  27.098  24.056  12.980
25414W        W97762   9.780  34.873   4.710
25415W        W97763  15.646   5.238   2.866
25416W        W97764  17.142  15.165  10.956
25417W        W97765  32.423  25.089   1.792
25418W        W97766  20.093  43.468   3.249
25419W        W97767  19.202  26.665  14.292
25420W        W97768   2.805  14.168   1.895
25421W        W97769   0.439  34.483   2.836
25422W        W97770  22.660  36.363  10.980
25423W        W97771  43.292  32.458   3.791
25424W        W97772  36.388  25.700  14.002
25425W        W97773  29.535  33.379   1.829
25426W        W97774  21.575  25.987  14.447
25427W        W97775  16.636  38.482   2.706
25428W        W97776  24.216  27.544  14.378
25429W        W97777  39.477  22.050   3.349
25430W        W97778  12.718   0.322  14.965
25431W        W97779  36.421  33.874  12.913
25432W        W97780  14.129  12.816  10.055
25433W        W97781  37.942  37.957  12.854
25434W        W97782  39.948  10.796   4.660
25435W        W97783  35.074  30.461   2.233
25436W        W97784  25.998  27.531  10.888
25437W        W97785  13.721  10.380  14.509
25438W        W97786   2.324  34.876   1.847
25439W        W97787  26.463  24.674  10.590
25440W        W97788  38.878  39.936  12.533
25441W        W97789  33.885   5.888   2.301
25442W        W97790   0.840   3.750   1.865
25443W        W97791   6.807   6.235   0.730
25444W        W97792  35.567   2.819  13.892
25445W        W97793  37.575   8.814  11.567
25446W        W97794  21.735  31.942   9.939
25447W        W97795   1.931  33.895  11.082
25448W        W97796   9.686  14.689   4.284
25449W        W97797  25.662  29.596   4.207
25450W        W97798  28.171  40.543   4.618
25451W        W97799   5.374  42.422   3.165
25452W        W97800  23.222  15.188   4.759
25453W        W97801  26.030  32.014   0.787
25454W        W97802  25.612  28.681   4.281
25455W        W97803   2.269  30.007   2.774
25456W        W97804  39.863  42.822   3.706
25457W        W97805  27.623  30.141   0.432
25458W        W97806  43.882  28.533   0.270
25459W        W97807  15.228  21.166   1.327
25460W        W97808  11.292  26.146  10.441
25461W        W97809  10.855  38.024  11.553
25462W        W97810  22.689  11.819   1.817
25463W        W97811  11.684   1.402   4.740
25464W        W97812   1.283   4.336   1.890
25465W        W97813  22.591  10.254   4.180
25466W        W97814   1.335  15.193  13.366
25467W        W97815  20.640  29.474  14.333
25468W        W97816  15.107  32.018  10.097
25469W        W97817  30.597  37.341   5.090
25470W        W97818  24.218   7.793   3.866
25471W        W97819  17.187  26.043  11.878
25472W        W97820   8.773  40.841  14.895
25473W        W97821   1.388   2.830  14.491
25474W        W97822   4.724  42.423   0.801
25475W        W97823  11.248  15.093  14.940
25476W        W97824  20.552  44.855   0.431
25477W        W97825   8.829   9.767   1.225
25478W        W97826  33.616   6.833   9.958
25479W        W97827  22.576  23.052  11.609
25480W        W97828   4.444   3.752   1.904
25481W        W97829  18.781  20.243  13.511
25482W        W97830   1.912  36.504   4.756
25483W        W97831  11.669  44.812  12.831
25484W        W97832  15.316  34.113   2.760
25485W        W97833  28.437  35.409   1.911
25486W        W97834  41.013   4.271   1.703
25487W        W97835  20.046  30.084  13.394
25488W        W97836  29.440  37.432   0.339
25489W        W97837   7.218   4.903  11.546
25490W        W97838   2.310  30.920  11.379
25491W        W97839   3.799  24.503  10.549
25492W        W97840  12.336  14.137  13.497
25493W        W97841  20.028  29.484  14.864
25494W        W97842   5.304  32.060   2.415
25495W        W97843  19.183  37.041  13.947
25496W        W97844  35.039  21.078  14.307
25497W        W97845  19.093  26.999   1.262
25498W        W97846  17.198  32.922   4.301
25499W        W97847   3.260  35.582  13.890
25500W        W97848  29.623  43.358   1.876
25501W        W97849   0.272   1.931   1.763
25502W        W97850  29.959  28.620  11.487
25503W        W97851  16.747  38.008   4.227
25504W        W97852  31.025  42.997  12.905
25505W        W97853   3.788   1.335  13.956
25506W        W97854  28.457  18.644  14.338
25507W        W97855  10.647   3.452   0.811
25508W        W97856   6.676  21.232   2.879
25509W        W97857   3.832  34.532  10.406
25510W        W97858  22.686  20.673  13.792
25511W        W97859  14.119  33.057  14.919
25512W        W97860  12.717   8.175   4.648
25513W        W97861   5.794  13.350  11.477
25514W        W97862  18.696  21.054   2.202
25515W        W97863  14.183  20.135   0.472
25516W        W97864  30.937  25.656  14.506
25517W        W97865  35.067   1.847   2.309
25518W        W97866  15.763  27.192  13.964
25519W        W97867  39.876  29.590   2.249
25520W        W97868  32.073  40.885  11.980
25521W        W97869   2.807  37.857  11.433
25522W        W97870   6.207  11.809  14.985
25523W        W97871   1.902  43.465   4.221
25524W        W97872  36.065  25.066  13.858
25525W        W97873  28.637  29.072   0.847
25526W        W97874  33.505   6.724  14.515
25527W        W97875   5.366   6.732  14.277
25528W        W97876  19.111  12.245   4.122
25529W        W97877  23.547  17.608   0.765
25530W        W97878  20.532  25.659  13.885
25531W        W97879  37.464  35.977  11.044
25532W        W97880   8.310   4.893  13.796
25533W        W97881  27.456  30.574  11.579
25534W        W97882  41.905  22.575  11.977
25535W        W97883   9.263  19.187   3.752
25536W        W97884  24.110  27.084  12.404
25537W        W97885   6.721  43.332   1.771
25538W        W97886  14.289  15.226   0.845
25539W        W97887  11.682  10.821  11.108
25540W        W97888  26.618   0.822   1.428
25541W        W97889   2.438  19.693  12.534
25542W        W97890  42.827  41.804  10.910
25543W        W97891  11.365  37.482   4.118
25544W        W97892  36.007  23.225   1.386
25545W        W97893  12.344  11.267   3.173
25546W        W97894  24.110   0.323  11.994
25547W        W97895  19.092  12.247   0.815
25548W        W97896  17.599  17.780  14.794
25549W        W97897  41.408  38.849   0.775
25550W        W97898  20.725   8.351   1.308
25551W        W97899  13.654  34.535  11.422
25552W        W97900   9.240  36.948   0.961
25553W        W97901  30.159   8.723   2.837
25554W        W97902   5.845  15.787  11.041
25555W        W97903   9.710  31.907   0.776
25556W        W97904  33.535   4.788  10.496
25557W        W97905  32.103  26.026  14.969
25558W        W97906  23.658   2.454  11.913
25559W        W97907  22.736  37.069   4.296
25560W        W97908  35.101  24.983   2.827
25561W        W97909  29.476   9.651  13.327
25562W        W97910   7.265  33.010   2.358
25563W        W97911  40.339  16.688   0.944
25564W        W97912  13.240  39.319  13.911
25565W        W97913  10.809  14.608  12.345
25566W        W97914  43.409  15.636   1.925
25567W        W97915  16.605  22.012  10.404
25568W        W97916  37.067  41.934   4.315
25569W        W97917  33.459  38.403  11.879
25570W        W97918  35.384  20.716  12.382
25571W        W97919  30.130  25.076  14.890
25572W        W97920  43.015  18.285  11.401
25573W        W97921  37.429  23.529   4.785
25574W        W97922   9.680  44.376  13.853
25575W        W97923  40.005  34.042  11.928
25576W        W97924  10.656  43.773  11.083
25577W        W97925   7.682  22.145  10.024
25578W        W97926  40.423  34.490   0.307
25579W        W97927   6.878  39.489   2.293
25580W        W97928  15.257   2.831   4.775
25581W        W97929  37.352  33.966   2.284
25582W        W97930   3.354  27.981  10.902
25583W        W97931  41.321   6.255  13.017
25584W        W97932  39.016  30.036   4.620
25585W        W97933  33.096  36.961  14.953
25586W        W97934  26.086   7.684  14.939
25587W        W97935  31.151  19.593  14.439
25588W        W97936  27.606  21.751  12.027
25589W        W97937  28.941  19.612  10.594
25590W        W97938  31.025  29.113  13.811
25591W        W97939  13.255  43.375  12.885
25592W        W97940  12.181  16.220   2.867
25593W        W97941  39.037  42.959   2.837
25594W        W97942   6.351  13.806   1.307
25595W        W97943   6.915  28.522   2.725
25596W        W97944  13.187   8.227   3.853
25597W        W97945  39.454  38.845   3.725
25598W        W97946  39.034  16.200  13.817
25599W        W97947  39.891  14.095  14.452
25600W        W97948  32.435  38.326  12.830
25601W        W97949  19.579   3.938  10.565
25602W        W97950  28.938  16.127   0.840
25603W        W97951  28.510  43.836   0.352
25604W        W97952  28.985  37.944   1.373
25605W        W97953  13.655  38.003   0.246
25606W        W97954  21.054  16.261   4.700
25607W        W97955  23.027  36.052   3.367
25608W        W97956  30.460   3.807  13.408
25609W        W97957   6.752   2.728  11.500
25610W        W97958  13.302  26.131  12.062
25611W        W97959  25.031  40.845  11.572
25612W        W97960  24.098  17.770   0.332
25613W        W97961   9.290  37.340  14.426
25614W        W97962  18.561  25.502   0.775
25615W        W97963   3.404  22.146   0.903
25616W        W97964  10.373  16.257   0.729
25617W        W97965  40.952   7.785   2.388
25618W        W97966  11.711  20.118  14.857
25619W        W97967  36.558  21.548   1.788
25620W        W97968  16.592  31.959   2.409
25621W        W97969  40.941  43.941  14.458
25622W        W97970   7.668   6.350  12.059
25623W        W97971  13.123  33.522  14.293
25624W        W97972  36.934   3.404   3.858
25625W        W97973  27.481  38.441   3.216
25626W        W97974  11.687  14.276   0.465
25627W        W97975  29.428  40.470   2.682
25628W        W97976  41.329   6.717  10.500
25629W        W97977  18.733  27.657  13.048
25630W        W97978  15.195   4.337  14.407
25631W        W97979  12.660  36.089   1.437
25632W        W97980  12.265  31.483   4.630
25633W        W97981  10.808  16.265  11.375
25634W        W97982  11.674   8.690  11.857
25635W        W97983   6.185  18.758  13.492
25636W        W97984   0.482  29.464  13.970
25637W        W97985  11.329   3.941   4.786
25638W        W97986  29.616   0.938  11.925
25639W        W97987  14.260  32.946   4.145
25640W        W97988   0.336  22.707  12.382
25641W        W97989  11.132  12.700   4.690
25642W        W97990  17.684  16.152  11.103
25643W        W97991  38.835  15.687  11.917
25644W        W97992   5.437  44.947  14.484
25645W        W97993  17.747   2.428   0.742
25646W        W97994  14.645  35.051  14.999
25647W        W97995  35.435   0.797  13.475
25648W        W97996  34.117  21.237  12.450
25649W        W97997   7.383  15.235   3.215
25650W        W97998  19.596   1.742   0.452
25651W        W97999   6.373  19.052   2.369
25652W        W98000  13.610  12.788   4.828
25653W        W98001   8.742  41.900   0.284
25654W        W98002  14.603   8.328  11.477
25655W        W98003   2.404  41.010   2.887
25656W        W98004   3.838  35.077  11.114
25657W        W98005  16.198  32.904   4.738
25658W        W98006  36.032  12.208   1.838
25659W        W98007   1.333  31.911  11.375
25660W        W98008  32.513  44.887  10.607
25661W        W98009  33.409  42.835  11.986
25662W        W98010  12.341  27.523   4.636
25663W        W98011  11.371  19.165   2.228
25664W        W98012  12.767   0.950  10.571
25665W        W98013  10.834  29.039  11.384
25666W        W98014  28.039  42.286   2.315
25667W        W98015  13.844   0.882  11.390
25668W        W98016  40.891  18.617   3.350
25669W        W98017  44.496  17.728   4.203
25670W        W98018  18.204  43.454   3.768
25671W        W98019  43.482  20.644  14.991
25672W        W98020  13.345  14.777  14.434
25673W        W98021  12.728  28.609  10.605
25674W        W98022  43.277  12.278   2.317
25675W        W98023  42.904  35.072   0.411
25676W        W98024  30.556  27.102  12.368
25677W        W98025  27.550   2.379   3.751
25678W        W98026  21.662   8.775   1.727
25679W        W98027  30.457  18.619  14.428
25680W        W98028   7.870  33.619  13.048
25681W        W98029   6.780   7.210  12.436
25682W        W98030  17.703  27.086   2.841
25683W        W98031  39.832   8.312   2.355
25684W        W98032   5.251  43.341   4.615
25685W        W98033  25.600   1.966  12.342
25686W        W98034  38.455  24.019   1.912
25687W        W98035  20.059  26.960  14.482
25688W        W98036  33.947  27.635   1.842
25689W        W98037  33.382  32.467   1.924
25690W        W98038  11.158   1.968   2.317
25691W        W98039  29.452  36.572  10.548
25692W        W98040   5.708   8.348  14.358
25693W        W98041   7.363  20.706  12.463
25694W        W98042  38.467  10.776  14.944
25695W        W98043  28.587   8.195   1.911
25696W        W98044  40.025  22.168  14.418
25697W        W98045  42.508  30.144  10.575
25698W        W98046   0.257   3.368   3.667
25699W        W98047  36.997  13.151  11.926
25700W        W98048   5.787  12.782   3.729
25701W        W98049  36.522   6.810   2.809
25702W        W98050  24.538  44.984   2.338
25703W        W98051  35.854  21.229   2.692
25704W        W98052  44.927  11.352  10.405
25705W        W98053  40.843  25.582  12.549
25706W        W98054  42.974   1.337   4.240
25707W        W98055  30.659  44.267  10.036
25708W        W98056  21.559  15.114   0.847
25709W        W98057  37.519  17.155  11.586
25710W        W98058  25.468  37.336  12.455
25711W        W98059  30.525  20.205   0.868
25712W        W98060  14.238   3.318   4.347
25713W        W98061  26.135  41.991   0.298
25714W        W98062  27.530   9.660   4.762
25715W        W98063  41.422   0.855  12.443
25716W        W98064  11.861   9.290   2.885
25717W        W98065  44.868  33.529  13.431
25718W        W98066   5.275  10.714   4.261
25719W        W98067  37.578   9.150  12.053
25720W        W98068  42.957  27.635  14.952
25721W        W98069  36.085  17.191  12.351
25722W        W98070  44.998   7.303  12.833
25723W        W98071   8.203  12.790   2.207
25724W        W98072  21.688  16.677   1.827
25725W        W98073  22.575   5.768   1.782
25726W        W98074  15.193  18.755   0.964
25727W        W98075  36.845  27.027  14.014
25728W        W98076  30.080   4.291  10.982
25729W        W98077  31.612   1.379  11.890
25730W        W98078  14.796  19.730  12.405
25731W        W98079  33.928  29.007  14.440
25732W        W98080  23.716   8.757  12.559
25733W        W98081  24.136   1.759   0.901
25734W        W98082  14.702  32.086   4.324
25735W        W98083  32.542  10.233   3.736
25736W        W98084   6.271  40.997   4.266
25737W        W98085  12.233  25.473  12.882
25738W        W98086  29.534  19.169   0.294
25739W        W98087  23.175  29.018  11.859
25740W        W98088  31.102  23.717  12.063
25741W        W98089   4.751   5.421  11.599
25742W        W98090  10.240   6.361   4.285
25743W        W98091  16.751  15.634   2.188
25744W        W98092  12.346   5.775   3.321
25745W        W98093   6.219  35.065   1.864
25746W        W98094  10.331  37.875  14.917
25747W        W98095  28.940  21.657  10.621
25748W        W98096  17.632  39.017   3.789
25749W        W98097  40.878  17.284  11.989
25750W        W98098  22.078  37.895  13.977
25751W        W98099  27.176   8.392  12.050
25752W        W98100  19.057   5.310  13.988
25753W        W98101  33.097  27.058  10.408
25754W        W98102   0.961   5.739   3.368
25755W        W98103  22.185   7.379  14.390
25756W        W98104  41.947  18.095   4.135
25757W        W98105  24.055  40.433  11.117
25758W        W98106  26.588  11.293   3.659
25759W        W98107  40.444  35.534  10.556
25760W        W98108  19.256  19.079  11.950
25761W        W98109  40.336  20.115  13.881
25762W        W98110  38.912   1.281  13.798
25763W        W98111   9.292  18.147   3.668
25764W        W98112  41.379  15.320   2.814
25765W        W98113  20.129  10.754  12.974
25766W        W98114  38.056   8.702  12.571
25767W        W98115  17.238  41.926  14.851
25768W        W98116  23.998  18.256  11.918
25769W        W98117  43.288   6.381   1.851
25770W        W98118   2.824  12.226   1.869
25771W        W98119   7.255  24.552   3.272
25772W        W98120   2.393  33.420   1.319
25773W        W98121  39.395  29.137  12.366
25774W        W98122  39.339  36.426   2.318
25775W        W98123  41.951  10.314  14.287
25776W        W98124  11.808  33.432   3.770
25777W        W98125  38.942   9.789  13.335
25778W        W98126  37.515  37.852  11.446
25779W        W98127  42.334  10.302  10.025
25780W        W98128  22.504   7.781  14.010
25781W        W98129  19.624  18.214  14.019
25782W        W98130  39.933  39.374  11.386
25783W        W98131  19.095   2.283   4.636
25784W        W98132  36.901  37.507   3.865
25785W        W98133  25.999   2.364   3.749
25786W        W98134  26.629  34.983  13.351
25787W        W98135   0.803  31.048   0.415
25788W        W98136  41.525   3.738   4.285
25789W        W98137  22.112  28.544   2.854
25790W        W98138   8.721   7.286   1.449
25791W        W98139  37.004  37.386  14.819
25792W        W98140  35.876   7.379   0.281
25793W        W98141  32.509   9.219   2.188
25794W        W98142  11.209  17.189  10.924
25795W        W98143   0.295  13.166   0.758
25796W        W98144   4.886   0.780  13.063
25797W        W98145   7.236  39.851   1.439
25798W        W98146   2.332  34.032   3.717
25799W        W98147   9.152  39.879   0.473
25800W        W98148   9.842  28.588   1.694
25801W        W98149  39.410  10.175   0.956
25802W        W98150  30.542  24.069  12.443
25803W        W98151  17.242  18.603  14.977
25804W        W98152  44.404   3.947   2.886
25805W        W98153  42.011  25.020  14.884
25806W        W98154  38.988  15.709  11.111
25807W        W98155  26.979  30.635  11.432
25808W        W98156   4.853  36.904   1.762
25809W        W98157   6.304   0.912   2.302
25810W        W98158  10.196   7.342   3.792
25811W        W98159  17.290   2.837   3.758
25812W        W98160   0.260  25.033   4.336
25813W        W98161  13.716  30.436  14.991
25814W        W98162  44.271  38.940  11.943
25815W        W98163  36.439   5.838  14.973
25816W        W98164   3.300   3.888  13.988
25817W        W98165  29.974   8.163  12.971
25818W        W98166  17.675  24.042   2.207
25819W        W98167  27.945  20.207  13.028
25820W        W98168  32.616   4.320  14.990
25821W        W98169   9.218  15.111  13.517
25822W        W98170  19.253  16.076   3.778
25823W        W98171  15.716  23.032   3.174
25824W        W98172  14.813  44.360   0.950
25825W        W98173  41.852  12.177   4.151
25826W        W98174  15.644  22.109   3.630
25827W        W98175  44.961  42.818  12.385
25828W        W98176   8.828  33.080  14.926
25829W        W98177  42.785  32.585   1.394
25830W        W98178  43.309  18.551  11.121
25831W        W98179  41.415  13.186  11.606
25832W        W98180   5.295  38.009  13.983
25833W        W98181  37.833   1.820  12.052
25834W        W98182  30.925  18.055  10.603
25835W        W98183  37.576   7.378   9.995
25836W        W98184  21.691  31.006   3.794
25837W        W98185   0.961  38.568   2.895
25838W        W98186   5.232  17.570   0.425
25839W        W98187  43.449  12.660   3.821
25840W        W98188   0.786   8.266   0.260
25841W        W98189  32.430   1.421  13.324
25842W        W98190  31.092  27.569  12.538
25843W        W98191  31.615  19.558  10.940
25844W        W98192  16.746  29.963   5.241
25845W        W98193  42.818   5.691   0.371
25846W        W98194  43.010  41.313   0.438
25847W        W98195  10.302  14.156   3.345
25848W        W98196  26.125  39.915   1.305
25849W        W98197  10.678  16.653   3.767
25850W        W98198  34.470  37.543   0.291
25851W        W98199   6.228  39.810  14.853
25852W        W98200  40.439  40.802  13.321
25853W        W98201  29.070  38.924  11.520
25854W        W98202  17.091  29.529   3.227
25855W        W98203  11.159  19.646   3.287
25856W        W98204  32.586  38.059   0.253
25857W        W98205  30.072  28.956   2.825
25858W        W98206  20.764   4.754   3.210
25859W        W98207  25.648  20.659  14.776
25860W        W98208  22.216  26.982   4.713
25861W        W98209  34.416  36.880  14.319
25862W        W98210  42.938  14.632  13.403
25863W        W98211  35.962  20.589   1.385
25864W        W98212  14.626  43.459   1.701
25865W        W98213  22.144   7.850   9.486
25866W        W98214  34.102   3.936   0.247
25867W        W98215  36.373  22.096  11.549
25868W        W98216  44.416  34.892  11.054
25869W        W98217  41.412  11.697   2.257
25870W        W98218   1.394  38.554   4.609
25871W        W98219  44.763  44.908  12.455
25872W        W98220  15.760  19.086  13.925
25873W        W98221  32.529   3.951   0.825
25874W        W98222  12.118  25.162  13.474
25875W        W98223   7.184  26.026   0.845
25876W        W98224  27.196   6.202  12.451
25877W        W98225  36.365  43.395   1.414
25878W        W98226  33.954  32.395  13.437
25879W        W98227  12.680   0.852  10.998
25880W        W98228  39.809  18.152   2.241
25881W        W98229  21.211   0.812   3.192
25882W        W98230  16.773  20.249  13.924
25883W        W98231  36.990  43.860   2.317
25884W        W98232  14.703  38.422   0.965
25885W        W98233  32.001   2.787  14.455
25886W        W98234  30.601  19.232  10.928
25887W        W98235  30.546  21.574  13.989
25888W        W98236  16.690  20.254   2.804
25889W        W98237   4.262  27.016  12.467
25890W        W98238  17.789  29.056  10.467
25891W        W98239   9.697  43.501   0.787
25892W        W98240   1.262  22.154   3.275
25893W        W98241  25.663  29.656  12.550
25894W        W98242  36.954  14.832  11.948
25895W        W98243  37.528   1.265  13.469
25896W        W98244   4.759  29.498  13.436
25897W        W98245  33.595  29.025  13.035
25898W        W98246  22.104  29.964  10.607
25899W        W98247  32.080  41.496  12.382
25900W        W98248  39.452  31.482   3.259
25901W        W98249   6.412  17.273   0.339
25902W        W98250  28.183  34.525   1.809
25903W        W98251  12.691  42.020  10.893
25904W        W98252  20.545   0.956  11.606
25905W        W98253  43.306  30.948  12.020
25906W        W98254   3.951  30.636   2.188
25907W        W98255  33.131   0.937  11.909
25908W        W98256  35.980  16.147   3.699
25909W        W98257  40.924  11.275   1.784
25910W        W98258   5.364  19.251  13.829
25911W        W98259  28.977  41.322   1.874
25912W        W98260   5.906   8.188  14.808
25913W        W98261  18.571  11.806   2.340
25914W        W98262  36.393  35.493   3.345
25915W        W98263  36.462  20.747   9.468
25916W        W98264  18.093  11.696  14.508
25917W        W98265  11.315   0.438   1.431
25918W        W98266   7.355  22.670   4.165
25919W        W98267   0.275  15.611   0.319
25920W        W98268  26.575  13.647  14.453
25921W        W98269  40.046  16.786   4.193
25922W        W98270  22.056  37.063   4.273
25923W        W98271  27.478  27.185  14.814
25924W        W98272  17.083  15.322  14.461
25925W        W98273  22.188  44.342   3.381
25926W        W98274  36.402  22.098   1.248
25927W        W98275  40.434  39.880  13.028
25928W        W98276  37.516  18.126  14.809
25929W        W98277  22.528   9.299  11.484
25930W        W98278   2.880   4.871   2.415
25931W        W98279  40.506  25.521   0.840
25932W        W98280  33.117  41.874  10.947
25933W        W98281  16.703   3.425  14.816
25934W        W98282  29.952   0.783   0.278
25935W        W98283  13.842  39.372   1.789
25936W        W98284   3.250   6.712   1.771
25937W        W98285  21.567   7.743   2.819
25938W        W98286   6.777  23.151  10.938
25939W        W98287  43.897   7.281  13.857
25940W        W98288  11.863   3.425  13.031
25941W        W98289  14.793  18.144   1.712
25942W        W98290  25.525  26.656  13.830
25943W        W98291  44.836  41.811   4.705
25944W        W98292   8.272  35.985  10.540
25945W        W98293  39.945  28.946  11.435
25946W        W98294  16.158  44.478  12.857
25947W        W98295  18.682  42.427   4.833
25948W        W98296  34.071  15.095   1.701
25949W        W98297  33.430   0.486   2.702
25950W        W98298   0.969  23.156   1.308
25951W        W98299  27.966  13.801  14.392
25952W        W98300  21.055  35.960   4.149
25953W        W98301  41.531   8.696  10.413
25954W        W98302   6.910  37.380   3.757
25955W        W98303  26.981  17.247   2.402
25956W        W98304  42.957  29.507   1.878
25957W        W98305  33.089  23.521  13.906
25958W        W98306  17.264  23.994   2.697
25959W        W98307   8.218  32.544  14.516
25960W        W98308  41.789  41.392  10.132
25961W        W98309  25.545  25.548   0.834
25962W        W98310  18.153  35.477   2.333
25963W        W98311  20.717  44.000   3.264
25964W        W98312   3.910   6.861  13.548
25965W        W98313  29.947  30.627   3.735
25966W        W98314  13.600  29.507   0.298
25967W        W98315  36.881  23.146  14.500
25968W        W98316  21.622  13.791  10.469
25969W        W98317  33.942  22.146   0.294
25970W        W98318  21.067  22.105   4.291
25971W        W98319   6.233  11.223  12.449
25972W        W98320  34.498  20.620   2.387
25973W        W98321  20.719  22.647   2.304
25974W        W98322  28.619  34.389  14.796
25975W        W98323  18.783   8.722  11.371
25976W        W98324  32.113  22.512   0.299
25977W        W98325  20.740   7.292   3.700
25978W        W98326  26.067  40.481  14.473
25979W        W98327  17.166  38.975  13.430
25980W        W98328  31.634   9.874   4.185
25981W        W98329  22.070  21.658  13.535
25982W        W98330  24.669   6.749   4.654
25983W        W98331  18.177  37.922   1.437
25984W        W98332  22.581  21.205   4.307
25985W        W98333  23.709  43.982   0.729
25986W        W98334  21.628  20.239   4.804
25987W        W98335  43.462  15.237  10.587
25988W        W98336  31.082  12.711  11.412
25989W        W98337  25.098  32.093  13.410
25990W        W98338  29.615  34.607  10.095
25991W        W98339   1.239   1.385  11.109
25992W        W98340   7.826  26.185  14.357
25993W        W98341  23.663  43.964   2.417
25994W        W98342  25.158  37.532  14.312
25995W        W98343  12.652  34.590   0.478
25996W        W98344  34.605  18.159  11.552
25997W        W98345  12.756  38.534   0.893
25998W        W98346   8.400  13.330   4.237
25999W        W98347  25.212  38.885   0.936
26000W        W98348  15.613   3.355   0.786
26001W        W98349  27.019  34.865   2.718
26002W        W98350  36.863  20.759  12.922
26003W        W98351  41.033  38.509  13.968
26004W        W98352  10.789  10.848   2.364
26005W        W98353  37.411  44.866  14.013
26006W        W98354  16.655  37.389   2.389
26007W        W98355  37.045   9.274   1.915
26008W        W98356  14.662  31.623  12.922
26009W        W98357  40.964   5.781  12.442
26010W        W98358  14.208  17.084  12.576
26011W        W98359  33.574  17.307   1.732
26012W        W98360   6.304   2.753   4.253
26013W        W98361  37.852  35.921   2.407
26014W        W98362  19.661  39.045   4.248
26015W        W98363  23.174  40.024  14.761
26016W        W98364  18.275  20.718  11.507
26017W        W98365  35.950  10.736   2.392
26018W        W98366  40.831  18.626  12.011
26019W        W98367   0.277   5.245   2.685
26020W        W98368  34.956   2.397  14.001
26021W        W98369  41.885  41.400  11.474
26022W        W98370  42.315  18.141  14.841
26023W        W98371  36.403  28.563  12.445
26024W        W98372  10.156   8.781  14.981
26025W        W98373   1.385  17.795   3.727
26026W        W98374  24.077  25.027  14.790
26027W        W98375   9.837   0.846  10.523
26028W        W98376  28.491  38.456  11.594
26029W        W98377  40.044  19.580   2.880
26030W        W98378  25.977  43.497   3.698
26031W        W98379   5.278  35.990  10.471
26032W        W98380   9.644  29.948   2.838
26033W        W98381  20.615   9.713   4.707
26034W        W98382   0.309  36.587   0.940
26035W        W98383  31.026   2.793   2.736
26036W        W98384  20.054  44.501   2.403
26037W        W98385  26.082  35.949   1.242
26038W        W98386   4.843  43.835   0.457
26039W        W98387   4.897  31.473   4.219
26040W        W98388  41.318  44.946   0.755
26041W        W98389  15.202  41.966   2.727
26042W        W98390   7.365  23.030  10.548
26043W        W98391  38.346  30.421   4.718
26044W        W98392  35.070  18.714   0.445
26045W        W98393  40.055   8.715   2.210
26046W        W98394  24.068   7.775  10.117
26047W        W98395  13.310   1.973  14.898
26048W        W98396  26.651  35.101   4.165
26049W        W98397  21.074  32.606  14.491
26050W        W98398  31.072  42.029  12.035
26051W        W98399  39.867  38.357   4.611
26052W        W98400  22.743  41.022  12.459
26053W        W98401  17.739  31.555   1.232
26054W        W98402  30.638   0.955  14.406
26055W        W98403  14.775  11.759  10.140
26056W        W98404  12.189  17.682  14.377
26057W        W98405  34.886  19.774  13.327
26058W        W98406  41.870  21.601  13.384
26059W        W98407  20.254  31.978   0.313
26060W        W98408  10.849  13.840   3.868
26061W        W98409   6.214  39.554   0.455
26062W        W98410  42.480  12.229   2.730
26063W        W98411  32.557  16.716  14.286
26064W        W98412  17.108  31.020  13.341
26065W        W98413  26.561   2.318   3.309
26066W        W98414   2.827  36.563  14.840
26067W        W98415   4.361   8.845  11.983
26068W        W98416  22.540   6.824  12.979
26069W        W98417   4.214  39.511   1.348
26070W        W98418   1.834   2.412  14.764
26071W        W98419  14.254  31.559   4.186
26072W        W98420  35.097  11.275   4.115
26073W        W98421  15.314   5.832   4.677
26074W        W98422   9.731   5.215  13.951
26075W        W98423  32.060  37.960  11.914
26076W        W98424  15.240  37.059   0.455
26077W        W98425  11.301   2.846  14.969
26078W        W98426  34.032  26.143  14.361
26079W        W98427  40.807  21.534  10.415
26080W        W98428  31.508  33.013  11.507
26081W        W98429  11.213   7.344  14.406
26082W        W98430   9.648  17.740   4.161
26083W        W98431   6.918  23.643   4.288
26084W        W98432  22.714  35.448  11.001
26085W        W98433  30.048  43.929  13.478
26086W        W98434  42.777   4.212   1.273
26087W        W98435  17.303   0.480  14.499
26088W        W98436   6.794  18.134   3.314
26089W        W98437  34.384   6.323  12.952
26090W        W98438   1.369   6.303  11.497
26091W        W98439  33.566   3.726   4.605
26092W        W98440  29.127  21.056  13.882
26093W        W98441  12.148   7.325   2.182
26094W        W98442  10.181  11.254   3.848
26095W        W98443  40.334  34.606   3.640
26096W        W98444   0.473   6.787   1.883
26097W        W98445  15.701  14.743   5.630
26098W        W98446  22.722  12.123   2.185
26099W        W98447  17.559  16.736  11.045
26100W        W98448  13.153   6.689   3.655
26101W        W98449   0.799   8.210   3.844
26102W        W98450  32.502   0.818   3.692
26103W        W98451   8.716  33.564   0.889
26104W        W98452  31.123  18.143   1.906
26105W        W98453  27.468   2.892   1.925
26106W        W98454  40.523  15.686  11.078
26107W        W98455  35.903  19.595   1.735
26108W        W98456  32.957  29.508  11.867
26109W        W98457  19.774  31.927   3.222
26110W        W98458  21.670  19.103  11.869
26111W        W98459  22.520   3.310   3.336
26112W        W98460  38.430  35.431  11.997
26113W        W98461  29.994  30.915   1.433
26114W        W98462  16.807  16.775  13.901
26115W        W98463  44.943  19.642   0.834
26116W        W98464   0.871   3.441   1.932
26117W        W98465  12.253   3.238  11.061
26118W        W98466  36.393  39.906  11.496
26119W        W98467   8.324  13.724   4.775
26120W        W98468  22.526  31.035   1.341
26121W        W98469  42.332   8.839   3.637
26122W        W98470  43.857  33.070   3.337
26123W        W98471  39.521  36.941  13.963
26124W        W98472  31.060  27.158   2.229
26125W        W98473   6.227  22.070  13.381
26126W        W98474   0.753  22.151   3.659
26127W        W98475  14.180   5.221  13.802
26128W        W98476  37.377  12.624   2.297
26129W        W98477  19.771   2.833  11.387
26130W        W98478  30.155  15.651  11.993
26131W        W98479  29.931  17.131  13.346
26132W        W98480  38.441  21.534   1.751
26133W        W98481  16.202  37.516   2.838
26134W        W98482  41.861  21.195  11.597
26135W        W98483  33.583   8.344   2.214
26136W        W98484  35.993  22.135   5.226
26137W        W98485  27.084  29.637  11.485
26138W        W98486   9.698  25.623  10.475
26139W        W98487   4.310   9.815  11.426
26140W        W98488  29.645  28.564  12.514
26141W        W98489   9.326  29.653   0.366
26142W        W98490   1.731  11.349  14.354
26143W        W98491   6.219  33.542   4.756
26144W        W98492   7.264   0.805   4.219
26145W        W98493  18.640  38.405   4.126
26146W        W98494  23.133  12.657  12.827
26147W        W98495  16.091  27.470  14.447
26148W        W98496   1.278  18.247  11.473
26149W        W98497  12.726   2.956  14.869
26150W        W98498   1.866  19.271   1.210
26151W        W98499  15.254  29.615  11.928
26152W        W98500  37.035  31.411  11.609
26153W        W98501  18.764   8.262  10.432
26154W        W98502  44.825  30.515   4.670
26155W        W98503  15.676  27.667  12.921
26156W        W98504  44.968   4.735   0.779
26157W        W98505  43.791  34.095  14.759
26158W        W98506  25.071  11.229  12.016
26159W        W98507  31.106  39.364  12.351
26160W        W98508   2.940  32.491   1.392
26161W        W98509  11.319  15.168   4.671
26162W        W98510  22.049   5.302   3.321
26163W        W98511  36.075  22.534   5.174
26164W        W98512  27.118   9.325  11.501
26165W        W98513  43.319   1.895   5.206
26166W        W98514  40.817  34.611   1.865
26167W        W98515   3.884  29.663  14.840
26168W        W98516  27.996  25.005   2.242
26169W        W98517  14.822  43.949  12.517
26170W        W98518  42.359   7.408   2.342
26171W        W98519  19.717  30.094   3.739
26172W        W98520  10.741  25.477   3.162
26173W        W98521  33.937  27.177   4.753
26174W        W98522   3.457  14.179   4.351
26175W        W98523   2.233  19.110   4.145
26176W        W98524   7.343  11.786   0.342
26177W        W98525  25.986  44.496   1.935
26178W        W98526  26.171  14.165  12.866
26179W        W98527   5.925  26.989  13.820
26180W        W98528  42.370  21.642   1.757
26181W        W98529   2.947  20.212  14.512
26182W        W98530  31.624  44.347  12.428
26183W        W98531   5.882  21.698   0.736
26184W        W98532  15.708  19.166  14.973
26185W        W98533  40.895  28.064   3.330
26186W        W98534  34.509  15.712  14.804
26187W        W98535   1.384   0.392   4.188
26188W        W98536  33.468  19.548  13.473
26189W        W98537  16.264  41.846   2.362
26190W        W98538  40.994  16.782  13.051
26191W        W98539  35.101  37.570  11.876
26192W        W98540  20.059  30.982   4.723
26193W        W98541  26.161  28.559  14.999
26194W        W98542  14.173  11.664  10.904
26195W        W98543  44.830  17.779   1.758
26196W        W98544   1.303  36.384  13.311
26197W        W98545  20.554   9.876  11.097
26198W        W98546  20.139  40.855  12.450
26199W        W98547  17.295   2.774   1.258
26200W        W98548  30.095   8.201  14.926
26201W        W98549  20.144   1.293   2.207
26202W        W98550  11.808  21.637   4.727
26203W        W98551   4.274  13.648  12.875
26204W        W98552  39.812  37.974   1.792
26205W        W98553  13.620  19.209  10.543
26206W        W98554   5.256  33.126   1.772
26207W        W98555  34.058  25.149   0.924
26208W        W98556  36.942  19.245  12.522
26209W        W98557  40.385  19.276   2.861
26210W        W98558  41.968  34.877   4.197
26211W        W98559  22.047   0.819  12.950
26212W        W98560  17.694  29.559   2.412
26213W        W98561  30.159  21.057  10.423
26214W        W98562  12.341   8.793  14.500
26215W        W98563  17.759  33.465   2.224
26216W        W98564  43.505  19.670  13.516
26217W        W98565  16.567  24.641  10.438
26218W        W98566  33.044  36.432   5.598
26219W        W98567  39.035   8.326  11.426
26220W        W98568  33.998  41.467  12.875
26221W        W98569  26.503  43.497   3.727
26222W        W98570  40.905  29.162   2.792
26223W        W98571  32.951  30.509  14.961
26224W        W98572  23.567  14.713   4.332
26225W        W98573  42.502   5.870  14.804
26226W        W98574  37.546  35.596   0.254
26227W        W98575  14.790   4.863  12.947
26228W        W98576  31.625  32.631  13.356
26229W        W98577  15.157  13.239  12.458
26230W        W98578  17.166  11.665  13.526
26231W        W98579  29.579  43.792   3.155
26232W        W98580  20.268  42.527  13.386
26233W        W98581   7.249  40.472   1.228
26234W        W98582  13.829  33.961  10.922
26235W        W98583  44.430  44.798   3.744
26236W        W98584  35.552  38.535   3.870
26237W        W98585  30.084  26.205   4.276
26238W        W98586  18.171  42.313   3.180
26239W        W98587  13.733  33.508   3.182
26240W        W98588  26.660  36.965  11.570
26241W        W98589  14.752  15.674   0.344
26242W        W98590  22.718  38.403   2.702
26243W        W98591  31.610  39.523  12.383
26244W        W98592  41.906   8.736   2.241
26245W        W98593  32.922  19.110  13.008
26246W        W98594  39.941  33.896   3.269
26247W        W98595  27.165   8.166  11.072
26248W        W98596  38.395  14.316  11.995
26249W        W98597   0.379  19.661  14.799
26250W        W98598  40.500  34.572  12.398
26251W        W98599   5.341  22.171  13.342
26252W        W98600  39.437  18.666  10.547
26253W        W98601  24.138   8.741   2.740
26254W        W98602  32.524  18.609  12.572
26255W        W98603  26.533  15.193   1.744
26256W        W98604   3.332  30.588   4.324
26257W        W98605  31.492  40.468   3.664
26258W        W98606   1.923   0.778   1.806
26259W        W98607  39.899   3.875   2.212
26260W        W98608  22.092  26.644   3.373
26261W        W98609  39.377  21.106   0.280
26262W        W98610   8.339  33.514   0.463
26263W        W98611  29.630  34.928   1.394
26264W        W98612  23.013   3.856   2.774
26265W        W98613  25.217   9.756   3.655
26266W        W98614  31.003   4.782   5.171
26267W        W98615  19.659  43.451  10.593
26268W        W98616   7.740  42.396   2.767
26269W        W98617  19.228  11.681   2.778
26270W        W98618   6.716   2.844   0.303
26271W        W98619  22.591   5.733   3.805
26272W        W98620  17.250  10.676  11.994
26273W        W98621  41.790  31.623   2.770
26274W        W98622  30.427  16.215  12.394
26275W        W98623  11.866   0.819  10.590
26276W        W98624  14.325   5.912   4.799
26277W        W98625   5.217  35.867  14.284
26278W        W98626  16.777  17.668   4.693
26279W        W98627   1.445  27.484  11.948
26280W        W98628   7.416  37.556  10.910
26281W        W98629  30.541  41.898  11.375
26282W        W98630  38.067   0.351  10.487
26283W        W98631  29.018   1.792   4.800
26284W        W98632  15.321  14.833   3.859
26285W        W98633  43.904  24.975  13.972
26286W        W98634   5.426  32.096   0.426
26287W        W98635  41.432   1.955  14.025
26288W        W98636  19.217   4.849   4.172
26289W        W98637  30.974   5.268   5.610
26290W        W98638  39.526  41.445   4.267
26291W        W98639  32.076   6.787   4.180
26292W        W98640  32.527  13.128   3.636
26293W        W98641   2.880  41.423   4.629
26294W        W98642  41.528  25.198   2.783
26295W        W98643   6.213   7.822   0.262
26296W        W98644  36.993  16.244  13.506
26297W        W98645  36.483  25.059   5.191
26298W        W98646  40.810  31.618   4.264
26299W        W98647  32.471   0.266  12.067
26300W        W98648   0.251  24.596  10.952
26301W        W98649  32.612  32.421   2.242
26302W        W98650  24.576  14.284   0.811
26303W        W98651  36.522  25.549   1.231
26304W        W98652  20.621  35.049  11.932
26305W        W98653  37.370  15.134   0.357
26306W        W98654  33.582  12.689  12.969
26307W        W98655   3.417   2.425  11.938
26308W        W98656  25.026  31.934  12.554
26309W        W98657  29.454  16.148  13.961
26310W        W98658  19.610  40.817  11.982
26311W        W98659   5.906  41.454  12.346
26312W        W98660   7.749  28.544  14.384
26313W        W98661  22.180  40.842  14.891
26314W        W98662  32.395   3.729  10.935
26315W        W98663  35.952  43.473  12.502
26316W        W98664  31.499   4.397   3.708
26317W        W98665  39.477  36.489   4.752
26318W        W98666  11.837  18.283   0.943
26319W        W98667  18.632   3.271   4.140
26320W        W98668  17.699  22.016   0.896
26321W        W98669   6.723  38.015  14.349
26322W        W98670  31.915  18.693   5.133
26323W        W98671  41.808  19.262  11.872
26324W        W98672  35.539  34.900   1.796
26325W        W98673  27.629  11.360  10.936
26326W        W98674  22.601   2.935  12.951
26327W        W98675   0.794  28.932  11.111
26328W        W98676  26.585   2.398  13.888
26329W        W98677   7.775  11.669  11.935
26330W        W98678  27.659  37.003  12.375
26331W        W98679   6.322   4.213  14.393
26332W        W98680  31.995  27.089   1.430
26333W        W98681  24.096  33.573  14.381
26334W        W98682  29.465  34.907   4.765
26335W        W98683  27.001  19.128  14.325
26336W        W98684  24.625   5.399   3.235
26337W        W98685  27.540  39.040  11.406
26338W        W98686  28.105   3.369   0.317
26339W        W98687  13.722  31.038   0.244
26340W        W98688   0.270  32.093   2.689
26341W        W98689  43.825  23.500  10.991
26342W        W98690  10.734   3.740   5.594
26343W        W98691  32.971  12.267  10.452
26344W        W98692  38.326  21.082  12.487
26345W        W98693   7.200  24.010   2.304
26346W        W98694  10.693  15.233   0.276
26347W        W98695  10.681   9.166  10.432
26348W        W98696  13.628   5.702  11.857
26349W        W98697  19.256  37.892   1.866
26350W        W98698  13.646   3.448   4.826
26351W        W98699   4.332  12.684  12.575
26352W        W98700  11.862  21.087   1.722
26353W        W98701  36.498  20.072   0.764
26354W        W98702   4.215   1.766   1.905
26355W        W98703  37.986  26.969   0.741
26356W        W98704  12.836  18.230   3.677
26357W        W98705   2.766  10.195   1.331
26358W        W98706  23.086  13.787   1.428
26359W        W98707  26.004  18.269   3.853
26360W        W98708  17.647  19.721   3.830
26361W        W98709  31.963  31.508  11.377
26362W        W98710  39.442   7.228   4.210
26363W        W98711  39.064  26.089  12.993
26364W        W98712  31.025  16.267  13.969
26365W        W98713  21.139   8.402   5.297
26366W        W98714  19.214  36.098  13.547
26367W        W98715   9.821   7.359  13.458
26368W        W98716  11.842  39.904   2.213
26369W        W98717  15.165  14.721   1.760
26370W        W98718   3.320  27.453  14.933
26371W        W98719  27.619   9.392   1.415
26372W        W98720   4.852   5.403   4.692
26373W        W98721   0.297  24.178   1.807
26374W        W98722   7.713  14.609  11.471
26375W        W98723  40.505  29.036   1.726
26376W        W98724  11.143  34.864  10.588
26377W        W98725  20.594   6.831   2.351
26378W        W98726  20.592   9.357   4.647
26379W        W98727  19.164  41.889   3.224
26380W        W98728  40.015  33.957   1.444
26381W        W98729  35.431   8.828   2.364
26382W        W98730  37.412  20.691   3.661
26383W        W98731  41.811   0.411   4.260
26384W        W98732  27.579  43.999   4.210
26385W        W98733   9.326  40.802   0.743
26386W        W98734   3.375  20.132   0.470
26387W        W98735  32.628   2.329  11.442
26388W        W98736   6.272  41.962  11.425
26389W        W98737   9.803  40.029   4.778
26390W        W98738  35.952  20.179   4.340
26391W        W98739  19.085  41.347   1.862
26392W        W98740  41.453  12.307  12.970
26393W        W98741  33.985  16.290   2.315
26394W        W98742   9.176  26.660  13.909
26395W        W98743  14.720  17.760   3.251
26396W        W98744  11.220   7.191  13.825
26397W        W98745  33.535  17.752   3.256
26398W        W98746   0.272  27.117  10.642
26399W        W98747   6.872  24.211  13.506
26400W        W98748  44.943  30.445   3.184
26401W        W98749  41.804  34.400   1.725
26402W        W98750  36.353   6.899   1.722
26403W        W98751  16.745  41.916  14.932
26404W        W98752  24.148  28.107   0.345
26405W        W98753  10.156  25.009   3.242
26406W        W98754  29.447  29.029   1.432
26407W        W98755  41.453  24.154  10.479
26408W        W98756   3.936  29.644   2.836
26409W        W98757  26.644  31.510  11.018
26410W        W98758   8.342  21.184  12.025
26411W        W98759   3.351  20.548  11.498
26412W        W98760  39.900  34.942   2.730
26413W        W98761  32.543   3.869  11.898
26414W        W98762  19.544  13.319   5.108
26415W        W98763  17.701  37.873   4.325
26416W        W98764   3.757  15.705  12.552
26417W        W98765  15.315  25.119  12.572
26418W        W98766  20.694  28.512   3.368
26419W        W98767  42.030  31.598  12.904
26420W        W98768   3.722  25.612   4.814
26421W        W98769  19.259  26.506  12.859
26422W        W98770  27.999  34.603  14.483
26423W        W98771  26.542  44.455  14.513
26424W        W98772  40.356  26.970  13.933
26425W        W98773   7.203  11.210  13.027
26426W        W98774  18.171   6.881   3.650
26427W        W98775  27.481  41.324  13.969
26428W        W98776  21.546   9.837  14.332
26429W        W98777  18.261  19.093   0.737
26430W        W98778  10.242  39.018  12.978
26431W        W98779  38.408  12.242  13.365
26432W        W98780  43.816  17.609   3.354
26433W        W98781  38.055  34.547  14.908
26434W        W98782  23.019   7.336  11.569
26435W        W98783   5.818  23.035   1.312
26436W        W98784   8.399   7.368   3.744
26437W        W98785  39.808  39.846  10.507
26438W        W98786  24.501  18.571  14.507
26439W        W98787  37.356  12.675  11.609
26440W        W98788   3.393  29.597   2.402
26441W        W98789  19.701  31.109   9.981
26442W        W98790  34.888  23.128   5.674
26443W        W98791  43.970  20.258   0.272
26444W        W98792  30.960  42.893  13.919
26445W        W98793  27.490  23.600  13.907
26446W        W98794  27.621   8.334  12.568
26447W        W98795  24.583  14.635  13.027
26448W        W98796  29.617  24.554  12.909
26449W        W98797   1.900  43.013   2.837
26450W        W98798  14.270  23.733  12.359
26451W        W98799   7.672   1.289  14.847
26452W        W98800   5.833   8.288   0.743
26453W        W98801  17.635  35.368  13.933
26454W        W98802  24.980  15.745  12.456
26455W        W98803  40.955  33.987   2.846
26456W        W98804  37.529  17.564  12.519
26457W        W98805  24.197  42.410  13.985
26458W        W98806  42.907  19.575  11.446
26459W        W98807  39.410  32.107  10.618
26460W        W98808   7.304  39.003  11.592
26461W        W98809   7.405  21.079   4.810
26462W        W98810  35.499  29.627   3.859
26463W        W98811   1.928  37.070  14.983
26464W        W98812  44.307  18.700   3.165
26465W        W98813  25.523  16.575   2.767
26466W        W98814  27.973  32.557   2.823
26467W        W98815  32.430  31.043   4.160
26468W        W98816   4.265  14.119  12.020
26469W        W98817   6.195  17.275   5.136
26470W        W98818  30.064   0.250  13.949
26471W        W98819  18.682  20.665   2.836
26472W        W98820  13.710  24.216  14.276
26473W        W98821  44.863  26.644  14.391
26474W        W98822  40.830   3.316   3.195
26475W        W98823  42.921   3.317   0.363
26476W        W98824  15.157  27.667   4.186
26477W        W98825   5.396  10.667  11.595
26478W        W98826  22.050  22.049   3.770
26479W        W98827  19.045   2.282   0.260
26480W        W98828  39.430  42.794   0.325
26481W        W98829   1.783  11.313   4.236
26482W        W98830   4.911  16.586   1.709
26483W        W98831  34.023  27.634   2.727
26484W        W98832  42.841  33.598  12.369
26485W        W98833  41.508  34.863  12.542
26486W        W98834   7.910  24.168  13.022
26487W        W98835   6.771  38.946   3.200
26488W        W98836  41.422   8.294  12.051
26489W        W98837  10.372  35.104  10.979
26490W        W98838   9.161   3.917  11.121
26491W        W98839  23.140   3.757   3.283
26492W        W98840  18.132  23.153  11.902
26493W        W98841  36.373   3.855  10.496
26494W        W98842  39.006   9.746  14.851
26495W        W98843  41.507  10.729  12.440
26496W        W98844  41.043  23.108   3.696
26497W        W98845  15.787  15.135   3.850
26498W        W98846  23.104  20.691   0.292
26499W        W98847  13.805  26.603  11.027
26500W        W98848  32.099  36.043   1.371
26501W        W98849  20.580  29.441  12.940
26502W        W98850   1.417  28.649  13.496
26503W        W98851  34.515  39.556  13.526
26504W        W98852  28.176  34.549  11.000
26505W        W98853  16.113  44.454   0.373
26506W        W98854  26.674  27.186   4.336
26507W        W98855   6.290   2.405  14.470
26508W        W98856  31.512  43.489   4.601
26509W        W98857  36.046  42.322   1.769
26510W        W98858  35.536  12.749  14.290
26511W        W98859  42.464  36.016   2.890
26512W        W98860  10.300  33.913  14.349
26513W        W98861  10.156  22.050   2.867
26514W        W98862  12.133  29.024  14.468
26515W        W98863  14.821  35.932   3.213
26516W        W98864  20.758   0.937   3.750
26517W        W98865  36.928   7.819   5.625
26518W        W98866  20.174  39.909  10.414
26519W        W98867  31.088  22.018   4.672
26520W        W98868  42.949  31.056  14.977
26521W        W98869  12.317  35.589  14.800
26522W        W98870  18.170   3.417   2.374
26523W        W98871  13.777   3.930   3.678
26524W        W98872  16.741   1.924  11.893
26525W        W98873  31.096   6.814  12.946
26526W        W98874  32.404  15.587  14.963
26527W        W98875  33.393  33.886  13.328
26528W        W98876  35.971   2.451  12.382
26529W        W98877   7.758  13.187  11.927
26530W        W98878  30.059   5.205  14.502
26531W        W98879  40.376  21.161  14.810
26532W        W98880  23.736  20.660   2.329
26533W        W98881  25.649  28.496  14.478
26534W        W98882  14.310  22.578   1.391
26535W        W98883  25.487   3.783   4.831
26536W        W98884  39.344   3.872   0.795
26537W        W98885   1.269  20.233  14.301
26538W        W98886  23.208  16.695   4.628
26539W        W98887  25.204  33.974   3.729
26540W        W98888   9.151  38.971  13.936
26541W        W98889  28.139   4.905   3.302
26542W        W98890  42.781  32.946   1.826
26543W        W98891  37.002  27.065  12.568
26544W        W98892  37.873   3.378  11.989
26545W        W98893  26.038  15.667  10.596
26546W        W98894   9.243   0.958  12.500
26547W        W98895  25.197  19.232  14.343
26548W        W98896  29.967  24.716   3.182
26549W        W98897  33.941   6.416   0.342
26550W        W98898   5.706  25.985   0.780
26551W        W98899  26.092  17.105  10.600
26552W        W98900  39.829  44.499  12.364
26553W        W98901  42.426  14.601   2.710
26554W        W98902  10.283  25.487   0.961
26555W        W98903   8.366  15.633  14.790
26556W        W98904  15.199   8.363  13.515
26557W        W98905  31.044  17.133   4.702
26558W        W98906  26.678  11.349  11.108
26559W        W98907  23.222  23.684   4.737
26560W        W98908   1.397  16.147  12.889
26561W        W98909  27.021  33.040  10.967
26562W        W98910  36.380  33.035  12.982
26563W        W98911   1.481  29.438   2.390
26564W        W98912   1.974  14.307  13.994
26565W        W98913  43.783  15.707   1.399
26566W        W98914  16.182  34.954   2.254
26567W        W98915  40.409   6.270  10.927
26568W        W98916  31.985   4.814   4.266
26569W        W98917  16.257  44.967   0.947
26570W        W98918   7.780  29.612   5.238
26571W        W98919  18.146  34.040   4.234
26572W        W98920  22.118  26.003   4.747
26573W        W98921   4.725   5.725   9.989
26574W        W98922  37.376  34.563  13.854
26575W        W98923  30.026  38.982  12.853
26576W        W98924  19.757  18.789   2.810
26577W        W98925  23.510  35.594   0.820
26578W        W98926  30.649   4.871   0.935
26579W        W98927  13.779  27.155  11.064
26580W        W98928   5.711  39.411  11.062
26581W        W98929  39.867  34.510  10.530
26582W        W98930   2.781  28.444  14.778
26583W        W98931  27.002   4.817  12.871
26584W        W98932  41.465  40.490   2.691
26585W        W98933   9.852  10.245   2.315
26586W        W98934  13.798  16.582   2.319
26587W        W98935   1.313  26.526  10.573
26588W        W98936  40.801  30.533   4.788
26589W        W98937   4.384   3.812  13.942
26590W        W98938   8.697  24.621   4.316
26591W        W98939  19.663  31.490  11.950
26592W        W98940  20.221   8.710   4.647
26593W        W98941  40.435  34.943  12.527
26594W        W98942  29.125  26.110   0.739
26595W        W98943  11.633  39.064   1.825
26596W        W98944   3.289   0.830  11.489
26597W        W98945  12.136   2.328  12.403
26598W        W98946   5.333  44.763  12.993
26599W        W98947   9.312  10.254  10.154
26600W        W98948  35.885  36.456  12.537
26601W        W98949  10.811   4.223  12.018
26602W        W98950   6.749  33.904   3.185
26603W        W98951  19.058   0.389   3.759
26604W        W98952   2.392   1.279   2.720
26605W        W98953  26.076  22.127  12.495
26606W        W98954  33.577  10.168  11.379
26607W        W98955  41.794  18.229   3.833
26608W        W98956  29.502  33.120  10.627
26609W        W98957  29.034  29.027  12.836
26610W        W98958  18.564  15.581   0.918
26611W        W98959  30.635  11.144   1.447
26612W        W98960  27.062  28.631  14.403
26613W        W98961  14.291  13.712  14.792
26614W        W98962   8.655   9.824  12.430
26615W        W98963  12.825  19.158  12.524
26616W        W98964   3.855  42.817  11.076
26617W        W98965  13.204  30.435  13.053
26618W        W98966  22.204  19.117  12.376
26619W        W98967   5.310  32.590   2.712
26620W        W98968   7.799  28.608  11.108
26621W        W98969   7.818  34.899   0.798
26622W        W98970   2.786   0.397  11.933
26623W        W98971  44.448  10.196  11.998
26624W        W98972  29.065  11.865  13.362
26625W        W98973  37.852   8.892  11.943
26626W        W98974  36.841  38.436  12.036
26627W        W98975  21.652  25.154   4.644
26628W        W98976  40.444   4.829   2.749
26629W        W98977  19.138  16.631  13.307
26630W        W98978  13.827  44.337  12.574
26631W        W98979   1.800   7.782  12.970
26632W        W98980   9.179   2.831  13.312
26633W        W98981  31.949  21.220  13.850
26634W        W98982   1.285   2.831  10.624
26635W        W98983   5.294  27.686   0.868
26636W        W98984  39.042  31.076   3.316
26637W        W98985  26.696  26.012   4.814
26638W        W98986  28.456   8.241   2.318
26639W        W98987  37.074  34.075  13.529
26640W        W98988   2.883  20.670  13.400
26641W        W98989   5.840  41.538   2.224
26642W        W98990  33.626   4.250   1.878
26643W        W98991   2.843  10.236  14.406
26644W        W98992  25.543  14.158   4.696
26645W        W98993   7.794  42.866  10.118
26646W        W98994  15.224  10.812  14.312
26647W        W98995  18.623   6.285   1.221
26648W        W98996  21.146  19.164  13.850
26649W        W98997  11.844  35.882   4.770
26650W        W98998  27.055   7.852  11.504
26651W        W98999   9.820  20.535   3.246
26652W        W99000  22.718   5.851   4.134
26653W        W99001  28.513  44.862   2.303
26654W        W99002  27.555  21.754   3.360
26655W        W99003  34.392   2.901   3.381
26656W        W99004  38.547  17.762  12.026
26657W        W99005  25.583  39.371   1.273
26658W        W99006   7.765   7.175   2.792
26659W        W99007  40.913  34.958   4.693
26660W        W99008  15.732  22.223  14.828
26661W        W99009  20.758   5.726   3.369
26662W        W99010  33.612  19.572   4.310
26663W        W99011  40.027  21.263   2.883
26664W        W99012   8.710  32.411   2.298
26665W        W99013  23.498  20.576  14.921
26666W        W99014  42.300   0.297  11.583
26667W        W99015  32.050  19.129  14.500
26668W        W99016  13.654  30.415   2.305
26669W        W99017   4.378  31.448   2.724
26670W        W99018   4.286  34.592   2.732
26671W        W99019   3.443  21.210   2.202
26672W        W99020   8.882   0.976   2.869
26673W        W99021  40.901  37.033  11.454
26674W        W99022  17.704  14.691   4.690
26675W        W99023  30.570  44.866  12.048
26676W        W99024  22.006  35.443   0.325
26677W        W99025  28.605  10.644  11.956
26678W        W99026  42.940   4.284  12.449
26679W        W99027  18.209   4.219  11.463
26680W        W99028  32.482  19.635   2.289
26681W        W99029  33.542  25.584   2.201
26682W        W99030  32.112   1.779  11.033
26683W        W99031  15.657   8.736  13.019
26684W        W99032  34.588  39.361   3.784
26685W        W99033  14.096  35.874   1.897
26686W        W99034  42.470   3.221  14.301
26687W        W99035   9.258  18.236   3.162
26688W        W99036   3.410  33.887   4.716
26689W        W99037  40.520  20.723  13.532
26690W        W99038   3.273   4.874  11.606
26691W        W99039  21.560  12.818  13.520
26692W        W99040   8.242  36.898  10.425
26693W        W99041  44.459  27.473  11.421
26694W        W99042  16.622   3.881  13.916
26695W        W99043   0.960  41.939  12.505
26696W        W99044   7.724  41.886  12.093
26697W        W99045  14.769  27.964   2.194
26698W        W99046  33.538  41.031  14.319
26699W        W99047  30.972   4.352   2.696
26700W        W99048  43.765  30.495  12.871
26701W        W99049  20.612  17.191  14.396
26702W        W99050   2.859  14.783   3.781
26703W        W99051  33.924  21.077   2.851
26704W        W99052  41.875  41.886   0.897
26705W        W99053  31.100  32.492   4.172
26706W        W99054   3.292  30.511   1.287
26707W        W99055  28.479  40.811  14.019
26708W        W99056  10.720  43.341   1.902
26709W        W99057  40.503  30.423  12.398
26710W        W99058  27.128   3.423   1.438
26711W        W99059  19.763  44.894  13.403
26712W        W99060  40.003  22.078   4.641
26713W        W99061  12.736   2.726  10.492
26714W        W99062  44.867   2.412  11.434
26715W        W99063  29.101  33.565  11.946
26716W        W99064  26.959   1.891   2.341
26717W        W99065  37.367   9.685   4.826
26718W        W99066  36.932  24.175  10.939
26719W        W99067  19.164  33.402  12.478
26720W        W99068  34.938  26.536   0.742
26721W        W99069   1.774  19.686  12.403
26722W        W99070  29.969  13.719  10.644
26723W        W99071  32.900  30.611   1.403
26724W        W99072  32.458  17.240   2.234
26725W        W99073   7.173  23.157  13.312
26726W        W99074  32.057   2.808  11.074
26727W        W99075  20.567  22.093   1.322
26728W        W99076  28.008   0.304   0.420
26729W        W99077  33.892  29.946   3.822
26730W        W99078  16.676  36.491  10.968
26731W        W99079   5.921   5.280  11.925
26732W        W99080  13.341  11.169  13.502
26733W        W99081  41.801  37.486   2.185
26734W        W99082  22.075  39.352  11.537
26735W        W99083  37.384  43.908   4.616
26736W        W99084  13.602   1.753   3.267
26737W        W99085   7.402  11.131  11.066
26738W        W99086  25.627   7.342   1.239
26739W        W99087  25.600   0.802  14.465
26740W        W99088  25.580   6.840  14.925
26741W        W99089  23.113   5.738  14.484
26742W        W99090  12.789  32.420  14.966
26743W        W99091  12.144  22.118   2.201
26744W        W99092  42.442  26.065   1.227
26745W        W99093  44.830   0.416  11.590
26746W        W99094   2.273  37.559   1.925
26747W        W99095  17.599   3.277   1.867
26748W        W99096  22.111  30.628   4.687
26749W        W99097  44.272  20.094  11.110
26750W        W99098  14.252  19.245  12.870
26751W        W99099  39.881   4.770  13.011
26752W        W99100  18.161  34.094   1.278
26753W        W99101  21.703  21.179  13.024
26754W        W99102  20.095  41.031   1.714
26755W        W99103  14.216  24.162   1.895
26756W        W99104   2.433  30.435   4.744
26757W        W99105  42.851   7.843  12.925
26758W        W99106  16.133   0.865  11.394
26759W        W99107  25.478  32.098  13.791
26760W        W99108   5.318  44.878   0.482
26761W        W99109  44.801  33.533   3.672
26762W        W99110  42.408   8.203   0.908
26763W        W99111  15.217   2.288   0.785
26764W        W99112  33.081  17.610   4.318
26765W        W99113   2.950  16.128   2.226
26766W        W99114  25.966  29.626   0.308
26767W        W99115  19.542  26.519  14.286
26768W        W99116  30.495  16.730  10.573
26769W        W99117  15.216  15.207  10.497
26770W        W99118   1.392   9.736   1.319
26771W        W99119  19.690  20.256   0.388
26772W        W99120   0.789   3.709  14.447
26773W        W99121  22.511  44.438   2.398
26774W        W99122  41.875  33.476   0.894
26775W        W99123  32.991   9.809  14.942
26776W        W99124  23.656  38.434   0.309
26777W        W99125   2.819   3.813   1.932
26778W        W99126  14.803  42.466  13.353
26779W        W99127  23.020  33.380  10.581
26780W        W99128  34.560   3.301   4.824
26781W        W99129  42.986  16.091   3.778
26782W        W99130  11.845  31.580  12.395
26783W        W99131  34.420  11.678  11.555
26784W        W99132  24.024  31.973  14.001
26785W        W99133  35.563  36.352   2.866
26786W        W99134   0.438  31.591   2.761
26787W        W99135  13.602  41.319  14.413
26788W        W99136  33.497  36.898   2.317
26789W        W99137   8.898  16.281   1.356
26790W        W99138  19.244  23.687   3.254
26791W        W99139  34.879  20.536  14.839
26792W        W99140  33.577   2.290   1.831
26793W        W99141  35.021  28.640   2.321
26794W        W99142  34.472   6.374  14.912
26795W        W99143  16.789  28.952  10.491
26796W        W99144   1.391  12.836  14.410
26797W        W99145  27.672  39.410  13.932
26798W        W99146  25.524   0.450   3.721
26799W        W99147   0.376   7.192   3.809
26800W        W99148  11.696  12.746  13.434
26801W        W99149  30.595  18.086   2.242
26802W        W99150  22.191  33.607  14.793
26803W        W99151  20.564  37.421  11.380
26804W        W99152  20.160  38.076  14.868
26805W        W99153   3.262  35.568   1.251
26806W        W99154   3.294  16.317  13.356
26807W        W99155   2.432  37.985   1.741
26808W        W99156   8.892  36.473   0.314
26809W        W99157  13.689  32.430  12.848
26810W        W99158   5.814   1.451  11.405
26811W        W99159  36.969  25.639  11.114
26812W        W99160  35.981  30.638   3.704
26813W        W99161  42.783   8.238  14.401
26814W        W99162   2.258   8.738  12.870
26815W        W99163  18.691  21.554   2.896
26816W        W99164  41.010   2.767   1.250
26817W        W99165  22.623  12.634  13.908
26818W        W99166  16.637  13.627  14.337
26819W        W99167   1.452  36.368  10.500
26820W        W99168  40.514  21.121   9.968
26821W        W99169  18.122   3.316  10.499
26822W        W99170  27.015  10.831  13.326
26823W        W99171  26.083  23.005   2.215
26824W        W99172  22.523   6.715  13.899
26825W        W99173  30.659  23.001   4.715
26826W        W99174  33.613  31.584   1.435
26827W        W99175   5.382  31.108  13.469
26828W        W99176  16.079  34.456  10.524
26829W        W99177  18.565   1.291  12.526
26830W        W99178  26.056  36.959  10.978
26831W        W99179   9.651  23.510  10.426
26832W        W99180  23.070  32.617  14.772
26833W        W99181   5.752  34.595  14.516
26834W        W99182  18.287  17.556  14.794
26835W        W99183  14.633   3.833   3.744
26836W        W99184   5.891  10.212  10.012
26837W        W99185   9.348  25.135   4.158
26838W        W99186   5.223  42.888  14.510
26839W        W99187  31.149   8.814  11.429
26840W        W99188  21.103  44.868   4.350
26841W        W99189  14.662  31.032   4.206
26842W        W99190  43.833  40.859  11.085
26843W        W99191   1.863  36.003   4.174
26844W        W99192  21.519  20.568  12.067
26845W        W99193  11.697   6.267  13.525
26846W        W99194  43.765  16.235   3.660
26847W        W99195   1.445   3.412   5.165
26848W        W99196  20.090  35.905   1.792
26849W        W99197   6.420  39.437   4.141
26850W        W99198  16.317   4.343   3.811
26851W        W99199  33.381   4.361   3.728
26852W        W99200   9.176  29.153   3.208
26853W        W99201  41.445  17.780   1.237
26854W        W99202   5.716  12.683  13.413
26855W        W99203  17.661  27.055   3.768
26856W        W99204   9.655  40.387   3.755
26857W        W99205  41.942  16.209  13.850
26858W        W99206  24.002  37.980   0.750
26859W        W99207   4.712  19.627  10.938
26860W        W99208  14.630  44.770  12.402
26861W        W99209  25.514   0.345  13.907
26862W        W99210  26.702   2.859   1.328
26863W        W99211  18.291  34.116   4.631
26864W        W99212  31.152  40.460  14.477
26865W        W99213  39.405  20.638  11.543
26866W        W99214   7.322  16.241  12.459
26867W        W99215  27.634  10.741   3.305
26868W        W99216  25.095  34.875  13.058
26869W        W99217  20.133   7.877   1.904
26870W        W99218  28.007  23.588  14.484
26871W        W99219  16.600   3.299   5.117
26872W        W99220  41.998  30.997   3.235
26873W        W99221  44.305   7.385   3.775
26874W        W99222   5.420  23.516  12.019
26875W        W99223  33.583  11.730  13.055
26876W        W99224  14.115   9.745  14.865
26877W        W99225  21.076  32.504  14.871
26878W        W99226  38.353  41.526   0.474
26879W        W99227  17.139  38.565  14.935
26880W        W99228   1.338  41.921   2.818
26881W        W99229  21.608   5.904  11.933
26882W        W99230   9.683  18.780   4.270
26883W        W99231  13.687  34.008   4.215
26884W        W99232  43.426  36.091  10.994
26885W        W99233  35.437  41.020   3.765
26886W        W99234  29.540  35.861   1.752
26887W        W99235  14.745  35.888   4.704
26888W        W99236  33.091   6.852   0.933
26889W        W99237   4.780   8.395   1.342
26890W        W99238  33.066  21.616   2.274
26891W        W99239  11.659  15.288   1.439
26892W        W99240  43.879  27.188  14.418
26893W        W99241  33.579  12.833  12.035
26894W        W99242  35.002   4.435   4.708
26895W        W99243  35.561  23.074   4.786
26896W        W99244  33.537  15.712  10.444
26897W        W99245   6.876   6.730   3.839
26898W        W99246  14.800  44.781   3.176
26899W        W99247   5.716  42.865   9.925
26900W        W99248   3.724  23.109   1.845
26901W        W99249  29.480   7.279  12.036
26902W        W99250   7.387  37.424   3.670
26903W        W99251  19.245  16.075   0.767
26904W        W99252  37.536  30.072   4.348
26905W        W99253  27.051   4.803   4.680
26906W        W99254  21.238  18.736  11.065
26907W        W99255  10.343  19.613  10.535
26908W        W99256  26.966  27.941   1.410
26909W        W99257   5.339  21.687   1.787
26910W        W99258  42.415  36.905   2.730
26911W        W99259  34.399  37.431  12.376
26912W        W99260  28.672  41.340   4.775
26913W        W99261  25.558  31.571   0.441
26914W        W99262  29.994  39.486   4.187
26915W        W99263  13.124  28.175   5.261
26916W        W99264  34.910  25.628  10.492
26917W        W99265  28.958   9.371   1.726
26918W        W99266   9.371  32.433   3.310
26919W        W99267  15.790  35.540   0.775
26920W        W99268  21.625  11.127   4.221
26921W        W99269  30.535  42.998   2.693
26922W        W99270   1.437  12.671   1.335
26923W        W99271   1.270  12.334  12.946
26924W        W99272  16.240  11.206   5.621
26925W        W99273  24.069   6.702   1.276
26926W        W99274  13.631  27.456  11.480
26927W        W99275   9.216  37.946   2.875
26928W        W99276  12.743  38.064   3.263
26929W        W99277   8.894  33.536   3.740
26930W        W99278   9.194  33.049   4.686
26931W        W99279   4.829  24.112  12.036
26932W        W99280   5.728  34.947   3.637
26933W        W99281  24.210  11.136   0.441
26934W        W99282  33.517   9.775   2.811
26935W        W99283  13.604  39.411  12.893
26936W        W99284   1.886  10.239   3.826
26937W        W99285  42.950  26.992  14.915
26938W        W99286  41.941  21.052  13.935
26939W        W99287   8.718  42.337  11.380
26940W        W99288  24.130   3.835  14.811
26941W        W99289  26.033   8.198  11.981
26942W        W99290  26.620  41.380  11.872
26943W        W99291  11.264  19.697   1.700
26944W        W99292  35.491  22.059  12.552
26945W        W99293  37.450   5.701   0.313
26946W        W99294  19.282   4.848  14.803
26947W        W99295  33.028   5.850   9.620
26948W        W99296   0.436   4.726  13.823
26949W        W99297  17.582  27.641  12.459
26950W        W99298   5.931   4.718   2.373
26951W        W99299  44.420  44.845  11.584
26952W        W99300  33.043   9.783  12.409
26953W        W99301  43.782  44.856   2.670
26954W        W99302  35.868   6.880   3.290
26955W        W99303  13.769   7.879  14.780
26956W        W99304  13.674  29.451  13.886
26957W        W99305  11.211  12.226   3.305
26958W        W99306  11.831  35.487  10.037
26959W        W99307   3.283   1.435   2.724
26960W        W99308  36.057   5.431  12.437
26961W        W99309  19.610   1.483   2.349
26962W        W99310  17.732  41.335   3.712
26963W        W99311  10.139  13.326   2.296
26964W        W99312  22.510  28.976   5.098
26965W        W99313  44.947  12.119   0.774
26966W        W99314  39.425  42.787   4.655
26967W        W99315  17.135   8.787  10.961
26968W        W99316  29.668  11.292  12.083
26969W        W99317  27.106  33.886   2.217
26970W        W99318  29.554   9.246  14.358
26971W        W99319  19.117   0.339   2.741
26972W        W99320   0.844  26.134   3.333
26973W        W99321  13.238   9.780  12.923
26974W        W99322   9.216  28.659  13.941
26975W        W99323   2.920  22.108  10.483
26976W        W99324  14.635  31.422   2.841
26977W        W99325  19.736  35.086  11.612
26978W        W99326   0.892  42.429   1.835
26979W        W99327  19.613  14.728  10.418
26980W        W99328  16.119   9.384   1.384
26981W        W99329  28.666  13.620  14.443
26982W        W99330  35.971   0.285  12.521
26983W        W99331  43.446  35.953   1.856
26984W        W99332   7.382  17.085   1.859
26985W        W99333   9.197  37.912   3.779
26986W        W99334  25.520  36.387   3.738
26987W        W99335   1.773   9.249  11.864
26988W        W99336  34.569  38.991  14.390
26989W        W99337  35.466  17.621  10.903
26990W        W99338  16.173  19.570   1.865
26991W        W99339  33.513  25.084  14.301
26992W        W99340  44.387  15.238  13.878
26993W        W99341  17.156  38.853   4.271
26994W        W99342   2.299   1.830  10.643
26995W        W99343  12.204  26.513   0.904
26996W        W99344   2.751  32.084  10.918
26997W        W99345   8.171  30.539  12.527
26998W        W99346   5.360  27.475   1.387
26999W        W99347  23.111  28.590  14.345
27000W        W99348  21.574   4.933   3.273
27001W        W99349  40.844  13.212  11.399
27002W        W99350  32.429  35.383   2.903
27003W        W99351  25.526   7.287   3.370
27004W        W99352  32.556  30.439  11.055
27005W        W99353  44.828  29.573  11.064
27006W        W99354  15.670   0.968  14.488
27007W        W99355  36.061   2.328  13.441
27008W        W99356  18.667  15.186  12.399
27009W        W99357  17.732  28.973  13.927
27010W        W99358   2.284  39.430   1.382
27011W        W99359  40.902   0.922   1.277
27012W        W99360  35.543  21.583  11.871
27013W        W99361  40.497   8.879  10.442
27014W        W99362  26.110  18.125   2.337
27015W        W99363   6.415   1.907   1.866
27016W        W99364   3.227  15.728   1.788
27017W        W99365  31.916  41.929  11.481
27018W        W99366   7.753  11.678   0.804
27019W        W99367  16.276  15.643   2.276
27020W        W99368  17.132  28.132  11.556
27021W        W99369  21.716  13.791  10.959
27022W        W99370  32.051  30.628  14.428
27023W        W99371  22.640  24.194  11.872
27024W        W99372  27.679   3.324  13.351
27025W        W99373  24.702   0.314   4.722
27026W        W99374  14.098   5.794   3.193
27027W        W99375   8.302  28.176   0.794
27028W        W99376   3.862  12.266  10.903
27029W        W99377  40.370  31.974  11.901
27030W        W99378  30.521   4.398  11.514
27031W        W99379  15.272   3.219   3.185
27032W        W99380  35.386  26.488  13.880
27033W        W99381   1.871  20.598  12.042
27034W        W99382  43.898  41.374   2.760
27035W        W99383  19.237  40.875  10.595
27036W        W99384  25.125  28.074   4.229
27037W        W99385   6.794  31.085  14.977
27038W        W99386  12.800   4.868  11.434
27039W        W99387  29.164  14.164   3.383
27040W        W99388  13.756   8.275  14.945
27041W        W99389  15.808  32.606   3.298
27042W        W99390  40.412  19.109   0.956
27043W        W99391  23.125  33.987  10.625
27044W        W99392   9.861  11.642   0.727
27045W        W99393   3.437  13.300   3.681
27046W        W99394   1.803  22.653  14.022
27047W        W99395  21.216  13.674   2.743
27048W        W99396  21.737  17.561   4.206
27049W        W99397   0.772  28.632   1.829
27050W        W99398  34.058  39.497   2.790
27051W        W99399  20.099  24.020  14.897
27052W        W99400  27.607  41.831   4.283
27053W        W99401  32.409  21.605  10.500
27054W        W99402  19.615  23.634  13.923
27055W        W99403  30.438  21.187  14.897
27056W        W99404  39.519  32.458  14.943
27057W        W99405  22.196  29.013  11.586
27058W        W99406   1.456  19.223   4.622
27059W        W99407  21.043  40.442   5.102
27060W        W99408  30.530  26.580   2.345
27061W        W99409  26.548  32.505  13.491
27062W        W99410  20.165  19.653  13.901
27063W        W99411  16.291   1.845  12.521
27064W        W99412  30.413   3.849   0.904
27065W        W99413  20.202  36.380  11.877
27066W        W99414   9.174   5.766   4.824
27067W        W99415  15.251   9.216   1.244
27068W        W99416  31.084  40.004  14.883
27069W        W99417  29.170  28.122   1.293
27070W        W99418  21.596  18.600   1.253
27071W        W99419   5.914   4.383  10.993
27072W        W99420  22.178  36.524  12.968
27073W        W99421  38.966   9.187   0.254
27074W        W99422   4.924  24.027   1.805
27075W        W99423  44.277  16.790  11.417
27076W        W99424  39.860   4.424   1.836
27077W        W99425  34.891  28.649  14.317
27078W        W99426   5.929  27.974   4.342
27079W        W99427  28.484   2.843   4.218
27080W        W99428  24.550  27.005   1.793
27081W        W99429   7.695  16.159   3.351
27082W        W99430  12.841  42.846  14.885
27083W        W99431  19.640  27.015  11.063
27084W        W99432  32.138  41.015   3.831
27085W        W99433  24.177   4.760   4.683
27086W        W99434   5.906  40.817  12.966
27087W        W99435  38.987   6.376   5.320
27088W        W99436   6.375  33.057   3.771
27089W        W99437   1.282  14.302  14.384
27090W        W99438   8.220  34.875   1.369
27091W        W99439  31.136  37.054   1.384
27092W        W99440  31.491   3.918   1.354
27093W        W99441  12.322  41.810   2.751
27094W        W99442   6.912  24.715   3.704
27095W        W99443  44.262  25.571   3.175
27096W        W99444  21.045  23.573   1.858
27097W        W99445  34.080   3.904  10.896
27098W        W99446  13.774  25.020   4.116
27099W        W99447  33.613  39.514  12.917
27100W        W99448  30.931   6.751   2.202
27101W        W99449   4.709  16.638   1.291
27102W        W99450  12.190  27.139   0.841
27103W        W99451  15.715   0.927  11.124
27104W        W99452  22.715   5.813   1.433
27105W        W99453  25.176  23.598  13.408
27106W        W99454  10.876  29.150  12.541
27107W        W99455  11.148   4.353   3.683
27108W        W99456  40.829  24.020   2.740
27109W        W99457  10.321  26.064   4.352
27110W        W99458  17.202   6.222   3.693
27111W        W99459  22.204  25.044  12.957
27112W        W99460   9.319  22.152   2.887
27113W        W99461  11.795  19.560   2.267
27114W        W99462  16.137  14.669   1.321
27115W        W99463  40.880  12.215  10.609
27116W        W99464   9.813  33.387  12.507
27117W        W99465  24.702  18.285  13.399
27118W        W99466  32.524  26.611   0.408
27119W        W99467  24.172  11.158  11.017
27120W        W99468  26.138   0.306  12.527
27121W        W99469  37.411   7.339   4.170
27122W        W99470  17.275  15.319  12.898
27123W        W99471  10.213  42.434  11.429
27124W        W99472  36.086   3.787   0.910
27125W        W99473  38.884  23.726  13.023
27126W        W99474  20.560  15.219   4.663
27127W        W99475  17.147  31.143  14.845
27128W        W99476  13.802   6.809  13.328
27129W        W99477  32.961   0.306   1.210
27130W        W99478   7.814   4.868  12.958
27131W        W99479  26.000  18.124   1.243
27132W        W99480  11.216  36.585   1.785
27133W        W99481  11.706  18.260   2.311
27134W        W99482   4.790  42.327   1.261
27135W        W99483  40.385   0.868   1.888
27136W        W99484  20.098  19.652   3.797
27137W        W99485  29.102  26.698  14.786
27138W        W99486  29.602  21.193  14.844
27139W        W99487  18.169   0.366   3.847
27140W        W99488  40.891  10.678   1.398
27141W        W99489  34.522  34.370   3.217
27142W        W99490  18.785  18.059   4.776
27143W        W99491  17.233   7.674   1.853
27144W        W99492  36.537  35.001  14.339
27145W        W99493  20.599  20.143  12.352
27146W        W99494  28.999  31.934  11.947
27147W        W99495  17.605  28.492  12.858
27148W        W99496   5.696  18.237  11.570
27149W        W99497  21.724  19.203   3.327
27150W        W99498  14.807  25.493   0.863
27151W        W99499  35.369   6.901   4.241
27152W        W99500  13.315  34.083   3.760
27153W        W99501  30.438  43.322  10.423
27154W        W99502   4.766  44.924   3.841
27155W        W99503  17.072  10.183   2.357
27156W        W99504   4.888  26.546   3.672
27157W        W99505   6.824   3.797  12.408
27158W        W99506  23.692  27.095   1.255
27159W        W99507   3.723  31.041  10.904
27160W        W99508  19.068  22.209   3.867
27161W        W99509  19.226   9.194   2.185
27162W        W99510  35.044   0.314   0.369
27163W        W99511  10.358  10.143   3.682
27164W        W99512  29.566  16.677   0.787
27165W        W99513   2.250  19.119   4.812
27166W        W99514  24.145  35.988  10.140
27167W        W99515  43.450   4.430   4.698
27168W        W99516  19.141   2.305   1.871
27169W        W99517  27.645  34.370  12.537
27170W        W99518  36.942   4.288   4.814
27171W        W99519   3.347  10.799  11.048
27172W        W99520  18.229  27.622   4.116
27173W        W99521  17.702  35.411   4.176
27174W        W99522  34.924  17.192  10.080
27175W        W99523  34.869  40.536   4.153
27176W        W99524  20.190  39.373   4.654
27177W        W99525  34.509  30.659  14.019
27178W        W99526  29.068  14.635   0.838
27179W        W99527   8.830  18.670   0.367
27180W        W99528  20.151  21.741   2.858
27181W        W99529  37.484  40.413   3.725
27182W        W99530  35.393  16.723  13.799
27183W        W99531  14.246  23.076  10.614
27184W        W99532  14.820  37.970  13.409
27185W        W99533  43.446  27.039  14.394
27186W        W99534  32.525  12.263   3.778
27187W        W99535  29.975  16.708   3.345
27188W        W99536  37.428   9.736  13.999
27189W        W99537  20.206   4.204  14.431
27190W        W99538   2.442  30.582   3.658
27191W        W99539  27.590   6.700   2.240
27192W        W99540  35.886  43.857  11.085
27193W        W99541  25.196  11.796   4.249
27194W        W99542  22.090  27.477  10.513
27195W        W99543  22.204  33.101   4.722
27196W        W99544  31.536  27.668   0.925
27197W        W99545   5.926   3.314  12.936
27198W        W99546   8.797  29.043   4.738
27199W        W99547   8.283  29.522  13.956
27200W        W99548  26.991  22.695   0.763
27201W        W99549   6.232  44.497   3.807
27202W        W99550   9.664  24.495   4.799
27203W        W99551  13.791  13.161   2.228
27204W        W99552  41.344  27.082  13.843
27205W        W99553  24.158  23.217   3.313
27206W        W99554  41.378  36.348   2.393
27207W        W99555  20.074   9.794   4.316
27208W        W99556  42.976  40.983  13.516
27209W        W99557  39.426   4.281   4.600
27210W        W99558  40.011   4.902   1.730
27211W        W99559  24.493  30.909   0.821
27212W        W99560   1.739  24.647  12.437
27213W        W99561  20.093  24.157  14.513
27214W        W99562  44.500  32.051   1.212
27215W        W99563  20.057  12.272   3.195
27216W        W99564  38.507  39.853  10.497
27217W        W99565  42.975   3.752   0.939
27218W        W99566  33.453  41.373   1.224
27219W        W99567  37.415   7.846   2.731
27220W        W99568   5.854  22.117   4.714
27221W        W99569  35.900   0.896   2.719
27222W        W99570   0.920  44.983  12.366
27223W        W99571   3.765  32.052   3.806
27224W        W99572  42.874   5.706  11.931
27225W        W99573  35.087  28.457  11.000
27226W        W99574  17.249  30.613   2.301
27227W        W99575  19.640  40.548  11.979
27228W        W99576   4.443  27.676   4.786
27229W        W99577  25.600  43.839  11.405
27230W        W99578  23.079  30.493  13.344
27231W        W99579  27.153   5.868  11.518
27232W        W99580   3.277  28.500  14.365
27233W        W99581   2.818   3.770   0.279
27234W        W99582  13.277   8.209   4.120
27235W        W99583  33.541  37.924   3.808
27236W        W99584  18.120   5.720  13.041
27237W        W99585   3.429  42.405  14.821
27238W        W99586  36.382   5.196  13.373
27239W        W99587  42.968  34.416   3.810
27240W        W99588  14.805  14.132  13.509
27241W        W99589  43.792  21.050   4.669
27242W        W99590  42.786  11.704  10.618
27243W        W99591   6.373  22.677   0.843
27244W        W99592  20.620  41.310   1.380
27245W        W99593  41.476  11.178  11.467
27246W        W99594  42.839  31.914   0.789
27247W        W99595  42.874  34.956   2.775
27248W        W99596  13.622   3.431  11.061
27249W        W99597  44.862  26.682  14.855
27250W        W99598  16.709   6.384   3.312
27251W        W99599   5.281  35.560   1.304
27252W        W99600  42.465  35.519  12.476
27253W        W99601  23.206  23.531  12.497
27254W        W99602  27.676  10.337   9.964
27255W        W99603  10.265  25.196  11.986
27256W        W99604  43.937   4.788   4.651
27257W        W99605  16.642  12.133  14.779
27258W        W99606  19.722  38.044  12.849
27259W        W99607  11.153  10.666  10.961
27260W        W99608  36.377  15.798  12.852
27261W        W99609  25.692  23.628   1.738
27262W        W99610  26.954   2.936  14.278
27263W        W99611  15.124  38.440  14.318
27264W        W99612  31.995  12.292  14.990
27265W        W99613  33.605  23.691  13.063
27266W        W99614   8.302  14.636  14.817
27267W        W99615  44.783   0.916  12.532
27268W        W99616  32.529  16.655   2.372
27269W        W99617   4.273  10.767   1.919
27270W        W99618  28.506  23.610  11.011
27271W        W99619  44.387  19.733   4.645
27272W        W99620  24.518  21.719   0.835
27273W        W99621  15.596   0.412  13.429
27274W        W99622   6.751  19.730   4.340
27275W        W99623  33.421  25.515   0.768
27276W        W99624  34.370   7.363  12.416
27277W        W99625  10.833   1.874   1.878
27278W        W99626  30.139  16.279  14.463
27279W        W99627   2.352  11.817   1.378
27280W        W99628  19.591  17.773   0.836
27281W        W99629   0.927  36.564  14.880
27282W        W99630   1.334  17.299  12.997
27283W        W99631  27.170  15.174  12.342
27284W        W99632  16.088  14.209  13.446
27285W        W99633  24.091  30.475   1.908
27286W        W99634  38.375   0.465  12.933
27287W        W99635  33.090  17.655   2.774
27288W        W99636  37.346   8.773   3.320
27289W        W99637  35.100  33.564  12.029
27290W        W99638  38.509   2.277   1.786
27291W        W99639   1.915  13.144   2.264
27292W        W99640  16.603   6.273   1.817
27293W        W99641  15.327  44.967  14.836
27294W        W99642  42.888  19.652  12.464
27295W        W99643   6.910   1.795  14.429
27296W        W99644  22.203  27.173   0.956
27297W        W99645  10.732  43.945   4.779
27298W        W99646  21.661  12.687  11.603
27299W        W99647  21.744  10.289   0.795
27300W        W99648  40.989  24.492  10.978
27301W        W99649   3.225   5.377   0.418
27302W        W99650  18.688   3.724  14.373
27303W        W99651   8.723  37.517   1.286
27304W        W99652  39.398  42.030   4.696
27305W        W99653  18.613  37.409  14.509
27306W        W99654  42.908  14.133   4.695
27307W        W99655  38.842  19.103  13.821
27308W        W99656  41.484   1.477   0.774
27309W        W99657  29.142  34.536   2.209
27310W        W99658  21.092  33.590  10.939
27311W        W99659  16.079  29.572   1.361
27312W        W99660  27.501  12.783  13.485
27313W        W99661  38.373  39.922   3.355
27314W        W99662  24.680  36.916   1.854
27315W        W99663  31.518  30.001  14.459
27316W        W99664   2.411  27.163   2.767
27317W        W99665   3.296  43.963  11.390
27318W        W99666   0.806  10.787   1.751
27319W        W99667   3.284  23.705  10.959
27320W        W99668  44.943  37.453   3.168
27321W        W99669  40.965  16.301   4.617
27322W        W99670  11.360  27.189  12.019
27323W        W99671   5.708  34.384   2.820
27324W        W99672  13.292  43.348   1.212
27325W        W99673  32.966   8.890  10.500
27326W        W99674  36.434  20.642  11.596
27327W        W99675  28.951  27.955   4.179
27328W        W99676   6.227  29.995   2.901
27329W        W99677  44.772  36.585  13.025
27330W        W99678  43.834  14.822   0.773
27331W        W99679  28.180   7.892  12.469
27332W        W99680  23.564  35.433  12.830
27333W        W99681  10.226   8.726   0.304
27334W        W99682  35.360  38.414  13.047
27335W        W99683  35.088  38.468   0.734
27336W        W99684  27.582   3.433   3.691
27337W        W99685  24.569  34.890   2.800
27338W        W99686   0.269   1.746   0.317
27339W        W99687   1.323  43.854   2.698
27340W        W99688   5.394  23.229  11.904
27341W        W99689  31.939   8.350   0.956
27342W        W99690  31.909   1.247  12.463
27343W        W99691   6.799  39.464  11.549
27344W        W99692   3.713  40.464  11.923
27345W        W99693  44.775  21.240   2.373
27346W        W99694  12.265  12.192   4.602
27347W        W99695   2.924  18.552   2.258
27348W        W99696   5.921  10.780   0.410
27349W        W99697  14.305   6.270  11.474
27350W        W99698   6.689  24.678   4.812
27351W        W99699  20.643   5.930  14.284
27352W        W99700  14.312  41.389   1.336
27353W        W99701   8.264   5.310   2.369
27354W        W99702  40.486  14.657   4.608
27355W        W99703   8.192  38.923  13.495
27356W        W99704  31.406   5.790  12.056
27357W        W99705   6.848  31.528  11.874
27358W        W99706  29.996  16.703  12.384
27359W        W99707  18.713  10.863  12.025
27360W        W99708  31.023  21.117   3.736
27361W        W99709  29.091  38.034   0.409
27362W        W99710   6.204   1.359   4.687
27363W        W99711  27.036  10.264   1.742
27364W        W99712  39.381   3.227   1.808
27365W        W99713  35.442   4.237   0.456
27366W        W99714  27.559  25.692   4.152
27367W        W99715  24.661   6.303   3.213
27368W        W99716  14.804  36.433  14.485
27369W        W99717  15.604  40.931   1.412
27370W        W99718   3.720   1.252  11.587
27371W        W99719  18.775  35.069  12.475
27372W        W99720  23.552   8.730   4.235
27373W        W99721  34.548   3.732  12.952
27374W        W99722   0.971  36.876  11.408
27375W        W99723  29.475  41.340   1.424
27376W        W99724  34.959   3.416   5.145
27377W        W99725   3.363  19.172  12.508
27378W        W99726  28.653  10.308  11.123
27379W        W99727   1.478  19.093  13.536
27380W        W99728  38.403  21.098   0.872
27381W        W99729  42.297  39.002  12.854
27382W        W99730  16.112  10.256   0.255
27383W        W99731  17.645  10.204  14.789
27384W        W99732  38.386  41.801   0.771
27385W        W99733  32.575  32.011   0.414
27386W        W99734  40.432   8.280  14.970
27387W        W99735  26.516  40.459   0.429
27388W        W99736  16.106  20.537  13.383
27389W        W99737  41.406  31.918  12.077
27390W        W99738  22.154   1.782  10.588
27391W        W99739  25.652  10.713  10.468
27392W        W99740  19.261  35.109   0.760
27393W        W99741   4.803  15.678   1.879
27394W        W99742  14.094  24.595   3.349
27395W        W99743  18.548  25.078  10.922
27396W        W99744  21.752  21.558  11.610
27397W        W99745  14.826  37.966  13.054
27398W        W99746   7.878  31.147   0.429
27399W        W99747  40.507  20.700  14.886
27400W        W99748  16.230  29.548  11.594
27401W        W99749   9.745  25.675   3.215
27402W        W99750   9.182  29.971   1.821
27403W        W99751   3.786  25.990  13.013
27404W        W99752  15.671  34.376   1.804
27405W        W99753   1.300  13.164  11.538
27406W        W99754  36.346  23.594  11.550
27407W        W99755   1.307  41.487  11.077
27408W        W99756   8.327  14.243   0.838
27409W        W99757  38.545  44.303   2.828
27410W        W99758  34.026  21.233   3.789
27411W        W99759  13.695  44.835  13.527
27412W        W99760  38.571  36.918  14.889
27413W        W99761  12.789   4.242  11.957
27414W        W99762   9.740  30.000   4.744
27415W        W99763  16.654  20.700   2.296
27416W        W99764  15.749  13.247  11.873
27417W        W99765   0.314  10.807   0.766
27418W        W99766  25.525  42.391   2.312
27419W        W99767  27.055  24.978   4.696
27420W        W99768  37.060  23.559   4.823
27421W        W99769   3.871   6.305  12.491
27422W        W99770  11.240  28.665  12.521
27423W        W99771  26.078   6.783   4.286
27424W        W99772  13.822  21.179  11.923
27425W        W99773  35.590   2.449   2.326
27426W        W99774  37.388  36.073   3.867
27427W        W99775  16.129  18.220   4.698
27428W        W99776  25.148  26.465   1.362
27429W        W99777   0.335   1.951  12.933
27430W        W99778  14.160  37.453  11.856
27431W        W99779  13.220  17.176  14.419
27432W        W99780   6.401  34.942   4.287
27433W        W99781  25.483  43.483   1.397
27434W        W99782  42.891   1.377  13.924
27435W        W99783  41.025   5.825  14.007
27436W        W99784  30.923  23.635   0.756
27437W        W99785   6.887  27.098  14.892
27438W        W99786  11.838   3.327  10.953
27439W        W99787  22.229   7.181  13.027
27440W        W99788   2.265  20.686  11.094
27441W        W99789  28.000   2.914  13.336
27442W        W99790  16.781  30.622  11.378
27443W        W99791   7.804   0.299  11.888
27444W        W99792  40.433  26.651  13.416
27445W        W99793  21.532   5.244  14.479
27446W        W99794   3.239   7.763   2.335
27447W        W99795  17.161  13.233  12.453
27448W        W99796  29.110  33.603  14.290
27449W        W99797  27.188  39.874  13.419
27450W        W99798  16.615  18.124   0.352
27451W        W99799  31.956  27.552   4.833
27452W        W99800  40.461   1.444  12.386
27453W        W99801  42.384  23.695  10.464
27454W        W99802  41.295   6.810  11.031
27455W        W99803  29.442  33.104  14.302
27456W        W99804   5.394   1.291   4.670
27457W        W99805  12.306   8.284  12.399
27458W        W99806  27.638  33.085   1.224
27459W        W99807  28.629  41.835   1.774
27460W        W99808   1.265  19.542  10.929
27461W        W99809  44.350  32.121  10.482
27462W        W99810   3.322  22.554  13.456
27463W        W99811   1.786  17.075  10.413
27464W        W99812  33.015  23.033  11.586
27465W        W99813  21.103  28.075  10.507
27466W        W99814  21.540  41.327   4.663
27467W        W99815   2.443  29.960  11.577
27468W        W99816  31.462   1.240   4.345
27469W        W99817  27.164  14.599  14.848
27470W        W99818  24.528  23.131   1.852
27471W        W99819   2.887  29.155  10.910
27472W        W99820  44.944  38.858  12.943
27473W        W99821  18.587  20.268   0.909
27474W        W99822  39.363  36.960  12.490
27475W        W99823  26.131  26.127   1.389
27476W        W99824  44.876  32.548   1.725
27477W        W99825   6.918  22.625   2.207
27478W        W99826  16.080   2.305   1.715
27479W        W99827   0.846  14.212  11.879
27480W        W99828  14.615  42.918   5.086
27481W        W99829   7.868   4.749  13.414
27482W        W99830  23.988   2.927   0.407
27483W        W99831   2.775  30.069  13.519
27484W        W99832  41.858  44.447  14.916
27485W        W99833  21.140  19.763  13.021
27486W        W99834  25.651  29.434  13.943
27487W        W99835  27.691  21.251   2.676
27488W        W99836  38.076   4.849   3.870
27489W        W99837  34.397   7.841   2.289
27490W        W99838  40.831  20.101   0.808
27491W        W99839  31.049  22.210  10.558
27492W        W99840  11.181   1.882  12.848
27493W        W99841  37.929  11.762  14.025
27494W        W99842  11.333  34.430  11.580
27495W        W99843   1.957  12.834   1.426
27496W        W99844  20.547  41.808  13.854
27497W        W99845   8.725   3.347   1.372
27498W        W99846   0.832  13.238  10.950
27499W        W99847   6.867  28.670  11.397
27500W        W99848  29.029  38.904   4.669
27501W        W99849  44.492  39.400  12.957
27502W        W99850  21.563  30.990  10.516
27503W        W99851  15.647  25.598  12.860
27504W        W99852  41.963  26.492  14.795
27505W        W99853  15.112  43.772  13.516
27506W        W99854  13.613   7.772  13.842
27507W        W99855  29.655  31.442   3.177
27508W        W99856  33.610  36.906  14.322
27509W        W99857  41.981  23.054  14.486
27510W        W99858  41.998  13.263  14.503
27511W        W99859  37.550   7.910  12.423
27512W        W99860  30.065   8.270  11.558
27513W        W99861  16.082  41.378   4.209
27514W        W99862   8.163  33.004   0.897
27515W        W99863  41.411  32.117   2.746
27516W        W99864  29.943  39.411   3.348
27517W        W99865  43.486   1.738   3.690
27518W        W99866   6.381  18.286   0.864
27519W        W99867  41.863   6.680   1.348
27520W        W99868  33.021  28.677  13.327
27521W        W99869  14.693  39.028  12.559
27522W        W99870  36.505  41.847   2.869
27523W        W99871  17.661   0.796  13.450
27524W        W99872  29.932  24.630   2.367
27525W        W99873   5.803  30.938   5.254
27526W        W99874  38.071   7.746   3.367
27527W        W99875  11.851  35.055  14.358
27528W        W99876  26.644  26.130   3.785
27529W        W99877   2.277  41.799   4.722
27530W        W99878  44.273   1.907  13.845
27531W        W99879  37.506  42.410   0.791
27532W        W99880  32.027   3.265  10.434
27533W        W99881   2.764  36.356   1.915
27534W        W99882  10.770  24.203  12.838
27535W        W99883   6.780  32.493   5.190
27536W        W99884  12.295  13.142   0.847
27537W        W99885  37.427  27.959   2.815
27538W        W99886  34.043  20.725   0.797
27539W        W99887  16.718  32.969  14.315
27540W        W99888   3.823  11.251   3.724
27541W        W99889  29.630  15.167  12.884
27542W        W99890  43.421  14.686  13.900
27543W        W99891  13.662  33.500   4.730
27544W        W99892   9.272  17.289  11.094
27545W        W99893   5.332   4.923  13.963
27546W        W99894  13.803  19.135  10.916
27547W        W99895   7.344  29.037   1.788
27548W        W99896  33.429   4.293   4.152
27549W        W99897  26.067  19.757  12.954
27550W        W99898  29.459  23.223   0.479
27551W        W99899  13.840   6.407  11.381
27552W        W99900   1.469  15.719   2.379
27553W        W99901  38.450  20.716  12.004
27554W        W99902  42.412   4.882  14.855
27555W        W99903   1.973  26.099  11.093
27556W        W99904  31.120  10.659  12.078
27557W        W99905  29.091  44.384  10.074
27558W        W99906   5.292  13.266   3.206
27559W        W99907  30.130  17.196   0.807
27560W        W99908  36.923  24.054  11.517
27561W        W99909  17.091  28.607  11.548
27562W        W99910  11.775  22.008   0.436
27563W        W99911   0.787   8.330  11.577
27564W        W99912  36.989  31.440   2.242
27565W        W99913  38.536  31.983   5.135
27566W        W99914  40.972  42.310  14.898
27567W        W99915   0.490  37.904  14.855
27568W        W99916  17.072  32.418   2.250
27569W        W99917  41.448  25.491  10.493
27570W        W99918   4.230  32.974   2.323
27571W        W99919   6.278  22.250  11.469
27572W        W99920  32.060   7.291   1.213
27573W        W99921  32.456   2.443  10.580
27574W        W99922   1.845  34.967  10.494
27575W        W99923  18.144  10.325  11.565
27576W        W99924  22.594   6.368  11.928
27577W        W99925  36.399   3.264   1.387
27578W        W99926  37.933  10.761   2.900
27579W        W99927   7.869  39.393  12.965
27580W        W99928  37.002  31.407  10.915
27581W        W99929  15.664  37.405  14.293
27582W        W99930  24.614  30.551  10.907
27583W        W99931  30.565  43.371  14.279
27584W        W99932  27.462  26.618  14.832
27585W        W99933   8.166  31.948  11.595
27586W        W99934   0.363  35.562   0.372
27587W        W99935  15.791   4.938   1.377
27588W        W99936  18.107  31.405   2.737
27589W        W99937   7.212   8.699  10.590
27590W        W99938  19.083  28.967  10.502
27591W        W99939  39.951  23.685   3.247
27592W        W99940  37.084   7.872  11.087
27593W        W99941   4.352   8.744   2.694
27594W        W99942  35.071  29.460   3.232
27595W        W99943  29.977  42.025   0.921
27596W        W99944  11.737  38.461   1.826
27597W        W99945  22.625  10.189   2.253
27598W        W99946  26.953  30.608  14.279
27599W        W99947  31.946  31.016  10.558
27600W        W99948   0.839  21.643  13.458
27601W        W99949  35.897  31.404  12.503
27602W        W99950  17.798  23.525  13.318
27603W        W99951  13.776  35.575   2.731
27604W        W99952   5.873  41.523  14.779
27605W        W99953  22.517  13.252  14.312
27606W        W99954  41.348   3.457   1.406
27607W        W99955  35.584  43.868  13.871
27608W        W99956   0.819  17.145   4.349
27609W        W99957   4.441  42.322   0.953
27610W        W99958  16.644  23.527  11.387
27611W        W99959  44.420  28.998  12.458
27612W        W99960  23.575  32.472  14.759
27613W        W99961  39.036   4.257   4.338
27614W        W99962  19.068  12.290  11.414
27615W        W99963  24.113   9.315   3.179
27616W        W99964  11.865  44.330   0.815
27617W        W99965  24.582   8.885  12.942
27618W        W99966  32.536  41.847   2.340
27619W        W99967  32.970  19.050   2.374
27620W        W99968   2.367  25.206  10.955
27621W        W99969   9.168  38.868  14.851
27622W        W99970  37.498  10.178  10.939
27623W        W99971  43.868   0.430   0.450
27624W        W99972   2.277  40.815   1.408
27625W        W99973  39.836  35.909   2.896
27626W        W99974  15.634  30.988  12.967
27627W        W99975  11.315  44.880  14.886
27628W        W99976  17.082   5.892  11.449
27629W        W99977  28.180   5.358  12.843
27630W        W99978   2.890  31.919   5.287
27631W        W99979  15.257  39.387   0.889
27632W        W99980   5.752  40.455  12.840
27633W        W99981   8.235  36.904   4.681
27634W        W99982  28.436  34.921   3.708
27635W        W99983  26.090  41.415  11.913
27636W        W99984  12.222   7.811  11.099
27637W        W99985  35.587  44.009  10.464
27638W        W99986  18.732  29.571  11.940
27639W        W99987  18.077  28.028  13.793
27640W        W99988  30.424  28.031  11.986
27641W        W99989  23.004  24.516   0.438
27642W        W99990  35.455   6.319   1.823
27643W        W99991  12.131  12.255   0.464
27644W        W99992   6.899  35.909  10.524
27645W        W99993  35.458  43.819  11.867
27646W        W99994   4.447  35.586  12.010
27647W        W99995  19.765  18.058   1.234
27648W        W99996   4.776  37.864   1.374
27649W        W99997  37.957  28.032   1.368
27650W        W99998  42.480  39.953  11.382
27651W        W99999  13.244  22.040   2.673
27652W        W    0  14.182  14.132  11.413
27653W        W    1  26.028   4.880  10.929
27654W        W    2  42.959  21.139   4.218
27655W        W    3  34.119  12.198  12.387
27656W        W    4  38.364  29.114  12.347
27657W        W    5  41.420  35.397  14.882
27658W        W    6  22.077   1.860  13.816
27659W        W    7  22.531  31.031   3.685
27660W        W    8  42.520  17.208   0.808
27661W        W    9  14.650  37.853   1.285
27662W        W   10  22.573  26.160  10.969
27663W        W   11   3.781  12.812  12.508
27664W        W   12  16.193   8.820  12.999
27665W        W   13  44.824  17.268   0.325
27666W        W   14  32.033  18.291  14.411
27667W        W   15  41.301   0.748  13.934
27668W        W   16  19.283  34.537  11.425
27669W        W   17   7.193  13.771  11.475
27670W        W   18  38.011  42.968  13.911
27671W        W   19  34.034  34.494  13.901
27672W        W   20  35.988  40.037   2.726
27673W        W   21   4.811   0.424   0.807
27674W        W   22  19.701  15.285  11.102
27675W        W   23  11.638  37.374   5.087
27676W        W   24   7.672  39.837   4.197
27677W        W   25   3.772  28.105  13.373
27678W        W   26  42.791  42.453  11.091
27679W        W   27  41.300  30.641   0.928
27680W        W   28  42.980  23.035  12.894
27681W        W   29  34.117   5.726  14.954
27682W        W   30   1.417   4.445  13.882
27683W        W   31  44.922  24.992  13.937
27684W        W   32   9.772   2.873  14.998
27685W        W   33  12.767  26.048   3.631
27686W        W   34  38.391   5.757   1.354
27687W        W   35  32.557   1.883  10.907
27688W        W   36  32.060  17.749   2.752
27689W        W   37  26.497  10.635  14.358
27690W        W   38  17.100   5.850   2.277
27691W        W   39  19.617  19.216   0.386
27692W        W   40   2.769  41.842  12.418
27693W        W   41  18.243   9.735   2.257
27694W        W   42  20.707  17.606   3.228
27695W        W   43  11.740  28.063  13.815
27696W        W   44  43.939   5.282  12.079
27697W        W   45   5.359  16.103  12.877
27698W        W   46  42.310   0.970   1.381
27699W        W   47   1.790  35.010   3.365
27700W        W   48   2.736  42.432  14.806
27701W        W   49  42.499  34.383   3.168
27702W        W   50  35.875  10.827  10.603
27703W        W   51  30.112  14.833   0.263
27704W        W   52  23.557  28.561   1.770
27705W        W   53  13.242  11.287  13.894
27706W        W   54  16.578  14.601  14.024
27707W        W   55   0.889  38.511   0.417
27708W        W   56   6.367  19.144   0.774
27709W        W   57  25.006  31.404  14.322
27710W        W   58  24.625   5.795   4.255
27711W        W   59  15.099  18.671  14.818
27712W        W   60  17.143  39.317  11.104
27713W        W   61  30.459  36.522   1.235
27714W        W   62  24.509   3.782  10.973
27715W        W   63  10.713  32.985   0.359
27716W        W   64   5.704  14.709  13.962
27717W        W   65   3.719  25.081   1.741
27718W        W   66  26.605  34.025   4.604
27719W        W   67   3.437  35.437   2.349
27720W        W   68  26.556  31.453  10.535
27721W        W   69   4.284  38.442  14.858
27722W        W   70  10.264   1.767  10.015
27723W        W   71  23.650  40.956  12.935
27724W        W   72  11.631  15.224   2.298
27725W        W   73  27.584  22.034   2.412
27726W        W   74   4.413  43.431   0.473
27727W        W   75   5.811  33.427   4.749
27728W        W   76  41.365   8.687   3.845
27729W        W   77  28.148  40.813  11.412
27730W        W   78  29.024  24.181  11.595
27731W        W   79  11.663  21.059   3.857
27732W        W   80   1.352  35.049   2.373
27733W        W   81  13.276  28.125   0.323
27734W        W   82  36.000  40.404  10.511
27735W        W   83  23.667  27.182   3.836
27736W        W   84   1.340  27.089  14.888
27737W        W   85  23.633  29.936  12.541
27738W        W   86   6.777  10.810  12.980
27739W        W   87  12.679  21.660   4.149
27740W        W   88   5.730  19.196   3.340
27741W        W   89   0.348  15.742  10.463
27742W        W   90  42.850  20.248  11.453
27743W        W   91  25.690  10.878  10.895
27744W        W   92   3.291  26.002  11.573
27745W        W   93  29.935  15.231  12.542
27746W        W   94   6.677  42.372   2.265
27747W        W   95  14.251  37.404   5.205
27748W        W   96  36.851  19.547   2.258
27749W        W   97  14.225  40.368  14.405
27750W        W   98   0.445   0.482   1.347
27751W        W   99  10.788   9.696  14.030
27752W        W  100  29.983  28.449   2.181
27753W        W  101  42.334  33.493  11.480
27754W        W  102  41.470  22.510   3.330
27755W        W  103   2.440  14.163   0.299
27756W        W  104   6.310  10.809   4.757
27757W        W  105  18.605  33.535   4.715
27758W        W  106  12.712  17.123  14.510
27759W        W  107   1.422  17.668  10.978
27760W        W  108   7.751  43.984   0.287
27761W        W  109  13.733  28.600  13.536
27762W        W  110   9.191  28.053   4.760
27763W        W  111   0.829  28.966  11.969
27764W        W  112  39.012  18.056  11.114
27765W        W  113  13.326  42.361   4.603
27766W        W  114  19.620   7.260  11.102
27767W        W  115  22.700  22.530  14.463
27768W        W  116  38.544  22.010   3.178
27769W        W  117  18.164  34.372   0.799
27770W        W  118   7.815   7.883   1.262
27771W        W  119   0.906   4.278   4.635
27772W        W  120  26.475   2.797  12.044
27773W        W  121  19.066  37.376   1.328
27774W        W  122  19.154  21.635  13.537
27775W        W  123  26.954  28.060  12.417
27776W        W  124  44.340  11.809   0.354
27777W        W  125  19.679  25.126   3.315
27778W        W  126  22.122  19.277  10.434
27779W        W  127   4.878  44.374  12.440
27780W        W  128  13.298  11.743   4.284
27781W        W  129  14.229  29.057   1.346
27782W        W  130   5.376  44.493  10.150
27783W        W  131   5.723  22.606   2.767
27784W        W  132  24.576   8.711  10.567
27785W        W  133  36.477  31.989  12.991
27786W        W  134  15.637   6.359  12.382
27787W        W  135  42.294  16.242  11.405
27788W        W  136   5.196  34.599   0.475
27789W        W  137  42.319   0.305  11.017
27790W        W  138  44.850  21.095   3.798
27791W        W  139  42.847  22.088  12.515
27792W        W  140   2.835  15.733   2.700
27793W        W  141  13.147  36.430   1.333
27794W        W  142  15.263  20.727   2.378
27795W        W  143  11.742  19.140   2.358
27796W        W  144  37.078   5.818  12.937
27797W        W  145   2.876  15.147   4.788
27798W        W  146  26.518  35.064  14.930
27799W        W  147  36.960  43.442  13.023
27800W        W  148  28.543  31.431  12.381
27801W        W  149   7.676   0.322   0.281
27802W        W  150   1.806  20.154   4.684
27803W        W  151  16.683   4.314  13.806
27804W        W  152   5.343  13.283   4.735
27805W        W  153  16.302  40.392   0.354
27806W        W  154  33.569  30.433  14.496
27807W        W  155  17.169  36.365   3.330
27808W        W  156  33.490   3.350   3.354
27809W        W  157  13.699  18.075  14.899
27810W        W  158  17.255  36.488   0.956
27811W        W  159  29.013   2.410   1.424
27812W        W  160  12.333  26.575  12.492
27813W        W  161  18.075  36.444   0.785
27814W        W  162  23.033  43.421  12.921
27815W        W  163   5.872  11.304  13.452
27816W        W  164  10.633   3.912  11.945
27817W        W  165  21.514  27.189  10.898
27818W        W  166  14.607  33.414   4.679
27819W        W  167  13.289  15.690   0.795
27820W        W  168  28.005  42.994   0.902
27821W        W  169  29.105  13.775  14.468
27822W        W  170  21.656  29.430  12.431
27823W        W  171   0.268  17.650  10.898
27824W        W  172  39.904   2.876   4.206
27825W        W  173  40.393  19.751  10.075
27826W        W  174  11.688  32.113   5.150
27827W        W  175  17.284   8.331  10.452
27828W        W  176   5.410  37.390   2.197
27829W        W  177  27.560  10.210   2.832
27830W        W  178  15.632  37.336   4.604
27831W        W  179  15.302  40.492  12.860
27832W        W  180  25.084  20.593  14.286
27833W        W  181  13.773  20.627  14.463
27834W        W  182  30.048  29.534  12.549
27835W        W  183  42.419  23.223   3.694
27836W        W  184   9.727  16.676  10.611
27837W        W  185  29.074  32.574  10.543
27838W        W  186  41.311  37.462  11.980
27839W        W  187  22.192  40.911   4.291
27840W        W  188  44.431  11.633  14.767
27841W        W  189  40.039   7.688  11.110
27842W        W  190  43.425  38.062  13.349
27843W        W  191  34.903  18.216   1.338
27844W        W  192  37.008  18.675  12.856
27845W        W  193  11.163  16.284   1.900
27846W        W  194  18.674  25.705  12.087
27847W        W  195  35.568  39.982   2.337
27848W        W  196  27.573  13.262  10.506
27849W        W  197  27.028  28.036   4.692
27850W        W  198   1.341   1.939  10.491
27851W        W  199  18.141  29.426   5.679
27852W        W  200  22.121  32.003  14.855
27853W        W  201  30.137  43.875   4.249
27854W        W  202  19.537  13.644  12.376
27855W        W  203  29.563   8.337   1.376
27856W        W  204   7.815  28.640  10.507
27857W        W  205   4.792  29.649   4.120
27858W        W  206  18.075   4.291  11.972
27859W        W  207  37.460  13.157   5.290
27860W        W  208  24.535  32.014   0.409
27861W        W  209  18.774  19.123  14.927
27862W        W  210  29.562   2.439  13.425
27863W        W  211  23.190  35.030   0.821
27864W        W  212  17.629  24.587   3.747
27865W        W  213  14.735  28.587  11.114
27866W        W  214  19.757  42.329  11.982
27867W        W  215   9.265  24.491   3.826
27868W        W  216  26.994  25.011   3.224
27869W        W  217  27.579  20.573  14.437
27870W        W  218  27.006  33.947  11.951
27871W        W  219  34.591   8.896  14.893
27872W        W  220  18.624  24.199   0.270
27873W        W  221  41.362  28.016  11.042
27874W        W  222  38.995   2.828  14.286
27875W        W  223  34.542  15.158  14.000
27876W        W  224  11.852  26.505  12.551
27877W        W  225  21.720  34.966  10.930
27878W        W  226  15.121   4.230   0.349
27879W        W  227  43.463  20.111   4.789
27880W        W  228  10.210  37.903   4.321
27881W        W  229  13.757  21.110   1.252
27882W        W  230  37.467   4.910  13.972
27883W        W  231  17.769   6.833  13.006
27884W        W  232  37.542  13.234   0.901
27885W        W  233  21.655  20.615   1.757
27886W        W  234   5.855  17.584   1.758
27887W        W  235   3.757  32.054  14.797
27888W        W  236   2.746   4.227  11.611
27889W        W  237  16.737   5.709  10.519
27890W        W  238  30.508  41.030   2.848
27891W        W  239   9.726  40.817  12.942
27892W        W  240   4.922   8.363   4.332
27893W        W  241   8.311  26.458  11.957
27894W        W  242  24.657  37.011   0.450
27895W        W  243  22.007   0.255   1.735
27896W        W  244  39.822  36.020   0.384
27897W        W  245  40.888  22.710   2.899
27898W        W  246  35.524  27.656  12.841
27899W        W  247  18.544  24.124  11.044
27900W        W  248   6.818  18.099   3.718
27901W        W  249  30.415  15.727  12.517
27902W        W  250  18.606  22.216  11.481
27903W        W  251   4.757   7.279  11.880
27904W        W  252  22.548   2.889   3.274
27905W        W  253  37.528   7.847   1.816
27906W        W  254   0.353  44.274  13.805
27907W        W  255  13.713  23.618   1.402
27908W        W  256  13.643  27.943  12.436
27909W        W  257   3.453  17.272  11.006
27910W        W  258  32.442  19.710  13.474
27911W        W  259  35.911  21.754   0.283
27912W        W  260  20.579  31.056   4.256
27913W        W  261  32.629  40.043  12.382
27914W        W  262  41.349  19.240  11.400
27915W        W  263   6.326  13.806   3.246
27916W        W  264  27.975   5.338   2.379
27917W        W  265  26.176  44.770  10.532
27918W        W  266  32.132  15.155  10.985
27919W        W  267  22.679  26.598  14.388
27920W        W  268  36.066  14.647  13.899
27921W        W  269  20.711  40.530  13.527
27922W        W  270  40.393  15.190   1.450
27923W        W  271  38.951   5.371   1.850
27924W        W  272  18.711  36.985  14.987
27925W        W  273  19.087  10.220  12.571
27926W        W  274  16.688  14.323   4.759
27927W        W  275   6.855   8.350   4.804
27928W        W  276  29.113   4.784   2.701
27929W        W  277  37.365  12.258   2.698
27930W        W  278  16.588  30.112   4.664
27931W        W  279  13.766  20.584  13.525
27932W        W  280  29.987  42.823  14.823
27933W        W  281   3.246  21.667  14.015
27934W        W  282  17.648  37.004   0.297
27935W        W  283  26.594  38.973   1.283
27936W        W  284  43.516  12.819  13.354
27937W        W  285   3.234  14.291  10.903
27938W        W  286  13.764   7.349  14.352
27939W        W  287  28.497  37.946  14.511
27940W        W  288  31.546   3.240   2.763
27941W        W  289  32.533  19.168   3.349
27942W        W  290  19.601  32.476   2.811
27943W        W  291   0.770  17.752  10.628
27944W        W  292  12.658  10.267   0.779
27945W        W  293  22.691   8.378  12.051
27946W        W  294  12.666   4.440  10.044
27947W        W  295   1.352  11.353  10.944
27948W        W  296  26.209  38.436   1.766
27949W        W  297  14.132  11.853   1.759
27950W        W  298   3.813  33.431  12.539
27951W        W  299   8.306  29.593  11.995
27952W        W  300  15.198   4.399   4.737
27953W        W  301  28.618  31.113  11.528
27954W        W  302  22.724  25.001  11.113
27955W        W  303  37.533  20.610   0.958
27956W        W  304  39.847   7.785   4.313
27957W        W  305   7.834  22.070   3.259
27958W        W  306  13.334   1.802   0.802
27959W        W  307  31.576  20.661   1.810
27960W        W  308   8.862  42.966  10.100
27961W        W  309   3.447   4.402   1.836
27962W        W  310  13.225   0.337   3.285
27963W        W  311  43.322  41.345   0.275
27964W        W  312  26.549   7.395   1.328
27965W        W  313   4.257  40.052   2.684
27966W        W  314  44.909  44.411  11.401
27967W        W  315  41.890  10.877  14.827
27968W        W  316  22.231  37.019  14.399
27969W        W  317   7.902  38.894  11.053
27970W        W  318   9.178  11.786  10.417
27971W        W  319  10.330   1.318   1.849
27972W        W  320  21.549  20.037  14.313
27973W        W  321  38.878  23.088  13.884
27974W        W  322  33.467  10.332  14.931
27975W        W  323  27.162  11.353  12.361
27976W        W  324  28.968  32.452   2.189
27977W        W  325  43.898  27.671  13.452
27978W        W  326  32.118   4.845  11.610
27979W        W  327   2.231  33.388   5.139
27980W        W  328  28.539  10.192  12.868
27981W        W  329  41.878  11.861  13.951
27982W        W  330   6.405  28.570   2.783
27983W        W  331  24.084  25.540   1.230
27984W        W  332  15.644   8.754  10.535
27985W        W  333   4.426  10.271   0.886
27986W        W  334  43.788  25.177  10.952
27987W        W  335  33.894   8.832  10.931
27988W        W  336  34.605   2.309   0.921
27989W        W  337  32.509  13.741  14.419
27990W        W  338  30.036  25.047  14.444
27991W        W  339  12.323  20.177   1.762
27992W        W  340  19.551   5.881  14.390
27993W        W  341  39.966  27.597   4.264
27994W        W  342  26.975  35.882   1.344
27995W        W  343   2.885  25.596   2.318
27996W        W  344  44.380  18.143   3.865
27997W        W  345  41.452   9.204  13.039
27998W        W  346   6.768  20.635  11.409
27999W        W  347  27.607  13.648  14.358
28000W        W  348  17.667  12.693  12.896
28001W        W  349   5.270  26.193  10.960
28002W        W  350  17.738   6.792  10.911
28003W        W  351   5.208   4.445   3.206
28004W        W  352  36.926  18.716  11.049
28005W        W  353   0.341  26.020   4.203
28006W        W  354  42.928  22.081   0.849
28007W        W  355  12.815  12.817   4.667
28008W        W  356  41.013  22.243   2.892
28009W        W  357   3.372  19.777  13.480
28010W        W  358  40.926  29.520   2.267
28011W        W  359  33.978  18.760  11.459
28012W        W  360  21.517  42.849   3.797
28013W        W  361   1.299  13.168  11.089
28014W        W  362  42.301  14.319  10.905
28015W        W  363  11.792  14.321   0.860
28016W        W  364  34.961  25.055  14.793
28017W        W  365  41.876  21.184  13.053
28018W        W  366  29.493  28.155   9.944
28019W        W  367  21.050  16.649   4.331
28020W        W  368  24.664  15.264   4.743
28021W        W  369  37.930  22.034   3.852
28022W        W  370   5.223  40.882  10.564
28023W        W  371  41.998  43.923  11.092
28024W        W  372  28.143  44.952   4.692
28025W        W  373  34.996  31.410   2.897
28026W        W  374   3.715   3.939  13.058
28027W        W  375  31.513  19.622  13.864
28028W        W  376  28.992  42.335   2.240
28029W        W  377  21.634  17.620   0.378
28030W        W  378  28.929  28.670  13.830
28031W        W  379  35.943  41.020  11.552
28032W        W  380  24.597  10.679  10.478
28033W        W  381  30.154  30.127   1.702
28034W        W  382  21.175  32.918  10.404
28035W        W  383  44.365   8.292  11.504
28036W        W  384   8.183  19.773   1.306
28037W        W  385   0.771  17.073   9.998
28038W        W  386  12.766  11.821   2.779
28039W        W  387   9.875   3.454  10.905
28040W        W  388  38.393  38.514  13.884
28041W        W  389  40.885  35.898   1.273
28042W        W  390  21.640  14.607  12.958
28043W        W  391  31.543  43.328  12.035
28044W        W  392  18.189  21.522   2.890
28045W        W  393  42.016  13.741   1.732
28046W        W  394  43.400  37.489   0.875
28047W        W  395  19.270  36.558  12.999
28048W        W  396  40.824  40.817   2.883
28049W        W  397   4.274   7.323  13.483
28050W        W  398  34.918  21.043   0.761
28051W        W  399  28.013  39.538  12.515
28052W        W  400  43.401  33.504   1.261
28053W        W  401  29.174  20.680  10.910
28054W        W  402  33.950  16.097  14.883
28055W        W  403  26.660  11.845   0.352
28056W        W  404  41.349   0.477   2.229
28057W        W  405  18.294  13.216  14.820
28058W        W  406  16.242  10.782   0.732
28059W        W  407  36.050  18.760   3.268
28060W        W  408  41.302  33.072   1.705
28061W        W  409   2.928  38.395  11.473
28062W        W  410  33.505  32.999   1.837
28063W        W  411  21.166  37.939  14.913
28064W        W  412  31.475  23.197  10.899
28065W        W  413  15.193  28.468   4.257
28066W        W  414   1.402  31.528   0.881
28067W        W  415  16.168   5.226  14.776
28068W        W  416  10.794  33.917  14.351
28069W        W  417  12.730  36.442  14.500
28070W        W  418  39.373  31.406  13.928
28071W        W  419  22.008  41.337  13.394
28072W        W  420  15.768  37.844   2.348
28073W        W  421  25.080  38.366  10.449
28074W        W  422  33.909  27.642  10.973
28075W        W  423   5.400  40.856   2.822
28076W        W  424  41.473  16.705  11.873
28077W        W  425  42.806  12.255  12.396
28078W        W  426  10.670  31.445  14.950
28079W        W  427  32.424  30.045  10.966
28080W        W  428   7.336  37.465  13.431
28081W        W  429  25.135   1.916  14.305
28082W        W  430  12.327   8.854  14.008
28083W        W  431  17.576  34.992  13.307
28084W        W  432  25.188  12.284   2.801
28085W        W  433  10.214   5.774   4.198
28086W        W  434  19.753  36.037   3.853
28087W        W  435  30.518  33.886   0.477
28088W        W  436  21.651  34.557   1.289
28089W        W  437  22.159   6.806   2.192
28090W        W  438   8.662  40.329   0.881
28091W        W  439  43.958  43.827   0.369
28092W        W  440   6.338  36.028  14.356
28093W        W  441  29.069  18.772  14.438
28094W        W  442   2.315   2.430  11.391
28095W        W  443   3.273  13.204  12.041
28096W        W  444   5.693  42.913   1.326
28097W        W  445   9.162  23.019  11.994
28098W        W  446  21.169  17.252   3.801
28099W        W  447  40.959  36.441   4.224
28100W        W  448  36.534  39.940  14.973
28101W        W  449  15.806   2.773   0.885
28102W        W  450  12.183   0.352  10.999
28103W        W  451  23.192  41.949  13.989
28104W        W  452  21.183  32.048   2.239
28105W        W  453  16.794  35.379  14.811
28106W        W  454   8.227  24.023  11.009
28107W        W  455  16.313  18.652   3.186
28108W        W  456   4.909  31.456   1.797
28109W        W  457  28.648   5.861  14.491
28110W        W  458  19.055  17.300  12.481
28111W        W  459  23.189  13.314  10.455
28112W        W  460  15.733  44.867   2.668
28113W        W  461  18.227  28.994  12.929
28114W        W  462  36.587  29.548  13.528
28115W        W  463   9.654  39.902   1.834
28116W        W  464   9.301  17.577   3.727
28117W        W  465  12.215   3.728   9.661
28118W        W  466  39.914  22.038  12.095
28119W        W  467  43.453  10.670   1.299
28120W        W  468  30.508  18.628  11.003
28121W        W  469   0.442  34.574   0.831
28122W        W  470   0.285   8.827  13.011
28123W        W  471  21.582  30.651   4.198
28124W        W  472  36.403   5.900  13.840
28125W        W  473  12.337  25.976   3.216
28126W        W  474  35.999  12.708   2.360
28127W        W  475  23.622  39.525  13.946
28128W        W  476  33.436  19.552  12.552
28129W        W  477  36.868   4.210  10.585
28130W        W  478  13.784  29.074   3.268
28131W        W  479  22.580  12.336  12.096
28132W        W  480  10.246  40.492  13.360
28133W        W  481  25.978  33.116   3.154
28134W        W  482  30.587   8.696  14.770
28135W        W  483  20.707   8.758   4.749
28136W        W  484  11.654  20.117  11.436
28137W        W  485  36.377   1.789   2.780
28138W        W  486   7.373  32.070   4.784
28139W        W  487  40.360  24.636  14.896
28140W        W  488  31.020   8.280   3.694
28141W        W  489  25.669  23.528   2.213
28142W        W  490  23.685  11.263  12.547
28143W        W  491  30.537  34.091  13.843
28144W        W  492  18.754   7.177  12.437
28145W        W  493  11.635   2.335   1.414
28146W        W  494  19.545   8.287   3.733
28147W        W  495  16.757  12.253  11.565
28148W        W  496   4.767  42.292   2.400
28149W        W  497  37.496  29.441  11.042
28150W        W  498  25.712  21.535  13.368
28151W        W  499  26.576  32.912   0.245
28152W        W  500   3.808  14.662  14.771
28153W        W  501  13.228   9.183  10.954
28154W        W  502  21.031  36.452  12.017
28155W        W  503   9.812  16.119  10.932
28156W        W  504  28.155  42.296  10.511
28157W        W  505  43.395  19.262  14.892
28158W        W  506   3.264   3.416  13.795
28159W        W  507  13.789   8.675   1.703
28160W        W  508  10.167   7.889   3.662
28161W        W  509  28.650  12.691  11.894
28162W        W  510  12.733  18.245   4.175
28163W        W  511  37.429   9.168  11.091
28164W        W  512   1.952  14.322  11.115
28165W        W  513  26.661  40.411  11.574
28166W        W  514  32.592  21.195   4.338
28167W        W  515   3.802  25.490   1.711
28168W        W  516   8.404  10.637  12.931
28169W        W  517   8.352  15.622  10.084
28170W        W  518  32.600  20.608   4.329
28171W        W  519  44.001  13.157  10.564
28172W        W  520  42.852   1.797  13.949
28173W        W  521  39.329   6.690   1.801
28174W        W  522  35.929  23.664  12.861
28175W        W  523  34.005  43.412  12.367
28176W        W  524   5.816  16.699  13.435
28177W        W  525   1.288   2.909   0.749
28178W        W  526   6.322  43.414  13.324
28179W        W  527  12.788   0.492   3.348
28180W        W  528  40.433  20.559   0.937
28181W        W  529  41.509  19.571   3.822
28182W        W  530  16.096   7.706   2.786
28183W        W  531  17.105  44.005  10.592
28184W        W  532   5.373  18.240  14.985
28185W        W  533  27.667  29.528  14.799
28186W        W  534  18.182   9.168   2.327
28187W        W  535   4.799  38.392   0.743
28188W        W  536  26.503  40.354   4.214
28189W        W  537   0.978  42.335  13.497
28190W        W  538  37.554  40.873  12.438
28191W        W  539  30.955   7.289   0.297
28192W        W  540  27.109  23.679  13.334
28193W        W  541  28.934  17.176  12.042
28194W        W  542  31.063  21.703  14.298
28195W        W  543  21.142  14.593  14.376
28196W        W  544  24.142  32.514   0.254
28197W        W  545  11.333   0.820  14.767
28198W        W  546  26.693  25.562  11.390
28199W        W  547  35.579   2.877  13.351
28200W        W  548  21.138   1.442  14.319
28201W        W  549  44.873  13.126   4.340
28202W        W  550  27.943  13.168  10.919
28203W        W  551  26.166   4.771  14.990
28204W        W  552  34.556  41.419   4.813
28205W        W  553   5.799  22.175   0.755
28206W        W  554  23.495   2.894  11.112
28207W        W  555  34.994  21.612   1.811
28208W        W  556  25.509  34.381   4.616
28209W        W  557  28.551  30.639  12.421
28210W        W  558  31.125   7.173   0.768
28211W        W  559  35.529  24.996   3.834
28212W        W  560  32.461  23.679   1.351
28213W        W  561  15.592  34.476  12.898
28214W        W  562  11.789  32.931  12.882
28215W        W  563  10.196  23.188  11.477
28216W        W  564  42.864  12.228  13.393
28217W        W  565  25.144   5.357   0.453
28218W        W  566  20.149  24.643   0.472
28219W        W  567  11.792  11.624   1.291
28220W        W  568   9.325  15.146   0.418
28221W        W  569  20.602  23.572   1.804
28222W        W  570   8.342  13.820  14.284
28223W        W  571   0.456  37.542   3.845
28224W        W  572  33.425   3.445   1.368
28225W        W  573  42.418  28.533   3.771
28226W        W  574  34.491   7.796  12.869
28227W        W  575   4.378  11.167  10.595
28228W        W  576   5.195  17.216   0.909
28229W        W  577  31.615  32.401   1.807
28230W        W  578   3.241  24.067  11.107
28231W        W  579  17.263  12.731   0.888
28232W        W  580   3.827  15.166   4.207
28233W        W  581   3.376  25.585   3.804
28234W        W  582  23.587  37.562  14.404
28235W        W  583  36.484  41.537   1.358
28236W        W  584   0.437   8.201  14.302
28237W        W  585  31.947  13.711   1.219
28238W        W  586  33.397  19.733   2.703
28239W        W  587  14.809  11.680  10.996
28240W        W  588   6.313  18.766  11.953
28241W        W  589  24.583   1.397   0.362
28242W        W  590  40.524  34.595  10.421
28243W        W  591  12.779   3.857   4.193
28244W        W  592  35.073  13.721   4.222
28245W        W  593  16.801   2.870   4.708
28246W        W  594  11.763  32.394   2.850
28247W        W  595  29.593  14.784  12.530
28248W        W  596  34.529   6.684   3.830
28249W        W  597  14.673  41.815   3.787
28250W        W  598   7.384  11.861   2.803
28251W        W  599  15.661  19.234  12.948
28252W        W  600  34.063   8.238  13.452
28253W        W  601  12.188  15.754   4.194
28254W        W  602  11.225  36.937  12.500
28255W        W  603  26.956  30.097   4.818
28256W        W  604   3.910  14.745  11.858
28257W        W  605  32.954  39.015  10.592
28258W        W  606  25.008  18.778  12.889
28259W        W  607  30.025  27.987   3.163
28260W        W  608  16.629  16.265  11.967
28261W        W  609  26.082   5.815   3.317
28262W        W  610  25.088  34.962  14.480
28263W        W  611  38.044  35.533   0.794
28264W        W  612  27.987  40.901   2.259
28265W        W  613  33.899   4.310   1.292
28266W        W  614  40.800  39.391  11.562
28267W        W  615  18.648   1.390   1.277
28268W        W  616  30.488   0.954  12.522
28269W        W  617  11.287   4.777   0.862
28270W        W  618  14.212  17.594   2.783
28271W        W  619  44.948  30.154  14.481
28272W        W  620  18.627   8.659  11.010
28273W        W  621  41.935  23.559   3.193
28274W        W  622  12.834  32.604   0.856
28275W        W  623  11.795  44.283  12.475
28276W        W  624  21.154  15.289  11.987
28277W        W  625  31.078   4.875   2.289
28278W        W  626  27.025  19.222  11.529
28279W        W  627  16.262  29.129  12.082
28280W        W  628   7.808   2.848   4.237
28281W        W  629  42.882  42.460  14.781
28282W        W  630  17.236  31.996  11.991
28283W        W  631  28.645  32.955  14.360
28284W        W  632  24.524  12.731   0.453
28285W        W  633  39.346  18.647   4.297
28286W        W  634  26.094   5.300   3.635
28287W        W  635   9.677   6.702  11.861
28288W        W  636  23.208   2.731   4.214
28289W        W  637  19.726   4.728   4.676
28290W        W  638  26.190   9.810  13.393
28291W        W  639  17.733  42.976   0.289
28292W        W  640  34.609   9.843   4.792
28293W        W  641  31.046  36.418   3.231
28294W        W  642  38.420   0.360  12.513
28295W        W  643  22.097  33.395  13.443
28296W        W  644  28.119  23.016  11.954
28297W        W  645  19.233  41.375   2.812
28298W        W  646  25.713  37.399   0.909
28299W        W  647  42.361  41.956   0.913
28300W        W  648   9.845   2.749  13.310
28301W        W  649  25.968  11.274  14.867
28302W        W  650  20.107  41.914   2.798
28303W        W  651  37.346   6.750  13.424
28304W        W  652   2.962   7.227  13.820
28305W        W  653  25.587   3.847   1.855
28306W        W  654   2.354  42.800  14.764
28307W        W  655  31.413   3.939  10.471
28308W        W  656   0.949  34.930  11.953
28309W        W  657  33.577  17.186   3.295
28310W        W  658  41.947  12.761  13.030
28311W        W  659  37.493  43.290   2.798
28312W        W  660  23.731  29.030   4.687
28313W        W  661  27.091  44.993  11.553
28314W        W  662  32.499  42.372   0.267
28315W        W  663  11.371  44.290   9.952
28316W        W  664   6.819  35.498   1.313
28317W        W  665  16.782  28.434   1.753
28318W        W  666  34.020  30.496  11.571
28319W        W  667  23.686  10.372  10.059
28320W        W  668  18.122  10.654   3.189
28321W        W  669  13.742  36.370  14.367
28322W        W  670   6.261  29.119  14.955
28323W        W  671  34.066  17.151  13.006
28324W        W  672  14.593  24.180   0.442
28325W        W  673  24.106  18.621   0.477
28326W        W  674  41.381  23.145   1.250
28327W        W  675   3.399  11.270   3.763
28328W        W  676   7.244   9.267   1.804
28329W        W  677  37.907  37.873   1.444
28330W        W  678  15.187  20.726   3.151
28331W        W  679  22.079  30.979  14.345
28332W        W  680  28.459  17.112   3.187
28333W        W  681  38.411  21.211  10.544
28334W        W  682  26.559  15.233   0.271
28335W        W  683  43.322  26.147   1.924
28336W        W  684  27.666  37.574   1.772
28337W        W  685  43.470   9.713   3.631
28338W        W  686  43.886  12.815   3.767
28339W        W  687   4.296  33.891   2.358
28340W        W  688  33.576  23.613  12.016
28341W        W  689  24.593  42.493  13.869
28342W        W  690  43.296  14.326  11.964
28343W        W  691  42.964   6.203  13.989
28344W        W  692  19.156  35.086   1.246
28345W        W  693  29.147  20.663  13.459
28346W        W  694  27.658  30.998   1.344
28347W        W  695  25.142  28.139  14.433
28348W        W  696   7.841  41.860  10.437
28349W        W  697  12.741  37.369  14.813
28350W        W  698  21.562  30.524  11.985
28351W        W  699  14.715  20.071   4.300
28352W        W  700  25.628  42.787   3.761
28353W        W  701   9.217   4.800   1.381
28354W        W  702  25.666   0.257  14.467
28355W        W  703   5.744   4.422   3.747
28356W        W  704  23.105  29.514  10.902
28357W        W  705   0.307   2.269  14.402
28358W        W  706  12.633  10.340  12.474
28359W        W  707   0.319  32.141  10.486
28360W        W  708   9.845   2.825   3.819
28361W        W  709  23.677   2.255   2.367
28362W        W  710   8.261  30.555   5.745
28363W        W  711  44.366  37.833   0.917
28364W        W  712   5.863  12.224   1.868
28365W        W  713  16.100  35.891  10.530
28366W        W  714   1.430   0.846   1.402
28367W        W  715  31.981  22.677  11.122
28368W        W  716  38.990  21.750   2.231
28369W        W  717  44.338  16.589   3.239
28370W        W  718  23.135   2.876   0.417
28371W        W  719  38.396   5.809  14.500
28372W        W  720  34.977  30.656   2.757
28373W        W  721  15.322  34.488   4.141
28374W        W  722   0.436  12.300  11.939
28375W        W  723  38.007   2.288   3.800
28376W        W  724  43.849  21.032  14.761
28377W        W  725  35.379  41.514   3.718
28378W        W  726  29.657  14.785   4.178
28379W        W  727  26.036  16.718   0.828
28380W        W  728  12.215  26.638   5.164
28381W        W  729   6.331   4.406   1.904
28382W        W  730  23.223   3.455  11.371
28383W        W  731  18.597   5.327   1.709
28384W        W  732  44.900  10.804  10.435
28385W        W  733  36.431   7.736   0.476
28386W        W  734   8.721  43.325   2.690
28387W        W  735  20.265  13.131  14.902
28388W        W  736   9.859  27.546  14.967
28389W        W  737  22.727   5.300   4.197
28390W        W  738  19.669  13.232   0.273
28391W        W  739   6.707  12.638  10.636
28392W        W  740  44.267  21.184  12.396
28393W        W  741  13.187  28.567   0.763
28394W        W  742  16.108   3.409   3.252
28395W        W  743  16.573  12.661  11.001
28396W        W  744  18.136  31.508   1.248
28397W        W  745  25.155  33.490  10.992
28398W        W  746   9.322  29.921   2.897
28399W        W  747  12.137  11.677   1.814
28400W        W  748  33.454  20.686   2.186
28401W        W  749  23.546  36.003  12.413
28402W        W  750   7.776  38.860  14.829
28403W        W  751  43.811   1.239   3.688
28404W        W  752  14.328   3.744  10.954
28405W        W  753  26.145  18.576   0.773
28406W        W  754  32.954  42.468   1.364
28407W        W  755   2.830  15.638  13.891
28408W        W  756  40.916   3.359   4.204
28409W        W  757  36.551  30.125  11.452
28410W        W  758  26.658  27.195  14.919
28411W        W  759   3.712  13.705   2.211
28412W        W  760  13.217  12.655  14.484
28413W        W  761  38.568  41.465   2.337
28414W        W  762   6.200   3.852   3.363
28415W        W  763  30.505  30.478   4.265
28416W        W  764  31.534  33.584   3.774
28417W        W  765  43.390  22.647   4.765
28418W        W  766  20.196  22.202  12.402
28419W        W  767  23.137  39.549   1.712
28420W        W  768   9.716   8.725   3.664
28421W        W  769  18.279  36.556   4.151
28422W        W  770  34.021  44.811  14.868
28423W        W  771  18.251  43.800   1.224
28424W        W  772  34.405  29.608   1.311
28425W        W  773  39.986  37.072   1.832
28426W        W  774  24.091  18.574  12.964
28427W        W  775   8.887  42.015  12.543
28428W        W  776  28.178  41.987  14.312
28429W        W  777   2.877  37.940   1.908
28430W        W  778   7.349  18.765   0.906
28431W        W  779  11.852  37.343   2.215
28432W        W  780  35.518  31.925   2.731
28433W        W  781   2.396   4.270  14.315
28434W        W  782  12.194  39.516  14.031
28435W        W  783  36.908  25.154   2.303
28436W        W  784  35.867   7.767  14.855
28437W        W  785  34.478  24.575   1.301
28438W        W  786   6.848  32.087   3.293
28439W        W  787   1.844  18.679   2.408
28440W        W  788   0.359  19.129   4.640
28441W        W  789  12.321  34.601   2.285
28442W        W  790  39.054  16.302  12.028
28443W        W  791  18.268   9.862   1.308
28444W        W  792  40.546   0.852   0.831
28445W        W  793  19.548  22.571  14.938
28446W        W  794   4.911  40.532   5.164
28447W        W  795  24.221  21.521  10.894
28448W        W  796  36.503  30.609   0.268
28449W        W  797   2.231  30.585   1.276
28450W        W  798   0.444  36.492   3.757
28451W        W  799  22.023  36.040   1.378
28452W        W  800  33.984  36.018  10.149
28453W        W  801  43.284   2.252  14.512
28454W        W  802  41.964   7.391  14.790
28455W        W  803   9.395   2.250  12.483
28456W        W  804  33.921   5.791   9.976
28457W        W  805  31.603  27.651   3.264
28458W        W  806  24.018  11.692   5.167
28459W        W  807  25.468   8.260  14.991
28460W        W  808  40.425  30.157   4.834
28461W        W  809  10.150  39.332   1.298
28462W        W  810  17.133  29.104  10.469
28463W        W  811  23.174  39.461  13.003
28464W        W  812  38.903  33.574   3.752
28465W        W  813  41.534   2.731   3.276
28466W        W  814  31.142  26.586  11.036
28467W        W  815  29.643   7.403   1.253
28468W        W  816  13.641  42.810  11.896
28469W        W  817  38.563  14.646   1.710
28470W        W  818  40.537  21.656  10.612
28471W        W  819  26.456  12.781  13.390
28472W        W  820  15.598  14.253   1.868
28473W        W  821  34.442  27.130   4.160
28474W        W  822  15.117  40.999  13.867
28475W        W  823  17.073  11.799   0.303
28476W        W  824  42.527  13.247  13.791
28477W        W  825  25.185   1.956   3.671
28478W        W  826  29.049  24.545  13.509
28479W        W  827  14.221  44.406   2.354
28480W        W  828   0.453   8.259   4.663
28481W        W  829  44.411   6.856   3.775
28482W        W  830   8.856  19.043  10.940
28483W        W  831  25.083  27.990   5.292
28484W        W  832  36.358  41.019  11.509
28485W        W  833  34.500  28.936  13.802
28486W        W  834  14.814  35.542  10.951
28487W        W  835   6.822  32.115   1.739
28488W        W  836  34.013  33.077  14.502
28489W        W  837  39.940  31.606   2.676
28490W        W  838  29.515  10.738   0.784
28491W        W  839  14.682  13.757  14.294
28492W        W  840  27.115  25.589  13.471
28493W        W  841  17.748  14.159  10.604
28494W        W  842  21.534  42.913   3.272
28495W        W  843  42.871   4.264  10.092
28496W        W  844  28.010  38.452  11.908
28497W        W  845  18.744  13.824  12.087
28498W        W  846  15.805  18.289   0.966
28499W        W  847  31.558  37.865   3.313
28500W        W  848  34.576  39.317  12.425
28501W        W  849  29.068  31.000  11.875
28502W        W  850  17.663   9.774   4.213
28503W        W  851  44.381  20.640   4.266
28504W        W  852  33.058  39.939  12.453
28505W        W  853  38.511  31.906  10.957
28506W        W  854  15.738  38.013   1.920
28507W        W  855  44.429  18.263   3.314
28508W        W  856  18.663  11.849  11.528
28509W        W  857  38.535  28.065   3.769
28510W        W  858  39.891  36.005   2.217
28511W        W  859   8.404  35.955   4.182
28512W        W  860  44.877  41.967  11.950
28513W        W  861  34.375  19.768   3.789
28514W        W  862  33.062   5.313  11.065
28515W        W  863   7.841   5.206  11.554
28516W        W  864  29.575  10.702  10.478
28517W        W  865  37.519  40.306   1.424
28518W        W  866  29.489  38.342  12.972
28519W        W  867   2.843  13.815   4.252
28520W        W  868  31.474  23.623   4.612
28521W        W  869  30.597   4.388   1.287
28522W        W  870   8.303  23.623  10.934
28523W        W  871  40.972  36.993   0.727
28524W        W  872  25.599  13.666  12.861
28525W        W  873  16.229   3.918   4.320
28526W        W  874  24.533  37.490   1.327
28527W        W  875   0.941  14.112  13.541
28528W        W  876  31.110   5.908   0.372
28529W        W  877   4.389   9.736   1.810
28530W        W  878  18.086  42.026   0.356
28531W        W  879  37.499  21.057  11.489
28532W        W  880  26.670   6.916  14.917
28533W        W  881  17.289  27.048   0.797
28534W        W  882  10.711  15.193   2.223
28535W        W  883  22.521  27.977  14.832
28536W        W  884  11.227  19.116  12.918
28537W        W  885  30.576  32.130   2.680
28538W        W  886  35.520   9.730   0.932
28539W        W  887  40.336  39.002  14.383
28540W        W  888  17.651   7.308  14.438
28541W        W  889  13.673  20.711  12.432
28542W        W  890  39.538  10.737   4.805
28543W        W  891  28.102  25.624  12.569
28544W        W  892  29.972  35.486   2.722
28545W        W  893  13.234  37.025   3.283
28546W        W  894  27.148  13.326  14.881
28547W        W  895  28.587  14.214  13.980
28548W        W  896  34.425  41.880  11.514
28549W        W  897  30.973  23.503  11.600
28550W        W  898  10.683  42.368  12.343
28551W        W  899  13.608  27.665  11.022
28552W        W  900  10.844  35.370   1.803
28553W        W  901  40.479   4.919  12.017
28554W        W  902  35.892   0.958   3.300
28555W        W  903  34.934  39.479   2.397
28556W        W  904   6.231  28.654  13.974
28557W        W  905  13.695  21.154   3.357
28558W        W  906  35.880  20.600  13.407
28559W        W  907  43.452  39.386   1.212
28560W        W  908  26.489   9.659   4.652
28561W        W  909  19.092  35.437   4.688
28562W        W  910  35.894  24.694   3.282
28563W        W  911  33.546  33.405   2.293
28564W        W  912  24.482  16.161  14.393
28565W        W  913  38.940  18.200  14.348
28566W        W  914   7.349  17.648  10.455
28567W        W  915  25.987  20.651  10.459
28568W        W  916  28.061  15.221  10.119
28569W        W  917  39.912  35.548   3.743
28570W        W  918  38.541  30.044  13.823
28571W        W  919  42.441  27.179  11.922
28572W        W  920   3.372  36.861   0.839
28573W        W  921  34.917   9.686  13.382
28574W        W  922   7.329  11.283   0.475
28575W        W  923   3.881  30.444   1.247
28576W        W  924  30.535  19.759  11.059
28577W        W  925  29.102  39.923   3.207
28578W        W  926  16.196  29.636   2.200
28579W        W  927  25.474  10.310  14.823
28580W        W  928   8.667  12.352   0.337
28581W        W  929  20.199  43.880   1.824
28582W        W  930  20.168  16.112  10.451
28583W        W  931  43.456  19.283  11.613
28584W        W  932  18.189  24.108   0.824
28585W        W  933  33.381  19.709  12.865
28586W        W  934  30.464  30.474  11.596
28587W        W  935  43.947   9.361   3.759
28588W        W  936  17.121  33.937   4.627
28589W        W  937  19.213  30.070   0.792
28590W        W  938   9.866  17.112  10.954
28591W        W  939  38.037   8.755  11.058
28592W        W  940  36.920  39.056  14.893
28593W        W  941  15.298  19.662  12.454
28594W        W  942  23.728  25.525  12.386
28595W        W  943  15.661  24.016   4.804
28596W        W  944  29.457   1.316   1.749
28597W        W  945  11.247  25.628  13.852
28598W        W  946   5.370  31.589  13.345
28599W        W  947  40.395  25.042  11.125
28600W        W  948  33.609   8.781   3.721
28601W        W  949   5.400  40.811  12.438
28602W        W  950  16.761  10.302  13.370
28603W        W  951   9.386   5.430  11.083
28604W        W  952   1.823  42.404   1.444
28605W        W  953  39.539  34.489  13.850
28606W        W  954  14.746  16.650  11.524
28607W        W  955  26.638  37.033   1.365
28608W        W  956  29.568  13.107   1.449
28609W        W  957  40.801   6.420   0.741
28610W        W  958  40.407  13.775   3.742
28611W        W  959   9.306  31.947  10.910
28612W        W  960  43.905  16.741   3.244
28613W        W  961  31.600   8.401  10.936
28614W        W  962  23.679  11.764  12.968
28615W        W  963  23.722   0.306   3.850
28616W        W  964  30.575  12.239   3.655
28617W        W  965  42.524  21.676   4.153
28618W        W  966   3.931  16.598  14.890
28619W        W  967  41.948  27.155   2.262
28620W        W  968   3.803   6.264  10.970
28621W        W  969  38.964  34.957  12.898
28622W        W  970  39.987  44.448   2.778
28623W        W  971   6.226  31.514   1.431
28624W        W  972  36.024  26.680  13.870
28625W        W  973  44.920   4.882  13.897
28626W        W  974   9.794  10.343   2.755
28627W        W  975  41.523  42.982  12.554
28628W        W  976  13.216  20.180  10.953
28629W        W  977  19.605   8.371  11.862
28630W        W  978  41.971  32.922   0.728
28631W        W  979  43.301  21.091   1.211
28632W        W  980  21.188   7.379  12.506
28633W        W  981  17.595  31.025  10.951
28634W        W  982  19.663  39.004  11.866
28635W        W  983  12.817  24.624  14.776
28636W        W  984  12.681  23.608  13.400
28637W        W  985  26.498  11.746  11.077
28638W        W  986   9.794  38.375   2.396
28639W        W  987  33.063  20.743  12.861
28640W        W  988  32.048  44.330   0.277
28641W        W  989  44.824  31.482  11.425
28642W        W  990  35.036   6.220   5.290
28643W        W  991  13.172  35.600   4.296
28644W        W  992  31.987  41.970  11.864
28645W        W  993  25.628  16.120   2.718
28646W        W  994  22.046  18.781  12.463
28647W        W  995  18.094  13.248   3.379
28648W        W  996  38.523  34.424  14.389
28649W        W  997  33.528  18.607   2.348
28650W        W  998   2.391  11.366  10.093
28651W        W  999  16.812  15.605  13.447
28652W        W 1000  19.178  39.904  12.972
28653W        W 1001  19.556  31.596   1.406
28654W        W 1002  39.959  24.681  11.073
28655W        W 1003   5.386  42.497  11.544
28656W        W 1004  17.146   4.882  13.990
28657W        W 1005  20.523  20.189  11.469
28658W        W 1006  23.107  11.739  14.406
28659W        W 1007   0.794  16.592  11.495
28660W        W 1008   5.438   3.437   4.687
28661W        W 1009  35.472  44.993   2.895
28662W        W 1010  36.901  38.490   1.302
28663W        W 1011   0.930  44.484   4.267
28664W        W 1012  20.545  35.993  10.560
28665W        W 1013  10.249   5.360   2.664
28666W        W 1014   5.870  36.037   0.359
28667W        W 1015  19.709  38.332   1.920
28668W        W 1016  10.826  16.097  10.507
28669W        W 1017  21.736  12.222   4.634
28670W        W 1018  20.163  36.418   1.754
28671W        W 1019   2.912  25.472  13.862
28672W        W 1020  23.220  25.653   2.855
28673W        W 1021  30.946   0.779   4.632
28674W        W 1022  27.683  17.757   3.328
28675W        W 1023   4.857  25.029  12.419
28676W        W 1024  17.219   6.402  11.903
28677W        W 1025  39.369  19.540   5.161
28678W        W 1026   4.293   0.822  13.957
28679W        W 1027  30.434  22.607  14.966
28680W        W 1028   2.935   6.257   0.782
28681W        W 1029  13.626  24.722  12.379
28682W        W 1030  41.836  11.145   0.305
28683W        W 1031  43.340  31.445  13.908
28684W        W 1032  12.292   7.768   2.309
28685W        W 1033  31.464  24.503   3.165
28686W        W 1034   6.892   4.734   4.630
28687W        W 1035   7.895  32.538  10.489
28688W        W 1036  26.620  39.506  13.419
28689W        W 1037  35.534  37.893   2.880
28690W        W 1038  22.232  13.712  13.347
28691W        W 1039   9.339  43.480  12.580
28692W        W 1040  42.900  44.318  11.961
28693W        W 1041  43.456   0.837   3.698
28694W        W 1042  34.572  37.412  13.936
28695W        W 1043  22.194  37.516  10.451
28696W        W 1044  33.581   8.759   1.769
28697W        W 1045  37.956  38.472   4.715
28698W        W 1046  34.903  34.547   3.230
28699W        W 1047  22.595  25.203   0.346
28700W        W 1048   4.897  18.787  12.057
28701W        W 1049  36.391  31.968   2.285
28702W        W 1050  28.449  43.352  12.026
28703W        W 1051  13.152  31.960  14.836
28704W        W 1052  21.626  37.894  14.481
28705W        W 1053   2.403  30.126  12.969
28706W        W 1054  33.413  18.650  11.508
28707W        W 1055   7.401  23.566  10.476
28708W        W 1056  11.308  20.193   3.830
28709W        W 1057  43.298   1.874  14.410
28710W        W 1058  34.875  34.398   2.722
28711W        W 1059  38.441  33.922  13.936
28712W        W 1060  11.658  42.861  14.280
28713W        W 1061  40.839  12.199   2.669
28714W        W 1062  17.208  10.680  10.960
28715W        W 1063  35.908  36.998  12.890
28716W        W 1064   8.726  15.765   5.094
28717W        W 1065  44.769  23.184   1.719
28718W        W 1066  31.062  22.060  14.284
28719W        W 1067  41.935  31.033   2.677
28720W        W 1068  42.464  15.142   4.793
28721W        W 1069  15.292  32.114   4.691
28722W        W 1070  37.429  33.485  12.458
28723W        W 1071  18.642  35.016   3.217
28724W        W 1072  16.209  14.770   2.419
28725W        W 1073  37.561  38.852   3.838
28726W        W 1074  19.622  42.444  11.496
28727W        W 1075  42.823   7.734  10.454
28728W        W 1076   8.705  31.405  14.993
28729W        W 1077  36.037   7.903  11.536
28730W        W 1078  28.016  32.443  10.065
28731W        W 1079  12.829  11.299   4.213
28732W        W 1080  37.915   8.361   2.246
28733W        W 1081  20.214   6.677  12.489
28734W        W 1082  24.016  25.475   2.750
28735W        W 1083  16.077  22.245   3.266
28736W        W 1084   1.408  42.797  11.588
28737W        W 1085  19.778  29.538   3.302
28738W        W 1086  15.637  34.540  10.013
28739W        W 1087  34.869  20.253   4.338
28740W        W 1088  23.238  33.977  14.789
28741W        W 1089  39.411  39.952   4.182
28742W        W 1090  12.708  37.469  11.096
28743W        W 1091  33.525  20.197  11.556
28744W        W 1092  29.614  41.439   2.842
28745W        W 1093   9.806  29.045  11.988
28746W        W 1094  32.898  22.632   2.234
28747W        W 1095  20.229  14.743  10.997
28748W        W 1096  41.482  31.424   3.363
28749W        W 1097  21.722  10.267  13.048
28750W        W 1098  42.808   4.724  14.891
28751W        W 1099   8.299  18.633   3.819
28752W        W 1100   7.378  42.818  12.921
28753W        W 1101  37.964  22.013  12.579
28754W        W 1102  26.009  20.658   1.238
28755W        W 1103   4.318   3.804  13.407
28756W        W 1104   8.387  20.668  13.467
28757W        W 1105  19.202  23.169  10.533
28758W        W 1106  40.855  38.056  14.368
28759W        W 1107   9.287   6.234   2.780
28760W        W 1108  37.932  22.120  10.583
28761W        W 1109  24.541  29.632  14.809
28762W        W 1110  39.828  39.533   3.294
28763W        W 1111  12.164  11.745  14.337
28764W        W 1112  25.041  40.487  14.339
28765W        W 1113  34.484   8.362   1.930
28766W        W 1114  15.591  31.975   5.138
28767W        W 1115  20.078  41.462  13.943
28768W        W 1116  29.048  31.527  12.964
28769W        W 1117  39.881   3.834  14.287
28770W        W 1118   6.377  16.765   0.931
28771W        W 1119  14.619  11.332   2.388
28772W        W 1120  26.664  13.645  11.592
28773W        W 1121  40.491  39.964   1.359
28774W        W 1122  30.642   3.379   4.686
28775W        W 1123  31.909  19.242   1.341
28776W        W 1124  27.101  43.478   3.687
28777W        W 1125  40.529  32.891  14.319
28778W        W 1126   5.255  19.143   3.160
28779W        W 1127  34.001  10.373  11.080
28780W        W 1128  44.395  35.396  13.950
28781W        W 1129   5.218   4.935  13.347
28782W        W 1130  32.018   9.647  14.897
28783W        W 1131  36.052   2.394   4.785
28784W        W 1132  42.517  11.215  14.830
28785W        W 1133  41.359   4.894  13.396
28786W        W 1134  39.929  43.435   1.747
28787W        W 1135  44.773  27.060  12.559
28788W        W 1136   3.729   9.198  10.559
28789W        W 1137   5.405  44.803   3.753
28790W        W 1138   8.874   3.903  10.489
28791W        W 1139  37.020  17.641  11.374
28792W        W 1140   3.260  14.599   3.206
28793W        W 1141  31.573   5.430  12.030
28794W        W 1142  17.742  36.457  14.454
28795W        W 1143  28.661  20.609   3.716
28796W        W 1144  14.258  21.233   3.865
28797W        W 1145  29.539  10.245   3.864
28798W        W 1146  29.638   0.963   3.790
28799W        W 1147  36.921  35.099  13.467
28800W        W 1148   3.936  31.639  12.430
28801W        W 1149   3.447   1.797   3.642
28802W        W 1150  41.528  37.875  12.856
28803W        W 1151  19.575  40.471   2.810
28804W        W 1152   6.684  26.984   4.113
28805W        W 1153  27.123  14.332  11.994
28806W        W 1154   6.339  22.206  12.019
28807W        W 1155  18.549  11.665   3.185
28808W        W 1156  14.276  43.979   4.701
28809W        W 1157   5.846  12.650   0.735
28810W        W 1158  11.734  37.975   0.795
28811W        W 1159  21.073  23.182  12.978
28812W        W 1160  31.926   4.815   2.826
28813W        W 1161  34.975  24.617   0.324
28814W        W 1162  11.751  20.081   1.371
28815W        W 1163  15.231  39.829  10.466
28816W        W 1164  13.744  22.243   0.743
28817W        W 1165   4.298  29.919  12.999
28818W        W 1166  40.861  41.977   4.234
28819W        W 1167  35.408  13.145   0.765
28820W        W 1168  29.033  33.518  11.578
28821W        W 1169  36.862  11.810  12.564
28822W        W 1170   1.884  31.966   1.748
28823W        W 1171  23.515  25.556   0.954
28824W        W 1172  11.167   0.382  14.860
28825W        W 1173  31.132  23.503  12.517
28826W        W 1174  11.641   2.751   3.330
28827W        W 1175  41.968   6.362  11.062
28828W        W 1176  40.942  31.574   1.349
28829W        W 1177  18.593  44.884   2.789
28830W        W 1178  20.665  31.582   5.767
28831W        W 1179  30.588  10.777   4.732
28832W        W 1180   3.794   2.394  11.963
28833W        W 1181  14.130  17.181   4.660
28834W        W 1182  15.651  43.813   1.430
28835W        W 1183  41.307  14.294   2.693
28836W        W 1184  10.281  26.643  10.990
28837W        W 1185   1.463  40.983  13.506
28838W        W 1186  39.477  27.547  12.880
28839W        W 1187  37.018   0.402   3.677
28840W        W 1188   5.321   5.859  14.898
28841W        W 1189  40.471  27.632   1.246
28842W        W 1190  13.723  37.406  11.559
28843W        W 1191  15.301  30.937   3.335
28844W        W 1192  12.341  39.330   1.389
28845W        W 1193  36.915  16.643   4.270
28846W        W 1194  20.664  36.380  12.021
28847W        W 1195  18.556  32.425   4.143
28848W        W 1196  38.969  24.175  11.506
28849W        W 1197   6.233  30.122   4.203
28850W        W 1198  25.096  27.989   1.774
28851W        W 1199   7.224  29.945  12.984
28852W        W 1200  38.450   1.871  13.828
28853W        W 1201  41.381  23.642  14.885
28854W        W 1202  17.570   3.827  13.353
28855W        W 1203  26.986   0.367  13.034
28856W        W 1204  41.931  22.545  12.406
28857W        W 1205  22.654   8.274  14.857
28858W        W 1206   7.186  35.552   0.740
28859W        W 1207  23.644  19.106  10.558
28860W        W 1208  27.497  19.700   2.824
28861W        W 1209  15.624  10.750  11.912
28862W        W 1210  19.664  10.816  12.893
28863W        W 1211   2.917   3.378  12.942
28864W        W 1212  40.801  10.677   4.716
28865W        W 1213  41.516   2.454  13.329
28866W        W 1214  36.927  39.816   4.325
28867W        W 1215  15.708  28.116   3.801
28868W        W 1216   8.287  25.070   2.762
28869W        W 1217   8.264  44.427   0.882
28870W        W 1218  12.240  11.127  13.371
28871W        W 1219  32.613  18.567  14.499
28872W        W 1220  17.749  32.433   4.611
28873W        W 1221   1.951  14.191   1.858
28874W        W 1222  11.225  25.542  13.011
28875W        W 1223   7.679  22.201  12.957
28876W        W 1224  13.242   0.859   3.274
28877W        W 1225  31.011  10.853   4.787
28878W        W 1226  15.159  12.753  14.831
28879W        W 1227   2.358   4.785  12.979
28880W        W 1228  28.542  16.716  14.285
28881W        W 1229  22.038  16.688   4.706
28882W        W 1230  20.642  37.538   2.841
28883W        W 1231  13.789  18.759  13.915
28884W        W 1232   9.671  31.908  11.043
28885W        W 1233  31.936  38.872   0.290
28886W        W 1234  16.677   6.256  11.591
28887W        W 1235  23.122   8.382   4.242
28888W        W 1236  18.680   4.345  12.549
28889W        W 1237  43.971  37.064  10.457
28890W        W 1238  22.068  15.270   4.232
28891W        W 1239  19.073  20.269   0.354
28892W        W 1240  40.548   4.431   3.697
28893W        W 1241   4.214  18.666   3.717
28894W        W 1242  14.776   7.851   0.891
28895W        W 1243  18.577  32.437  11.491
28896W        W 1244  12.745  26.009  11.999
28897W        W 1245  44.413   7.691   3.675
28898W        W 1246  37.524  42.516   0.427
28899W        W 1247  14.298   5.843   4.127
28900W        W 1248  39.384  38.441  13.497
28901W        W 1249  24.084  35.509   0.734
28902W        W 1250  12.260  16.587   0.879
28903W        W 1251  14.280  25.542  12.950
28904W        W 1252  15.288  13.321  11.391
28905W        W 1253   6.292  10.372  10.459
28906W        W 1254  41.356   8.362  12.977
28907W        W 1255  19.692  19.667   3.679
28908W        W 1256  17.692  20.637   1.861
28909W        W 1257  38.821  36.573   0.757
28910W        W 1258   3.419  16.290  13.948
28911W        W 1259   1.804  21.164   5.177
28912W        W 1260  15.803  15.723   0.861
28913W        W 1261  34.909  32.954  13.319
28914W        W 1262  17.210   6.253  10.977
28915W        W 1263  21.221  27.086  14.963
28916W        W 1264  27.463  42.974   3.238
28917W        W 1265  32.629  32.571   0.270
28918W        W 1266   2.290  35.924  10.108
28919W        W 1267  11.696  17.183   0.884
28920W        W 1268  35.583   6.815  10.921
28921W        W 1269  43.996  38.936  11.449
28922W        W 1270  37.002   7.713   3.307
28923W        W 1271  43.964  18.164   2.836
28924W        W 1272   1.442  13.610  13.516
28925W        W 1273  41.016  22.172   2.189
28926W        W 1274  36.957  36.860   0.758
28927W        W 1275  32.897  34.103   3.329
28928W        W 1276   8.199  10.239  14.307
28929W        W 1277  16.288  32.429   3.177
28930W        W 1278   4.789  44.906  13.034
28931W        W 1279   5.799  35.887  11.057
28932W        W 1280  14.613  22.715   2.881
28933W        W 1281   3.268  33.608  13.328
28934W        W 1282  38.474  27.002  12.526
28935W        W 1283  15.636  30.648   1.847
28936W        W 1284  20.131  35.992   1.214
28937W        W 1285  44.336  16.316  11.897
28938W        W 1286  14.193  34.950  12.396
28939W        W 1287   1.810  42.394  12.356
28940W        W 1288  10.661   6.421   3.340
28941W        W 1289  19.541  39.355   0.474
28942W        W 1290  40.008  13.679  11.518
28943W        W 1291  27.039  34.472  11.379
28944W        W 1292  30.923   2.913   3.164
28945W        W 1293  35.077  31.900  10.544
28946W        W 1294  38.963   4.316   2.697
28947W        W 1295  37.908  29.968   0.459
28948W        W 1296  41.470  15.748   2.893
28949W        W 1297  11.711  14.686  12.967
28950W        W 1298   5.706  16.735  13.983
28951W        W 1299  14.830   9.822  11.057
28952W        W 1300  26.072  44.964  11.893
28953W        W 1301  42.351  40.429   3.817
28954W        W 1302   7.258   1.425  12.504
28955W        W 1303  28.110  23.079  11.584
28956W        W 1304   0.336   7.394   4.310
28957W        W 1305  40.535  14.326   2.811
28958W        W 1306  15.654   1.755  12.994
28959W        W 1307  32.435  29.515  13.932
28960W        W 1308  26.002   2.350   2.345
28961W        W 1309   2.834  19.746  10.597
28962W        W 1310   2.290  41.953  11.048
28963W        W 1311  14.811  44.965   1.238
28964W        W 1312  31.457  21.207   4.671
28965W        W 1313  17.154  44.940  13.929
28966W        W 1314  14.206  32.429   3.267
28967W        W 1315  36.954  17.629   4.206
28968W        W 1316  40.549   8.660   1.805
28969W        W 1317   2.945   2.350  13.891
28970W        W 1318  10.377   9.393  10.980
28971W        W 1319   8.317  36.531  10.440
28972W        W 1320  39.918  29.921  11.072
28973W        W 1321  28.665   7.845   2.371
28974W        W 1322   6.426   0.848  12.019
28975W        W 1323   6.200  34.498   0.845
28976W        W 1324  35.084  25.510   2.879
28977W        W 1325  23.678  32.944   3.311
28978W        W 1326   5.295  43.013   2.804
28979W        W 1327  28.621   6.353  14.005
28980W        W 1328  10.211  43.791  10.404
28981W        W 1329  43.396  18.766   0.781
28982W        W 1330   1.967  21.595  11.592
28983W        W 1331  34.463  30.067  14.888
28984W        W 1332  26.964   5.245   3.287
28985W        W 1333  13.650  12.846  13.001
28986W        W 1334  37.517  26.523  11.536
28987W        W 1335   7.882  13.255  12.869
28988W        W 1336  43.978  13.264   4.196
28989W        W 1337  37.428   6.336   1.389
28990W        W 1338  29.972   4.769   1.826
28991W        W 1339  10.689  44.268  10.415
28992W        W 1340   9.368  11.641   2.382
28993W        W 1341  44.844  25.164   1.300
28994W        W 1342  19.643  16.273   1.824
28995W        W 1343  24.032  39.883   0.273
28996W        W 1344  44.486  34.955  13.955
28997W        W 1345  11.227  43.924  10.420
28998W        W 1346   6.384  14.655   0.816
28999W        W 1347  23.049  41.950  14.765
29000W        W 1348  33.594  43.302   4.781
29001W        W 1349  25.214  19.083  13.058
29002W        W 1350  33.941  44.389   9.924
29003W        W 1351  16.793  34.589   4.754
29004W        W 1352  35.069   7.398   4.332
29005W        W 1353  22.115  44.922   3.165
29006W        W 1354  44.906  35.997   4.776
29007W        W 1355  25.126  22.119  11.997
29008W        W 1356  28.062  37.539  12.906
29009W        W 1357  22.205  31.637   0.249
29010W        W 1358  40.325  17.214   3.326
29011W        W 1359  34.574  24.137  10.990
29012W        W 1360  23.571  29.566   2.711
29013W        W 1361  16.134  28.096   0.444
29014W        W 1362   0.426  40.388  13.431
29015W        W 1363   6.211  38.854  14.499
29016W        W 1364  13.735  10.230   0.318
29017W        W 1365  34.431   4.761  12.399
29018W        W 1366   7.196   2.959  14.007
29019W        W 1367  20.056   5.363   0.886
29020W        W 1368  21.120   8.886  12.944
29021W        W 1369  20.097  23.084  11.543
29022W        W 1370  31.112   5.265  10.497
29023W        W 1371   9.781   8.698  13.478
29024W        W 1372  20.576  37.930  14.992
29025W        W 1373   1.291   3.288  12.442
29026W        W 1374  23.557  39.870   2.818
29027W        W 1375  33.446  28.677  12.966
29028W        W 1376  42.405   5.361   0.481
29029W        W 1377  22.612  34.088   4.304
29030W        W 1378  21.211  21.247   0.246
29031W        W 1379  15.821  32.521   2.813
29032W        W 1380  20.247  43.789  12.458
29033W        W 1381  32.100  24.625   1.337
29034W        W 1382  22.537  12.792  12.384
29035W        W 1383  42.408  24.974  11.067
29036W        W 1384  22.188   8.362  12.946
29037W        W 1385   9.338  18.551   4.277
29038W        W 1386  44.414  31.091   0.316
29039W        W 1387   9.864  35.046   1.225
29040W        W 1388  22.116  31.980   2.401
29041W        W 1389  11.641  15.718  12.875
29042W        W 1390  39.457   5.386  14.478
29043W        W 1391  17.078  26.457  14.474
29044W        W 1392  40.801   5.342  13.439
29045W        W 1393  26.489   5.898  13.428
29046W        W 1394  24.661   3.428  13.515
29047W        W 1395  24.565  43.344   2.873
29048W        W 1396   9.706  29.081   4.624
29049W        W 1397  15.092  12.321  12.974
29050W        W 1398  37.071   8.838  14.817
29051W        W 1399  31.425  23.531  11.122
29052W        W 1400  16.581  36.925  14.019
29053W        W 1401  17.647  37.018   2.290
29054W        W 1402  34.083  12.801  12.978
29055W        W 1403  11.149   9.812   3.783
29056W        W 1404   2.884  35.856  12.036
29057W        W 1405  14.281  23.612   1.367
29058W        W 1406   4.297  27.572  14.879
29059W        W 1407  39.473  29.483  10.445
29060W        W 1408  30.147  24.575  12.000
29061W        W 1409   7.797   8.255  12.887
29062W        W 1410   8.262  35.015   3.630
29063W        W 1411  14.656  21.090  14.879
29064W        W 1412  15.779  13.698  13.028
29065W        W 1413  44.799  25.971  14.475
29066W        W 1414  41.818  30.570   0.797
29067W        W 1415   2.266  14.243  11.921
29068W        W 1416   1.342  37.926   0.811
29069W        W 1417  12.331  40.816   4.800
29070W        W 1418  12.758  24.021  14.832
29071W        W 1419  27.177   1.389   2.328
29072W        W 1420   9.694  26.969  11.505
29073W        W 1421  30.618   7.259   4.207
29074W        W 1422  41.454  29.137   2.320
29075W        W 1423  36.895  36.369  14.438
29076W        W 1424  42.792  39.822   3.722
29077W        W 1425  18.088   4.931  13.969
29078W        W 1426  24.662  15.138  11.454
29079W        W 1427  25.507  23.220   4.276
29080W        W 1428  29.066  36.889  14.997
29081W        W 1429  13.632  39.394  12.055
29082W        W 1430  42.429  22.140  13.448
29083W        W 1431  14.801  43.363   1.386
29084W        W 1432   5.408   0.745  14.760
29085W        W 1433  19.631  41.857  12.875
29086W        W 1434  21.610   5.232  11.385
29087W        W 1435  26.963   8.793  12.455
29088W        W 1436  40.482  40.306   1.278
29089W        W 1437  30.131   5.362   3.860
29090W        W 1438   7.797  39.554   2.711
29091W        W 1439  16.590  12.816   4.761
29092W        W 1440  20.129  41.409   3.791
29093W        W 1441  13.829  28.946   4.130
29094W        W 1442  26.653  33.455  12.075
29095W        W 1443  30.561  12.138   1.432
29096W        W 1444  34.966  15.214  14.849
29097W        W 1445  33.975  27.949   0.917
29098W        W 1446  33.022  12.184  12.454
29099W        W 1447  39.893  16.622  12.452
29100W        W 1448  26.464  24.652   3.681
29101W        W 1449  27.626  32.554   1.810
29102W        W 1450  36.435  32.497  13.355
29103W        W 1451  41.532  31.147   1.900
29104W        W 1452   4.228  43.329   0.963
29105W        W 1453   2.894  18.582   1.237
29106W        W 1454  18.090  43.983  14.952
29107W        W 1455  32.589  44.989   0.838
29108W        W 1456  10.189  18.247   1.777
29109W        W 1457  23.092  18.648  14.441
29110W        W 1458   5.364  22.622   0.910
29111W        W 1459   7.772  29.056  10.907
29112W        W 1460  22.640  21.231   3.638
29113W        W 1461  41.359   7.711  13.372
29114W        W 1462  19.615  21.018  11.000
29115W        W 1463  10.645  24.505   2.307
29116W        W 1464   3.795   6.244   4.742
29117W        W 1465  37.910  12.788  13.354
29118W        W 1466   1.800  27.568   3.330
29119W        W 1467   3.722  36.009  14.362
29120W        W 1468  14.685  41.484   5.120
29121W        W 1469  43.936  28.137   0.302
29122W        W 1470   7.729  23.217  14.489
29123W        W 1471  23.688  31.067   4.759
29124W        W 1472  20.711  26.526   2.217
29125W        W 1473  29.574   1.390   3.166
29126W        W 1474  35.457  31.578   2.215
29127W        W 1475   4.208  36.973  10.539
29128W        W 1476  18.138  37.475   2.419
29129W        W 1477  14.744  26.584  12.870
29130W        W 1478  14.713   0.440  13.312
29131W        W 1479   4.789  22.505  11.093
29132W        W 1480   7.184  33.558   1.759
29133W        W 1481   4.442   7.378   1.262
29134W        W 1482  16.758   9.863   3.870
29135W        W 1483  33.984   8.859  11.571
29136W        W 1484  31.616  23.184  14.761
29137W        W 1485  18.734  26.053  11.036
29138W        W 1486  32.455  33.459  12.577
29139W        W 1487  26.506  38.932  10.971
29140W        W 1488   0.846   7.350  13.411
29141W        W 1489  33.560  26.504   2.868
29142W        W 1490  31.054  16.234   2.355
29143W        W 1491  38.905  34.422  10.550
29144W        W 1492  44.268  37.374   3.316
29145W        W 1493  27.500  16.234   0.261
29146W        W 1494   4.836  26.156   1.296
29147W        W 1495  41.948  40.835  12.381
29148W        W 1496  40.365  44.960   2.753
29149W        W 1497   1.299  30.992   4.165
29150W        W 1498  27.065  37.339   5.295
29151W        W 1499  36.897  28.588  13.902
29152W        W 1500  42.313  31.552  14.775
29153W        W 1501  27.595   3.231   0.302
29154W        W 1502  26.102  44.300  10.621
29155W        W 1503  17.708  36.534   2.252
29156W        W 1504  10.684  35.471   4.771
29157W        W 1505  29.579   4.866  10.617
29158W        W 1506  22.581  10.266  14.767
29159W        W 1507  26.115  22.091   4.726
29160W        W 1508  16.760   1.767   3.654
29161W        W 1509  39.953   3.850  13.941
29162W        W 1510  36.912  11.826   1.353
29163W        W 1511   9.832  20.190  14.893
29164W        W 1512  31.910  43.978   0.952
29165W        W 1513  29.013  19.159   4.733
29166W        W 1514  12.124   3.352   2.866
29167W        W 1515  32.618   6.821  12.415
29168W        W 1516  43.376  34.494  14.967
29169W        W 1517  19.661  33.400   1.311
29170W        W 1518  32.125   2.414  14.782
29171W        W 1519   4.862  16.185  11.934
29172W        W 1520  16.086  36.434  10.459
29173W        W 1521   4.870  33.889   4.751
29174W        W 1522   1.966   0.858   2.276
29175W        W 1523   1.865   1.751  13.535
29176W        W 1524   7.879  14.624  11.115
29177W        W 1525  35.446  36.870   0.312
29178W        W 1526  41.818   1.389   1.336
29179W        W 1527   5.264   3.728   4.354
29180W        W 1528   7.701   0.293  13.883
29181W        W 1529  38.455  43.319   3.642
29182W        W 1530   3.783  28.081  14.285
29183W        W 1531  14.834  18.170   0.371
29184W        W 1532  20.074  34.490  14.478
29185W        W 1533  10.241  27.963  13.982
29186W        W 1534  19.684  35.502  12.528
29187W        W 1535   1.901  22.149   1.756
29188W        W 1536  10.770  11.153   4.599
29189W        W 1537  14.780  31.486  12.399
29190W        W 1538  43.276   3.279  12.974
29191W        W 1539   7.730  11.805   4.755
29192W        W 1540  34.050  20.665  14.301
29193W        W 1541   1.745  28.144   1.904
29194W        W 1542  37.005   2.285  11.376
29195W        W 1543   5.211  35.013   4.705
29196W        W 1544   7.724  37.059   2.851
29197W        W 1545  31.032  39.544   3.750
29198W        W 1546  31.602  13.723  10.436
29199W        W 1547  20.219  19.773   3.377
29200W        W 1548  16.173  19.545  11.009
29201W        W 1549  26.024  27.139   1.234
29202W        W 1550  22.701  29.652  11.064
29203W        W 1551  17.084  38.502   2.866
29204W        W 1552  25.086  42.972   2.320
29205W        W 1553  34.989   2.889  11.397
29206W        W 1554  19.646  11.632  13.503
29207W        W 1555  39.914  44.343   2.386
29208W        W 1556  19.159  40.904  13.991
29209W        W 1557  23.217   0.751  10.455
29210W        W 1558  17.701  41.981   2.798
29211W        W 1559  29.087  42.820   1.799
29212W        W 1560  39.994  24.184   0.375
29213W        W 1561  18.672   6.778   3.774
29214W        W 1562  37.459  13.838  12.517
29215W        W 1563  11.225   6.871  12.404
29216W        W 1564   5.804  12.284  14.317
29217W        W 1565  21.739  24.124  12.482
29218W        W 1566   6.717  39.045   1.349
29219W        W 1567  14.096   5.930  10.492
29220W        W 1568  12.217  10.218  14.392
29221W        W 1569  29.962  24.599   0.451
29222W        W 1570   6.683  21.244   3.798
29223W        W 1571   4.422  12.691  13.502
29224W        W 1572  16.269   3.257  12.993
29225W        W 1573   6.823  11.235  12.955
29226W        W 1574  14.736  27.686   1.255
29227W        W 1575  44.979  22.610   4.655
29228W        W 1576  37.436  23.096   1.352
29229W        W 1577  32.910  41.935   3.205
29230W        W 1578  11.774  38.946   0.861
29231W        W 1579   4.288  44.792   0.925
29232W        W 1580  27.963  39.934   0.741
29233W        W 1581  22.203  25.510   1.235
29234W        W 1582  31.057  33.081  13.472
29235W        W 1583  40.394  21.586   2.410
29236W        W 1584   6.801  26.071  12.472
29237W        W 1585   0.853  21.756  12.471
29238W        W 1586  19.184  18.767   0.743
29239W        W 1587  34.878  17.199   5.129
29240W        W 1588  12.217  39.395   2.266
29241W        W 1589  21.700   9.723   1.311
29242W        W 1590   5.718  14.133  10.928
29243W        W 1591   7.243  31.099   5.614
29244W        W 1592  17.639  42.025   1.917
29245W        W 1593  29.993  24.976   2.339
29246W        W 1594  44.480  44.401   4.160
29247W        W 1595  33.930  27.668  11.522
29248W        W 1596  38.053  17.207   0.367
29249W        W 1597   2.932  16.644  14.284
29250W        W 1598  33.980  33.616   0.771
29251W        W 1599  10.732  36.379  12.870
29252W        W 1600  27.587  19.693  11.908
29253W        W 1601  29.606  29.470  10.565
29254W        W 1602   6.273  11.706   5.141
29255W        W 1603  22.700  39.980  11.937
29256W        W 1604  28.520  16.081  10.975
29257W        W 1605   1.744   9.680   3.686
29258W        W 1606  37.495  40.545   3.356
29259W        W 1607  15.304  26.129  14.360
29260W        W 1608  24.597  23.661  13.344
29261W        W 1609  29.541  19.065  11.582
29262W        W 1610  11.654  33.008  12.448
29263W        W 1611  25.570   4.919  14.029
29264W        W 1612   9.363  14.202   4.667
29265W        W 1613  21.124  33.085   3.767
29266W        W 1614  37.509  10.875  14.978
29267W        W 1615  35.960  13.313   1.346
29268W        W 1616  38.436  12.671  12.936
29269W        W 1617   1.329   6.798   4.752
29270W        W 1618   8.240  18.168   4.218
29271W        W 1619  37.902   6.290   3.743
29272W        W 1620   2.765  38.852  14.467
29273W        W 1621  30.498   2.839   3.775
29274W        W 1622  23.125  14.310   5.147
29275W        W 1623  14.664  39.482   0.272
29276W        W 1624   5.264  17.130  13.922
29277W        W 1625  31.550   2.788   0.856
29278W        W 1626  15.315   6.408  14.353
29279W        W 1627  26.059  36.422   4.602
29280W        W 1628  14.098  39.835  14.765
29281W        W 1629  10.181   5.905  11.979
29282W        W 1630  26.023  21.696  11.045
29283W        W 1631   1.442  42.496   1.750
29284W        W 1632   4.827  19.715   1.380
29285W        W 1633  25.558   3.239  12.863
29286W        W 1634  24.085   6.684  10.068
29287W        W 1635  28.492  39.910   3.785
29288W        W 1636  26.487  42.007  13.861
29289W        W 1637   9.197  41.905  12.396
29290W        W 1638  30.916  31.513  13.318
29291W        W 1639   8.230  21.757  11.499
29292W        W 1640  25.608  26.985  10.420
29293W        W 1641  38.501  13.109   3.219
29294W        W 1642  38.403  32.555   3.166
29295W        W 1643  13.680   4.793   1.900
29296W        W 1644   1.348   0.388   1.895
29297W        W 1645  16.149  25.474  14.322
29298W        W 1646  25.713  13.223   2.796
29299W        W 1647  29.047  33.078  12.877
29300W        W 1648   8.891   5.418   3.742
29301W        W 1649  16.731  10.817   4.689
29302W        W 1650  42.305  31.482   0.921
29303W        W 1651  44.452   9.332  10.478
29304W        W 1652   9.348  17.262   4.653
29305W        W 1653  10.203  39.824  12.402
29306W        W 1654  33.911  10.194  10.025
29307W        W 1655  25.527   9.878   5.723
29308W        W 1656  11.218  25.113   3.310
29309W        W 1657  28.562  42.971  11.524
29310W        W 1658   8.790  33.423  14.301
29311W        W 1659  22.145  15.585   0.852
29312W        W 1660  36.896   1.294  10.580
29313W        W 1661   3.397  34.877   2.785
29314W        W 1662  38.469   6.244  14.486
29315W        W 1663   8.317  33.461  12.407
29316W        W 1664  20.181  26.603   0.343
29317W        W 1665  43.021  31.970   3.706
29318W        W 1666  40.965  18.167   4.345
29319W        W 1667  25.504  25.026   0.945
29320W        W 1668   4.271  33.537  13.004
29321W        W 1669  10.873  17.575   1.448
29322W        W 1670  16.242  44.443   3.764
29323W        W 1671  20.133  29.485  14.310
29324W        W 1672  32.526  36.484  13.411
29325W        W 1673  21.104   6.219  10.411
29326W        W 1674   6.837  17.196   1.737
29327W        W 1675  31.957  40.331   0.820
29328W        W 1676  18.596  23.088  14.286
29329W        W 1677  25.570  13.170   1.792
29330W        W 1678   7.732  40.912   3.719
29331W        W 1679  42.386  40.886  13.901
29332W        W 1680  32.393  37.555  11.490
29333W        W 1681   9.820  11.130  14.285
29334W        W 1682  16.187  17.670   1.284
29335W        W 1683   9.710   5.287  11.600
29336W        W 1684  39.831  41.317  10.538
29337W        W 1685  18.258   7.388  11.416
29338W        W 1686   1.255  26.693  12.931
29339W        W 1687   8.324  21.238   0.419
29340W        W 1688  43.890   2.293   1.718
29341W        W 1689  40.840  41.030   1.320
29342W        W 1690  16.306  34.026   2.699
29343W        W 1691  34.606  16.575  14.390
29344W        W 1692  31.105  36.970   2.665
29345W        W 1693   3.407   2.430   1.924
29346W        W 1694  24.634  33.909   2.709
29347W        W 1695  18.616  29.985   5.234
29348W        W 1696  39.466  40.525   2.283
29349W        W 1697  15.149  33.953  13.920
29350W        W 1698  15.679  13.828   3.279
29351W        W 1699  38.975  23.700   0.394
29352W        W 1700  36.918   0.834   3.193
29353W        W 1701  18.089  10.787  14.025
29354W        W 1702   7.675  13.693   3.339
29355W        W 1703  15.816  15.286   0.460
29356W        W 1704  29.107  30.149  14.346
29357W        W 1705  13.625  27.193  13.504
29358W        W 1706  28.126   1.782   1.442
29359W        W 1707   9.305  38.841   2.215
29360W        W 1708  29.163  34.484   0.388
29361W        W 1709   7.888  12.769  13.534
29362W        W 1710  32.984   9.185  11.373
29363W        W 1711   1.271   7.225   3.302
29364W        W 1712   4.399   5.414   2.682
29365W        W 1713  12.186  25.121  11.606
29366W        W 1714  14.112   8.369  12.430
29367W        W 1715  30.590   2.326  12.972
29368W        W 1716  29.570   5.277   4.783
29369W        W 1717   5.409  44.966  10.466
29370W        W 1718   6.257  41.448   4.118
29371W        W 1719  26.527  18.211  13.895
29372W        W 1720  17.092  24.592  14.844
29373W        W 1721  10.792  37.355   3.737
29374W        W 1722  13.215  26.676  13.852
29375W        W 1723  11.758  43.982   2.356
29376W        W 1724  33.452  11.703   1.912
29377W        W 1725   9.765  19.111   1.828
29378W        W 1726   5.888  43.943   1.399
29379W        W 1727   4.771  10.279   1.904
29380W        W 1728  29.649   3.734  13.968
29381W        W 1729  10.857  28.461   3.650
29382W        W 1730   2.358   7.834  12.070
29383W        W 1731  34.492  12.841  11.982
29384W        W 1732  24.167  23.100  13.888
29385W        W 1733  40.913  29.928  11.567
29386W        W 1734  23.019  22.041  13.519
29387W        W 1735  40.511   6.298  12.478
29388W        W 1736  13.309  38.005   4.718
29389W        W 1737  35.492   9.280   0.459
29390W        W 1738  40.445  30.422  14.290
29391W        W 1739   2.876   4.369   0.273
29392W        W 1740   9.303   4.712   3.284
29393W        W 1741  14.304  41.528   0.480
29394W        W 1742  39.338  17.290  12.077
29395W        W 1743  18.057  28.165   2.253
29396W        W 1744  17.566   5.226  14.971
29397W        W 1745  36.548  43.809   1.785
29398W        W 1746  30.568   1.247  11.468
29399W        W 1747  33.560   8.307  13.506
29400W        W 1748  12.333   2.327   3.331
29401W        W 1749  16.766  21.186  13.437
29402W        W 1750   2.259  43.485  12.574
29403W        W 1751  14.216  29.543   5.133
29404W        W 1752   4.210  20.165   2.375
29405W        W 1753  18.735  34.610  14.771
29406W        W 1754  34.436   3.371   4.263
29407W        W 1755  44.931   9.702  11.027
29408W        W 1756  27.518  17.204   0.966
29409W        W 1757  20.627  28.166   3.170
29410W        W 1758   4.218  26.077   4.664
29411W        W 1759  23.227  12.809   0.269
29412W        W 1760  31.083  17.787   0.346
29413W        W 1761  40.343  39.478  14.844
29414W        W 1762   9.183   7.227   0.414
29415W        W 1763  19.596  32.578  12.421
29416W        W 1764  12.139  17.785   0.879
29417W        W 1765  13.318  27.658  13.500
29418W        W 1766  26.646  22.560   2.824
29419W        W 1767   7.782  31.467   9.987
29420W        W 1768  28.653  38.420   4.196
29421W        W 1769  25.201  41.955   0.320
29422W        W 1770  35.977  42.486   0.925
29423W        W 1771  21.513  28.435   3.659
29424W        W 1772  14.607  31.923  10.559
29425W        W 1773  40.367   5.387   1.413
29426W        W 1774  19.062  15.115   0.313
29427W        W 1775  39.495  21.625   4.752
29428W        W 1776  27.021  30.618   3.238
29429W        W 1777  21.514  18.216   3.283
29430W        W 1778  18.594   6.370  13.926
29431W        W 1779  25.681  16.682   4.204
29432W        W 1780  24.608  26.962   1.436
29433W        W 1781  14.300  34.995   4.119
29434W        W 1782  27.650  26.977   3.294
29435W        W 1783  24.138   0.939  13.029
29436W        W 1784   0.439  18.149   2.814
29437W        W 1785  10.766   2.328   4.282
29438W        W 1786   7.412  38.350   2.786
29439W        W 1787  10.295  30.098  11.094
29440W        W 1788   5.414  30.068   4.686
29441W        W 1789  37.525   8.763   2.827
29442W        W 1790   8.747  42.027   5.092
29443W        W 1791  11.237  41.995   4.817
29444W        W 1792  16.283  15.136   3.354
29445W        W 1793  44.898  13.188   0.288
29446W        W 1794  32.500  15.177   0.944
29447W        W 1795   5.394   4.807   1.848
29448W        W 1796  37.033  28.950   0.280
29449W        W 1797  14.304  15.127   4.617
29450W        W 1798   5.696   3.399  13.821
29451W        W 1799  19.170   6.191   2.240
29452W        W 1800  27.163  22.599   2.215
29453W        W 1801  41.472   7.357   2.873
29454W        W 1802  34.509  36.473   4.279
29455W        W 1803  27.652  11.738   3.265
29456W        W 1804  12.681   2.231   2.679
29457W        W 1805  23.677  44.500   1.303
29458W        W 1806  36.860  19.274   0.904
29459W        W 1807  32.440  26.667   4.721
29460W        W 1808  39.859  15.760  10.633
29461W        W 1809  17.099  19.052  14.372
29462W        W 1810  20.668  12.634   1.394
29463W        W 1811   0.814  41.906   1.403
29464W        W 1812  19.708  27.518  12.364
29465W        W 1813  39.542  33.956  13.945
29466W        W 1814  12.324  25.005  10.493
29467W        W 1815  33.552  26.088  13.357
29468W        W 1816  25.529  23.537   0.398
29469W        W 1817  32.011  42.494   3.860
29470W        W 1818   7.713  27.657  10.959
29471W        W 1819  44.442   8.394  13.341
29472W        W 1820  17.795  43.835   2.833
29473W        W 1821  13.216   9.255  13.362
29474W        W 1822  36.947  30.060   3.706
29475W        W 1823  14.825  38.941   4.335
29476W        W 1824  20.198   6.428   1.230
29477W        W 1825  17.151  23.240  12.974
29478W        W 1826   8.208  29.638   1.432
29479W        W 1827  36.036  20.697  12.536
29480W        W 1828  44.408  34.929   5.160
29481W        W 1829  36.421  27.955   4.637
29482W        W 1830  35.882  42.839  12.442
29483W        W 1831  17.685  40.847  11.554
29484W        W 1832  40.968   2.811  10.628
29485W        W 1833   1.282  23.207  13.920
29486W        W 1834  10.212  24.594  10.945
29487W        W 1835   9.666  44.840   2.324
29488W        W 1836   5.279   8.297   2.705
29489W        W 1837  32.592  10.707   0.949
29490W        W 1838  36.589  31.035  12.981
29491W        W 1839  41.460  17.143   3.824
29492W        W 1840  39.524  28.163  11.033
29493W        W 1841  10.237   4.881  13.901
29494W        W 1842  13.164  32.003  11.914
29495W        W 1843  18.677   8.770   1.935
29496W        W 1844  29.641  39.924   3.379
29497W        W 1845   9.675   8.253  12.379
29498W        W 1846  43.430  17.596   3.706
29499W        W 1847   6.832  18.222  14.014
29500W        W 1848  23.005  34.559  13.520
29501W        W 1849  44.861   3.940  11.461
29502W        W 1850   0.353  35.948  11.003
29503W        W 1851   8.281  27.033   4.702
29504W        W 1852   7.294  37.484   2.397
29505W        W 1853   9.652  13.718   1.239
29506W        W 1854  32.401  31.092  11.863
29507W        W 1855  30.938  11.719  11.885
29508W        W 1856   8.702   5.797   0.941
29509W        W 1857  40.350  32.424  12.873
29510W        W 1858  15.687  20.054   9.933
29511W        W 1859   1.922   8.779  12.947
29512W        W 1860  21.117   7.415  14.435
29513W        W 1861   8.681  42.775  12.573
29514W        W 1862  33.607   0.406   9.921
29515W        W 1863  30.628  19.534  10.517
29516W        W 1864   5.252   9.229  13.390
29517W        W 1865  14.722  22.023   4.114
29518W        W 1866  25.078  22.507  13.887
29519W        W 1867  39.810  23.570   2.687
29520W        W 1868  41.818  37.915   1.277
29521W        W 1869   6.383  20.114  14.306
29522W        W 1870  19.160  21.237  12.915
29523W        W 1871  42.408  10.770  12.875
29524W        W 1872  41.974  36.977   0.772
29525W        W 1873  24.537  15.113   1.771
29526W        W 1874  21.551  37.580  10.020
29527W        W 1875   3.370  10.248   3.342
29528W        W 1876   8.714  37.859   0.799
29529W        W 1877  33.004  11.788  13.867
29530W        W 1878  26.643  40.998  14.417
29531W        W 1879  26.631  31.985  14.463
29532W        W 1880  12.324   7.709  13.999
29533W        W 1881  36.489   9.372  14.769
29534W        W 1882  24.071  24.645  11.050
29535W        W 1883  42.933  20.195   3.815
29536W        W 1884  44.981  25.634  13.371
29537W        W 1885   0.465  35.432  14.297
29538W        W 1886  36.945   1.871   0.401
29539W        W 1887  10.742  22.129   2.772
29540W        W 1888  20.767  15.619   1.439
29541W        W 1889  21.198   5.280   1.238
29542W        W 1890  20.094  25.592   2.676
29543W        W 1891  25.635   7.373  13.886
29544W        W 1892  36.953  27.158  12.870
29545W        W 1893   3.321  36.906  12.074
29546W        W 1894  32.078  17.636   1.357
29547W        W 1895   6.876  23.116   3.653
29548W        W 1896   7.258   5.413  14.406
29549W        W 1897  27.650  28.653   0.477
29550W        W 1898  24.587  21.596   4.238
29551W        W 1899  18.107   3.718   1.262
29552W        W 1900  20.540  25.972   4.614
29553W        W 1901  39.854  19.093   4.693
29554W        W 1902   8.372  38.408  12.436
29555W        W 1903  19.101  32.442   1.890
29556W        W 1904  18.095  26.953   0.283
29557W        W 1905  35.876  25.499   0.870
29558W        W 1906  27.554  36.565  12.046
29559W        W 1907  22.570  34.444   0.286
29560W        W 1908   8.370  32.943  12.089
29561W        W 1909  15.669  31.428   0.808
29562W        W 1910  27.159  27.618  14.311
29563W        W 1911   0.363   3.710   1.256
29564W        W 1912  44.426   2.264   5.218
29565W        W 1913  44.912  13.185   3.636
29566W        W 1914  37.510  29.024   3.320
29567W        W 1915  35.596  40.053   0.476
29568W        W 1916  23.211  42.363  13.838
29569W        W 1917  15.610  23.575  12.456
29570W        W 1918  11.143  32.435   0.467
29571W        W 1919  15.768  31.959   0.794
29572W        W 1920  36.502  22.672   2.844
29573W        W 1921  41.532  21.136   5.188
29574W        W 1922  33.510  36.041   1.405
29575W        W 1923   4.296  19.652   4.658
29576W        W 1924  27.636  28.171   4.324
29577W        W 1925  30.489   3.418   1.444
29578W        W 1926   7.229  21.535   0.459
29579W        W 1927  13.614  41.462  12.941
29580W        W 1928  26.121  32.083  14.334
29581W        W 1929  10.785   9.886  11.098
29582W        W 1930  31.599  39.906   1.717
29583W        W 1931  43.940  32.551  14.462
29584W        W 1932  10.848  31.567  12.919
29585W        W 1933  42.432  11.771   0.275
29586W        W 1934  41.862  12.306   1.448
29587W        W 1935  14.791   4.776  13.859
29588W        W 1936  11.688   4.848   4.150
29589W        W 1937  26.104  10.650   2.662
29590W        W 1938   3.275  11.313   4.195
29591W        W 1939  37.574  17.645   1.387
29592W        W 1940   3.884  24.574  13.865
29593W        W 1941  33.931  18.178  13.929
29594W        W 1942  39.549  32.928   1.245
29595W        W 1943  20.072  31.145   5.176
29596W        W 1944  31.069  40.342   0.822
29597W        W 1945   7.354   4.928   3.360
29598W        W 1946  28.452  43.419   2.769
29599W        W 1947  33.920  27.066   1.312
29600W        W 1948  23.065   5.239  13.032
29601W        W 1949  10.328  15.221  10.941
29602W        W 1950   7.718  18.260   3.708
29603W        W 1951  15.110   0.455  14.016
29604W        W 1952  11.372  13.694  12.503
29605W        W 1953  38.401  18.208  10.939
29606W        W 1954  27.978   2.851   0.337
29607W        W 1955  15.272   2.891   2.315
29608W        W 1956  12.316  36.899   1.214
29609W        W 1957  37.543  13.766  13.477
29610W        W 1958   9.351  11.769   9.951
29611W        W 1959  11.724  15.690  12.357
29612W        W 1960  36.867  17.609   3.836
29613W        W 1961   9.885  24.048   1.894
29614W        W 1962  24.006  19.689  12.985
29615W        W 1963  15.222  16.797  12.521
29616W        W 1964  27.128  35.602   2.388
29617W        W 1965  44.999  24.497  14.978
29618W        W 1966  36.885  11.690  11.463
29619W        W 1967  38.925   0.976  12.884
29620W        W 1968  42.892  15.673  14.350
29621W        W 1969  19.059   5.342   3.231
29622W        W 1970  31.595  11.301  13.882
29623W        W 1971  34.595  23.603  14.759
29624W        W 1972  18.251   5.887  13.368
29625W        W 1973  29.048  14.290  13.904
29626W        W 1974   0.796  33.943   3.696
29627W        W 1975  17.208  30.971   0.281
29628W        W 1976  42.798  36.914  10.977
29629W        W 1977  25.644  13.242   3.860
29630W        W 1978   2.937   0.872  11.446
29631W        W 1979   9.210  44.801  14.836
29632W        W 1980  42.984  27.510  11.953
29633W        W 1981  20.765  22.243   3.829
29634W        W 1982  42.863  43.468   1.832
29635W        W 1983   3.288   5.435  14.450
29636W        W 1984   7.174  41.835  14.944
29637W        W 1985  18.141  15.126   3.295
29638W        W 1986   9.745  23.003   2.757
29639W        W 1987   3.436  24.035   4.315
29640W        W 1988  30.537  40.029  12.549
29641W        W 1989  20.030  13.728   1.319
29642W        W 1990  43.864  19.626   2.700
29643W        W 1991  16.173   1.947   4.351
29644W        W 1992  19.699  24.163  14.989
29645W        W 1993   9.179   0.262  10.000
29646W        W 1994  13.690   9.664   3.749
29647W        W 1995  42.347  26.652  14.800
29648W        W 1996  11.795  29.481   2.883
29649W        W 1997  11.240  21.679   0.334
29650W        W 1998   9.816  28.010  14.959
29651W        W 1999   0.868  10.318  14.387
29652W        W 2000  43.307  37.988   1.738
29653W        W 2001  39.388  10.333   2.251
29654W        W 2002  12.135  16.693  14.834
29655W        W 2003  10.344   4.713  11.453
29656W        W 2004   4.212  41.018  11.394
29657W        W 2005  44.467   4.357   4.233
29658W        W 2006  25.126   8.833  11.523
29659W        W 2007  12.358  30.156   1.724
29660W        W 2008  14.672  37.039   4.652
29661W        W 2009  39.317   2.807  14.914
29662W        W 2010  32.131  31.484  11.881
29663W        W 2011  10.771  38.997   1.403
29664W        W 2012   5.314  11.190  14.902
29665W        W 2013   4.846   3.729   3.699
29666W        W 2014  32.886   1.833   2.846
29667W        W 2015  28.452  20.171  10.632
29668W        W 2016  44.379  33.072  14.788
29669W        W 2017  20.596   8.176   4.228
29670W        W 2018  40.372  20.114   2.766
29671W        W 2019  17.604  16.253   1.763
29672W        W 2020   8.390  15.708  11.050
29673W        W 2021   4.911  33.396  13.795
29674W        W 2022   0.480   8.781   5.223
29675W        W 2023  26.042   6.211   0.353
29676W        W 2024  40.045  12.622   3.197
29677W        W 2025  24.984   1.319  10.950
29678W        W 2026  29.662  13.722   2.704
29679W        W 2027   9.380  20.125  12.477
29680W        W 2028  14.202  44.455   4.616
29681W        W 2029  17.263   1.325  12.529
29682W        W 2030  16.785  34.037  13.424
29683W        W 2031  36.893  23.691   3.251
29684W        W 2032  33.418  32.891   4.638
29685W        W 2033  44.793  11.337  10.974
29686W        W 2034  38.902  41.033   4.290
29687W        W 2035  44.993   8.676  12.444
29688W        W 2036   8.684  32.635  11.475
29689W        W 2037  22.060  11.797   3.736
29690W        W 2038  10.639  42.513  11.963
29691W        W 2039  44.791   8.800  13.496
29692W        W 2040  17.101   4.880   3.179
29693W        W 2041  42.956  21.548  11.098
29694W        W 2042  37.983  12.632  11.975
29695W        W 2043  27.061  35.082  13.051
29696W        W 2044   8.743  41.984   3.309
29697W        W 2045  33.027   7.254   2.697
29698W        W 2046  23.002  19.039  13.049
29699W        W 2047  19.283  12.119   3.360
29700W        W 2048   7.297  33.881   0.806
29701W        W 2049   9.248  32.612   3.700
29702W        W 2050  37.915  37.446   0.388
29703W        W 2051   1.273  20.114   1.868
29704W        W 2052  40.017  10.190  14.457
29705W        W 2053  21.568  35.557   2.893
29706W        W 2054   7.810  42.994   3.699
29707W        W 2055  37.558  17.147  12.025
29708W        W 2056  36.869  14.633  11.552
29709W        W 2057   3.741   8.295   0.444
29710W        W 2058   0.325  20.539   1.274
29711W        W 2059  30.105   9.709  13.414
29712W        W 2060  18.169  37.927  12.872
29713W        W 2061  32.413  19.069   3.850
29714W        W 2062   3.876  37.479  12.081
29715W        W 2063   9.874  43.500  12.944
29716W        W 2064  36.079  17.173   1.302
29717W        W 2065  26.539  35.004   0.782
29718W        W 2066  25.168  23.490  11.082
29719W        W 2067   8.662  29.021   1.263
29720W        W 2068   6.237  36.482  14.477
29721W        W 2069  42.800  38.462   4.703
29722W        W 2070  36.433  16.684   3.279
29723W        W 2071  39.819  35.440  10.920
29724W        W 2072  33.552  33.460   4.125
29725W        W 2073  44.445  20.595   2.823
29726W        W 2074  31.409   8.303   9.920
29727W        W 2075  37.991  42.899   3.282
29728W        W 2076  15.218  43.301   4.116
29729W        W 2077  22.193  16.197   2.781
29730W        W 2078   8.690  39.982   1.787
29731W        W 2079  13.713  19.597  10.423
29732W        W 2080  34.445  12.198  13.058
29733W        W 2081  31.620  23.014  11.965
29734W        W 2082  33.525   3.340  11.881
29735W        W 2083   6.751   3.439  13.988
29736W        W 2084  15.695  31.127   4.749
29737W        W 2085  36.841  10.790   2.178
29738W        W 2086  22.746  27.182  13.498
29739W        W 2087  25.632  32.105   2.863
29740W        W 2088  35.079  30.095   3.834
29741W        W 2089  17.206  27.649  12.968
29742W        W 2090  26.118  25.173   2.861
29743W        W 2091  34.912  35.002   4.648
29744W        W 2092  18.647  41.493  10.979
29745W        W 2093   2.963   8.765  14.925
29746W        W 2094  29.090  34.974  11.472
29747W        W 2095  22.744  16.682  14.502
29748W        W 2096  19.682  34.911   3.329
29749W        W 2097  20.666  43.312   4.239
29750W        W 2098  10.176  19.778   2.776
29751W        W 2099  29.161  20.188  11.983
29752W        W 2100  15.758  41.362   0.850
29753W        W 2101  34.521  40.461  13.874
29754W        W 2102  19.270   9.652  13.931
29755W        W 2103   5.885  27.468  11.478
29756W        W 2104  35.552   8.284  12.353
29757W        W 2105   9.738  37.350   3.759
29758W        W 2106   3.285  28.118   5.225
29759W        W 2107  35.854  35.489  14.822
29760W        W 2108  38.491   8.267  14.801
29761W        W 2109  22.220  29.631   0.945
29762W        W 2110  12.653  24.673   1.262
29763W        W 2111  40.360  20.116   3.782
29764W        W 2112  32.894  33.028   0.402
29765W        W 2113  37.035  32.627  10.450
29766W        W 2114  41.393  13.192  12.396
29767W        W 2115   2.751  28.506  13.811
29768W        W 2116  32.112  23.181  12.948
29769W        W 2117  25.107  25.617   4.335
29770W        W 2118   4.816  28.601   0.790
29771W        W 2119  23.082  20.580  14.311
29772W        W 2120  31.571  21.019  12.981
29773W        W 2121  39.395   4.824   0.479
29774W        W 2122  17.201  44.878  10.618
29775W        W 2123  12.672  41.405  10.957
29776W        W 2124   3.278  20.031   3.320
29777W        W 2125  19.713   9.646  13.536
29778W        W 2126  40.884  42.999   0.881
29779W        W 2127  25.532  17.136   1.815
29780W        W 2128  35.397  36.858  14.425
29781W        W 2129  40.006   9.716  11.373
29782W        W 2130  24.217  31.616   1.236
29783W        W 2131  12.198  12.612  14.439
29784W        W 2132  24.078   5.435  14.354
29785W        W 2133   6.281  39.427  13.818
29786W        W 2134  17.270  41.370   4.162
29787W        W 2135  23.564   7.226   4.824
29788W        W 2136   7.841  37.374   2.899
29789W        W 2137  30.518   3.289  10.613
29790W        W 2138  32.449  25.624   3.187
29791W        W 2139  43.331  25.192   0.477
29792W        W 2140  40.947  32.904  11.460
29793W        W 2141  23.197  32.937  14.505
29794W        W 2142  23.498  28.483  13.464
29795W        W 2143  35.422  27.015  14.931
29796W        W 2144  17.660  12.195   2.870
29797W        W 2145  11.315  16.271   0.840
29798W        W 2146  33.082  25.971  13.438
29799W        W 2147   7.293  12.717  13.962
29800W        W 2148  31.495  18.670  13.454
29801W        W 2149   8.403  33.482   5.227
29802W        W 2150   4.833  21.064  12.040
29803W        W 2151   7.345  10.304   1.703
29804W        W 2152  23.074  31.611  12.891
29805W        W 2153  31.569  14.821  14.999
29806W        W 2154  29.098  38.881   1.810
29807W        W 2155  31.074  42.830   3.345
29808W        W 2156   5.890   8.861  14.025
29809W        W 2157  19.162   7.821   4.340
29810W        W 2158  29.662  30.930   0.339
29811W        W 2159  10.718  42.015   4.800
29812W        W 2160  26.605   5.402   0.439
29813W        W 2161  35.558   2.966  12.095
29814W        W 2162  32.519  33.111  13.930
29815W        W 2163   2.953  27.485   3.708
29816W        W 2164  14.683  11.723   3.836
29817W        W 2165  17.289   0.866  11.518
29818W        W 2166  31.508  15.651  11.524
29819W        W 2167   0.879  27.955   4.680
29820W        W 2168  27.557   0.408  14.436
29821W        W 2169  31.085  17.641   4.340
29822W        W 2170  38.523  30.059  12.988
29823W        W 2171  20.635   6.713  12.481
29824W        W 2172  13.601  30.533  12.432
29825W        W 2173  37.856  30.557  11.033
29826W        W 2174  34.917  19.666   5.219
29827W        W 2175  28.023   1.888  12.081
29828W        W 2176  37.385  28.465   1.728
29829W        W 2177   5.256   5.393  12.959
29830W        W 2178  18.234  13.288  14.286
29831W        W 2179  44.918  18.666  13.004
29832W        W 2180  24.555  20.197  13.500
29833W        W 2181  44.309  15.138   2.779
29834W        W 2182  25.699  10.290   3.153
29835W        W 2183  10.330  40.435  13.925
29836W        W 2184   9.180   7.730  12.498
29837W        W 2185   3.805  33.489   2.415
29838W        W 2186  31.432   3.906   1.786
29839W        W 2187  33.941  30.133   2.734
29840W        W 2188  17.752  40.353  13.483
29841W        W 2189  30.564   7.173   5.668
29842W        W 2190   9.829  18.714  12.492
29843W        W 2191  30.582  19.065   1.439
29844W        W 2192   0.813  16.709  12.430
29845W        W 2193  20.074   5.934   0.771
29846W        W 2194   4.873  33.982  13.812
29847W        W 2195  26.030  43.458  13.348
29848W        W 2196   6.916   3.931   0.796
29849W        W 2197  43.358  27.953  12.442
29850W        W 2198   4.857  24.100   2.251
29851W        W 2199  30.970  17.766   3.851
29852W        W 2200   9.886  30.564  13.818
29853W        W 2201   7.768   2.765  11.548
29854W        W 2202  20.559  42.031   2.398
29855W        W 2203  41.945  19.148  11.590
29856W        W 2204   4.357  32.962   0.872
29857W        W 2205  14.234  44.354  12.443
29858W        W 2206  30.026  12.160   0.753
29859W        W 2207  40.481  41.930   2.355
29860W        W 2208  20.741   2.302  12.522
29861W        W 2209  22.191   3.243  14.274
29862W        W 2210   1.794  35.010   2.284
29863W        W 2211  19.217  31.930  12.383
29864W        W 2212  37.498  11.252  12.501
29865W        W 2213   5.917   9.271   3.272
29866W        W 2214  42.325  26.153  11.050
29867W        W 2215  38.363   9.295   2.741
29868W        W 2216  11.370  38.828   2.304
29869W        W 2217   1.431   7.780  12.851
29870W        W 2218  27.962  16.112  11.977
29871W        W 2219  31.562  35.567  13.895
29872W        W 2220  29.144   3.896   3.191
29873W        W 2221  12.736  11.325   4.665
29874W        W 2222   2.827  24.177   2.304
29875W        W 2223  22.175  17.250   1.416
29876W        W 2224   7.725  43.510   1.293
29877W        W 2225  31.523  34.528  13.841
29878W        W 2226  15.147  17.296  14.479
29879W        W 2227  26.626  19.265  12.355
29880W        W 2228  29.998  21.581  13.544
29881W        W 2229   6.277  23.036   0.422
29882W        W 2230  12.778   4.863   4.199
29883W        W 2231   3.444  33.394   4.774
29884W        W 2232  32.121  38.003   0.831
29885W        W 2233  39.989   6.796  14.775
29886W        W 2234   6.270  31.900   3.177
29887W        W 2235  11.363  22.624   1.746
29888W        W 2236  41.341  28.133   3.305
29889W        W 2237  33.464  37.580  13.822
29890W        W 2238   7.840  30.980  10.470
29891W        W 2239  44.894  22.669   0.344
29892W        W 2240  18.583   8.230  13.044
29893W        W 2241  19.163  15.704  10.580
29894W        W 2242  37.450  42.403  13.817
29895W        W 2243  18.065   6.725   0.910
29896W        W 2244  35.443  32.483   4.612
29897W        W 2245  26.556  32.900  14.014
29898W        W 2246   9.765  21.179   0.803
29899W        W 2247   2.849  43.407   1.768
29900W        W 2248  24.031  24.223  10.941
29901W        W 2249  11.847   4.205  13.942
29902W        W 2250  14.110  21.524  13.528
29903W        W 2251  15.795  16.753   0.412
29904W        W 2252  11.726  20.549  12.912
29905W        W 2253  33.037  37.515   1.862
29906W        W 2254  43.486  17.628   2.397
29907W        W 2255   3.390  36.548  12.978
29908W        W 2256   2.318  42.509  12.495
29909W        W 2257  35.409  15.811   3.655
29910W        W 2258  41.890  37.007  13.001
29911W        W 2259   7.306  31.052  11.490
29912W        W 2260   5.910  41.820  13.875
29913W        W 2261  37.931  15.108   2.308
29914W        W 2262  26.524  21.020  11.613
29915W        W 2263  39.024  14.275  12.406
29916W        W 2264  38.951  11.235  14.499
29917W        W 2265   8.763  11.660   1.711
29918W        W 2266   5.399   0.392  10.635
29919W        W 2267  23.158   4.758  11.485
29920W        W 2268   2.237  14.142   1.844
29921W        W 2269  38.842  18.094   2.701
29922W        W 2270  24.629  14.094   5.305
29923W        W 2271   8.745  14.104  11.972
29924W        W 2272  17.299  43.336  14.346
29925W        W 2273   4.876   9.860  13.967
29926W        W 2274  18.257  39.485   1.736
29927W        W 2275  35.050  38.459   3.157
29928W        W 2276  16.219  27.511   0.432
29929W        W 2277  31.449  43.995   4.183
29930W        W 2278   4.373  17.608   3.350
29931W        W 2279  42.980  34.078  11.535
29932W        W 2280  12.272  41.865   1.281
29933W        W 2281  34.585  13.140  10.956
29934W        W 2282  17.582  25.971  13.379
29935W        W 2283  43.954  44.782  11.932
29936W        W 2284  42.877  17.179   2.792
29937W        W 2285   8.253  37.920  13.845
29938W        W 2286  12.130  17.760  10.891
29939W        W 2287  26.572  27.569  11.574
29940W        W 2288   3.897  17.669  11.450
29941W        W 2289   4.871  29.928  11.599
29942W        W 2290  44.498  21.735  11.547
29943W        W 2291  16.243  11.625  14.431
29944W        W 2292  15.314  11.670  11.504
29945W        W 2293   1.815  43.849  14.922
29946W        W 2294  17.233  20.677  12.453
29947W        W 2295   0.859  13.272  11.887
29948W        W 2296  39.813  26.125   2.700
29949W        W 2297  15.794  35.049   1.913
29950W        W 2298  10.139  12.695  14.828
29951W        W 2299  25.540   4.844   2.236
29952W        W 2300  34.037  44.910  11.525
29953W        W 2301  18.776  14.591  14.016
29954W        W 2302   4.259   9.783  13.512
29955W        W 2303  33.576  16.791  10.105
29956W        W 2304  19.756  38.864  13.506
29957W        W 2305   6.229  25.186   1.881
29958W        W 2306  39.413  20.687   4.780
29959W        W 2307  42.421  37.865  13.834
29960W        W 2308  35.090  39.514   0.956
29961W        W 2309  10.172   1.753   3.733
29962W        W 2310  41.872  30.596  10.994
29963W        W 2311  27.508  24.551  10.574
29964W        W 2312  26.134  42.781   4.635
29965W        W 2313  20.641  11.369  12.431
29966W        W 2314   8.780  26.479   1.380
29967W        W 2315  38.491   0.345   0.789
29968W        W 2316  43.437   5.781  10.571
29969W        W 2317  35.974  20.135   1.344
29970W        W 2318  37.881  34.044  13.969
29971W        W 2319  36.075   2.458   3.234
29972W        W 2320  21.638  33.405  11.903
29973W        W 2321  18.704  42.467   2.296
29974W        W 2322  41.833  23.044  14.947
29975W        W 2323  12.360  44.264  13.796
29976W        W 2324   3.420  38.515   3.642
29977W        W 2325  34.430   7.767   3.631
29978W        W 2326  20.702  16.228  10.539
29979W        W 2327   4.440  20.064   0.449
29980W        W 2328  29.029  16.568  12.036
29981W        W 2329  28.518   3.330  10.430
29982W        W 2330  36.016   0.260  10.554
29983W        W 2331  23.216  27.081   3.361
29984W        W 2332   4.900   4.923  11.995
29985W        W 2333  26.656  27.191   1.372
29986W        W 2334  36.096  28.464   4.728
29987W        W 2335  33.526  34.881   4.318
29988W        W 2336  36.383  32.630  11.391
29989W        W 2337  39.003  44.961   4.243
29990W        W 2338   9.828   3.788  12.411
29991W        W 2339  11.216   0.301  14.464
29992W        W 2340  35.399  27.176   1.419
29993W        W 2341  29.112   8.326   4.277
29994W        W 2342  42.408  15.738  13.343
29995W        W 2343  36.954  26.633  12.835
29996W        W 2344  29.164  18.218   0.802
29997W        W 2345  28.125   9.156   2.828
29998W        W 2346  27.048  18.614   0.424
29999W        W 2347  20.635   4.379   0.859
30000W        W 2348  14.815   8.171  10.989
30001W        W 2349  24.659  12.679   1.221
30002W        W 2350  38.002   5.242   2.810
30003W        W 2351  16.709   4.793   1.416
30004W        W 2352  42.032  36.936   4.116
30005W        W 2353   4.380  16.088   4.136
30006W        W 2354  12.322   4.891  11.859
30007W        W 2355  30.620  38.969  14.910
30008W        W 2356  28.983  29.034   4.598
30009W        W 2357  38.059   4.773  10.969
30010W        W 2358   0.427  36.485   4.620
30011W        W 2359  25.693  30.025  11.513
30012W        W 2360   4.243   6.679  10.509
30013W        W 2361   5.395  27.016  11.498
30014W        W 2362  41.419   2.286  14.932
30015W        W 2363  42.313  33.535  13.307
30016W        W 2364   9.212  39.882  12.968
30017W        W 2365  34.563  28.631  10.958
30018W        W 2366  14.260   9.167  13.862
30019W        W 2367  32.517  23.995   2.890
30020W        W 2368   7.694  35.990   4.706
30021W        W 2369  16.189   3.787  11.555
30022W        W 2370  41.997  12.650  13.472
30023W        W 2371  17.067  28.009  11.079
30024W        W 2372  13.654  10.788   3.734
30025W        W 2373  37.839   7.850  10.408
30026W        W 2374  13.833   2.931   4.724
30027W        W 2375   8.327   2.436  10.477
30028W        W 2376  12.830  31.916  10.540
30029W        W 2377  41.981   5.328  12.558
30030W        W 2378  43.892  35.602   2.206
30031W        W 2379   0.799  10.644  12.858
30032W        W 2380  38.362   8.280  13.808
30033W        W 2381   9.790  23.549  14.291
30034W        W 2382  41.384  24.033   0.795
30035W        W 2383  26.978  37.481  10.956
30036W        W 2384  33.416  42.865   2.236
30037W        W 2385  21.548  29.476  13.914
30038W        W 2386  25.016  28.628   2.283
30039W        W 2387  40.887  10.275   3.190
30040W        W 2388  32.539  32.973  13.334
30041W        W 2389  25.176  33.585  13.475
30042W        W 2390  23.078  16.147  12.368
30043W        W 2391  43.397  27.171  10.583
30044W        W 2392  35.493  33.538  12.556
30045W        W 2393  29.114  31.115   0.771
30046W        W 2394  20.093   1.880  12.530
30047W        W 2395  17.065  37.889  13.796
30048W        W 2396   8.740  38.417   0.934
30049W        W 2397   3.383  26.642   2.377
30050W        W 2398  27.502   7.726   4.268
30051W        W 2399  42.782  41.307   2.854
30052W        W 2400  24.001  34.562   2.369
30053W        W 2401  32.473   8.844  10.593
30054W        W 2402  12.794  14.157   4.167
30055W        W 2403  21.174  12.706   0.396
30056W        W 2404   4.225  10.261  12.950
30057W        W 2405  32.452  22.149   3.674
30058W        W 2406  28.054  10.707  11.944
30059W        W 2407  16.262   7.851   0.375
30060W        W 2408   3.863  28.062   3.651
30061W        W 2409  39.012  42.877   0.963
30062W        W 2410  34.923   4.919  14.015
30063W        W 2411  22.109  21.662  13.964
30064W        W 2412  17.626  28.550   0.242
30065W        W 2413  37.431  43.847  12.423
30066W        W 2414  25.473   2.364   1.404
30067W        W 2415  15.671   2.323  11.858
30068W        W 2416  42.915  10.334   1.772
30069W        W 2417  24.481  34.063   1.408
30070W        W 2418   8.686  42.386  11.082
30071W        W 2419  23.499  30.505   3.693
30072W        W 2420  42.973   6.381  10.930
30073W        W 2421  44.878  20.625  14.412
30074W        W 2422  17.169   4.943   1.906
30075W        W 2423  15.786  15.272   4.795
30076W        W 2424  38.052   1.236   3.718
30077W        W 2425  14.174  10.687   1.222
30078W        W 2426   1.813  16.136   0.951
30079W        W 2427   4.264  37.462   3.724
30080W        W 2428  20.541  24.548  11.917
30081W        W 2429  30.147  26.026  12.494
30082W        W 2430  41.920  36.382  10.522
30083W        W 2431   2.465  14.690  13.474
30084W        W 2432  13.198   6.202  11.969
30085W        W 2433  28.577  33.390  13.530
30086W        W 2434  43.019   2.309   2.191
30087W        W 2435  27.598  37.434   2.265
30088W        W 2436  35.890   9.284   1.830
30089W        W 2437  23.049  19.540  13.935
30090W        W 2438  15.205  22.740  10.422
30091W        W 2439  25.488  34.070   0.390
30092W        W 2440  16.628  10.810  14.433
30093W        W 2441   4.398  15.261   4.695
30094W        W 2442  19.568  13.197  10.640
30095W        W 2443  10.207  36.405   1.869
30096W        W 2444  12.346  40.476   1.312
30097W        W 2445  29.966  10.650   0.399
30098W        W 2446   7.705   8.336  13.845
30099W        W 2447   0.965  26.004  11.913
30100W        W 2448  30.097   4.760  10.015
30101W        W 2449  22.510  19.637  13.350
30102W        W 2450  13.216  18.173  12.865
30103W        W 2451  25.210  21.576   3.166
30104W        W 2452  28.169  21.660   2.179
30105W        W 2453  14.694  41.000   0.803
30106W        W 2454  33.024   2.359   0.836
30107W        W 2455  37.917  38.397  12.461
30108W        W 2456   3.357  30.981   0.905
30109W        W 2457  27.070   5.211   0.410
30110W        W 2458  39.841  36.473   4.710
30111W        W 2459  21.632  24.651  13.421
30112W        W 2460  17.296   0.913  12.975
30113W        W 2461  33.465  24.134   3.319
30114W        W 2462  40.325   4.891   1.284
30115W        W 2463  19.732   4.218  10.412
30116W        W 2464  42.878  20.168   1.254
30117W        W 2465  28.108  21.733   2.677
30118W        W 2466  16.302  15.282  10.425
30119W        W 2467  44.779  41.947  14.905
30120W        W 2468   5.406   9.283  12.473
30121W        W 2469  36.955   2.735  11.463
30122W        W 2470  11.274  10.682   1.726
30123W        W 2471  44.837  18.200  14.763
30124W        W 2472  43.000   8.705   2.713
30125W        W 2473  10.194  11.189   0.382
30126W        W 2474  22.160  40.052  10.453
30127W        W 2475  19.215  42.346  13.860
30128W        W 2476  29.469  38.930  13.848
30129W        W 2477  44.328  20.085  13.812
30130W        W 2478  21.116   9.254  10.992
30131W        W 2479  15.135  17.152  14.908
30132W        W 2480  31.070  24.513   0.259
30133W        W 2481  20.107  44.296   3.751
30134W        W 2482   5.210  19.231  12.932
30135W        W 2483  34.063  13.120   1.288
30136W        W 2484  37.532  15.317   3.300
30137W        W 2485  34.868   4.849  11.569
30138W        W 2486  37.418   5.277  12.088
30139W        W 2487  34.393   2.230  14.816
30140W        W 2488  38.468  34.867  13.367
30141W        W 2489  11.257  39.322  14.029
30142W        W 2490   4.821   9.754  11.020
30143W        W 2491  41.368  33.524   4.288
30144W        W 2492  35.995  17.783   0.838
30145W        W 2493  41.858  15.237  10.637
30146W        W 2494   4.218  30.034   3.235
30147W        W 2495  41.982  19.667   4.699
30148W        W 2496  29.654  12.791   9.957
30149W        W 2497  44.801  43.974   0.455
30150W        W 2498  20.181  15.764  13.333
30151W        W 2499   4.436  37.026  11.431
30152W        W 2500  35.911  20.526   3.856
30153W        W 2501   7.898   2.967   2.381
30154W        W 2502  38.075  28.444  14.489
30155W        W 2503   4.825  11.357  13.370
30156W        W 2504  10.281  42.387  12.975
30157W        W 2505  11.262   3.799  13.931
30158W        W 2506  12.331  19.232  13.815
30159W        W 2507  26.529   0.435   3.720
30160W        W 2508  10.380  31.434   2.864
30161W        W 2509  21.688  24.548  10.964
30162W        W 2510  28.574  34.574   4.152
30163W        W 2511  14.096  38.864   0.337
30164W        W 2512  14.226  31.098   0.780
30165W        W 2513  17.100   3.768   1.335
30166W        W 2514  42.502  31.550   1.442
30167W        W 2515  14.210  13.752   4.598
30168W        W 2516   0.823  10.208  13.337
30169W        W 2517  10.216  22.999   4.178
30170W        W 2518  23.185  42.313   4.745
30171W        W 2519  14.818  12.328  11.082
30172W        W 2520   9.305  22.549  14.966
30173W        W 2521  39.507  23.990   1.908
30174W        W 2522  28.169  11.714  10.597
30175W        W 2523  25.565   5.265   1.400
30176W        W 2524   4.397  37.338   0.271
30177W        W 2525  21.756  23.998   4.338
30178W        W 2526   5.879  37.441  13.035
30179W        W 2527  44.288   0.282   2.361
30180W        W 2528  22.184  38.534   1.757
30181W        W 2529   5.897  40.442   3.779
30182W        W 2530  44.812  18.557  13.794
30183W        W 2531   1.841   8.831  10.594
30184W        W 2532  17.120  25.152  12.468
30185W        W 2533  32.038  26.483  12.905
30186W        W 2534   9.213  40.457   2.259
30187W        W 2535  40.841  21.030   0.826
30188W        W 2536  36.350  41.926  12.963
30189W        W 2537  44.382  14.263  13.312
30190W        W 2538   5.288  10.761  14.444
30191W        W 2539   1.889  23.620   0.317
30192W        W 2540  38.895  35.467  14.977
30193W        W 2541   2.955   9.260  13.467
30194W        W 2542   4.860  26.025  13.343
30195W        W 2543  14.095  19.745  14.920
30196W        W 2544  16.754   5.307   0.419
30197W        W 2545  32.437   1.393   3.319
30198W        W 2546  36.047  36.370  14.873
30199W        W 2547  32.521  16.591   1.751
30200W        W 2548  15.251   6.711  10.981
30201W        W 2549   5.379   8.846  14.789
30202W        W 2550  36.454   6.193   2.781
30203W        W 2551  17.147  37.434  10.122
30204W        W 2552  41.911  19.227  12.463
30205W        W 2553  36.921  42.324  14.932
30206W        W 2554  15.725  39.982  14.981
30207W        W 2555  34.544  22.195   4.598
30208W        W 2556  18.286  24.653   2.358
30209W        W 2557  26.504  35.897  14.499
30210W        W 2558  25.131   7.332  14.346
30211W        W 2559  38.563  41.461   3.845
30212W        W 2560  22.534  20.525   0.465
30213W        W 2561  18.277   6.306   2.743
30214W        W 2562   9.334   4.886   4.279
30215W        W 2563  37.873  36.955  11.961
30216W        W 2564  38.379   2.269   3.829
30217W        W 2565  24.611   2.830   1.743
30218W        W 2566   8.778  10.176  11.594
30219W        W 2567  29.954  27.683  11.581
30220W        W 2568  34.054  44.371  13.310
30221W        W 2569   0.902  26.632  13.008
30222W        W 2570  31.539  27.959  12.877
30223W        W 2571  44.901  43.276   1.413
30224W        W 2572  28.629  37.441  14.929
30225W        W 2573  30.031  36.951  10.486
30226W        W 2574  24.996  13.663   2.271
30227W        W 2575  26.074  14.142  10.940
30228W        W 2576  40.948   8.290  10.455
30229W        W 2577  31.925  31.059   3.310
30230W        W 2578  10.179   2.854  14.765
30231W        W 2579   5.823  25.199   4.292
30232W        W 2580  41.325  12.265   3.686
30233W        W 2581  43.287   3.446   0.851
30234W        W 2582  38.846  20.661  10.131
30235W        W 2583   6.302  39.985   3.634
30236W        W 2584  16.791  22.584  11.450
30237W        W 2585  16.140  24.624   1.931
30238W        W 2586   4.235   6.805   2.375
30239W        W 2587  23.718  13.767  10.604
30240W        W 2588  15.238  21.031  12.906
30241W        W 2589  22.606  15.620  13.979
30242W        W 2590   9.349  34.032  13.516
30243W        W 2591  29.652   7.723   1.753
30244W        W 2592  38.908  12.844   3.715
30245W        W 2593   1.350  20.605   0.411
30246W        W 2594  31.140  31.558   0.758
30247W        W 2595  19.752  10.797   2.250
30248W        W 2596  25.973   2.787   4.304
30249W        W 2597  27.498  11.717  13.877
30250W        W 2598  19.108  38.850  13.048
30251W        W 2599  20.683  15.584   2.713
30252W        W 2600  39.374   0.921   0.255
30253W        W 2601  26.113  11.696   4.722
30254W        W 2602   9.873  18.745   3.300
30255W        W 2603  11.346  25.147   2.287
30256W        W 2604  21.116  22.109   1.814
30257W        W 2605   1.411  18.268   2.193
30258W        W 2606  38.515   1.254   4.137
30259W        W 2607  26.657  37.337   5.139
30260W        W 2608   7.300   5.734   2.363
30261W        W 2609  43.773   7.177   2.355
30262W        W 2610  11.267  28.548  13.468
30263W        W 2611   6.388   5.760   0.353
30264W        W 2612  41.933  11.851  14.997
30265W        W 2613  30.500  26.171  12.830
30266W        W 2614   7.290  40.475   4.625
30267W        W 2615   9.233  10.809   0.383
30268W        W 2616  17.172  18.162   4.294
30269W        W 2617   8.752  37.834  14.934
30270W        W 2618  15.099  35.057   4.161
30271W        W 2619  42.886  28.010  10.440
30272W        W 2620  33.590  17.215  11.992
30273W        W 2621   0.384  11.360  12.890
30274W        W 2622  42.359  25.597   3.657
30275W        W 2623  42.388  22.207  12.910
30276W        W 2624   5.734  38.935   0.362
30277W        W 2625  36.451  23.671  12.872
30278W        W 2626  12.324  33.912   3.764
30279W        W 2627  21.127  22.538  14.010
30280W        W 2628  11.340  27.163  13.920
30281W        W 2629  12.251  10.791   0.344
30282W        W 2630  36.063  27.087  10.932
30283W        W 2631   1.739  39.936   3.217
30284W        W 2632  41.352  20.568  11.452
30285W        W 2633  38.390  10.827   1.447
30286W        W 2634  19.633  34.406   2.341
30287W        W 2635  34.876  37.894   2.346
30288W        W 2636   7.192  33.560  11.955
30289W        W 2637  25.037  39.910   3.743
30290W        W 2638  43.843  15.219  14.898
30291W        W 2639  33.443  35.566  13.017
30292W        W 2640  35.476  21.669  10.603
30293W        W 2641  13.751  28.598  14.942
30294W        W 2642  11.256  24.556   1.384
30295W        W 2643   1.479  10.846  12.993
30296W        W 2644   8.900  35.490  13.951
30297W        W 2645  24.124  23.103  13.004
30298W        W 2646   1.372  43.516   0.288
30299W        W 2647  26.588   4.906   0.903
30300W        W 2648  31.604   4.389   1.851
30301W        W 2649  18.756  27.521  13.518
30302W        W 2650  25.489  19.199   0.284
30303W        W 2651  25.118  33.523  14.907
30304W        W 2652   7.240  27.655  10.535
30305W        W 2653  14.152  22.134  11.052
30306W        W 2654  14.592  20.083  11.391
30307W        W 2655   4.392  26.116  13.328
30308W        W 2656  43.909  34.505   1.366
30309W        W 2657  14.627   1.973  10.022
30310W        W 2658   9.761  14.136  11.018
30311W        W 2659  35.376  31.959  11.865
30312W        W 2660   2.248  31.140   4.240
30313W        W 2661  28.936   9.192  12.976
30314W        W 2662  28.070  39.016   1.370
30315W        W 2663  36.970  16.123  11.878
30316W        W 2664  30.459  22.610   1.234
30317W        W 2665  22.065  18.114  13.341
30318W        W 2666  30.974  10.381   3.745
30319W        W 2667   8.271  14.599  14.010
30320W        W 2668  22.590   0.367  12.388
30321W        W 2669  26.690  43.774  12.982
30322W        W 2670   2.883  11.837  12.475
30323W        W 2671  32.404  36.020  13.489
30324W        W 2672  22.542   7.329   3.329
30325W        W 2673  29.093  19.602   2.345
30326W        W 2674  31.412  22.153   3.816
30327W        W 2675  30.582  41.868   4.700
30328W        W 2676  42.393  31.045  10.979
30329W        W 2677  36.548  17.168  12.372
30330W        W 2678  18.563  37.539  13.840
30331W        W 2679  30.108   7.255   1.909
30332W        W 2680  27.681  32.614  13.050
30333W        W 2681  41.361  27.153   2.851
30334W        W 2682   7.377  19.701  14.277
30335W        W 2683  42.863  39.936  12.862
30336W        W 2684  23.499  37.379  12.081
30337W        W 2685   5.258  24.036   3.691
30338W        W 2686   8.185  43.366  11.970
30339W        W 2687  10.383   4.704   4.325
30340W        W 2688  44.260   1.902  11.440
30341W        W 2689  19.670   4.883  12.090
30342W        W 2690   7.338   1.450  10.954
30343W        W 2691   1.309  21.228  10.554
30344W        W 2692  17.692   7.205   1.896
30345W        W 2693  26.557  21.254  13.914
30346W        W 2694  42.334   3.918   3.305
30347W        W 2695  21.033  26.052  11.991
30348W        W 2696  15.180  36.993  14.025
30349W        W 2697  32.974   9.702   1.227
30350W        W 2698   4.754  23.075  11.033
30351W        W 2699  40.805   9.730   0.904
30352W        W 2700  42.021  32.620   1.333
30353W        W 2701  36.460  42.344  13.820
30354W        W 2702  35.583   7.765   0.381
30355W        W 2703   1.900   8.753  11.939
30356W        W 2704  35.880  43.764   3.822
30357W        W 2705  29.586  19.078   3.830
30358W        W 2706  20.100  27.690   3.748
30359W        W 2707  43.866  33.431  11.612
30360W        W 2708  31.074  43.450   3.286
30361W        W 2709  34.443  37.445  12.033
30362W        W 2710  32.392  21.187  10.500
30363W        W 2711  22.570  12.138   1.921
30364W        W 2712   4.239  41.358   3.360
30365W        W 2713  18.259  16.789   3.782
30366W        W 2714   6.250   1.388   0.441
30367W        W 2715  16.206  34.037   2.366
30368W        W 2716  30.957  24.069  11.975
30369W        W 2717  32.099  36.372   0.920
30370W        W 2718  41.328  23.031   0.293
30371W        W 2719  30.575  16.284   0.375
30372W        W 2720  36.369   7.330  14.820
30373W        W 2721   3.710  37.024   3.752
30374W        W 2722  36.916  29.525   4.138
30375W        W 2723  25.673  13.306  12.869
30376W        W 2724  12.353  31.571  10.546
30377W        W 2725   2.965  36.533   2.226
30378W        W 2726  13.752  23.166  12.864
30379W        W 2727  35.471  14.776   0.383
30380W        W 2728  29.602   9.718   3.641
30381W        W 2729  17.754  18.647  10.991
30382W        W 2730  27.067  39.519  13.824
30383W        W 2731  19.727  28.999   4.665
30384W        W 2732  42.839  33.494   3.728
30385W        W 2733  26.096  28.666   0.290
30386W        W 2734  31.043  39.965   1.364
30387W        W 2735  41.808  22.197   0.432
30388W        W 2736  21.203  35.391  14.474
30389W        W 2737  15.198  13.309  12.876
30390W        W 2738  19.706  12.844  13.053
30391W        W 2739  33.126   9.154  14.870
30392W        W 2740  26.687   8.875  11.400
30393W        W 2741  12.821  32.112   3.867
30394W        W 2742   3.348  27.022   0.426
30395W        W 2743  27.492  40.907  12.513
30396W        W 2744  15.788  20.250   2.186
30397W        W 2745  24.716   1.390  10.436
30398W        W 2746  42.387   3.228   3.207
30399W        W 2747  39.374  36.549  13.827
30400W        W 2748  29.621  31.963  13.915
30401W        W 2749   8.789  31.605   1.799
30402W        W 2750  34.404  31.581   4.286
30403W        W 2751   4.738  21.206  13.905
30404W        W 2752  32.989  37.380  13.441
30405W        W 2753   9.770  27.107   2.846
30406W        W 2754   5.875  20.682   2.213
30407W        W 2755   2.338  38.004  11.972
30408W        W 2756  11.667   6.712  10.118
30409W        W 2757  11.301   6.677   0.937
30410W        W 2758   5.272   3.906  13.831
30411W        W 2759  36.976  25.518  12.557
30412W        W 2760  20.137  29.512   1.842
30413W        W 2761   9.778  16.766   3.797
30414W        W 2762  29.936  23.594  11.001
30415W        W 2763  38.932   0.285   2.402
30416W        W 2764  33.385  44.825  11.567
30417W        W 2765  27.593   8.335  11.890
30418W        W 2766   6.755   9.192  13.795
30419W        W 2767  31.003  43.931   0.800
30420W        W 2768   8.685  28.451  11.981
30421W        W 2769  37.082  21.245  13.944
30422W        W 2770   6.246  22.251   3.843
30423W        W 2771  26.137   3.370   1.888
30424W        W 2772   6.840  27.468  12.032
30425W        W 2773  14.234  26.655  14.833
30426W        W 2774  24.688   5.860   3.808
30427W        W 2775  40.050  28.987  12.093
30428W        W 2776  32.570  33.898   4.838
30429W        W 2777  18.703  43.421   2.817
30430W        W 2778  24.666  12.767  11.452
30431W        W 2779  32.117  10.834   3.854
30432W        W 2780  39.497  33.549  11.034
30433W        W 2781   5.268   8.820   2.774
30434W        W 2782  42.787  44.862   0.899
30435W        W 2783  27.056   5.854   0.850
30436W        W 2784  44.940   0.928   1.826
30437W        W 2785  17.088   6.849  13.384
30438W        W 2786   7.236  20.260  11.973
30439W        W 2787  14.653  44.842   1.878
30440W        W 2788  13.666  39.372   1.400
30441W        W 2789  31.082  18.626   1.423
30442W        W 2790  28.092  15.715  12.545
30443W        W 2791  32.595  42.413   3.380
30444W        W 2792   0.270  20.714   0.244
30445W        W 2793  42.490  39.407   0.256
30446W        W 2794   6.749  39.391  13.340
30447W        W 2795   5.759   5.844   2.808
30448W        W 2796  25.991  38.838   3.368
30449W        W 2797   3.861  13.813  11.895
30450W        W 2798  22.192  10.759   1.322
30451W        W 2799  19.203  24.628   0.448
30452W        W 2800  29.935  31.049   4.164
30453W        W 2801  14.239   8.808  13.526
30454W        W 2802  32.139  13.128   4.734
30455W        W 2803  10.744  21.059   4.646
30456W        W 2804  29.985  35.503   3.329
30457W        W 2805  43.460  15.583  10.424
30458W        W 2806  26.568  34.017  12.970
30459W        W 2807  18.217  14.270   3.638
30460W        W 2808  34.501  42.787   1.263
30461W        W 2809  17.782  11.680  12.025
30462W        W 2810  17.755  18.164  14.968
30463W        W 2811  14.194  17.687   0.424
30464W        W 2812  16.269  32.072  14.494
30465W        W 2813  35.059  39.052  10.426
30466W        W 2814  43.442  21.147  10.590
30467W        W 2815  25.999   6.306  12.865
30468W        W 2816  17.717   4.845  10.502
30469W        W 2817  28.528  34.613   3.246
30470W        W 2818  43.407   8.890  10.007
30471W        W 2819  10.734  39.857   4.253
30472W        W 2820  30.988   3.226   1.291
30473W        W 2821   2.915  26.979  12.923
30474W        W 2822  13.716   4.218   4.305
30475W        W 2823  28.131  43.399  12.941
30476W        W 2824  43.490  26.578  10.641
30477W        W 2825  20.031   7.704   2.850
30478W        W 2826  14.260  39.369  10.957
30479W        W 2827   3.432  40.920   1.342
30480W        W 2828   7.891   3.388  14.490
30481W        W 2829  31.402  32.552  14.341
30482W        W 2830   1.922  37.377  11.503
30483W        W 2831  25.476  15.768   4.646
30484W        W 2832   2.726  43.323  13.449
30485W        W 2833  30.579  22.673   1.745
30486W        W 2834  42.520  37.369  12.983
30487W        W 2835  39.029   1.309   1.341
30488W        W 2836  18.665  21.163  13.328
30489W        W 2837   2.322  15.175   0.296
30490W        W 2838   4.711   9.167  11.612
30491W        W 2839  35.485  23.663   0.354
30492W        W 2840  10.374  14.724  13.466
30493W        W 2841  29.127  12.846   2.676
30494W        W 2842  12.316  23.037   0.467
30495W        W 2843  41.375  27.015   4.802
30496W        W 2844  34.048  16.309  12.936
30497W        W 2845  11.179  43.500  11.412
30498W        W 2846  42.885  11.812   2.249
30499W        W 2847  30.484  33.881   2.785
30500W        W 2848  15.663  10.645   0.315
30501W        W 2849   9.801   3.458   1.414
30502W        W 2850  10.194  12.285  11.922
30503W        W 2851  16.247  18.198  13.805
30504W        W 2852  27.547   7.707  10.520
30505W        W 2853  33.513   6.806   4.634
30506W        W 2854  28.991  32.120   3.362
30507W        W 2855  35.953  43.931   1.281
30508W        W 2856  31.470  12.802   1.925
30509W        W 2857  20.170  12.796   1.342
30510W        W 2858  31.113  32.496   4.723
30511W        W 2859  34.042   8.173  10.643
30512W        W 2860  38.932  10.647  11.561
30513W        W 2861  10.844  42.800   1.400
30514W        W 2862  25.154   6.326  12.840
30515W        W 2863  19.557  34.408  14.873
30516W        W 2864  11.249  30.030  14.313
30517W        W 2865   1.478  23.601  11.390
30518W        W 2866   7.698   2.739   0.303
30519W        W 2867   7.777  26.206  12.870
30520W        W 2868   5.229  33.115  13.926
30521W        W 2869  42.401   4.800   1.314
30522W        W 2870   7.377   3.847   2.895
30523W        W 2871  10.817  43.397   1.404
30524W        W 2872  44.005  17.566  12.355
30525W        W 2873  40.843  20.572   0.435
30526W        W 2874   0.938  18.218  12.375
30527W        W 2875  12.345  33.964  14.784
30528W        W 2876  39.441  32.518  11.460
30529W        W 2877   0.775   6.366  14.342
30530W        W 2878  26.059  12.352  10.955
30531W        W 2879  22.173  26.168   3.341
30532W        W 2880  29.936   6.220   1.797
30533W        W 2881  39.328  20.090   3.854
30534W        W 2882   3.896  17.114  13.914
30535W        W 2883  23.588   3.309   1.408
30536W        W 2884  12.272   9.749   2.669
30537W        W 2885  31.470   8.671  12.536
30538W        W 2886  20.142   9.289   3.155
30539W        W 2887  35.996  31.926  10.407
30540W        W 2888  31.583  41.295  14.922
30541W        W 2889  18.191  33.505  14.419
30542W        W 2890   8.780  12.812   4.328
30543W        W 2891  38.375  17.275   3.355
30544W        W 2892  31.021  25.541  13.368
30545W        W 2893  35.568  36.530  13.968
30546W        W 2894  14.145   2.923   4.273
30547W        W 2895  16.778  19.125   1.238
30548W        W 2896  22.132  19.609   2.838
30549W        W 2897  25.067  33.995   4.667
30550W        W 2898   8.337  17.068  13.808
30551W        W 2899  33.502  28.580   2.897
30552W        W 2900  44.476  41.322   1.705
30553W        W 2901   1.315  26.158  11.081
30554W        W 2902   3.743  37.556   4.289
30555W        W 2903  19.708  28.003  14.375
30556W        W 2904  30.432  10.168  10.630
30557W        W 2905  20.687  41.879  10.412
30558W        W 2906  30.551   7.225   5.106
30559W        W 2907  15.203  13.768   3.858
30560W        W 2908  11.286  33.413  11.975
30561W        W 2909  36.498  41.344  11.372
30562W        W 2910  13.140  34.939  14.279
30563W        W 2911  34.392  27.540  13.335
30564W        W 2912  23.162  44.294   2.252
30565W        W 2913  40.355  34.373  14.813
30566W        W 2914   8.321  31.405   4.125
30567W        W 2915  31.056  13.236   3.160
30568W        W 2916  41.789  13.161  12.502
30569W        W 2917  43.946  44.305   0.954
30570W        W 2918  34.911  23.508  13.027
30571W        W 2919  26.462  25.055   3.279
30572W        W 2920  29.967  12.797   1.699
30573W        W 2921  40.394  43.453  13.825
30574W        W 2922  41.825  22.125   2.682
30575W        W 2923  28.627  41.951  10.465
30576W        W 2924   6.418  38.860   2.876
30577W        W 2925  23.217  11.197  10.422
30578W        W 2926  13.749  35.900   4.812
30579W        W 2927  10.805  17.796   0.410
30580W        W 2928  30.621  30.936  10.564
30581W        W 2929  35.035  42.315  13.520
30582W        W 2930   8.263  12.247   2.897
30583W        W 2931   5.787   2.412   1.876
30584W        W 2932  18.224  32.100   0.406
30585W        W 2933   2.908  19.284  11.923
30586W        W 2934  25.565   9.715  12.357
30587W        W 2935  19.236  34.449   0.266
30588W        W 2936  30.987  10.223   0.801
30589W        W 2937  20.550  36.430   4.298
30590W        W 2938  15.289   9.157   2.268
30591W        W 2939  13.255  32.412   2.734
30592W        W 2940  35.482  17.096  13.336
30593W        W 2941  44.398  31.570   3.275
30594W        W 2942  26.501  37.423  12.357
30595W        W 2943  17.640  44.841  12.046
30596W        W 2944  15.108  16.755  10.436
30597W        W 2945  16.791  30.961  14.011
30598W        W 2946  21.653  14.110   0.888
30599W        W 2947  35.592  15.212   2.206
30600W        W 2948   1.793  16.744  12.971
30601W        W 2949   6.907  18.158   4.808
30602W        W 2950  21.198  37.878   3.212
30603W        W 2951  37.574   7.898   5.260
30604W        W 2952  20.074  42.386  14.513
30605W        W 2953   4.874  27.629   1.893
30606W        W 2954  36.555  11.710   4.209
30607W        W 2955  33.489  29.634  14.849
30608W        W 2956   3.855   3.260   3.244
30609W        W 2957  11.695  36.523   2.742
30610W        W 2958   0.910   7.177   5.295
30611W        W 2959  27.188   9.178   3.337
30612W        W 2960  10.833  15.316  13.973
30613W        W 2961  40.818  26.113   1.827
30614W        W 2962  35.893  16.669  13.517
30615W        W 2963   8.723  28.555   3.179
30616W        W 2964   5.250   2.452  14.821
30617W        W 2965  20.100   3.826   3.333
30618W        W 2966  21.700  14.782  12.449
30619W        W 2967   3.720  30.971   1.889
30620W        W 2968  23.569  16.207   1.886
30621W        W 2969  41.434  42.846   4.684
30622W        W 2970  30.160  30.980  12.069
30623W        W 2971  20.081  35.972   4.720
30624W        W 2972  36.371  23.106   0.402
30625W        W 2973  43.954  44.420  13.025
30626W        W 2974   1.474   7.815  13.969
30627W        W 2975  14.722   1.971  12.991
30628W        W 2976  23.129  19.049  14.920
30629W        W 2977  19.283   2.327  14.515
30630W        W 2978  13.838  34.934   2.226
30631W        W 2979  20.567  15.594  13.958
30632W        W 2980  27.523  10.715  10.999
30633W        W 2981  41.348  38.025  13.943
30634W        W 2982   3.857  43.428  14.473
30635W        W 2983   4.433  29.653   3.178
30636W        W 2984  41.865  35.108   3.664
30637W        W 2985  12.719  25.138  14.805
30638W        W 2986  32.134  16.183   2.350
30639W        W 2987  23.208  29.071  14.824
30640W        W 2988  42.844  36.954  10.456
30641W        W 2989  15.129  30.014   3.634
30642W        W 2990  12.754  22.526   4.686
30643W        W 2991  23.032  16.679  11.937
30644W        W 2992  15.765  29.924  11.381
30645W        W 2993  30.163   3.835   0.726
30646W        W 2994   9.177  35.966   2.806
30647W        W 2995  32.583  12.645   5.230
30648W        W 2996  12.125   6.886  10.091
30649W        W 2997   7.339  22.167   4.326
30650W        W 2998  42.819  34.608   9.965
30651W        W 2999   3.218  40.374   2.278
30652W        W 3000  16.225   2.744  10.634
30653W        W 3001  18.692  31.526  14.302
30654W        W 3002  24.013  26.991   2.688
30655W        W 3003   1.732   4.936   0.892
30656W        W 3004  21.223  25.603   2.769
30657W        W 3005  39.047  21.585   4.629
30658W        W 3006  22.665   3.386   4.160
30659W        W 3007  28.168  40.423  13.541
30660W        W 3008  20.654   3.922  14.287
30661W        W 3009  20.120   1.404  13.908
30662W        W 3010  15.262  35.420  10.615
30663W        W 3011  27.966  38.352   1.289
30664W        W 3012   1.376  14.097   0.809
30665W        W 3013  15.184   6.355   0.956
30666W        W 3014  24.723  24.521   4.178
30667W        W 3015   9.171  36.488   2.226
30668W        W 3016  21.151   1.893   1.211
30669W        W 3017  19.117  11.331   2.870
30670W        W 3018  11.699  42.800  11.041
30671W        W 3019  39.538  18.655  14.320
30672W        W 3020  32.137  39.983   1.319
30673W        W 3021   9.342  18.603   2.868
30674W        W 3022   6.742  18.723  10.958
30675W        W 3023  17.080  33.548   3.231
30676W        W 3024   2.365   5.913   1.216
30677W        W 3025   9.763  32.441   4.335
30678W        W 3026   4.211   3.414  12.869
30679W        W 3027  17.573  39.883  14.937
30680W        W 3028   4.322  31.138   1.760
30681W        W 3029  32.408  12.615   1.258
30682W        W 3030  15.730   9.395  14.822
30683W        W 3031   6.306  15.280  14.910
30684W        W 3032  39.428  13.123  12.386
30685W        W 3033  12.692  27.057   2.245
30686W        W 3034  44.003  21.190  10.998
30687W        W 3035  43.807  32.923  13.990
30688W        W 3036   1.808  28.962   0.926
30689W        W 3037  19.177   1.842   3.293
30690W        W 3038  17.797  23.176  14.442
30691W        W 3039  27.121   0.438  14.845
30692W        W 3040  32.586  22.197  10.404
30693W        W 3041  18.692  15.625   1.839
30694W        W 3042  38.449  18.599   1.786
30695W        W 3043  10.260  18.663  13.043
30696W        W 3044  42.827  40.849  12.955
30697W        W 3045   0.314   6.252   1.747
30698W        W 3046   2.350  19.050   3.262
30699W        W 3047  43.876  29.062   1.388
30700W        W 3048  27.505  44.312   2.381
30701W        W 3049  23.704  17.267   1.848
30702W        W 3050  37.844   9.786   2.367
30703W        W 3051  10.269  19.758   0.904
30704W        W 3052  30.071  14.197   4.659
30705W        W 3053  42.999  15.713   3.246
30706W        W 3054  33.009  26.590  13.489
30707W        W 3055  18.143  43.288   1.431
30708W        W 3056  15.616  42.445  10.433
30709W        W 3057  40.047  19.128   4.164
30710W        W 3058  10.295  12.235   1.232
30711W        W 3059  21.085  33.107   2.273
30712W        W 3060  34.563  23.507   2.307
30713W        W 3061   3.427   5.809   0.762
30714W        W 3062  33.524  35.522  12.401
30715W        W 3063  13.112   7.302   2.355
30716W        W 3064  34.511  30.941  14.401
30717W        W 3065  43.855  32.519   4.639
30718W        W 3066  42.956   0.815  14.323
30719W        W 3067  25.020  18.290   3.835
30720W        W 3068   0.284  23.559  14.926
30721W        W 3069   1.738   9.645  14.815
30722W        W 3070  35.504  16.737   1.307
30723W        W 3071   2.445  43.308  13.537
30724W        W 3072  21.693   3.355  11.905
30725W        W 3073  33.014  37.496   2.240
30726W        W 3074  43.364  33.578  10.988
30727W        W 3075  25.542  11.158  12.534
30728W        W 3076  39.060  30.456   3.154
30729W        W 3077  20.542  35.457   3.791
30730W        W 3078  33.096  25.689  12.989
30731W        W 3079  34.578  15.667   3.260
30732W        W 3080  14.678   4.316   3.374
30733W        W 3081  41.326  12.152   1.215
30734W        W 3082  30.939  18.572   5.099
30735W        W 3083   2.729  14.195   3.351
30736W        W 3084  33.004  21.722  11.380
30737W        W 3085  38.066  43.425   1.832
30738W        W 3086   7.391  13.731   4.797
30739W        W 3087   2.738  36.449  11.937
30740W        W 3088  22.232   4.445   1.257
30741W        W 3089   9.159  21.516   4.216
30742W        W 3090   9.328   8.271   4.319
30743W        W 3091  36.079  44.856   4.762
30744W        W 3092  40.041  44.886  14.953
30745W        W 3093  21.224  27.051   3.630
30746W        W 3094  20.170   1.368   4.644
30747W        W 3095  26.047  37.894  10.486
30748W        W 3096  27.000  40.936  13.001
30749W        W 3097  15.781  34.076  11.000
30750W        W 3098   5.782   6.409   1.762
30751W        W 3099  31.935  44.899  11.460
30752W        W 3100   6.783  19.182  13.929
30753W        W 3101  43.977   2.778   0.912
30754W        W 3102  20.538  37.539   5.303
30755W        W 3103  16.272  21.035  12.488
30756W        W 3104   6.309  13.123  14.323
30757W        W 3105  42.891  10.282  13.372
30758W        W 3106  11.307  40.391   4.752
30759W        W 3107  44.465   2.265  13.844
30760W        W 3108  21.533   5.836   1.807
30761W        W 3109  32.129  30.083   0.917
30762W        W 3110   3.364  22.169  13.354
30763W        W 3111  32.012  39.552  13.876
30764W        W 3112   7.736  34.009   5.774
30765W        W 3113  18.091  14.605  11.000
30766W        W 3114  30.518  25.660  12.050
30767W        W 3115  22.500  36.045   1.390
30768W        W 3116   8.685  18.746   1.789
30769W        W 3117   2.889  38.951  10.096
30770W        W 3118  18.785  35.527  11.091
30771W        W 3119   4.851  15.218   1.719
30772W        W 3120  26.159  25.548  13.333
30773W        W 3121  14.747  42.456   2.308
30774W        W 3122  37.846  26.035  11.571
30775W        W 3123  22.180  26.045   4.301
30776W        W 3124   2.938   3.433   4.300
30777W        W 3125  36.519   1.918   3.234
30778W        W 3126  17.702   3.243  13.414
30779W        W 3127   7.414  14.684  12.348
30780W        W 3128  19.555  29.471   4.666
30781W        W 3129  12.305  27.169  11.472
30782W        W 3130  23.659  40.945   3.770
30783W        W 3131  41.476  10.670  11.978
30784W        W 3132  30.455  29.118  10.495
30785W        W 3133  17.736  32.083  14.787
30786W        W 3134  10.655  39.830  11.938
30787W        W 3135  30.919  21.585  10.490
30788W        W 3136   3.452   2.926   0.359
30789W        W 3137  19.111  24.487   4.169
30790W        W 3138   0.361   9.358  10.619
30791W        W 3139  15.668   6.722   3.298
30792W        W 3140  42.345  30.576  10.927
30793W        W 3141  36.413   8.878  12.921
30794W        W 3142   7.763  43.966  11.129
30795W        W 3143  12.770  35.095   0.924
30796W        W 3144  23.142  42.320  11.934
30797W        W 3145  10.140  43.811   4.278
30798W        W 3146  11.266  28.572   1.926
30799W        W 3147  23.201   0.953  11.582
30800W        W 3148   9.670  25.639   1.437
30801W        W 3149   4.813  32.079  11.925
30802W        W 3150   6.276  17.263  11.044
30803W        W 3151  21.195  14.220   4.602
30804W        W 3152   7.742   7.386   3.190
30805W        W 3153   8.258   2.900   1.787
30806W        W 3154   5.209   0.382  13.063
30807W        W 3155  37.414   0.965   4.769
30808W        W 3156   3.306  29.530  12.045
30809W        W 3157   3.850  32.627   3.209
30810W        W 3158   6.686   3.348   3.709
30811W        W 3159  26.095   2.962   0.923
30812W        W 3160  34.392  22.164  11.874
30813W        W 3161   1.440  41.454  13.015
30814W        W 3162   7.882  17.599   2.353
30815W        W 3163  18.275   1.307  13.382
30816W        W 3164   6.782  44.826  13.882
30817W        W 3165  33.442   8.347   2.760
30818W        W 3166  39.491  30.515  12.483
30819W        W 3167  20.118   3.852   3.766
30820W        W 3168  28.444  37.026  12.356
30821W        W 3169  12.260  23.653  12.531
30822W        W 3170  28.092  27.077   1.416
30823W        W 3171  11.789  40.398   1.920
30824W        W 3172  16.746  18.738   3.767
30825W        W 3173  39.532  14.282   3.277
30826W        W 3174  25.145  33.400   3.859
30827W        W 3175   3.290  25.157   0.323
30828W        W 3176  30.512  20.609  13.021
30829W        W 3177  25.043   9.743   4.147
30830W        W 3178  15.595   5.231  11.514
30831W        W 3179  41.365  21.045  11.469
30832W        W 3180  35.543  29.107   2.354
30833W        W 3181  40.910  32.620  12.970
30834W        W 3182   5.219  15.286  12.874
30835W        W 3183  37.434  39.015   0.452
30836W        W 3184  26.952  36.097   1.705
30837W        W 3185  31.442  44.798   2.201
30838W        W 3186  41.927   6.355  12.447
30839W        W 3187  13.622  38.418  12.376
30840W        W 3188  37.992  35.893  14.353
30841W        W 3189   2.415  42.836   9.957
30842W        W 3190  21.075  37.028  11.959
30843W        W 3191  30.985  23.504   4.661
30844W        W 3192  13.673   9.357   1.696
30845W        W 3193  39.544  27.979   2.298
30846W        W 3194   5.209  11.223   3.829
30847W        W 3195  22.130  18.681   3.705
30848W        W 3196  23.102   7.811   5.707
30849W        W 3197  18.649  10.211  13.493
30850W        W 3198  14.669  10.338  14.347
30851W        W 3199  44.852  24.060   0.901
30852W        W 3200  30.933  13.808  14.987
30853W        W 3201   3.863  22.738  11.422
30854W        W 3202   4.860   2.915   4.674
30855W        W 3203   6.774  35.871  12.454
30856W        W 3204  38.553  15.271   0.849
30857W        W 3205  42.025  38.860   3.199
30858W        W 3206  26.664  24.058   0.921
30859W        W 3207  32.618  10.874  14.800
30860W        W 3208  10.727   6.777  14.330
30861W        W 3209  37.059  26.956  13.397
30862W        W 3210  13.144  36.547  11.516
30863W        W 3211  27.185  21.676   3.374
30864W        W 3212  19.072  39.533   1.289
30865W        W 3213   8.866  22.732  10.106
30866W        W 3214   2.855  34.042  13.902
30867W        W 3215  35.468   2.826  11.498
30868W        W 3216  44.385  42.522  13.957
30869W        W 3217   6.315  14.171   5.137
30870W        W 3218  30.926   8.378   4.620
30871W        W 3219  39.989  26.079  10.951
30872W        W 3220   2.226  20.258   0.254
30873W        W 3221   1.757   7.826   1.769
30874W        W 3222  36.939  22.622  10.585
30875W        W 3223  29.979  38.444   1.357
30876W        W 3224  26.510  34.475  10.633
30877W        W 3225  25.019  35.564  12.518
30878W        W 3226   0.471  10.343   2.741
30879W        W 3227  14.699  14.116   2.667
30880W        W 3228  15.103   8.332  11.435
30881W        W 3229  43.950  17.249  13.460
30882W        W 3230   6.755   5.433   1.275
30883W        W 3231  24.526   3.338  11.054
30884W        W 3232  42.840   6.774  12.370
30885W        W 3233  33.625  28.067  14.979
30886W        W 3234  24.184  13.844   1.724
30887W        W 3235  32.123  36.945  14.295
30888W        W 3236  28.455   5.218  10.908
30889W        W 3237  43.417  31.489   2.356
30890W        W 3238  24.597  40.511  12.520
30891W        W 3239  10.309  14.181   2.364
30892W        W 3240  36.868  27.503  10.933
30893W        W 3241  34.937   6.393  11.389
30894W        W 3242  36.844  17.122   0.405
30895W        W 3243  15.624  16.309  13.318
30896W        W 3244  15.800  36.592  12.950
30897W        W 3245  22.743  10.664  14.459
30898W        W 3246  36.921  15.774   3.363
30899W        W 3247   2.831  39.329   4.612
30900W        W 3248  38.476  12.248   2.803
30901W        W 3249  12.295  43.874  12.526
30902W        W 3250   0.454   9.302  12.077
30903W        W 3251  38.517   3.859   1.828
30904W        W 3252  11.234   1.397   2.385
30905W        W 3253   8.896   7.721   0.769
30906W        W 3254  40.467   7.281   2.342
30907W        W 3255  21.629   3.231  14.457
30908W        W 3256  40.801  30.510  11.868
30909W        W 3257  44.879  11.236  11.415
30910W        W 3258  27.453  41.439   3.371
30911W        W 3259  34.416  35.903   1.437
30912W        W 3260  27.974   7.224  13.033
30913W        W 3261   6.244  31.038  10.892
30914W        W 3262   9.737  24.083  11.883
30915W        W 3263   7.769  42.804  14.966
30916W        W 3264  34.115  19.198   1.355
30917W        W 3265  29.006  18.566  10.945
30918W        W 3266  28.026   5.401  10.404
30919W        W 3267  37.014   7.797   4.136
30920W        W 3268  21.126  29.552   0.275
30921W        W 3269  21.678  24.043  11.493
30922W        W 3270   2.861  33.937   1.897
30923W        W 3271  40.534   3.279   4.303
30924W        W 3272  16.575  22.126  10.926
30925W        W 3273  19.616  10.870  12.485
30926W        W 3274   7.757  27.519  13.038
30927W        W 3275  34.925  20.612   3.387
30928W        W 3276  25.146  11.261  12.905
30929W        W 3277  17.083  33.014  14.882
30930W        W 3278  19.662  12.291  11.523
30931W        W 3279  30.126   6.289   4.612
30932W        W 3280  21.072   1.732   0.344
30933W        W 3281  10.827   1.382  12.022
30934W        W 3282  40.025  41.502  12.353
30935W        W 3283  14.764  10.712  14.899
30936W        W 3284   2.867  19.071  10.432
30937W        W 3285  36.874  41.971   0.294
30938W        W 3286  32.065   6.237   2.301
30939W        W 3287  12.329  43.973  12.939
30940W        W 3288  29.630  22.100  13.380
30941W        W 3289   0.479  16.686  11.893
30942W        W 3290  20.146   3.756   0.473
30943W        W 3291  25.090   5.305   4.610
30944W        W 3292  28.945   8.682  13.477
30945W        W 3293  44.817  36.923  11.125
30946W        W 3294  10.754  30.116  13.912
30947W        W 3295  32.600  13.192   2.383
30948W        W 3296   0.380  40.949   2.740
30949W        W 3297  42.321   9.844   2.698
30950W        W 3298  39.858  20.142   4.777
30951W        W 3299  19.209  39.493  14.028
30952W        W 3300  30.025   4.319   4.218
30953W        W 3301  14.677  21.125  10.572
30954W        W 3302  20.036  34.889   5.094
30955W        W 3303  28.621   6.339  11.910
30956W        W 3304   3.823  23.671   2.383
30957W        W 3305  31.594  42.310  12.533
30958W        W 3306   4.295   7.291   3.235
30959W        W 3307  10.287   0.981   3.352
30960W        W 3308  41.466  10.770   0.380
30961W        W 3309  29.958   8.247  13.483
30962W        W 3310  22.216  22.182  11.938
30963W        W 3311  10.864  39.410   0.839
30964W        W 3312  44.963  40.809   3.762
30965W        W 3313   9.238  13.816   1.829
30966W        W 3314   9.222  36.919  11.533
30967W        W 3315  41.322  33.968   0.824
30968W        W 3316  40.540   6.279   5.152
30969W        W 3317  31.410  41.940   3.359
30970W        W 3318  19.168   4.331  12.564
30971W        W 3319  13.710   8.735   1.249
30972W        W 3320   8.656  42.775   0.335
30973W        W 3321   4.333   5.921  12.439
30974W        W 3322  20.652  26.134   1.240
30975W        W 3323  12.722   4.400   0.737
30976W        W 3324  23.630   6.808  13.425
30977W        W 3325   4.879  39.051  12.911
30978W        W 3326  40.851  24.628  12.381
30979W        W 3327  39.368  23.570   3.233
30980W        W 3328   6.883  37.961  11.486
30981W        W 3329  40.462  23.144   2.669
30982W        W 3330   0.285  14.169   3.790
30983W        W 3331  37.449  32.577   3.306
30984W        W 3332   1.478  24.157   2.380
30985W        W 3333  40.535  41.328  12.500
30986W        W 3334  29.454  35.005  14.474
30987W        W 3335  22.592  22.251   2.719
30988W        W 3336   4.426  33.557  14.992
30989W        W 3337  35.871  27.178  14.804
30990W        W 3338  23.056  36.397  11.993
30991W        W 3339  13.304  41.827  11.552
30992W        W 3340  42.857  20.232   0.875
30993W        W 3341  42.847  44.962   3.157
30994W        W 3342  39.458  34.456  11.522
30995W        W 3343   5.267   8.717  12.912
30996W        W 3344  12.656  39.851   0.822
30997W        W 3345  23.512  37.054   2.399
30998W        W 3346   2.945  32.941   2.816
30999W        W 3347  33.583  13.746   0.457
31000W        W 3348  16.230  44.358   2.258
31001W        W 3349  30.978  24.983   2.760
31002W        W 3350   2.859  10.756  10.588
31003W        W 3351  23.495  27.606   3.763
31004W        W 3352  37.976  21.050  14.856
31005W        W 3353  15.168  16.120  11.398
31006W        W 3354  20.645  15.233   0.256
31007W        W 3355   8.813  38.493  11.473
31008W        W 3356   6.333  29.134  12.435
31009W        W 3357  15.776  43.404   0.381
31010W        W 3358   1.777  15.592  13.991
31011W        W 3359  21.088   2.911  14.906
31012W        W 3360   1.398  30.592  10.423
31013W        W 3361  17.722  35.893  12.982
31014W        W 3362  25.664   3.303  11.049
31015W        W 3363  35.488   7.791  14.929
31016W        W 3364  17.085  12.716  14.437
31017W        W 3365  28.049  14.331   5.183
31018W        W 3366  22.212  21.658  11.085
31019W        W 3367  18.778   8.696   5.117
31020W        W 3368   0.913  44.814   0.819
31021W        W 3369  44.476  43.381   1.249
31022W        W 3370  35.094   2.764  10.985
31023W        W 3371  22.714  31.145  13.327
31024W        W 3372  19.057  30.109   0.264
31025W        W 3373  17.261  32.599  11.883
31026W        W 3374   7.711  16.200  14.781
31027W        W 3375  14.827  21.051  14.025
31028W        W 3376   9.848   0.794   0.268
31029W        W 3377  25.205   5.378  13.447
31030W        W 3378  28.451  43.980   4.286
31031W        W 3379  32.546  36.047   1.705
31032W        W 3380  18.247   9.886   3.255
31033W        W 3381  35.953  23.728  12.492
31034W        W 3382  24.106   1.410   2.294
31035W        W 3383  44.473  44.989   4.809
31036W        W 3384  20.161  21.081  11.508
31037W        W 3385  19.281  11.658  11.066
31038W        W 3386  30.571  22.186  11.963
31039W        W 3387  24.195  13.820   2.867
31040W        W 3388  31.043  31.534  13.919
31041W        W 3389  15.256   3.272  14.339
31042W        W 3390  19.059  13.290   3.335
31043W        W 3391  27.120  15.309  14.023
31044W        W 3392   7.392  23.082  10.892
31045W        W 3393  15.633   2.889   4.603
31046W        W 3394   0.293  34.481   1.886
31047W        W 3395  16.146  30.085  12.500
31048W        W 3396  43.462   9.310  13.807
31049W        W 3397  14.338  23.183   3.660
31050W        W 3398   5.226  30.103  10.438
31051W        W 3399  13.669  35.988   3.228
31052W        W 3400  17.738  24.978  10.959
31053W        W 3401   9.782  41.402  12.972
31054W        W 3402  17.151  18.760  10.406
31055W        W 3403  38.520  14.719  13.355
31056W        W 3404  44.983  34.075  13.510
31057W        W 3405  19.771  16.089   0.481
31058W        W 3406  22.657  30.985   2.816
31059W        W 3407  37.398  32.949   0.358
31060W        W 3408  10.728  39.002   3.759
31061W        W 3409  39.906  16.629  13.418
31062W        W 3410   6.901  23.045   3.205
31063W        W 3411  14.244  38.394   4.280
31064W        W 3412   4.240  28.940  10.640
31065W        W 3413   6.394  20.561  11.067
31066W        W 3414  17.123  40.543   2.794
31067W        W 3415  25.982   7.900   1.908
31068W        W 3416  36.582  17.558   1.303
31069W        W 3417  17.147  41.863   3.711
31070W        W 3418  12.207   7.184   4.271
31071W        W 3419  37.358  31.513   1.809
31072W        W 3420   6.837  25.626   1.234
31073W        W 3421  44.932  23.714  11.590
31074W        W 3422  38.527  31.091  11.431
31075W        W 3423  26.200  19.626  14.354
31076W        W 3424  23.093   0.250  13.516
31077W        W 3425  42.929  29.156  10.960
31078W        W 3426  26.012  37.022   4.271
31079W        W 3427  39.367  20.620  13.435
31080W        W 3428   5.354   0.305  11.479
31081W        W 3429  16.705   5.713   3.843
31082W        W 3430  43.305  32.120  14.849
31083W        W 3431  27.461  18.754   0.773
31084W        W 3432  14.769  44.297   9.982
31085W        W 3433  10.638  27.954   1.901
31086W        W 3434  38.836  33.534   0.767
31087W        W 3435  14.635   7.270   5.198
31088W        W 3436  25.168  22.071  11.019
31089W        W 3437  30.115  34.392  13.524
31090W        W 3438  22.250   2.472  13.861
31091W        W 3439  35.092  24.616  11.479
31092W        W 3440  18.770  12.279   1.760
31093W        W 3441  16.122  28.678  14.515
31094W        W 3442   7.413  28.547   4.832
31095W        W 3443  44.988   0.347  10.901
31096W        W 3444  30.115   6.326  12.853
31097W        W 3445  42.888   4.257   2.312
31098W        W 3446  13.825  35.534   0.952
31099W        W 3447  35.403   8.193  14.814
31100W        W 3448  37.350  42.346  10.417
31101W        W 3449  43.504  41.003   4.754
31102W        W 3450   6.241   2.398   2.280
31103W        W 3451  34.562  36.365  14.912
31104W        W 3452  39.460  23.120  11.098
31105W        W 3453  39.516   5.429  13.338
31106W        W 3454  29.427  36.453   1.270
31107W        W 3455  15.799  29.427  10.442
31108W        W 3456  13.133  18.199  12.078
31109W        W 3457  16.677   7.910   1.315
31110W        W 3458  33.888  26.095  13.444
31111W        W 3459  23.634   8.312  13.508
31112W        W 3460  20.670   4.934   4.631
31113W        W 3461   9.682  20.050   1.427
31114W        W 3462  25.599  21.069   4.147
31115W        W 3463  42.926   3.880   4.806
31116W        W 3464  23.692  21.524   2.755
31117W        W 3465  10.209  15.136   4.254
31118W        W 3466  44.811   1.966  11.583
31119W        W 3467  11.767  30.521   2.343
31120W        W 3468   8.895  10.207  13.035
31121W        W 3469  25.094   6.814  12.903
31122W        W 3470  35.910  39.855   4.828
31123W        W 3471   7.899  33.608   3.791
31124W        W 3472   2.308  41.899   3.763
31125W        W 3473   1.371  21.709   2.783
31126W        W 3474  16.115  21.705   0.804
31127W        W 3475  19.591  19.165   4.742
31128W        W 3476  41.910   6.880  12.504
31129W        W 3477  33.560   2.779   2.252
31130W        W 3478  40.454   6.222  13.908
31131W        W 3479  14.139  23.068   4.627
31132W        W 3480  33.539   2.354  11.484
31133W        W 3481  34.385  29.444   3.331
31134W        W 3482  34.046   0.744  13.972
31135W        W 3483   5.922   0.377  10.485
31136W        W 3484  28.935   7.348  13.518
31137W        W 3485  27.995  23.657  12.993
31138W        W 3486  44.492  12.226  14.404
31139W        W 3487  35.987  34.539  12.838
31140W        W 3488  26.602   4.824  14.310
31141W        W 3489   8.876  34.865   4.162
31142W        W 3490   0.765  35.492   0.313
31143W        W 3491  19.585   5.419   3.347
31144W        W 3492  22.551  26.992  10.501
31145W        W 3493   1.839  17.208  14.333
31146W        W 3494  22.699  36.544   4.180
31147W        W 3495   5.843  17.167  10.935
31148W        W 3496  15.583  27.535  13.803
31149W        W 3497  15.728   6.702   2.366
31150W        W 3498  37.041  27.654   0.463
31151W        W 3499   8.259  17.799   4.794
31152W        W 3500  14.271  18.154   3.290
31153W        W 3501  10.720  19.771  10.470
31154W        W 3502  18.083   7.398   1.879
31155W        W 3503  24.157  24.178  12.477
31156W        W 3504  22.221  13.650  14.812
31157W        W 3505  32.077  22.187  10.938
31158W        W 3506  15.138   3.266   0.859
31159W        W 3507   2.394  30.996   2.336
31160W        W 3508  20.192  19.671   0.382
31161W        W 3509  15.751  30.421  11.563
31162W        W 3510  12.641  39.041   4.154
31163W        W 3511  30.129  20.144   0.471
31164W        W 3512  18.099  32.568   2.703
31165W        W 3513  19.255  29.106  13.996
31166W        W 3514  10.237  38.066   2.870
31167W        W 3515   4.703   8.698   4.780
31168W        W 3516   3.391  34.479  13.363
31169W        W 3517  13.774  37.531   2.901
31170W        W 3518  36.367  17.272   0.741
31171W        W 3519   4.706  38.863   1.245
31172W        W 3520  28.674   8.673   2.263
31173W        W 3521  35.094  31.442   4.702
31174W        W 3522  34.090  10.775  14.992
31175W        W 3523  12.742  20.548  14.026
31176W        W 3524   1.870   9.683   1.277
31177W        W 3525  34.910  21.718  11.431
31178W        W 3526   9.703  42.999   4.306
31179W        W 3527  26.049  13.724   2.365
31180W        W 3528  10.360  43.802   4.768
31181W        W 3529  17.616   4.838  12.075
31182W        W 3530   9.860  12.697  14.872
31183W        W 3531  26.146  11.358   3.319
31184W        W 3532   3.797  26.970   4.759
31185W        W 3533  11.717  12.194  11.574
31186W        W 3534  13.624  43.363  11.921
31187W        W 3535  21.221  42.388  10.945
31188W        W 3536  17.778  41.493  13.035
31189W        W 3537  20.718  13.742  12.357
31190W        W 3538  11.145   7.672   3.859
31191W        W 3539   2.941  39.907  13.338
31192W        W 3540  11.818   8.325   4.116
31193W        W 3541   4.885   0.782   2.257
31194W        W 3542  18.550  39.993   4.700
31195W        W 3543  27.467  38.839  12.540
31196W        W 3544   4.797   8.674  12.044
31197W        W 3545  21.184  10.258   4.615
31198W        W 3546  15.281  21.620   1.710
31199W        W 3547  19.605  27.676  14.966
31200W        W 3548   4.878  35.049   0.255
31201W        W 3549  41.033  30.147   1.426
31202W        W 3550   5.928  16.578   2.861
31203W        W 3551   9.312  24.678   2.794
31204W        W 3552   3.794  22.741   4.248
31205W        W 3553  24.095  20.120  11.512
31206W        W 3554  16.749  12.738  12.410
31207W        W 3555  32.002   6.891   1.336
31208W        W 3556  24.085   9.294  14.906
31209W        W 3557  13.293  34.023  11.982
31210W        W 3558   5.208  41.858   4.135
31211W        W 3559   0.308  15.326   1.234
31212W        W 3560  31.443   9.649  14.449
31213W        W 3561   7.886  43.857   2.864
31214W        W 3562  11.739  13.175   3.208
31215W        W 3563  16.229   2.381   3.743
31216W        W 3564  18.160  17.694  14.017
31217W        W 3565  43.355   1.244  10.930
31218W        W 3566   7.292  12.349   4.344
31219W        W 3567  24.979  31.053   2.802
31220W        W 3568  29.929  23.590   2.406
31221W        W 3569  34.098   8.381  12.038
31222W        W 3570  38.554  30.559  10.629
31223W        W 3571  20.723  10.341  10.936
31224W        W 3572  12.334  43.476  14.875
31225W        W 3573  34.921  29.646  10.595
31226W        W 3574  19.652  39.971   0.873
31227W        W 3575  38.048  26.142   1.323
31228W        W 3576  32.422  39.810   2.269
31229W        W 3577   4.780  14.621  13.874
31230W        W 3578  16.676  31.612   4.715
31231W        W 3579  29.936  29.492  10.446
31232W        W 3580   8.716  25.051  13.477
31233W        W 3581  10.290  26.564  13.047
31234W        W 3582  43.968  14.261   3.229
31235W        W 3583  32.043  40.427  13.494
31236W        W 3584   7.379   4.794  13.333
31237W        W 3585  23.168  27.984   3.691
31238W        W 3586   6.725  25.005   1.899
31239W        W 3587  43.998  16.258   4.207
31240W        W 3588  35.396  44.460   0.297
31241W        W 3589  13.838  15.305   0.954
31242W        W 3590   8.862   8.366  14.298
31243W        W 3591   7.325  29.146  11.041
31244W        W 3592  11.202  18.787   2.219
31245W        W 3593   5.197  26.092   4.769
31246W        W 3594  25.071  21.058   0.421
31247W        W 3595  13.658  14.735  10.430
31248W        W 3596  15.727  28.026  11.021
31249W        W 3597  23.132  38.942  10.544
31250W        W 3598  20.155  24.999   0.287
31251W        W 3599  18.574  12.674  13.430
31252W        W 3600  38.005  41.796   4.302
31253W        W 3601  15.811  20.130   0.408
31254W        W 3602   2.357  21.616  12.904
31255W        W 3603  31.604  26.617  12.545
31256W        W 3604  23.706  42.946  11.991
31257W        W 3605  39.500  24.530  10.986
31258W        W 3606  19.108   7.791  13.483
31259W        W 3607  28.584  14.754  11.859
31260W        W 3608  25.019  31.559  13.797
31261W        W 3609  32.030   3.826   4.819
31262W        W 3610  44.927  18.760   4.133
31263W        W 3611  42.448  14.647   1.259
31264W        W 3612  29.513  14.201   2.341
31265W        W 3613  12.723  36.024   0.874
31266W        W 3614  15.606  17.197   4.168
31267W        W 3615  13.691   4.252   0.813
31268W        W 3616   4.826   3.270  14.506
31269W        W 3617  10.769  27.561   2.383
31270W        W 3618  17.300  26.551  14.930
31271W        W 3619   1.401   1.736   4.689
31272W        W 3620  29.476  41.454  12.031
31273W        W 3621  44.280  23.523   4.239
31274W        W 3622   2.321  36.067  14.857
31275W        W 3623  22.022   5.897  14.842
31276W        W 3624  17.584  10.352  12.031
31277W        W 3625  31.060   5.227  10.969
31278W        W 3626   6.914  37.473   4.143
31279W        W 3627  24.116  17.765   3.164
31280W        W 3628   7.175  36.893  13.813
31281W        W 3629  29.595  30.043  12.973
31282W        W 3630  32.093  11.367  11.050
31283W        W 3631  32.945  19.231   1.739
31284W        W 3632  36.039  37.892   3.294
31285W        W 3633  42.299  20.577   1.336
31286W        W 3634  31.052  17.654  12.351
31287W        W 3635   8.389  24.517  14.000
31288W        W 3636  29.056  25.563  14.944
31289W        W 3637  37.928  44.354  12.887
31290W        W 3638  35.902  32.896  10.632
31291W        W 3639  20.677  30.978  11.879
31292W        W 3640  42.008   9.179  11.000
31293W        W 3641  18.060  39.967   1.369
31294W        W 3642  20.051  44.891  12.023
31295W        W 3643  14.301  13.330   3.293
31296W        W 3644  21.073  15.786   5.313
31297W        W 3645  24.085  29.544   3.727
31298W        W 3646  40.417  16.811  13.430
31299W        W 3647   2.783  42.400  12.403
31300W        W 3648   8.725  11.703   4.609
31301W        W 3649  17.723  26.593   2.227
31302W        W 3650  23.509  39.822  11.003
31303W        W 3651  23.186  33.894  11.056
31304W        W 3652  34.438  18.597  10.943
31305W        W 3653  34.005  36.383  10.931
31306W        W 3654   4.870  37.541   1.287
31307W        W 3655  27.676   4.261   4.833
31308W        W 3656  36.388  39.051   4.781
31309W        W 3657   7.909  44.766  14.295
31310W        W 3658  28.506   7.300  14.766
31311W        W 3659  38.892  10.733  14.767
31312W        W 3660   7.776   0.794  14.988
31313W        W 3661  21.066  15.759  14.911
31314W        W 3662  18.103   3.299  13.945
31315W        W 3663  31.921  22.639   0.931
31316W        W 3664  25.542  35.912  11.457
31317W        W 3665  42.820   6.284   3.721
31318W        W 3666  30.085  19.757   1.882
31319W        W 3667  27.553   2.774  14.989
31320W        W 3668  14.630  12.259   1.882
31321W        W 3669  26.667  30.420   4.707
31322W        W 3670  10.755  39.042  14.369
31323W        W 3671  16.103   7.854   4.219
31324W        W 3672  22.695  35.580  13.439
31325W        W 3673   4.725  28.131   1.395
31326W        W 3674  41.518  38.822  14.280
31327W        W 3675  13.253  32.909   3.291
31328W        W 3676  22.688  37.533  12.848
31329W        W 3677  22.740  14.185  13.925
31330W        W 3678  29.053   1.915  13.539
31331W        W 3679  38.330   9.735   1.741
31332W        W 3680  26.554   5.354  11.574
31333W        W 3681   8.371   6.358  10.572
31334W        W 3682  42.794   3.887   3.363
31335W        W 3683  27.017  38.966  11.527
31336W        W 3684  21.212  41.370   4.643
31337W        W 3685   5.347  41.823  10.946
31338W        W 3686  31.101  10.863  12.469
31339W        W 3687  28.141  33.508   3.670
31340W        W 3688  19.160  40.003  11.396
31341W        W 3689   3.956  21.135  10.151
31342W        W 3690   8.211  16.281   1.811
31343W        W 3691  42.300  34.404  14.992
31344W        W 3692  16.596   3.893   1.328
31345W        W 3693   8.326  35.512   4.642
31346W        W 3694  13.163  26.680   4.216
31347W        W 3695  19.634  19.115  14.899
31348W        W 3696  39.925   9.218  13.462
31349W        W 3697  41.489  14.611   0.902
31350W        W 3698  26.124  24.108   3.251
31351W        W 3699  35.907  22.700   5.576
31352W        W 3700   5.354  43.450  11.516
31353W        W 3701  13.655  33.950   4.691
31354W        W 3702  22.659  44.755   1.753
31355W        W 3703  22.562  43.983   2.825
31356W        W 3704  21.235  33.404  14.399
31357W        W 3705  10.691  33.885  11.078
31358W        W 3706  35.600  35.449   1.709
31359W        W 3707  19.697  13.805  11.002
31360W        W 3708  36.391  17.672  12.857
31361W        W 3709  33.390  43.490   4.169
31362W        W 3710   1.428   6.427  10.602
31363W        W 3711  33.113  15.246   2.886
31364W        W 3712  35.063  44.872   1.748
31365W        W 3713  27.021   1.932  11.025
31366W        W 3714  21.655  23.658   2.340
31367W        W 3715   2.827  28.002  13.829
31368W        W 3716  33.450  35.899  14.760
31369W        W 3717   1.793  39.050   0.935
31370W        W 3718  32.080  28.937  10.408
31371W        W 3719  19.052  37.964   0.787
31372W        W 3720  44.283  44.002  11.487
31373W        W 3721  42.882  32.546  11.016
31374W        W 3722  32.435  39.373  13.434
31375W        W 3723  36.440   1.792  11.043
31376W        W 3724  27.526   3.710  12.474
31377W        W 3725  36.032  41.403   0.738
31378W        W 3726  33.102  32.441  12.457
31379W        W 3727   2.873  25.635  14.999
31380W        W 3728  20.640  43.473   2.761
31381W        W 3729   3.928   0.790   1.743
31382W        W 3730  15.119  21.616  13.926
31383W        W 3731   3.930   2.907  13.839
31384W        W 3732   0.866  16.808  13.842
31385W        W 3733  39.016  12.678   4.629
31386W        W 3734  28.949  38.063   1.820
31387W        W 3735  40.543  26.620   1.832
31388W        W 3736   5.843  14.788   1.701
31389W        W 3737  13.701  12.316  12.553
31390W        W 3738  10.151   6.710  12.911
31391W        W 3739  31.499  44.341   0.734
31392W        W 3740   8.846  32.616   0.350
31393W        W 3741  38.958  35.946   4.274
31394W        W 3742  31.630  23.492  13.953
31395W        W 3743  34.944  35.074  12.040
31396W        W 3744   5.727  26.119   2.874
31397W        W 3745  41.489  11.371   0.440
31398W        W 3746  34.410  18.239  14.015
31399W        W 3747  22.099  29.076  10.491
31400W        W 3748   7.709   4.322  12.859
31401W        W 3749  24.594  17.264   2.394
31402W        W 3750  34.058  38.847  13.363
31403W        W 3751   6.679  31.109   3.672
31404W        W 3752   9.243  37.078  12.052
31405W        W 3753  44.431  36.007  14.889
31406W        W 3754  17.125  16.764  10.452
31407W        W 3755  30.010  29.929  12.991
31408W        W 3756  33.084  24.496  10.429
31409W        W 3757   3.920  13.217   0.468
31410W        W 3758  24.604   6.295   0.807
31411W        W 3759  11.274  41.322  13.896
31412W        W 3760  32.430  15.753  12.880
31413W        W 3761   0.484   8.686   4.616
31414W        W 3762   4.447  28.172   1.294
31415W        W 3763  31.458  36.351   2.356
31416W        W 3764  14.317  42.789  10.610
31417W        W 3765  30.929  33.488  14.860
31418W        W 3766  35.955  13.730  11.592
31419W        W 3767  24.495  24.096   0.836
31420W        W 3768  40.325  27.117   3.263
31421W        W 3769  16.137  23.575   3.843
31422W        W 3770  32.970  33.380   4.714
31423W        W 3771  19.054   4.935   3.275
31424W        W 3772  30.120  11.359   2.703
31425W        W 3773  30.147   3.215   0.909
31426W        W 3774  44.374  17.185   5.289
31427W        W 3775  13.333   8.250   2.324
31428W        W 3776   1.823   7.301   3.786
31429W        W 3777  39.985  12.619  12.563
31430W        W 3778  28.959  44.006   0.842
31431W        W 3779  40.428  43.354  10.608
31432W        W 3780  39.060  25.541   0.431
31433W        W 3781  22.092  22.092  13.534
31434W        W 3782  18.253  32.887  14.015
31435W        W 3783   5.719  29.013  11.473
31436W        W 3784  32.507  16.196   2.844
31437W        W 3785  41.454   3.792  10.453
31438W        W 3786  18.547  11.356  10.605
31439W        W 3787  41.506   9.385   1.829
31440W        W 3788  22.565  31.008  11.119
31441W        W 3789  19.677  41.322  12.351
31442W        W 3790  16.660  15.725  14.345
31443W        W 3791  29.619   6.367   2.236
31444W        W 3792  28.082  16.267  14.010
31445W        W 3793   6.329  24.515  14.314
31446W        W 3794  18.695  40.018  13.976
31447W        W 3795  16.787  36.462   3.281
31448W        W 3796  34.509  38.891   0.922
31449W        W 3797  13.342  14.118  10.902
31450W        W 3798   6.312  35.883  10.116
31451W        W 3799  13.294  11.732  10.488
31452W        W 3800  34.571  33.581  12.541
31453W        W 3801  39.057  12.281   0.414
31454W        W 3802  10.248  38.530  14.490
31455W        W 3803   1.332  40.882  11.536
31456W        W 3804  41.792  30.422  10.010
31457W        W 3805  15.168  18.128  14.473
31458W        W 3806  16.312  29.124   2.286
31459W        W 3807   9.782  21.205   3.778
31460W        W 3808  16.657  40.453   3.677
31461W        W 3809  41.811  28.013  12.463
31462W        W 3810  26.987   1.274  14.278
31463W        W 3811  14.827  27.636  12.517
31464W        W 3812  32.016  44.329  11.905
31465W        W 3813   7.326  32.628   2.771
31466W        W 3814  21.208  35.577   0.451
31467W        W 3815  19.061   9.214  10.482
31468W        W 3816   7.344   6.718  11.097
31469W        W 3817  28.528  14.806   3.771
31470W        W 3818  16.112   1.399  14.864
31471W        W 3819  43.984  33.433  13.797
31472W        W 3820  11.782  23.537   3.173
31473W        W 3821  35.373   8.842   0.861
31474W        W 3822  41.472   1.423   4.735
31475W        W 3823  42.813  18.699   5.118
31476W        W 3824  21.516  24.655  12.557
31477W        W 3825  44.754  23.713  14.887
31478W        W 3826  10.667   8.187  14.381
31479W        W 3827  28.443  41.400   0.834
31480W        W 3828  27.484  35.392  14.439
31481W        W 3829  29.973  30.532   0.951
31482W        W 3830  32.612   7.217   4.604
31483W        W 3831  26.505  10.798   4.697
31484W        W 3832  36.513   1.894  14.991
31485W        W 3833  10.759  30.502  14.808
31486W        W 3834   0.398  41.812   1.236
31487W        W 3835   8.888  21.696  10.529
31488W        W 3836  33.031   7.760   5.277
31489W        W 3837  13.197  12.163  12.889
31490W        W 3838  40.539   4.835   0.263
31491W        W 3839   5.777  24.063  12.554
31492W        W 3840   0.280  22.097   3.795
31493W        W 3841  31.453  10.809   4.785
31494W        W 3842  40.496  44.267   0.962
31495W        W 3843  10.811   8.814  13.897
31496W        W 3844  33.983   6.363   2.273
31497W        W 3845  27.953  36.575  10.533
31498W        W 3846  32.508  35.918   3.147
31499W        W 3847  11.144  28.059   1.810
31500W        W 3848  29.442   0.466  11.581
31501W        W 3849   8.213  11.139   4.602
31502W        W 3850  44.761  30.961   3.222
31503W        W 3851  10.266  10.795   2.291
31504W        W 3852  15.684  20.046   1.267
31505W        W 3853  38.946  22.060   2.749
31506W        W 3854  11.329  40.391  11.508
31507W        W 3855  15.784  18.153   4.258
31508W        W 3856  30.095  14.168  10.601
31509W        W 3857   2.824  18.242  11.599
31510W        W 3858  35.541  29.093  13.384
31511W        W 3859   6.909   2.732  13.009
31512W        W 3860  40.843  38.551   1.881
31513W        W 3861  44.313   4.880   3.837
31514W        W 3862  32.406  36.093   4.635
31515W        W 3863  13.841  42.014  11.897
31516W        W 3864   7.388  18.781  12.425
31517W        W 3865  23.044  41.476  13.466
31518W        W 3866   6.385   6.739   0.864
31519W        W 3867  11.761  31.634   2.185
31520W        W 3868  36.902  26.629   2.668
31521W        W 3869  38.929  30.490   4.621
31522W        W 3870  19.256  26.506   3.378
31523W        W 3871  17.614  40.929  12.001
31524W        W 3872  10.781  40.022   1.278
31525W        W 3873  41.007   1.303  12.036
31526W        W 3874   9.339  24.980   4.695
31527W        W 3875  26.020  20.596   1.839
31528W        W 3876  10.313   2.909   0.424
31529W        W 3877  21.737   4.367  12.097
31530W        W 3878   7.295  13.747   1.928
31531W        W 3879  42.432  35.515   1.775
31532W        W 3880   0.303  33.882  14.009
31533W        W 3881  37.550  21.738  10.551
31534W        W 3882  39.838  32.028  11.510
31535W        W 3883  38.347  32.969   3.254
31536W        W 3884  17.181  19.200   0.321
31537W        W 3885  31.006  17.131   2.719
31538W        W 3886  31.463  37.042  12.871
31539W        W 3887   1.363   9.293  11.895
31540W        W 3888  40.830  32.428   4.164
31541W        W 3889  21.535   5.910   3.704
31542W        W 3890  21.245  11.724   3.678
31543W        W 3891  34.458  22.616  14.957
31544W        W 3892  12.143  38.362   2.179
31545W        W 3893   1.965  43.956   1.709
31546W        W 3894   3.237   0.918  14.297
31547W        W 3895  15.176  25.469  14.821
31548W        W 3896   8.763  30.513  12.458
31549W        W 3897  15.136  32.122  14.853
31550W        W 3898  36.061  33.598  10.901
31551W        W 3899   2.372  44.389  10.007
31552W        W 3900   8.343  40.397  11.460
31553W        W 3901   0.910  13.814  13.476
31554W        W 3902  26.016   8.256  11.422
31555W        W 3903  12.177  44.782   3.796
31556W        W 3904  14.312   4.254   3.336
31557W        W 3905  19.755   0.748   1.709
31558W        W 3906   6.801  33.023   1.276
31559W        W 3907  19.152  41.513  12.857
31560W        W 3908  13.314  44.891  11.453
31561W        W 3909  28.116  12.339  14.930
31562W        W 3910  40.480  22.697  14.814
31563W        W 3911   3.360  17.687  14.845
31564W        W 3912  17.797  33.944   1.241
31565W        W 3913  36.425  33.431  10.538
31566W        W 3914  33.882  16.219   1.919
31567W        W 3915  28.613  42.959   0.788
31568W        W 3916   9.732  31.936  12.462
31569W        W 3917  44.465  41.906  10.428
31570W        W 3918  12.630   9.276  14.344
31571W        W 3919  13.776   3.226  12.891
31572W        W 3920  19.180  31.513  13.484
31573W        W 3921  29.544  29.946   2.413
31574W        W 3922  17.696  16.200   4.663
31575W        W 3923  20.198  44.277  14.841
31576W        W 3924  14.258  26.643   0.372
31577W        W 3925   9.167  23.680   3.733
31578W        W 3926  26.179  20.216   3.338
31579W        W 3927  35.960  41.826   3.205
31580W        W 3928  30.030  28.945  11.879
31581W        W 3929  27.576  13.282  13.372
31582W        W 3930   3.879  19.153  11.957
31583W        W 3931   2.305  39.928  11.594
31584W        W 3932  36.413   9.365  12.464
31585W        W 3933  39.039  23.634   2.380
31586W        W 3934   0.898   1.744  10.103
31587W        W 3935   5.814   4.356   2.783
31588W        W 3936  28.021  22.660  10.985
31589W        W 3937  14.167  24.195  14.314
31590W        W 3938   4.255  21.109   4.257
31591W        W 3939  28.054  38.478  11.118
31592W        W 3940  20.653  32.943   2.870
31593W        W 3941   6.874  34.955  13.933
31594W        W 3942  28.481  32.026  10.519
31595W        W 3943   8.856  19.183   5.303
31596W        W 3944  21.531   7.229   2.680
31597W        W 3945  24.521  23.653  12.032
31598W        W 3946  10.216  23.239  14.856
31599W        W 3947   2.452  19.633   0.339
31600W        W 3948  31.414  16.104  14.464
31601W        W 3949  22.637   6.240  11.120
31602W        W 3950  25.507  16.168   4.646
31603W        W 3951  21.541  34.012   1.894
31604W        W 3952  23.553  42.420   3.263
31605W        W 3953  12.702   6.705  11.950
31606W        W 3954  37.957  19.664   3.680
31607W        W 3955   8.191  28.937  13.882
31608W        W 3956   0.296  34.410  11.989
31609W        W 3957  15.180  29.945  11.517
31610W        W 3958  24.000  30.549  12.943
31611W        W 3959   2.921  34.913  12.479
31612W        W 3960  18.620  11.651   0.282
31613W        W 3961  26.064  13.125   1.241
31614W        W 3962  44.921  20.148  12.350
31615W        W 3963  32.427   3.385  14.497
31616W        W 3964  13.225   1.805   4.767
31617W        W 3965  30.091  12.184  12.984
31618W        W 3966  21.246  24.107  14.515
31619W        W 3967  27.066  18.084  13.505
31620W        W 3968  19.173  26.512   1.272
31621W        W 3969  17.285  14.296   9.641
31622W        W 3970  16.585  28.489   4.193
31623W        W 3971   8.378  31.975   2.323
31624W        W 3972  35.023  33.534   3.301
31625W        W 3973  41.320   1.389   2.296
31626W        W 3974  43.855  43.431  10.504
31627W        W 3975   2.291  13.176   0.388
31628W        W 3976  43.855  15.605   0.372
31629W        W 3977  34.586  31.118  10.574
31630W        W 3978  38.904  25.583  12.858
31631W        W 3979  29.589  13.324  11.562
31632W        W 3980   7.681   9.173   4.194
31633W        W 3981  24.584  19.115  14.761
31634W        W 3982  39.499  10.153   5.088
31635W        W 3983  18.679  35.389   0.296
31636W        W 3984  13.171   7.816   4.648
31637W        W 3985  40.808  40.336  13.928
31638W        W 3986   1.837   2.833   2.267
31639W        W 3987  17.790  23.055   1.293
31640W        W 3988  37.432   6.233   1.914
31641W        W 3989  18.238   8.376   1.354
31642W        W 3990   4.427  14.285   3.279
31643W        W 3991  31.488  35.034   1.395
31644W        W 3992  32.526  25.219  13.842
31645W        W 3993  10.182   6.218   0.797
31646W        W 3994  27.583  35.924   1.353
31647W        W 3995  30.494  30.541  14.912
31648W        W 3996   0.951  40.366   0.292
31649W        W 3997  24.050   2.876  12.433
31650W        W 3998  19.733  10.217   1.829
31651W        W 3999   2.262  35.428   4.837
31652W        W 4000  31.975  32.113   2.691
31653W        W 4001  11.712  17.567  14.023
31654W        W 4002  41.331  21.557  13.963
31655W        W 4003  38.934  41.799  11.033
31656W        W 4004  15.617  27.666  13.474
31657W        W 4005  33.479  36.866   3.234
31658W        W 4006  12.750  40.389   1.370
31659W        W 4007   4.875  36.929  11.479
31660W        W 4008   9.184  29.022  10.568
31661W        W 4009  28.539  44.440   1.448
31662W        W 4010   6.405   1.740   0.940
31663W        W 4011  29.545  22.508   4.225
31664W        W 4012  11.737  30.056  11.570
31665W        W 4013  22.137  18.674  13.799
31666W        W 4014   8.668  24.205  11.978
31667W        W 4015  12.138   3.863   3.663
31668W        W 4016  41.857  19.747   0.792
31669W        W 4017  15.585  21.169   0.888
31670W        W 4018  32.551  24.093  12.410
31671W        W 4019  34.882  11.671  12.056
31672W        W 4020  10.360  32.609  12.434
31673W        W 4021  21.720  22.529  10.561
31674W        W 4022   2.252  28.538  14.810
31675W        W 4023  22.514  35.960  12.881
31676W        W 4024  28.489  31.642  14.000
31677W        W 4025   0.311   1.402   3.197
31678W        W 4026  24.552  19.648  12.001
31679W        W 4027   3.315  44.263  11.993
31680W        W 4028  34.018  41.317   5.189
31681W        W 4029  23.232  12.857  12.350
31682W        W 4030  35.950  15.650  13.028
31683W        W 4031  30.428  32.426   2.781
31684W        W 4032  37.538  17.612  13.359
31685W        W 4033  31.138   7.354  11.922
31686W        W 4034  32.625  44.990  13.391
31687W        W 4035  32.953  25.578   1.790
31688W        W 4036  42.843  43.018  14.389
31689W        W 4037  38.069  34.936  14.317
31690W        W 4038  25.637  27.480   1.215
31691W        W 4039  22.049  41.451   0.839
31692W        W 4040  33.883  39.014   1.893
31693W        W 4041  15.286  32.029   0.760
31694W        W 4042   2.899   4.245   1.885
31695W        W 4043   4.846  13.138  11.863
31696W        W 4044  43.957  18.577   0.753
31697W        W 4045  22.703  43.498   3.282
31698W        W 4046  39.487  37.009   2.898
31699W        W 4047  28.594  25.137   4.678
31700W        W 4048  26.672  34.610   4.835
31701W        W 4049  19.663   2.368  14.779
31702W        W 4050  23.174  34.435   1.800
31703W        W 4051  40.949  31.468  14.411
31704W        W 4052  44.847  37.378  13.866
31705W        W 4053  23.633   6.347  14.809
31706W        W 4054   6.678   7.322  14.976
31707W        W 4055  10.804  30.459   4.255
31708W        W 4056   8.727  16.603   0.939
31709W        W 4057   0.908  13.842  10.595
31710W        W 4058  23.201   9.242   2.229
31711W        W 4059   9.237   4.833   3.720
31712W        W 4060  10.293   7.283  12.560
31713W        W 4061  31.536  34.607  11.473
31714W        W 4062  34.115  16.656   4.127
31715W        W 4063  18.710   1.762  13.962
31716W        W 4064   6.907  15.799  12.890
31717W        W 4065  37.885   8.771  14.338
31718W        W 4066  40.034  31.037   2.269
31719W        W 4067  14.285  18.586   4.264
31720W        W 4068  42.348   3.922   1.344
31721W        W 4069  44.771  39.317   1.259
31722W        W 4070  14.668  13.829  12.418
31723W        W 4071   7.854  40.352  13.826
31724W        W 4072  39.861  12.323   0.905
31725W        W 4073  22.066  36.425   4.346
31726W        W 4074  22.236  14.231  12.555
31727W        W 4075  33.983  39.995   4.256
31728W        W 4076  27.692  38.533   0.792
31729W        W 4077   6.734  35.082  11.407
31730W        W 4078  10.662  15.821   1.380
31731W        W 4079  40.413  15.102   3.166
31732W        W 4080  37.497   1.313   1.394
31733W        W 4081  10.770   0.395  12.872
31734W        W 4082  17.687  17.086  13.546
31735W        W 4083   3.280   7.399  10.466
31736W        W 4084  38.395  43.497  12.999
31737W        W 4085  32.051  37.574  13.828
31738W        W 4086  40.999   8.777  14.773
31739W        W 4087  31.442  38.969  13.981
31740W        W 4088  18.783  28.474  12.497
31741W        W 4089   2.448  10.308  13.007
31742W        W 4090  41.380  32.957   2.291
31743W        W 4091  24.501  26.631   3.372
31744W        W 4092  33.553  21.223  11.019
31745W        W 4093  33.010  33.451  14.956
31746W        W 4094  25.524   2.459  13.948
31747W        W 4095  16.626  24.155  10.583
31748W        W 4096   3.795  28.594   0.739
31749W        W 4097   7.782  43.961   3.196
31750W        W 4098  37.523  16.269  14.386
31751W        W 4099  32.024   8.687   9.535
31752W        W 4100  44.351  14.095  14.858
31753W        W 4101  34.429  31.598  11.477
31754W        W 4102  27.133  36.558  12.473
31755W        W 4103  22.722  43.394   0.394
31756W        W 4104  18.768   5.257  12.352
31757W        W 4105  32.943  31.909   0.726
31758W        W 4106   4.764  38.398   2.289
31759W        W 4107  33.957   1.936  10.483
31760W        W 4108  32.459  37.956  14.310
31761W        W 4109  25.016  41.357  14.422
31762W        W 4110  33.918  31.102   2.295
31763W        W 4111  39.322  41.824  14.507
31764W        W 4112  28.135  34.373  10.471
31765W        W 4113  14.615  35.925   0.847
31766W        W 4114  33.938   6.681  11.873
31767W        W 4115   9.677  41.504   3.160
31768W        W 4116   3.776   1.758  14.798
31769W        W 4117  40.429  10.370   4.229
31770W        W 4118  12.337  22.645  13.793
31771W        W 4119  38.390  10.750  13.851
31772W        W 4120   2.800  39.507   1.918
31773W        W 4121  21.173   5.711   4.661
31774W        W 4122  30.925  28.468  13.435
31775W        W 4123  33.520  44.259  13.451
31776W        W 4124  26.056  17.299   4.642
31777W        W 4125  21.181  18.070  13.017
31778W        W 4126  27.513  31.098   0.248
31779W        W 4127  30.041   1.854  13.398
31780W        W 4128   4.398   8.873  13.380
31781W        W 4129  26.191  11.155  10.903
31782W        W 4130  41.492  20.170   0.327
31783W        W 4131  42.391  23.019   1.898
31784W        W 4132   6.724  12.227   0.818
31785W        W 4133   0.790   5.903   9.933
31786W        W 4134  39.994  21.609   1.258
31787W        W 4135  42.444  31.635  13.381
31788W        W 4136  44.295   8.179   0.455
31789W        W 4137  22.528  39.457   1.777
31790W        W 4138  21.049   6.907  14.509
31791W        W 4139  29.597  27.040   3.245
31792W        W 4140  34.456   1.844   0.791
31793W        W 4141  17.688  41.039   0.856
31794W        W 4142  39.930   2.227   2.742
31795W        W 4143  39.414   7.309   1.797
31796W        W 4144  40.896   8.222   0.832
31797W        W 4145  22.632   5.707  13.435
31798W        W 4146  11.737  17.224   2.290
31799W        W 4147  11.647  37.021   0.758
31800W        W 4148  17.217  21.052  13.850
31801W        W 4149  27.067  32.423  12.093
31802W        W 4150  35.488  26.485   3.333
31803W        W 4151  23.616  41.292   3.658
31804W        W 4152  11.783  44.878   4.752
31805W        W 4153  26.680  26.559  10.637
31806W        W 4154  40.029   5.883  13.450
31807W        W 4155  10.657  14.150   0.456
31808W        W 4156  38.921  13.747  12.345
31809W        W 4157  17.565  38.888  13.393
31810W        W 4158   6.264  23.512   2.185
31811W        W 4159  15.284  42.900  12.976
31812W        W 4160  29.105   4.280  11.418
31813W        W 4161  42.306  19.677  13.038
31814W        W 4162  39.954  33.928   1.856
31815W        W 4163  43.857  12.221  10.467
31816W        W 4164  21.723   6.281  14.365
31817W        W 4165  23.670   4.268   1.308
31818W        W 4166   9.650  24.639   0.326
31819W        W 4167  34.451  26.562   0.944
31820W        W 4168   0.755  12.743  13.926
31821W        W 4169  13.255  17.694   0.923
31822W        W 4170  41.010   2.389   2.277
31823W        W 4171   1.376  39.495  10.964
31824W        W 4172   6.308  43.936  14.017
31825W        W 4173  43.380  28.578  11.096
31826W        W 4174  38.552   7.206   4.238
31827W        W 4175  27.095   5.841   0.309
31828W        W 4176  29.159  26.483  10.555
31829W        W 4177  11.200  20.602   3.273
31830W        W 4178   7.392  26.039  12.406
31831W        W 4179  42.316  25.968   3.668
31832W        W 4180  37.935   6.369   0.739
31833W        W 4181   4.259  37.904  11.113
31834W        W 4182  30.567  38.563  12.880
31835W        W 4183   6.226   2.871  12.407
31836W        W 4184  12.711   5.317  10.445
31837W        W 4185   3.241  22.132   1.877
31838W        W 4186   9.260  41.955   2.360
31839W        W 4187   5.892  13.767   4.314
31840W        W 4188  35.888   3.459  12.990
31841W        W 4189  36.922  23.562  12.868
31842W        W 4190   4.417   4.842  11.922
31843W        W 4191  41.795  31.643  14.764
31844W        W 4192  15.803  15.593   4.168
31845W        W 4193   0.787   0.860   1.383
31846W        W 4194  33.111  34.487   1.813
31847W        W 4195  27.686  28.473  13.005
31848W        W 4196  16.584  17.297   1.758
31849W        W 4197  10.303  24.610   2.863
31850W        W 4198  17.689  33.899  12.021
31851W        W 4199   8.784  16.681   1.907
31852W        W 4200  16.295  32.517   4.680
31853W        W 4201  15.821   4.419   0.899
31854W        W 4202  42.423  34.974   2.378
31855W        W 4203  14.172  39.525  12.993
31856W        W 4204  40.902  18.753  13.047
31857W        W 4205  16.163  33.521  13.482
31858W        W 4206  13.636  31.611   1.876
31859W        W 4207  22.508  36.439  14.446
31860W        W 4208   7.275  42.903  14.916
31861W        W 4209  12.668  12.697   3.350
31862W        W 4210  41.397  13.752   3.853
31863W        W 4211   5.876   6.310  12.959
31864W        W 4212  42.929   0.355   4.117
31865W        W 4213  44.470  41.441   2.805
31866W        W 4214  27.034  31.000  12.563
31867W        W 4215  36.551   9.778   2.395
31868W        W 4216  13.339  42.506  11.024
31869W        W 4217  32.092   1.400  14.399
31870W        W 4218   5.212  10.857   2.898
31871W        W 4219  32.888  19.251  10.526
31872W        W 4220  26.124  29.050  13.479
31873W        W 4221  16.138  44.813   1.400
31874W        W 4222  15.328  12.169  11.996
31875W        W 4223   4.839   3.874   2.797
31876W        W 4224  14.269  20.546   3.194
31877W        W 4225   5.425   0.816  11.108
31878W        W 4226  41.322  23.212  14.940
31879W        W 4227  44.392   4.367  14.885
31880W        W 4228   4.449  37.357  12.470
31881W        W 4229  10.358  34.550   4.312
31882W        W 4230   7.332  25.018  10.890
31883W        W 4231  35.028  34.981  11.024
31884W        W 4232  13.167   8.391  12.986
31885W        W 4233  36.381  10.824  12.446
31886W        W 4234  40.374  17.645   2.262
31887W        W 4235  38.384  19.045   0.865
31888W        W 4236  20.093  33.949   1.744
31889W        W 4237   7.718  31.908  11.966
31890W        W 4238  27.627  20.156   2.768
31891W        W 4239  29.456  35.372  11.613
31892W        W 4240  43.880  41.499  10.962
31893W        W 4241   4.389  17.161   0.304
31894W        W 4242  17.752   5.253  14.471
31895W        W 4243   9.255  26.121  11.126
31896W        W 4244  11.678  14.645   1.291
31897W        W 4245   1.351  13.230  11.899
31898W        W 4246  14.149  36.469   1.222
31899W        W 4247   0.360   3.330  10.470
31900W        W 4248  26.456  23.215  11.466
31901W        W 4249  22.189  43.944  12.945
31902W        W 4250   6.349  10.234  13.828
31903W        W 4251   2.896   2.410   2.248
31904W        W 4252  43.002  24.976  13.914
31905W        W 4253  28.140  38.397   1.910
31906W        W 4254  15.085  27.184   1.346
31907W        W 4255  23.043  31.565  10.556
31908W        W 4256  17.753  29.025   0.473
31909W        W 4257  38.420  30.540   0.252
31910W        W 4258  15.667  10.306   1.785
31911W        W 4259   5.293  32.419   3.824
31912W        W 4260  11.641  31.576  14.783
31913W        W 4261   3.217   4.813   2.342
31914W        W 4262  36.512  20.595   0.400
31915W        W 4263  38.985  31.065  11.997
31916W        W 4264  27.039   7.255  10.507
31917W        W 4265  11.265  42.899   0.730
31918W        W 4266  29.485   6.418   0.811
31919W        W 4267  40.411   4.893  13.372
31920W        W 4268  24.981  14.213  13.965
31921W        W 4269  33.998  16.735  14.408
31922W        W 4270  25.478   0.269  13.360
31923W        W 4271  10.676  23.049   2.416
31924W        W 4272  16.621  29.069   2.756
31925W        W 4273  42.482  17.574   3.735
31926W        W 4274   4.755  32.466   1.301
31927W        W 4275  40.827   6.423  13.987
31928W        W 4276  16.652  34.885  11.902
31929W        W 4277  25.571   9.393  11.508
31930W        W 4278  32.463  41.476   3.294
31931W        W 4279  26.472  32.031   1.895
31932W        W 4280  14.712  28.568   2.224
31933W        W 4281  16.598  24.105  14.948
31934W        W 4282  41.500  30.556  14.858
31935W        W 4283  38.499  32.486  14.976
31936W        W 4284  11.840  43.277  10.949
31937W        W 4285  29.166  42.433   0.421
31938W        W 4286  16.727  30.638  13.846
31939W        W 4287  27.079  16.787  14.830
31940W        W 4288  39.318   6.750   2.418
31941W        W 4289   9.832  26.114  11.082
31942W        W 4290  20.167  12.636  12.917
31943W        W 4291  43.296  44.855  10.433
31944W        W 4292  27.018  39.852  11.927
31945W        W 4293  33.456  37.371   4.837
31946W        W 4294  21.135  18.781   2.849
31947W        W 4295  44.806  17.180  13.821
31948W        W 4296  26.084  40.824   4.300
31949W        W 4297  30.104  25.519   2.833
31950W        W 4298   8.854   8.658  13.520
31951W        W 4299  39.412  25.522   0.922
31952W        W 4300   8.239   7.673  14.817
31953W        W 4301  13.128  12.184   4.190
31954W        W 4302  17.187  15.763  10.056
31955W        W 4303  43.495  24.637  14.331
31956W        W 4304  40.799  16.278  14.499
31957W        W 4305  30.148  40.978   0.442
31958W        W 4306  43.409   0.878  12.014
31959W        W 4307  13.276   5.295  11.444
31960W        W 4308  15.615  34.078   0.750
31961W        W 4309  16.609  15.084  13.837
31962W        W 4310  21.529  17.131  13.993
31963W        W 4311  25.967  16.696   0.307
31964W        W 4312   0.882  41.473  14.971
31965W        W 4313  18.717  44.314   2.338
31966W        W 4314   4.779   1.943   4.704
31967W        W 4315  20.662   9.801  13.939
31968W        W 4316  15.221   6.360  13.451
31969W        W 4317  42.846  39.062   0.933
31970W        W 4318   5.905  32.920   2.667
31971W        W 4319   3.439   7.895  13.403
31972W        W 4320  26.499  43.326   2.260
31973W        W 4321  11.686   7.241   9.994
31974W        W 4322  34.003   8.833   4.259
31975W        W 4323  43.997   2.314  11.089
31976W        W 4324  26.957   7.371  13.887
31977W        W 4325  10.653  44.298  12.835
31978W        W 4326  34.393  11.157   0.398
31979W        W 4327  10.823  42.362   4.278
31980W        W 4328   3.338  31.568   3.789
31981W        W 4329  38.447   1.816   1.449
31982W        W 4330  13.224   5.392   4.124
31983W        W 4331  23.651  13.813   1.790
31984W        W 4332   0.939  22.210   2.277
31985W        W 4333   7.337   8.244  13.353
31986W        W 4334   0.290   7.211  12.056
31987W        W 4335  29.162  40.996  14.007
31988W        W 4336  35.467  32.443   0.263
31989W        W 4337  39.037  22.545   2.417
31990W        W 4338  26.195   0.316   3.710
31991W        W 4339  30.104  19.718  13.054
31992W        W 4340   6.775  39.546  12.935
31993W        W 4341  11.732  33.534  11.602
31994W        W 4342  42.350  39.431   1.436
31995W        W 4343  10.662  21.617   9.616
31996W        W 4344  26.606  15.763  12.558
31997W        W 4345  37.077   9.685   2.178
31998W        W 4346  37.072  39.906  11.541
31999W        W 4347  32.002  12.737  14.478
32000W        W 4348  32.971  30.990   1.882
32001W        W 4349  30.106  26.095  11.905
32002W        W 4350  20.233  38.444   4.690
32003W        W 4351  17.255  41.493  13.897
32004W        W 4352  11.749  13.159  11.561
32005W        W 4353  21.246  18.695  12.092
32006W        W 4354   4.783  37.350  14.489
32007W        W 4355  22.150  34.905   0.319
32008W        W 4356  30.426  15.710   1.698
32009W        W 4357  29.010  15.197  11.595
32010W        W 4358  44.806  33.588  11.378
32011W        W 4359  30.024  29.573   2.294
32012W        W 4360  11.762  41.369  14.514
32013W        W 4361   2.927  21.670  11.068
32014W        W 4362  31.505  10.191  14.878
32015W        W 4363  18.582  32.972  11.070
32016W        W 4364  10.876  29.581  10.522
32017W        W 4365  20.128   8.866  12.001
32018W        W 4366  30.561  11.230   1.874
32019W        W 4367  37.053  38.539   0.773
32020W        W 4368  15.715  12.288   5.670
32021W        W 4369  14.101   7.771   4.810
32022W        W 4370  44.988   6.272  12.496
32023W        W 4371  40.333  35.414  12.967
32024W        W 4372   4.795  15.311   3.180
32025W        W 4373  36.390  43.321   2.769
32026W        W 4374   5.844   8.864  11.107
32027W        W 4375  34.482   8.849   1.862
32028W        W 4376  31.993   7.877  12.580
32029W        W 4377  34.987  20.050   2.178
32030W        W 4378  44.841  19.780   3.845
32031W        W 4379  37.062  41.798   3.188
32032W        W 4380  33.421  39.425  10.546
32033W        W 4381   0.821  16.269   2.325
32034W        W 4382  29.113   4.901  12.532
32035W        W 4383   7.902  14.218  10.891
32036W        W 4384  11.849  19.125  10.618
32037W        W 4385  17.774  32.947   3.654
32038W        W 4386  43.916  32.416   2.279
32039W        W 4387  29.464  24.136   3.738
32040W        W 4388   2.728  18.582  12.890
32041W        W 4389  18.702  28.498   3.167
32042W        W 4390   7.806  23.593  12.539
32043W        W 4391  37.073  26.207  12.372
32044W        W 4392  32.456   8.288  12.361
32045W        W 4393  39.058   0.332  13.873
32046W        W 4394   0.839   6.407   1.256
32047W        W 4395   5.268   4.819  14.889
32048W        W 4396  11.363  25.700   4.661
32049W        W 4397  14.636  34.972   3.153
32050W        W 4398  24.494  37.065  13.058
32051W        W 4399  16.261  11.802  10.980
32052W        W 4400  11.663  42.821  13.534
32053W        W 4401   6.700  38.999  11.078
32054W        W 4402   2.823  21.222   2.359
32055W        W 4403  27.644  36.000  14.833
32056W        W 4404  44.869  40.925   3.149
32057W        W 4405  19.155  19.128  11.584
32058W        W 4406   8.764  43.769  12.945
32059W        W 4407  13.345   8.670  11.543
32060W        W 4408   7.703  34.921   1.308
32061W        W 4409  20.651  33.560   1.261
32062W        W 4410  17.210  23.053  11.410
32063W        W 4411  19.070   5.772   1.212
32064W        W 4412  36.462   0.272   3.251
32065W        W 4413   0.918   4.891  13.792
32066W        W 4414  16.629  20.087  12.960
32067W        W 4415  16.809  33.412   2.815
32068W        W 4416  42.833  12.279  11.001
32069W        W 4417  18.617  17.078  11.490
32070W        W 4418  32.584  15.084   1.737
32071W        W 4419  15.743  44.847   0.861
32072W        W 4420  26.593  37.874  11.537
32073W        W 4421  12.174  25.113   2.216
32074W        W 4422  43.512  35.550  10.901
32075W        W 4423  20.160  14.818   0.283
32076W        W 4424  38.361  36.424   0.866
32077W        W 4425  41.801  13.164   4.619
32078W        W 4426   4.904  26.523   2.418
32079W        W 4427  36.871  36.351  11.612
32080W        W 4428  42.000  17.070   2.266
32081W        W 4429   3.878   0.292   2.406
32082W        W 4430  30.597  38.888  13.377
32083W        W 4431  14.136  12.351  11.998
32084W        W 4432  40.001  43.307  14.510
32085W        W 4433  18.072  42.991   2.380
32086W        W 4434  10.282   0.301   2.222
32087W        W 4435  34.084   7.735  10.996
32088W        W 4436  36.003  18.715   1.837
32089W        W 4437   1.464  37.996   1.374
32090W        W 4438  39.982  39.988  14.458
32091W        W 4439  44.945  34.967   3.687
32092W        W 4440   9.313   9.841  13.032
32093W        W 4441   8.674  39.516  13.014
32094W        W 4442   6.914   3.247  12.842
32095W        W 4443   0.756  31.583  12.930
32096W        W 4444  19.565  35.018  14.855
32097W        W 4445  38.939  32.931   0.827
32098W        W 4446  14.261  39.961   0.451
32099W        W 4447   5.406  12.176  13.993
32100W        W 4448  10.816   4.389  13.962
32101W        W 4449  36.096  33.028   2.409
32102W        W 4450  17.724  11.217   1.752
32103W        W 4451   2.357  16.643  11.865
32104W        W 4452  31.904  10.228   1.742
32105W        W 4453  34.583  19.281   2.200
32106W        W 4454   9.809  28.527   1.392
32107W        W 4455  40.038  25.072   1.776
32108W        W 4456   8.327  12.729   1.433
32109W        W 4457  30.135  11.757   2.716
32110W        W 4458  20.159  31.137   3.705
32111W        W 4459   3.273  17.078  11.390
32112W        W 4460  10.354   1.902  12.846
32113W        W 4461   2.896   7.219   3.233
32114W        W 4462  37.486  23.058   1.916
32115W        W 4463   7.360   3.874  12.437
32116W        W 4464   2.742  27.032  14.783
32117W        W 4465  32.888  20.756   2.376
32118W        W 4466  12.834   4.229   5.788
32119W        W 4467  28.045  43.429   2.274
32120W        W 4468   3.738   9.690   2.188
32121W        W 4469  10.772  34.094  13.035
32122W        W 4470  34.068  25.680   2.768
32123W        W 4471  29.582  23.085  11.128
32124W        W 4472  26.600   4.343  12.842
32125W        W 4473   9.699   1.732  11.500
32126W        W 4474  21.536  38.506  12.832
32127W        W 4475  18.704  20.579  12.429
32128W        W 4476   7.876  21.556  13.035
32129W        W 4477  38.830  30.496   1.713
32130W        W 4478  23.552  29.166   4.277
32131W        W 4479   9.364   3.382  11.924
32132W        W 4480   1.431   6.245  13.932
32133W        W 4481  33.047   2.362   2.779
32134W        W 4482  42.967   8.234   0.842
32135W        W 4483  44.440  16.572  10.637
32136W        W 4484   1.749   0.747   3.870
32137W        W 4485  33.980   6.242   3.682
32138W        W 4486  29.989  34.073  14.844
32139W        W 4487   5.711  17.713  13.520
32140W        W 4488  17.062  44.370  11.565
32141W        W 4489  37.387  22.539   3.148
32142W        W 4490  37.882  38.877  14.388
32143W        W 4491   2.467   1.417   1.705
32144W        W 4492  42.838  20.626   3.807
32145W        W 4493  40.335  39.415   1.877
32146W        W 4494  40.949  32.983   0.280
32147W        W 4495  34.370   4.731   3.199
32148W        W 4496  23.136   7.690   4.727
32149W        W 4497  30.013  32.478  10.506
32150W        W 4498  34.073  12.632  13.439
32151W        W 4499  12.350  38.993   3.664
32152W        W 4500   2.944  31.640  11.027
32153W        W 4501  12.161  21.103  13.544
32154W        W 4502  36.515  38.058  10.426
32155W        W 4503  36.356  23.736  10.476
32156W        W 4504  35.601   5.401  12.913
32157W        W 4505   9.198  33.039   0.308
32158W        W 4506  44.323   8.359   3.838
32159W        W 4507  14.718  37.448   3.666
32160W        W 4508  40.549  41.457  11.494
32161W        W 4509  11.322  28.079   4.263
32162W        W 4510   6.919  41.304   3.261
32163W        W 4511  19.085   4.237  11.485
32164W        W 4512  16.272  40.971  13.933
32165W        W 4513   1.360  11.212  12.895
32166W        W 4514  11.177  10.789  13.920
32167W        W 4515  30.035   7.754   4.324
32168W        W 4516  31.008  36.944   3.177
32169W        W 4517  13.626  39.865  14.804
32170W        W 4518  10.366  39.360   0.252
32171W        W 4519  30.111  30.041   2.401
32172W        W 4520  17.202  18.055   0.278
32173W        W 4521  31.648  34.942  14.515
32174W        W 4522  42.004   6.705  13.316
32175W        W 4523  39.403  38.937   1.358
32176W        W 4524  15.819  22.035  13.978
32177W        W 4525  13.646   9.178  12.340
32178W        W 4526   0.331   5.235   3.179
32179W        W 4527   6.322  14.658  13.504
32180W        W 4528  34.109  15.093  11.058
32181W        W 4529  10.646  38.910   3.247
32182W        W 4530  32.110  38.915   4.251
32183W        W 4531  24.713  36.365  13.054
32184W        W 4532  28.092  22.023   4.708
32185W        W 4533  25.069  12.187  12.090
32186W        W 4534  38.460   6.387   4.144
32187W        W 4535  23.161  32.078  10.905
32188W        W 4536  18.262  26.050   2.221
32189W        W 4537  21.565  38.013   0.966
32190W        W 4538  36.478  32.909   4.779
32191W        W 4539   4.369  34.890   4.139
32192W        W 4540  41.987  15.210   1.447
32193W        W 4541  40.886   1.376  12.477
32194W        W 4542  34.062  24.173   3.215
32195W        W 4543  18.150  10.306  11.878
32196W        W 4544  33.443   7.803  12.416
32197W        W 4545  24.018  14.227  11.489
32198W        W 4546   6.707  23.675  12.441
32199W        W 4547   8.224  16.636  12.852
32200W        W 4548  42.374  44.372  13.865
32201W        W 4549  21.258   8.845  12.519
32202W        W 4550   9.794  35.955  10.602
32203W        W 4551  31.526   5.900  14.370
32204W        W 4552  18.187  11.253  10.545
32205W        W 4553  22.657   7.865  12.360
32206W        W 4554  15.203  43.845  12.069
32207W        W 4555   8.276  27.560   0.964
32208W        W 4556   2.229  22.517  13.056
32209W        W 4557  28.066  41.942   2.762
32210W        W 4558  40.851  35.096  11.081
32211W        W 4559  36.369   6.408  12.347
32212W        W 4560   5.288  31.405  10.915
32213W        W 4561  15.105  13.117   4.128
32214W        W 4562   2.866  31.614  11.475
32215W        W 4563   3.883  14.282  13.040
32216W        W 4564  17.684   7.793   4.259
32217W        W 4565  27.960   6.291  11.594
32218W        W 4566   3.766  19.724   4.729
32219W        W 4567  37.991  39.050   1.710
32220W        W 4568   2.764  28.673   1.287
32221W        W 4569   6.229  22.692  11.489
32222W        W 4570  13.334  22.514   4.270
32223W        W 4571   6.221  16.302  11.433
32224W        W 4572   2.259  15.149  11.456
32225W        W 4573  14.235  33.614  11.961
32226W        W 4574  32.125  21.158   2.871
32227W        W 4575  31.451  30.149   3.630
32228W        W 4576  19.106  13.684   0.915
32229W        W 4577  42.925  36.875  13.816
32230W        W 4578  44.431  19.666   3.234
32231W        W 4579  17.773  18.681   2.239
32232W        W 4580  28.953  16.113   1.751
32233W        W 4581  31.110  14.221   1.285
32234W        W 4582  37.004  34.522  14.439
32235W        W 4583  12.703   0.816  11.924
32236W        W 4584  29.462  15.194  12.570
32237W        W 4585  24.525  12.252  12.885
32238W        W 4586  37.467  15.218   4.309
32239W        W 4587  36.881  39.919  10.523
32240W        W 4588   4.228  16.796  14.977
32241W        W 4589  32.634  22.177  12.930
32242W        W 4590  40.343  15.678   5.164
32243W        W 4591   1.907  12.847  14.448
32244W        W 4592  40.335  23.990  12.420
32245W        W 4593  39.394  32.607   1.358
32246W        W 4594  11.652  37.506  14.347
32247W        W 4595  36.489  44.896  13.876
32248W        W 4596  41.318  43.418   1.404
32249W        W 4597   1.457   7.239   1.226
32250W        W 4598  23.024  34.002   1.319
32251W        W 4599  31.483  17.574  12.481
32252W        W 4600  37.949  38.934  14.030
32253W        W 4601  40.493   5.289  12.409
32254W        W 4602  10.299  11.339   0.763
32255W        W 4603   5.303  31.051  12.401
32256W        W 4604  13.246  28.558  13.008
32257W        W 4605   8.256   2.345   2.212
32258W        W 4606  19.681  10.368  13.879
32259W        W 4607   5.348  12.850   2.825
32260W        W 4608  40.964  34.954   0.306
32261W        W 4609  24.038   5.373   4.168
32262W        W 4610  43.430  37.080  12.457
32263W        W 4611  42.913  42.848  12.462
32264W        W 4612  34.503  36.955   4.135
32265W        W 4613  30.122   9.861  11.890
32266W        W 4614  15.778  40.502   2.870
32267W        W 4615   4.302  34.102   4.324
32268W        W 4616  26.194  14.334  10.442
32269W        W 4617   5.428   8.697   3.830
32270W        W 4618  42.493  32.547   1.744
32271W        W 4619  35.081  37.536  11.612
32272W        W 4620  28.042  27.020  12.900
32273W        W 4621  13.111  35.047  12.904
32274W        W 4622  31.994  34.899   3.712
32275W        W 4623  20.267  24.127   3.656
32276W        W 4624  11.231   7.858   2.763
32277W        W 4625   7.705   3.831  13.965
32278W        W 4626  30.084  35.076  13.965
32279W        W 4627  34.942  36.931  12.510
32280W        W 4628  17.580  36.071   0.849
32281W        W 4629  14.255  29.443  11.950
32282W        W 4630  44.871   8.658   4.620
32283W        W 4631  39.396   0.830  12.873
32284W        W 4632  39.031  29.578   2.186
32285W        W 4633   6.701  31.905   9.995
32286W        W 4634  38.901  40.402  14.384
32287W        W 4635  12.687  40.305  12.864
32288W        W 4636  12.692  18.101  13.318
32289W        W 4637  36.420  17.163  10.009
32290W        W 4638  29.960  25.589  13.431
32291W        W 4639  12.336   6.390   0.913
32292W        W 4640  43.312  35.423   4.327
32293W        W 4641  33.536  43.773   3.328
32294W        W 4642  24.505  11.643  11.458
32295W        W 4643  29.143  33.512   0.423
32296W        W 4644  19.281  11.836   4.642
32297W        W 4645   7.192   6.775   0.758
32298W        W 4646  24.066  21.659   3.296
32299W        W 4647  17.129  31.973   3.849
32300W        W 4648   7.871  20.648   9.645
32301W        W 4649  22.168  30.995  13.360
32302W        W 4650  38.911  16.571   2.336
32303W        W 4651  28.154   1.946   9.966
32304W        W 4652  11.815   8.864  14.834
32305W        W 4653  18.786  29.064   0.839
32306W        W 4654  24.645  43.492   4.710
32307W        W 4655   1.431  22.070  10.991
32308W        W 4656  38.521   8.353  12.898
32309W        W 4657  10.878   2.868   4.701
32310W        W 4658  42.391  12.817   3.258
32311W        W 4659  43.490   6.695  12.579
32312W        W 4660  27.512   9.235  14.303
32313W        W 4661  10.786   2.816  12.536
32314W        W 4662  15.233  14.261   4.127
32315W        W 4663  32.946  29.639   0.931
32316W        W 4664   1.758  37.478  14.445
32317W        W 4665  30.613  22.053  11.070
32318W        W 4666  13.697  44.326   3.227
32319W        W 4667   0.375  13.179   2.364
32320W        W 4668   2.834  36.860  12.849
32321W        W 4669  40.481   4.265  11.014
32322W        W 4670  35.015  28.155  10.990
32323W        W 4671  23.678   4.281   3.328
32324W        W 4672  15.720  34.089   3.807
32325W        W 4673  10.822  41.437   3.762
32326W        W 4674  28.139  23.121   0.480
32327W        W 4675   4.714   9.184   4.145
32328W        W 4676  33.088  42.892   3.830
32329W        W 4677   5.433  38.008  12.886
32330W        W 4678  18.282   9.178   1.838
32331W        W 4679  34.052  44.321   2.753
32332W        W 4680  16.265   1.356   2.363
32333W        W 4681  24.613  29.666  12.911
32334W        W 4682  23.649   7.321   0.394
32335W        W 4683   7.398  37.949  11.099
32336W        W 4684  31.969  19.169   3.374
32337W        W 4685  36.539   9.244   0.327
32338W        W 4686  30.936  34.414  11.474
32339W        W 4687  23.090   2.918   2.763
32340W        W 4688  20.769   7.337   4.826
32341W        W 4689   2.439  14.177  14.481
32342W        W 4690   8.734  31.949  11.540
32343W        W 4691  44.405  36.916   2.810
32344W        W 4692  40.808   7.684  13.019
32345W        W 4693  37.459  12.276   3.719
32346W        W 4694  39.398  24.989   1.726
32347W        W 4695  37.916  36.959   4.780
32348W        W 4696  36.398  42.868   3.781
32349W        W 4697  23.722   5.912  10.471
32350W        W 4698  31.109   5.817  11.497
32351W        W 4699  11.246  14.122  10.532
32352W        W 4700  21.089  17.781   2.263
32353W        W 4701  14.645  33.579  11.605
32354W        W 4702  23.735  14.119  13.897
32355W        W 4703  32.459  30.625   3.767
32356W        W 4704  41.041  21.173  10.911
32357W        W 4705   3.253  26.076   3.231
32358W        W 4706  41.454  35.595  11.397
32359W        W 4707   6.875  18.159  14.983
32360W        W 4708  42.886  40.497   0.817
32361W        W 4709  39.931  18.622   2.786
32362W        W 4710  18.210  19.779   4.227
32363W        W 4711  24.533  27.558   3.229
32364W        W 4712  11.823  26.602   0.820
32365W        W 4713  24.675  15.141   0.479
32366W        W 4714  13.650  27.592   0.296
32367W        W 4715  43.771   6.347  11.912
32368W        W 4716  42.456  27.082   1.780
32369W        W 4717  40.352  20.647  11.584
32370W        W 4718  42.996  24.502   4.775
32371W        W 4719   6.852   8.203   3.781
32372W        W 4720   1.305  18.546  14.017
32373W        W 4721  34.952   6.746  12.499
32374W        W 4722  30.574  37.446  12.083
32375W        W 4723  41.891  26.662  14.334
32376W        W 4724  21.243  30.057   3.776
32377W        W 4725  39.426  36.998  14.410
32378W        W 4726  19.709  21.746  11.992
32379W        W 4727   5.281  23.057   3.241
32380W        W 4728  30.060  13.716  13.904
32381W        W 4729  38.027  14.285   3.768
32382W        W 4730   0.310  35.579   0.863
32383W        W 4731  34.928  18.697   4.239
32384W        W 4732  38.457  29.947   0.884
32385W        W 4733  35.036  18.784  13.027
32386W        W 4734  39.503  11.135  11.127
32387W        W 4735  16.623   9.665  14.337
32388W        W 4736  13.321  16.778   4.236
32389W        W 4737  25.209   7.386   4.724
32390W        W 4738  28.479   0.330  13.888
32391W        W 4739  11.836  37.444  14.771
32392W        W 4740  27.641   5.334  12.959
32393W        W 4741  15.701  15.253   2.383
32394W        W 4742   4.250  12.313  13.932
32395W        W 4743  37.871   1.427  10.504
32396W        W 4744   0.292  35.929   1.285
32397W        W 4745  41.419  28.182  11.889
32398W        W 4746   1.420  42.849   0.362
32399W        W 4747  34.041  29.627  14.891
32400W        W 4748  23.220  43.819   1.388
32401W        W 4749  41.955  28.587   0.387
32402W        W 4750   1.870  15.092   3.765
32403W        W 4751  43.336  21.191  12.536
32404W        W 4752  22.544  22.580  12.436
32405W        W 4753  43.393  43.333  14.824
32406W        W 4754   6.836   1.913   3.671
32407W        W 4755  37.980  36.073   2.741
32408W        W 4756  11.284  35.450  10.630
32409W        W 4757  38.869   8.763  11.982
32410W        W 4758  42.417  32.453  14.895
32411W        W 4759  37.369  37.496  14.346
32412W        W 4760   7.326  13.251   2.360
32413W        W 4761   6.292  25.609  14.851
32414W        W 4762  32.112  27.599  13.894
32415W        W 4763  30.605  14.119  10.901
32416W        W 4764  26.697   4.246  14.798
32417W        W 4765  13.261  19.213   2.707
32418W        W 4766  31.566  17.599  13.949
32419W        W 4767  23.011  40.357   2.789
32420W        W 4768  13.237  43.898  13.499
32421W        W 4769  38.035  26.206  13.804
32422W        W 4770  39.810  12.208   3.783
32423W        W 4771  10.245  26.613  14.310
32424W        W 4772   1.755   8.715   4.763
32425W        W 4773  28.536   3.804  13.895
32426W        W 4774  39.908  21.036  11.382
32427W        W 4775  29.540  18.213   0.965
32428W        W 4776  25.019  41.789   2.381
32429W        W 4777  26.570  37.846  10.629
32430W        W 4778  28.573  40.038   1.853
32431W        W 4779  28.579   4.326   2.403
32432W        W 4780  14.113  14.661  13.015
32433W        W 4781  36.456  22.534  11.079
32434W        W 4782  40.815  38.462  10.631
32435W        W 4783  20.121  15.120  12.441
32436W        W 4784  42.290   0.250   0.847
32437W        W 4785  27.062  37.440   0.806
32438W        W 4786   6.847  41.377   2.393
32439W        W 4787  21.191  11.225  13.852
32440W        W 4788  10.255  44.289  13.881
32441W        W 4789  38.918  33.519  11.915
32442W        W 4790  39.830  20.138  10.491
32443W        W 4791  24.099  10.330   9.921
32444W        W 4792  13.351  28.020  10.456
32445W        W 4793  21.021  41.960   3.676
32446W        W 4794  28.937   0.426  12.878
32447W        W 4795   8.341  40.042  12.563
32448W        W 4796  25.599  22.056   3.239
32449W        W 4797  10.354  43.488  11.530
32450W        W 4798  35.558  30.126   1.287
32451W        W 4799  20.664  33.385  12.891
32452W        W 4800   2.250  25.593   1.327
32453W        W 4801  28.524   9.244  12.464
32454W        W 4802   2.459  31.586  11.443
32455W        W 4803  43.484  16.687  10.408
32456W        W 4804  37.336  20.193  14.960
32457W        W 4805  41.943  17.566  14.469
32458W        W 4806  44.959  35.598  14.417
32459W        W 4807  32.120  37.950   1.265
32460W        W 4808   4.310   0.450   2.859
32461W        W 4809  21.746  31.994   1.304
32462W        W 4810   3.779  28.512  10.638
32463W        W 4811  31.491  20.046   1.828
32464W        W 4812  17.065  23.505  11.113
32465W        W 4813  15.778  44.432   4.250
32466W        W 4814  32.998  11.233  12.544
32467W        W 4815  11.249  11.144  10.612
32468W        W 4816  28.999  18.194   3.645
32469W        W 4817  26.968  38.987   2.846
32470W        W 4818  10.668  16.150  12.988
32471W        W 4819  30.464  43.875   4.604
32472W        W 4820  33.622  20.700   4.261
32473W        W 4821  44.463  20.660   0.419
32474W        W 4822  40.484   8.347   4.241
32475W        W 4823  27.067  22.549  10.890
32476W        W 4824   3.459   8.830  10.443
32477W        W 4825  25.056   8.244  10.976
32478W        W 4826  11.748  38.850  11.577
32479W        W 4827  22.089  29.425  10.614
32480W        W 4828   5.709  24.689  13.544
32481W        W 4829  34.110   7.862  10.518
32482W        W 4830  31.003  33.937   3.365
32483W        W 4831  13.843   3.224  13.500
32484W        W 4832  39.999  37.440  10.952
32485W        W 4833   9.262  31.536   4.601
32486W        W 4834  16.282  31.600   3.334
32487W        W 4835  23.679  41.970  14.498
32488W        W 4836  35.448  11.162  11.102
32489W        W 4837  10.158   2.380  11.098
32490W        W 4838  13.686  26.041  13.831
32491W        W 4839  16.810   1.895  13.339
32492W        W 4840   7.903  31.482   4.604
32493W        W 4841  26.647  13.207   1.224
32494W        W 4842  21.114   5.367  12.945
32495W        W 4843  18.701  41.479   1.257
32496W        W 4844  19.599   1.340   0.434
32497W        W 4845  12.344   5.791  14.290
32498W        W 4846   2.828  21.112  14.025
32499W        W 4847  36.363  38.537   1.261
32500W        W 4848  38.444  16.105  11.544
32501W        W 4849   1.380   7.221   3.815
32502W        W 4850  10.695   3.244  13.363
32503W        W 4851  13.669   2.897  13.059
32504W        W 4852   3.826  26.061   4.638
32505W        W 4853   1.863   4.711  10.567
32506W        W 4854   7.388  18.545  10.498
32507W        W 4855  42.346  34.053   4.133
32508W        W 4856  15.315  22.595   4.646
32509W        W 4857  24.523  42.385   1.295
32510W        W 4858   7.239  42.333   4.698
32511W        W 4859  12.648  24.042   0.462
32512W        W 4860  25.114   3.342  12.525
32513W        W 4861  15.628  38.924   1.380
32514W        W 4862  19.609   4.444  11.895
32515W        W 4863  38.842  26.485  11.409
32516W        W 4864   3.437  18.118   1.382
32517W        W 4865   2.270  15.321   1.798
32518W        W 4866  38.404  17.137   4.822
32519W        W 4867  17.279  17.606  11.494
32520W        W 4868   8.331  21.198   1.300
32521W        W 4869  22.225  36.080  13.988
32522W        W 4870  13.765  22.555  10.950
32523W        W 4871  29.496  37.977  14.434
32524W        W 4872   4.265  29.075   0.259
32525W        W 4873  33.877   4.746   4.798
32526W        W 4874   0.763  23.577  10.533
32527W        W 4875  14.240   0.460   0.936
32528W        W 4876  15.223  26.113   4.773
32529W        W 4877   3.931  34.904  13.826
32530W        W 4878   4.928  29.600  14.482
32531W        W 4879  30.042  35.518  11.959
32532W        W 4880  16.604  27.478   1.439
32533W        W 4881  33.932   6.414  14.348
32534W        W 4882  34.101   9.289   0.243
32535W        W 4883   8.244  23.066  14.281
32536W        W 4884   9.219   8.723   4.661
32537W        W 4885  12.259   0.464  11.548
32538W        W 4886  31.588   3.872  11.081
32539W        W 4887  29.006  30.062  11.962
32540W        W 4888  24.054  25.058   1.299
32541W        W 4889   6.289  22.534   3.224
32542W        W 4890  39.988   6.824  11.394
32543W        W 4891   8.829  17.725  12.922
32544W        W 4892  26.658  38.933   9.981
32545W        W 4893  15.126  26.529  14.347
32546W        W 4894  11.204  39.434   1.265
32547W        W 4895   5.409   7.677   0.735
32548W        W 4896  13.641   8.729  14.383
32549W        W 4897  42.453  17.653  10.453
32550W        W 4898  29.529  28.501   3.825
32551W        W 4899  33.582  12.318   0.797
32552W        W 4900  43.994  10.847   4.118
32553W        W 4901  17.637  14.695  13.826
32554W        W 4902  14.240   9.814  14.461
32555W        W 4903   5.254   6.824   3.737
32556W        W 4904  25.202  42.868  12.863
32557W        W 4905  17.158  20.673  11.546
32558W        W 4906  24.595  43.482  10.946
32559W        W 4907  20.545  32.503  14.371
32560W        W 4908   0.358  27.024   3.317
32561W        W 4909  21.637  23.650  12.843
32562W        W 4910   3.442  43.501  12.460
32563W        W 4911  37.340  16.614  12.957
32564W        W 4912   4.421   2.824   3.738
32565W        W 4913  12.786  20.670   1.738
32566W        W 4914  20.718  25.165   3.671
32567W        W 4915   1.857   7.334  14.776
32568W        W 4916  29.071   5.925  12.047
32569W        W 4917   7.750   9.322  12.427
32570W        W 4918   8.726  41.358  10.048
32571W        W 4919  37.541  18.729  14.513
32572W        W 4920  24.223  19.156   3.674
32573W        W 4921   1.281  34.604  14.396
32574W        W 4922  14.772   1.352  11.408
32575W        W 4923  35.372  22.601  12.835
32576W        W 4924   7.364  27.954  12.389
32577W        W 4925  34.934  24.110   4.210
32578W        W 4926  30.935  37.569  10.536
32579W        W 4927  32.129   6.685  13.482
32580W        W 4928  15.722  12.829  10.565
32581W        W 4929   7.899   7.698   4.832
32582W        W 4930   4.927   9.185  13.026
32583W        W 4931  19.696  24.184   0.328
32584W        W 4932  22.137   3.909   3.243
32585W        W 4933  36.018  21.246  13.494
32586W        W 4934  12.117  40.519   3.658
32587W        W 4935  28.183  15.646  13.536
32588W        W 4936   1.421  28.677  12.380
32589W        W 4937  44.321  16.691   0.454
32590W        W 4938  39.836  39.407   4.118
32591W        W 4939   6.203  26.077  12.478
32592W        W 4940  11.774  27.975   0.433
32593W        W 4941  26.008   6.199  10.495
32594W        W 4942  16.080  43.852   3.191
32595W        W 4943  44.929   9.394  13.935
32596W        W 4944  44.876  33.883   2.867
32597W        W 4945  29.069  34.501   0.826
32598W        W 4946  28.168  24.486   3.691
32599W        W 4947  33.064  26.167  13.860
32600W        W 4948  28.611  30.423   2.324
32601W        W 4949  24.014  26.090   2.853
32602W        W 4950   3.444   8.686  11.518
32603W        W 4951  10.861  18.263   3.714
32604W        W 4952  21.194  30.614   1.864
32605W        W 4953  35.913   4.303   4.153
32606W        W 4954  14.767  22.728   2.332
32607W        W 4955  21.735  41.847  14.391
32608W        W 4956   0.850   2.343   2.352
32609W        W 4957  37.871   6.371   5.303
32610W        W 4958   5.734  29.538   0.300
32611W        W 4959   2.421  39.958  14.487
32612W        W 4960  18.643  41.438  12.441
32613W        W 4961  12.814   4.397   0.475
32614W        W 4962   4.398   9.262  12.001
32615W        W 4963  39.475  31.553  12.957
32616W        W 4964  19.194  24.506   4.719
32617W        W 4965  13.844   7.416  14.876
32618W        W 4966   6.340  31.403  12.877
32619W        W 4967   3.930   9.240  11.905
32620W        W 4968  36.380  34.442   0.833
32621W        W 4969  19.641  12.821   3.184
32622W        W 4970  10.340  23.989   0.307
32623W        W 4971  39.832   8.836  13.917
32624W        W 4972  44.476   9.164   2.266
32625W        W 4973  16.072  20.211   1.301
32626W        W 4974  13.343   6.872   4.318
32627W        W 4975  12.617  38.841   3.236
32628W        W 4976  24.537   4.822   2.316
32629W        W 4977  10.229  15.661   4.696
32630W        W 4978  26.610  27.980   5.260
32631W        W 4979   8.249   2.917   3.859
32632W        W 4980  12.226  14.591  11.010
32633W        W 4981   3.873  23.562  14.969
32634W        W 4982  17.695   0.948  12.552
32635W        W 4983  30.110  27.692  14.432
32636W        W 4984  40.322  13.255   2.863
32637W        W 4985  18.172  10.297   1.795
32638W        W 4986  40.503  26.469   4.290
32639W        W 4987  36.877  15.271   1.755
32640W        W 4988   2.427  34.964   3.667
32641W        W 4989  39.963  11.710   4.123
32642W        W 4990  39.963  23.003  11.456
32643W        W 4991  29.647  31.960   0.384
32644W        W 4992  29.642  41.040  14.959
32645W        W 4993   4.744  14.832   0.297
32646W        W 4994  43.775  27.525  13.030
32647W        W 4995  33.084  24.155   4.147
32648W        W 4996  35.094  26.479  14.284
32649W        W 4997  30.611  44.880   4.343
32650W        W 4998  24.559  16.155  13.462
32651W        W 4999  23.084  11.324  14.402
32652W        W 5000  24.530  29.950  10.968
32653W        W 5001   8.291   2.390   4.158
32654W        W 5002  36.405  20.070  11.589
32655W        W 5003  30.988  29.510   0.782
32656W        W 5004  39.384  22.557  14.333
32657W        W 5005  29.965  37.075  13.419
32658W        W 5006   3.954  43.491  13.873
32659W        W 5007  19.081   0.954  14.009
32660W        W 5008  24.628  43.871  14.963
32661W        W 5009  12.827  32.069  14.398
32662W        W 5010   8.362   9.745  13.814
32663W        W 5011   6.853  23.128  13.800
32664W        W 5012  33.466  38.007  14.320
32665W        W 5013   5.799  24.157  13.348
32666W        W 5014   4.818  22.099   3.649
32667W        W 5015  18.737   5.864   3.322
32668W        W 5016   6.826  32.402   1.816
32669W        W 5017  26.174  28.565  12.925
32670W        W 5018  37.943  16.237   1.900
32671W        W 5019  25.182  13.111   1.387
32672W        W 5020  42.885  21.583  11.940
32673W        W 5021  25.969  34.509  12.372
32674W        W 5022  14.744   9.325   0.480
32675W        W 5023  24.026  28.031  12.044
32676W        W 5024  13.731  10.725  14.793
32677W        W 5025   9.800  43.015  13.492
32678W        W 5026  35.048  33.955  12.840
32679W        W 5027  34.997  22.663   3.851
32680W        W 5028  14.641  29.112   3.744
32681W        W 5029  20.217   5.406  12.853
32682W        W 5030  22.559  42.919  10.474
32683W        W 5031   6.745   6.245   3.699
32684W        W 5032  39.359  33.480  12.452
32685W        W 5033  24.689  16.291  13.907
32686W        W 5034  39.947  36.483  12.403
32687W        W 5035  17.136  29.129  11.373
32688W        W 5036  36.589   4.385  10.409
32689W        W 5037  30.153   0.809   3.692
32690W        W 5038  37.551   4.346   0.748
32691W        W 5039  25.195  25.498  12.362
32692W        W 5040  12.169  12.757   1.422
32693W        W 5041  17.582  36.447  10.439
32694W        W 5042  37.023  12.830  12.858
32695W        W 5043  39.404  17.713  12.852
32696W        W 5044  34.406  11.840   3.202
32697W        W 5045  13.638  10.636  13.056
32698W        W 5046   0.967  41.319   1.884
32699W        W 5047  42.408  36.985   0.802
32700W        W 5048  27.122  27.982  13.481
32701W        W 5049  10.736  32.898   2.673
32702W        W 5050   6.293  40.529   4.266
32703W        W 5051   0.904  13.706   2.231
32704W        W 5052  35.990  13.659  13.533
32705W        W 5053  33.400  13.815   2.846
32706W        W 5054  19.171  19.541   0.844
32707W        W 5055  20.104  30.155   5.249
32708W        W 5056   2.759  32.425  12.945
32709W        W 5057   5.351  42.455  10.420
32710W        W 5058   1.866   2.262   3.818
32711W        W 5059  37.426  13.192  11.530
32712W        W 5060  34.554  19.778   4.703
32713W        W 5061  15.271   1.381  12.005
32714W        W 5062  41.833  17.216  14.956
32715W        W 5063  24.609  40.367   2.798
32716W        W 5064   1.881  28.604  12.899
32717W        W 5065  25.086  40.486  10.921
32718W        W 5066  41.401  26.679   4.700
32719W        W 5067   6.348  15.578   2.214
32720W        W 5068  32.621  27.155  10.968
32721W        W 5069  29.555   9.666  14.430
32722W        W 5070  17.779  35.529   1.735
32723W        W 5071  15.790  24.651   3.349
32724W        W 5072   8.676   6.717  13.848
32725W        W 5073   2.272   1.426   3.840
32726W        W 5074  12.635  25.114   0.870
32727W        W 5075   7.702  28.569   2.324
32728W        W 5076  20.526  14.611   2.887
32729W        W 5077  31.135  40.807   4.221
32730W        W 5078   7.747  16.262  13.482
32731W        W 5079  33.875  31.547  10.530
32732W        W 5080  14.154  21.664   3.234
32733W        W 5081   7.769  32.924   2.786
32734W        W 5082  43.784  19.125   1.341
32735W        W 5083   1.306  40.415   2.812
32736W        W 5084  20.215  42.283   1.707
32737W        W 5085  33.576  33.562  12.566
32738W        W 5086   5.924  43.509   0.905
32739W        W 5087  27.126  13.706   4.787
32740W        W 5088  10.811  35.053  12.345
32741W        W 5089   8.217  15.726  13.389
32742W        W 5090   4.223  37.581   1.320
32743W        W 5091  35.480  35.895   0.933
32744W        W 5092  31.559  10.312   3.776
32745W        W 5093  19.122  44.455   3.311
32746W        W 5094  17.671  21.178   4.251
32747W        W 5095  43.460  41.505   2.222
32748W        W 5096  12.822  34.496  12.520
32749W        W 5097   8.362   4.754   0.932
32750W        W 5098   6.759  20.638  12.573
32751W        W 5099  27.605  23.996   3.348
32752W        W 5100  42.797  23.701   2.846
32753W        W 5101  21.156  37.441   0.327
32754W        W 5102  33.398  28.992   0.727
32755W        W 5103  33.474  44.786   2.269
32756W        W 5104  21.108  13.123  12.977
32757W        W 5105  10.199  36.512   3.296
32758W        W 5106  39.009  15.296   4.121
32759W        W 5107  16.211  28.970  12.485
32760W        W 5108  23.552  21.259  11.013
32761W        W 5109  39.873  34.565  12.538
32762W        W 5110  15.177  10.240   3.237
32763W        W 5111  20.263  43.481  12.543
32764W        W 5112  27.526  40.474   3.160
32765W        W 5113   3.270  39.004  14.486
32766W        W 5114  16.594   3.268   1.754
32767W        W 5115  27.116  31.483  13.417
32768W        W 5116   6.766  12.732  14.006
32769W        W 5117  24.166  16.798  14.890
32770W        W 5118  19.090   5.351   3.696
32771W        W 5119   5.768  35.531   1.330
32772W        W 5120  11.702  14.315  10.119
32773W        W 5121   5.308  22.143   1.384
32774W        W 5122   3.745  41.881   0.342
32775W        W 5123  42.522  34.995   4.804
32776W        W 5124   1.388  28.481   1.815
32777W        W 5125  32.476  13.165  11.944
32778W        W 5126  14.784  14.604  14.428
32779W        W 5127  40.485   5.751   1.841
32780W        W 5128  22.506  17.092  12.916
32781W        W 5129  39.893  17.217   3.693
32782W        W 5130  12.146  40.952   0.776
32783W        W 5131  44.293  43.973   0.311
32784W        W 5132  34.063  34.535   9.623
32785W        W 5133  20.542  22.185   2.889
32786W        W 5134  31.482   8.812  14.765
32787W        W 5135  13.645   5.844   4.129
32788W        W 5136  27.006  12.292  10.509
32789W        W 5137  36.862   8.840  11.551
32790W        W 5138  33.940  36.513  12.854
32791W        W 5139  13.697   3.745   3.195
32792W        W 5140  24.668   3.375  12.079
32793W        W 5141  22.096  13.654  13.814
32794W        W 5142  36.390  13.783   0.781
32795W        W 5143  29.081   5.713  14.972
32796W        W 5144  34.008  37.400   2.789
32797W        W 5145  14.124   0.794  11.608
32798W        W 5146   4.894  27.186   3.693
32799W        W 5147  40.428  24.013   4.610
32800W        W 5148  31.639  42.487  10.905
32801W        W 5149  19.720  10.202   5.241
32802W        W 5150  43.300   2.915   1.747
32803W        W 5151  10.181   6.420   5.195
32804W        W 5152  12.778  19.575   1.722
32805W        W 5153  14.239   0.838   3.752
32806W        W 5154   9.643  24.161   1.363
32807W        W 5155   7.407   2.908   3.344
32808W        W 5156  32.931  39.392   4.145
32809W        W 5157  41.316  13.686   1.385
32810W        W 5158  21.723  36.902   0.257
32811W        W 5159  23.099  28.673   4.744
32812W        W 5160  19.538  44.435   2.319
32813W        W 5161  37.415   3.240   1.323
32814W        W 5162  30.505  10.283   0.292
32815W        W 5163  32.434  41.819  14.007
32816W        W 5164  24.032  35.001  11.869
32817W        W 5165  35.071   7.280  10.572
32818W        W 5166   5.350   3.406   0.905
32819W        W 5167   0.770  13.225   4.687
32820W        W 5168  24.186  27.165  11.513
32821W        W 5169  26.557   2.923   4.349
32822W        W 5170  34.076   8.727   2.350
32823W        W 5171   7.410  35.954  14.385
32824W        W 5172  21.595   3.364   2.802
32825W        W 5173  35.531   5.708  11.979
32826W        W 5174   2.906  20.556  14.457
32827W        W 5175  22.135  28.069   3.774
32828W        W 5176  44.900   0.947   2.330
32829W        W 5177  38.014  13.740   3.815
32830W        W 5178  40.467  20.249  12.446
32831W        W 5179  11.817  10.306  12.080
32832W        W 5180   9.300   2.409   0.769
32833W        W 5181  22.104  21.571  11.407
32834W        W 5182  42.940  26.973   1.885
32835W        W 5183  27.101  41.455   2.836
32836W        W 5184  14.648  18.592  10.902
32837W        W 5185   3.910  37.539  12.371
32838W        W 5186  14.335  34.515  13.826
32839W        W 5187  43.316  30.554   0.849
32840W        W 5188   4.222  33.600  13.388
32841W        W 5189  40.418   9.392  13.924
32842W        W 5190   2.243  18.682   1.763
32843W        W 5191  10.271  27.019   4.175
32844W        W 5192   6.382  20.554   3.669
32845W        W 5193   5.376  41.359  14.015
32846W        W 5194  35.381  15.603  13.388
32847W        W 5195  17.079   0.933   3.356
32848W        W 5196  25.635   6.334   4.347
32849W        W 5197  28.185  40.823  11.995
32850W        W 5198  43.436  39.011  13.482
32851W        W 5199  17.098  20.723   3.732
32852W        W 5200   4.444  15.085   0.741
32853W        W 5201   6.393  32.049  11.508
32854W        W 5202  36.020   1.290   4.253
32855W        W 5203  10.176   5.773   4.644
32856W        W 5204  40.455  17.165  12.899
32857W        W 5205  27.447  13.839   3.766
32858W        W 5206  43.989   5.308   3.775
32859W        W 5207  17.110  25.554  11.856
32860W        W 5208  17.267  31.982  11.008
32861W        W 5209  10.711  23.549  11.455
32862W        W 5210   5.701  36.851   2.667
32863W        W 5211   7.771  37.520   2.220
32864W        W 5212  15.272  42.487  13.410
32865W        W 5213  18.190  22.599  13.412
32866W        W 5214  39.000   5.400  13.902
32867W        W 5215  41.787  14.703  12.966
32868W        W 5216  22.217  17.184  12.506
32869W        W 5217  12.804   7.178  13.506
32870W        W 5218   4.245  30.436  13.890
32871W        W 5219  10.718  23.057   1.869
32872W        W 5220  10.820   4.892   2.700
32873W        W 5221  43.916  43.850   3.319
32874W        W 5222   9.728  34.473  14.309
32875W        W 5223  17.683   9.322  13.042
32876W        W 5224  20.557   8.167  10.411
32877W        W 5225  37.517   7.835  14.338
32878W        W 5226  37.520  44.966   0.762
32879W        W 5227  21.152  24.507  11.952
32880W        W 5228   2.956  15.645  10.002
32881W        W 5229  27.479  34.514  10.460
32882W        W 5230  11.350  12.651   1.388
32883W        W 5231  40.423  32.550   4.174
32884W        W 5232  16.778   0.789   2.390
32885W        W 5233  17.722  16.659  13.527
32886W        W 5234  25.971  17.673  14.335
32887W        W 5235  18.296  21.018  11.909
32888W        W 5236  39.556  16.169  13.046
32889W        W 5237  17.156  36.066   4.177
32890W        W 5238  11.360  38.554   0.410
32891W        W 5239  29.450  39.056  14.965
32892W        W 5240  15.134  38.849  12.053
32893W        W 5241  30.026  22.544   2.398
32894W        W 5242  36.503  38.557   2.309
32895W        W 5243  22.245   7.886   5.096
32896W        W 5244  39.994   6.312   4.261
32897W        W 5245  28.651  34.013   2.859
32898W        W 5246  15.230   0.300  11.391
32899W        W 5247  41.911  30.480   4.235
32900W        W 5248  28.530  29.930   3.221
32901W        W 5249  17.772  32.636  12.094
32902W        W 5250  39.866   8.389   4.123
32903W        W 5251  12.142  30.451   3.351
32904W        W 5252  42.498  31.604  13.017
32905W        W 5253  38.934  40.896   3.839
32906W        W 5254   1.316  36.467  13.044
32907W        W 5255  15.608  24.057   2.272
32908W        W 5256  33.890  31.993   3.311
32909W        W 5257  41.369   8.864   3.213
32910W        W 5258  23.677  22.566   1.924
32911W        W 5259  34.941  11.673  11.427
32912W        W 5260  18.159  37.037   0.735
32913W        W 5261  22.126  16.218   3.737
32914W        W 5262  27.170   6.792  10.625
32915W        W 5263   1.444  34.032   4.164
32916W        W 5264   6.417  11.680  13.522
32917W        W 5265   6.298  27.136  10.999
32918W        W 5266   5.430   4.250  14.494
32919W        W 5267  15.087  40.029  14.955
32920W        W 5268  29.044   1.428   3.249
32921W        W 5269  36.019  32.400   0.952
32922W        W 5270  25.975  11.846  13.335
32923W        W 5271  13.757  19.664   1.925
32924W        W 5272   7.303  22.230  10.633
32925W        W 5273  34.375  40.024  14.360
32926W        W 5274   5.203  36.438  13.487
32927W        W 5275   2.340  26.156   2.317
32928W        W 5276  37.552  15.727   4.807
32929W        W 5277  19.658  40.993   2.323
32930W        W 5278   4.793   8.179  13.921
32931W        W 5279  19.779   1.891  12.037
32932W        W 5280   8.312  20.126   1.360
32933W        W 5281  26.510  16.717  11.874
32934W        W 5282  22.123  19.725  13.865
32935W        W 5283  42.330   8.289   4.212
32936W        W 5284  35.573   7.735  13.032
32937W        W 5285  43.863   0.342   2.737
32938W        W 5286   0.469  42.343  13.949
32939W        W 5287   2.779  36.428  14.375
32940W        W 5288  23.708  21.542  14.943
32941W        W 5289   2.425  22.547   1.243
32942W        W 5290  16.786  43.459   4.675
32943W        W 5291   5.374  10.243  12.992
32944W        W 5292  29.499  43.890   0.777
32945W        W 5293  14.663  23.122   2.203
32946W        W 5294  37.974  28.622  12.986
32947W        W 5295  25.981   8.311  14.362
32948W        W 5296  19.125  43.433  12.977
32949W        W 5297  16.795   9.784   3.298
32950W        W 5298  13.726  14.621   0.934
32951W        W 5299  10.734  29.982   3.799
32952W        W 5300   3.359  13.206  12.353
32953W        W 5301   9.347  13.147  10.546
32954W        W 5302  24.486  39.931   1.235
32955W        W 5303   7.316   3.460  11.445
32956W        W 5304  17.129  25.198   1.426
32957W        W 5305   7.323  12.784  11.049
32958W        W 5306  41.847  24.034  11.934
32959W        W 5307  40.319  35.900   4.676
32960W        W 5308  18.656  13.158   1.902
32961W        W 5309  35.876   2.359   2.244
32962W        W 5310  28.061  22.253   2.893
32963W        W 5311   3.406  24.004   5.230
32964W        W 5312  23.149  43.516   1.852
32965W        W 5313  39.451  21.231  13.308
32966W        W 5314   2.457  35.923   4.785
32967W        W 5315  30.049   8.390  10.997
32968W        W 5316  23.241   2.342  10.940
32969W        W 5317  18.255  17.649   1.864
32970W        W 5318  36.847  35.588  14.966
32971W        W 5319   9.226  41.802   4.283
32972W        W 5320  29.519  26.067  11.890
32973W        W 5321  18.090   0.935   0.477
32974W        W 5322  19.722  39.424  10.999
32975W        W 5323  12.144   9.751   2.279
32976W        W 5324  27.488   7.175  10.913
32977W        W 5325  16.753   7.372   0.262
32978W        W 5326  24.117  15.705  13.858
32979W        W 5327  20.197  24.488  10.444
32980W        W 5328  11.322  42.520  12.032
32981W        W 5329   6.218  11.127  14.782
32982W        W 5330  32.930  19.598   4.700
32983W        W 5331  25.708  26.655   1.423
32984W        W 5332   1.242  35.982   4.245
32985W        W 5333  31.598  44.377   1.380
32986W        W 5334  38.824  40.049  11.525
32987W        W 5335  17.771   8.358  12.898
32988W        W 5336  30.592  34.527   0.884
32989W        W 5337  20.032  18.558   3.226
32990W        W 5338   5.276   0.292  10.998
32991W        W 5339  43.920  30.537   3.830
32992W        W 5340  33.922  37.566   3.306
32993W        W 5341  18.198   4.392  10.978
32994W        W 5342  14.793  40.370  10.923
32995W        W 5343  41.479  30.574   0.321
32996W        W 5344   7.230  32.067  11.384
32997W        W 5345  12.156  17.236   0.271
32998W        W 5346  30.622  43.872   4.146
32999W        W 5347  18.767  21.202  12.854
33000W        W 5348  17.671  18.102   4.608
33001W        W 5349  10.174  44.003  14.372
33002W        W 5350  34.377  41.792   3.746
33003W        W 5351  38.034   3.711   9.661
33004W        W 5352   2.322   2.860  14.430
33005W        W 5353   1.260  27.525   4.155
33006W        W 5354  10.799  29.938   2.222
33007W        W 5355   3.731  39.443  11.987
33008W        W 5356  11.625   9.231  14.796
33009W        W 5357  32.907  22.086  10.957
33010W        W 5358  26.678  40.976  10.413
33011W        W 5359  40.428   2.245   2.397
33012W        W 5360  20.567  40.903  11.062
33013W        W 5361  42.354  32.045  11.958
33014W        W 5362  16.210  34.409  14.286
33015W        W 5363  12.346  22.620  10.562
33016W        W 5364  21.035  16.721   1.751
33017W        W 5365  25.510  30.910   2.760
33018W        W 5366  31.050  37.981  11.984
33019W        W 5367  23.181  33.554  14.981
33020W        W 5368  16.659  25.172   3.343
33021W        W 5369  20.030  19.168   2.240
33022W        W 5370  33.395   4.361   1.270
33023W        W 5371  37.564   5.251  10.530
33024W        W 5372  12.683  28.661  13.451
33025W        W 5373   9.304  26.586  11.531
33026W        W 5374  26.968  34.930  11.530
33027W        W 5375  36.872   1.256   3.685
33028W        W 5376  31.451  32.618   4.257
33029W        W 5377  41.876  23.697   4.818
33030W        W 5378  38.917   4.230  13.538
33031W        W 5379  35.888  16.649   0.897
33032W        W 5380  30.540  23.168   0.956
33033W        W 5381   6.234   2.860  14.810
33034W        W 5382  29.136  16.079   2.805
33035W        W 5383   3.913  35.956  12.436
33036W        W 5384  36.378   8.667   4.613
33037W        W 5385  10.210  10.786   4.709
33038W        W 5386  18.766  36.516  11.963
33039W        W 5387  36.078  13.635  10.494
33040W        W 5388  17.796   7.882   1.880
33041W        W 5389   6.715  24.190   3.757
33042W        W 5390  44.871   5.711  10.996
33043W        W 5391   7.775  30.495   4.758
33044W        W 5392  15.691  41.955   0.280
33045W        W 5393  22.153  17.794  14.431
33046W        W 5394  37.541   8.206  11.936
33047W        W 5395  29.563  24.543   4.792
33048W        W 5396  13.246  31.014  10.432
33049W        W 5397   7.684  29.919   2.738
33050W        W 5398   5.318  13.703  14.915
33051W        W 5399  36.436   7.672  12.885
33052W        W 5400  34.120  41.817  10.618
33053W        W 5401  21.017  41.026  13.030
33054W        W 5402  26.662  29.437   5.084
33055W        W 5403  13.736  29.015  11.431
33056W        W 5404  12.742  17.151  10.894
33057W        W 5405   7.849  13.795  14.808
33058W        W 5406  44.341   9.255  14.979
33059W        W 5407  19.286  22.623  14.323
33060W        W 5408  28.061   8.775  12.419
33061W        W 5409  27.490  24.679  11.124
33062W        W 5410  27.159  17.252  14.428
33063W        W 5411  10.822  14.207  12.077
33064W        W 5412   5.869  34.923   4.699
33065W        W 5413  40.895  32.462  14.940
33066W        W 5414  42.483  28.636  14.856
33067W        W 5415   1.934   6.193  10.914
33068W        W 5416  44.472  30.616  14.491
33069W        W 5417   6.337  27.463  12.937
33070W        W 5418  10.317  18.711   2.665
33071W        W 5419   3.278  19.086   0.296
33072W        W 5420  41.792  32.108   5.139
33073W        W 5421  17.200   9.224  13.802
33074W        W 5422  44.339  18.594   2.184
33075W        W 5423   4.211  27.683   2.353
33076W        W 5424  22.624  44.777  12.020
33077W        W 5425  27.512  16.189  11.884
33078W        W 5426  34.409  40.494   0.920
33079W        W 5427   0.455  37.451  13.998
33080W        W 5428   6.377  13.841  11.110
33081W        W 5429  36.401  12.349  11.914
33082W        W 5430  43.837  21.646  12.835
33083W        W 5431   6.228  28.478   1.840
33084W        W 5432  42.364  32.049  14.955
33085W        W 5433  17.063   1.415   2.741
33086W        W 5434  33.952   4.752   1.710
33087W        W 5435  10.201   7.699   1.370
33088W        W 5436   0.250  27.104   3.839
33089W        W 5437  39.050  16.255   4.226
33090W        W 5438  29.987   4.863   0.315
33091W        W 5439  42.898   2.456  13.387
33092W        W 5440  10.167  10.301   0.275
33093W        W 5441   5.222  21.685   2.844
33094W        W 5442   4.381   9.309  11.479
33095W        W 5443  41.917   4.901   1.852
33096W        W 5444   9.807  22.743  13.382
33097W        W 5445   3.894  40.486   3.819
33098W        W 5446  36.901  42.832   0.344
33099W        W 5447   7.847  39.966  10.887
33100W        W 5448  44.443  38.506  13.023
33101W        W 5449  12.153  42.858  12.069
33102W        W 5450  39.403   1.790   4.765
33103W        W 5451  17.212   6.864   3.201
33104W        W 5452  31.104  35.089  14.373
33105W        W 5453  23.495  35.937   4.751
33106W        W 5454  10.157  37.419  11.490
33107W        W 5455   8.230  40.436   4.327
33108W        W 5456   9.821   7.690  13.037
33109W        W 5457   4.389  12.704   2.225
33110W        W 5458  16.103  18.106  12.435
33111W        W 5459  33.446  24.689  13.950
33112W        W 5460  17.168  32.393   0.938
33113W        W 5461  23.707  16.183   2.392
33114W        W 5462   3.298  31.023   3.385
33115W        W 5463  27.585  29.494   3.864
33116W        W 5464   4.450   0.393   0.749
33117W        W 5465  24.721   6.890  11.456
33118W        W 5466  41.921   8.670   5.321
33119W        W 5467   6.801  28.157   4.675
33120W        W 5468  41.303  10.803   4.311
33121W        W 5469   5.915  24.696   1.364
33122W        W 5470   7.175  12.854  11.391
33123W        W 5471   9.753  27.127  14.797
33124W        W 5472  39.983  20.568  14.986
33125W        W 5473   6.801  22.240  12.967
33126W        W 5474  25.988  31.498  13.949
33127W        W 5475  38.968  43.392  12.887
33128W        W 5476  21.058  41.444   1.811
33129W        W 5477  16.260  11.708  12.951
33130W        W 5478  31.035  39.903   0.288
33131W        W 5479  29.025  38.486   2.751
33132W        W 5480  33.916  27.481   0.881
33133W        W 5481  27.651   2.402   0.802
33134W        W 5482  28.544   5.295  12.342
33135W        W 5483  35.494   8.671  12.900
33136W        W 5484   7.188  19.777  14.028
33137W        W 5485  25.040  16.712   0.903
33138W        W 5486  24.668  38.518  13.470
33139W        W 5487  20.063   6.757  14.935
33140W        W 5488  15.631   3.794  13.884
33141W        W 5489  26.651   6.725   1.414
33142W        W 5490  17.775   9.275  14.827
33143W        W 5491   0.474   4.754   4.794
33144W        W 5492  42.483   4.915  10.498
33145W        W 5493  32.401  36.575  12.491
33146W        W 5494  38.354   9.290   2.191
33147W        W 5495  14.182  40.389   2.230
33148W        W 5496  38.852  23.544   1.774
33149W        W 5497  13.345  44.271   1.241
33150W        W 5498  17.218   2.732  13.842
33151W        W 5499  12.620  40.981  11.443
33152W        W 5500  30.616  26.136   1.739
33153W        W 5501  38.895  25.171   0.243
33154W        W 5502  20.669   8.691  14.894
33155W        W 5503  15.322  25.163   4.698
33156W        W 5504  27.478   7.178   3.728
33157W        W 5505  38.944  16.162  14.332
33158W        W 5506  44.314  13.137  10.605
33159W        W 5507  25.547  33.127  11.932
33160W        W 5508  17.075  38.447  14.406
33161W        W 5509  32.101  41.470   1.267
33162W        W 5510  44.783   9.273   0.466
33163W        W 5511  12.183  26.175   1.367
33164W        W 5512  31.485  19.744   1.822
33165W        W 5513  31.109   1.427   3.264
33166W        W 5514  39.866   7.171   1.835
33167W        W 5515  36.385  30.944   0.336
33168W        W 5516   4.321   6.721  11.071
33169W        W 5517   5.237  26.598   2.299
33170W        W 5518  28.564  16.698   2.800
33171W        W 5519  26.147  42.944   3.741
33172W        W 5520  43.385  33.923  11.975
33173W        W 5521   0.382  33.099   1.214
33174W        W 5522  41.899  21.690   4.349
33175W        W 5523  44.756  37.960  13.386
33176W        W 5524  42.507  25.576   2.793
33177W        W 5525  34.866   3.728   2.345
33178W        W 5526  17.188  36.430  13.873
33179W        W 5527  34.000  42.996  14.974
33180W        W 5528  22.612  38.511  11.979
33181W        W 5529  20.675  32.496   2.666
33182W        W 5530  39.025  16.732  12.446
33183W        W 5531  16.224  39.506   0.336
33184W        W 5532  31.096  33.060  11.581
33185W        W 5533  28.987  36.089  10.995
33186W        W 5534  19.262  24.705  13.352
33187W        W 5535  44.784  21.248   1.843
33188W        W 5536  14.622   5.312  13.474
33189W        W 5537  15.156   6.182  12.563
33190W        W 5538   7.314  12.641  13.370
33191W        W 5539  43.495  44.421   3.157
33192W        W 5540  15.215  19.778   2.336
33193W        W 5541  33.995  23.123  14.383
33194W        W 5542  34.509  32.467   3.258
33195W        W 5543  42.458  13.126  11.604
33196W        W 5544  40.044  31.119  12.489
33197W        W 5545  29.646  19.637  13.503
33198W        W 5546  19.217  36.450   3.673
33199W        W 5547  26.637   6.212   1.865
33200W        W 5548  11.246  23.658  13.482
33201W        W 5549  22.534   0.795   2.679
33202W        W 5550  16.261  44.937   4.250
33203W        W 5551  21.669  19.780   1.824
33204W        W 5552   1.885   4.231  11.416
33205W        W 5553  35.067  28.462   4.283
33206W        W 5554  20.212   9.761  11.103
33207W        W 5555  20.724  33.625   0.416
33208W        W 5556  18.598  24.106   0.901
33209W        W 5557  39.058  38.361   1.723
33210W        W 5558   1.742   7.857  11.438
33211W        W 5559  26.193  14.639  11.915
33212W        W 5560   0.780  31.454  14.015
33213W        W 5561  42.928  26.140  14.962
33214W        W 5562   0.838   1.899   1.796
33215W        W 5563  22.703  40.502  12.908
33216W        W 5564   7.709  40.313   2.782
33217W        W 5565  26.958  40.457   2.348
33218W        W 5566   4.320   7.275  13.046
33219W        W 5567  40.001  31.486  14.412
33220W        W 5568  10.268  13.147   3.856
33221W        W 5569  44.819  12.796  12.542
33222W        W 5570  18.070   0.964  12.489
33223W        W 5571   7.331  18.731   2.770
33224W        W 5572  22.631  15.676  11.504
33225W        W 5573  22.160   5.421   0.382
33226W        W 5574   3.380  33.988  10.593
33227W        W 5575  27.455  40.517  11.047
33228W        W 5576   1.441  30.150   1.798
33229W        W 5577  29.964   5.290   2.896
33230W        W 5578  42.511  41.453  13.350
33231W        W 5579   7.257  12.148   4.811
33232W        W 5580  42.017  16.112   3.380
33233W        W 5581  10.855  10.847   3.309
33234W        W 5582  42.896  16.141   0.253
33235W        W 5583  38.921  30.003  11.458
33236W        W 5584  43.299  26.112  11.102
33237W        W 5585  26.980  28.466   4.261
33238W        W 5586  36.362  19.212   2.789
33239W        W 5587  43.915   8.663  14.435
33240W        W 5588  27.472  14.715  10.591
33241W        W 5589  38.461  34.048   2.294
33242W        W 5590  31.907  38.824   1.446
33243W        W 5591  29.102  34.903   3.736
33244W        W 5592  38.373  27.137  10.452
33245W        W 5593  18.168  35.932  10.949
33246W        W 5594  18.288   3.862   3.695
33247W        W 5595   5.910   4.441  14.451
33248W        W 5596  34.919   9.883   0.874
33249W        W 5597  22.075  22.518   3.254
33250W        W 5598   9.644   4.436  13.344
33251W        W 5599   2.366  13.249  11.036
33252W        W 5600  37.025  30.048   0.879
33253W        W 5601   6.765   8.691  12.979
33254W        W 5602  15.728  11.849  14.943
33255W        W 5603  37.995   4.741  14.323
33256W        W 5604   3.890  21.238   3.292
33257W        W 5605  18.156   3.362  11.559
33258W        W 5606  14.132   2.889  12.996
33259W        W 5607  30.123  41.515   1.718
33260W        W 5608   1.262  23.574  14.912
33261W        W 5609  43.016  18.153   3.262
33262W        W 5610  31.579  29.136   1.857
33263W        W 5611   2.777   7.898   4.635
33264W        W 5612  27.127  31.104   1.725
33265W        W 5613  42.932  12.282  11.900
33266W        W 5614  17.129  27.625   1.794
33267W        W 5615  40.974  37.076  14.275
33268W        W 5616  30.536  20.555   3.189
33269W        W 5617  24.561  36.556   4.656
33270W        W 5618   7.764   2.399   3.688
33271W        W 5619  28.055  11.245  10.012
33272W        W 5620  41.810   0.427   4.776
33273W        W 5621  10.768  39.402   0.381
33274W        W 5622   1.264  34.374  11.566
33275W        W 5623  30.539  17.756   1.921
33276W        W 5624  24.195   6.787  13.897
33277W        W 5625   4.812  44.390  12.874
33278W        W 5626  24.100  15.704   4.166
33279W        W 5627   4.236  17.194  11.468
33280W        W 5628  30.116  34.913   2.752
33281W        W 5629  44.450   8.169  12.859
33282W        W 5630  37.966  11.214  11.899
33283W        W 5631   5.213  19.682   0.936
33284W        W 5632  40.912  30.942  10.434
33285W        W 5633  31.949   5.389   9.520
33286W        W 5634   7.857  36.360   3.690
33287W        W 5635   7.252  31.047   0.874
33288W        W 5636  22.719   5.892  14.448
33289W        W 5637  42.308   7.679   3.317
33290W        W 5638  29.072  42.020  13.460
33291W        W 5639   1.267  25.034  11.907
33292W        W 5640  34.947  17.250  11.464
33293W        W 5641  21.211   2.234  14.011
33294W        W 5642  31.942  35.561   4.300
33295W        W 5643   7.760  44.410  14.785
33296W        W 5644  25.701  12.206  13.862
33297W        W 5645  39.401  20.612  11.918
33298W        W 5646  26.680   1.739  12.876
33299W        W 5647  20.184   9.383  13.384
33300W        W 5648  21.171  26.959   2.337
33301W        W 5649   8.818  11.786   0.871
33302W        W 5650  16.574  11.662  11.959
33303W        W 5651  21.542  10.749   2.723
33304W        W 5652  17.652  40.463   1.409
33305W        W 5653  26.692  34.106  14.992
33306W        W 5654  37.376  10.362   0.330
33307W        W 5655  25.077  16.149   1.933
33308W        W 5656  30.466  20.750  11.107
33309W        W 5657  25.608  28.119  10.028
33310W        W 5658  25.678  10.633   0.939
33311W        W 5659  35.505  41.014  10.594
33312W        W 5660  37.411   0.827  10.969
33313W        W 5661   6.342   6.364   2.763
33314W        W 5662  42.508  26.649   3.273
33315W        W 5663   8.825  38.969   0.411
33316W        W 5664  11.746   7.760  10.903
33317W        W 5665  30.578  42.794   1.705
33318W        W 5666  22.680   7.863  13.417
33319W        W 5667   5.765  19.223   4.768
33320W        W 5668   1.433  35.456  14.416
33321W        W 5669  19.063  44.300   0.878
33322W        W 5670   4.864  31.598  14.366
33323W        W 5671   8.185  16.666   1.841
33324W        W 5672  42.431  38.432  11.981
33325W        W 5673  23.168  43.301  11.879
33326W        W 5674  26.639  38.953   2.240
33327W        W 5675   3.918  17.654   2.203
33328W        W 5676  26.085   4.890  12.833
33329W        W 5677  31.584  37.029   4.132
33330W        W 5678  34.929  32.609  12.416
33331W        W 5679  10.256  24.618  12.867
33332W        W 5680   6.286  41.833  13.056
33333W        W 5681  36.451   8.250  12.437
33334W        W 5682  12.286  31.534   2.875
33335W        W 5683  17.300   2.246  13.417
33336W        W 5684  23.095  20.535   2.203
33337W        W 5685   8.284  29.032  12.545
33338W        W 5686  37.831  24.666  13.417
33339W        W 5687   1.898   4.920   3.754
33340W        W 5688  44.420  39.400   4.726
33341W        W 5689  11.718  28.502   1.854
33342W        W 5690  25.530  38.020  11.418
33343W        W 5691  34.881  19.093   3.840
33344W        W 5692  23.029   8.406  10.117
33345W        W 5693  19.565  37.481   0.463
33346W        W 5694   5.837   3.406  11.991
33347W        W 5695  29.032  19.098   2.717
33348W        W 5696  20.667  28.992   0.748
33349W        W 5697  25.164   3.744  14.313
33350W        W 5698   8.360  43.380  11.039
33351W        W 5699   7.735  28.103  13.418
33352W        W 5700  16.605  14.612  13.333
33353W        W 5701   2.908  36.851   4.604
33354W        W 5702  34.092   0.808   3.837
33355W        W 5703  20.080  13.763   3.733
33356W        W 5704  37.989  15.779   1.852
33357W        W 5705  15.284  20.134   0.739
33358W        W 5706   9.364  42.413  13.976
33359W        W 5707  42.796  32.478  13.411
33360W        W 5708  35.860  30.548  14.889
33361W        W 5709  34.613  42.864   3.371
33362W        W 5710  15.807   9.182  12.861
33363W        W 5711  24.574  44.322   1.293
33364W        W 5712   0.756   4.262  14.372
33365W        W 5713  35.423  20.621   2.782
33366W        W 5714  10.159  30.936   4.672
33367W        W 5715   5.831  39.820   2.339
33368W        W 5716  16.218  21.541   0.437
33369W        W 5717   3.732   3.723   4.721
33370W        W 5718  22.642  16.156  14.276
33371W        W 5719  41.375  25.476   4.678
33372W        W 5720  13.315  43.396  14.324
33373W        W 5721  27.114  37.021  10.442
33374W        W 5722  18.655  25.064   4.628
33375W        W 5723  44.913  18.574   0.375
33376W        W 5724  19.705  39.843  13.982
33377W        W 5725  18.193  44.355  12.495
33378W        W 5726  36.485   4.444   5.722
33379W        W 5727  28.594   0.351  10.981
33380W        W 5728   5.267   6.370  14.426
33381W        W 5729  24.577  39.874   0.399
33382W        W 5730  12.644  38.021  14.395
33383W        W 5731  14.117  25.534   1.872
33384W        W 5732  40.975  27.664  10.523
33385W        W 5733  23.645  24.722   4.780
33386W        W 5734  22.681   4.825   0.348
33387W        W 5735   2.289   6.874  14.469
33388W        W 5736  11.279  11.823   2.686
33389W        W 5737  17.661  42.995   9.968
33390W        W 5738   6.412  39.826   2.283
33391W        W 5739   6.826  41.009  14.819
33392W        W 5740  38.947  13.691   5.249
33393W        W 5741  29.939  10.683  13.023
33394W        W 5742  23.065  40.838  12.545
33395W        W 5743  36.584  34.487  13.979
33396W        W 5744  10.795  29.069  10.888
33397W        W 5745  27.690   1.836   0.964
33398W        W 5746  33.508  38.522   3.344
33399W        W 5747   9.705  26.023  13.540
33400W        W 5748   6.919  15.616   3.161
33401W        W 5749  39.024   8.195   0.886
33402W        W 5750  34.919  28.078   5.082
33403W        W 5751   9.243  37.465  13.413
33404W        W 5752  12.682  35.581   2.306
33405W        W 5753  40.427  41.829  11.124
33406W        W 5754  40.490  23.069   0.958
33407W        W 5755   7.689  27.687   3.264
33408W        W 5756  14.738  44.007   3.635
33409W        W 5757  19.716  28.613   3.326
33410W        W 5758  25.032  33.955  11.424
33411W        W 5759  40.970  12.253   3.812
33412W        W 5760  10.830  33.998   3.690
33413W        W 5761  16.631  22.510   4.259
33414W        W 5762  16.098   7.829  14.914
33415W        W 5763  37.579  35.454   2.243
33416W        W 5764  43.311  44.453   9.929
33417W        W 5765  18.696  29.114  11.409
33418W        W 5766   9.646  15.155   0.919
33419W        W 5767  37.549  33.411   4.219
33420W        W 5768   0.916   2.469  12.473
33421W        W 5769  44.918  27.678   1.858
33422W        W 5770   2.232  26.563   3.666
33423W        W 5771  37.907  32.448   1.357
33424W        W 5772  34.576  42.305  12.879
33425W        W 5773   3.402   4.326  11.937
33426W        W 5774  34.464  28.085  13.026
33427W        W 5775  15.269  27.979   2.178
33428W        W 5776  38.340  41.526  11.528
33429W        W 5777  26.518  43.326  12.376
33430W        W 5778   9.776  39.446  11.588
33431W        W 5779  11.717  14.320  13.886
33432W        W 5780  32.945  28.448  12.086
33433W        W 5781  30.041  30.104  10.574
33434W        W 5782  18.168  14.754  14.469
33435W        W 5783  40.390  40.991   4.622
33436W        W 5784  27.643   6.875  11.570
33437W        W 5785   1.955   6.718  11.432
33438W        W 5786  42.476  18.098  12.064
33439W        W 5787   4.850  29.008   0.855
33440W        W 5788  31.549  11.799   2.823
33441W        W 5789  16.300  19.104   3.793
33442W        W 5790  24.582  32.436   3.339
33443W        W 5791  43.345  35.494  13.510
33444W        W 5792  23.682  24.119  11.941
33445W        W 5793  16.754  18.709  10.436
33446W        W 5794  10.254  33.473  10.901
33447W        W 5795  19.580  17.562  11.422
33448W        W 5796   1.961  39.930  14.780
33449W        W 5797  24.034  13.113   4.162
33450W        W 5798  20.048  37.985  11.465
33451W        W 5799  20.564  27.034   0.323
33452W        W 5800  20.732  44.825  13.489
33453W        W 5801  12.293  26.478   4.716
33454W        W 5802   6.247  11.153   1.884
33455W        W 5803  10.312  33.025   0.771
33456W        W 5804  13.198  15.165   2.774
33457W        W 5805  29.538  32.911   4.725
33458W        W 5806  43.874  29.499  11.551
33459W        W 5807   7.751  13.209  14.291
33460W        W 5808  11.225   6.187  12.519
33461W        W 5809  11.720  15.676   2.754
33462W        W 5810  27.478  42.908  12.838
33463W        W 5811   4.431  17.146   3.254
33464W        W 5812  39.431  10.278  12.900
33465W        W 5813  19.208  36.929   0.847
33466W        W 5814  38.423   2.757   1.768
33467W        W 5815  20.136  15.660   1.933
33468W        W 5816  41.352  24.596   2.838
33469W        W 5817  22.215   4.883  13.003
33470W        W 5818  11.865  20.707  10.487
33471W        W 5819  24.479  11.748   4.599
33472W        W 5820  41.372  33.010  12.968
33473W        W 5821  34.502  35.874   2.202
33474W        W 5822  29.048  34.031   0.761
33475W        W 5823  23.218  11.167   1.745
33476W        W 5824  28.501  28.089   2.680
33477W        W 5825   5.750  33.439  13.024
33478W        W 5826  41.413   5.230  12.493
33479W        W 5827  43.774   8.405   3.317
33480W        W 5828  41.862  27.034   1.300
33481W        W 5829   6.306  44.942  13.923
33482W        W 5830  40.341  43.355  12.048
33483W        W 5831  11.716  28.630  11.021
33484W        W 5832   8.666  32.531  10.415
33485W        W 5833   9.260  44.010   0.453
33486W        W 5834  39.846  44.989   4.233
33487W        W 5835   2.806  33.549  13.429
33488W        W 5836  13.748   5.871   3.245
33489W        W 5837  35.066  36.438   5.102
33490W        W 5838  32.106  39.527  14.323
33491W        W 5839   1.844  30.455  13.984
33492W        W 5840  10.643  33.501  10.588
33493W        W 5841   4.758  23.077  11.857
33494W        W 5842  24.607  26.163   4.340
33495W        W 5843  38.405  31.460  13.404
33496W        W 5844  24.215  29.590   3.152
33497W        W 5845  35.368   9.704  10.413
33498W        W 5846  26.028   9.280   3.639
33499W        W 5847  16.616  25.217  10.564
33500W        W 5848  35.071  25.624   0.448
33501W        W 5849  33.420   1.362  10.006
33502W        W 5850  39.466  35.858  13.817
33503W        W 5851  19.600  11.757  14.340
33504W        W 5852  29.578  24.594   3.643
33505W        W 5853  35.000  23.528   5.313
33506W        W 5854   2.729  24.564   2.882
33507W        W 5855  14.699  12.641   2.824
33508W        W 5856  18.640  36.018  13.441
33509W        W 5857  15.291  13.638   2.852
33510W        W 5858  20.613  30.965   9.620
33511W        W 5859  39.369  33.104  10.470
33512W        W 5860  11.372  24.525  10.597
33513W        W 5861  24.131  15.590   5.262
33514W        W 5862  19.155   0.835  14.481
33515W        W 5863  16.805  10.324   3.172
33516W        W 5864  33.599  40.957   1.844
33517W        W 5865   8.366   7.710   1.703
33518W        W 5866  40.808   5.691   1.219
33519W        W 5867  25.656  10.260   1.441
33520W        W 5868  21.689  22.561   2.344
33521W        W 5869   0.761  40.303   3.633
33522W        W 5870   2.788  16.722  10.537
33523W        W 5871  25.622   9.300   9.518
33524W        W 5872  28.505  11.175  11.602
33525W        W 5873  25.686  36.891  13.450
33526W        W 5874  20.554  32.902   0.326
33527W        W 5875  32.600  35.972   9.989
33528W        W 5876  13.182  34.412   4.351
33529W        W 5877  30.656  25.966   0.842
33530W        W 5878  35.583  11.771   3.323
33531W        W 5879  26.577  26.476   4.813
33532W        W 5880  10.739  16.318   3.233
33533W        W 5881  26.658  41.806  11.377
33534W        W 5882   9.872  20.058   1.881
33535W        W 5883  11.339  38.512  10.999
33536W        W 5884  37.381  22.710   1.859
33537W        W 5885   5.317  22.125  14.927
33538W        W 5886   0.488  20.190  13.857
33539W        W 5887  16.246  27.097   1.770
33540W        W 5888  23.994  20.757   0.868
33541W        W 5889  15.695  41.820  13.805
33542W        W 5890   6.755  12.193  11.996
33543W        W 5891  15.124  35.526   0.874
33544W        W 5892   0.794  19.098  14.315
33545W        W 5893  34.491  16.205   3.837
33546W        W 5894  24.645  24.106  13.521
33547W        W 5895   9.194  26.965   3.799
33548W        W 5896   7.337  26.148  14.299
33549W        W 5897  21.104   2.821   1.741
33550W        W 5898  20.629  42.336   2.271
33551W        W 5899  20.552  35.866   1.430
33552W        W 5900  15.812  13.126   1.346
33553W        W 5901  22.018  27.446   0.332
33554W        W 5902  23.563  15.234   0.331
33555W        W 5903  19.701  34.902  13.843
33556W        W 5904  43.494  37.847   0.293
33557W        W 5905  20.185   7.279   1.711
33558W        W 5906   2.856   0.830   2.787
33559W        W 5907  10.785  40.310  12.941
33560W        W 5908   7.223   6.343   4.338
33561W        W 5909  17.167  41.353  11.999
33562W        W 5910  13.786  42.311   1.771
33563W        W 5911  11.135  41.002  10.998
33564W        W 5912  28.535  19.213  12.519
33565W        W 5913  39.903   7.668  11.946
33566W        W 5914  11.211  18.760  12.555
33567W        W 5915  30.151  30.093   0.822
33568W        W 5916  31.919  22.217   0.244
33569W        W 5917  24.224   3.304  11.031
33570W        W 5918  42.359  41.922  12.876
33571W        W 5919  24.029  34.054   4.252
33572W        W 5920  11.795  34.509  12.408
33573W        W 5921  26.508  12.732  14.447
33574W        W 5922  28.090  27.542  14.924
33575W        W 5923   4.382  20.533   3.630
33576W        W 5924   9.826  18.143  11.423
33577W        W 5925  26.598   1.778  10.144
33578W        W 5926  18.082  36.504   2.891
33579W        W 5927   9.246  15.656   1.270
33580W        W 5928  39.040   9.707   1.819
33581W        W 5929  42.372   8.666   0.837
33582W        W 5930  17.728   1.351  13.370
33583W        W 5931   5.687  23.239  12.975
33584W        W 5932  21.610   6.765  12.967
33585W        W 5933  27.160  41.306  14.796
33586W        W 5934  42.313  24.058  11.464
33587W        W 5935  23.077  27.004   0.803
33588W        W 5936  27.172  34.450  12.943
33589W        W 5937  32.982   2.345  11.605
33590W        W 5938  39.452  14.171  14.449
33591W        W 5939  39.498   6.282  13.037
33592W        W 5940  21.135  41.890  14.975
33593W        W 5941   1.859  19.591   5.171
33594W        W 5942  23.006   5.848  12.340
33595W        W 5943  19.656  38.062  13.924
33596W        W 5944   0.295  25.535   1.931
33597W        W 5945  24.489   5.380   0.457
33598W        W 5946  30.970  34.377  12.428
33599W        W 5947  33.920  19.198   0.943
33600W        W 5948  10.209  29.486   2.734
33601W        W 5949  10.177  35.473   0.828
33602W        W 5950  42.460  29.022   4.339
33603W        W 5951  21.229  43.497  14.790
33604W        W 5952  15.732   9.823  10.924
33605W        W 5953  21.033  32.428  13.372
33606W        W 5954  17.282   1.816   3.699
33607W        W 5955  30.981  29.952  10.888
33608W        W 5956   0.824  43.300   3.696
33609W        W 5957  32.516  13.744   3.336
33610W        W 5958  43.936   8.232  14.381
33611W        W 5959  23.674  36.029  14.988
33612W        W 5960  27.144  44.365  13.015
33613W        W 5961  22.253  40.805  12.094
33614W        W 5962   2.808  34.459  12.963
33615W        W 5963   1.248  37.926  11.373
33616W        W 5964   0.935   1.811   3.712
33617W        W 5965  20.175  14.168   0.845
33618W        W 5966  24.624  23.511   0.363
33619W        W 5967  24.503  19.045   3.334
33620W        W 5968  36.963  35.586   2.730
33621W        W 5969  35.377  39.859   1.308
33622W        W 5970   1.383  26.492  13.960
33623W        W 5971  34.878  18.148  14.759
33624W        W 5972  17.266  11.300  11.069
33625W        W 5973  35.070   5.777   2.771
33626W        W 5974   1.339  25.126  14.824
33627W        W 5975  30.974  38.886  10.577
33628W        W 5976   4.749  35.951   0.956
33629W        W 5977   1.335  32.635  14.352
33630W        W 5978  37.439  43.878  12.905
33631W        W 5979   4.786   8.212  11.408
33632W        W 5980  24.015  44.011   4.123
33633W        W 5981  15.142   5.251   2.264
33634W        W 5982  12.171  43.448   0.774
33635W        W 5983  42.823  15.223   4.336
33636W        W 5984   2.937  29.600   1.382
33637W        W 5985   0.277   1.903   3.260
33638W        W 5986  18.077   5.370  14.319
33639W        W 5987  31.990  10.254   4.695
33640W        W 5988  20.541  31.959   1.218
33641W        W 5989  31.918   5.356   3.250
33642W        W 5990  41.304  32.535  11.524
33643W        W 5991  27.475  15.812   1.806
33644W        W 5992  14.173  34.963  12.037
33645W        W 5993  33.568  27.080   1.778
33646W        W 5994   0.356  25.025  13.900
33647W        W 5995  12.237  33.567   3.789
33648W        W 5996   4.345  33.049   3.838
33649W        W 5997  32.067  32.437   0.403
33650W        W 5998  16.636  35.472  14.293
33651W        W 5999  23.726  14.096   2.312
33652W        W 6000  29.058  37.507   3.687
33653W        W 6001  16.569  21.204  13.873
33654W        W 6002   5.288  34.418   3.276
33655W        W 6003  29.558  14.302  11.475
33656W        W 6004  33.061   8.799  10.957
33657W        W 6005  18.545  20.071   2.881
33658W        W 6006  20.694  43.516  13.033
33659W        W 6007  12.340  31.129  11.953
33660W        W 6008  21.208  26.665  11.106
33661W        W 6009   9.243   0.748  14.946
33662W        W 6010  43.995  44.279   3.219
33663W        W 6011  16.661  38.406   4.343
33664W        W 6012  39.917  17.185  10.632
33665W        W 6013   0.450  31.032   1.700
33666W        W 6014  32.886  34.081  14.812
33667W        W 6015  37.981   2.793   0.445
33668W        W 6016  31.947   2.387  13.421
33669W        W 6017  40.418  22.704   1.896
33670W        W 6018  41.889   1.955  12.855
33671W        W 6019  15.203   9.199  11.977
33672W        W 6020   1.929  25.655  12.913
33673W        W 6021  20.176  20.270  11.041
33674W        W 6022   0.433  29.085  10.631
33675W        W 6023  28.168  25.107   0.418
33676W        W 6024  23.224   2.775  14.806
33677W        W 6025  44.986   4.754   0.373
33678W        W 6026   4.218   4.438   4.126
33679W        W 6027  13.813  35.595  11.059
33680W        W 6028  36.505  23.091   1.451
33681W        W 6029   3.849  28.576   0.484
33682W        W 6030  13.216   9.293   2.399
33683W        W 6031   9.184   9.803  12.382
33684W        W 6032  21.753  14.201   2.389
33685W        W 6033  19.684  15.210   3.746
33686W        W 6034   6.303  17.633  12.528
33687W        W 6035  23.051   8.363   0.337
33688W        W 6036  29.031  23.541  14.343
33689W        W 6037  34.468  26.669   2.309
33690W        W 6038   0.270  37.526   0.434
33691W        W 6039  27.685  35.476   0.742
33692W        W 6040  10.818  32.564  13.056
33693W        W 6041  33.068  39.962   4.647
33694W        W 6042  31.934  21.721  12.896
33695W        W 6043   6.805  13.166   3.816
33696W        W 6044  40.497  34.447   3.237
33697W        W 6045   4.858  34.928  14.452
33698W        W 6046  28.676  11.356  14.763
33699W        W 6047  23.621  11.621   0.309
33700W        W 6048  29.584  32.457  11.492
33701W        W 6049  20.613  19.600  12.340
33702W        W 6050  38.838  14.230  13.006
33703W        W 6051  37.379  17.759   4.288
33704W        W 6052  18.166  29.604   4.294
33705W        W 6053  21.198  25.065  14.893
33706W        W 6054  35.419   5.720   0.924
33707W        W 6055   0.438  31.992   0.916
33708W        W 6056  16.257  36.903   0.812
33709W        W 6057   5.795  18.767   3.279
33710W        W 6058   1.731  37.001  12.571
33711W        W 6059  44.814  21.168  12.003
33712W        W 6060  44.981  18.246   2.227
33713W        W 6061  14.154   5.420   2.272
33714W        W 6062  27.151  34.500  13.366
33715W        W 6063  36.966  44.755   4.626
33716W        W 6064  20.653  33.456  10.503
33717W        W 6065  43.405   4.332   1.282
33718W        W 6066  44.988  15.777   1.391
33719W        W 6067   0.879  36.851   1.893
33720W        W 6068  23.182  35.604   3.289
33721W        W 6069  36.463  14.596  10.477
33722W        W 6070  12.238   3.796   1.775
33723W        W 6071   6.834  39.440   3.223
33724W        W 6072  15.654  10.702  11.446
33725W        W 6073   0.900  26.545   4.323
33726W        W 6074   1.871  35.437  12.543
33727W        W 6075  29.474  26.543   2.723
33728W        W 6076  28.170  44.422   0.343
33729W        W 6077  36.015  41.022   3.351
33730W        W 6078  15.779  26.175   2.207
33731W        W 6079  12.733  13.803   1.430
33732W        W 6080  38.994  31.965  11.880
33733W        W 6081  11.352  15.801  13.058
33734W        W 6082   3.217  38.865   1.922
33735W        W 6083  26.016  19.141  11.008
33736W        W 6084  28.089  16.089  11.022
33737W        W 6085  40.444   5.252   3.367
33738W        W 6086   1.257  10.819  10.904
33739W        W 6087  42.870  42.335  12.934
33740W        W 6088  33.450  27.088   2.879
33741W        W 6089  24.658  18.584   0.732
33742W        W 6090  14.219  18.172   4.213
33743W        W 6091  14.337  42.488  13.826
33744W        W 6092  39.859  44.434   0.334
33745W        W 6093  19.776  38.897   1.917
33746W        W 6094  13.601  44.935  12.027
33747W        W 6095  29.937  22.085  10.497
33748W        W 6096  31.538   0.887   0.400
33749W        W 6097  10.722   4.299   4.316
33750W        W 6098  37.503  28.949   4.681
33751W        W 6099  20.029   8.768  10.596
33752W        W 6100   3.712  26.579   3.368
33753W        W 6101  12.301  24.106   1.788
33754W        W 6102  14.192  20.676  12.368
33755W        W 6103   2.853   2.821  13.903
33756W        W 6104  31.955  34.875  12.036
33757W        W 6105  25.661  20.244   0.469
33758W        W 6106  14.616  16.316  14.319
33759W        W 6107  28.608  30.915  10.483
33760W        W 6108  28.562   2.943  14.023
33761W        W 6109  43.474  14.806   1.324
33762W        W 6110  28.567   3.752  14.811
33763W        W 6111   9.829  29.987  10.554
33764W        W 6112  29.014  44.872  12.376
33765W        W 6113  32.959  30.148  12.959
33766W        W 6114  32.608   6.361  14.414
33767W        W 6115  22.532  30.143  12.511
33768W        W 6116  13.715  31.637   0.884
33769W        W 6117  12.626  28.563   2.695
33770W        W 6118  38.540  14.711   1.259
33771W        W 6119  20.165  16.310  13.382
33772W        W 6120  43.323  23.603   1.709
33773W        W 6121   5.386   7.669   1.226
33774W        W 6122  41.421  11.229  11.953
33775W        W 6123  15.804  43.414  14.760
33776W        W 6124   4.206  23.732  11.382
33777W        W 6125   5.870  22.077   0.409
33778W        W 6126  21.580  43.369   2.402
33779W        W 6127   7.679   0.304  13.427
33780W        W 6128  44.958  41.438   3.841
33781W        W 6129  28.102  33.504   2.712
33782W        W 6130  22.044  34.380   2.242
33783W        W 6131   0.770  25.691  14.438
33784W        W 6132  31.126  41.826   3.669
33785W        W 6133  37.579  25.505   2.846
33786W        W 6134  26.520  26.623  14.356
33787W        W 6135  20.186   5.380  11.108
33788W        W 6136  28.936  38.928  11.019
33789W        W 6137  18.190  34.987   3.846
33790W        W 6138  30.031   1.859  11.892
33791W        W 6139   9.363   0.846  13.326
33792W        W 6140  22.529  40.443  14.856
33793W        W 6141   8.391  19.126  12.530
33794W        W 6142   6.343  26.562   2.665
33795W        W 6143  29.042  38.345  13.332
33796W        W 6144  30.626  33.420  14.328
33797W        W 6145   1.476  18.266  14.403
33798W        W 6146  30.162  20.583  14.829
33799W        W 6147  29.987   9.841   1.295
33800W        W 6148  44.854  12.324  11.078
33801W        W 6149  24.028  38.037  10.890
33802W        W 6150  12.701  36.005  14.790
33803W        W 6151  35.026  21.593   1.246
33804W        W 6152   8.875  38.464  14.901
33805W        W 6153  37.973  21.599  14.940
33806W        W 6154  40.427  13.351  13.813
33807W        W 6155  36.367   0.978  12.436
33808W        W 6156  37.545  43.856   4.294
33809W        W 6157  35.599   8.185  13.845
33810W        W 6158  10.163  44.765  14.942
33811W        W 6159  37.483  33.884  12.444
33812W        W 6160  42.851  37.560  11.859
33813W        W 6161  14.598  30.031   1.884
33814W        W 6162  24.131   1.768   2.379
33815W        W 6163   5.403  27.678  10.500
33816W        W 6164  11.736  25.642   0.301
33817W        W 6165   2.361  21.678   3.259
33818W        W 6166   1.416  33.498   2.238
33819W        W 6167  17.594  34.065  13.986
33820W        W 6168  12.305  10.139  10.900
33821W        W 6169  36.878   2.395   4.153
33822W        W 6170  30.479  17.696   0.940
33823W        W 6171  28.986   3.948   1.448
33824W        W 6172  39.454  39.477   0.349
33825W        W 6173   3.397  11.766  14.808
33826W        W 6174   6.389  18.554  14.934
33827W        W 6175  36.098  19.639   3.301
33828W        W 6176   2.302   3.899   1.737
33829W        W 6177  27.147  35.370  12.913
33830W        W 6178  41.322  16.746   3.835
33831W        W 6179   2.364  13.179   4.781
33832W        W 6180  17.793  11.783   0.769
33833W        W 6181   0.352  29.124   4.703
33834W        W 6182  18.145   8.870   4.805
33835W        W 6183  36.870  19.654  13.854
33836W        W 6184  23.550  40.015   2.365
33837W        W 6185   6.328  42.945  11.901
33838W        W 6186  17.251  31.461   4.625
33839W        W 6187  38.860  27.059   0.301
33840W        W 6188  24.980  35.423  13.379
33841W        W 6189  25.065   1.419  12.397
33842W        W 6190  11.336   0.892  11.023
33843W        W 6191  21.511  14.637   2.402
33844W        W 6192  44.503  15.180   1.819
33845W        W 6193  14.751  10.348   0.777
33846W        W 6194  25.594  26.568  10.442
33847W        W 6195  22.595  43.324  11.471
33848W        W 6196  42.886  39.937   0.278
33849W        W 6197  29.654   8.186  14.327
33850W        W 6198  44.867  40.310  12.491
33851W        W 6199  22.024  40.041   4.270
33852W        W 6200  19.152  36.939   1.845
33853W        W 6201  42.994  13.656   0.244
33854W        W 6202  36.964  12.216  10.639
33855W        W 6203  18.755  24.121  10.500
33856W        W 6204  38.051  22.169   3.157
33857W        W 6205  32.635   4.795   0.394
33858W        W 6206   0.754  35.965   2.356
33859W        W 6207   5.232  40.345  13.964
33860W        W 6208   7.353  30.468  12.965
33861W        W 6209   5.241  24.674   2.278
33862W        W 6210  13.833   0.322   2.897
33863W        W 6211   6.803  26.130  14.834
33864W        W 6212   7.822  25.090  12.348
33865W        W 6213  34.080  12.830  10.403
33866W        W 6214  27.042   3.808  12.007
33867W        W 6215  21.160  10.367   0.881
33868W        W 6216  17.612  34.410  13.007
33869W        W 6217  39.413   9.241   0.337
33870W        W 6218  19.611   8.397  13.399
33871W        W 6219  17.613  20.214   1.247
33872W        W 6220   5.303   2.856  13.021
33873W        W 6221  38.854  16.171  12.414
33874W        W 6222  21.151  38.417   4.656
33875W        W 6223  39.877  22.627   3.206
33876W        W 6224   0.970  31.092   4.674
33877W        W 6225   5.890   8.768   0.331
33878W        W 6226  25.619  15.183   1.799
33879W        W 6227  32.487   9.814   2.697
33880W        W 6228  36.529  13.688  14.300
33881W        W 6229  30.551   2.460  12.376
33882W        W 6230  44.826  20.545  11.488
33883W        W 6231   9.819  15.165  13.545
33884W        W 6232  10.262  34.100   4.717
33885W        W 6233  33.906  33.581  10.531
33886W        W 6234   1.353  33.997   1.725
33887W        W 6235  15.262  13.249  11.882
33888W        W 6236  24.069  21.242  13.367
33889W        W 6237  10.312   8.233  13.541
33890W        W 6238  22.138   9.193   0.953
33891W        W 6239  20.253  21.123  10.894
33892W        W 6240  32.051   1.389   3.665
33893W        W 6241   1.801  21.596   0.465
33894W        W 6242   5.699  15.224  14.973
33895W        W 6243  36.427  44.439   5.093
33896W        W 6244  17.103  17.273  12.072
33897W        W 6245   5.420   2.347   3.810
33898W        W 6246  10.311  26.553  13.820
33899W        W 6247  15.243   1.427   1.219
33900W        W 6248  30.927  22.119  13.841
33901W        W 6249  20.187  23.660   1.857
33902W        W 6250  20.653  16.568  13.999
33903W        W 6251   7.765  37.878  13.841
33904W        W 6252  34.533  44.909   3.202
33905W        W 6253  11.849  19.249  14.023
33906W        W 6254  20.582  37.503  14.848
33907W        W 6255  29.971  20.116  13.834
33908W        W 6256  41.424   5.902  13.491
33909W        W 6257  20.079  18.133   5.219
33910W        W 6258   5.804  42.339  12.377
33911W        W 6259  26.202  19.676  12.416
33912W        W 6260  32.137   3.850  12.852
33913W        W 6261  40.834  35.004   3.806
33914W        W 6262  44.313  13.814   0.251
33915W        W 6263  29.064   3.744  14.937
33916W        W 6264  34.902  10.186  14.796
33917W        W 6265  45.000   3.790  13.014
33918W        W 6266  32.552  14.095  10.011
33919W        W 6267  37.481  14.228   3.785
33920W        W 6268  31.572  18.737   4.696
33921W        W 6269  30.061  32.115  11.529
33922W        W 6270  35.596  42.397   1.706
33923W        W 6271  14.266  36.363  12.902
33924W        W 6272  23.495  37.844   3.859
33925W        W 6273  26.568  18.570   0.962
33926W        W 6274  20.185  39.006  14.357
33927W        W 6275  23.146   4.706  10.927
33928W        W 6276  29.461  14.821   0.465
33929W        W 6277  38.072  40.897  14.887
33930W        W 6278  16.123   7.286  14.958
33931W        W 6279  15.273  29.031  13.926
33932W        W 6280  30.930   5.220  13.415
33933W        W 6281  24.503  31.496  13.981
33934W        W 6282  11.337   0.448   2.779
33935W        W 6283  28.582  22.039  14.968
33936W        W 6284  24.722  23.140   0.756
33937W        W 6285  16.234   8.736  11.492
33938W        W 6286  24.050  34.065  13.899
33939W        W 6287   7.294  40.344   2.354
33940W        W 6288  42.444  27.500   2.891
33941W        W 6289  31.462   9.699   0.357
33942W        W 6290  10.771  10.159   1.893
33943W        W 6291  10.353   5.324  10.995
33944W        W 6292  34.406  40.963  14.333
33945W        W 6293  23.004  40.042  14.352
33946W        W 6294   1.739  24.089   3.845
33947W        W 6295  16.810  21.615   4.820
33948W        W 6296  33.988  37.025   2.807
33949W        W 6297  19.580  30.947  12.548
33950W        W 6298   6.415  15.315   0.324
33951W        W 6299   3.240  44.833  14.796
33952W        W 6300  39.514  30.958   4.709
33953W        W 6301  42.971   9.158  14.473
33954W        W 6302  14.705  24.483   2.248
33955W        W 6303  26.161  15.197   4.208
33956W        W 6304  30.165  22.732   3.738
33957W        W 6305  15.679  20.631   1.819
33958W        W 6306   7.262  44.928  12.489
33959W        W 6307  30.636  31.533  11.990
33960W        W 6308  26.606   8.853   0.798
33961W        W 6309  11.867  40.403  13.418
33962W        W 6310  42.304  35.552   4.754
33963W        W 6311  14.196  18.072   2.301
33964W        W 6312  29.500  33.940  12.881
33965W        W 6313  21.612  35.955   3.325
33966W        W 6314  25.184  38.941  12.985
33967W        W 6315   5.241  36.087   5.136
33968W        W 6316  27.466  39.996  12.886
33969W        W 6317  33.049  43.460  10.532
33970W        W 6318  15.264  28.045  13.336
33971W        W 6319  44.468  32.975   0.416
33972W        W 6320  33.432  23.680   1.850
33973W        W 6321  25.090  38.968  11.898
33974W        W 6322   8.406  18.237   2.800
33975W        W 6323  40.332  35.459   3.664
33976W        W 6324   0.430   1.295  14.922
33977W        W 6325  23.992  20.559  12.499
33978W        W 6326  32.100   4.430  13.027
33979W        W 6327  18.114  41.424   4.684
33980W        W 6328  41.342  13.248  14.362
33981W        W 6329  25.093  22.101   2.662
33982W        W 6330   4.403   6.733  13.835
33983W        W 6331  38.849  40.331   3.277
33984W        W 6332  17.063  22.555  12.988
33985W        W 6333  21.114  42.300   4.682
33986W        W 6334  12.279  28.450   4.665
33987W        W 6335  17.266  15.296   2.670
33988W        W 6336  20.565  35.603   2.241
33989W        W 6337  15.241   5.861   1.835
33990W        W 6338  38.519  19.562   0.946
33991W        W 6339  30.469  25.531   0.253
33992W        W 6340  24.066  41.831  14.840
33993W        W 6341  40.532   9.782   2.299
33994W        W 6342   7.802  31.080   2.297
33995W        W 6343  16.313  34.996   1.365
33996W        W 6344  25.176  24.585   2.335
33997W        W 6345   0.391  29.127   3.146
33998W        W 6346  26.168   0.252  11.111
33999W        W 6347  28.940  37.907   2.291
34000W        W 6348  12.174  26.107  13.867
34001W        W 6349  43.430  41.386   5.238
34002W        W 6350  14.302  10.261  10.939
34003W        W 6351   0.355  23.000   3.851
34004W        W 6352  40.993  14.292   4.210
34005W        W 6353  36.888   3.710   2.364
34006W        W 6354  16.717   5.780   2.308
34007W        W 6355  30.910  23.194  11.892
34008W        W 6356   5.710  31.466  11.884
34009W        W 6357  39.419  36.881  10.910
34010W        W 6358  16.290  17.628  13.849
34011W        W 6359  41.898  44.943   2.407
34012W        W 6360  23.174  43.989  14.274
34013W        W 6361  32.901  21.680  14.422
34014W        W 6362  38.331   5.848  11.539
34015W        W 6363  29.068  43.827   4.226
34016W        W 6364  17.573  23.716  12.340
34017W        W 6365  12.652  27.648  11.050
34018W        W 6366  23.995  17.601   3.754
34019W        W 6367  39.896  10.727   2.702
34020W        W 6368  33.609  25.484  13.365
34021W        W 6369   7.735  29.522  13.358
34022W        W 6370  43.773   6.750   4.304
34023W        W 6371  10.174  19.133  14.379
34024W        W 6372  32.908  29.575   4.667
34025W        W 6373  30.427   0.416   4.264
34026W        W 6374   7.251  33.625   1.400
34027W        W 6375  29.656  28.548  14.394
34028W        W 6376   6.782  19.569  12.877
34029W        W 6377   9.253  41.298   0.916
34030W        W 6378  23.698   5.756   2.264
34031W        W 6379  13.650   1.879  13.907
34032W        W 6380  32.951   0.768   4.216
34033W        W 6381  24.563  24.530  11.516
34034W        W 6382  11.648  34.955  14.941
34035W        W 6383  34.048  32.101  12.987
34036W        W 6384  38.531  11.788  12.388
34037W        W 6385  23.128  31.104   1.907
34038W        W 6386  33.471  22.669  10.960
34039W        W 6387  30.469  14.248  11.552
34040W        W 6388  26.537  32.029   1.327
34041W        W 6389   2.413  10.632   0.306
34042W        W 6390   3.392   9.859   2.194
34043W        W 6391  15.790  12.751  13.495
34044W        W 6392  16.215  21.075  10.911
34045W        W 6393  20.034  29.478   2.225
34046W        W 6394  33.877  16.749   3.313
34047W        W 6395  31.584   3.413   4.338
34048W        W 6396  18.564   7.307   4.676
34049W        W 6397  39.013  37.029  14.991
34050W        W 6398  30.469   9.280   4.717
34051W        W 6399  28.587  17.184  11.957
34052W        W 6400  20.034  11.325  14.776
34053W        W 6401   7.723   6.270   0.480
34054W        W 6402  28.978   5.384   4.199
34055W        W 6403  20.548  22.722  10.552
34056W        W 6404  13.105  39.011   2.902
34057W        W 6405  30.946  13.279  11.610
34058W        W 6406   2.860  43.515   1.313
34059W        W 6407  13.248   7.725  14.990
34060W        W 6408  26.110   0.815   0.742
34061W        W 6409  21.638   1.237   4.824
34062W        W 6410  25.974  21.577   2.734
34063W        W 6411   9.273  11.629   0.953
34064W        W 6412  33.039   3.801   1.318
34065W        W 6413  34.391  42.506   3.248
34066W        W 6414  28.471  36.407   0.243
34067W        W 6415  37.033  20.028   1.755
34068W        W 6416   3.752  41.019  13.390
34069W        W 6417   4.702  27.982   2.868
34070W        W 6418  17.595  21.072   3.654
34071W        W 6419  22.249   2.844  13.967
34072W        W 6420  32.117  16.099   2.674
34073W        W 6421  23.648  42.988   0.808
34074W        W 6422  27.076   9.316  13.004
34075W        W 6423  44.421   2.466   0.857
34076W        W 6424  38.388  17.757  13.018
34077W        W 6425  29.514  37.051   0.792
34078W        W 6426  25.522  39.471   4.647
34079W        W 6427  43.489  19.124   4.787
34080W        W 6428  43.947  20.556   1.288
34081W        W 6429   2.780  40.433   2.246
34082W        W 6430  43.462  10.669   3.705
34083W        W 6431  25.490   0.972   4.217
34084W        W 6432  18.623  28.643  14.898
34085W        W 6433  15.113   0.827   3.321
34086W        W 6434   0.841  37.034  10.541
34087W        W 6435  43.794  30.499  12.437
34088W        W 6436  44.959  13.600  10.909
34089W        W 6437  41.823  11.828  13.504
34090W        W 6438  41.805  27.457  14.799
34091W        W 6439  13.765  26.966  13.810
34092W        W 6440   2.881  26.141  14.405
34093W        W 6441  30.146  19.275   3.640
34094W        W 6442   5.279  14.824  10.528
34095W        W 6443  25.705  13.787  11.976
34096W        W 6444  41.787  18.209   1.915
34097W        W 6445   8.285   6.900   4.148
34098W        W 6446   5.425  22.210   3.633
34099W        W 6447   6.258   2.737   0.426
34100W        W 6448  44.322  41.977  11.406
34101W        W 6449   0.875  36.011  12.392
34102W        W 6450  20.160  25.585   1.787
34103W        W 6451  19.118   4.802  12.369
34104W        W 6452   9.843  37.534  14.991
34105W        W 6453  10.302  38.952   4.307
34106W        W 6454  18.058  15.768  12.906
34107W        W 6455   9.314  21.526  12.388
34108W        W 6456  11.681  19.683   1.762
34109W        W 6457  43.003   5.329   3.224
34110W        W 6458  34.937  11.356   0.943
34111W        W 6459  12.144   7.411   5.125
34112W        W 6460  13.246  32.968   4.185
34113W        W 6461  10.343  28.973   0.301
34114W        W 6462  42.970  35.911   0.901
34115W        W 6463   9.323  27.527  10.502
34116W        W 6464  24.096  35.585  11.468
34117W        W 6465  18.667  11.343   1.882
34118W        W 6466  38.839   3.294  14.390
34119W        W 6467  41.395  26.057   2.727
34120W        W 6468  22.102  11.144   1.896
34121W        W 6469   1.959   5.378   4.710
34122W        W 6470  44.337  19.591   0.856
34123W        W 6471  36.525  24.629  13.916
34124W        W 6472   8.306  12.628  13.488
34125W        W 6473  16.179  41.336   2.734
34126W        W 6474  32.574   1.250  11.009
34127W        W 6475  31.614   7.904   2.372
34128W        W 6476   7.779   0.317  14.787
34129W        W 6477  39.809  30.004   0.411
34130W        W 6478  16.114  20.691  14.792
34131W        W 6479   0.819  44.975  12.958
34132W        W 6480  32.466  16.213   4.653
34133W        W 6481  36.551  24.030   1.811
34134W        W 6482  21.195  14.283  10.969
34135W        W 6483  44.394  29.013   0.893
34136W        W 6484  43.430  10.647  14.368
34137W        W 6485  27.010  17.671   3.715
34138W        W 6486   3.415   6.330  13.878
34139W        W 6487   1.478  11.803   1.861
34140W        W 6488  37.979   7.734  12.990
34141W        W 6489  19.250  11.803  11.503
34142W        W 6490  31.413  33.399   0.280
34143W        W 6491  37.482  33.583  13.056
34144W        W 6492   4.356  10.803  14.963
34145W        W 6493  33.568  19.713   1.798
34146W        W 6494  33.088   8.322  12.916
34147W        W 6495  36.059  34.914   2.690
34148W        W 6496  17.562  32.008  12.042
34149W        W 6497   4.804   8.849   3.244
34150W        W 6498   3.427  17.247   0.752
34151W        W 6499  31.452   8.746  10.897
34152W        W 6500  22.236  44.804   1.921
34153W        W 6501   9.190  37.866   0.801
34154W        W 6502   5.771   3.251  11.443
34155W        W 6503   2.422   0.407   3.301
34156W        W 6504  33.935  40.946  14.762
34157W        W 6505  14.716  22.042   0.347
34158W        W 6506   9.168   2.251   4.830
34159W        W 6507  17.690  13.742  14.422
34160W        W 6508   0.422   4.897   4.274
34161W        W 6509   9.195  43.396  11.451
34162W        W 6510  42.505   4.277  13.927
34163W        W 6511  38.055  30.497   1.220
34164W        W 6512  33.451  43.929  13.954
34165W        W 6513  28.970   3.413  11.991
34166W        W 6514   5.710   6.261   3.357
34167W        W 6515  15.251  43.942  14.905
34168W        W 6516  17.774   4.411   1.358
34169W        W 6517  17.681   8.332  14.319
34170W        W 6518  42.923  35.932   3.233
34171W        W 6519   7.712  37.936   3.226
34172W        W 6520  21.073   7.174   3.320
34173W        W 6521  35.508  37.424  11.434
34174W        W 6522   6.396  24.141  12.994
34175W        W 6523  41.822  44.850   3.738
34176W        W 6524   4.263  39.545   3.823
34177W        W 6525  15.218  20.238  13.866
34178W        W 6526  19.702  22.711   4.672
34179W        W 6527   5.378  28.530   1.918
34180W        W 6528   9.813  44.834   1.220
34181W        W 6529  24.668  15.247  12.841
34182W        W 6530  31.036  11.631  11.534
34183W        W 6531   5.757   5.249  14.003
34184W        W 6532   6.762   5.201   2.863
34185W        W 6533   1.276  20.687   4.676
34186W        W 6534  38.446   8.290   0.483
34187W        W 6535  37.967  23.176   3.765
34188W        W 6536   2.334   7.377   3.223
34189W        W 6537  24.721  44.472   3.318
34190W        W 6538  25.139  33.976  14.368
34191W        W 6539   3.910  19.622   0.425
34192W        W 6540  25.022   6.210   4.780
34193W        W 6541  15.799   8.809  13.955
34194W        W 6542  23.662   6.847   4.619
34195W        W 6543  40.506   2.881  12.580
34196W        W 6544   6.822  33.560   2.279
34197W        W 6545   4.390  21.661   2.704
34198W        W 6546  43.021  17.090  10.551
34199W        W 6547  39.425   3.415   4.597
34200W        W 6548   6.360  38.491   1.886
34201W        W 6549  42.478  16.707   0.301
34202W        W 6550  33.898  10.147   3.721
34203W        W 6551  15.747  15.665  10.411
34204W        W 6552  23.643  10.153   0.729
34205W        W 6553  35.093   4.354   1.391
34206W        W 6554   8.778  25.042   3.764
34207W        W 6555  13.161  19.106  13.361
34208W        W 6556  13.234   8.780  10.572
34209W        W 6557  18.624   1.803   3.339
34210W        W 6558  36.582  36.534  12.928
34211W        W 6559  20.166  33.073  12.386
34212W        W 6560  15.236  28.049  14.838
34213W        W 6561  10.249  17.583   5.243
34214W        W 6562  34.056  22.158   0.895
34215W        W 6563   4.941  33.925   3.347
34216W        W 6564  34.107  28.543  12.394
34217W        W 6565  23.996  15.776   0.426
34218W        W 6566  31.036  29.650  11.589
34219W        W 6567   8.692  32.926  10.610
34220W        W 6568  17.225  34.414   1.845
34221W        W 6569  20.092  33.617   4.653
34222W        W 6570  22.712   3.444   2.700
34223W        W 6571  35.871  40.475   4.744
34224W        W 6572  40.047   1.965   0.732
34225W        W 6573  16.101   7.908  12.445
34226W        W 6574   2.250  43.498   3.682
34227W        W 6575  40.950  30.960  14.841
34228W        W 6576  25.517  43.327  12.554
34229W        W 6577  32.994  24.002   3.241
34230W        W 6578  21.137  17.254  12.454
34231W        W 6579  36.966  29.428  11.373
34232W        W 6580  40.006  18.075  14.024
34233W        W 6581  23.718  14.243  12.458
34234W        W 6582  19.629  33.034  13.040
34235W        W 6583   1.255  20.260  10.956
34236W        W 6584  25.988  42.428  12.855
34237W        W 6585  17.793  43.832   4.291
34238W        W 6586  23.159  23.654  14.280
34239W        W 6587  30.533  22.234   3.790
34240W        W 6588  23.031  42.837   2.332
34241W        W 6589   4.266  34.498  10.487
34242W        W 6590   4.444  22.082  13.481
34243W        W 6591  16.151  29.636  10.096
34244W        W 6592  21.573   4.796  11.909
34245W        W 6593  28.575   9.210  10.431
34246W        W 6594  36.528  39.429   4.779
34247W        W 6595  43.859  13.149  12.871
34248W        W 6596  29.448   9.378   1.880
34249W        W 6597  10.667   1.381   1.353
34250W        W 6598   1.469  20.141  14.955
34251W        W 6599   4.785   0.384   3.311
34252W        W 6600  38.910  33.446  14.341
34253W        W 6601  11.662  24.691   2.361
34254W        W 6602  16.143  12.208  13.416
34255W        W 6603   5.913  40.836  11.496
34256W        W 6604   3.366  24.504   1.451
34257W        W 6605  17.235   8.278  11.982
34258W        W 6606  33.554   8.284  13.003
34259W        W 6607  27.577  28.570  12.006
34260W        W 6608  32.424  25.619   3.795
34261W        W 6609   5.869  21.147  13.935
34262W        W 6610   0.269  26.463   0.387
34263W        W 6611   5.347   0.364   3.841
34264W        W 6612  31.924  10.801   4.188
34265W        W 6613  12.161  40.814  10.511
34266W        W 6614  22.070  26.482  13.376
34267W        W 6615  43.829  22.024  14.353
34268W        W 6616  27.989  29.959   2.748
34269W        W 6617  10.364   7.177   1.240
34270W        W 6618  39.818  43.271   1.428
34271W        W 6619  19.590  29.109  11.000
34272W        W 6620  25.090  17.084   2.345
34273W        W 6621  10.144  21.658   1.420
34274W        W 6622   7.294  24.496  14.789
34275W        W 6623  26.616  27.048   2.880
34276W        W 6624  20.561   4.723  10.929
34277W        W 6625  11.821  16.581  11.372
34278W        W 6626  20.556  25.591   4.308
34279W        W 6627  32.412  29.431   4.837
34280W        W 6628   0.803  41.502   0.253
34281W        W 6629   0.446  43.848   4.734
34282W        W 6630  28.531  16.625   3.301
34283W        W 6631   4.429  13.293   2.700
34284W        W 6632  39.468   1.320  14.506
34285W        W 6633  28.115   7.399   4.809
34286W        W 6634   6.211  43.957  11.857
34287W        W 6635   4.900  43.433  12.898
34288W        W 6636  35.516  30.432  12.014
34289W        W 6637  26.470  28.120  13.901
34290W        W 6638  21.628  40.990  11.550
34291W        W 6639  23.733   3.404  12.444
34292W        W 6640  41.465  32.094   4.224
34293W        W 6641  42.825  16.080  13.314
34294W        W 6642  25.207  12.271   0.834
34295W        W 6643   5.398  33.424   1.317
34296W        W 6644  18.054  25.589  11.999
34297W        W 6645  27.989  11.663   5.253
34298W        W 6646  40.384   1.465   0.738
34299W        W 6647  31.450  35.013   3.205
34300W        W 6648  25.086  11.639  11.941
34301W        W 6649  17.789   4.250   1.782
34302W        W 6650  37.925  12.838   4.254
34303W        W 6651  25.620  34.586   1.295
34304W        W 6652  23.595   6.280   3.366
34305W        W 6653  14.807  31.111  13.050
34306W        W 6654  16.619  43.810  14.895
34307W        W 6655  14.202  31.444  14.919
34308W        W 6656  35.368  13.779   1.775
34309W        W 6657  19.260   5.922   4.782
34310W        W 6658  15.221  25.705  10.888
34311W        W 6659  10.722  40.453  10.008
34312W        W 6660   3.750   1.246   3.870
34313W        W 6661  15.241  21.755   2.763
34314W        W 6662   5.877  33.589   2.747
34315W        W 6663  28.139   9.674  11.052
34316W        W 6664  24.594  19.647  14.481
34317W        W 6665  29.565  28.485   4.119
34318W        W 6666  18.122  11.302  13.369
34319W        W 6667  18.561   8.203   1.922
34320W        W 6668  11.348  28.520   3.651
34321W        W 6669   3.919   3.451   1.210
34322W        W 6670  40.038   6.789   0.944
34323W        W 6671   4.855  44.289   1.845
34324W        W 6672   1.477  35.468  10.525
34325W        W 6673  42.331  15.680   3.803
34326W        W 6674  15.166  20.673   4.206
34327W        W 6675  30.026  43.764  14.792
34328W        W 6676  21.749  37.012   1.404
34329W        W 6677  17.666  30.554   2.405
34330W        W 6678  34.615  33.094  14.318
34331W        W 6679  27.552  44.762   0.897
34332W        W 6680   3.251   9.680   1.330
34333W        W 6681  43.319  17.198  12.033
34334W        W 6682   9.825  42.518   1.398
34335W        W 6683  11.130  30.611  11.450
34336W        W 6684  13.340  44.882  10.564
34337W        W 6685  11.750  12.777   0.854
34338W        W 6686  13.258   0.324   2.197
34339W        W 6687  20.528  41.506   2.900
34340W        W 6688  39.840  38.049   4.309
34341W        W 6689  34.045  42.819   3.844
34342W        W 6690   2.328  22.652  10.076
34343W        W 6691  34.063  12.254  10.516
34344W        W 6692  43.284  33.068   4.204
34345W        W 6693   1.867  25.127  10.581
34346W        W 6694  32.496  36.963  10.146
34347W        W 6695  34.968   8.860  12.534
34348W        W 6696   6.720  28.520   4.322
34349W        W 6697  29.089  39.997   0.819
34350W        W 6698  35.876   5.743  14.852
34351W        W 6699  36.434  26.078   2.257
34352W        W 6700  33.130  30.097   2.196
34353W        W 6701   8.823  41.341  12.455
34354W        W 6702   6.329   7.820  14.507
34355W        W 6703  22.242  25.184  12.445
34356W        W 6704  22.126  34.458  14.308
34357W        W 6705  42.454   0.928  13.047
34358W        W 6706  21.145  30.065   1.922
34359W        W 6707   0.339  25.185  12.551
34360W        W 6708  16.117  11.785  12.479
34361W        W 6709   4.930  43.776  13.486
34362W        W 6710  14.185  16.780   4.229
34363W        W 6711  39.480  21.627  12.391
34364W        W 6712  24.018  25.602   2.237
34365W        W 6713  13.249   8.764   0.456
34366W        W 6714  37.406   4.438  14.992
34367W        W 6715  25.638  36.978  14.343
34368W        W 6716  34.026  32.470   3.255
34369W        W 6717   3.255  24.500  14.824
34370W        W 6718  35.074  13.154   0.855
34371W        W 6719  13.145  39.376  11.966
34372W        W 6720  22.084  31.596   4.265
34373W        W 6721  12.849  35.406  14.871
34374W        W 6722  44.819  14.199   3.835
34375W        W 6723  43.934  36.366  12.923
34376W        W 6724  13.126  27.553   2.193
34377W        W 6725  44.456  28.451  14.802
34378W        W 6726   0.807  13.793  11.125
34379W        W 6727  17.088  42.876   0.385
34380W        W 6728  11.836  36.039   2.185
34381W        W 6729  41.320  32.578   0.257
34382W        W 6730  31.493  14.672  12.550
34383W        W 6731  39.322  14.833   1.267
34384W        W 6732   9.868  40.353  12.437
34385W        W 6733  43.350  32.089   3.669
34386W        W 6734   3.853  12.839   5.097
34387W        W 6735  11.852  32.491  13.473
34388W        W 6736  13.674   5.880  14.390
34389W        W 6737  25.131   3.430  14.348
34390W        W 6738  29.639  37.538  11.021
34391W        W 6739  23.646  10.328  10.484
34392W        W 6740  26.101  25.007   4.737
34393W        W 6741  12.725  41.956  13.909
34394W        W 6742  32.977  24.678   2.185
34395W        W 6743   0.839  43.930  11.013
34396W        W 6744  28.494  21.129   4.272
34397W        W 6745   2.833  12.331  12.879
34398W        W 6746  22.192  11.282   2.686
34399W        W 6747  18.176   5.751  13.961
34400W        W 6748  16.247  42.946  12.022
34401W        W 6749  24.984  43.391   0.766
34402W        W 6750  14.828  34.570  11.065
34403W        W 6751  43.469  32.421  13.360
34404W        W 6752  32.583  42.823   1.756
34405W        W 6753  31.151  31.925  13.327
34406W        W 6754  16.306  18.646  13.498
34407W        W 6755  12.736   5.884  13.963
34408W        W 6756  22.558  16.776  10.488
34409W        W 6757  34.911  34.538  11.940
34410W        W 6758   9.228  43.357  14.391
34411W        W 6759  20.740  11.128   0.373
34412W        W 6760  44.407  33.938  15.000
34413W        W 6761  11.186   7.312   4.625
34414W        W 6762  34.420  37.063  10.945
34415W        W 6763  18.268   0.824   2.318
34416W        W 6764  20.603  18.137   0.796
34417W        W 6765  24.211  19.549  13.960
34418W        W 6766  36.565  23.504  11.013
34419W        W 6767  14.134  30.939  12.498
34420W        W 6768  43.838  44.397  14.935
34421W        W 6769  29.437  29.150   2.809
34422W        W 6770  37.945  10.220   1.802
34423W        W 6771  11.183  43.967  13.877
34424W        W 6772  42.932  15.166   1.333
34425W        W 6773  19.078  11.214   4.801
34426W        W 6774  44.978  34.386  11.066
34427W        W 6775   1.770  38.824   3.367
34428W        W 6776  36.976  40.319  13.525
34429W        W 6777  10.748  25.119   3.156
34430W        W 6778  26.493  31.595   2.201
34431W        W 6779  21.536  20.147   1.883
34432W        W 6780  20.105  24.152   0.923
34433W        W 6781  24.989   5.760  14.430
34434W        W 6782  30.937  34.549   0.373
34435W        W 6783  31.112   2.351  13.885
34436W        W 6784   0.903   1.797  12.489
34437W        W 6785  34.437  33.413  10.441
34438W        W 6786  14.735  32.540   1.278
34439W        W 6787  32.636  37.066  10.445
34440W        W 6788  21.123  15.210  14.919
34441W        W 6789  16.258  12.707   4.279
34442W        W 6790   7.199  18.630  14.326
34443W        W 6791  35.091  43.390  13.040
34444W        W 6792  31.987  34.497  11.598
34445W        W 6793  13.804  29.487   2.794
34446W        W 6794  38.325  19.146  14.320
34447W        W 6795  20.697  33.597   4.752
34448W        W 6796   6.379  38.452   4.288
34449W        W 6797   1.296  18.107  13.809
34450W        W 6798  36.977  32.000   4.156
34451W        W 6799  22.185  11.223  12.471
34452W        W 6800   4.720   1.318  11.913
34453W        W 6801  35.107  20.635  10.595
34454W        W 6802  44.414  38.877   0.869
34455W        W 6803  38.545  22.029  13.440
34456W        W 6804  11.689  43.414   1.766
34457W        W 6805  30.614   5.830  12.483
34458W        W 6806   0.961  43.336   0.383
34459W        W 6807   5.364  41.413  11.422
34460W        W 6808  12.240  38.035  10.557
34461W        W 6809  35.939  19.690   5.114
34462W        W 6810  14.700  41.828   1.914
34463W        W 6811  41.033  40.311   4.177
34464W        W 6812  10.258  23.220   2.233
34465W        W 6813   6.901  20.038   4.785
34466W        W 6814  11.727   1.351   1.867
34467W        W 6815   4.212  18.081  11.472
34468W        W 6816  31.087  34.031  14.506
34469W        W 6817  36.033   0.794  14.448
34470W        W 6818  25.017  14.205   0.392
34471W        W 6819  31.404  33.928   2.240
34472W        W 6820  22.733  23.548   4.207
34473W        W 6821  33.073  11.818   2.339
34474W        W 6822  39.441  13.254  14.424
34475W        W 6823  19.730   3.898  13.921
34476W        W 6824  42.811  29.100   3.353
34477W        W 6825  28.960  11.318   3.209
34478W        W 6826  28.000  30.613  12.580
34479W        W 6827  41.022  16.664   2.249
34480W        W 6828  25.181  15.672  12.930
34481W        W 6829  11.623   9.850  10.466
34482W        W 6830  25.552  38.857  10.611
34483W        W 6831  17.730  40.800   4.797
34484W        W 6832  29.020  12.816   2.207
34485W        W 6833  23.525  27.126   0.391
34486W        W 6834  40.871  41.816   3.846
34487W        W 6835  34.080   6.894  10.930
34488W        W 6836  29.667   5.728   2.678
34489W        W 6837  19.664  28.944   0.818
34490W        W 6838  43.005  12.248   2.324
34491W        W 6839  42.508   5.919   0.819
34492W        W 6840  38.540  30.015  11.946
34493W        W 6841  10.373  35.517  12.074
34494W        W 6842  19.628  24.592   0.284
34495W        W 6843  42.382  33.509   3.209
34496W        W 6844  21.166  32.620   2.827
34497W        W 6845  14.631  16.154   3.180
34498W        W 6846  39.398  17.074  11.014
34499W        W 6847  18.790   2.792   4.289
34500W        W 6848  19.627  18.658  14.322
34501W        W 6849   7.376  43.356  11.075
34502W        W 6850  32.897   6.811  13.418
34503W        W 6851  13.815   6.891   0.964
34504W        W 6852  25.042  28.677   4.760
34505W        W 6853  11.180  41.929  11.571
34506W        W 6854   0.763  28.993  11.610
34507W        W 6855  21.588  28.000   0.941
34508W        W 6856  31.129  19.613   0.464
34509W        W 6857  42.494  13.609  11.441
34510W        W 6858   3.914  22.055   0.873
34511W        W 6859  17.118  37.921   0.902
34512W        W 6860  22.014  22.020   1.376
34513W        W 6861  30.982  34.446   4.689
34514W        W 6862   4.873  42.429   0.343
34515W        W 6863  15.181   8.833  13.858
34516W        W 6864   1.342   3.235   2.223
34517W        W 6865  41.990   2.809   1.404
34518W        W 6866  32.960  19.081  14.415
34519W        W 6867  39.431  19.721   2.852
34520W        W 6868  23.103  20.590  11.046
34521W        W 6869   0.947  13.800   3.151
34522W        W 6870   1.375  33.609  13.923
34523W        W 6871   7.295  23.671   3.760
34524W        W 6872  18.714  17.619   4.314
34525W        W 6873   8.214  34.060   2.221
34526W        W 6874   8.750  29.091   0.258
34527W        W 6875  18.171  12.306  10.530
34528W        W 6876  23.546   1.401   3.184
34529W        W 6877  32.395   4.883  10.465
34530W        W 6878  29.631  43.301   4.610
34531W        W 6879  44.447  13.300   0.898
34532W        W 6880  35.079  37.026   3.245
34533W        W 6881  36.933  12.776   3.231
34534W        W 6882   6.415  21.164  13.858
34535W        W 6883  29.509  32.001   4.746
34536W        W 6884  28.025  20.105  11.457
34537W        W 6885  24.669  16.618   1.249
34538W        W 6886  11.208  32.085  12.983
34539W        W 6887  17.634  33.402  13.850
34540W        W 6888  40.937  23.013   0.309
34541W        W 6889  34.979  19.109   4.774
34542W        W 6890   3.876  15.162   3.802
34543W        W 6891   6.789  13.840  11.433
34544W        W 6892  24.994  43.442  11.107
34545W        W 6893   7.725  27.120   3.291
34546W        W 6894  16.668  33.391  12.015
34547W        W 6895  32.491  16.657   0.368
34548W        W 6896  37.962  15.705  13.356
34549W        W 6897   8.200  43.775  13.397
34550W        W 6898   8.196  21.714   5.306
34551W        W 6899  16.584  21.093  14.304
34552W        W 6900   1.947  29.024   3.362
34553W        W 6901   6.846  13.716   2.734
34554W        W 6902  10.237  40.916  13.392
34555W        W 6903  10.212  32.901  14.436
34556W        W 6904  18.670  22.617  14.429
34557W        W 6905  18.583  38.422  10.601
34558W        W 6906  17.210  43.345  12.904
34559W        W 6907  33.622  12.320  10.933
34560W        W 6908   4.298  33.585   4.232
34561W        W 6909  25.081   6.233  11.877
34562W        W 6910  43.383  39.943  14.387
34563W        W 6911  19.696  18.587  12.558
34564W        W 6912   3.785  41.792   3.160
34565W        W 6913  40.549  25.100   2.837
34566W        W 6914  10.757   8.680   3.349
34567W        W 6915  21.246  32.607   1.339
34568W        W 6916   9.346  38.004  12.449
34569W        W 6917  11.128  15.683  12.355
34570W        W 6918  29.093  18.170  10.469
34571W        W 6919  35.094  18.689   1.395
34572W        W 6920  11.682  11.262   2.882
34573W        W 6921  24.072  40.440  10.079
34574W        W 6922  40.512  29.428   2.275
34575W        W 6923   8.821  34.442  11.862
34576W        W 6924  35.885  32.905  13.942
34577W        W 6925  43.954  42.402   1.281
34578W        W 6926   4.815  11.195  14.459
34579W        W 6927   5.352  36.897  13.974
34580W        W 6928  42.479  26.636  10.408
34581W        W 6929  37.547  13.609   3.831
34582W        W 6930  19.065  41.806   3.739
34583W        W 6931  26.600   0.936  14.976
34584W        W 6932   2.897  40.530  12.861
34585W        W 6933   7.257  12.661   2.854
34586W        W 6934  43.962  30.421  10.507
34587W        W 6935  44.894  25.025  12.912
34588W        W 6936   6.369  24.070   1.325
34589W        W 6937  11.813  20.101   4.790
34590W        W 6938  26.602   7.694   3.308
34591W        W 6939   9.327  18.138   4.602
34592W        W 6940  16.213  24.481   4.261
34593W        W 6941  44.424  27.626  10.405
34594W        W 6942  35.968  26.007   4.650
34595W        W 6943  29.617  18.545  12.826
34596W        W 6944  25.017   8.743   2.684
34597W        W 6945   1.863  17.283   0.291
34598W        W 6946  22.065  11.785  11.859
34599W        W 6947  14.201  41.960   3.826
34600W        W 6948  28.596  16.637  11.997
34601W        W 6949   6.212   9.194  14.873
34602W        W 6950   4.782  23.012  13.535
34603W        W 6951   3.863  43.282  13.406
34604W        W 6952  19.584  38.047   0.436
34605W        W 6953  37.973  26.597   4.323
34606W        W 6954  27.675  36.493  10.446
34607W        W 6955  44.306  37.907  13.055
34608W        W 6956   4.206  33.015  11.950
34609W        W 6957  24.724  34.969  11.071
34610W        W 6958  31.631  38.441  11.417
34611W        W 6959  37.892  37.421  13.511
34612W        W 6960   0.980  29.506  14.904
34613W        W 6961  21.699  28.621  11.567
34614W        W 6962  42.837  22.500  12.552
34615W        W 6963  31.523   7.708  14.881
34616W        W 6964  15.159  29.957   4.626
34617W        W 6965  30.923  31.112  14.825
34618W        W 6966  20.650  29.975  11.514
34619W        W 6967  35.928  17.223  14.813
34620W        W 6968  30.548  25.519   1.293
34621W        W 6969   1.750   9.858  13.463
34622W        W 6970   6.316  16.804   3.286
34623W        W 6971   9.747  29.591   4.835
34624W        W 6972  19.681  20.125  12.091
34625W        W 6973  26.702   0.755   1.771
34626W        W 6974  16.594   7.741  10.459
34627W        W 6975   5.311  11.866   2.732
34628W        W 6976  24.143  14.716  11.956
34629W        W 6977  32.506  32.471  12.007
34630W        W 6978  14.636  27.181   2.828
34631W        W 6979  41.037  10.277  14.875
34632W        W 6980   3.742  43.905  12.407
34633W        W 6981  24.576   0.466  14.928
34634W        W 6982  42.852  37.425   2.722
34635W        W 6983  27.034  38.355   1.887
34636W        W 6984   3.815  38.411   0.248
34637W        W 6985  42.406  14.158   3.212
34638W        W 6986   4.241   4.941   2.401
34639W        W 6987  13.603  31.896   4.670
34640W        W 6988  13.106   5.383  13.456
34641W        W 6989  32.000   7.829   9.973
34642W        W 6990  32.036   5.739  10.498
34643W        W 6991  30.971   3.234  10.892
34644W        W 6992  41.897   2.883  11.961
34645W        W 6993  30.421  38.377   2.419
34646W        W 6994  24.688  27.560   4.667
34647W        W 6995  18.769  33.417  11.014
34648W        W 6996  41.040   5.250  10.641
34649W        W 6997  44.370  26.524   4.725
34650W        W 6998   8.731  33.490  12.913
34651W        W 6999  37.071  27.446   3.800
34652W        W 7000  22.669  16.072   3.385
34653W        W 7001   7.251  44.987   0.894
34654W        W 7002  34.079  29.448  12.872
34655W        W 7003  21.555  23.607   1.695
34656W        W 7004  18.712  17.794   2.187
34657W        W 7005   7.805  28.476  13.442
34658W        W 7006  24.149  11.701  11.070
34659W        W 7007   7.818  17.686   1.414
34660W        W 7008  22.078  35.547  14.896
34661W        W 7009   7.837  42.463   1.923
34662W        W 7010   6.892   5.432  11.540
34663W        W 7011  24.159  22.077  13.352
34664W        W 7012  18.291  17.257   2.860
34665W        W 7013  27.590  24.713   3.378
34666W        W 7014  22.210  15.638  14.370
34667W        W 7015  29.602  19.178   3.156
34668W        W 7016   7.269  19.206   0.252
34669W        W 7017  15.095  18.547   1.858
34670W        W 7018  39.815   7.858   1.334
34671W        W 7019   5.905  11.365  12.381
34672W        W 7020  30.619  33.593  11.032
34673W        W 7021   8.825  11.319   3.301
34674W        W 7022  17.793   1.938  10.949
34675W        W 7023   4.270   9.853  11.010
34676W        W 7024   3.823  36.349   3.178
34677W        W 7025   4.412  43.379  10.529
34678W        W 7026   2.809   6.693  13.003
34679W        W 7027  18.674  15.097  13.792
34680W        W 7028  19.144  37.945  12.929
34681W        W 7029  41.500  36.354   1.365
34682W        W 7030  24.117  24.071  11.924
34683W        W 7031   1.267  38.531  10.991
34684W        W 7032  30.080  17.765   4.354
34685W        W 7033  32.427  33.512   0.764
34686W        W 7034  25.617  33.118   4.610
34687W        W 7035  11.779  23.601  12.495
34688W        W 7036  29.642  42.977  10.454
34689W        W 7037  31.565  41.468  10.956
34690W        W 7038   6.333  18.165   4.229
34691W        W 7039  32.970  34.036  10.157
34692W        W 7040  15.641   6.801   1.897
34693W        W 7041  33.481  13.728   1.741
34694W        W 7042  26.195  36.917   0.321
34695W        W 7043  17.579  23.634   2.183
34696W        W 7044  13.735  41.536  12.014
34697W        W 7045   9.755  26.662   0.426
34698W        W 7046  38.046   6.902   5.751
34699W        W 7047   3.287   5.932  14.919
34700W        W 7048   4.939  28.057  14.408
34701W        W 7049  23.664  15.773   2.333
34702W        W 7050  29.099  41.940   2.830
34703W        W 7051  21.084  38.066   4.165
34704W        W 7052  19.101  42.320   3.155
34705W        W 7053  24.580  43.424   3.271
34706W        W 7054  40.052  17.181  11.086
34707W        W 7055  34.521  17.139  10.430
34708W        W 7056  30.468  21.718   1.390
34709W        W 7057   4.711  16.247  12.396
34710W        W 7058  13.286  25.169  12.880
34711W        W 7059  12.762  14.219   0.781
34712W        W 7060  34.385  39.396  13.828
34713W        W 7061  16.593  10.235  11.112
34714W        W 7062  42.872   4.339   0.846
34715W        W 7063  24.090   0.775   3.848
34716W        W 7064  35.590  12.348  13.482
34717W        W 7065   3.782  33.498  13.518
34718W        W 7066   6.196  33.093  13.461
34719W        W 7067  40.506  12.259   1.890
34720W        W 7068  29.431   2.314   2.366
34721W        W 7069   9.854  25.026   3.311
34722W        W 7070  20.702   8.332   2.345
34723W        W 7071  29.546  37.876  10.605
34724W        W 7072   8.304  26.655  13.417
34725W        W 7073  37.895   6.811   2.201
34726W        W 7074  27.604  31.068   4.641
34727W        W 7075  39.366  10.824  14.410
34728W        W 7076   9.295  40.539  11.590
34729W        W 7077  21.649  19.053   3.773
34730W        W 7078  23.719  15.648   2.741
34731W        W 7079  37.019  31.098  10.558
34732W        W 7080  26.149  37.405   2.824
34733W        W 7081  33.618  30.993  14.388
34734W        W 7082  20.090   3.729   0.967
34735W        W 7083   6.853  25.497  12.376
34736W        W 7084   1.260  15.601   4.701
34737W        W 7085   5.274  28.549  14.350
34738W        W 7086  19.538  37.504  10.547
34739W        W 7087  18.247  16.294   2.683
34740W        W 7088  15.591  11.273   3.669
34741W        W 7089  41.435  16.741  13.525
34742W        W 7090   4.836  13.635   2.695
34743W        W 7091   7.824  41.433  10.451
34744W        W 7092   9.150  30.419   4.282
34745W        W 7093  32.480  24.989  10.583
34746W        W 7094  22.058   7.684   3.261
34747W        W 7095  12.806   1.951  13.889
34748W        W 7096  21.095   2.430   1.860
34749W        W 7097  33.624  32.556   2.198
34750W        W 7098  29.640  36.992   3.320
34751W        W 7099  25.541  33.986   2.359
34752W        W 7100  10.724  30.584   2.725
34753W        W 7101   8.380  22.623   3.675
34754W        W 7102  44.381   2.965  13.309
34755W        W 7103  10.254  18.109  12.380
34756W        W 7104  33.571   5.218   4.636
34757W        W 7105  13.668  30.571  11.411
34758W        W 7106  31.977   6.364   4.665
34759W        W 7107  16.748  42.887  14.306
34760W        W 7108  38.381  18.707  11.043
34761W        W 7109   2.892  33.090   4.785
34762W        W 7110  44.290  35.944  12.025
34763W        W 7111  18.698  20.235  10.419
34764W        W 7112  17.704  39.879   0.465
34765W        W 7113  19.259   2.307   3.219
34766W        W 7114  15.615   0.852  14.997
34767W        W 7115   8.225  11.861   2.683
34768W        W 7116  36.843  41.303   3.157
34769W        W 7117  44.351  10.725  11.117
34770W        W 7118  43.474  17.087   2.844
34771W        W 7119  15.818   8.282   4.746
34772W        W 7120  23.512  32.917   2.884
34773W        W 7121  32.921  31.126   4.814
34774W        W 7122   2.939  10.778   4.605
34775W        W 7123  19.629   2.863  14.925
34776W        W 7124  40.033  20.767  11.019
34777W        W 7125  34.995   8.895   2.764
34778W        W 7126  41.850  26.622   2.841
34779W        W 7127  34.949  35.467   0.334
34780W        W 7128   3.813  36.379  12.993
34781W        W 7129  10.218  33.093   1.919
34782W        W 7130  19.077  29.172  12.858
34783W        W 7131  41.831   4.757   0.754
34784W        W 7132  24.035  35.108   2.750
34785W        W 7133  19.067  29.146   4.816
34786W        W 7134   1.399  30.080   3.638
34787W        W 7135   6.764   9.315   1.862
34788W        W 7136  12.775   3.374   3.278
34789W        W 7137  18.560  42.355   0.747
34790W        W 7138  26.117  28.020  13.323
34791W        W 7139   3.249  39.377   4.659
34792W        W 7140  25.074   7.301   2.292
34793W        W 7141  11.788  42.494  11.127
34794W        W 7142  25.704  26.019  10.444
34795W        W 7143  25.501  12.661   1.760
34796W        W 7144   8.164  13.244   3.240
34797W        W 7145   9.709  41.820   3.331
34798W        W 7146  35.568  20.722   0.362
34799W        W 7147  38.000  20.109  12.579
34800W        W 7148  26.094  34.383   3.793
34801W        W 7149  10.806   8.826   0.893
34802W        W 7150  40.515   0.865   0.243
34803W        W 7151  25.700  26.038  12.508
34804W        W 7152   6.701  15.098   4.719
34805W        W 7153  19.239  32.032  11.951
34806W        W 7154  18.599  35.963  10.947
34807W        W 7155  24.143   5.711   2.320
34808W        W 7156  42.392  36.069  11.029
34809W        W 7157  32.082  42.920   4.122
34810W        W 7158   3.831  18.102  11.982
34811W        W 7159  33.596   7.372  11.569
34812W        W 7160   8.739  13.300  12.551
34813W        W 7161  18.205   5.227  10.585
34814W        W 7162  12.730  44.361  13.449
34815W        W 7163  21.026   9.271  11.442
34816W        W 7164   8.740  22.709  13.883
34817W        W 7165  32.445  35.468   1.775
34818W        W 7166  12.698  13.845   2.190
34819W        W 7167   2.314  28.612  13.794
34820W        W 7168  16.775  19.120  13.447
34821W        W 7169  34.601  21.645   2.343
34822W        W 7170   7.799   4.777   4.810
34823W        W 7171  23.171  41.946  12.497
34824W        W 7172  14.149  19.188   2.398
34825W        W 7173  28.648   2.425   2.879
34826W        W 7174   3.897  43.383   2.310
34827W        W 7175  17.180   2.896   4.738
34828W        W 7176  26.460  27.134  12.495
34829W        W 7177   4.722  25.605  12.466
34830W        W 7178  20.571  20.595  11.373
34831W        W 7179   9.671  37.946   0.900
34832W        W 7180   3.872  34.971   3.264
34833W        W 7181   7.329  30.486   9.499
34834W        W 7182  18.181  41.848  13.822
34835W        W 7183  39.891  34.483   1.791
34836W        W 7184  23.547  27.011   2.690
34837W        W 7185  36.463  31.052   4.765
34838W        W 7186   1.753   4.699  10.955
34839W        W 7187  26.587  25.018  14.295
34840W        W 7188   5.255  40.436   0.773
34841W        W 7189  14.687  15.173   3.337
34842W        W 7190   3.372  28.481  10.484
34843W        W 7191  17.787  19.281   4.249
34844W        W 7192   2.936   3.395  10.439
34845W        W 7193  32.462  12.165   1.369
34846W        W 7194  22.007  16.264  10.410
34847W        W 7195  16.734  15.237   1.849
34848W        W 7196  20.629  11.210   3.761
34849W        W 7197  14.144  17.192   4.242
34850W        W 7198   4.419   3.397   4.277
34851W        W 7199  27.075  44.304   0.314
34852W        W 7200  29.663  25.001   3.258
34853W        W 7201  20.674  26.120  11.459
34854W        W 7202  37.931   4.928  13.315
34855W        W 7203  37.544   0.397  14.936
34856W        W 7204  33.618   4.902   3.707
34857W        W 7205  41.884  40.827  14.912
34858W        W 7206  22.084  21.574  10.541
34859W        W 7207  30.064   6.823  12.507
34860W        W 7208  12.805  36.923  12.038
34861W        W 7209  44.298   3.458   1.696
34862W        W 7210  11.673  40.444   0.449
34863W        W 7211  29.523  27.664  13.334
34864W        W 7212   8.239  34.596  14.499
34865W        W 7213  23.000  27.167   1.237
34866W        W 7214  30.443  30.937  12.377
34867W        W 7215   4.317   3.295  11.547
34868W        W 7216  22.513  18.599  12.358
34869W        W 7217  41.836  12.266  12.036
34870W        W 7218  40.966  15.672   2.396
34871W        W 7219  37.075  19.093  10.940
34872W        W 7220   8.239  20.681   2.178
34873W        W 7221   4.401  38.354   1.756
34874W        W 7222   2.435  44.263  13.442
34875W        W 7223  42.349  17.763  11.505
34876W        W 7224   5.405  43.775   0.770
34877W        W 7225  19.254  40.821  13.382
34878W        W 7226  12.654   5.236  13.833
34879W        W 7227  39.058  25.018   2.303
34880W        W 7228  44.977  31.429  14.437
34881W        W 7229  36.547  13.752   3.191
34882W        W 7230  28.943  31.957  13.879
34883W        W 7231  22.044  31.107  13.845
34884W        W 7232  33.000  21.099  13.805
34885W        W 7233  19.281  10.291   2.353
34886W        W 7234  18.732  21.045  12.065
34887W        W 7235  28.458  21.037   4.821
34888W        W 7236  26.173  31.899  11.398
34889W        W 7237  33.593  30.652   4.722
34890W        W 7238  28.091  35.031  13.821
34891W        W 7239   3.755  34.543  14.395
34892W        W 7240  44.955  17.755  14.963
34893W        W 7241   8.174  32.450   1.747
34894W        W 7242   0.764  40.304  12.918
34895W        W 7243  38.058  21.652   3.170
34896W        W 7244  13.329  23.116   2.383
34897W        W 7245  13.819  17.613   2.776
34898W        W 7246  10.159  33.620  10.447
34899W        W 7247  36.946  41.864   2.886
34900W        W 7248  10.711  28.453  10.512
34901W        W 7249  31.104  42.925   1.413
34902W        W 7250  15.640  31.933   2.246
34903W        W 7251  24.027  25.483   4.172
34904W        W 7252  19.061   0.467  12.929
34905W        W 7253  36.368   0.429  11.922
34906W        W 7254   2.743  23.507   3.736
34907W        W 7255  29.923   5.408   4.797
34908W        W 7256  33.580  17.699  13.494
34909W        W 7257  19.570   2.254   2.383
34910W        W 7258  25.660   7.770   4.649
34911W        W 7259  35.992  16.282   1.254
34912W        W 7260  21.086  33.525   2.767
34913W        W 7261  34.574  43.472  10.898
34914W        W 7262  41.353  19.607  11.475
34915W        W 7263  15.597  38.366   0.831
34916W        W 7264  21.017  21.057   3.763
34917W        W 7265  44.850  14.110  12.845
34918W        W 7266  43.448  18.149  12.398
34919W        W 7267  18.250  43.351  10.902
34920W        W 7268  40.419  32.117   0.271
34921W        W 7269  30.513  27.976  13.333
34922W        W 7270   6.427  42.437   1.813
34923W        W 7271  28.506  31.141   0.269
34924W        W 7272  33.552  28.998  10.565
34925W        W 7273  11.134  20.564   4.305
34926W        W 7274  44.897  32.595   0.417
34927W        W 7275   0.849  26.144   1.395
34928W        W 7276   9.883   3.892  10.896
34929W        W 7277  27.508   1.819  12.343
34930W        W 7278  38.338  26.060   3.673
34931W        W 7279  12.791  41.938   4.746
34932W        W 7280   7.811   8.378   3.848
34933W        W 7281  28.115  42.392  11.937
34934W        W 7282   2.827  33.064  11.118
34935W        W 7283  40.339  35.576   0.457
34936W        W 7284  22.716  37.976  13.035
34937W        W 7285  32.506  27.059  12.908
34938W        W 7286  44.399   9.223   4.749
34939W        W 7287  26.631  19.230  14.302
34940W        W 7288  33.540   4.350  13.961
34941W        W 7289  26.484  22.101   1.719
34942W        W 7290   1.425   9.270  14.879
34943W        W 7291  36.000  38.555  10.497
34944W        W 7292  37.422   9.675   0.370
34945W        W 7293  18.559  27.665   1.349
34946W        W 7294  24.691  18.137  13.978
34947W        W 7295  38.981  40.386  13.916
34948W        W 7296  44.793  10.374   4.174
34949W        W 7297  11.189   5.749   1.796
34950W        W 7298  16.278  13.228   1.788
34951W        W 7299  42.384  24.151   4.126
34952W        W 7300  34.593  24.032   1.698
34953W        W 7301  36.955  10.169  11.922
34954W        W 7302   3.789  12.181  13.019
34955W        W 7303   7.261   8.325  14.994
34956W        W 7304   4.450  35.961  14.374
34957W        W 7305  24.604  15.182  10.972
34958W        W 7306  11.300  39.011  13.797
34959W        W 7307  37.568  17.103  13.793
34960W        W 7308  18.734  16.643   1.757
34961W        W 7309   6.809  27.000   2.322
34962W        W 7310   1.864  33.508  14.378
34963W        W 7311   1.276  25.475   4.667
34964W        W 7312  23.598  27.960   3.172
34965W        W 7313   9.197   8.241   1.296
34966W        W 7314  25.200  31.132   2.350
34967W        W 7315  42.854  24.071  10.572
34968W        W 7316  17.147  26.064  13.431
34969W        W 7317  32.955  23.132  13.896
34970W        W 7318  19.056  40.041  12.371
34971W        W 7319  30.511  12.638  11.478
34972W        W 7320  34.949  32.925  12.001
34973W        W 7321  39.966  29.938  12.028
34974W        W 7322  38.913   0.830  14.912
34975W        W 7323  10.853  10.356  13.856
34976W        W 7324  30.459  25.023   1.229
34977W        W 7325  38.328  32.912  11.965
34978W        W 7326  14.800  12.255   4.213
34979W        W 7327   8.774  22.217   1.339
34980W        W 7328  22.171   8.270   1.282
34981W        W 7329  16.802  39.888  12.360
34982W        W 7330  29.043   3.255  12.578
34983W        W 7331   6.801  11.655   2.756
34984W        W 7332  26.524  12.233  13.924
34985W        W 7333  20.753  15.230  13.859
34986W        W 7334  22.639  20.168  12.865
34987W        W 7335  24.154   0.388  13.912
34988W        W 7336  36.519  30.161  13.490
34989W        W 7337  42.025  40.514  12.961
34990W        W 7338  12.620  14.112   4.793
34991W        W 7339  12.240  21.729  12.983
34992W        W 7340  26.993  21.071   3.788
34993W        W 7341  21.079  22.085   1.318
34994W        W 7342   5.780  31.009  10.906
34995W        W 7343  31.128  12.303   3.749
34996W        W 7344  22.088   5.697  11.861
34997W        W 7345  13.116  43.952  12.861
34998W        W 7346  20.574  13.326  13.056
34999W        W 7347  32.020  24.186  14.942
35000W        W 7348   4.258  38.836   4.700
35001W        W 7349   8.744  11.803   1.300
35002W        W 7350  14.791  28.012  11.097
35003W        W 7351   5.380  24.665  13.861
35004W        W 7352  29.453  26.627   2.254
35005W        W 7353  24.562  17.609  14.949
35006W        W 7354  17.159  38.956  12.037
35007W        W 7355  40.340  34.956  14.289
35008W        W 7356  39.008  44.309   4.286
35009W        W 7357   1.834  18.709   1.848
35010W        W 7358  13.821  32.901   3.706
35011W        W 7359  29.636  21.244   2.230
35012W        W 7360  23.083   0.446   2.366
35013W        W 7361  37.019   3.293  12.077
35014W        W 7362   3.794  32.592  14.832
35015W        W 7363  29.425  25.577   2.338
35016W        W 7364  14.214   9.842   2.885
35017W        W 7365   9.172   1.847   2.197
35018W        W 7366  44.854  22.675  10.055
35019W        W 7367  25.141  23.540   3.243
35020W        W 7368  35.595  35.381  14.357
35021W        W 7369  37.911  14.605   3.801
35022W        W 7370   3.743  40.504   2.778
35023W        W 7371  25.185   1.278  14.790
35024W        W 7372  31.544  22.663  12.452
35025W        W 7373  35.602  37.469  12.965
35026W        W 7374   3.820  26.202  11.528
35027W        W 7375  12.326  19.197   4.795
35028W        W 7376   1.957  28.587   0.910
35029W        W 7377   3.327   7.316  11.030
35030W        W 7378   9.173  31.094  10.485
35031W        W 7379  38.488   8.821  14.494
35032W        W 7380  21.676  18.606   0.399
35033W        W 7381  28.151  14.287   3.194
35034W        W 7382  36.933  32.045   4.782
35035W        W 7383  41.387  27.625  12.444
35036W        W 7384  16.713   3.444  10.607
35037W        W 7385  35.968   6.721   0.791
35038W        W 7386  32.432  14.758   2.865
35039W        W 7387  10.308  32.972   2.363
35040W        W 7388  14.282  32.604   3.692
35041W        W 7389   0.895  19.056   4.816
35042W        W 7390   6.367  39.318  13.354
35043W        W 7391  14.718   0.282   4.277
35044W        W 7392  22.142  40.010   0.900
35045W        W 7393  24.046  25.600   1.759
35046W        W 7394  40.448   2.359   3.646
35047W        W 7395  35.963   6.896   1.838
35048W        W 7396  24.030  33.939  12.376
35049W        W 7397  20.072  38.864   0.477
35050W        W 7398  35.364  14.675   2.207
35051W        W 7399  36.578  16.091   1.708
35052W        W 7400  15.294   3.892   4.331
35053W        W 7401  32.534  44.273  12.493
35054W        W 7402  12.141   6.263  11.915
35055W        W 7403  17.182  41.032  13.053
35056W        W 7404  38.508  38.443   3.713
35057W        W 7405  12.150   8.782  11.456
35058W        W 7406  19.556  22.636   1.308
35059W        W 7407  44.798  29.643  12.936
35060W        W 7408  41.475  35.938  12.935
35061W        W 7409   2.229  15.100   4.186
35062W        W 7410  35.533   4.817   4.778
35063W        W 7411  39.826   2.364   0.291
35064W        W 7412   1.775  39.530   4.622
35065W        W 7413  29.511   8.252  14.774
35066W        W 7414  10.707  40.845   3.189
35067W        W 7415   7.406  15.657   1.290
35068W        W 7416  11.797  36.482  10.052
35069W        W 7417  17.235  11.826  13.811
35070W        W 7418  27.507   7.843   1.854
35071W        W 7419  31.592  11.170   0.362
35072W        W 7420  10.160  29.579  11.859
35073W        W 7421   4.388  29.115   4.325
35074W        W 7422  35.986  40.432   4.170
35075W        W 7423   4.326   9.698   2.852
35076W        W 7424  17.687   5.755  14.425
35077W        W 7425   9.267  23.694   0.457
35078W        W 7426  34.885  26.552  14.880
35079W        W 7427   6.756  38.335  11.978
35080W        W 7428  31.137  35.463   9.632
35081W        W 7429  19.077  13.342  14.398
35082W        W 7430  11.859  27.544   3.173
35083W        W 7431  27.485  23.207   0.308
35084W        W 7432   2.735  12.140  10.961
35085W        W 7433   7.289  19.207   4.259
35086W        W 7434  42.329  34.488  14.452
35087W        W 7435  17.749  31.113  12.977
35088W        W 7436  29.946  28.657   1.718
35089W        W 7437  21.608  40.450  12.438
35090W        W 7438  32.395  11.741   4.227
35091W        W 7439  15.665   0.435  11.979
35092W        W 7440  38.947  22.620   0.448
35093W        W 7441  36.086  19.753  10.405
35094W        W 7442   2.815  34.978  14.403
35095W        W 7443  37.940  13.750   1.861
35096W        W 7444   8.176   0.780  14.314
35097W        W 7445  37.061  38.882  10.412
35098W        W 7446  28.100  31.430  13.406
35099W        W 7447  16.671  27.502  14.759
35100W        W 7448  36.003  11.785   2.671
35101W        W 7449  15.288  27.136  11.503
35102W        W 7450  38.367  41.323  10.958
35103W        W 7451   3.835  26.186   0.398
35104W        W 7452  39.339  21.542  13.020
35105W        W 7453  16.653  33.949  12.840
35106W        W 7454  17.125   5.207   1.314
35107W        W 7455  33.570  34.378   5.626
35108W        W 7456  17.272  39.495   4.600
35109W        W 7457  10.306  42.444  14.470
35110W        W 7458  14.178  27.631   2.202
35111W        W 7459  30.104   2.943   2.337
35112W        W 7460  10.292  18.271   4.713
35113W        W 7461  33.607  22.139   3.216
35114W        W 7462  27.966  28.024  14.306
35115W        W 7463   0.287  22.612   2.864
35116W        W 7464  20.039  14.274  11.070
35117W        W 7465   0.934  33.014  12.988
35118W        W 7466  26.588  12.824   3.761
35119W        W 7467  37.891   9.671   3.668
35120W        W 7468  15.643  14.116   1.413
35121W        W 7469  12.202   5.209   2.201
35122W        W 7470  33.983  31.004  14.777
35123W        W 7471  14.816  14.820  11.550
35124W        W 7472  13.616  11.293  12.419
35125W        W 7473  20.558   3.454   0.824
35126W        W 7474  11.762   3.230  12.396
35127W        W 7475  28.018  30.003  14.498
35128W        W 7476  16.268  22.709   2.796
35129W        W 7477  37.833  42.507  14.303
35130W        W 7478  14.138   3.349   3.848
35131W        W 7479  27.473  42.022  14.311
35132W        W 7480  27.624   3.767   0.289
35133W        W 7481  18.600  38.906  10.919
35134W        W 7482  32.458  20.143  14.419
35135W        W 7483   9.863  38.968  13.490
35136W        W 7484  23.195   2.335  11.429
35137W        W 7485   3.776   7.774   0.348
35138W        W 7486  22.522  18.751   4.628
35139W        W 7487  26.581  18.676  11.500
35140W        W 7488  14.647   6.213   0.266
35141W        W 7489   5.280  11.741   1.775
35142W        W 7490  10.378  36.421   4.608
35143W        W 7491  44.902  43.912   3.867
35144W        W 7492  27.989  37.420   4.352
35145W        W 7493  29.453  23.711   2.850
35146W        W 7494  42.943   9.383  10.920
35147W        W 7495  21.198  20.611   2.723
35148W        W 7496  20.117  20.605  12.964
35149W        W 7497  35.485  23.173   2.740
35150W        W 7498  22.624  34.061   2.725
35151W        W 7499   1.289  42.902   3.788
35152W        W 7500  42.017  40.496   3.361
35153W        W 7501  40.454  13.685  11.068
35154W        W 7502  18.093  10.772   1.443
35155W        W 7503  15.281   4.828  12.893
35156W        W 7504   6.359   2.282   1.417
35157W        W 7505  36.478  25.976   3.690
35158W        W 7506  26.998   4.321  14.798
35159W        W 7507  42.293   7.722  14.323
35160W        W 7508  34.033  37.359   4.231
35161W        W 7509  22.173  39.498  12.575
35162W        W 7510  12.334  28.631  14.911
35163W        W 7511  36.408  38.539  14.297
35164W        W 7512   7.416  38.935   2.826
35165W        W 7513   7.686  32.076   2.735
35166W        W 7514  39.810  42.288   3.258
35167W        W 7515  43.852  20.527  12.497
35168W        W 7516   3.839  33.536   4.742
35169W        W 7517   6.316  44.480  12.456
35170W        W 7518  37.372  24.182   1.837
35171W        W 7519  31.150   9.329  12.952
35172W        W 7520  30.993  43.955  12.920
35173W        W 7521  22.186  37.339  13.941
35174W        W 7522  12.685  43.969  14.490
35175W        W 7523   8.261  33.075   2.213
35176W        W 7524   2.952  43.903  11.031
35177W        W 7525   6.917  10.375   0.880
35178W        W 7526   4.272   4.754  14.900
35179W        W 7527  15.293  25.161   3.784
35180W        W 7528  18.289  22.195   0.894
35181W        W 7529  36.455   1.307  14.315
35182W        W 7530  31.507  18.266   1.761
35183W        W 7531   8.173  20.702  13.998
35184W        W 7532  34.500  35.558  14.794
35185W        W 7533  14.689  27.177   4.325
35186W        W 7534  24.588   8.161  11.908
35187W        W 7535  41.955   0.343  12.996
35188W        W 7536  24.215  39.998  11.453
35189W        W 7537  43.322   2.863   3.841
35190W        W 7538  33.090  25.025   1.700
35191W        W 7539  18.149  19.628   2.281
35192W        W 7540  34.387  21.568  13.049
35193W        W 7541  43.864  15.762   1.761
35194W        W 7542  15.817  28.594  10.550
35195W        W 7543  15.139   6.213   1.264
35196W        W 7544  22.530  15.199  10.431
35197W        W 7545   5.416  19.232  14.472
35198W        W 7546  25.043   2.775  14.882
35199W        W 7547  26.606   4.854  10.965
35200W        W 7548  33.980  25.685   1.772
35201W        W 7549  10.270  35.527  14.289
35202W        W 7550  10.360  19.637   1.921
35203W        W 7551  18.716  44.898   4.214
35204W        W 7552  27.620  10.185   4.223
35205W        W 7553  16.591  36.902  11.931
35206W        W 7554   4.792  30.532   2.337
35207W        W 7555   5.420  24.187  13.378
35208W        W 7556  21.176  34.085  11.479
35209W        W 7557  14.106  10.860   4.621
35210W        W 7558  44.802  43.310  13.933
35211W        W 7559  34.081  14.267  13.918
35212W        W 7560  34.894  15.631  10.025
35213W        W 7561  42.377  29.036  10.582
35214W        W 7562  10.704  13.776   2.399
35215W        W 7563  16.308  31.471   4.676
35216W        W 7564  15.257  26.197   1.229
35217W        W 7565  29.145  41.851  11.469
35218W        W 7566  22.646  30.959  14.827
35219W        W 7567  16.239  38.846  11.466
35220W        W 7568  21.615  35.402  10.592
35221W        W 7569  37.914  18.063  13.387
35222W        W 7570  37.958  29.009   3.851
35223W        W 7571  33.457  22.238  10.135
35224W        W 7572  26.177  39.404   4.127
35225W        W 7573  23.995  32.043  14.274
35226W        W 7574  16.296  12.338  10.928
35227W        W 7575  44.868   1.914  10.583
35228W        W 7576  13.326   1.465   0.834
35229W        W 7577  14.782  26.682   2.360
35230W        W 7578  12.132  40.484  14.864
35231W        W 7579  27.069  35.435   4.817
35232W        W 7580  40.994   4.935   4.238
35233W        W 7581  28.454  16.582  12.367
35234W        W 7582   1.436   7.796  13.478
35235W        W 7583  12.652  22.606   0.924
35236W        W 7584  41.969   7.859  12.511
35237W        W 7585  37.058  16.726   0.827
35238W        W 7586  30.130  44.365   1.376
35239W        W 7587  15.782  21.673   4.239
35240W        W 7588  38.988  39.833   4.641
35241W        W 7589   5.708   3.394   2.360
35242W        W 7590  31.633  37.350   3.183
35243W        W 7591  11.286  27.677  12.428
35244W        W 7592  14.641  40.980   2.386
35245W        W 7593   5.330  37.542   3.809
35246W        W 7594  41.892  39.920   2.739
35247W        W 7595   9.886  42.379   2.396
35248W        W 7596  29.562  32.076  12.071
35249W        W 7597  11.679  20.580   3.371
35250W        W 7598  31.031  11.324  10.506
35251W        W 7599   3.403  41.950   2.705
35252W        W 7600  36.363   4.245   2.417
35253W        W 7601   2.774   9.681  14.834
35254W        W 7602  39.921  37.874   0.950
35255W        W 7603  16.260  37.014  11.126
35256W        W 7604  21.585  16.639  10.420
35257W        W 7605  42.954   1.472  10.978
35258W        W 7606  14.172  25.688  13.988
35259W        W 7607  33.042  27.096   1.903
35260W        W 7608  10.802   4.438  13.530
35261W        W 7609  25.548  27.526   0.737
35262W        W 7610   6.908   4.377   2.219
35263W        W 7611  39.048  30.937  13.944
35264W        W 7612  22.156  37.420   1.298
35265W        W 7613  21.191  44.294  11.429
35266W        W 7614  32.111   1.458   4.185
35267W        W 7615  12.133   6.393   1.712
35268W        W 7616  34.893  20.203  11.463
35269W        W 7617  15.240  10.255   2.402
35270W        W 7618  37.072   3.898   9.460
35271W        W 7619  42.312  27.475   4.260
35272W        W 7620   8.270   5.314   1.284
35273W        W 7621  34.494  41.330   4.346
35274W        W 7622  29.054   0.468  11.459
35275W        W 7623  37.832   5.804   3.171
35276W        W 7624  41.478  26.469   0.294
35277W        W 7625  14.651  36.967   2.832
35278W        W 7626   1.732  25.170   4.696
35279W        W 7627   7.802  43.503  12.503
35280W        W 7628  15.110  40.544   3.275
35281W        W 7629  30.600  10.822  14.383
35282W        W 7630  25.218  28.099  10.591
35283W        W 7631   5.792  12.647  12.941
35284W        W 7632   3.232  10.876   2.181
35285W        W 7633  23.673  13.797   4.285
35286W        W 7634  31.977  15.213  11.503
35287W        W 7635  22.147   3.394  14.845
35288W        W 7636  30.061  40.969   1.402
35289W        W 7637   5.197  33.468   4.630
35290W        W 7638   3.260  25.018  14.950
35291W        W 7639  39.055  26.079   0.264
35292W        W 7640   6.261  30.543   2.234
35293W        W 7641  30.472  38.998  11.936
35294W        W 7642  12.167   5.907   2.882
35295W        W 7643  40.339   4.439   4.128
35296W        W 7644  33.391  43.406  13.000
35297W        W 7645   0.791  33.111   3.374
35298W        W 7646  32.100   3.729   4.317
35299W        W 7647  32.500  14.600   3.721
35300W        W 7648  43.001  25.035   5.183
35301W        W 7649  38.835   7.679   3.346
35302W        W 7650  28.477  33.422   3.853
35303W        W 7651  23.542  17.576   4.229
35304W        W 7652  43.944  22.209   3.218
35305W        W 7653  13.264  25.209   4.708
35306W        W 7654   5.718  25.034   0.428
35307W        W 7655  22.156  19.172   0.760
35308W        W 7656  19.730  37.072  14.383
35309W        W 7657   3.862  15.105   4.761
35310W        W 7658  37.873  32.087   1.412
35311W        W 7659  22.508  20.031   4.232
35312W        W 7660  34.432  10.307  10.611
35313W        W 7661  21.598  31.602  12.503
35314W        W 7662  28.517  16.262   2.280
35315W        W 7663   0.989   9.300  14.887
35316W        W 7664   3.897  43.516   4.648
35317W        W 7665  21.523  27.107   4.798
35318W        W 7666  43.813  10.744   1.836
35319W        W 7667  40.457  13.177   2.225
35320W        W 7668  37.980  44.917   2.850
35321W        W 7669  44.315  14.161   2.791
35322W        W 7670  11.185  36.994   3.246
35323W        W 7671  38.350  34.912  11.035
35324W        W 7672  36.884  11.661   2.266
35325W        W 7673  25.095  12.315   1.849
35326W        W 7674  28.448  31.942   0.306
35327W        W 7675  42.928  11.768  12.019
35328W        W 7676  26.113  40.367  13.477
35329W        W 7677  23.016  41.392   0.369
35330W        W 7678   3.433   3.870   3.381
35331W        W 7679   6.814  25.090  14.445
35332W        W 7680  26.533  17.592   0.435
35333W        W 7681  11.628  12.155  12.576
35334W        W 7682  44.983  14.740  14.879
35335W        W 7683  37.008  24.487  14.922
35336W        W 7684  22.696  38.826   4.273
35337W        W 7685  24.668  32.513  12.547
35338W        W 7686   5.719  10.249  13.410
35339W        W 7687  35.407  40.479  11.966
35340W        W 7688  18.070  42.892  10.521
35341W        W 7689   7.290  41.429  11.515
35342W        W 7690  14.140  28.133  10.584
35343W        W 7691  26.058  36.056   3.373
35344W        W 7692  11.843   5.194  14.322
35345W        W 7693  38.904  18.719   3.351
35346W        W 7694   4.931  35.962  11.049
35347W        W 7695  28.046   3.421   2.701
35348W        W 7696  41.301  26.486  13.508
35349W        W 7697   3.788  15.099  12.354
35350W        W 7698  28.103  34.046  12.865
35351W        W 7699   2.403  42.465  11.970
35352W        W 7700  35.380   4.375  12.575
35353W        W 7701  10.227  35.896  10.592
35354W        W 7702  16.642  44.359  10.457
35355W        W 7703   7.713   9.707  11.502
35356W        W 7704  14.759  16.632  10.495
35357W        W 7705  38.352   2.247   0.343
35358W        W 7706   9.864  43.460   1.827
35359W        W 7707   9.291  19.068   5.776
35360W        W 7708  17.753  32.101   4.159
35361W        W 7709   4.296  18.206   4.120
35362W        W 7710  23.109  33.541  11.018
35363W        W 7711  13.776  38.430   0.841
35364W        W 7712  21.109   5.699  14.275
35365W        W 7713   8.215   3.722   1.881
35366W        W 7714  25.194  33.047  11.982
35367W        W 7715   6.775  25.674  10.449
35368W        W 7716  22.563  25.664   3.298
35369W        W 7717   2.763  23.506   1.305
35370W        W 7718  20.686  21.170   4.240
35371W        W 7719  16.600  15.159   3.781
35372W        W 7720  41.951   3.794   4.330
35373W        W 7721   2.801  10.757   4.300
35374W        W 7722  24.008   3.452   0.457
35375W        W 7723  27.463  37.376   4.689
35376W        W 7724  43.379  21.514  11.007
35377W        W 7725   0.302  30.991  10.629
35378W        W 7726   0.774  28.046   2.333
35379W        W 7727   9.315  44.871   2.821
35380W        W 7728   7.796  36.500  10.479
35381W        W 7729  18.621  31.994  13.920
35382W        W 7730  22.006  41.018   0.857
35383W        W 7731   0.479  18.233   1.327
35384W        W 7732  13.112   7.322   9.928
35385W        W 7733  30.521  28.952  10.994
35386W        W 7734  15.196  27.005  10.412
35387W        W 7735  30.514  11.812   4.622
35388W        W 7736  17.624  44.950  11.610
35389W        W 7737   6.279  29.088   0.879
35390W        W 7738   7.680  20.673  14.916
35391W        W 7739   2.940  23.706   1.921
35392W        W 7740  40.407   4.219  12.036
35393W        W 7741   6.794  36.461   2.318
35394W        W 7742  36.482  41.307  14.427
35395W        W 7743   9.214  17.154  12.957
35396W        W 7744  19.634  40.354  13.330
35397W        W 7745  42.483   1.767  11.874
35398W        W 7746  31.529   0.854   4.604
35399W        W 7747  22.586  15.126  11.425
35400W        W 7748  14.705  10.704  10.535
35401W        W 7749  32.628  20.092  12.008
35402W        W 7750  21.085  34.894  13.317
35403W        W 7751  42.912  17.100   4.714
35404W        W 7752  43.466   2.466   4.702
35405W        W 7753  16.217  29.961   2.234
35406W        W 7754  12.712   9.860   4.313
35407W        W 7755  20.076  41.876   4.699
35408W        W 7756  35.553  29.918  14.346
35409W        W 7757   1.864  34.579   1.425
35410W        W 7758   1.395  10.230   4.613
35411W        W 7759  25.179  11.257  13.422
35412W        W 7760  27.175  21.687  10.415
35413W        W 7761  41.506  26.512   3.703
35414W        W 7762  29.140   4.779   0.276
35415W        W 7763  14.158  22.556  14.801
35416W        W 7764  12.710  32.028   1.395
35417W        W 7765  16.105  16.102  13.869
35418W        W 7766  28.115  37.075   3.376
35419W        W 7767   1.314  17.570  11.433
35420W        W 7768  26.641   7.755  14.475
35421W        W 7769  14.618   8.247  12.974
35422W        W 7770  26.980  31.904  13.331
35423W        W 7771  25.524   1.880   4.211
35424W        W 7772  32.430  25.049  11.429
35425W        W 7773  17.636  41.865  10.961
35426W        W 7774  42.406  30.456  14.475
35427W        W 7775  40.945  27.532   2.330
35428W        W 7776  16.128  17.248  14.907
35429W        W 7777  35.044  15.609   4.773
35430W        W 7778  13.623   3.403   3.271
35431W        W 7779  22.575  43.427  12.998
35432W        W 7780   6.715  26.592  13.443
35433W        W 7781  11.349  21.672  10.063
35434W        W 7782  31.526  31.066  13.309
35435W        W 7783  18.592  35.906   0.787
35436W        W 7784   1.864   3.738  14.802
35437W        W 7785   9.332  36.006   0.344
35438W        W 7786   8.672   4.344  10.522
35439W        W 7787   2.439  30.480   1.741
35440W        W 7788  32.901  19.668  12.018
35441W        W 7789   4.408  22.690   4.752
35442W        W 7790  10.361   5.361   0.773
35443W        W 7791  33.422  17.633  11.989
35444W        W 7792  11.629   7.306   3.681
35445W        W 7793  10.710  20.044  10.007
35446W        W 7794   5.220  25.673  11.407
35447W        W 7795  19.253  41.926   4.125
35448W        W 7796  29.577  36.480   1.716
35449W        W 7797  14.236  42.902  11.583
35450W        W 7798  15.195  34.087   3.744
35451W        W 7799  37.978  43.467   0.963
35452W        W 7800  37.499  41.820   0.930
35453W        W 7801  16.123  30.137   0.276
35454W        W 7802  32.630  18.684  12.044
35455W        W 7803  12.320   8.180  13.497
35456W        W 7804  41.426  27.500   0.814
35457W        W 7805  37.433   8.334  13.894
35458W        W 7806  34.521  35.547   0.892
35459W        W 7807   9.238  24.494   4.713
35460W        W 7808  32.137   0.748   3.814
35461W        W 7809  41.911  25.684   2.324
35462W        W 7810  11.138  38.819   0.930
35463W        W 7811   6.787  21.168  13.486
35464W        W 7812  19.094  36.434   1.741
35465W        W 7813  22.121  18.655  10.487
35466W        W 7814  37.925  30.620   2.838
35467W        W 7815  32.905  37.848  14.805
35468W        W 7816  34.990  23.551   9.927
35469W        W 7817  34.410   0.825   1.392
35470W        W 7818  20.717   5.321   4.321
35471W        W 7819  22.066  20.683   4.355
35472W        W 7820  29.993  26.973  10.969
35473W        W 7821  14.833  18.232  13.054
35474W        W 7822  42.936  21.564   4.339
35475W        W 7823  41.432  38.388  13.912
35476W        W 7824   7.725  39.378  10.922
35477W        W 7825  38.924  11.714  13.062
35478W        W 7826  28.943  12.827  11.087
35479W        W 7827   3.254   5.703  13.359
35480W        W 7828  42.440  18.180   4.648
35481W        W 7829  43.397  18.156  13.436
35482W        W 7830   4.883  33.077   1.861
35483W        W 7831  32.550  25.161   5.157
35484W        W 7832  18.645  11.657   1.817
35485W        W 7833  27.197  14.699  12.482
35486W        W 7834  27.067  12.624  12.497
35487W        W 7835  14.598  11.648  12.363
35488W        W 7836  14.240  18.664   0.478
35489W        W 7837  23.635   4.835   1.367
35490W        W 7838  14.156  36.863   4.827
35491W        W 7839  18.090  33.407  12.045
35492W        W 7840  20.232  23.017  12.369
35493W        W 7841  36.007   8.280   0.451
35494W        W 7842  36.413   1.773   2.283
35495W        W 7843   6.702   9.281  14.437
35496W        W 7844  11.143  44.783   0.314
35497W        W 7845  36.996  30.926  13.398
35498W        W 7846  22.572   7.724   1.834
35499W        W 7847  21.132  18.763  13.831
35500W        W 7848  42.327  29.531  11.998
35501W        W 7849   8.183  36.854  14.952
35502W        W 7850  30.659   9.829   1.861
35503W        W 7851  41.949  28.485  12.554
35504W        W 7852   3.743   7.244  14.948
35505W        W 7853  27.498   6.313  13.410
35506W        W 7854  13.721  12.797  11.883
35507W        W 7855  34.993  33.079  10.616
35508W        W 7856  14.197  31.432   3.253
35509W        W 7857  43.940  11.285   2.716
35510W        W 7858   4.274  14.635  13.060
35511W        W 7859  17.289  12.202  13.903
35512W        W 7860  32.482  33.902   3.173
35513W        W 7861  17.073   2.960   2.341
35514W        W 7862  15.190   8.235   3.818
35515W        W 7863  36.347   6.356  13.327
35516W        W 7864   3.333  37.397  11.026
35517W        W 7865  40.515  12.670  10.633
35518W        W 7866  12.356   9.805  11.527
35519W        W 7867  28.968   2.416  13.365
35520W        W 7868  27.659  26.678   4.742
35521W        W 7869  22.159  34.022   1.302
35522W        W 7870  19.748  33.491   2.863
35523W        W 7871  30.599  22.612  11.413
35524W        W 7872   8.358   8.875  13.830
35525W        W 7873  10.767   6.869   4.624
35526W        W 7874   4.213  19.545  10.482
35527W        W 7875  36.049  13.114  11.424
35528W        W 7876  37.547  32.635  14.489
35529W        W 7877  20.664  43.320  12.446
35530W        W 7878  41.428   4.366  11.984
35531W        W 7879  14.203   6.709   0.404
35532W        W 7880  26.464   5.907   9.994
35533W        W 7881   7.715  41.011  13.392
35534W        W 7882   4.888   7.363  13.402
35535W        W 7883  25.702   5.215  13.409
35536W        W 7884   7.817  32.906  13.409
35537W        W 7885  44.343  37.425  12.488
35538W        W 7886  41.329  22.539  10.932
35539W        W 7887  43.862  28.934   4.114
35540W        W 7888  26.170  20.170  12.844
35541W        W 7889  19.772   6.293  14.998
35542W        W 7890  26.640  42.327  14.976
35543W        W 7891  12.806  34.939  14.360
35544W        W 7892  12.270   5.755   5.203
35545W        W 7893  25.558  30.153  12.007
35546W        W 7894  14.227  16.099   4.703
35547W        W 7895  29.035  27.989  14.391
35548W        W 7896  23.676  27.516  14.390
35549W        W 7897  14.227  21.724   1.817
35550W        W 7898  33.884   3.456  14.921
35551W        W 7899  33.944  38.915  14.366
35552W        W 7900  41.387   5.278  10.520
35553W        W 7901  29.919  29.427   2.737
35554W        W 7902  11.212  34.907  11.089
35555W        W 7903   0.884   0.878   0.894
35556W        W 7904  24.657  41.032  14.888
35557W        W 7905  15.251  30.050   3.231
35558W        W 7906  30.017  32.975   3.350
35559W        W 7907   4.342  38.413  11.588
35560W        W 7908  40.520  38.823  13.016
35561W        W 7909  36.951   7.234  14.338
35562W        W 7910   9.220  44.993  14.279
35563W        W 7911  37.411  33.071   1.211
35564W        W 7912   9.742  25.656  13.798
35565W        W 7913  39.010   1.943   9.981
35566W        W 7914  17.571  34.569   2.363
35567W        W 7915  19.221  39.016  13.833
35568W        W 7916  41.792  40.355  12.060
35569W        W 7917   2.786  44.976  12.512
35570W        W 7918  25.156  17.571  13.887
35571W        W 7919   8.784  32.901   3.737
35572W        W 7920   3.893   5.870  10.511
35573W        W 7921  35.560  34.049  10.979
35574W        W 7922  31.550  11.758   3.256
35575W        W 7923  23.019  30.120  14.453
35576W        W 7924  43.978  38.449   1.836
35577W        W 7925  41.905  12.651  10.076
35578W        W 7926  20.274  43.420   3.847
35579W        W 7927  17.068  38.967   0.387
35580W        W 7928  17.084  40.391   5.094
35581W        W 7929  40.976   4.317  12.554
35582W        W 7930   7.904  35.022  11.065
35583W        W 7931  31.139   7.205  10.572
35584W        W 7932   8.281  12.292   2.397
35585W        W 7933   2.433   7.407   3.866
35586W        W 7934  28.513  43.770  11.385
35587W        W 7935  11.792  39.320   0.456
35588W        W 7936   5.905  23.645  11.560
35589W        W 7937  19.103  19.053  12.467
35590W        W 7938  31.972  25.151   3.292
35591W        W 7939  24.631  30.107  11.924
35592W        W 7940  20.742   3.252   0.408
35593W        W 7941  39.461  17.740   0.258
35594W        W 7942  37.844   2.869   4.282
35595W        W 7943   0.755  35.934   0.387
35596W        W 7944  33.073  40.447  11.014
35597W        W 7945   5.759  35.427   3.761
35598W        W 7946   4.805  22.587   2.856
35599W        W 7947  24.027   9.865   5.714
35600W        W 7948  16.789  32.066   0.771
35601W        W 7949   4.397  12.153   2.821
35602W        W 7950  13.328  23.014  13.827
35603W        W 7951  42.482   2.312   2.237
35604W        W 7952  10.384  34.477   2.227
35605W        W 7953  41.439  11.315   2.732
35606W        W 7954   1.245   8.808  14.894
35607W        W 7955  29.050  36.388   2.209
35608W        W 7956  33.987  33.399   1.363
35609W        W 7957  20.573  39.017  11.859
35610W        W 7958  38.476  25.203   3.822
35611W        W 7959  25.989   9.813   3.870
35612W        W 7960  25.005   9.736  12.549
35613W        W 7961   1.414  40.354  14.778
35614W        W 7962  26.586  12.335  10.538
35615W        W 7963  43.362   5.828  11.432
35616W        W 7964   7.363  29.460  13.535
35617W        W 7965  16.101  13.325   3.168
35618W        W 7966  40.362  29.103  10.969
35619W        W 7967  19.221  32.964  12.413
35620W        W 7968  13.800   6.850   3.333
35621W        W 7969   4.757  23.733  14.864
35622W        W 7970  27.119   0.756   2.217
35623W        W 7971  42.342   2.413  10.957
35624W        W 7972  34.492   1.374   0.734
35625W        W 7973  32.437   2.944  13.054
35626W        W 7974  11.226  13.334  14.427
35627W        W 7975  32.510  17.261   3.676
35628W        W 7976  14.811   4.256   4.717
35629W        W 7977  13.774  25.020  11.041
35630W        W 7978  42.354  13.288   2.230
35631W        W 7979  24.687  17.796   2.258
35632W        W 7980  37.949  33.909   3.300
35633W        W 7981  20.616   5.352  11.873
35634W        W 7982  28.438   3.403  14.345
35635W        W 7983  33.430  17.618   1.748
35636W        W 7984   8.814   5.767   9.929
35637W        W 7985   0.265  26.064   0.290
35638W        W 7986  30.956  24.645   2.316
35639W        W 7987   4.698  14.251   4.628
35640W        W 7988  24.540  43.338   0.850
35641W        W 7989   0.323  27.164  13.548
35642W        W 7990  41.026  28.945  13.948
35643W        W 7991  27.996  42.459  12.573
35644W        W 7992  22.216  16.142  11.430
35645W        W 7993   2.463  34.098   1.722
35646W        W 7994   6.188  36.979  14.300
35647W        W 7995   0.986  26.575  14.898
35648W        W 7996  16.310  14.759  14.421
35649W        W 7997  20.688  13.124   0.350
35650W        W 7998  16.749  43.355   1.753
35651W        W 7999  25.674  27.009   2.685
35652W        W 8000  17.284  25.689  14.014
35653W        W 8001  44.338  32.597   4.288
35654W        W 8002   2.846   4.832   4.233
35655W        W 8003  10.841  29.928   1.249
35656W        W 8004  11.286  25.641   2.383
35657W        W 8005  31.148  27.066   2.816
35658W        W 8006  42.912  44.338  13.464
35659W        W 8007  30.935   2.240  11.479
35660W        W 8008  34.428  28.996  12.034
35661W        W 8009  23.025  22.540  12.495
35662W        W 8010  26.030  15.319   4.733
35663W        W 8011  19.537   9.187   2.717
35664W        W 8012  41.431   0.931   3.302
35665W        W 8013   1.792   4.235   3.174
35666W        W 8014  23.634   3.737  11.397
35667W        W 8015  36.436  25.653   1.848
35668W        W 8016   7.815  42.793   0.859
35669W        W 8017  12.695   7.709  11.084
35670W        W 8018  30.014  21.021   4.241
35671W        W 8019  21.660  13.132  11.934
35672W        W 8020  30.472  36.571  13.416
35673W        W 8021  33.904  24.610  12.543
35674W        W 8022   2.228  21.519  14.457
35675W        W 8023   6.887  27.102  14.486
35676W        W 8024  17.759   4.813  13.345
35677W        W 8025  13.776  28.087   2.810
35678W        W 8026   5.860  42.465   0.767
35679W        W 8027  29.154  21.093  11.585
35680W        W 8028  13.214   3.936  11.442
35681W        W 8029  43.934  30.126  11.407
35682W        W 8030  25.584  36.396  10.912
35683W        W 8031   4.700  21.668  14.788
35684W        W 8032  40.484  23.691   1.757
35685W        W 8033  43.839   4.404  12.879
35686W        W 8034  16.300  18.052   3.267
35687W        W 8035   6.401  32.018  13.978
35688W        W 8036  10.212  27.542   2.203
35689W        W 8037   0.831   6.713   4.338
35690W        W 8038  42.490   7.238  11.895
35691W        W 8039  26.955  44.474  10.438
35692W        W 8040  40.805  19.074  11.573
35693W        W 8041  24.543  36.422  14.788
35694W        W 8042  24.219  36.912   4.641
35695W        W 8043  35.097  31.149  10.618
35696W        W 8044  23.156  12.292  12.552
35697W        W 8045   3.256  37.521  14.948
35698W        W 8046  42.987   7.382   1.246
35699W        W 8047  19.135  31.996   4.121
35700W        W 8048   0.756  26.997  11.099
35701W        W 8049   6.721  10.233  14.388
35702W        W 8050  44.846  10.800  14.984
35703W        W 8051  34.945  34.112   2.724
35704W        W 8052  23.162   9.873  11.534
35705W        W 8053  36.017   1.810   0.835
35706W        W 8054  23.659   4.701  11.000
35707W        W 8055  13.738  29.162   4.804
35708W        W 8056  21.101  24.520   2.368
35709W        W 8057  14.735  12.183  12.895
35710W        W 8058  36.952  43.908   3.761
35711W        W 8059  24.511  37.854  13.382
35712W        W 8060   6.715  32.008  13.045
35713W        W 8061  19.170  19.110  13.802
35714W        W 8062   0.257  28.639  13.809
35715W        W 8063  43.466  17.579  11.886
35716W        W 8064  21.226   1.294  10.561
35717W        W 8065  16.305  42.509  13.499
35718W        W 8066  18.102  35.483  12.373
35719W        W 8067  24.550  18.095   3.842
35720W        W 8068  20.571  36.534   2.722
35721W        W 8069  31.416  37.565  14.509
35722W        W 8070  16.809  23.498   2.244
35723W        W 8071  37.938  28.477  14.871
35724W        W 8072  20.653  29.154  14.905
35725W        W 8073  20.636   3.711   2.203
35726W        W 8074  38.559  28.479  12.382
35727W        W 8075  27.540  35.011   2.798
35728W        W 8076  20.569   9.764  12.451
35729W        W 8077  30.548   4.876  10.592
35730W        W 8078  22.097  42.984  10.444
35731W        W 8079  28.023  35.954  14.809
35732W        W 8080  12.733  38.506  13.994
35733W        W 8081  31.010  33.877  12.007
35734W        W 8082   6.260  34.420   4.651
35735W        W 8083  20.633  18.097   0.422
35736W        W 8084   4.270   6.814   1.879
35737W        W 8085  27.076  36.903  12.969
35738W        W 8086  16.179  24.609   3.802
35739W        W 8087  27.121  13.759  10.914
35740W        W 8088   8.702   8.724  11.508
35741W        W 8089   0.931  15.133   4.812
35742W        W 8090  25.091   7.827  12.363
35743W        W 8091   2.967  26.012   4.710
35744W        W 8092  27.480  31.428   3.845
35745W        W 8093   4.890  24.044  14.766
35746W        W 8094  22.142   5.317   2.197
35747W        W 8095   1.444  14.621  11.940
35748W        W 8096  30.644  27.980   5.236
35749W        W 8097   6.780  13.759  12.465
35750W        W 8098   3.953  24.677   4.778
35751W        W 8099   9.284  34.383   4.210
35752W        W 8100  37.387  44.997   1.866
35753W        W 8101  32.137  31.933  12.376
35754W        W 8102  13.177  42.915  11.427
35755W        W 8103  34.444  15.110   3.163
35756W        W 8104  20.694  18.096   3.366
35757W        W 8105  21.167  36.527   0.244
35758W        W 8106   8.764  43.362   3.831
35759W        W 8107  37.059  19.249   1.919
35760W        W 8108   4.287  22.557  12.970
35761W        W 8109  24.983  15.213  13.011
35762W        W 8110  44.408   2.341   1.372
35763W        W 8111  33.554  30.068  13.842
35764W        W 8112   3.326  14.165   1.871
35765W        W 8113  24.166   7.221   3.761
35766W        W 8114  32.099  37.376  11.547
35767W        W 8115  42.365   1.378   1.711
35768W        W 8116  26.522   0.427  12.542
35769W        W 8117  41.420   4.918  12.356
35770W        W 8118  27.463  17.589  12.947
35771W        W 8119   0.405  19.136   0.956
35772W        W 8120  41.850  15.644   9.977
35773W        W 8121  14.789  14.186   1.383
35774W        W 8122  11.836  18.630  11.086
35775W        W 8123  19.231  31.602  11.522
35776W        W 8124  22.228  20.669   2.361
35777W        W 8125  29.991  13.679   0.282
35778W        W 8126  39.871   4.259  10.968
35779W        W 8127   0.351  30.444  11.044
35780W        W 8128  25.178  41.828  11.485
35781W        W 8129  11.758  43.919   4.274
35782W        W 8130  31.009  36.525  13.822
35783W        W 8131  14.292  41.370   3.722
35784W        W 8132  25.985  32.397  14.905
35785W        W 8133  42.454  44.912   2.835
35786W        W 8134  42.809   0.405   2.254
35787W        W 8135  29.136  18.751  11.974
35788W        W 8136  20.081  10.722   2.799
35789W        W 8137  11.651  14.637   3.149
35790W        W 8138   8.257   0.770  10.413
35791W        W 8139  37.520  40.388   5.305
35792W        W 8140  20.677  30.542  10.952
35793W        W 8141   9.321  31.104  11.542
35794W        W 8142   1.446  14.785  12.508
35795W        W 8143  14.818  33.576   2.731
35796W        W 8144   2.421  10.654  12.986
35797W        W 8145   5.830   9.348  13.979
35798W        W 8146  17.254  21.106  12.955
35799W        W 8147   5.407  37.074  12.553
35800W        W 8148  37.556  17.756   2.677
35801W        W 8149  18.116  35.394  13.531
35802W        W 8150  40.898  27.158  10.614
35803W        W 8151   0.487  12.177   0.788
35804W        W 8152  44.977  19.580  13.985
35805W        W 8153  40.925  34.033  14.929
35806W        W 8154   7.734  44.798  11.989
35807W        W 8155  42.481  26.639  10.927
35808W        W 8156  32.071  16.291  13.984
35809W        W 8157  32.012   7.177  10.629
35810W        W 8158   5.712  15.112   3.811
35811W        W 8159  15.256  11.319   9.954
35812W        W 8160  41.826  44.784  12.032
35813W        W 8161  25.976  10.157   0.436
35814W        W 8162  41.982  33.434   1.360
35815W        W 8163  41.490  26.048  11.989
35816W        W 8164  27.970  16.761   0.276
35817W        W 8165  17.096  22.667   1.865
35818W        W 8166  33.985   8.781   4.622
35819W        W 8167  18.066  28.136   1.400
35820W        W 8168  34.547  33.509   4.125
35821W        W 8169   6.251   7.903   5.253
35822W        W 8170  14.184  40.800  12.432
35823W        W 8171  29.520  33.586   1.415
35824W        W 8172   1.404  25.521   0.841
35825W        W 8173  25.565  39.880  14.019
35826W        W 8174  32.928  36.995   1.373
35827W        W 8175  35.004  34.914   5.252
35828W        W 8176  19.187  23.179   3.302
35829W        W 8177  19.576   2.296  14.299
35830W        W 8178  38.047   3.413   0.770
35831W        W 8179  12.636  32.965   0.812
35832W        W 8180  26.982  24.537  11.449
35833W        W 8181  22.037  33.465   4.298
35834W        W 8182  10.254  24.675  12.344
35835W        W 8183  24.120  26.531   0.805
35836W        W 8184   0.770  26.614   1.345
35837W        W 8185  23.533   2.244  11.521
35838W        W 8186   6.906  22.249   0.872
35839W        W 8187  33.504   9.248   0.738
35840W        W 8188  23.022   0.944  13.838
35841W        W 8189  31.626  36.088   9.934
35842W        W 8190  31.076  35.458   4.685
35843W        W 8191  42.781  30.912  13.867
35844W        W 8192  11.222  27.991  11.926
35845W        W 8193  15.705   4.345   2.307
35846W        W 8194  12.310  17.703  14.786
35847W        W 8195  43.446   3.458  13.499
35848W        W 8196  22.626  43.843  14.290
35849W        W 8197   9.849  29.463  12.873
35850W        W 8198  10.163  42.320  12.087
35851W        W 8199  38.956  24.724  10.890
35852W        W 8200  37.881  22.234   5.608
35853W        W 8201   5.744  44.391   2.316
35854W        W 8202  13.687  13.790   4.269
35855W        W 8203  18.257  38.049   4.686
35856W        W 8204  25.578  24.032  10.543
35857W        W 8205   3.955   1.894  11.463
35858W        W 8206  25.542  30.068   3.341
35859W        W 8207  42.970  44.320  10.065
35860W        W 8208  24.632   8.751   2.346
35861W        W 8209   9.884   2.792  10.554
35862W        W 8210   9.769  24.184   2.671
35863W        W 8211  28.020   6.715   2.351
35864W        W 8212  35.071  20.529   9.647
35865W        W 8213  25.140  10.757  11.594
35866W        W 8214  29.165  29.014   2.830
35867W        W 8215  31.570  18.744  11.582
35868W        W 8216  32.605  40.021   3.147
35869W        W 8217  36.389   1.737   1.822
35870W        W 8218  14.639  32.405   4.180
35871W        W 8219  26.493  28.028   1.770
35872W        W 8220  23.618  28.565   2.376
35873W        W 8221  35.989  33.079   3.731
35874W        W 8222   2.351   1.912  12.354
35875W        W 8223  22.503  44.427  12.823
35876W        W 8224  12.688  15.817   1.375
35877W        W 8225  30.579  37.345  12.502
35878W        W 8226  38.889  10.258   3.380
35879W        W 8227  25.548  29.436  11.910
35880W        W 8228  21.200  10.681  10.964
35881W        W 8229  18.701  38.027   2.330
35882W        W 8230   3.740  14.255   4.136
35883W        W 8231   1.392  15.178   1.370
35884W        W 8232  27.041  12.143  10.987
35885W        W 8233  36.399  22.011  12.085
35886W        W 8234  26.638  22.133   2.180
35887W        W 8235  38.942  42.795   4.665
35888W        W 8236   4.832  21.085  10.427
35889W        W 8237  40.314  23.728  13.432
35890W        W 8238  31.134   3.874   0.935
35891W        W 8239   7.396   4.292   2.304
35892W        W 8240  28.172  40.826  14.831
35893W        W 8241  12.748  34.060  10.523
35894W        W 8242  40.467  35.407  14.814
35895W        W 8243  23.057  16.793  14.442
35896W        W 8244  30.098  27.680  13.056
35897W        W 8245   6.341   1.734   4.150
35898W        W 8246   2.375   2.279  10.629
35899W        W 8247  20.544  36.911  10.630
35900W        W 8248  13.303  25.027   2.396
35901W        W 8249  15.626  28.674   4.731
35902W        W 8250  25.125  23.555   1.771
35903W        W 8251  40.991  35.378   2.186
35904W        W 8252   1.848  25.198   1.226
35905W        W 8253  13.776  19.246  14.819
35906W        W 8254  23.236  39.954  11.914
35907W        W 8255  41.016  10.240  11.046
35908W        W 8256  43.960  16.267  12.348
35909W        W 8257  38.986  18.692  12.424
35910W        W 8258  35.018  35.593   4.274
35911W        W 8259  17.122   2.929   2.726
35912W        W 8260  21.632  25.064   2.292
35913W        W 8261  17.088   6.198  10.583
35914W        W 8262  43.443  15.698   2.764
35915W        W 8263   8.689  32.078   1.318
35916W        W 8264  17.685  20.703  14.334
35917W        W 8265  25.518  44.982  13.951
35918W        W 8266  18.712   4.785  14.807
35919W        W 8267  30.458  40.470   5.283
35920W        W 8268  27.016  21.028   0.467
35921W        W 8269  16.177  17.671   4.698
35922W        W 8270  42.892  23.052   2.849
35923W        W 8271  15.761  13.794  10.045
35924W        W 8272  29.561   3.405  14.004
35925W        W 8273   4.261   0.405   4.685
35926W        W 8274  28.671  44.318   3.821
35927W        W 8275  10.173  14.762   1.819
35928W        W 8276  13.638   3.257   2.765
35929W        W 8277  38.835  30.653   3.856
35930W        W 8278  15.120  38.039  13.417
35931W        W 8279  19.214  31.934  14.413
35932W        W 8280  27.518  18.619  11.567
35933W        W 8281   3.721  43.915   2.841
35934W        W 8282  30.514  14.168  14.892
35935W        W 8283  36.545  26.007  12.996
35936W        W 8284  27.029  29.127  13.423
35937W        W 8285   1.467  21.235   3.708
35938W        W 8286   2.240  38.570  13.971
35939W        W 8287   9.843  18.088   2.237
35940W        W 8288   8.681  28.044  10.934
35941W        W 8289  13.817  10.650  13.896
35942W        W 8290  44.286  23.078   2.290
35943W        W 8291  33.929  35.052   4.284
35944W        W 8292  40.419  16.300  14.908
35945W        W 8293  32.040  44.914   1.888
35946W        W 8294   9.327  34.904  11.074
35947W        W 8295  26.066  34.044  13.803
35948W        W 8296  15.613  15.087   3.154
35949W        W 8297  13.608  20.220   4.205
35950W        W 8298  34.096   4.883   3.678
35951W        W 8299  29.617  35.487  10.531
35952W        W 8300  42.029  19.188   1.920
35953W        W 8301  17.603  35.999  11.970
35954W        W 8302  32.994  15.305  10.502
35955W        W 8303  12.646  33.586   2.858
35956W        W 8304  34.939  23.639   3.338
35957W        W 8305  30.946  30.937  13.388
35958W        W 8306  30.141  37.851  10.457
35959W        W 8307   4.372  23.539  14.289
35960W        W 8308  19.566   3.422  10.935
35961W        W 8309  38.917  44.861   1.861
35962W        W 8310  38.015  40.982  10.455
35963W        W 8311  30.534  20.677   4.319
35964W        W 8312  12.166   7.818   2.798
35965W        W 8313   1.783   2.805  11.067
35966W        W 8314  10.862   9.342  13.054
35967W        W 8315  41.791   5.255   1.300
35968W        W 8316  29.490   7.362   0.258
35969W        W 8317  38.871   5.895   3.836
35970W        W 8318   5.903   4.266   0.477
35971W        W 8319  44.503  30.920   1.394
35972W        W 8320  21.577  32.480   0.928
35973W        W 8321  38.840  34.513   3.785
35974W        W 8322  26.961   1.851   0.732
35975W        W 8323  24.160   9.172   2.355
35976W        W 8324  34.044   2.292   1.746
35977W        W 8325  17.605  36.845  12.861
35978W        W 8326   0.357   5.818  11.878
35979W        W 8327   1.765   2.381   3.276
35980W        W 8328  18.185  28.045   0.938
35981W        W 8329  44.771  24.530  13.019
35982W        W 8330  37.472  35.538   2.791
35983W        W 8331  37.894  19.705  13.527
35984W        W 8332  13.672  38.071  11.902
35985W        W 8333   9.283  20.709  10.969
35986W        W 8334  34.034  22.668   3.167
35987W        W 8335  17.559   5.418  12.429
35988W        W 8336   9.232   0.945   3.648
35989W        W 8337  22.628  43.000   1.914
35990W        W 8338  33.536  24.082  13.884
35991W        W 8339  21.535  37.868   3.685
35992W        W 8340  40.437  15.595   4.790
35993W        W 8341  13.656  19.263   1.224
35994W        W 8342  21.075  36.904   3.381
35995W        W 8343   1.265  24.695  14.402
35996W        W 8344  28.113   2.246   4.139
35997W        W 8345   2.932  38.385  13.433
35998W        W 8346  38.014  30.011  14.383
35999W        W 8347   6.366   4.945   2.763
36000W        W 8348   8.191  20.646  12.555
36001W        W 8349  38.490  26.604   1.356
36002W        W 8350  22.717  32.413  14.761
36003W        W 8351  38.969  28.583  12.425
36004W        W 8352   1.468   7.196  11.971
36005W        W 8353  19.665  33.917  10.508
36006W        W 8354  20.642  12.195  12.840
36007W        W 8355  40.453   0.929   4.732
36008W        W 8356  17.565  13.190  14.833
36009W        W 8357  26.478  29.042   4.791
36010W        W 8358  21.197  18.190   1.414
36011W        W 8359  19.148   8.800  13.032
36012W        W 8360  42.439   9.832  10.536
36013W        W 8361  19.056  30.571   5.121
36014W        W 8362  18.636  37.875   4.308
36015W        W 8363  30.029  13.833  11.580
36016W        W 8364   8.337  20.546   2.742
36017W        W 8365  21.064  28.673  12.418
36018W        W 8366  38.392   7.359  11.395
36019W        W 8367  35.037  12.230   4.232
36020W        W 8368  23.184  30.083   4.349
36021W        W 8369  41.350  17.249   4.689
36022W        W 8370  14.235   3.300   1.299
36023W        W 8371  23.609  38.876  10.442
36024W        W 8372   7.857  22.181  13.911
36025W        W 8373  29.076  12.744   4.824
36026W        W 8374   9.276   4.909   1.726
36027W        W 8375  30.486  21.733   0.292
36028W        W 8376   2.366   3.296  13.865
36029W        W 8377  11.203  28.076  13.791
36030W        W 8378  12.802   9.771   0.439
36031W        W 8379  26.992  26.525   0.761
36032W        W 8380   3.320  23.075   0.924
36033W        W 8381  20.123  38.554  10.479
36034W        W 8382  34.019  22.250   1.403
36035W        W 8383  41.011  39.359  13.525
36036W        W 8384   6.715  31.017  11.075
36037W        W 8385  17.269   5.246   0.886
36038W        W 8386  40.543  39.864  11.027
36039W        W 8387  11.837   7.781  14.387
36040W        W 8388  21.021  16.778   4.740
36041W        W 8389  10.232  25.074  12.969
36042W        W 8390  44.311  44.268  12.081
36043W        W 8391  44.434   8.741   1.839
36044W        W 8392  31.414  25.502  11.914
36045W        W 8393   5.931  33.875   1.418
36046W        W 8394  36.899  27.955  11.116
36047W        W 8395  24.171  38.395  12.371
36048W        W 8396  13.275  11.170  11.071
36049W        W 8397   5.918  42.823  14.877
36050W        W 8398  33.086  13.693  13.884
36051W        W 8399   1.398  25.152  12.860
36052W        W 8400  40.506   6.861  13.459
36053W        W 8401  11.819  34.049  10.570
36054W        W 8402  42.385  40.873  11.504
36055W        W 8403  22.672  40.337   0.944
36056W        W 8404   6.700  10.283   4.194
36057W        W 8405  20.126  25.621   4.185
36058W        W 8406   6.334  20.624  14.806
36059W        W 8407  22.012  19.236   1.776
36060W        W 8408   7.183  25.161   1.283
36061W        W 8409  15.656  11.851   0.767
36062W        W 8410  28.138   6.862   4.718
36063W        W 8411  25.501  22.044   0.285
36064W        W 8412  20.581  12.325   1.305
36065W        W 8413  30.415  15.163  11.957
36066W        W 8414   4.712   7.793   3.682
36067W        W 8415  34.478   3.270  12.023
36068W        W 8416  19.236   4.851  11.434
36069W        W 8417   5.748  32.987  11.410
36070W        W 8418  25.053  36.424   0.275
36071W        W 8419   8.268   3.943  12.387
36072W        W 8420   4.423  44.452  10.089
36073W        W 8421  41.509   5.882   4.824
36074W        W 8422  36.354  34.092  11.397
36075W        W 8423  42.793  35.863  13.456
36076W        W 8424  24.105  32.511  11.386
36077W        W 8425   7.823  18.725  11.505
36078W        W 8426  12.714  33.522  11.097
36079W        W 8427  37.065   0.288   4.750
36080W        W 8428  23.037  31.457  13.500
36081W        W 8429  16.691   4.439  14.286
36082W        W 8430  36.027  23.639   3.775
36083W        W 8431   3.755  36.479  10.891
36084W        W 8432  30.047  44.004   3.757
36085W        W 8433  32.911  34.111  13.397
36086W        W 8434  30.949  44.502  12.930
36087W        W 8435  33.937  21.023  12.047
36088W        W 8436  16.300   7.906  10.975
36089W        W 8437  39.539  39.505  11.596
36090W        W 8438  29.031  11.653  13.061
36091W        W 8439  29.107  15.174   2.232
36092W        W 8440  14.604  30.911  14.863
36093W        W 8441  31.583   4.215  12.352
36094W        W 8442  13.156  18.716  11.504
36095W        W 8443   2.820  26.664   0.262
36096W        W 8444  28.594  44.887  10.419
36097W        W 8445  10.823  44.788   0.297
36098W        W 8446  36.858  43.851  14.913
36099W        W 8447   5.383  17.214  11.950
36100W        W 8448  11.215  21.608   9.437
36101W        W 8449  38.418  32.090  10.482
36102W        W 8450  14.753  22.701  11.073
36103W        W 8451  44.849  26.699   2.414
36104W        W 8452   0.964  15.665   5.299
36105W        W 8453  31.124  13.241   2.217
36106W        W 8454  21.086  10.738  12.514
36107W        W 8455  13.796  33.017   1.223
36108W        W 8456  20.736  19.089   0.397
36109W        W 8457  21.692  42.975   1.811
36110W        W 8458  21.725  14.145   3.773
36111W        W 8459  32.445  37.882  12.972
36112W        W 8460   7.261  14.210   1.284
36113W        W 8461  41.962  36.062   2.295
36114W        W 8462   9.161   4.305  10.503
36115W        W 8463  21.528  22.528  13.061
36116W        W 8464  23.703  20.710   1.893
36117W        W 8465  36.403  32.980   3.681
36118W        W 8466  38.919   4.853  11.598
36119W        W 8467  24.048   0.347  11.409
36120W        W 8468  44.779   7.237   0.941
36121W        W 8469  32.557  27.128   4.719
36122W        W 8470  23.560  13.330   3.752
36123W        W 8471  25.123  25.137   1.837
36124W        W 8472  33.396  10.736  13.410
36125W        W 8473  37.977  42.468   3.674
36126W        W 8474  22.700  22.239   0.354
36127W        W 8475  39.491  42.311   1.845
36128W        W 8476  17.698  29.623   1.356
36129W        W 8477  37.582  26.195  14.863
36130W        W 8478   8.882  44.409   2.312
36131W        W 8479  19.658  16.783  12.886
36132W        W 8480  15.141   8.265  10.938
36133W        W 8481  15.217  28.955   0.777
36134W        W 8482  36.888   8.376  11.092
36135W        W 8483   4.297   8.670   2.315
36136W        W 8484  29.090  24.178  10.626
36137W        W 8485  26.694  39.973   0.363
36138W        W 8486  36.860   8.273  11.991
36139W        W 8487  40.891  19.076  10.955
36140W        W 8488  36.066  36.478   2.790
36141W        W 8489  27.597  32.128  13.828
36142W        W 8490   9.771  19.648  12.051
36143W        W 8491  24.565  35.577  11.971
36144W        W 8492  18.204  16.651   1.824
36145W        W 8493   9.343  36.877  13.827
36146W        W 8494   9.315  44.815   4.352
36147W        W 8495  32.406  15.132   0.457
36148W        W 8496  26.555  37.843   4.637
36149W        W 8497  10.216  39.979  13.018
36150W        W 8498  20.143  18.208   4.803
36151W        W 8499   2.265  43.303   4.798
36152W        W 8500  29.020   0.255   0.476
36153W        W 8501  20.166   5.820   3.366
36154W        W 8502  10.777  33.568   3.657
36155W        W 8503  34.508  29.158   1.214
36156W        W 8504  27.460  18.701   1.770
36157W        W 8505  19.167   6.253  13.544
36158W        W 8506  19.549  35.563   1.758
36159W        W 8507   0.948  22.136  14.399
36160W        W 8508   0.277  39.482  11.535
36161W        W 8509   3.405   9.278   2.673
36162W        W 8510  10.293  18.758  12.430
36163W        W 8511  38.508  25.072  14.350
36164W        W 8512  24.083  22.590   9.999
36165W        W 8513  34.939  17.569  14.939
36166W        W 8514  34.397  12.273  11.462
36167W        W 8515   8.167  37.946   4.660
36168W        W 8516  21.727   6.717  11.111
36169W        W 8517  38.008  43.287  10.552
36170W        W 8518  33.609  13.726  12.983
36171W        W 8519  19.764  29.117  12.495
36172W        W 8520  12.287  26.515   0.456
36173W        W 8521   1.419  38.500   1.291
36174W        W 8522   3.235  24.194   0.891
36175W        W 8523  44.452  41.513  10.126
36176W        W 8524  19.255  16.220  11.882
36177W        W 8525   5.403  34.415  12.573
36178W        W 8526  28.147  33.906  13.953
36179W        W 8527  32.925  23.148  13.468
36180W        W 8528  43.866  27.091  12.421
36181W        W 8529   6.208  15.162   4.184
36182W        W 8530   3.750  43.940  10.519
36183W        W 8531  11.734  15.672   1.432
36184W        W 8532  21.643  44.333  12.003
36185W        W 8533  14.196  30.012  11.908
36186W        W 8534   6.343  23.706  12.867
36187W        W 8535   8.678  19.131   1.858
36188W        W 8536   8.213   0.766  12.521
36189W        W 8537  34.866  41.814   4.782
36190W        W 8538  34.413   4.322   0.260
36191W        W 8539  43.895  18.685  14.293
36192W        W 8540   7.719  12.704   0.245
36193W        W 8541  19.544   6.725   3.209
36194W        W 8542  29.588  39.820  14.403
36195W        W 8543   3.286  28.634  13.931
36196W        W 8544  41.466  16.251   0.837
36197W        W 8545  32.900  34.385  10.620
36198W        W 8546  16.655  44.339  14.934
36199W        W 8547   2.398  31.499   0.356
36200W        W 8548  32.965  31.134   1.424
36201W        W 8549   9.152  26.591  12.891
36202W        W 8550  30.522  26.585  14.459
36203W        W 8551   0.255  28.631  12.347
36204W        W 8552  38.521  35.956  11.581
36205W        W 8553  11.714   7.407   9.575
36206W        W 8554  15.694  25.527  10.437
36207W        W 8555  43.407  25.479   2.780
36208W        W 8556  26.700  12.281   2.895
36209W        W 8557  41.397   1.878  11.982
36210W        W 8558  39.537  19.114   2.264
36211W        W 8559  23.583  10.278  12.508
36212W        W 8560  24.059  43.349   0.419
36213W        W 8561  16.114   6.339  10.545
36214W        W 8562   9.825  35.031   0.938
36215W        W 8563  19.610  22.543  13.363
36216W        W 8564   0.453  32.614  11.439
36217W        W 8565   7.378  17.656   2.722
36218W        W 8566  26.187  21.202  11.886
36219W        W 8567  14.791   1.978   0.341
36220W        W 8568  25.117  22.540  12.884
36221W        W 8569  26.694  44.801  13.805
36222W        W 8570   0.768   2.809  11.472
36223W        W 8571  35.951  42.904  11.993
36224W        W 8572   1.955  26.461  10.900
36225W        W 8573  24.590  38.543  12.092
36226W        W 8574  26.615  42.815   2.405
36227W        W 8575  38.061  25.010   3.759
36228W        W 8576  12.200  10.247   3.360
36229W        W 8577  38.072  20.127  11.536
36230W        W 8578  44.456  22.507   3.207
36231W        W 8579  34.533  19.212   1.319
36232W        W 8580  14.304  16.671   2.294
36233W        W 8581  11.854  19.766   4.733
36234W        W 8582  38.871   8.225  11.940
36235W        W 8583  10.224  27.562   3.292
36236W        W 8584  12.353  33.624   4.699
36237W        W 8585   0.814  29.665   5.084
36238W        W 8586   7.262  16.254  13.482
36239W        W 8587   2.344  21.243   0.929
36240W        W 8588  34.389  19.149   3.180
36241W        W 8589   9.329   7.884   1.363
36242W        W 8590  20.567  38.568   3.235
36243W        W 8591  11.249  43.913   2.387
36244W        W 8592   1.379  24.562   4.350
36245W        W 8593  30.599   1.902   0.274
36246W        W 8594  24.007  17.153  12.973
36247W        W 8595  26.208   7.293   3.779
36248W        W 8596  25.614  43.291  14.783
36249W        W 8597  26.692   7.863   0.291
36250W        W 8598  12.238  42.441   3.826
36251W        W 8599   0.324  21.542  12.958
36252W        W 8600  10.823  25.980   2.290
36253W        W 8601  12.654   9.288  13.018
36254W        W 8602  35.890   1.384  11.384
36255W        W 8603  10.777   7.328   3.279
36256W        W 8604  19.589   7.293  10.502
36257W        W 8605   7.190   2.733   1.339
36258W        W 8606  13.687  24.209  11.942
36259W        W 8607  35.531   3.800   0.960
36260W        W 8608  42.400  25.124   2.840
36261W        W 8609  16.677  10.792   1.360
36262W        W 8610  26.082   3.297  13.961
36263W        W 8611  32.621   1.833   1.844
36264W        W 8612  26.613   4.398   1.289
36265W        W 8613  22.202   1.892   0.388
36266W        W 8614  39.381  22.510  10.406
36267W        W 8615   1.927  34.067  13.818
36268W        W 8616   0.851   6.318   1.924
36269W        W 8617   4.893  14.622  12.924
36270W        W 8618  21.086  11.688   1.320
36271W        W 8619  11.716  38.384  11.915
36272W        W 8620  41.913  42.853  13.838
36273W        W 8621  21.611  28.538   2.717
36274W        W 8622  28.609  32.441  13.913
36275W        W 8623   9.861  41.029  13.397
36276W        W 8624  14.247  36.977  13.396
36277W        W 8625  44.350   6.403   2.663
36278W        W 8626  16.666  25.689  12.486
36279W        W 8627  33.598  33.981   9.436
36280W        W 8628  23.199   5.288   1.324
36281W        W 8629  23.199   4.249  13.336
36282W        W 8630  22.995   7.246  12.936
36283W        W 8631  30.914  32.475   2.741
36284W        W 8632  21.018   8.376   3.245
36285W        W 8633  11.714  10.205   3.670
36286W        W 8634  30.972   0.792  14.346
36287W        W 8635   6.921  30.518  14.787
36288W        W 8636  27.095  20.582  13.983
36289W        W 8637  16.665  37.337  13.830
36290W        W 8638  28.553  36.013  14.881
36291W        W 8639  13.304   3.885   5.195
36292W        W 8640   7.719  37.079  14.961
36293W        W 8641   8.208  17.163  14.872
36294W        W 8642  40.548   2.773   0.826
36295W        W 8643  24.724   7.911  14.891
36296W        W 8644   4.926  28.557  10.611
36297W        W 8645  24.165   1.762  11.400
36298W        W 8646   9.273  39.510   1.910
36299W        W 8647  23.615  18.166   1.418
36300W        W 8648  22.138   6.396   0.304
36301W        W 8649  16.207  25.016  12.011
36302W        W 8650  10.325  37.963   0.747
36303W        W 8651   6.381  21.554  12.346
36304W        W 8652  30.102  40.411   4.195
36305W        W 8653  17.237  13.762   5.229
36306W        W 8654   2.843  41.997   2.772
36307W        W 8655   9.375  17.729   4.277
36308W        W 8656   2.351  25.691   1.893
36309W        W 8657   1.906  40.360  13.520
36310W        W 8658  36.484   2.365  10.459
36311W        W 8659  44.300  19.172  10.433
36312W        W 8660   6.747  34.600  13.520
36313W        W 8661  13.195  33.003   4.732
36314W        W 8662  32.524   7.754   5.677
36315W        W 8663   4.434  21.631  14.446
36316W        W 8664   9.196   7.301  12.371
36317W        W 8665   5.219  34.542  12.041
36318W        W 8666  35.037  42.021  14.779
36319W        W 8667  10.372  13.682   2.902
36320W        W 8668  17.150  17.299   0.474
36321W        W 8669  35.513  25.596   1.869
36322W        W 8670  37.898  24.614   0.954
36323W        W 8671  16.698  30.630  14.364
36324W        W 8672  17.072  36.419  14.939
36325W        W 8673  29.496  13.186  13.963
36326W        W 8674  27.102  25.557  10.579
36327W        W 8675  10.858   9.880  12.397
36328W        W 8676  27.108  32.471  13.871
36329W        W 8677  36.351   1.922  13.015
36330W        W 8678  21.573   0.285   1.264
36331W        W 8679  32.921  34.585   4.667
36332W        W 8680  14.774   0.369   1.813
36333W        W 8681  34.071  19.552  10.556
36334W        W 8682  26.461  35.876   1.267
36335W        W 8683  23.175   1.267   2.410
36336W        W 8684  32.937  20.076  12.033
36337W        W 8685  14.818  30.459   5.109
36338W        W 8686   9.846  39.980  12.950
36339W        W 8687  26.172  18.696   0.407
36340W        W 8688  27.615  41.467  11.032
36341W        W 8689  34.492  34.018   0.956
36342W        W 8690   8.398  32.524  10.996
36343W        W 8691  26.502  40.501  13.311
36344W        W 8692  13.202  22.065   4.789
36345W        W 8693   2.352   7.784   0.454
36346W        W 8694  40.946  21.113   2.374
36347W        W 8695   6.843   9.317   0.931
36348W        W 8696  33.046  43.443  12.404
36349W        W 8697  34.947  26.656   2.309
36350W        W 8698  12.253  28.127   3.830
36351W        W 8699  44.315  12.294   1.437
36352W        W 8700  30.501  30.037   1.349
36353W        W 8701  20.111  10.378   0.789
36354W        W 8702  34.551  32.549   3.681
36355W        W 8703  29.019  19.186   4.329
36356W        W 8704   6.273  12.713   3.358
36357W        W 8705  19.739   9.210  11.935
36358W        W 8706  38.393  16.188   2.360
36359W        W 8707  33.552  31.474  14.832
36360W        W 8708  35.858   7.384   1.360
36361W        W 8709  28.531   1.775   3.756
36362W        W 8710  18.602  44.924   1.224
36363W        W 8711   8.216  40.323   2.749
36364W        W 8712  44.297  33.409  13.889
36365W        W 8713  43.783  36.541  11.380
36366W        W 8714  35.546  24.175  13.510
36367W        W 8715   7.885  21.049  14.423
36368W        W 8716  20.125  44.427   9.968
36369W        W 8717  21.710  40.446   3.687
36370W        W 8718  16.648   4.699   4.838
36371W        W 8719  16.310   0.900   0.818
36372W        W 8720  35.106  41.837  13.314
36373W        W 8721   3.712  38.916   1.726
36374W        W 8722  18.197  32.633  12.405
36375W        W 8723  39.817  32.469   3.740
36376W        W 8724  26.597   5.930   0.949
36377W        W 8725  43.958  39.811   3.207
36378W        W 8726  35.911  16.725   1.225
36379W        W 8727  30.633   4.258  10.430
36380W        W 8728  33.611  39.317  11.959
36381W        W 8729  29.964   1.850   3.654
36382W        W 8730  18.562  20.561  11.060
36383W        W 8731  36.568  34.441  12.078
36384W        W 8732  36.874  32.590   1.376
36385W        W 8733  23.570  25.699  11.947
36386W        W 8734  40.902  12.261  13.372
36387W        W 8735  40.006   0.432   0.899
36388W        W 8736  42.405   0.470  13.019
36389W        W 8737  17.721   1.806  13.811
36390W        W 8738  33.484   9.221  13.805
36391W        W 8739   3.909  28.009  11.599
36392W        W 8740   5.928  31.989  10.096
36393W        W 8741   4.889  15.599  13.057
36394W        W 8742  38.549   8.184  11.393
36395W        W 8743  29.021  21.559  12.413
36396W        W 8744  31.494  10.878   4.240
36397W        W 8745  43.929   3.264  12.932
36398W        W 8746  35.544  22.700  12.357
36399W        W 8747  38.011  28.173  12.017
36400W        W 8748   4.840  22.080   0.804
36401W        W 8749  21.697  41.912   3.683
36402W        W 8750  26.139   2.962   1.278
36403W        W 8751  13.662   1.437  14.334
36404W        W 8752  28.626  23.189  11.906
36405W        W 8753  10.685  21.089   0.902
36406W        W 8754  11.765   2.304  14.303
36407W        W 8755  35.895   5.224  14.897
36408W        W 8756  26.591   9.163   1.901
36409W        W 8757   8.849  35.537   3.739
36410W        W 8758  16.113  37.963  13.529
36411W        W 8759   2.232  40.547  11.112
36412W        W 8760  41.983  13.842  14.899
36413W        W 8761   7.218  37.054   1.697
36414W        W 8762  19.170  18.245   2.394
36415W        W 8763  26.503   1.833  10.471
36416W        W 8764  15.625  39.853  12.959
36417W        W 8765  13.668  22.161   1.770
36418W        W 8766  30.019  37.484  12.983
36419W        W 8767   3.716  20.560  11.975
36420W        W 8768  38.026  25.097   1.296
36421W        W 8769   6.404  22.702   1.289
36422W        W 8770  31.077  41.425  12.909
36423W        W 8771  15.178  28.128   1.451
36424W        W 8772  41.878   1.968  13.865
36425W        W 8773  16.745  29.065  13.988
36426W        W 8774  39.428   3.359   3.859
36427W        W 8775   4.902   6.324   3.771
36428W        W 8776   4.434   2.857   4.156
36429W        W 8777   4.209  13.654  11.407
36430W        W 8778  24.107  44.264   3.753
36431W        W 8779   2.812  25.499  14.371
36432W        W 8780  14.672   8.368  14.874
36433W        W 8781  17.305   6.201   1.746
36434W        W 8782   1.734  23.607   2.385
36435W        W 8783  10.848   5.867   4.310
36436W        W 8784  41.927  26.124  10.571
36437W        W 8785   2.729  28.175   2.353
36438W        W 8786  26.102   2.743  12.514
36439W        W 8787  20.054  14.182  10.076
36440W        W 8788  43.012   8.387   3.258
36441W        W 8789  11.261   9.833  10.637
36442W        W 8790  27.976   4.791   0.729
36443W        W 8791   3.836  41.011  11.412
36444W        W 8792  12.776  33.919   2.883
36445W        W 8793   5.404  26.564  14.317
36446W        W 8794  41.026  44.409   0.317
36447W        W 8795  34.385   4.236   2.801
36448W        W 8796  30.525  42.914  10.429
36449W        W 8797  36.561  33.618   3.377
36450W        W 8798   4.399  39.829   3.804
36451W        W 8799  13.840   7.760  14.349
36452W        W 8800   2.850  24.616   4.217
36453W        W 8801  29.027  11.133  14.030
36454W        W 8802  40.419  25.997  13.419
36455W        W 8803  26.174  39.323  12.455
36456W        W 8804  38.344  26.486   0.795
36457W        W 8805  11.768  34.973  12.472
36458W        W 8806  12.765  17.792  10.999
36459W        W 8807  37.934  21.702   0.465
36460W        W 8808  27.454  11.643   0.355
36461W        W 8809  35.977  15.778  14.417
36462W        W 8810  26.485  42.391  11.523
36463W        W 8811  12.791  34.006  14.937
36464W        W 8812  35.479  20.154  13.909
36465W        W 8813   8.163  33.481   5.610
36466W        W 8814  15.747   4.907  11.546
36467W        W 8815  36.913  21.216   3.191
36468W        W 8816   9.725  33.962  13.496
36469W        W 8817  28.502   0.326  10.578
36470W        W 8818  18.262   1.271   2.279
36471W        W 8819   8.274  10.844   4.129
36472W        W 8820  25.498  31.511   4.143
36473W        W 8821  40.798  33.943  10.613
36474W        W 8822  31.412  18.134  14.983
36475W        W 8823   1.764  22.121   2.858
36476W        W 8824   1.769  20.754  13.339
36477W        W 8825  27.089  24.036   3.272
36478W        W 8826  26.582  37.054  14.768
36479W        W 8827  44.499  39.558  13.904
36480W        W 8828  10.651  24.225   4.163
36481W        W 8829  17.802  21.259   2.316
36482W        W 8830   3.791  31.598   2.849
36483W        W 8831   2.468  15.591   3.294
36484W        W 8832   1.413  10.711  11.400
36485W        W 8833  32.542  34.472   3.837
36486W        W 8834  16.246  32.494  10.931
36487W        W 8835   4.806  20.053   3.259
36488W        W 8836   3.936   1.418  11.927
36489W        W 8837  41.933  19.685  10.541
36490W        W 8838  24.617  40.402  13.022
36491W        W 8839  19.673   1.878   3.380
36492W        W 8840   5.265   2.243   2.395
36493W        W 8841   9.370  21.513  12.845
36494W        W 8842  19.689  37.925  12.010
36495W        W 8843  37.402  32.049  12.074
36496W        W 8844  31.560   0.806   4.288
36497W        W 8845   0.356  26.617   3.684
36498W        W 8846  20.136  18.787  11.037
36499W        W 8847   6.315   3.943  13.035
36500W        W 8848  36.444  16.315   2.200
36501W        W 8849  21.090  19.761  11.399
36502W        W 8850  24.066  34.998   1.293
36503W        W 8851  41.934   4.294   0.838
36504W        W 8852  35.460  30.019  13.884
36505W        W 8853   8.742  18.220   4.272
36506W        W 8854  18.580   6.361   2.744
36507W        W 8855  17.193  42.919   2.341
36508W        W 8856  19.560  12.675  11.974
36509W        W 8857  36.461  25.620   0.427
36510W        W 8858  37.036  42.809   4.630
36511W        W 8859  16.228   7.687   3.281
36512W        W 8860   8.899  33.046   5.752
36513W        W 8861  20.033  16.603   1.852
36514W        W 8862  23.579  16.303  11.442
36515W        W 8863  38.025   4.245  11.115
36516W        W 8864  16.213   3.320  14.000
36517W        W 8865   9.680  44.966   2.819
36518W        W 8866  26.536  12.321   4.281
36519W        W 8867   6.793  36.992   1.323
36520W        W 8868  26.502  40.390   0.791
36521W        W 8869   5.436   5.915  10.438
36522W        W 8870  18.116  13.680  11.379
36523W        W 8871  27.962  12.310  12.559
36524W        W 8872  15.616   5.195   1.232
36525W        W 8873   8.187  15.753   3.643
36526W        W 8874   8.666   4.284  11.587
36527W        W 8875  18.594  42.434   1.410
36528W        W 8876  37.078  28.077  13.443
36529W        W 8877  16.611  43.351   3.793
36530W        W 8878  16.574  35.975  11.070
36531W        W 8879  39.378  12.316  14.356
36532W        W 8880   0.490  44.803  12.376
36533W        W 8881  14.667  25.595   2.185
36534W        W 8882  26.982   2.448  13.974
36535W        W 8883   2.966  27.596  11.552
36536W        W 8884   1.282  35.457  12.911
36537W        W 8885  24.712  30.056  10.529
36538W        W 8886   0.788   3.821  13.051
36539W        W 8887  30.556  28.562  14.966
36540W        W 8888   7.253  37.029   3.266
36541W        W 8889  32.625  34.449  10.918
36542W        W 8890  23.503  29.556  14.843
36543W        W 8891   8.231  44.883   2.852
36544W        W 8892  39.918  12.121   1.702
36545W        W 8893  39.015  20.739   1.235
36546W        W 8894  36.973  34.411   0.900
36547W        W 8895  43.417  32.058  12.884
36548W        W 8896  13.317  43.823   4.805
36549W        W 8897  30.105  23.663   4.205
36550W        W 8898  42.515  11.790   1.706
36551W        W 8899   8.742   6.869   1.784
36552W        W 8900  14.631  24.572  13.322
36553W        W 8901   8.855  12.252   3.811
36554W        W 8902  30.968  25.490   1.719
36555W        W 8903  28.558   3.220  11.496
36556W        W 8904  39.853  12.739   2.775
36557W        W 8905  11.815  15.776  14.417
36558W        W 8906   2.303   3.263   1.321
36559W        W 8907  13.228  38.382  11.989
36560W        W 8908  30.584   1.895   1.390
36561W        W 8909   9.874  12.659  10.572
36562W        W 8910  24.535  24.526   0.348
36563W        W 8911  22.247  37.903  11.385
36564W        W 8912  34.886   4.420  11.506
36565W        W 8913  15.279  24.656   3.291
36566W        W 8914  18.697  26.951   0.395
36567W        W 8915   0.851  41.854   0.879
36568W        W 8916  10.155   2.819   3.665
36569W        W 8917  34.466   6.824  12.853
36570W        W 8918  12.274  41.474  10.508
36571W        W 8919   2.729  24.211  14.811
36572W        W 8920  34.032   5.872  13.508
36573W        W 8921  39.005  12.687  10.008
36574W        W 8922  22.170  14.589   0.475
36575W        W 8923  27.453   1.443   0.368
36576W        W 8924  31.132   8.759  13.936
36577W        W 8925  28.076   5.828   2.334
36578W        W 8926  14.177  31.067  13.963
36579W        W 8927  39.878  22.173  11.490
36580W        W 8928  26.545  35.878   3.859
36581W        W 8929  10.194  17.177   2.806
36582W        W 8930  23.078  29.518   0.361
36583W        W 8931  10.816  28.115   4.631
36584W        W 8932   5.297  19.689  11.985
36585W        W 8933  37.869  13.689   0.433
36586W        W 8934  36.486  34.878   2.390
36587W        W 8935  43.957  14.184   2.709
36588W        W 8936  17.187  25.485   1.254
36589W        W 8937  16.697   4.775  14.817
36590W        W 8938  32.499  35.100  12.513
36591W        W 8939  11.727  12.645  10.640
36592W        W 8940  13.267  13.268   0.336
36593W        W 8941  28.167  39.508  11.878
36594W        W 8942   8.216   2.935  14.502
36595W        W 8943  17.165  28.051   1.393
36596W        W 8944  12.647  39.959  12.342
36597W        W 8945  36.010   3.300  10.574
36598W        W 8946   0.289  37.956  11.104
36599W        W 8947  16.177  28.057   4.263
36600W        W 8948  20.067  12.612   0.765
36601W        W 8949  32.480  43.318   1.852
36602W        W 8950  41.791  33.599  12.346
36603W        W 8951   9.310  28.502   0.768
36604W        W 8952  40.827   9.318  13.489
36605W        W 8953  15.683  26.472   4.715
36606W        W 8954  27.052  30.058   2.852
36607W        W 8955   5.393  10.705  13.851
36608W        W 8956  33.492  10.194   3.249
36609W        W 8957   9.842  26.183   4.783
36610W        W 8958  28.177  34.969   4.263
36611W        W 8959   1.440  22.511  13.360
36612W        W 8960  16.276  32.485   2.713
36613W        W 8961  18.054  38.923   3.244
36614W        W 8962   0.335   0.986   3.823
36615W        W 8963  12.706  27.069  12.491
36616W        W 8964  42.411  27.078  10.641
36617W        W 8965  22.197  20.151  14.362
36618W        W 8966   7.703  33.951  13.318
36619W        W 8967  10.835  33.114   0.808
36620W        W 8968  15.583  12.331  11.055
36621W        W 8969  23.994  41.313   5.208
36622W        W 8970  19.570   6.410  13.823
36623W        W 8971  42.965  19.581  14.490
36624W        W 8972  20.035  41.454  10.471
36625W        W 8973  38.951  19.264  13.343
36626W        W 8974  17.559  26.190  11.000
36627W        W 8975   9.748   0.898  11.401
36628W        W 8976  33.031  15.090   3.771
36629W        W 8977  39.978  27.541  14.785
36630W        W 8978  38.446   7.776  10.956
36631W        W 8979   4.733  34.479   4.598
36632W        W 8980  34.446   1.971  11.119
36633W        W 8981  35.981  36.376  11.455
36634W        W 8982   2.914  27.686   0.365
36635W        W 8983   1.876  14.218  11.935
36636W        W 8984   9.311   9.776  11.417
36637W        W 8985  43.376  25.516  13.035
36638W        W 8986  42.464  27.174   3.788
36639W        W 8987  16.132   8.204   3.794
36640W        W 8988   5.299  12.305   4.136
36641W        W 8989  20.183  29.065  12.552
36642W        W 8990   7.198  26.128  13.954
36643W        W 8991  28.957  32.902   0.757
36644W        W 8992  10.668  21.084   1.280
36645W        W 8993  18.688  15.628  12.537
36646W        W 8994  24.611  11.809   1.894
36647W        W 8995   1.754  25.575   4.644
36648W        W 8996  26.671  26.632  10.979
36649W        W 8997  17.604  20.558   2.334
36650W        W 8998  10.238  21.106   2.301
36651W        W 8999  36.845  10.846  11.878
36652W        W 9000   7.705   7.175  14.792
36653W        W 9001  39.483   9.339  10.434
36654W        W 9002  36.388   1.417  13.040
36655W        W 9003  38.342   8.803  10.429
36656W        W 9004  38.831   5.280   1.221
36657W        W 9005  44.273   8.824  14.281
36658W        W 9006  23.578  27.506  13.353
36659W        W 9007  21.210  12.747   1.704
36660W        W 9008  41.029  11.212   4.210
36661W        W 9009  11.773  13.609  13.324
36662W        W 9010   1.788  11.315  14.770
36663W        W 9011   7.200  32.115   0.779
36664W        W 9012  38.911  33.063   1.761
36665W        W 9013  37.985  15.684  10.060
36666W        W 9014  21.541  30.520  11.556
36667W        W 9015  38.407  24.699   2.241
36668W        W 9016  20.063   3.848  12.091
36669W        W 9017  22.114  15.609   4.311
36670W        W 9018  21.074  16.134   3.691
36671W        W 9019  38.346   1.242   1.273
36672W        W 9020  17.628   5.337   3.274
36673W        W 9021   3.442   7.362   3.320
36674W        W 9022  23.240  11.206   0.839
36675W        W 9023   0.317  28.131   0.948
36676W        W 9024  33.988  15.095  14.960
36677W        W 9025  32.402  28.458  14.812
36678W        W 9026  24.193   9.843   3.669
36679W        W 9027  32.583  42.347   4.834
36680W        W 9028   2.338  28.173  14.280
36681W        W 9029  36.014   1.363  14.913
36682W        W 9030  34.880  12.328  11.563
36683W        W 9031  24.028  33.924  12.858
36684W        W 9032  22.615  23.996   3.785
36685W        W 9033  28.945  19.169   0.257
36686W        W 9034  18.748  22.083   1.381
36687W        W 9035  16.702  34.937   0.821
36688W        W 9036  34.428  21.712   1.301
36689W        W 9037  26.148  26.048  10.521
36690W        W 9038  32.054   6.401  14.800
36691W        W 9039  19.533  30.611  14.366
36692W        W 9040  30.497  43.815  10.419
36693W        W 9041  27.138  23.089  11.114
36694W        W 9042  18.688   2.335  12.833
36695W        W 9043   5.423  30.060  14.767
36696W        W 9044  27.152  25.134   0.438
36697W        W 9045  24.078  25.068   9.982
36698W        W 9046  16.222   6.327  11.993
36699W        W 9047  19.661  11.627   4.324
36700W        W 9048   9.383   8.264  10.523
36701W        W 9049   1.430  41.327   3.301
36702W        W 9050  28.538  17.613   4.790
36703W        W 9051  23.519  19.096  11.542
36704W        W 9052  37.011  25.647   0.828
36705W        W 9053  30.130  41.383   2.317
36706W        W 9054   4.776  40.950  14.865
36707W        W 9055  15.752  25.655   3.345
36708W        W 9056  22.640  26.475  11.099
36709W        W 9057  15.212  42.892  14.435
36710W        W 9058  40.546  40.384  10.587
36711W        W 9059  10.342  17.153  13.491
36712W        W 9060  33.015   8.205   1.906
36713W        W 9061  28.655  22.181   2.414
36714W        W 9062  15.263  10.237   4.719
36715W        W 9063   6.776  17.195  11.462
36716W        W 9064  20.196  12.202   0.831
36717W        W 9065  23.015  42.947   1.756
36718W        W 9066  44.440  40.871   0.914
36719W        W 9067  44.883  41.993  13.006
36720W        W 9068  18.701  11.662  10.452
36721W        W 9069   6.819  21.030  10.542
36722W        W 9070   4.225  31.897  11.441
36723W        W 9071  37.553  36.071  13.343
36724W        W 9072  26.475  39.549   1.917
36725W        W 9073  39.382  43.020  14.884
36726W        W 9074  28.071  43.850   1.781
36727W        W 9075  32.104   6.828  10.128
36728W        W 9076   2.277  29.531   5.281
36729W        W 9077  26.568  44.846  11.407
36730W        W 9078  26.138  26.529  14.803
36731W        W 9079  30.418  34.463  12.901
36732W        W 9080  11.255  10.351   3.677
36733W        W 9081  30.103  28.446  14.462
36734W        W 9082  35.057  24.722  10.625
36735W        W 9083  18.564   7.380   4.183
36736W        W 9084  30.984  36.489   9.490
36737W        W 9085   5.309  17.620  11.123
36738W        W 9086  33.914  21.636   1.290
36739W        W 9087  38.999   4.277  12.384
36740W        W 9088  15.284  35.027  13.890
36741W        W 9089  23.122  39.480  11.378
36742W        W 9090  32.439  31.514   2.235
36743W        W 9091  37.935  23.548   1.269
36744W        W 9092  12.215   2.801  11.480
36745W        W 9093  35.944  24.049  13.046
36746W        W 9094  31.417  21.574  11.590
36747W        W 9095  25.554  37.497  14.880
36748W        W 9096  29.041  26.583   0.455
36749W        W 9097  36.487   0.767   2.202
36750W        W 9098  39.859   3.911  13.055
36751W        W 9099   4.373  15.793  13.927
36752W        W 9100  43.341  32.092  14.395
36753W        W 9101  22.026  18.142   4.685
36754W        W 9102  29.100   9.804   3.661
36755W        W 9103  36.881  37.493  11.996
36756W        W 9104  33.537   3.940   1.441
36757W        W 9105  27.124  32.075  14.023
36758W        W 9106  43.451  21.230   2.867
36759W        W 9107  17.722  33.380  10.436
36760W        W 9108  20.216  35.984   2.811
36761W        W 9109  34.609  37.946  10.620
36762W        W 9110  30.963  41.911   4.751
36763W        W 9111   4.446  20.136  12.565
36764W        W 9112   4.736  44.797  11.882
36765W        W 9113   3.248  36.062  13.538
36766W        W 9114  44.411  20.123   2.684
36767W        W 9115  12.166  33.435  12.569
36768W        W 9116  33.439  36.418  14.948
36769W        W 9117  39.930  44.411   3.729
36770W        W 9118  29.631   2.728   0.288
36771W        W 9119  42.503  43.008   1.768
36772W        W 9120  37.580  36.386   4.294
36773W        W 9121  31.428  11.190  13.360
36774W        W 9122   9.797  44.904  13.960
36775W        W 9123  16.123  33.014   4.254
36776W        W 9124  25.142  12.723  14.353
36777W        W 9125  44.292   0.450   3.252
36778W        W 9126  36.503  30.598  11.531
36779W        W 9127  12.330  19.728  13.052
36780W        W 9128  27.476  23.589  12.452
36781W        W 9129  28.534  24.030   3.686
36782W        W 9130  37.970   3.403  11.051
36783W        W 9131  42.464   6.824   1.443
36784W        W 9132  10.287  29.016   1.741
36785W        W 9133  37.831  21.194   3.817
36786W        W 9134   1.346  30.978   1.305
36787W        W 9135  33.984  16.722  13.051
36788W        W 9136  36.955  17.693   4.825
36789W        W 9137  33.469  10.727   0.782
36790W        W 9138  16.622  22.203   4.627
36791W        W 9139  31.964  30.117  10.988
36792W        W 9140  30.509  24.605  12.501
36793W        W 9141  35.448  43.918  12.418
36794W        W 9142   1.315   3.924   1.739
36795W        W 9143  11.631  17.103  13.404
36796W        W 9144  10.333  24.622   4.624
36797W        W 9145  34.003  36.435   4.636
36798W        W 9146  26.203  30.559   3.195
36799W        W 9147   6.909  26.684  14.918
36800W        W 9148  43.853   7.819  12.039
36801W        W 9149  10.360  34.894  11.891
36802W        W 9150  43.917  29.065  10.455
36803W        W 9151   1.957  19.578  11.558
36804W        W 9152  26.509  35.943  11.051
36805W        W 9153  16.588  21.552  14.422
36806W        W 9154  37.450  33.387   1.805
36807W        W 9155  37.073  19.101   2.218
36808W        W 9156   6.740  26.657   3.692
36809W        W 9157  23.190  26.207   1.879
36810W        W 9158  39.003  35.955  12.082
36811W        W 9159  39.468  28.654  13.447
36812W        W 9160  37.027  37.067  12.069
36813W        W 9161  10.179  23.524  10.077
36814W        W 9162   6.733  19.697  13.389
36815W        W 9163  12.361  27.121   1.854
36816W        W 9164  32.473  15.243   3.322
36817W        W 9165   3.786  42.470  12.544
36818W        W 9166  24.498   6.383   3.711
36819W        W 9167  31.126  17.603   2.330
36820W        W 9168  43.428   8.227   2.364
36821W        W 9169  27.152  42.460  14.317
36822W        W 9170  44.502  12.197   3.319
36823W        W 9171   7.312   2.303  10.426
36824W        W 9172   6.199  28.012   4.652
36825W        W 9173  17.623  34.049  10.919
36826W        W 9174  17.617  38.055   3.677
36827W        W 9175   1.763  14.621   4.335
36828W        W 9176  38.823   8.401  14.349
36829W        W 9177  13.213  22.694  10.457
36830W        W 9178  22.525  32.601  12.547
36831W        W 9179  41.538  36.571   1.792
36832W        W 9180  29.997  16.810  14.863
36833W        W 9181  36.375  24.532   3.176
36834W        W 9182  42.390   5.911   2.352
36835W        W 9183  26.009   8.329   1.436
36836W        W 9184  21.553  27.186  12.834
36837W        W 9185   3.837  42.947   3.854
36838W        W 9186  17.642   5.893  12.427
36839W        W 9187  35.858  21.248   3.286
36840W        W 9188   2.367  11.853   4.772
36841W        W 9189  21.087   5.858  12.566
36842W        W 9190  16.592   0.322  14.969
36843W        W 9191  10.353   5.802  13.331
36844W        W 9192  22.999   2.303  14.958
36845W        W 9193  17.778  32.622   0.910
36846W        W 9194  15.715  36.069  11.611
36847W        W 9195  26.029   5.253  11.070
36848W        W 9196  23.655  30.063   3.252
36849W        W 9197  44.359  32.501   0.812
36850W        W 9198  22.582  20.222   1.389
36851W        W 9199   4.375  29.013   0.876
36852W        W 9200  20.753   7.222   2.895
36853W        W 9201  16.165  41.384  13.494
36854W        W 9202  29.556  17.075   3.744
36855W        W 9203  33.050  36.446  11.467
36856W        W 9204  32.951  32.996  14.341
36857W        W 9205  35.519  26.534  11.005
36858W        W 9206  16.198  33.908   3.331
36859W        W 9207  17.746  23.490   4.263
36860W        W 9208   9.154   0.312  13.916
36861W        W 9209   7.353  39.867  12.002
36862W        W 9210  20.667  43.853   4.127
36863W        W 9211  17.561   3.835   1.929
36864W        W 9212  24.602  27.583   3.766
36865W        W 9213   3.250  31.907  11.473
36866W        W 9214  18.784  13.189  12.976
36867W        W 9215  35.602  40.921  14.862
36868W        W 9216  36.869   8.674  10.590
36869W        W 9217  12.180  17.730  11.380
36870W        W 9218  38.945  17.618   4.314
36871W        W 9219  36.567  24.041  10.076
36872W        W 9220  18.185  26.493  11.480
36873W        W 9221  18.295  19.163  11.425
36874W        W 9222  39.892  34.428  13.875
36875W        W 9223  33.584  21.041   0.781
36876W        W 9224   2.741   5.247  14.420
36877W        W 9225  38.348   4.441   1.327
36878W        W 9226  10.750   8.402  14.855
36879W        W 9227  43.863  12.199  11.602
36880W        W 9228  21.611   4.282   2.403
36881W        W 9229  20.546  27.116  11.548
36882W        W 9230  19.571  33.405  12.845
36883W        W 9231  44.914  18.647  12.487
36884W        W 9232  27.671   2.232   4.199
36885W        W 9233   8.758  27.976   3.379
36886W        W 9234  30.576   0.348   1.337
36887W        W 9235  35.433  25.088   1.304
36888W        W 9236  44.343  41.028   2.338
36889W        W 9237  43.506  44.480   3.732
36890W        W 9238   3.812  37.860  12.368
36891W        W 9239  20.730  32.064   2.744
36892W        W 9240  43.506  40.897   0.360
36893W        W 9241  13.797  42.418  14.003
36894W        W 9242  42.382  26.527   3.857
36895W        W 9243  21.063  41.891  12.893
36896W        W 9244   1.747  35.994  11.013
36897W        W 9245  22.252  33.060  10.913
36898W        W 9246  25.099   3.873   1.274
36899W        W 9247  29.472  40.385   1.926
36900W        W 9248  16.260  23.563  13.532
36901W        W 9249  19.625  16.119  13.362
36902W        W 9250  14.287  37.570  11.488
36903W        W 9251  19.208  33.423   2.363
36904W        W 9252  19.201  32.927  11.424
36905W        W 9253   2.409   8.856   5.094
36906W        W 9254  43.502  11.356   0.472
36907W        W 9255   5.318  42.316   3.792
36908W        W 9256  44.912   7.362   3.789
36909W        W 9257  25.553  19.046   0.843
36910W        W 9258  24.580  26.016  13.363
36911W        W 9259  39.412  12.808  14.933
36912W        W 9260  30.907  15.745  10.514
36913W        W 9261  26.017  34.014   0.790
36914W        W 9262  10.819  14.111  11.500
36915W        W 9263   8.318  26.669   4.817
36916W        W 9264  19.239  37.567  13.508
36917W        W 9265  14.740  39.021   4.811
36918W        W 9266   4.926  37.507  12.995
36919W        W 9267  12.326   8.280  12.967
36920W        W 9268  17.200  20.220   2.735
36921W        W 9269  36.004  43.905  13.853
36922W        W 9270   4.812   3.229   3.803
36923W        W 9271  18.271  35.422   3.295
36924W        W 9272   1.453  12.652  13.365
36925W        W 9273   5.416  16.663   2.263
36926W        W 9274   6.710  15.266   3.361
36927W        W 9275  23.689  31.053   1.799
36928W        W 9276  32.441  23.172  13.505
36929W        W 9277  44.485   9.644   0.883
36930W        W 9278  38.930  27.020  13.014
36931W        W 9279   5.380   3.428   2.406
36932W        W 9280  36.917  21.246  12.496
36933W        W 9281  42.462  12.144  13.939
36934W        W 9282  16.798  32.441   4.240
36935W        W 9283  42.849   0.743  12.348
36936W        W 9284  14.105  17.602  10.463
36937W        W 9285   4.821  17.103   1.710
36938W        W 9286  23.651  36.396   2.840
36939W        W 9287  28.113  10.798  12.938
36940W        W 9288  44.754  32.580  12.894
36941W        W 9289   3.719  13.158  12.419
36942W        W 9290  22.238  22.606   3.870
36943W        W 9291  13.764  36.098   4.336
36944W        W 9292  43.479  39.496  13.358
36945W        W 9293   8.705  12.676  10.971
36946W        W 9294   3.270   5.745  11.884
36947W        W 9295  43.362  24.074  11.409
36948W        W 9296  16.231   4.437   0.781
36949W        W 9297  17.635  30.509   3.721
36950W        W 9298  10.378  18.281   0.958
36951W        W 9299  34.911   5.863  13.993
36952W        W 9300   3.769  21.097   0.788
36953W        W 9301  30.490  16.168   1.386
36954W        W 9302   8.694  12.688   0.314
36955W        W 9303   7.842  12.693   1.933
36956W        W 9304  13.683  13.121  12.921
36957W        W 9305   2.323  32.490  11.857
36958W        W 9306  32.492   4.265   4.627
36959W        W 9307  44.938   5.285   0.335
36960W        W 9308   7.861  36.918  13.370
36961W        W 9309  14.681   7.708   0.261
36962W        W 9310  22.138   2.318  12.483
36963W        W 9311  18.702  23.700   1.740
36964W        W 9312  29.499   1.966  12.915
36965W        W 9313  13.134  15.582  14.832
36966W        W 9314  17.773  41.480   1.896
36967W        W 9315  32.022  44.000   1.361
36968W        W 9316  25.643   3.821   4.170
36969W        W 9317  40.535  26.681   3.758
36970W        W 9318   0.768  28.637  12.362
36971W        W 9319   3.727  16.080   4.330
36972W        W 9320  17.560  25.641  14.864
36973W        W 9321   0.249  15.629  13.893
36974W        W 9322  17.282  23.674  10.530
36975W        W 9323  13.300  34.563   0.908
36976W        W 9324  40.408  37.557  13.452
36977W        W 9325  35.431  27.084  14.490
36978W        W 9326   8.317   3.321  14.822
36979W        W 9327   0.871   4.348  10.636
36980W        W 9328  15.232  35.598   4.135
36981W        W 9329  26.055   7.759  13.960
36982W        W 9330  24.058   7.742   5.304
36983W        W 9331  14.827  23.137   3.675
36984W        W 9332   3.759  35.440  11.551
36985W        W 9333   2.382   5.766   4.223
36986W        W 9334  17.270  25.529  10.623
36987W        W 9335  30.552  15.824   3.718
36988W        W 9336  33.383  12.666  10.996
36989W        W 9337  34.556  29.561  13.479
36990W        W 9338   4.233  44.956  11.974
36991W        W 9339  26.180  22.155  12.012
36992W        W 9340  31.591   9.779   2.407
36993W        W 9341  23.010  16.298  13.804
36994W        W 9342  33.599  36.056  13.996
36995W        W 9343  10.717  21.226   2.259
36996W        W 9344  25.202  32.967   4.720
36997W        W 9345  18.555  28.038  13.311
36998W        W 9346  31.992  26.097  11.120
36999W        W 9347   3.773  27.554   0.753
37000W        W 9348  42.863  13.610   0.794
37001W        W 9349  21.090  25.625  12.005
37002W        W 9350  36.879   6.399   0.752
37003W        W 9351  31.937  34.902   0.743
37004W        W 9352  32.970  20.657  13.945
37005W        W 9353   5.300  44.392  14.857
37006W        W 9354  35.906  41.875   2.818
37007W        W 9355  43.273  31.040   4.241
37008W        W 9356   1.945  25.176  11.436
37009W        W 9357  24.151  22.196   0.877
37010W        W 9358   4.819  10.843   4.736
37011W        W 9359  14.269  15.150  10.901
37012W        W 9360  34.451  24.632   4.242
37013W        W 9361   1.400  35.099  10.912
37014W        W 9362  41.535   0.985  13.472
37015W        W 9363  12.819  15.636  13.015
37016W        W 9364   9.322   4.908  11.577
37017W        W 9365  34.369   4.783   4.133
37018W        W 9366  28.551  16.619  11.103
37019W        W 9367  11.654  40.323  12.949
37020W        W 9368  29.582  32.622   4.622
37021W        W 9369  12.734  27.099  12.824
37022W        W 9370  31.561  21.616   3.233
37023W        W 9371  41.531  35.528   1.243
37024W        W 9372  26.657  21.253  13.042
37025W        W 9373   4.448  11.278   0.312
37026W        W 9374   6.410  35.384  12.971
37027W        W 9375  43.499  22.166   0.460
37028W        W 9376  12.269  33.540  11.888
37029W        W 9377  37.346  37.977   5.156
37030W        W 9378   5.307  39.824   2.336
37031W        W 9379   7.228  37.064   0.347
37032W        W 9380   6.852  29.088   4.292
37033W        W 9381  29.120  20.033  12.447
37034W        W 9382  27.079  40.463   3.852
37035W        W 9383  11.659  39.863  12.934
37036W        W 9384   5.192  28.503   3.748
37037W        W 9385  13.350  27.094   3.196
37038W        W 9386   0.907  27.497   2.410
37039W        W 9387  17.209   4.276   0.403
37040W        W 9388  16.213  38.445   2.679
37041W        W 9389  41.484  30.984  12.351
37042W        W 9390  15.297  20.545  10.895
37043W        W 9391   1.330  13.656  14.403
37044W        W 9392  11.265  15.694   3.698
37045W        W 9393  12.313  41.854  13.935
37046W        W 9394  33.450  21.256  13.979
37047W        W 9395  12.672  25.598  11.568
37048W        W 9396  19.213  23.989   0.818
37049W        W 9397  21.650  36.018   2.840
37050W        W 9398   2.331  16.086   3.237
37051W        W 9399   4.284  31.476  12.426
37052W        W 9400  22.217  32.421  13.829
37053W        W 9401   0.824  21.561   4.788
37054W        W 9402  10.234   6.341   4.683
37055W        W 9403  31.048  17.105  14.842
37056W        W 9404  23.528  39.031  14.000
37057W        W 9405  42.777  43.422   0.839
37058W        W 9406  37.483  37.439   2.855
37059W        W 9407   8.388  41.293   0.898
37060W        W 9408  41.480   2.354  13.817
37061W        W 9409  23.678  29.558   4.174
37062W        W 9410  11.844  36.976   4.133
37063W        W 9411  18.202  44.873  12.840
37064W        W 9412  35.993  14.694   1.822
37065W        W 9413  35.572  25.628   2.805
37066W        W 9414  19.762   8.219  11.412
37067W        W 9415  43.764  40.824   4.688
37068W        W 9416   0.470  28.036  12.517
37069W        W 9417  38.840  21.516  13.458
37070W        W 9418   5.402  37.992   3.276
37071W        W 9419   6.734   1.876  14.788
37072W        W 9420   4.846  28.593  14.854
37073W        W 9421  34.504  26.549  13.798
37074W        W 9422  42.785  42.832   4.311
37075W        W 9423  12.187  36.499  12.483
37076W        W 9424  23.991  27.096  13.929
37077W        W 9425  22.143  39.933  14.868
37078W        W 9426  40.447   5.707  11.559
37079W        W 9427  13.817  11.825  13.886
37080W        W 9428   9.830  10.327   0.761
37081W        W 9429  13.299  44.471   2.834
37082W        W 9430  21.245  40.303  11.500
37083W        W 9431  13.751  41.865  14.963
37084W        W 9432  31.033  18.169  12.579
37085W        W 9433  39.516  39.851   0.861
37086W        W 9434   1.260  32.067  13.832
37087W        W 9435  39.930  38.068  10.448
37088W        W 9436  25.038  26.106   4.736
37089W        W 9437  38.453  37.866  10.472
37090W        W 9438  17.087  42.006   0.407
37091W        W 9439  14.202  43.952  11.865
37092W        W 9440  12.676  27.186   3.786
37093W        W 9441  26.967   5.438  10.523
37094W        W 9442  39.970  42.885   0.837
37095W        W 9443   1.925   3.713  10.997
37096W        W 9444  25.660  36.076  12.851
37097W        W 9445  20.740   5.300  14.488
37098W        W 9446  21.144  38.044   3.809
37099W        W 9447  24.715  19.273   1.406
37100W        W 9448  26.567  30.133  11.910
37101W        W 9449   8.282  34.975  13.851
37102W        W 9450  20.677  24.219  10.610
37103W        W 9451   0.377  24.525   3.253
37104W        W 9452  39.936  30.514   2.224
37105W        W 9453  32.022  10.839  14.427
37106W        W 9454  32.471   2.325   1.754
37107W        W 9455  26.610  10.292  13.974
37108W        W 9456   9.742  27.104  13.530
37109W        W 9457  32.052  31.993  14.852
37110W        W 9458   8.700   6.235  11.490
37111W        W 9459   6.708   8.222   1.887
37112W        W 9460  10.864  26.966  13.473
37113W        W 9461   0.305  41.320  13.491
37114W        W 9462  19.134  13.660  13.004
37115W        W 9463  44.934  12.691   0.964
37116W        W 9464  10.678  41.015   1.828
37117W        W 9465   7.665  18.670   4.194
37118W        W 9466  37.880   3.254  10.148
37119W        W 9467   8.693  40.989  12.027
37120W        W 9468   1.429  34.574   3.765
37121W        W 9469  24.566  22.229  10.565
37122W        W 9470   3.716   8.333  13.064
37123W        W 9471  11.774   7.257   3.303
37124W        W 9472  28.617   0.396  12.953
37125W        W 9473  17.250  18.136  12.501
37126W        W 9474  35.069  40.989  14.338
37127W        W 9475  26.595  35.444  14.984
37128W        W 9476  42.891  29.148   4.665
37129W        W 9477  30.129  13.251   3.196
37130W        W 9478  28.499  23.242   4.769
37131W        W 9479  21.714   7.211   3.182
37132W        W 9480  44.439  38.849   2.367
37133W        W 9481  10.820  18.267  13.836
37134W        W 9482  28.615   6.382  10.528
37135W        W 9483   2.412   1.395   1.305
37136W        W 9484  20.767   2.345   3.700
37137W        W 9485  26.617  18.152  12.061
37138W        W 9486  38.394  13.829  10.537
37139W        W 9487  26.121  31.905  11.896
37140W        W 9488  43.840  23.513   0.917
37141W        W 9489  31.433  19.071  14.816
37142W        W 9490  27.528  29.590  10.947
37143W        W 9491  35.397  30.921   4.749
37144W        W 9492  43.343  36.010  10.485
37145W        W 9493   0.418   4.717  11.866
37146W        W 9494   8.751  40.976   1.803
37147W        W 9495   8.230  14.303   3.308
37148W        W 9496  27.507  28.026   1.777
37149W        W 9497  21.030   3.395  12.540
37150W        W 9498  10.834  18.578   3.637
37151W        W 9499  37.836  24.189   0.912
37152W        W 9500   0.454  29.140   0.447
37153W        W 9501  24.170  14.328   4.240
37154W        W 9502  35.452  20.173  10.431
37155W        W 9503  11.850  11.640  12.511
37156W        W 9504  26.128  14.256  11.419
37157W        W 9505   9.865  14.797  10.599
37158W        W 9506  17.291   0.325  12.443
37159W        W 9507  14.338  26.608  10.507
37160W        W 9508  34.966  22.665   4.738
37161W        W 9509   4.780  38.955  14.018
37162W        W 9510  32.045  27.535  13.048
37163W        W 9511  29.928  10.731   1.301
37164W        W 9512  19.578  12.628  12.379
37165W        W 9513  17.789   1.311   1.383
37166W        W 9514  31.093  28.471  10.549
37167W        W 9515  37.553   7.794  11.431
37168W        W 9516  26.957  22.542   1.917
37169W        W 9517   9.852   6.849   2.271
37170W        W 9518  11.211  19.722   0.428
37171W        W 9519  30.079  13.204   4.681
37172W        W 9520  18.700  39.392   1.418
37173W        W 9521  22.149  32.614   0.769
37174W        W 9522  36.080  13.172   2.762
37175W        W 9523  25.064  31.134  13.496
37176W        W 9524  25.017   8.696   4.174
37177W        W 9525  16.812  44.270   4.713
37178W        W 9526   5.837  29.920   4.645
37179W        W 9527  28.986  44.306   3.855
37180W        W 9528  18.654  33.883   1.396
37181W        W 9529  14.245  40.798   1.312
37182W        W 9530   3.841   0.372  14.372
37183W        W 9531  20.247  40.457   4.199
37184W        W 9532  23.033  19.555  11.884
37185W        W 9533   0.486  14.144   1.277
37186W        W 9534  16.272   8.173   3.269
37187W        W 9535  34.937  10.640   0.457
37188W        W 9536  27.602  14.735   2.409
37189W        W 9537   5.888  32.632   4.292
37190W        W 9538  16.757  28.937  12.900
37191W        W 9539  30.490   1.450   0.373
37192W        W 9540   0.947  29.643  10.420
37193W        W 9541  43.288   2.837  14.301
37194W        W 9542  27.121  26.693   0.377
37195W        W 9543   4.306  32.610  10.484
37196W        W 9544  29.440  41.862   2.686
37197W        W 9545  35.442  33.581   3.207
37198W        W 9546  24.221   2.889   1.699
37199W        W 9547  44.464  38.064   2.324
37200W        W 9548  16.252   9.738  13.484
37201W        W 9549  23.202  20.041  13.023
37202W        W 9550  22.548   6.378   0.253
37203W        W 9551  41.414  39.512   2.376
37204W        W 9552  18.670  43.961   2.857
37205W        W 9553  21.624  14.270   0.407
37206W        W 9554  23.057   3.712  13.995
37207W        W 9555  30.562  22.724  11.996
37208W        W 9556  37.961  15.228   4.689
37209W        W 9557  20.664  32.558  13.443
37210W        W 9558  19.127  28.512   3.368
37211W        W 9559  41.372   4.219  11.604
37212W        W 9560  16.729  21.076  11.448
37213W        W 9561  32.029  28.643   0.439
37214W        W 9562  41.916  42.933   3.722
37215W        W 9563  23.541  38.341  14.834
37216W        W 9564  13.600  22.600  12.958
37217W        W 9565  30.456  10.674  12.844
37218W        W 9566  29.135  25.590   1.898
37219W        W 9567  14.753  31.115  11.057
37220W        W 9568  39.480  12.836  10.491
37221W        W 9569  43.852  32.465  13.956
37222W        W 9570   3.429  17.634  14.006
37223W        W 9571  10.354  30.008  12.386
37224W        W 9572  25.689   9.351   0.812
37225W        W 9573   5.735  33.889  12.518
37226W        W 9574  20.198  39.445   2.328
37227W        W 9575  21.539  41.032  10.449
37228W        W 9576  20.183  42.482  10.915
37229W        W 9577  22.217  30.074  13.354
37230W        W 9578  12.257  42.490  10.963
37231W        W 9579  25.501   2.302  14.368
37232W        W 9580  42.908  10.317  14.826
37233W        W 9581   7.341  37.478   3.349
37234W        W 9582   2.454  40.342   0.470
37235W        W 9583  33.403  23.532   2.847
37236W        W 9584   2.467  35.408   3.779
37237W        W 9585  15.305  34.079   3.215
37238W        W 9586  44.389  28.157  14.761
37239W        W 9587  11.832  31.648  11.408
37240W        W 9588  12.124   2.243  10.456
37241W        W 9589  17.657  17.176   4.797
37242W        W 9590  39.447  25.034   2.277
37243W        W 9591  11.139  42.369  10.563
37244W        W 9592   4.874   6.808  14.991
37245W        W 9593  17.240   8.165   1.222
37246W        W 9594  38.964  35.025   0.372
37247W        W 9595  21.242   0.751   0.449
37248W        W 9596   6.868  37.983   4.269
37249W        W 9597   7.348  42.353   0.343
37250W        W 9598   9.777   7.268  10.540
37251W        W 9599   8.712  19.087  11.437
37252W        W 9600   1.788  36.884   3.654
37253W        W 9601  26.559  39.058   4.702
37254W        W 9602   1.353  24.501  12.826
37255W        W 9603  25.713  18.640   0.860
37256W        W 9604  16.693  26.144   4.685
37257W        W 9605  37.033  29.122  13.413
37258W        W 9606   5.258  44.369  12.032
37259W        W 9607  27.489  40.809  11.450
37260W        W 9608   6.183  22.252  10.485
37261W        W 9609   7.873  41.817   2.197
37262W        W 9610  23.229  12.655  13.511
37263W        W 9611   0.943  33.905  10.961
37264W        W 9612   4.811  41.467   4.608
37265W        W 9613  34.488  11.742  14.789
37266W        W 9614  34.024  34.996   0.359
37267W        W 9615  42.880  33.411   2.670
37268W        W 9616  34.548   3.770   1.886
37269W        W 9617  33.892  22.141  12.364
37270W        W 9618  35.442   0.335   2.778
37271W        W 9619  19.173  30.562  10.490
37272W        W 9620  18.173  28.982   9.935
37273W        W 9621  40.460   8.855   2.845
37274W        W 9622  29.970  20.685  12.958
37275W        W 9623  37.071  44.394   3.222
37276W        W 9624  42.502   6.844   0.340
37277W        W 9625  28.462   9.197  12.976
37278W        W 9626  42.426  42.843  13.027
37279W        W 9627   4.847   0.968  12.392
37280W        W 9628  10.763   3.896  10.081
37281W        W 9629  20.729  20.674  14.782
37282W        W 9630  32.894  16.596  13.387
37283W        W 9631  33.540  15.319   1.900
37284W        W 9632  16.670   2.261  10.469
37285W        W 9633  39.921  18.585  11.983
37286W        W 9634  43.329   0.901  10.429
37287W        W 9635  20.665   1.781   4.311
37288W        W 9636   4.305  13.109   3.348
37289W        W 9637   4.388  22.559  13.968
37290W        W 9638  23.567  13.765  14.831
37291W        W 9639  22.550   2.407   2.831
37292W        W 9640  20.549  12.822  11.953
37293W        W 9641  32.471  34.384  12.462
37294W        W 9642  11.133  44.282  11.942
37295W        W 9643  30.062  42.851  12.084
37296W        W 9644  13.773   0.966  12.352
37297W        W 9645  25.657   2.229  13.372
37298W        W 9646  25.196  35.008   0.866
37299W        W 9647  43.312   3.392  11.891
37300W        W 9648  36.893  30.093  14.777
37301W        W 9649  12.349  24.504  13.863
37302W        W 9650   6.896  28.968   4.670
37303W        W 9651  17.299   8.877  11.465
37304W        W 9652  27.530  12.674   3.316
37305W        W 9653  15.584  42.029   0.735
37306W        W 9654  43.404   3.933  12.039
37307W        W 9655  41.803   2.846   2.893
37308W        W 9656   7.376  43.937   1.697
37309W        W 9657  16.629  34.398  11.979
37310W        W 9658  14.666  44.351  11.897
37311W        W 9659  38.987   5.703  12.940
37312W        W 9660  29.148  12.352   1.288
37313W        W 9661  35.520  16.285  13.308
37314W        W 9662   5.859  39.812  11.881
37315W        W 9663  24.019  30.460  14.512
37316W        W 9664  35.495   4.448  13.840
37317W        W 9665  43.809   8.254  11.026
37318W        W 9666  25.538  33.396  12.506
37319W        W 9667  32.401  20.102  11.477
37320W        W 9668  33.088  43.930   4.637
37321W        W 9669   3.439   0.278  12.529
37322W        W 9670  33.513  22.042  11.892
37323W        W 9671  43.952  35.542   1.855
37324W        W 9672  23.054  31.575   1.285
37325W        W 9673  18.557  13.762  11.589
37326W        W 9674  43.870  15.677   3.153
37327W        W 9675   6.265  14.789  10.540
37328W        W 9676  17.699  35.595  13.402
37329W        W 9677  20.667  42.946   3.853
37330W        W 9678   0.360  20.053   1.832
37331W        W 9679  13.635  12.671  14.921
37332W        W 9680  17.075  32.084  12.969
37333W        W 9681  12.129  16.794  10.507
37334W        W 9682  40.939   8.294   2.372
37335W        W 9683   9.157   8.190   2.275
37336W        W 9684  32.136   7.868  13.000
37337W        W 9685  12.729  39.056   0.843
37338W        W 9686  11.160  10.746  12.383
37339W        W 9687  14.266  33.999   1.338
37340W        W 9688  30.153  11.712  13.024
37341W        W 9689  31.007  12.316   2.688
37342W        W 9690  28.557  32.040   1.320
37343W        W 9691   9.205  44.444  11.884
37344W        W 9692  38.024  44.770  14.287
37345W        W 9693   2.816   8.368   2.310
37346W        W 9694  34.531  27.052  14.306
37347W        W 9695  26.531  34.883  11.424
37348W        W 9696  23.984   5.328  12.879
37349W        W 9697  26.499  34.027   1.275
37350W        W 9698   2.384  27.665  12.069
37351W        W 9699  35.931  19.592  12.034
37352W        W 9700  25.123  30.104  10.579
37353W        W 9701   5.379   2.800   0.791
37354W        W 9702   7.285  27.150   4.223
37355W        W 9703  18.158   3.384   1.889
37356W        W 9704  15.796  34.054   3.337
37357W        W 9705  42.429  30.556  11.485
37358W        W 9706  39.338   5.199  12.555
37359W        W 9707  19.640   7.186   3.329
37360W        W 9708  13.676  42.008  13.507
37361W        W 9709  39.427   2.270   1.288
37362W        W 9710  12.132  22.609  11.905
37363W        W 9711  34.914   3.280  14.860
37364W        W 9712  30.491  11.195  11.394
37365W        W 9713  28.957  10.365  12.492
37366W        W 9714  14.710  43.290   2.843
37367W        W 9715  13.110  11.736  11.937
37368W        W 9716  13.702  15.666   4.303
37369W        W 9717  44.306  33.600  11.920
37370W        W 9718  32.139  22.088  12.053
37371W        W 9719  13.283  19.692   1.295
37372W        W 9720  41.382  11.838  11.087
37373W        W 9721  19.243  17.305   3.176
37374W        W 9722  14.169  40.868  13.806
37375W        W 9723  29.470  34.475   0.793
37376W        W 9724  22.124  21.712   3.652
37377W        W 9725  13.115   9.176  12.468
37378W        W 9726  30.010   9.226   3.710
37379W        W 9727   6.770  17.623  14.768
37380W        W 9728  29.472  35.908  11.431
37381W        W 9729  27.972  13.811   4.281
37382W        W 9730  33.059  22.079  13.513
37383W        W 9731  33.884  26.649   0.359
37384W        W 9732  21.178  31.986   1.274
37385W        W 9733  12.120  33.379   2.295
37386W        W 9734  31.121   5.854   2.179
37387W        W 9735  27.179  31.471   4.156
37388W        W 9736  19.085   0.789  11.605
37389W        W 9737  18.220   4.882   2.878
37390W        W 9738  40.961  21.261  13.878
37391W        W 9739  33.419   5.823  14.906
37392W        W 9740   5.930   7.693  13.953
37393W        W 9741   1.924  28.642   0.386
37394W        W 9742  38.458  22.574   2.336
37395W        W 9743  19.125  13.190   3.704
37396W        W 9744  17.648  21.523  13.039
37397W        W 9745  12.197  20.240   2.875
37398W        W 9746  20.585  23.593   4.614
37399W        W 9747  33.397  37.354   0.333
37400W        W 9748  35.590  44.863  10.992
37401W        W 9749  29.631  14.598   1.794
37402W        W 9750  18.268  27.988   3.828
37403W        W 9751  27.576  21.615   0.382
37404W        W 9752   2.911  22.678   1.747
37405W        W 9753  43.345  12.346   1.852
37406W        W 9754  24.080   4.930  14.776
37407W        W 9755  31.628   8.845   1.370
37408W        W 9756  43.908  13.726  12.074
37409W        W 9757  20.148  22.604   0.365
37410W        W 9758   6.220  29.647  12.828
37411W        W 9759  27.645  38.906   3.645
37412W        W 9760  29.621  14.801  11.110
37413W        W 9761   3.913  34.505  12.524
37414W        W 9762   9.175  22.078  14.814
37415W        W 9763  42.402  29.144  12.070
37416W        W 9764   6.704  29.635  11.481
37417W        W 9765   7.854  15.183  14.305
37418W        W 9766  24.539  27.034   0.840
37419W        W 9767  28.085  10.357   2.735
37420W        W 9768  12.307  38.557  11.064
37421W        W 9769  34.561  29.495  12.841
37422W        W 9770  11.140  14.218  10.977
37423W        W 9771  22.212   1.306   1.381
37424W        W 9772  40.991  17.710  13.823
37425W        W 9773  18.121  39.868   1.785
37426W        W 9774  12.353  40.519  11.944
37427W        W 9775  16.588   3.300  11.957
37428W        W 9776  32.631   7.770  13.882
37429W        W 9777  44.826   3.300   0.797
37430W        W 9778  33.582  37.026  11.399
37431W        W 9779  41.938   4.921   2.243
37432W        W 9780   8.837   6.356   3.836
37433W        W 9781   8.781  43.438  14.955
37434W        W 9782   0.396   0.884  11.995
37435W        W 9783  43.911  42.963  13.354
37436W        W 9784  13.639  40.396  14.987
37437W        W 9785   8.246  39.415   4.602
37438W        W 9786  24.509  33.565  10.496
37439W        W 9787  19.097  35.375   3.326
37440W        W 9788  14.595  10.324   1.747
37441W        W 9789  28.044   2.963   1.892
37442W        W 9790  39.351   6.324  11.916
37443W        W 9791   6.402   5.242   0.263
37444W        W 9792  29.498  43.834   2.872
37445W        W 9793  15.797  10.205   3.204
37446W        W 9794  39.882   0.251  10.510
37447W        W 9795  33.607  30.993  14.828
37448W        W 9796  20.033  28.980   5.273
37449W        W 9797   0.339  24.505   2.238
37450W        W 9798  17.723  10.273   2.287
37451W        W 9799  38.935  13.705   1.837
37452W        W 9800  21.037   7.891  13.050
37453W        W 9801  43.437  13.159   4.672
37454W        W 9802  38.023  40.333  11.018
37455W        W 9803   4.920   0.302  12.474
37456W        W 9804  33.506   1.784   0.891
37457W        W 9805  12.165  40.309  12.539
37458W        W 9806  39.533  19.260  10.598
37459W        W 9807  31.429  33.488   1.815
37460W        W 9808  23.597  35.380  12.018
37461W        W 9809   9.735  11.127   4.694
37462W        W 9810  37.870   1.847   2.754
37463W        W 9811  38.362   4.437   3.312
37464W        W 9812  16.693  17.709  12.465
37465W        W 9813   5.768  30.028  13.014
37466W        W 9814   4.731  37.926   3.387
37467W        W 9815  30.133   8.786   1.394
37468W        W 9816  19.658   5.340  13.039
37469W        W 9817  12.263  38.007   3.276
37470W        W 9818  30.534  31.075  13.009
37471W        W 9819  23.193  39.554   2.413
37472W        W 9820   6.721  22.565   1.886
37473W        W 9821   0.885  12.655   2.793
37474W        W 9822  33.914   4.283  14.284
37475W        W 9823  40.920  24.575  14.363
37476W        W 9824  44.443  21.036  10.896
37477W        W 9825  28.061  43.284  13.321
37478W        W 9826  17.268  23.494  14.464
37479W        W 9827  43.894   9.315  12.826
37480W        W 9828  24.106  27.686   4.790
37481W        W 9829  41.887   1.906  14.395
37482W        W 9830  21.637   6.386  10.140
37483W        W 9831   9.854  39.005  10.616
37484W        W 9832  32.023  26.651   2.805
37485W        W 9833  43.290  13.636  12.410
37486W        W 9834  43.346  14.646  13.314
37487W        W 9835  40.907  21.571  14.820
37488W        W 9836  21.115   2.273  14.469
37489W        W 9837  35.046  30.131   4.164
37490W        W 9838   4.282  21.515  12.551
37491W        W 9839  40.386  37.938  12.520
37492W        W 9840  17.188  27.109  14.836
37493W        W 9841   3.322  10.186  10.051
37494W        W 9842   7.806  32.636  14.406
37495W        W 9843  36.415  25.124   1.435
37496W        W 9844  10.648  40.388   2.673
37497W        W 9845   0.356  43.783  10.516
37498W        W 9846   9.715  22.029  11.001
37499W        W 9847  11.834  33.579  11.993
37500W        W 9848  12.289  41.991   2.340
37501W        W 9849   8.325  24.662   3.788
37502W        W 9850  35.103   7.196   3.264
37503W        W 9851  40.450  34.507   0.921
37504W        W 9852  15.810   8.186  12.078
37505W        W 9853  29.101  19.194  13.911
37506W        W 9854  25.211  11.649   3.745
37507W        W 9855  36.569  15.655  11.098
37508W        W 9856   8.179  26.509   0.359
37509W        W 9857   2.815  27.990   0.800
37510W        W 9858  21.144  43.835  11.910
37511W        W 9859  25.024   6.709   2.801
37512W        W 9860   2.741  32.034  13.836
37513W        W 9861  10.692  13.283  14.441
37514W        W 9862  40.373  22.054  11.027
37515W        W 9863  31.496  13.693   4.349
37516W        W 9864   9.365  18.617   3.797
37517W        W 9865  24.067  27.996   4.703
37518W        W 9866  21.132   1.458   0.868
37519W        W 9867  14.251  25.025  13.912
37520W        W 9868   9.760  35.062  14.383
37521W        W 9869  30.131  15.599  11.506
37522W        W 9870  24.206  37.545  10.985
37523W        W 9871   7.329  39.362  14.381
37524W        W 9872  16.177  24.597  14.472
37525W        W 9873  15.128  38.517  14.000
37526W        W 9874  27.012  30.029   0.411
37527W        W 9875   7.747  36.031   2.818
37528W        W 9876  33.902  28.020  14.007
37529W        W 9877  20.731  12.673   1.762
37530W        W 9878  26.972  26.609  11.128
37531W        W 9879   4.419   0.457   2.390
37532W        W 9880  18.058   5.725   4.722
37533W        W 9881  16.711  39.348   0.950
37534W        W 9882  24.050   0.765  11.383
37535W        W 9883   9.648   2.414   3.695
37536W        W 9884  36.909   3.776   3.225
37537W        W 9885  26.987  42.865  12.839
37538W        W 9886   7.802   6.200   1.833
37539W        W 9887   0.960  22.523   0.898
37540W        W 9888  18.141  44.379  10.566
37541W        W 9889   0.340  42.452  12.350
37542W        W 9890  20.613  42.798  10.995
37543W        W 9891  39.386  10.792   0.795
37544W        W 9892  36.968  17.161  14.491
37545W        W 9893  32.427  13.331  13.050
37546W        W 9894  44.964  12.849   2.232
37547W        W 9895  11.295   9.279  11.431
37548W        W 9896  32.927  43.965  11.938
37549W        W 9897  26.075  33.608  12.024
37550W        W 9898  34.609  35.946  14.853
37551W        W 9899   5.915   6.887  11.930
37552W        W 9900   9.888  27.532   4.279
37553W        W 9901  37.929   4.806   0.914
37554W        W 9902  35.577  35.960   4.224
37555W        W 9903  33.043  11.279  11.586
37556W        W 9904  32.506   9.155   0.405
37557W        W 9905  12.239  32.527  12.461
37558W        W 9906  39.504  16.226   0.753
37559W        W 9907   2.331  12.291  12.462
37560W        W 9908  14.166  15.160  12.379
37561W        W 9909  33.517  25.173   1.377
37562W        W 9910   1.767  44.898   4.276
37563W        W 9911  12.644  36.517  10.435
37564W        W 9912  19.171  25.096  12.033
37565W        W 9913  37.426  32.496   0.755
37566W        W 9914  27.063  11.241   0.754
37567W        W 9915  33.968  41.959   4.825
37568W        W 9916  42.285   1.345   2.256
37569W        W 9917  38.348  30.543  10.914
37570W        W 9918  25.482  16.734   1.304
37571W        W 9919  23.044   8.739  14.421
37572W        W 9920  31.541   1.427  13.481
37573W        W 9921  21.615  40.533   2.321
37574W        W 9922   2.433  43.814   3.199
37575W        W 9923  41.851   1.400  12.572
37576W        W 9924  28.563  23.549   1.324
37577W        W 9925  16.098  44.852   4.606
37578W        W 9926  43.440  13.690   1.223
37579W        W 9927  34.073  33.103  11.412
37580W        W 9928  31.152  36.027  10.002
37581W        W 9929  24.993  11.807  13.359
37582W        W 9930  20.609  41.506  13.847
37583W        W 9931   9.286  15.240   2.241
37584W        W 9932  17.561  22.059   2.185
37585W        W 9933  21.114  44.755  12.838
37586W        W 9934  13.668  14.310  11.593
37587W        W 9935  40.518  21.179   3.312
37588W        W 9936   3.910   4.807  11.980
37589W        W 9937   3.717  40.044   4.123
37590W        W 9938  42.319  24.611   0.819
37591W        W 9939   0.283  12.636   4.700
37592W        W 9940  43.430  37.991   4.733
37593W        W 9941   9.889  14.296   3.200
37594W        W 9942   0.871  41.864   4.798
37595W        W 9943  26.502   9.160   2.385
37596W        W 9944  41.368  29.644   2.822
37597W        W 9945  23.685  21.055  12.470
37598W        W 9946  42.823  44.371  11.440
37599W        W 9947   0.397  30.565   5.101
37600W        W 9948  33.404  26.589   3.753
37601W        W 9949  25.647  28.608  11.524
37602W        W 9950  31.920  18.754   4.711
37603W        W 9951  40.470   8.731   3.377
37604W        W 9952  33.387  26.122   3.319
37605W        W 9953  18.082  15.769  14.392
37606W        W 9954  36.462   5.714   2.778
37607W        W 9955  26.146  38.069   4.730
37608W        W 9956   1.421  42.781   4.748
37609W        W 9957  30.979  37.576   4.700
37610W        W 9958   3.317   4.271  14.910
37611W        W 9959   1.771  38.549  13.497
37612W        W 9960  33.480  10.838   2.840
37613W        W 9961  14.588  42.999  14.430
37614W        W 9962  43.512   4.240   0.456
37615W        W 9963  37.997  24.158  14.787
37616W        W 9964  41.875  17.232  13.406
37617W        W 9965  11.131  22.037   2.678
37618W        W 9966   3.868  10.734   4.168
37619W        W 9967  19.262  13.263  13.793
37620W        W 9968  17.742  25.201  13.045
37621W        W 9969  30.927  43.438  14.990
37622W        W 9970  37.041  33.932   2.355
37623W        W 9971  36.878   3.342  13.435
37624W        W 9972   9.872  14.704  13.370
37625W        W 9973  24.222   5.862   0.457
37626W        W 9974   0.860  32.925  10.573
37627W        W 9975  22.599   9.158   5.183
37628W        W 9976  14.781  26.130  13.017
37629W        W 9977  37.043  12.804  11.124
37630W        W 9978   0.868   9.230  14.014
37631W        W 9979  29.634   4.794   1.315
37632W        W 9980  43.826  34.926  13.970
37633W        W 9981  42.815  35.034   4.138
37634W        W 9982  27.135  28.528   4.796
37635W        W 9983  37.013  33.966  11.012
37636W        W 9984  28.089   4.278   2.850
37637W        W 9985   6.742  21.082   2.307
37638W        W 9986  37.909  38.045  11.931
37639W        W 9987  11.632  40.486  10.620
37640W        W 9988  22.695  17.672  14.015
37641W        W 9989   7.818  27.075  13.475
37642W        W 9990  38.394  12.217   4.785
37643W        W 9991  27.568  40.001  12.393
37644W        W 9992  29.614  24.084   4.760
37645W        W 9993  44.399  25.967  14.356
37646W        W 9994  20.590  43.447  11.412
37647W        W 9995  19.560  44.909   2.695
37648W        W 9996  33.530   8.303   5.279
37649W        W 9997  37.412  32.462   0.389
37650W        W 9998   3.256  44.406  12.428
37651W        W 9999   1.806  19.575   4.296
37652W        W10000  33.559   9.219  11.108
37653W        W10001  13.142  19.556   2.223
37654W        W10002  18.693  11.267   0.377
37655W        W10003  33.022  38.525   2.249
37656W        W10004  41.043   1.808   0.380
37657W        W10005  18.112   5.738  11.110
37658W        W10006  15.221  33.422   3.746
37659W        W10007  40.821   9.332  14.926
37660W        W10008  26.644  44.317   3.354
37661W        W10009  37.949  38.941   2.811
37662W        W10010  38.557   0.985  14.822
37663W        W10011  20.060  25.487   0.333
37664W        W10012  10.787  18.618  14.395
37665W        W10013  41.040  31.424  14.778
37666W        W10014  17.736   2.953  12.577
37667W        W10015  29.618  29.176   0.959
37668W        W10016  41.831   0.882   3.163
37669W        W10017  41.991  29.127   0.768
37670W        W10018  10.666  34.911   2.226
37671W        W10019  35.945  44.846  10.497
37672W        W10020  43.323  20.767   2.713
37673W        W10021   4.391   0.870  12.097
37674W        W10022   6.269   5.702  13.449
37675W        W10023  17.165   6.694   3.656
37676W        W10024   4.891   5.706   4.624
37677W        W10025  13.173  17.627  13.542
37678W        W10026   7.235  18.288   2.819
37679W        W10027  35.942  10.787   3.287
37680W        W10028  20.741  15.607   1.768
37681W        W10029   8.762  30.947  12.862
37682W        W10030   7.414  20.546   2.252
37683W        W10031  44.860  35.563  13.054
37684W        W10032  34.476  21.691   3.359
37685W        W10033  16.781  40.494   0.409
37686W        W10034  25.621  13.240   0.300
37687W        W10035  13.295  40.408   0.795
37688W        W10036  20.652  20.710   3.334
37689W        W10037  42.984   9.161   3.248
37690W        W10038   7.345   6.878   4.637
37691W        W10039  29.067  15.206   0.471
37692W        W10040  40.877  32.118  12.092
37693W        W10041   6.330  30.486   3.744
37694W        W10042   9.869   3.403  12.875
37695W        W10043  30.427   5.403   3.636
37696W        W10044  33.122  13.743  11.881
37697W        W10045  16.110  44.451  10.079
37698W        W10046  38.434  36.920   0.272
37699W        W10047   8.394   4.265  12.376
37700W        W10048   7.302  21.556  12.541
37701W        W10049   1.329  13.317   1.739
37702W        W10050  12.301  26.507   3.685
37703W        W10051   3.906   6.758  11.061
37704W        W10052  38.015  36.900   0.468
37705W        W10053  24.695  25.494   3.153
37706W        W10054  30.999  13.635   2.794
37707W        W10055  30.519  10.848  10.421
37708W        W10056  33.888  33.560  11.122
37709W        W10057  21.596  11.303  10.997
37710W        W10058  41.855   3.288  12.847
37711W        W10059  21.755  27.555  13.489
37712W        W10060  24.045  23.167   2.253
37713W        W10061  14.241  36.990  12.837
37714W        W10062   5.429  38.855   0.306
37715W        W10063  16.743  39.502   1.762
37716W        W10064  24.221  44.957  13.429
37717W        W10065  38.535  13.793  14.903
37718W        W10066   3.260  29.947  12.375
37719W        W10067  14.756  13.606   9.922
37720W        W10068  35.978  44.817   0.247
37721W        W10069   7.338  40.436  12.941
37722W        W10070  24.057  16.257  11.504
37723W        W10071   5.757  16.292   1.787
37724W        W10072  38.033   8.659   2.291
37725W        W10073  32.116  17.075   3.748
37726W        W10074   7.205   2.728   1.706
37727W        W10075  16.781   5.884  12.579
37728W        W10076  40.859   4.306  14.287
37729W        W10077   9.679   8.749   2.714
37730W        W10078  42.937  21.230  14.480
37731W        W10079  33.092  19.602  14.446
37732W        W10080   8.829  10.833  14.456
37733W        W10081  20.236  19.564  11.966
37734W        W10082  34.596   8.389  13.952
37735W        W10083  17.066  33.455  13.399
37736W        W10084  42.358  21.575  10.451
37737W        W10085  26.190  19.183  13.405
37738W        W10086   6.378   3.878  12.377
37739W        W10087   3.251  21.191   2.730
37740W        W10088  36.516   8.406  11.892
37741W        W10089   8.317  25.683   0.837
37742W        W10090  33.922   1.933  11.497
37743W        W10091  43.869  31.904  13.042
37744W        W10092  16.716   3.303   0.254
37745W        W10093  19.134  17.151   2.318
37746W        W10094  32.912  10.310   0.889
37747W        W10095  39.495   6.242   0.343
37748W        W10096  31.545   0.968  10.604
37749W        W10097   4.321  11.663   0.846
37750W        W10098  13.681  17.784   2.314
37751W        W10099  17.697  19.184  11.445
37752W        W10100   4.329   2.901   0.802
37753W        W10101  10.210  22.184   0.361
37754W        W10102  31.083   0.861   4.138
37755W        W10103  27.141  22.603   2.887
37756W        W10104   7.399  40.819  13.971
37757W        W10105  24.033  27.589  11.050
37758W        W10106  35.935  11.841  10.912
37759W        W10107  33.012   2.278   1.923
37760W        W10108  26.463  34.048   3.383
37761W        W10109  11.753  24.695   1.798
37762W        W10110  25.538  24.625   1.285
37763W        W10111   3.361   6.217  14.411
37764W        W10112   9.720  27.139  10.605
37765W        W10113   2.927  29.158   4.198
37766W        W10114  28.452  29.566   2.881
37767W        W10115  35.383  22.580  11.566
37768W        W10116  22.211  40.335   3.860
37769W        W10117  11.257  41.041   1.232
37770W        W10118  23.133  17.127  11.585
37771W        W10119  34.498  21.133   9.601
37772W        W10120  43.971  43.768   4.140
37773W        W10121  40.320  26.984  12.449
37774W        W10122   6.850  35.427   1.746
37775W        W10123  30.621  24.615  14.296
37776W        W10124   8.694   1.240   1.835
37777W        W10125   9.190  18.665  14.952
37778W        W10126  31.006   6.692   5.157
37779W        W10127  43.503  37.575  14.343
37780W        W10128   5.337  32.103  11.401
37781W        W10129  36.059  28.654  14.811
37782W        W10130   4.268  19.584   2.732
37783W        W10131   4.834  35.457  11.993
37784W        W10132   1.733  12.330  13.515
37785W        W10133  44.284  42.835  10.506
37786W        W10134   3.716  14.767   1.711
37787W        W10135  26.079  11.836  12.350
37788W        W10136  29.623  22.238  13.793
37789W        W10137  22.088  33.959  12.079
37790W        W10138   2.364   2.402   0.951
37791W        W10139  24.614  36.587  11.063
37792W        W10140  26.485  30.437   3.198
37793W        W10141  36.926  17.192  12.350
37794W        W10142  37.887  22.155   4.307
37795W        W10143  32.078  22.219   2.858
37796W        W10144  17.758  44.935   4.114
37797W        W10145  11.220   0.247  11.019
37798W        W10146   5.373  33.024   4.778
37799W        W10147   5.402  43.813   2.753
37800W        W10148  25.513  43.891  14.838
37801W        W10149   7.349  11.202   2.844
37802W        W10150  24.190  33.116  13.869
37803W        W10151   0.316  25.017  13.060
37804W        W10152  35.475  14.306   1.418
37805W        W10153   7.344  32.054  12.076
37806W        W10154  44.295  39.909  14.028
37807W        W10155  32.037  42.464   0.858
37808W        W10156  30.548   8.842  13.956
37809W        W10157  18.205  27.163   2.201
37810W        W10158  26.641  13.794  11.120
37811W        W10159   5.816  13.798  14.431
37812W        W10160  17.560   0.375  13.807
37813W        W10161  35.579  30.589  13.849
37814W        W10162  37.941  41.449  12.825
37815W        W10163  41.896  41.299   3.162
37816W        W10164  30.004  22.621  10.978
37817W        W10165  23.106  26.591   1.360
37818W        W10166  31.499   1.782   4.602
37819W        W10167  12.137  22.090  12.473
37820W        W10168   7.808  28.562   1.913
37821W        W10169  28.991  36.034  11.545
37822W        W10170  44.872  14.618  13.819
37823W        W10171  36.417  17.762   4.161
37824W        W10172  41.976  24.627  11.402
37825W        W10173  39.833  27.138  10.506
37826W        W10174  41.406   3.944  14.428
37827W        W10175  16.705  19.248  11.025
37828W        W10176  39.880   0.486  12.963
37829W        W10177   6.859  15.266   4.146
37830W        W10178  14.106  28.053  11.871
37831W        W10179  38.902  37.071   1.247
37832W        W10180  44.921  30.511  11.581
37833W        W10181  12.623   8.234  14.456
37834W        W10182   8.308   3.320  11.390
37835W        W10183   6.898  26.957   3.841
37836W        W10184  20.682  31.528  13.510
37837W        W10185   9.737  39.344  10.961
37838W        W10186  12.779   8.237   2.243
37839W        W10187  43.985  18.654   4.169
37840W        W10188  17.637  27.570   2.728
37841W        W10189  42.956   8.203   2.299
37842W        W10190   9.670   1.777  13.063
37843W        W10191  18.235  36.549   4.658
37844W        W10192   6.325   3.919  10.602
37845W        W10193  41.042   2.379   3.305
37846W        W10194  18.561  10.657  10.408
37847W        W10195  32.077   7.393   5.174
37848W        W10196   9.772  43.501   1.374
37849W        W10197  32.439  40.954   3.821
37850W        W10198  15.133   2.847  12.941
37851W        W10199  28.581  29.124   4.801
37852W        W10200  38.485   2.400  13.902
37853W        W10201  42.994  31.092  10.929
37854W        W10202  40.518  25.103  12.431
37855W        W10203  15.295   1.798  10.931
37856W        W10204  24.197  24.622   3.190
37857W        W10205   9.251  14.303   2.212
37858W        W10206  21.112  37.082  14.436
37859W        W10207  19.046  36.348  11.519
37860W        W10208  24.162  11.352   4.322
37861W        W10209   8.171  13.635  13.421
37862W        W10210   1.316   7.256  13.527
37863W        W10211  27.945   0.371  13.435
37864W        W10212  14.217  28.530  12.915
37865W        W10213  23.993   7.729   0.905
37866W        W10214  14.765  38.568   2.822
37867W        W10215   1.784  37.998  13.466
37868W        W10216  38.540  35.070   3.237
37869W        W10217  11.295  22.155   1.724
37870W        W10218  40.893  20.528   4.807
37871W        W10219  36.362  43.822  12.430
37872W        W10220   7.231  35.433  14.007
37873W        W10221  27.660   1.734   4.257
37874W        W10222   4.731  33.482  10.629
37875W        W10223   0.416  20.240  14.984
37876W        W10224  34.380  43.973  11.504
37877W        W10225   8.729   1.962  14.412
37878W        W10226  35.910  25.996   0.829
37879W        W10227  15.126  38.482  11.110
37880W        W10228  10.818  28.176  13.426
37881W        W10229  15.599  39.482   0.377
37882W        W10230  28.449  18.215  14.365
37883W        W10231  39.955   0.847   4.272
37884W        W10232  29.043  12.184   1.740
37885W        W10233  28.932  28.974   4.280
37886W        W10234  12.644  16.607  14.911
37887W        W10235   4.891  12.313   3.207
37888W        W10236  23.167  44.473  14.915
37889W        W10237  28.564   5.224   1.350
37890W        W10238   9.697  32.099  14.013
37891W        W10239   6.379   2.248  13.017
37892W        W10240   5.374   0.461  14.927
37893W        W10241   4.314  23.515  12.054
37894W        W10242  25.695  42.930   2.395
37895W        W10243  20.119  28.008  13.476
37896W        W10244  20.220  11.802  13.867
37897W        W10245  25.562  34.575  10.612
37898W        W10246  19.237  15.123   4.713
37899W        W10247  11.688  10.865   4.680
37900W        W10248  22.124  16.308   2.419
37901W        W10249  30.959  15.228   4.692
37902W        W10250  28.103   7.841  13.464
37903W        W10251  27.521  21.151  13.496
37904W        W10252   6.236  17.722   1.828
37905W        W10253  38.944  42.016   2.197
37906W        W10254  32.972   1.391  12.012
37907W        W10255  13.793  38.960  14.014
37908W        W10256  21.021  11.146   1.887
37909W        W10257  20.580  33.504  13.471
37910W        W10258  15.151  22.683   3.630
37911W        W10259  41.919  29.990  14.028
37912W        W10260  11.226  22.545   4.824
37913W        W10261   3.283  27.453  10.892
37914W        W10262  31.480  15.696  10.629
37915W        W10263  42.837  14.199  11.941
37916W        W10264   6.346   4.928  10.411
37917W        W10265  40.809  10.660   2.269
37918W        W10266  31.004  28.071   3.827
37919W        W10267   6.354   9.276   1.272
37920W        W10268  38.534  16.287   0.447
37921W        W10269   4.942  13.284   2.244
37922W        W10270   9.395  44.963  12.900
37923W        W10271  19.264  19.744   2.323
37924W        W10272  23.010   4.814   1.350
37925W        W10273  24.080  27.681  11.421
37926W        W10274  24.143  30.564   5.257
37927W        W10275  22.687  21.186   3.362
37928W        W10276  40.460   2.336   2.844
37929W        W10277  28.040  35.014   0.283
37930W        W10278  34.487  10.848   1.862
37931W        W10279  12.772  24.666  13.511
37932W        W10280  44.772   2.731  14.827
37933W        W10281  17.736  28.666  14.876
37934W        W10282   4.443  11.273   3.773
37935W        W10283  35.972  35.890  10.406
37936W        W10284  11.187  37.991  11.533
37937W        W10285  38.040  28.561  11.380
37938W        W10286   2.396  12.615  10.442
37939W        W10287  24.997  32.918  11.061
37940W        W10288   5.845  12.687  14.910
37941W        W10289  43.482   8.325   3.669
37942W        W10290  35.042  13.772  13.832
37943W        W10291  27.955  16.793   2.897
37944W        W10292  42.986  35.012   4.644
37945W        W10293  12.774   8.163   0.855
37946W        W10294  18.097  12.271  10.887
37947W        W10295  23.082   3.888  11.504
37948W        W10296   8.374  12.682  11.108
37949W        W10297  42.469  39.334   1.746
37950W        W10298  28.100   7.373  12.460
37951W        W10299  25.153  29.987  14.288
37952W        W10300   5.790  21.574   2.216
37953W        W10301  13.191  11.338  14.871
37954W        W10302  16.152  22.724  12.095
37955W        W10303  32.099  33.502  13.528
37956W        W10304  37.502  20.674  10.111
37957W        W10305  20.190  32.405  12.880
37958W        W10306  14.821  30.593  10.039
37959W        W10307  34.526  20.271  12.976
37960W        W10308  19.689  16.744   4.206
37961W        W10309  25.207   7.709   4.352
37962W        W10310  26.106  30.051   4.677
37963W        W10311  18.078   9.788   1.838
37964W        W10312  15.629  25.211   2.418
37965W        W10313  42.780  10.694  12.009
37966W        W10314  21.575   4.226   1.394
37967W        W10315  38.412  41.313   1.308
37968W        W10316  39.859  42.480  13.915
37969W        W10317  40.913  15.782  13.022
37970W        W10318   5.257  25.990   3.673
37971W        W10319  38.870  35.898  11.531
37972W        W10320   9.809  24.087   3.685
37973W        W10321  37.367  35.029   0.425
37974W        W10322   5.769  14.826  14.346
37975W        W10323  18.290  25.623  10.594
37976W        W10324  12.825  17.283   2.236
37977W        W10325  10.373  38.558  10.450
37978W        W10326  18.277   4.323   1.227
37979W        W10327  39.059  40.021   0.414
37980W        W10328  39.909   7.816   0.417
37981W        W10329   6.261  40.462  14.368
37982W        W10330   4.846  39.405  13.448
37983W        W10331  38.390  40.992  14.407
37984W        W10332  15.091  27.476   0.834
37985W        W10333  43.325  36.056  14.801
37986W        W10334   1.824  32.505   0.778
37987W        W10335  41.990  18.184  11.022
37988W        W10336  28.161  32.591   4.340
37989W        W10337  20.675   4.711   2.684
37990W        W10338  34.042  15.124  13.869
37991W        W10339   3.788  33.439  14.293
37992W        W10340  36.003  11.731  12.865
37993W        W10341   1.918  24.014   4.605
37994W        W10342  23.237  17.215  13.885
37995W        W10343   0.798  41.338   0.788
37996W        W10344  33.946  36.894   4.313
37997W        W10345  20.217   4.816   4.223
37998W        W10346  27.195  33.402   4.283
37999W        W10347  23.041  15.207  12.856
38000W        W10348   6.275  35.854  10.997
38001W        W10349  13.708  23.680   4.777
38002W        W10350   5.240  44.981  13.821
38003W        W10351  14.199  33.083  12.505
38004W        W10352  40.505  28.092   3.766
38005W        W10353  14.804  23.733  12.017
38006W        W10354  23.637   1.887  11.039
38007W        W10355  42.002  29.142  11.434
38008W        W10356  41.440   6.348  11.050
38009W        W10357  21.597  18.206   4.229
38010W        W10358  26.964  14.699   2.192
38011W        W10359  24.153  10.751   3.724
38012W        W10360  34.903  37.507  12.374
38013W        W10361  15.121  28.605   1.933
38014W        W10362  22.036  25.978   2.669
38015W        W10363  36.034   8.172   1.780
38016W        W10364  42.459  21.596   2.365
38017W        W10365  21.041   4.797  13.480
38018W        W10366  37.980   6.676  14.877
38019W        W10367   6.251  27.471   3.760
38020W        W10368   1.334  32.069   1.919
38021W        W10369   4.281  43.479  12.490
38022W        W10370  27.616  19.113  12.526
38023W        W10371  10.358   1.780  11.601
38024W        W10372  34.484  16.570   1.908
38025W        W10373  11.266  40.910   1.718
38026W        W10374  43.503  13.145   1.814
38027W        W10375  10.231   7.845  11.573
38028W        W10376   0.974  17.724  11.898
38029W        W10377  34.491  30.007  13.840
38030W        W10378   3.865  36.891   0.802
38031W        W10379  15.223   3.430  13.357
38032W        W10380   8.710  20.685  11.107
38033W        W10381  28.141  38.370   2.869
38034W        W10382  39.887  12.297   2.867
38035W        W10383  16.237  20.769  11.069
38036W        W10384  15.129  37.994   4.226
38037W        W10385  24.123  40.959   2.768
38038W        W10386  31.043  15.591  11.115
38039W        W10387  18.588  38.342   0.771
38040W        W10388  32.463  41.958  12.555
38041W        W10389  29.614  21.143  10.891
38042W        W10390  31.102  23.499   9.961
38043W        W10391  25.511  39.969  11.004
38044W        W10392  37.836   3.426   3.334
38045W        W10393  40.901  31.042   4.230
38046W        W10394  36.097  27.613   3.841
38047W        W10395   3.729  41.911   1.249
38048W        W10396   3.403   8.384   1.875
38049W        W10397  32.447   5.264   5.115
38050W        W10398  12.739   5.708   5.261
38051W        W10399  21.136   6.413  12.935
38052W        W10400  31.897  29.969  11.445
38053W        W10401  43.485  29.055   0.365
38054W        W10402  37.443   8.160   4.260
38055W        W10403  13.148  11.673   4.663
38056W        W10404  34.981  31.061   3.284
38057W        W10405  19.562  43.858  13.400
38058W        W10406  37.910  22.594  14.783
38059W        W10407  28.534  24.005  11.426
38060W        W10408  33.907  20.149  11.916
38061W        W10409  34.108   3.719  14.942
38062W        W10410  23.079  26.958  11.473
38063W        W10411  24.550  32.116   0.957
38064W        W10412   4.923  22.204   5.256
38065W        W10413  30.021  44.885   0.401
38066W        W10414  24.046  17.242   1.367
38067W        W10415  27.526   8.890   4.604
38068W        W10416  24.219  11.332  12.440
38069W        W10417  41.294  34.454   4.153
38070W        W10418  24.114  23.558   3.166
38071W        W10419  32.095   3.852  11.383
38072W        W10420  31.901  28.993   4.680
38073W        W10421  34.471  30.527   1.885
38074W        W10422  13.233  19.051  12.458
38075W        W10423   0.742  11.353  13.840
38076W        W10424  20.747  30.072  14.471
38077W        W10425  32.029  38.340   2.377
38078W        W10426   2.955   3.899   4.720
38079W        W10427  14.781   6.796   2.411
38080W        W10428  24.692  16.689  12.852
38081W        W10429  24.656   2.414   3.351
38082W        W10430  10.145  42.288  13.353
38083W        W10431   5.380  24.591   3.869
38084W        W10432  28.931  14.653  10.986
38085W        W10433  15.285   2.787  14.424
38086W        W10434  27.669   1.352  11.867
38087W        W10435  18.707  37.022  13.330
38088W        W10436  14.687  13.154   4.792
38089W        W10437  11.331  30.492  13.043
38090W        W10438   7.845  26.199  14.931
38091W        W10439  39.998   9.665   1.883
38092W        W10440  39.509  31.606   2.886
38093W        W10441  23.696  19.730   5.232
38094W        W10442  44.956  38.834  14.903
38095W        W10443  22.202   3.926  14.829
38096W        W10444  27.170  42.466  10.518
38097W        W10445  14.110  35.399   3.795
38098W        W10446  26.118  22.184   3.636
38099W        W10447   6.743  33.100   4.733
38100W        W10448  29.931   3.738  14.983
38101W        W10449  20.703  11.298   4.802
38102W        W10450   5.291  20.706  11.973
38103W        W10451  42.869  16.719  12.824
38104W        W10452  34.517  38.552   0.326
38105W        W10453  39.004   7.812   1.918
38106W        W10454  42.804  13.123   4.351
38107W        W10455   8.357   6.262  10.965
38108W        W10456  25.501  37.376  10.501
38109W        W10457   0.413   2.770   1.722
38110W        W10458  36.050   4.915  14.441
38111W        W10459  24.050  43.821   1.701
38112W        W10460  11.776  30.134  14.326
38113W        W10461  19.241  41.971  13.379
38114W        W10462   2.808   2.852   3.382
38115W        W10463   4.335  18.685  13.795
38116W        W10464  37.905  41.445   1.443
38117W        W10465  22.072  34.048   4.815
38118W        W10466  11.845  34.032  13.524
38119W        W10467   3.297  12.195   2.855
38120W        W10468  31.918  12.644   0.872
38121W        W10469  34.991   8.273  11.421
38122W        W10470  10.160  44.803   2.831
38123W        W10471  16.315  17.130   3.159
38124W        W10472  15.306   4.790  12.446
38125W        W10473   6.326  37.560   3.314
38126W        W10474   3.279  27.621   4.254
38127W        W10475  33.962  26.489  14.435
38128W        W10476  12.824  32.558  13.870
38129W        W10477  13.239  25.078  12.005
38130W        W10478  16.167  36.507  14.820
38131W        W10479  14.336  28.551   4.811
38132W        W10480  15.708  19.731  14.831
38133W        W10481   4.388  35.439  13.013
38134W        W10482  26.036   7.286  10.514
38135W        W10483  43.793   8.345   3.735
38136W        W10484  12.266  27.565   4.171
38137W        W10485   2.798  34.912   2.826
38138W        W10486  20.158  27.509   1.310
38139W        W10487   3.364  31.956  12.946
38140W        W10488  19.739  37.881  14.941
38141W        W10489  44.496   0.849   2.291
38142W        W10490  34.486  25.126  11.119
38143W        W10491  11.798  16.574   2.818
38144W        W10492  11.373  26.127   2.222
38145W        W10493  41.369  30.952   2.890
38146W        W10494  24.102   3.362   3.198
38147W        W10495  21.615  11.257  14.353
38148W        W10496  22.721  34.013   0.809
38149W        W10497   8.770  28.125  11.586
38150W        W10498  38.481  23.195  14.447
38151W        W10499   7.711  29.045  12.937
38152W        W10500   4.827  23.623   0.364
38153W        W10501  28.628  11.195  12.033
38154W        W10502  41.354  27.685   3.820
38155W        W10503  23.168  35.534   0.311
38156W        W10504  13.271  27.067   2.246
38157W        W10505  39.500  32.586   3.668
38158W        W10506  11.255   2.847  11.598
38159W        W10507  12.656  41.452   3.325
38160W        W10508  21.077   8.182  13.951
38161W        W10509   6.879  39.056  12.884
38162W        W10510  35.412  13.833  10.513
38163W        W10511  42.283  37.530  10.439
38164W        W10512  29.098   7.373   4.679
38165W        W10513  38.343  20.198   3.207
38166W        W10514   3.278  28.177   1.905
38167W        W10515  10.840  11.142  14.896
38168W        W10516  10.352  25.530  13.812
38169W        W10517  14.738  13.154   9.941
38170W        W10518   6.223  14.298   0.379
38171W        W10519  26.624   0.405   3.226
38172W        W10520   1.850  29.962   1.239
38173W        W10521  32.997  22.028   0.327
38174W        W10522   0.365  27.672   1.344
38175W        W10523  18.228  28.953  13.935
38176W        W10524  23.187   1.894  10.548
38177W        W10525  23.721  19.264  14.867
38178W        W10526  13.166   5.810   3.265
38179W        W10527  31.489  30.984  12.068
38180W        W10528  43.334  24.531  10.549
38181W        W10529  13.796  41.867   0.379
38182W        W10530  25.622  19.646  13.861
38183W        W10531  44.454  40.511   0.475
38184W        W10532  16.603  22.081   3.753
38185W        W10533   9.709  19.587   4.186
38186W        W10534  29.153  31.445   2.756
38187W        W10535  21.047  33.109  12.871
38188W        W10536   3.768  36.941  13.322
38189W        W10537  18.704   9.276  12.888
38190W        W10538  37.057  21.581  14.862
38191W        W10539  39.934  38.989   1.379
38192W        W10540   2.735  39.493   0.363
38193W        W10541  37.407  27.484   3.640
38194W        W10542  30.554  17.559   2.707
38195W        W10543  21.119  19.070   4.787
38196W        W10544   7.771   0.852   1.352
38197W        W10545  17.692  26.699   0.808
38198W        W10546  19.213  23.128   0.741
38199W        W10547  12.282  38.932  12.463
38200W        W10548  26.521  34.076  11.559
38201W        W10549   3.439  23.711   1.759
38202W        W10550  11.643  21.528  10.945
38203W        W10551  40.869   9.204  13.048
38204W        W10552  24.663  32.072  14.385
38205W        W10553  23.126  10.314   4.642
38206W        W10554  29.065  43.303  13.444
38207W        W10555  33.124  23.195   1.253
38208W        W10556  23.175  12.774  11.485
38209W        W10557  15.159  14.252   2.296
38210W        W10558  17.178  19.552  11.047
38211W        W10559   3.826   8.780   1.322
38212W        W10560  42.801  12.265   0.453
38213W        W10561  10.173  17.243  12.961
38214W        W10562  17.617  36.058   0.469
38215W        W10563  39.368  13.273  12.026
38216W        W10564  44.492  35.600  14.819
38217W        W10565  20.754   8.401  14.792
38218W        W10566  25.670  19.652  13.486
38219W        W10567  37.436  38.990  12.082
38220W        W10568  21.738   8.394   3.264
38221W        W10569  43.477  28.141  13.494
38222W        W10570  18.169  23.646  12.438
38223W        W10571  44.377  10.164  12.354
38224W        W10572  29.515  24.206  11.513
38225W        W10573  43.297  36.995  14.810
38226W        W10574  19.536  37.920   3.336
38227W        W10575  12.620   5.742   1.917
38228W        W10576  14.155  42.491   2.326
38229W        W10577  15.120  10.660  10.639
38230W        W10578  17.109  42.446   0.924
38231W        W10579  20.690  15.702   0.412
38232W        W10580  18.737   4.935  13.516
38233W        W10581   6.716   6.760   4.818
38234W        W10582  19.168  37.984   3.360
38235W        W10583  17.754  25.001   1.392
38236W        W10584  18.707   1.867   4.278
38237W        W10585  21.255   8.193  14.801
38238W        W10586  13.824  23.041  12.366
38239W        W10587  12.321  43.778   3.161
38240W        W10588  37.470   1.903  12.407
38241W        W10589   8.865  44.759  11.611
38242W        W10590   5.860  38.987  12.442
38243W        W10591  14.123   4.766  13.506
38244W        W10592   7.666  44.907  13.815
38245W        W10593  25.002  37.896   4.210
38246W        W10594  35.099   2.227   3.207
38247W        W10595   2.397   7.195   1.740
38248W        W10596  30.476   5.748  12.931
38249W        W10597  33.939   9.363  12.480
38250W        W10598   8.734   7.822   3.384
38251W        W10599  39.830  38.865  10.457
38252W        W10600   4.335  14.690   1.731
38253W        W10601   2.421  20.057  13.537
38254W        W10602   9.848   2.458  13.825
38255W        W10603  15.228  41.315   1.862
38256W        W10604   4.710  22.684  12.440
38257W        W10605   4.888   2.841  13.495
38258W        W10606  37.493   1.261   3.172
38259W        W10607  33.423  31.410   4.320
38260W        W10608  18.614  27.592   4.159
38261W        W10609  30.120  32.937   0.877
38262W        W10610  18.778   0.973   0.454
38263W        W10611  36.366  21.023   4.115
38264W        W10612   0.949  23.115  10.990
38265W        W10613  29.995  30.442   2.856
38266W        W10614  17.181  19.775  12.981
38267W        W10615  31.021   5.230  11.492
38268W        W10616  15.647  40.902  13.459
38269W        W10617  13.829  28.000   2.368
38270W        W10618  33.382  31.494   2.293
38271W        W10619  38.869  35.027   4.218
38272W        W10620  33.906  12.804   4.248
38273W        W10621  23.023  28.131  12.420
38274W        W10622  23.077  22.224  11.063
38275W        W10623  34.896  44.449  10.527
38276W        W10624  32.448  30.425  13.319
38277W        W10625  12.682  12.247   1.814
38278W        W10626  24.479  28.441   2.237
38279W        W10627   8.781   9.267   1.444
38280W        W10628  42.394  13.119   4.780
38281W        W10629  36.879  19.590  13.389
38282W        W10630  33.020  26.087   2.760
38283W        W10631  21.260   9.347   4.776
38284W        W10632  32.110  10.211   0.818
38285W        W10633  16.227  17.739  11.128
38286W        W10634   3.808  29.033  12.494
38287W        W10635   5.764   2.918  14.306
38288W        W10636   5.346  23.509   2.816
38289W        W10637  11.219  21.517   2.810
38290W        W10638  23.153  16.246  11.903
38291W        W10639  12.782  32.891   1.880
38292W        W10640  10.633  27.954  10.988
38293W        W10641   2.259   4.709   3.815
38294W        W10642  13.633  36.874   0.966
38295W        W10643  12.623  42.424   0.289
38296W        W10644  27.965  24.626  14.474
38297W        W10645  23.218  21.222   1.788
38298W        W10646   2.400   8.678  10.574
38299W        W10647  28.501  38.846   3.751
38300W        W10648  14.122  16.140   2.757
38301W        W10649  18.592   7.173   3.822
38302W        W10650  17.206   7.171   2.744
38303W        W10651  20.674   1.975  11.479
38304W        W10652  24.127  10.766  11.941
38305W        W10653  39.000  24.184  11.996
38306W        W10654   4.421  21.704   4.719
38307W        W10655   2.387  23.227  14.764
38308W        W10656   9.294  42.796  13.898
38309W        W10657  17.104  11.185  10.587
38310W        W10658  21.044  41.495  13.354
38311W        W10659  39.019  36.388  12.925
38312W        W10660  25.148  39.551  10.567
38313W        W10661  42.965   2.367   0.857
38314W        W10662  23.003   2.827  14.418
38315W        W10663  43.991  36.374   3.214
38316W        W10664  13.166  11.187   4.339
38317W        W10665  39.399  38.331  13.064
38318W        W10666   1.241  40.929   1.916
38319W        W10667  10.799  34.961   4.756
38320W        W10668  30.957  28.451   4.737
38321W        W10669  20.098  37.010  13.341
38322W        W10670  36.479  14.117  12.442
38323W        W10671  18.109  30.935   0.358
38324W        W10672  23.659  13.341  10.528
38325W        W10673  32.551   4.918  11.904
38326W        W10674   0.406   8.751   1.342
38327W        W10675  14.293   6.410  13.500
38328W        W10676   7.694  29.069   3.149
38329W        W10677   0.354   4.328  10.590
38330W        W10678  18.145  25.680   0.911
38331W        W10679   3.797  10.811   1.916
38332W        W10680   6.266   6.866   2.807
38333W        W10681  12.328  35.854  14.013
38334W        W10682  36.050  28.613  14.302
38335W        W10683  15.737  38.353  13.931
38336W        W10684  20.117  30.002   2.290
38337W        W10685  28.670   1.933   1.876
38338W        W10686  40.490  40.509   2.231
38339W        W10687  43.939   0.399  13.865
38340W        W10688  11.636  22.587  11.930
38341W        W10689   8.306   0.487  12.518
38342W        W10690  20.706  17.117  11.378
38343W        W10691  30.135  43.270   3.818
38344W        W10692  44.872  30.536  13.326
38345W        W10693  13.690  28.008  10.968
38346W        W10694  29.453   7.734   0.941
38347W        W10695  21.691  12.154  12.388
38348W        W10696  44.777  33.394  13.921
38349W        W10697  23.058  33.624  14.415
38350W        W10698  11.776  44.757   0.731
38351W        W10699  26.195  27.107  14.922
38352W        W10700  15.670   2.917  13.037
38353W        W10701  12.255  16.115  13.320
38354W        W10702  23.677  33.428   1.834
38355W        W10703  44.333   7.300   5.189
38356W        W10704  25.996   0.965   1.321
38357W        W10705  26.015   4.915   0.811
38358W        W10706  10.804  20.676  14.879
38359W        W10707  35.380  40.454   0.829
38360W        W10708  25.028  26.689  13.029
38361W        W10709  41.825   0.305   0.320
38362W        W10710  38.441   5.433  13.000
38363W        W10711  36.493  38.856   1.435
38364W        W10712  20.214  19.632  14.840
38365W        W10713  27.951  33.088  11.508
38366W        W10714   1.245  18.183  12.572
38367W        W10715  22.196  18.074  12.856
38368W        W10716  25.556  14.638   2.274
38369W        W10717  11.786  32.575  14.417
38370W        W10718  43.775  15.304   3.268
38371W        W10719   5.838  41.417   1.220
38372W        W10720  41.792  11.290  13.030
38373W        W10721  14.797   7.698  14.445
38374W        W10722  25.701  40.330  14.323
38375W        W10723   0.938   1.430  13.955
38376W        W10724  10.160  27.112  12.483
38377W        W10725   3.283   8.284  13.425
38378W        W10726  39.339  28.166   4.184
38379W        W10727  44.864  28.047  14.885
38380W        W10728  15.183  15.223   3.320
38381W        W10729  15.631   8.768  11.042
38382W        W10730  33.477  15.242   1.220
38383W        W10731   2.253  34.379  13.999
38384W        W10732   9.849  22.589  12.564
38385W        W10733   6.239  42.995   1.351
38386W        W10734  20.697  30.121  12.031
38387W        W10735  30.043  19.049   1.803
38388W        W10736  29.927  17.753   0.744
38389W        W10737  20.537  14.098   5.149
38390W        W10738   3.723  32.483  11.458
38391W        W10739  41.300  16.746  12.462
38392W        W10740  31.592   1.382  11.384
38393W        W10741  14.258  15.202  14.836
38394W        W10742  35.888  25.626   1.846
38395W        W10743  37.892  11.811  12.573
38396W        W10744   2.721  20.095   4.300
38397W        W10745  21.726  22.033   3.673
38398W        W10746   2.321  33.049  12.885
38399W        W10747  11.289  31.119  10.944
38400W        W10748  17.151  29.165  12.400
38401W        W10749  41.832  29.435  13.034
38402W        W10750  14.219  44.290   1.277
38403W        W10751  36.907  30.965  13.972
38404W        W10752  12.146  42.844  14.852
38405W        W10753   6.687  33.875   1.762
38406W        W10754  38.954  44.915   3.261
38407W        W10755   2.388  44.962  11.593
38408W        W10756  39.889  25.145  14.479
38409W        W10757   1.337  12.686   4.248
38410W        W10758  42.942  38.875   4.652
38411W        W10759   1.850  21.139  13.322
38412W        W10760   5.331  31.097  12.077
38413W        W10761  36.519  16.302  10.629
38414W        W10762  43.980  20.054   3.206
38415W        W10763  28.022  32.085   0.378
38416W        W10764  17.297  32.035  10.101
38417W        W10765  24.206  33.896   0.289
38418W        W10766  11.189  27.084   1.870
38419W        W10767   7.866   9.670   1.261
38420W        W10768  40.927  36.084  12.513
38421W        W10769  33.476  31.980   1.220
38422W        W10770  36.583   3.750   0.390
38423W        W10771  23.629   6.911  12.343
38424W        W10772  43.810   5.817  11.043
38425W        W10773   0.409  42.388  14.500
38426W        W10774  39.517   8.795   3.203
38427W        W10775  40.970   5.811  10.962
38428W        W10776  11.648  29.528  10.903
38429W        W10777  22.506  10.202  12.839
38430W        W10778  23.171   1.374   0.825
38431W        W10779  12.198  44.326   0.257
38432W        W10780  12.259  35.446   4.121
38433W        W10781  11.296  12.738   1.829
38434W        W10782  20.766   9.246  11.014
38435W        W10783  24.033   5.782   0.896
38436W        W10784  15.710  33.010  12.887
38437W        W10785  19.089  40.046   4.653
38438W        W10786  36.540  22.228  13.853
38439W        W10787  31.483  12.300  11.044
38440W        W10788  26.188  28.121   4.123
38441W        W10789   7.818  12.319   2.360
38442W        W10790  29.653  37.447   2.221
38443W        W10791  44.786  39.551   3.361
38444W        W10792  41.340  21.038  10.623
38445W        W10793  29.464  38.395  11.091
38446W        W10794  41.453  20.031  10.922
38447W        W10795   9.806  17.226   0.314
38448W        W10796  18.685  10.207   4.821
38449W        W10797   8.393  24.099   4.121
38450W        W10798  39.459  19.614  12.916
38451W        W10799  29.055  35.040   3.243
38452W        W10800  36.541  32.427  14.775
38453W        W10801  26.684  11.810  13.519
38454W        W10802  14.732   8.654  14.896
38455W        W10803  29.625  36.486  13.964
38456W        W10804  36.932  23.701   0.361
38457W        W10805  32.037  43.420   0.441
38458W        W10806   1.337   3.868  13.384
38459W        W10807  21.084  25.666   3.770
38460W        W10808   0.971  32.572   0.936
38461W        W10809  25.608  25.674  13.821
38462W        W10810   2.276   7.811   2.333
38463W        W10811   3.819  42.853  14.840
38464W        W10812   5.697  37.487  14.816
38465W        W10813  19.726  32.095  12.365
38466W        W10814  20.642  12.639   2.264
38467W        W10815  19.166  24.223   4.715
38468W        W10816  36.349  19.652   2.728
38469W        W10817  26.668   2.753   3.199
38470W        W10818   8.318  14.780   2.776
38471W        W10819   6.331  19.058   0.454
38472W        W10820  26.972  25.541   1.889
38473W        W10821   6.677  27.084   1.741
38474W        W10822  38.420  44.296  12.842
38475W        W10823  10.241  32.583   4.123
38476W        W10824  35.023  40.477   2.287
38477W        W10825  30.613  41.344  13.420
38478W        W10826  14.755  39.543  12.969
38479W        W10827  11.330   8.724   1.421
38480W        W10828  33.490  15.177   4.135
38481W        W10829  10.250  39.920   3.230
38482W        W10830   8.369  18.636   3.234
38483W        W10831   8.782  20.764  10.537
38484W        W10832  14.100  44.352  13.504
38485W        W10833  29.960   5.410  14.867
38486W        W10834  34.527  34.504   4.285
38487W        W10835  24.538  29.491  14.337
38488W        W10836  12.280  44.983   4.617
38489W        W10837   7.173   1.780   2.289
38490W        W10838   3.354   2.419  14.429
38491W        W10839   7.228  11.216  14.841
38492W        W10840  32.413  44.341   1.327
38493W        W10841  10.711  44.299   1.774
38494W        W10842  16.760  18.246  12.063
38495W        W10843  20.177   2.459   4.267
38496W        W10844  32.892   8.250   3.685
38497W        W10845  40.932  13.113   3.171
38498W        W10846  31.989  11.287   3.803
38499W        W10847  12.685  18.097  10.415
38500W        W10848  16.194  41.359  11.451
38501W        W10849  31.071  31.550   3.251
38502W        W10850   1.745  34.091   0.244
38503W        W10851  40.477   0.339   2.722
38504W        W10852   0.865  42.519  14.003
38505W        W10853  44.887  30.113  10.612
38506W        W10854  16.167  39.870   4.834
38507W        W10855  11.259  25.982  14.812
38508W        W10856   1.403  15.796   1.750
38509W        W10857  20.530  16.100   3.807
38510W        W10858  19.096  20.627  13.922
38511W        W10859  38.417   0.341   2.324
38512W        W10860  32.938  34.958  10.900
38513W        W10861   4.418  22.123   0.321
38514W        W10862   3.922   0.987   0.865
38515W        W10863   5.818   4.300  12.842
38516W        W10864  32.397   9.684  12.093
38517W        W10865  12.704  42.497  14.281
38518W        W10866  27.001  39.510   2.778
38519W        W10867  21.703  40.461   1.302
38520W        W10868   0.860  27.617   4.283
38521W        W10869  16.120   5.346  10.615
38522W        W10870  11.346  18.066   3.324
38523W        W10871  42.879  43.366  13.972
38524W        W10872  32.408  20.268  14.914
38525W        W10873  30.540  35.405  14.515
38526W        W10874  23.624  21.135  13.442
38527W        W10875  36.513  26.525   0.872
38528W        W10876  37.413  36.918  10.018
38529W        W10877  37.376  14.640   3.761
38530W        W10878  12.353   9.222  10.524
38531W        W10879  41.808  14.180   2.373
38532W        W10880  30.068   1.884  14.019
38533W        W10881   2.739  14.614  14.434
38534W        W10882  16.115  20.670   1.252
38535W        W10883  32.456   3.860  12.843
38536W        W10884  43.896  17.616   2.315
38537W        W10885  40.487   2.935  11.035
38538W        W10886   5.323  13.316   0.475
38539W        W10887  28.621  22.538   1.786
38540W        W10888  12.173  11.314   3.862
38541W        W10889  23.183  16.274  14.954
38542W        W10890  28.179  36.899  14.386
38543W        W10891  16.576   6.303   0.265
38544W        W10892   7.790  27.651  14.433
38545W        W10893   9.861  30.507   4.148
38546W        W10894   4.330  21.040   9.931
38547W        W10895  14.311   7.408  11.405
38548W        W10896  35.530  40.957   1.378
38549W        W10897  35.986  38.966   1.230
38550W        W10898  10.321   8.822  14.459
38551W        W10899  11.678  15.260   1.812
38552W        W10900  25.503  36.568   0.385
38553W        W10901  35.397  30.111   3.308
38554W        W10902  10.267  32.048  14.356
38555W        W10903  34.400  14.184  11.922
38556W        W10904  32.594   6.876  12.843
38557W        W10905  17.159   2.797   4.272
38558W        W10906  16.719  30.056  13.401
38559W        W10907   2.448  23.730  11.877
38560W        W10908  35.445  19.164   3.338
38561W        W10909  31.485  33.387   1.259
38562W        W10910  33.618  19.245  12.443
38563W        W10911   6.223  35.421   2.265
38564W        W10912  10.855   4.934  14.995
38565W        W10913  23.569  34.910  12.879
38566W        W10914  36.876  28.146  13.829
38567W        W10915  41.950   1.411  11.483
38568W        W10916  26.631   4.860   3.317
38569W        W10917  41.910  18.759   2.664
38570W        W10918  14.619  29.019  11.455
38571W        W10919  21.098  11.159  11.920
38572W        W10920   5.280  11.796   4.279
38573W        W10921  34.439   9.247  10.598
38574W        W10922  35.529  17.174   0.944
38575W        W10923   2.858  35.877   1.872
38576W        W10924  29.478  40.457  14.496
38577W        W10925   3.377   7.852  13.868
38578W        W10926   4.312  31.506   2.214
38579W        W10927  44.303   1.338   2.734
38580W        W10928  43.343  19.055  12.983
38581W        W10929   0.742  18.643  10.911
38582W        W10930  22.068  15.109  14.999
38583W        W10931  39.014  13.292   5.153
38584W        W10932  12.174  43.005   4.607
38585W        W10933  10.745   7.803  11.980
38586W        W10934   1.392  12.647  13.916
38587W        W10935  41.349  29.623  14.910
38588W        W10936   0.918  39.462   4.695
38589W        W10937  15.313  21.657   0.395
38590W        W10938  28.011  36.095  12.024
38591W        W10939  42.316  25.599   4.226
38592W        W10940  11.676   8.236   3.209
38593W        W10941  31.614  30.029   1.235
38594W        W10942   6.381  34.017  10.433
38595W        W10943   8.386  40.531  13.959
38596W        W10944  25.174   7.213  10.534
38597W        W10945  43.960   1.376  14.875
38598W        W10946  24.977  33.083   2.416
38599W        W10947  15.228   8.183   2.745
38600W        W10948  31.919   7.385   4.333
38601W        W10949  44.343   5.891   0.962
38602W        W10950   4.838  30.001   1.813
38603W        W10951  29.102  20.196   4.775
38604W        W10952  25.499   2.852   4.314
38605W        W10953   0.330  29.136   0.951
38606W        W10954  43.497   0.357  10.421
38607W        W10955   3.349   2.930   1.873
38608W        W10956  10.788  29.653  14.510
38609W        W10957   2.937  28.935   2.743
38610W        W10958   6.867  41.018   3.274
38611W        W10959   3.769  31.081  13.543
38612W        W10960  21.204  24.222  13.793
38613W        W10961  33.965  38.848  14.807
38614W        W10962  33.108  22.066   1.346
38615W        W10963  12.345  33.506  12.879
38616W        W10964  13.806  42.287   2.267
38617W        W10965  21.146  15.162  10.605
38618W        W10966  42.500  31.089  13.505
38619W        W10967  35.938   6.902   5.727
38620W        W10968  34.109  35.496  12.433
38621W        W10969  12.298   3.909   5.285
38622W        W10970  13.672  13.293  13.363
38623W        W10971  29.008  36.569  13.014
38624W        W10972  33.910  28.966   2.760
38625W        W10973  33.548  23.145   0.935
38626W        W10974   9.674  24.488   3.660
38627W        W10975   3.348  11.793   5.139
38628W        W10976   3.825  40.891   1.852
38629W        W10977  32.000   0.422   2.719
38630W        W10978  30.503  39.361   2.771
38631W        W10979  10.383  14.333  12.538
38632W        W10980  30.925   4.746  14.370
38633W        W10981  37.425  32.492  10.537
38634W        W10982  28.067  19.537   5.187
38635W        W10983  15.168   8.249  13.848
38636W        W10984  35.389  39.016  10.608
38637W        W10985  22.156   0.449   4.312
38638W        W10986   5.774  20.639  13.917
38639W        W10987  33.578   3.262   3.756
38640W        W10988  39.839  22.148  13.975
38641W        W10989  43.002  31.413  13.808
38642W        W10990  14.706  41.447   3.375
38643W        W10991  18.125  35.599  10.496
38644W        W10992  34.557   8.203   2.402
38645W        W10993  42.848  12.704  11.508
38646W        W10994  11.625  19.701   0.420
38647W        W10995  24.708  11.194  14.003
38648W        W10996  37.900   1.973   4.612
38649W        W10997  44.268  23.590  13.346
38650W        W10998   1.951   6.407  12.054
38651W        W10999  21.629   5.215   1.388
38652W        W11000   4.306  19.562   0.899
38653W        W11001   7.336  44.330  10.566
38654W        W11002  34.945  24.623   1.444
38655W        W11003  29.011  41.027   3.713
38656W        W11004  14.322  28.073  13.327
38657W        W11005  31.521  20.100   4.185
38658W        W11006  43.323   8.406   4.653
38659W        W11007  31.446  33.513  11.396
38660W        W11008  24.527   1.298   1.909
38661W        W11009   4.435  23.628  10.470
38662W        W11010  26.679  25.168  14.939
38663W        W11011  35.385  20.606   2.398
38664W        W11012  40.009   6.294  14.504
38665W        W11013  36.970  21.238   1.810
38666W        W11014  35.888  29.604   0.789
38667W        W11015  32.543  34.464  14.783
38668W        W11016  34.875  23.640   3.737
38669W        W11017   0.380  27.946  11.938
38670W        W11018   5.273   7.388  12.845
38671W        W11019  36.086  20.269  11.869
38672W        W11020  37.472  31.463   0.764
38673W        W11021  24.154   3.378  11.959
38674W        W11022  27.089  32.040   5.243
38675W        W11023  41.493  10.707  11.391
38676W        W11024  40.930  15.624  12.031
38677W        W11025   2.296  23.595   2.793
38678W        W11026  18.570   3.751   0.292
38679W        W11027  38.009  34.598  13.470
38680W        W11028  32.085  35.517   4.716
38681W        W11029  23.522   6.331  12.494
38682W        W11030  32.603   9.237   2.790
38683W        W11031  34.957   1.467  13.920
38684W        W11032  25.476  39.349   3.365
38685W        W11033  10.262   6.373   2.271
38686W        W11034  12.245  24.021  14.829
38687W        W11035  30.120  34.422  14.383
38688W        W11036  41.367  21.632  11.419
38689W        W11037   9.381  16.736  13.926
38690W        W11038  42.427  21.224  13.335
38691W        W11039  29.030  42.012  12.551
38692W        W11040  29.633  37.071   4.644
38693W        W11041  34.118  22.196  13.309
38694W        W11042  22.011   4.701   1.404
38695W        W11043  40.920  24.494   3.753
38696W        W11044  25.543  24.674  13.423
38697W        W11045  17.180  37.580  12.570
38698W        W11046  42.932  30.125  11.892
38699W        W11047   9.163  13.836  12.904
38700W        W11048   9.166  20.167  13.374
38701W        W11049  25.977  14.699   0.887
38702W        W11050   9.693  37.019  11.025
38703W        W11051   9.723  31.648  12.349
38704W        W11052   3.843  38.354   1.842
38705W        W11053  24.210  29.037   0.838
38706W        W11054  27.154   0.753   1.297
38707W        W11055  37.850  12.712   0.421
38708W        W11056  41.829  40.935   2.781
38709W        W11057  20.125  13.734   4.310
38710W        W11058   0.891  32.974   1.872
38711W        W11059   1.448  25.031   0.878
38712W        W11060  26.474  37.074  14.355
38713W        W11061  44.983  34.559   1.254
38714W        W11062  26.096  44.503  11.404
38715W        W11063  12.133  11.781  13.804
38716W        W11064  34.487  44.336  12.889
38717W        W11065  38.014  28.967   0.895
38718W        W11066  28.148  34.373  13.909
38719W        W11067  20.164  23.230  13.797
38720W        W11068  43.445  15.141   0.368
38721W        W11069  19.756   6.710   4.760
38722W        W11070  13.839  40.015  13.920
38723W        W11071   9.890  19.669  13.322
38724W        W11072   5.724  43.296   2.192
38725W        W11073  16.745   3.816   2.844
38726W        W11074   0.323   6.252   2.233
38727W        W11075   7.260  29.037  10.602
38728W        W11076  29.980  10.258   3.838
38729W        W11077  27.090   8.230  12.503
38730W        W11078  29.444   4.405   1.837
38731W        W11079  42.423  36.003  12.968
38732W        W11080  13.839  40.954   2.733
38733W        W11081  42.523  36.453   4.683
38734W        W11082   5.323  29.154   4.664
38735W        W11083   6.211   2.781   2.249
38736W        W11084  20.062  41.488  12.508
38737W        W11085  13.688  33.899  10.640
38738W        W11086  34.430  15.667   1.278
38739W        W11087  41.013  38.452  11.599
38740W        W11088   3.913  26.483   0.440
38741W        W11089   1.904   9.664   2.842
38742W        W11090  10.339  16.236  11.107
38743W        W11091  43.906  44.906   1.729
38744W        W11092  35.106   0.383  14.022
38745W        W11093  16.775  38.980   2.718
38746W        W11094   7.742   7.315   1.696
38747W        W11095   0.441  23.017   4.192
38748W        W11096  10.792  12.312   4.811
38749W        W11097  42.972  32.107   0.317
38750W        W11098  24.707   1.794  14.410
38751W        W11099  28.173  16.199   0.255
38752W        W11100   4.403   9.256   3.790
38753W        W11101   4.789  14.635   0.729
38754W        W11102   7.910  23.577   2.180
38755W        W11103  34.447  21.712   0.922
38756W        W11104  31.011  41.459  12.484
38757W        W11105  29.065  19.074   1.705
38758W        W11106  37.900  19.601  12.433
38759W        W11107  44.952  27.600  14.017
38760W        W11108  41.813  12.221  12.360
38761W        W11109  30.109  19.054  13.430
38762W        W11110   7.809  10.319   2.217
38763W        W11111  34.466  44.980   1.251
38764W        W11112   9.360  20.635  12.358
38765W        W11113   6.882  43.796  14.372
38766W        W11114  15.794  27.171   3.849
38767W        W11115  31.959  16.135  12.461
38768W        W11116   8.328   3.290   4.611
38769W        W11117   9.358  30.488  11.522
38770W        W11118   8.213  29.617  10.435
38771W        W11119  16.783  33.567   3.370
38772W        W11120  30.080  39.388  13.898
38773W        W11121  10.139   7.373   0.336
38774W        W11122  31.938  41.843  13.943
38775W        W11123  33.605   3.459  14.406
38776W        W11124  44.764   0.396   4.660
38777W        W11125  13.334  33.476  11.024
38778W        W11126  41.954  17.594   1.255
38779W        W11127  10.265  40.837  11.906
38780W        W11128  27.566  34.931   0.451
38781W        W11129   6.339  34.591  11.880
38782W        W11130   0.331  36.863  10.509
38783W        W11131  36.999   1.423   2.893
38784W        W11132  17.113  25.156   4.752
38785W        W11133  24.615  34.114  13.519
38786W        W11134  36.982  39.395  12.916
38787W        W11135  21.088  19.061   4.177
38788W        W11136   8.856  34.090  11.956
38789W        W11137   9.772  42.405  14.395
38790W        W11138  33.463  17.580  12.367
38791W        W11139   7.355  43.809   4.836
38792W        W11140  19.155  11.293  10.638
38793W        W11141  32.097  33.585   1.231
38794W        W11142  32.630  24.520   4.317
38795W        W11143  12.309  29.490   0.907
38796W        W11144  23.162   5.824   0.459
38797W        W11145   3.736  15.262  14.922
38798W        W11146  26.002  29.137  10.557
38799W        W11147  25.668  35.549   1.906
38800W        W11148  16.681   7.299   4.136
38801W        W11149  12.612  13.815   4.735
38802W        W11150  28.049   7.346  13.523
38803W        W11151   6.792   2.421   4.612
38804W        W11152  21.752  11.799  13.033
38805W        W11153  19.273   1.925   4.317
38806W        W11154  39.493  12.243  10.587
38807W        W11155  40.909   9.670   4.219
38808W        W11156  15.687  25.698  13.498
38809W        W11157  29.143  19.652  11.611
38810W        W11158  22.579   8.667  12.994
38811W        W11159   2.893  43.970  10.529
38812W        W11160  16.620   6.388  12.502
38813W        W11161  42.927  18.076   0.278
38814W        W11162  25.130  30.999  14.787
38815W        W11163  13.640   1.977  12.398
38816W        W11164  12.170   4.385   3.364
38817W        W11165   7.907  21.524  10.598
38818W        W11166  20.236  30.994  14.914
38819W        W11167  29.572  39.353   3.383
38820W        W11168  10.245   1.301   3.322
38821W        W11169  29.128  28.547  12.825
38822W        W11170  30.482   6.343  12.040
38823W        W11171  14.625  12.851  11.584
38824W        W11172   3.859  38.931   3.237
38825W        W11173  26.062  11.727  13.824
38826W        W11174  27.669  42.414  14.373
38827W        W11175  33.405  38.034   0.404
38828W        W11176  13.637  38.565  10.893
38829W        W11177   2.391   5.730   3.200
38830W        W11178  20.713  31.503  11.865
38831W        W11179  15.755  29.508   0.276
38832W        W11180  12.786   6.256  10.903
38833W        W11181  26.556  43.014  11.575
38834W        W11182  28.017  35.375   0.863
38835W        W11183  44.982  30.472  14.425
38836W        W11184  28.151   3.358   0.785
38837W        W11185  33.085   2.408   1.210
38838W        W11186  22.654   9.153  10.494
38839W        W11187  42.477  43.376   4.134
38840W        W11188  13.154  13.172   4.157
38841W        W11189  21.596  44.343   1.891
38842W        W11190  38.970  18.197  10.011
38843W        W11191  32.074  29.923   1.235
38844W        W11192  42.325  27.547  13.974
38845W        W11193  11.227  42.375  14.289
38846W        W11194  15.812  13.116   4.812
38847W        W11195   4.400   8.820  10.987
38848W        W11196  39.967  20.056   4.292
38849W        W11197  24.138  27.966   1.932
38850W        W11198   4.876   4.876   2.865
38851W        W11199  23.171  40.927  12.061
38852W        W11200   2.915  22.159  12.947
38853W        W11201  37.990  37.525  11.461
38854W        W11202   2.349  15.279   2.386
38855W        W11203  33.587   8.871   0.885
38856W        W11204  26.159  11.132  13.511
38857W        W11205  25.034  19.053  12.578
38858W        W11206  28.073  23.073   0.785
38859W        W11207  13.671   5.322   1.932
38860W        W11208  14.785   6.380  13.455
38861W        W11209  20.599   7.217   4.350
38862W        W11210  21.565  34.439   0.289
38863W        W11211  37.559   8.655  10.437
38864W        W11212  42.969  20.125   1.748
38865W        W11213  10.150   9.729   5.251
38866W        W11214  40.425   0.274  10.055
38867W        W11215  24.156  21.539  13.823
38868W        W11216  25.554  20.769  11.938
38869W        W11217  20.081  33.603  13.958
38870W        W11218   1.416   3.941  12.378
38871W        W11219  40.409  31.983  12.576
38872W        W11220   7.672  31.939   3.709
38873W        W11221  32.597  23.520   2.219
38874W        W11222  17.665  27.568  13.792
38875W        W11223  10.365  24.722   0.445
38876W        W11224  27.659   0.985   4.619
38877W        W11225  33.443  14.251  13.996
38878W        W11226  44.855  27.680   0.309
38879W        W11227  28.493  18.063  11.912
38880W        W11228   7.343  44.826   1.920
38881W        W11229  17.624   7.250   3.371
38882W        W11230  25.077  37.905   0.780
38883W        W11231  32.110  18.688   0.743
38884W        W11232  10.344  43.273  11.109
38885W        W11233  17.567   0.411   3.658
38886W        W11234  37.880  37.881   4.153
38887W        W11235  24.200   4.281   1.446
38888W        W11236  26.127  34.885   0.473
38889W        W11237  32.565  41.821   0.258
38890W        W11238   1.412  15.618   3.313
38891W        W11239   2.257  44.302  11.002
38892W        W11240  21.054   3.774  14.930
38893W        W11241  25.137  41.311   0.376
38894W        W11242  32.912  43.276   4.759
38895W        W11243  43.834  16.778  10.896
38896W        W11244  11.140  37.441   4.728
38897W        W11245   8.357   5.408  12.836
38898W        W11246   2.901   0.384  14.856
38899W        W11247  16.137  36.018  12.385
38900W        W11248  28.102  37.986  12.095
38901W        W11249  37.548  29.044  14.320
38902W        W11250  10.789  29.440   1.873
38903W        W11251  32.000  29.160   1.253
38904W        W11252  31.575  40.527   0.840
38905W        W11253  42.432  13.806  13.997
38906W        W11254  25.510  14.603   1.431
38907W        W11255  19.074  30.531  12.091
38908W        W11256   3.253   7.846  11.033
38909W        W11257   7.826  14.216  13.039
38910W        W11258   0.477  37.956   1.768
38911W        W11259  42.526   3.837  12.968
38912W        W11260  20.131  44.763   4.830
38913W        W11261  25.591   1.287  14.357
38914W        W11262  16.592  28.473   0.835
38915W        W11263   4.207   4.243   0.801
38916W        W11264  41.528  34.552   1.835
38917W        W11265  17.118  13.330  13.825
38918W        W11266  29.512   6.739  11.067
38919W        W11267  10.245  29.128  12.069
38920W        W11268  41.937  15.317   4.698
38921W        W11269  35.106  34.880  12.420
38922W        W11270  22.016  18.653  11.033
38923W        W11271  38.560   0.930  13.988
38924W        W11272  42.832  10.185   9.995
38925W        W11273  20.707  12.707   0.779
38926W        W11274  33.919  10.714   1.858
38927W        W11275   3.454  21.670  13.408
38928W        W11276   2.952  10.327  11.947
38929W        W11277  21.091   1.960  13.973
38930W        W11278   2.949  32.508  11.450
38931W        W11279  12.128   5.699  11.429
38932W        W11280  11.331  33.582  12.884
38933W        W11281  38.484  22.123  11.931
38934W        W11282  25.976  34.881  14.983
38935W        W11283  43.903   3.354   1.850
38936W        W11284  11.230  44.440   2.812
38937W        W11285   4.445   8.262  12.559
38938W        W11286  40.540  35.999   1.267
38939W        W11287  19.780  16.189  12.343
38940W        W11288  31.042  30.566   0.954
38941W        W11289  25.046   2.786   1.314
38942W        W11290  42.869   9.315   2.203
38943W        W11291  35.417   3.334  13.940
38944W        W11292  40.033  33.105   0.247
38945W        W11293   4.311  39.473  12.450
38946W        W11294  16.107  21.061   5.092
38947W        W11295   1.391  39.477  13.481
38948W        W11296  34.870  14.826   0.887
38949W        W11297  32.564  36.368  14.392
38950W        W11298  17.726  38.418   0.408
38951W        W11299  41.010  20.183  14.359
38952W        W11300   9.695  41.306   4.761
38953W        W11301  21.102  18.261  12.479
38954W        W11302  19.731  35.541   3.151
38955W        W11303  21.121  39.412   1.354
38956W        W11304  11.181  43.960   3.768
38957W        W11305   4.811  17.162  11.388
38958W        W11306  37.500  22.181   5.089
38959W        W11307  24.095  12.796  11.949
38960W        W11308  29.141  40.497   4.319
38961W        W11309   7.261  11.327  13.462
38962W        W11310   4.858   4.838  14.427
38963W        W11311  17.178  17.073  10.632
38964W        W11312  20.190  40.381  14.958
38965W        W11313  31.514  28.975  14.006
38966W        W11314  15.602  12.811   2.811
38967W        W11315  10.354  10.380   2.399
38968W        W11316  35.593  23.043  14.460
38969W        W11317  43.393   6.731   4.717
38970W        W11318  39.457  38.462  14.816
38971W        W11319  21.513  34.956   0.446
38972W        W11320   1.753  32.981  13.538
38973W        W11321  29.120  36.374   1.226
38974W        W11322   5.330  34.401  11.547
38975W        W11323  35.507  15.799   2.694
38976W        W11324  14.272  16.773   3.813
38977W        W11325   7.784  35.425   3.366
38978W        W11326   6.887  20.030   0.812
38979W        W11327  44.282  13.269  14.876
38980W        W11328   2.370   1.413   4.816
38981W        W11329  34.940   8.781   3.315
38982W        W11330  36.547  31.497   1.384
38983W        W11331  14.323  36.046  10.521
38984W        W11332  27.142  14.223  10.554
38985W        W11333  10.720  12.775  13.438
38986W        W11334  11.763  33.590  14.399
38987W        W11335  25.186   2.896   4.168
38988W        W11336  23.991  27.567  12.493
38989W        W11337  35.565  10.687   3.657
38990W        W11338  20.250  38.373   0.793
38991W        W11339  39.523   1.733   0.282
38992W        W11340  26.132  38.543  14.388
38993W        W11341   5.733  18.200  14.767
38994W        W11342  19.144  24.051   1.338
38995W        W11343  21.216  10.677   3.279
38996W        W11344  39.394  17.620  11.865
38997W        W11345  39.521  28.938   1.297
38998W        W11346  27.630  39.875  14.788
38999W        W11347  17.590   6.226   2.287
39000W        W11348   9.352  30.430  13.501
39001W        W11349  24.664   3.432  10.633
39002W        W11350  34.930  24.170   1.353
39003W        W11351  40.460  40.342  12.853
39004W        W11352  42.849  36.067   2.808
39005W        W11353  30.129  29.621  13.837
39006W        W11354  37.903  36.842  14.918
39007W        W11355   8.318  28.662  11.917
39008W        W11356  17.796   7.907  11.966
39009W        W11357  34.056  23.553   3.349
39010W        W11358   6.911  42.833   0.336
39011W        W11359  15.125  40.829   3.342
39012W        W11360  39.986  38.861  11.972
39013W        W11361   8.895   8.357   0.771
39014W        W11362  16.753   8.828  10.890
39015W        W11363  41.497   3.249  11.882
39016W        W11364   4.762  19.266   3.289
39017W        W11365   1.317  10.700   1.440
39018W        W11366  44.840   0.825   1.386
39019W        W11367   7.324  20.758   1.755
39020W        W11368   0.788  25.539  14.014
39021W        W11369  25.536  29.110   1.398
39022W        W11370  12.249  16.190  14.388
39023W        W11371   5.923  42.291   3.212
39024W        W11372   1.349  20.192  12.871
39025W        W11373  38.936  16.147   2.734
39026W        W11374  17.305  15.763   0.886
39027W        W11375  39.334  37.063  13.385
39028W        W11376  17.106  27.604  13.843
39029W        W11377   4.742  21.250  12.503
39030W        W11378  32.594  26.699   4.291
39031W        W11379  44.313   4.210  13.376
39032W        W11380  13.821   9.800  12.375
39033W        W11381   2.949  34.505   0.826
39034W        W11382  18.277  19.134  12.485
39035W        W11383  42.400  36.973   0.264
39036W        W11384   7.716  38.436   2.211
39037W        W11385  21.249  20.264  13.964
39038W        W11386   1.972  44.417   0.936
39039W        W11387   7.835  44.367  10.461
39040W        W11388  40.419  26.471   3.172
39041W        W11389  38.413  30.136   3.285
39042W        W11390  14.130  44.305  12.072
39043W        W11391  17.749  32.061   0.437
39044W        W11392  14.290   8.257   2.277
39045W        W11393  30.943  28.163   3.298
39046W        W11394  24.212   8.204  14.014
39047W        W11395  18.133  25.661   3.372
39048W        W11396  13.817   1.475  10.479
39049W        W11397  37.957  19.240   2.870
39050W        W11398   8.890   5.796  11.497
39051W        W11399  19.579   2.863  11.037
39052W        W11400  33.400  34.944   5.194
39053W        W11401   9.726  21.525   1.827
39054W        W11402  11.730  42.808   9.978
39055W        W11403   0.750  32.444  11.514
39056W        W11404  35.913  39.966  12.052
39057W        W11405  44.967  34.041  12.416
39058W        W11406  28.580  35.431   0.458
39059W        W11407  26.122  38.407   0.427
39060W        W11408  17.652  26.089  12.954
39061W        W11409   6.919  40.538   2.197
39062W        W11410  22.511  28.506   9.956
39063W        W11411  41.519  37.030   4.702
39064W        W11412   1.252   0.755   4.131
39065W        W11413  11.142  19.640  12.941
39066W        W11414  40.342  19.696   4.143
39067W        W11415  19.104  10.690  13.526
39068W        W11416  36.356  16.608   1.731
39069W        W11417  44.393  26.976  13.832
39070W        W11418  40.471  15.681   4.307
39071W        W11419  23.075   6.764  13.024
39072W        W11420  20.638  13.683   1.274
39073W        W11421  29.964   6.283  10.411
39074W        W11422  41.006  25.119   2.765
39075W        W11423  18.205  33.414   2.263
39076W        W11424   3.834   2.967  11.939
39077W        W11425   8.274  32.891   0.288
39078W        W11426  43.466  24.559  11.968
39079W        W11427  44.997   3.908   4.818
39080W        W11428  24.209   2.931   1.445
39081W        W11429  26.540  31.492   1.303
39082W        W11430   1.306  13.678   3.659
39083W        W11431  37.571  35.011   3.803
39084W        W11432   8.819  28.098   2.292
39085W        W11433   7.711  10.762   0.783
39086W        W11434  25.475  29.094  12.459
39087W        W11435  34.869  21.757  11.910
39088W        W11436  23.705   7.335  13.340
39089W        W11437   8.229  27.578   2.729
39090W        W11438   9.702  17.103   2.372
39091W        W11439  35.437  13.776   0.854
39092W        W11440  29.554  42.458   0.778
39093W        W11441  44.886   3.365  12.470
39094W        W11442  35.020  27.087   3.281
39095W        W11443  40.915   3.454  11.388
39096W        W11444  26.550  14.230   2.736
39097W        W11445  17.701  43.341  12.043
39098W        W11446  24.565  35.096   3.730
39099W        W11447  20.271  38.950  14.964
39100W        W11448  28.114  26.107  13.548
39101W        W11449  13.757   0.987   1.446
39102W        W11450  24.120  16.287   3.818
39103W        W11451  36.082  38.457   1.270
39104W        W11452  35.503  34.420  12.910
39105W        W11453  14.160  36.457  14.970
39106W        W11454  32.976   2.278  10.615
39107W        W11455  36.378  30.658  12.550
39108W        W11456  20.262  19.659  13.464
39109W        W11457  38.405  40.407  11.410
39110W        W11458  10.758  37.499  10.643
39111W        W11459  41.884  10.322   2.272
39112W        W11460   3.718  24.108   0.453
39113W        W11461   9.766  25.094   4.638
39114W        W11462  31.556   2.795   3.146
39115W        W11463   7.742  17.090  11.052
39116W        W11464   2.313  33.388   4.761
39117W        W11465   8.851   1.780   2.300
39118W        W11466  43.012   4.373   3.661
39119W        W11467  24.073   0.893  12.390
39120W        W11468  29.004   3.939  11.882
39121W        W11469   8.679  12.150   1.854
39122W        W11470  23.718  15.761  12.386
39123W        W11471   8.749  28.490   4.238
39124W        W11472  39.330   2.433   0.243
39125W        W11473  28.009  40.400   3.735
39126W        W11474  30.436  32.886  12.843
39127W        W11475  43.492   3.819  14.896
39128W        W11476  19.765  33.031   2.238
39129W        W11477  22.683   2.897  10.600
39130W        W11478   6.421   8.276  10.543
39131W        W11479  36.586  27.113   3.337
39132W        W11480  17.173  39.402   4.324
39133W        W11481  40.009  23.991  12.949
39134W        W11482  35.464   4.798  12.392
39135W        W11483  40.327  25.508  13.454
39136W        W11484  15.282  11.239  14.907
39137W        W11485  44.505  15.281  14.831
39138W        W11486  36.941  28.489   2.769
39139W        W11487  31.970  39.496  11.465
39140W        W11488  43.473  26.183  13.408
39141W        W11489   9.194  33.545  14.437
39142W        W11490  18.645  13.652   1.883
39143W        W11491  23.102   2.399   0.379
39144W        W11492   0.903  35.092   5.149
39145W        W11493  15.771  14.692   5.239
39146W        W11494  10.153  32.633  13.383
39147W        W11495  28.681  13.823   1.448
39148W        W11496  35.990  44.427   0.319
39149W        W11497   4.351  23.640   3.869
39150W        W11498  13.304  24.061   1.729
39151W        W11499   2.952  29.980  11.453
39152W        W11500   6.246  22.609   4.625
39153W        W11501   7.292  29.048   1.429
39154W        W11502   7.771  16.195   4.309
39155W        W11503  36.899  30.010   1.816
39156W        W11504  27.579  27.011   3.690
39157W        W11505  40.376  33.411   0.775
39158W        W11506  34.894  15.258   4.242
39159W        W11507  24.658  28.599  12.438
39160W        W11508  42.945  11.204   1.792
39161W        W11509  10.837  43.877  14.951
39162W        W11510  24.162  38.342   4.313
39163W        W11511  26.542  15.820   4.159
39164W        W11512  35.040  33.948  13.804
39165W        W11513  39.876   9.333  12.482
39166W        W11514   8.273   6.208   3.253
39167W        W11515  19.698  39.460  14.487
39168W        W11516  39.373  10.286   1.790
39169W        W11517  19.598  28.441  11.033
39170W        W11518  37.461   8.400   1.907
39171W        W11519  22.606   2.332  13.995
39172W        W11520  39.319   9.654  11.496
39173W        W11521  24.725   4.766   1.849
39174W        W11522  41.840  17.711  11.864
39175W        W11523  16.587   5.305   4.331
39176W        W11524   6.724  43.283   4.689
39177W        W11525   5.826  19.619  10.411
39178W        W11526  10.314   2.362   4.134
39179W        W11527  13.744  16.786  14.772
39180W        W11528  26.681  25.522  11.011
39181W        W11529  25.036  41.877  12.841
39182W        W11530  22.672  25.058   2.876
39183W        W11531  29.148   3.442   1.753
39184W        W11532  32.979  22.649   1.850
39185W        W11533  36.496  20.567   1.255
39186W        W11534  26.584  25.104  12.495
39187W        W11535  16.690  32.447   4.805
39188W        W11536  13.168   7.881   2.739
39189W        W11537   4.272  23.549   1.712
39190W        W11538  30.568  15.682  14.839
39191W        W11539  12.729  43.275  10.628
39192W        W11540   0.779  16.084  14.824
39193W        W11541  33.560  16.642   1.788
39194W        W11542  28.631  39.842   4.179
39195W        W11543  37.971  32.431  12.974
39196W        W11544  17.596  40.470   3.858
39197W        W11545   4.709  39.814  14.495
39198W        W11546   3.368   9.275  14.796
39199W        W11547  31.029   9.723  12.016
39200W        W11548  31.479  20.049  12.442
39201W        W11549   0.403  20.231  13.477
39202W        W11550  27.096  25.604  11.431
39203W        W11551  28.660  40.378   2.399
39204W        W11552  16.155  12.197  14.365
39205W        W11553  38.022   7.802   0.380
39206W        W11554  22.652  16.774   2.288
39207W        W11555  35.445  34.412   3.230
39208W        W11556  24.017  38.555   2.312
39209W        W11557  38.383  26.691  14.403
39210W        W11558  34.061  24.014  13.889
39211W        W11559  22.615  21.148  13.029
39212W        W11560  10.306  41.936  13.467
39213W        W11561  42.962  40.485  11.486
39214W        W11562  10.789  23.015   4.646
39215W        W11563  44.854  12.658   2.841
39216W        W11564  27.150   6.716   1.803
39217W        W11565  38.455   6.900   3.867
39218W        W11566  33.036  38.904   3.825
39219W        W11567  23.508  32.051  14.835
39220W        W11568  31.995  28.100   2.755
39221W        W11569  12.760  40.021  13.014
39222W        W11570   9.286   3.335   4.172
39223W        W11571  14.826  24.025  11.016
39224W        W11572   0.794  19.585   3.372
39225W        W11573  28.465   5.230   3.375
39226W        W11574  12.851  21.180  12.926
39227W        W11575  29.546  15.822  13.973
39228W        W11576  33.997  28.992   0.455
39229W        W11577  10.214  24.106   0.786
39230W        W11578   0.784   3.429  11.514
39231W        W11579  25.971  12.856   2.893
39232W        W11580   9.660  43.455  14.011
39233W        W11581  40.405  10.877  13.841
39234W        W11582  23.096  33.408   3.680
39235W        W11583  31.477  44.975  10.887
39236W        W11584  31.076  43.407  11.460
39237W        W11585   7.750   3.294  11.065
39238W        W11586  22.041  22.087  10.483
39239W        W11587   3.223  24.722   3.268
39240W        W11588  36.074  38.831  12.449
39241W        W11589   5.278  32.428  12.906
39242W        W11590  41.006   8.778  13.458
39243W        W11591  28.439  17.274   0.936
39244W        W11592   8.794  22.556   3.337
39245W        W11593  43.304   3.363  10.900
39246W        W11594  39.862  25.187   4.154
39247W        W11595  22.717  31.988   4.321
39248W        W11596  41.438  23.094  12.028
39249W        W11597   5.824  37.001  12.554
39250W        W11598  19.169  36.371  10.607
39251W        W11599   6.912  44.335  13.019
39252W        W11600  23.139  36.369  14.315
39253W        W11601  20.238  29.525  13.957
39254W        W11602  27.612  16.701  12.378
39255W        W11603  37.375   8.174   0.379
39256W        W11604  14.119  42.957  10.977
39257W        W11605  24.228   2.943  11.410
39258W        W11606   0.329  31.542   4.221
39259W        W11607  10.849  43.457  14.318
39260W        W11608  35.955  12.823   4.236
39261W        W11609  28.058   8.265   1.863
39262W        W11610   4.262   8.867  13.027
39263W        W11611   6.369   1.915   3.154
39264W        W11612  12.121  10.639   1.705
39265W        W11613  34.039  28.652   3.773
39266W        W11614  14.757  21.234  11.496
39267W        W11615  14.232   7.279   2.889
39268W        W11616  42.375  32.065   4.354
39269W        W11617   0.804  21.736  11.577
39270W        W11618   4.214  25.516   0.825
39271W        W11619   0.746  33.392   4.603
39272W        W11620   3.401  25.674   5.184
39273W        W11621  25.540   8.811   1.771
39274W        W11622  33.922  43.906  12.053
39275W        W11623  44.935  15.821   1.733
39276W        W11624  11.718   1.906  12.044
39277W        W11625  41.450  40.549  11.870
39278W        W11626   6.732   6.917  11.065
39279W        W11627   1.900  43.867  11.514
39280W        W11628  32.937  33.888   9.590
39281W        W11629  30.101   1.941   2.254
39282W        W11630  43.329  13.750  14.841
39283W        W11631   6.318   2.746  12.070
39284W        W11632   8.331  18.770   4.788
39285W        W11633  16.663  30.078   5.641
39286W        W11634  14.777   1.328   2.317
39287W        W11635   5.921  41.911  13.428
39288W        W11636   7.372  27.466  13.832
39289W        W11637  28.164   0.434  13.905
39290W        W11638  32.414   1.768   4.711
39291W        W11639  38.930  21.057  11.489
39292W        W11640  29.579  17.720   3.698
39293W        W11641  22.648  33.101  14.803
39294W        W11642  43.807  33.581  14.282
39295W        W11643  29.045  34.050  11.563
39296W        W11644  12.825  34.549  13.803
39297W        W11645  21.653  22.100  14.902
39298W        W11646  18.255  35.463   1.803
39299W        W11647  16.200   8.690   4.815
39300W        W11648  12.348   6.731   5.309
39301W        W11649  15.667  11.220  10.473
39302W        W11650  21.211  35.080   2.739
39303W        W11651   2.444  17.083  13.310
39304W        W11652  19.221   3.929   4.326
39305W        W11653  17.569  29.005   3.712
39306W        W11654   5.866  14.140   3.341
39307W        W11655  21.092  25.080  12.009
39308W        W11656  34.420   4.412  12.504
39309W        W11657  13.246   3.458  14.874
39310W        W11658  43.282  19.745   4.711
39311W        W11659  26.150  17.556   3.669
39312W        W11660  25.623  19.089  14.925
39313W        W11661   4.815  36.085   4.188
39314W        W11662  10.752  28.498  13.312
39315W        W11663  34.028  18.723   2.227
39316W        W11664  38.553  40.347  10.933
39317W        W11665  16.624  39.914   2.879
39318W        W11666  10.256   0.333   1.264
39319W        W11667   5.410  24.507   0.443
39320W        W11668   3.316  42.016  14.817
39321W        W11669  33.121  33.929   1.836
39322W        W11670  12.673  31.445  12.020
39323W        W11671  32.476   4.356   2.386
39324W        W11672   2.741  31.518   1.381
39325W        W11673   6.295  27.682  11.377
39326W        W11674  10.683  21.523   3.268
39327W        W11675  16.722  24.718   2.865
39328W        W11676  22.601  40.437   2.366
39329W        W11677   4.214  15.286   2.715
39330W        W11678  24.618   6.356  14.921
39331W        W11679  19.734  44.432   3.718
39332W        W11680   4.914  40.542   0.947
39333W        W11681  30.142  35.105  14.363
39334W        W11682  19.093  17.718  13.830
39335W        W11683  12.344  37.855   2.791
39336W        W11684  40.940   7.893  12.071
39337W        W11685  16.604  24.117   0.801
39338W        W11686  26.151   7.339  14.425
39339W        W11687  26.667   0.753   4.762
39340W        W11688  11.227  18.748   3.267
39341W        W11689   5.198  39.942   0.814
39342W        W11690  31.089   5.753   4.125
39343W        W11691  37.831  37.562  10.405
39344W        W11692  42.980  17.712  13.901
39345W        W11693  14.296  17.658  13.806
39346W        W11694  15.585  13.249   0.277
39347W        W11695  33.066  31.617  11.096
39348W        W11696  30.158   7.347  10.435
39349W        W11697   7.325  14.094   2.288
39350W        W11698  12.705  16.724   3.640
39351W        W11699  32.395   6.261  13.852
39352W        W11700  12.761   6.335  14.941
39353W        W11701  12.715  37.024  10.422
39354W        W11702  10.350  40.485  10.421
39355W        W11703   8.666  37.530   3.341
39356W        W11704  28.178  14.617   1.747
39357W        W11705  32.080  38.924  13.510
39358W        W11706   3.321  13.782  13.422
39359W        W11707  34.998   8.386  11.065
39360W        W11708  17.280  13.695  12.918
39361W        W11709  33.461  38.529  13.522
39362W        W11710  30.558  22.115   2.802
39363W        W11711  18.222   0.312  14.853
39364W        W11712  36.872  12.275   3.376
39365W        W11713  13.132  44.758   2.817
39366W        W11714  13.604  43.441   2.686
39367W        W11715  33.915   7.812   2.213
39368W        W11716   2.752  15.274  14.810
39369W        W11717  20.223  29.008  10.441
39370W        W11718   1.338  22.674   0.915
39371W        W11719   7.256  32.943  12.836
39372W        W11720  13.650  17.281  11.531
39373W        W11721  37.981  23.156   1.341
39374W        W11722  15.608  20.681  13.879
39375W        W11723  12.715  36.863  14.936
39376W        W11724  31.435   6.886  11.557
39377W        W11725  25.039  11.231   1.364
39378W        W11726  18.704  10.140  14.882
39379W        W11727  25.013  31.610   1.444
39380W        W11728  34.489  40.040   2.392
39381W        W11729  17.177  16.635   0.952
39382W        W11730  25.505  40.332  13.507
39383W        W11731  38.380  30.997  10.639
39384W        W11732   6.700  16.796  12.080
39385W        W11733  27.529  38.831  10.580
39386W        W11734  16.576  28.580   4.806
39387W        W11735  30.095  10.153  13.389
39388W        W11736  32.944   9.817   2.679
39389W        W11737  44.327  23.638  14.012
39390W        W11738  12.615  11.325  11.070
39391W        W11739  23.028  13.307   3.262
39392W        W11740  40.357  20.037  11.015
39393W        W11741  32.076  43.423   3.189
39394W        W11742  14.768   1.914  14.808
39395W        W11743  36.919  28.520  11.914
39396W        W11744  42.412  38.890  13.815
39397W        W11745  28.478   7.379  13.970
39398W        W11746  22.601   4.705  10.620
39399W        W11747  23.042  42.455  12.472
39400W        W11748  30.610  10.327   1.808
39401W        W11749  18.730  39.032  13.813
39402W        W11750  44.793  36.927  12.915
39403W        W11751  36.070  22.598   3.208
39404W        W11752  10.640  40.359   3.185
39405W        W11753  36.526  25.023   4.667
39406W        W11754  11.695  38.502   0.438
39407W        W11755   3.925   3.322   2.722
39408W        W11756  35.994  27.047   3.716
39409W        W11757  27.976  22.658  12.380
39410W        W11758   4.206   9.196  13.792
39411W        W11759  10.801  26.544   3.749
39412W        W11760  14.279   9.776   4.123
39413W        W11761  42.949  21.534  12.929
39414W        W11762  37.375   8.767   3.816
39415W        W11763  20.649  11.767   4.328
39416W        W11764  38.392  25.060   0.343
39417W        W11765  35.015  35.574  13.531
39418W        W11766  21.746  13.758   3.165
39419W        W11767  29.062  36.410   4.172
39420W        W11768   4.329  40.805   0.780
39421W        W11769  11.148  32.613  11.395
39422W        W11770  44.486  26.098   4.619
39423W        W11771  41.404  31.056  11.572
39424W        W11772   0.446  37.916  12.866
39425W        W11773   6.230  27.488   0.818
39426W        W11774  20.581  41.000   3.324
39427W        W11775  21.252  14.287   0.408
39428W        W11776   8.290   8.266  12.378
39429W        W11777  23.239   0.825   2.235
39430W        W11778  29.470  33.103   1.752
39431W        W11779  34.371   8.799  14.009
39432W        W11780  30.142  16.787   2.390
39433W        W11781  28.076  44.784  11.089
39434W        W11782  34.987  37.974  10.896
39435W        W11783   8.699  27.486  14.385
39436W        W11784  22.684  23.551   2.855
39437W        W11785   7.360  36.868  11.074
39438W        W11786  16.797   1.748   1.326
39439W        W11787  19.674   3.854  14.983
39440W        W11788  42.950  13.123   0.410
39441W        W11789  19.649  13.350  11.550
39442W        W11790  44.379  19.760  12.410
39443W        W11791  44.436   4.340  12.390
39444W        W11792   8.162  33.508   3.838
39445W        W11793  15.623   0.293   4.646
39446W        W11794  27.160  23.094  13.802
39447W        W11795  36.064   0.789   1.210
39448W        W11796  15.269  41.997  13.039
39449W        W11797  24.165  40.975   3.259
39450W        W11798  25.105  41.343   1.824
39451W        W11799  29.063  36.898   4.271
39452W        W11800  12.282  39.999  14.890
39453W        W11801  20.612  40.388   0.909
39454W        W11802   7.708  13.305  13.469
39455W        W11803  29.445  25.468  11.023
39456W        W11804  22.504  43.423   3.799
39457W        W11805  38.510   5.430  13.929
39458W        W11806  41.295  23.497   3.710
39459W        W11807  23.558  25.697   0.361
39460W        W11808  15.202  10.306  12.984
39461W        W11809  15.311  42.942   4.598
39462W        W11810  39.910  12.658   2.299
39463W        W11811   3.745  14.656   3.227
39464W        W11812  35.570  37.059   3.289
39465W        W11813  32.938   8.164  14.994
39466W        W11814  15.691  42.380  12.540
39467W        W11815  36.965   5.851  14.394
39468W        W11816   3.741  31.477   1.750
39469W        W11817  31.629  31.512  14.403
39470W        W11818   8.272  25.038  11.072
39471W        W11819  17.732  10.769   1.389
39472W        W11820   1.770  19.059   4.278
39473W        W11821  14.637  14.299  10.067
39474W        W11822  30.964  10.198   4.616
39475W        W11823  24.614  44.399   4.161
39476W        W11824  17.127  22.717   5.234
39477W        W11825  44.380  22.094   4.784
39478W        W11826  11.703   4.335   3.264
39479W        W11827  24.507  30.042  14.981
39480W        W11828  25.203  10.339   3.208
39481W        W11829  17.741   9.797  14.871
39482W        W11830  40.529  33.985  14.360
39483W        W11831   8.899  17.594   0.302
39484W        W11832  29.974  14.599  11.447
39485W        W11833  41.432   2.779   4.181
39486W        W11834   1.893  17.747   2.252
39487W        W11835  32.979  32.413   0.951
39488W        W11836  23.093  31.039  13.878
39489W        W11837  10.341  38.382   2.704
39490W        W11838  39.817  23.542  13.425
39491W        W11839  39.012  18.234   4.824
39492W        W11840  44.891  11.316   1.291
39493W        W11841  18.256  27.978   0.441
39494W        W11842  15.688  30.143   2.812
39495W        W11843  31.141  22.703   0.242
39496W        W11844   2.899   5.764  11.574
39497W        W11845  42.825  12.262  14.472
39498W        W11846   1.440  12.206   2.275
39499W        W11847  23.989  20.172   3.683
39500W        W11848   1.327  31.527  13.042
39501W        W11849  16.074  43.511   3.213
39502W        W11850  36.364   3.417   4.138
39503W        W11851  22.239  43.456  12.346
39504W        W11852  29.139  32.965   3.666
39505W        W11853  43.477  33.897   0.398
39506W        W11854   9.245  19.191  12.916
39507W        W11855   4.306  12.147   1.264
39508W        W11856  13.784  18.597   2.418
39509W        W11857  41.921  22.139   2.371
39510W        W11858  40.351  11.786  14.995
39511W        W11859   0.820  43.413   1.342
39512W        W11860  24.658  27.544  13.832
39513W        W11861  44.831  35.402   2.901
39514W        W11862   1.408   5.882   3.669
39515W        W11863  33.018   6.383   2.210
39516W        W11864  35.474   4.756   1.226
39517W        W11865   4.929  15.683  10.556
39518W        W11866  43.880   3.763   4.206
39519W        W11867  13.324  42.384   1.407
39520W        W11868  14.675  28.117   1.858
39521W        W11869  27.532  34.032   4.669
39522W        W11870  17.612   6.817  12.059
39523W        W11871  31.067  11.138  12.970
39524W        W11872  29.133  41.417   0.314
39525W        W11873  23.620   9.276   4.191
39526W        W11874  32.403  31.413  12.509
39527W        W11875   0.373   7.741  13.539
39528W        W11876  14.624   6.805  13.495
39529W        W11877  20.698  10.196  11.978
39530W        W11878  15.678  17.091   2.853
39531W        W11879   1.937  25.216   1.828
39532W        W11880  16.729  28.555  10.430
39533W        W11881  38.386  44.262  14.919
39534W        W11882  27.489  25.569  10.574
39535W        W11883  29.453  34.519  12.848
39536W        W11884  42.976  20.725   3.260
39537W        W11885  30.076  25.578   0.418
39538W        W11886  40.535   1.943   1.387
39539W        W11887  41.923  40.832   1.334
39540W        W11888  38.007  36.449   0.337
39541W        W11889  10.325  21.093  11.384
39542W        W11890   0.816  12.784  11.113
39543W        W11891  31.558   7.288  11.069
39544W        W11892   2.305  39.540   3.359
39545W        W11893  33.060  23.222   3.631
39546W        W11894   4.236  27.610  10.888
39547W        W11895  22.657  41.006  13.973
39548W        W11896  15.295   9.313  11.085
39549W        W11897  26.691   7.314   3.287
39550W        W11898  42.391  30.609   4.184
39551W        W11899   2.926   9.356   3.797
39552W        W11900  17.643  10.786  10.888
39553W        W11901   1.379  44.346  12.912
39554W        W11902  12.746  11.348   0.340
39555W        W11903  42.376   9.333  14.789
39556W        W11904  29.035  11.749   3.821
39557W        W11905  37.001  18.265   0.288
39558W        W11906  36.898   6.770   1.311
39559W        W11907  19.100   5.422  11.392
39560W        W11908  44.768  43.321  11.926
39561W        W11909   6.392  44.464  14.389
39562W        W11910   2.377  33.071   3.202
39563W        W11911  29.603   2.925   0.741
39564W        W11912  36.055  17.067  14.391
39565W        W11913  22.615  34.953  13.863
39566W        W11914   8.776  37.523  11.058
39567W        W11915  23.035   8.733  11.903
39568W        W11916  41.460  15.590  13.467
39569W        W11917  28.552  29.933   0.338
39570W        W11918  36.577   1.302   0.762
39571W        W11919  12.664   8.819   0.966
39572W        W11920  42.437  38.061   0.441
39573W        W11921   5.722  29.588  11.945
39574W        W11922  10.308   3.412  12.919
39575W        W11923  33.558  40.820  13.483
39576W        W11924  27.483  12.679  12.873
39577W        W11925  13.810  44.444   1.737
39578W        W11926   5.277  23.032   0.911
39579W        W11927  24.481   8.227   4.245
39580W        W11928   5.314  36.374   3.159
39581W        W11929  40.546  28.169   1.856
39582W        W11930   7.274   8.717  14.997
39583W        W11931  29.513  21.044   1.355
39584W        W11932   8.881  30.151   3.869
39585W        W11933  26.015  12.206   2.687
39586W        W11934  19.216   0.290  10.408
39587W        W11935  42.805  10.299  11.925
39588W        W11936   5.198  29.588  11.494
39589W        W11937  35.358  12.130   1.316
39590W        W11938  31.433  38.460   2.296
39591W        W11939  34.029   1.926  13.884
39592W        W11940  13.628  14.114  10.506
39593W        W11941   0.411  17.799  12.397
39594W        W11942  25.117  12.360   1.323
39595W        W11943  10.357  29.061   2.314
39596W        W11944  22.518   8.847   0.914
39597W        W11945  18.573  39.376   2.308
39598W        W11946  32.631   7.905   0.478
39599W        W11947   2.340  44.881   1.696
39600W        W11948  22.055   7.193   0.472
39601W        W11949  14.147  13.105   9.569
39602W        W11950   3.716  21.660   3.700
39603W        W11951   6.828  21.083  12.357
39604W        W11952   7.742  36.539   4.237
39605W        W11953  44.002  43.507  14.891
39606W        W11954  12.338  41.428   2.274
39607W        W11955  23.691  34.069  12.929
39608W        W11956   7.764   0.896   2.407
39609W        W11957  35.078   5.414  12.946
39610W        W11958   8.216  22.648  14.376
39611W        W11959  17.600   3.747   2.269
39612W        W11960  18.598  44.329  13.858
39613W        W11961   6.823  23.690   3.635
39614W        W11962  14.187  29.623  12.888
39615W        W11963   5.857  14.792   2.808
39616W        W11964   2.291  35.423  10.517
39617W        W11965  19.768  23.602   3.378
39618W        W11966   4.219  15.600  11.070
39619W        W11967  27.024  43.350  14.299
39620W        W11968  16.666  26.646  11.467
39621W        W11969  23.716   9.826   2.693
39622W        W11970   7.367  22.033   0.896
39623W        W11971   6.303  43.496  11.865
39624W        W11972  31.973   7.292   1.799
39625W        W11973  28.040  31.622   0.866
39626W        W11974  32.053  15.757   1.218
39627W        W11975  34.074  21.106  11.583
39628W        W11976  41.374  29.647  12.093
39629W        W11977  18.786  25.582  14.438
39630W        W11978  24.052  22.704   1.332
39631W        W11979  39.974  39.957  13.023
39632W        W11980   9.759  15.744  10.528
39633W        W11981   3.332  16.665  11.525
39634W        W11982  26.602  41.423   2.341
39635W        W11983  25.025  11.162  10.910
39636W        W11984  38.820  36.982   2.382
39637W        W11985   1.364   4.759   4.213
39638W        W11986  44.958  10.669  14.288
39639W        W11987  38.925  23.072   4.646
39640W        W11988  30.113  17.206   2.891
39641W        W11989  37.472  36.558   3.236
39642W        W11990  12.782  44.861   3.162
39643W        W11991  27.497  13.168  12.339
39644W        W11992  11.352  31.992   2.317
39645W        W11993  38.468  29.133  10.510
39646W        W11994  43.270  25.177   4.233
39647W        W11995   2.878  34.534   4.711
39648W        W11996  13.733  14.222  13.360
39649W        W11997   4.394   8.163   4.763
39650W        W11998  18.684  12.784   3.281
39651W        W11999   5.858   6.800  10.612
39652W        W12000  15.269  12.328   5.227
39653W        W12001  41.826  38.020   0.395
39654W        W12002  16.571  17.270  13.990
39655W        W12003  19.734   2.748   0.258
39656W        W12004  30.027  33.085   0.354
39657W        W12005  39.938  28.657  12.542
39658W        W12006  41.912  44.455  13.942
39659W        W12007  38.965   8.743   5.188
39660W        W12008  29.461  32.627   0.914
39661W        W12009  33.881  25.531  11.097
39662W        W12010  17.784  31.470   2.692
39663W        W12011  12.199  27.160   2.884
39664W        W12012  19.181  26.029   4.641
39665W        W12013  12.251  10.374   1.278
39666W        W12014  11.339   3.894  12.496
39667W        W12015  16.789   0.422  12.976
39668W        W12016  36.036  30.137  14.362
39669W        W12017   8.812  36.390   5.204
39670W        W12018   7.179  36.542  12.940
39671W        W12019  38.076  26.604   0.340
39672W        W12020  21.683  35.008   2.354
39673W        W12021  41.363  34.871  10.410
39674W        W12022  42.380   8.687  11.096
39675W        W12023  43.504  30.428  13.003
39676W        W12024  38.961  39.345   4.725
39677W        W12025  35.943   3.451   3.219
39678W        W12026  21.132  21.146   2.694
39679W        W12027  44.496  18.213   1.215
39680W        W12028  41.490  21.119  13.438
39681W        W12029  14.179  41.523   2.194
39682W        W12030  23.994   0.901   2.245
39683W        W12031  36.371  14.229  10.581
39684W        W12032  21.614  31.144  12.406
39685W        W12033  17.069   2.742  11.022
39686W        W12034  43.909  42.027  12.555
39687W        W12035  40.518  14.231   4.126
39688W        W12036  33.560  25.052   2.678
39689W        W12037  14.599   9.181  12.405
39690W        W12038  16.107   1.757   0.305
39691W        W12039  17.085  42.018  11.539
39692W        W12040  40.845  26.086  11.004
39693W        W12041   5.695   3.715  12.929
39694W        W12042  42.408   2.323  13.858
39695W        W12043  17.652   8.819   0.811
39696W        W12044  16.673  33.006  13.861
39697W        W12045   6.251   0.818  10.613
39698W        W12046  22.523  42.523   3.759
39699W        W12047  32.472  32.501   4.192
39700W        W12048  27.089  43.335   1.266
39701W        W12049  43.835   1.393  13.969
39702W        W12050  43.373  43.472   4.325
39703W        W12051  23.511  20.585   4.170
39704W        W12052  34.527  26.581   0.369
39705W        W12053  15.750  30.139   3.359
39706W        W12054  11.638  22.725  12.448
39707W        W12055  26.178  18.280  13.803
39708W        W12056  24.114  30.081  10.577
39709W        W12057   1.385  44.310   3.346
39710W        W12058   8.877  38.979  13.962
39711W        W12059   5.382  34.499   4.788
39712W        W12060  19.646   5.887  10.016
39713W        W12061   0.401  16.691   1.935
39714W        W12062  18.221  38.904   4.226
39715W        W12063  36.878   9.367   1.250
39716W        W12064  30.648   6.751   5.729
39717W        W12065  39.028  23.658   2.883
39718W        W12066  41.430  12.203  10.540
39719W        W12067   4.897   7.325  10.430
39720W        W12068   2.853  10.867  12.943
39721W        W12069  21.529  39.886   0.342
39722W        W12070  37.029   0.830   2.232
39723W        W12071  39.906  29.037   2.687
39724W        W12072   9.299  41.850  14.787
39725W        W12073  26.969  18.052  10.887
39726W        W12074  36.949   7.235  10.432
39727W        W12075  15.604  15.189   2.866
39728W        W12076  37.849  31.115   4.328
39729W        W12077  30.103  18.264   3.670
39730W        W12078  15.141  36.971   4.210
39731W        W12079  38.417  12.254  14.380
39732W        W12080  29.010  29.954   1.698
39733W        W12081  18.654  43.328   4.776
39734W        W12082   4.863  41.822   1.308
39735W        W12083  33.567  34.525  14.007
39736W        W12084   2.285  24.498  12.055
39737W        W12085   0.317  38.426  12.934
39738W        W12086  37.449  36.000  12.425
39739W        W12087  29.555  33.604   3.699
39740W        W12088  12.789  12.161   4.676
39741W        W12089   4.257  30.435   3.642
39742W        W12090  30.951  13.679   2.396
39743W        W12091  41.452   5.380  14.306
39744W        W12092  32.132  22.151   3.655
39745W        W12093  41.426  20.536   3.795
39746W        W12094  32.095   2.758  13.864
39747W        W12095  32.019  40.484   2.336
39748W        W12096   9.271  36.012   1.448
39749W        W12097   0.749  22.171  12.945
39750W        W12098  26.666  14.177  10.476
39751W        W12099  20.625  24.484   3.233
39752W        W12100  22.552  23.143  13.949
39753W        W12101  12.847  22.655  11.449
39754W        W12102  29.941  20.554  11.966
39755W        W12103  27.447  28.085  10.976
39756W        W12104  33.463  37.849  10.511
39757W        W12105  15.327   7.707   2.197
39758W        W12106  12.649   4.224   4.760
39759W        W12107  11.245   8.716  13.504
39760W        W12108   3.937   0.253  12.419
39761W        W12109  40.348  41.516   3.743
39762W        W12110   0.254  31.503   1.818
39763W        W12111  18.276  16.081   0.430
39764W        W12112  28.048  20.555  11.446
39765W        W12113  29.435  27.547  10.971
39766W        W12114  42.478  27.614   3.337
39767W        W12115  40.916   1.343   1.347
39768W        W12116  19.226   4.428   0.927
39769W        W12117  10.828  39.398  12.523
39770W        W12118  21.607  32.981  12.856
39771W        W12119  40.869  33.523   1.918
39772W        W12120  23.536  24.209  12.854
39773W        W12121  39.522  21.580  10.935
39774W        W12122   8.183   4.940   1.419
39775W        W12123  10.200   5.223   4.636
39776W        W12124  30.048  11.310  12.928
39777W        W12125   2.369   4.445  12.068
39778W        W12126  13.305  38.908   3.313
39779W        W12127  16.587  35.993  13.969
39780W        W12128  43.507  31.442  10.890
39781W        W12129   0.424  33.061  12.543
39782W        W12130   2.817   9.731   3.795
39783W        W12131  27.446  12.163  12.038
39784W        W12132  33.983  41.360   4.612
39785W        W12133  40.526   2.399  12.555
39786W        W12134  37.032  11.818   1.824
39787W        W12135  44.362   0.304  13.820
39788W        W12136   6.712  43.339  13.506
39789W        W12137   2.469  37.849  10.919
39790W        W12138  29.997   8.243   4.120
39791W        W12139   1.926  33.062  11.883
39792W        W12140  32.964  36.955  14.508
39793W        W12141  29.553  32.914   2.791
39794W        W12142   3.854  35.942  13.496
39795W        W12143  41.912  38.877   0.463
39796W        W12144  13.815  26.633   1.795
39797W        W12145  24.543  18.601   2.221
39798W        W12146  31.921  24.138   0.760
39799W        W12147  31.490  24.501   4.296
39800W        W12148  40.324  18.178   5.269
39801W        W12149   5.751   9.659   2.357
39802W        W12150  40.046  36.033   0.887
39803W        W12151  28.074  43.438   3.292
39804W        W12152  44.972  31.145  13.372
39805W        W12153   0.895  35.881   5.187
39806W        W12154  29.011   9.319  12.445
39807W        W12155  17.168  39.331  13.878
39808W        W12156  35.092   0.295   3.185
39809W        W12157  21.036  28.006   5.313
39810W        W12158  27.161  30.079  12.517
39811W        W12159  15.820  44.845  14.310
39812W        W12160   2.802  16.684  11.921
39813W        W12161  17.747  30.993   3.693
39814W        W12162   5.417   0.879  12.479
39815W        W12163  40.475  13.142   4.704
39816W        W12164  10.198  12.838  12.579
39817W        W12165  27.013  22.610  14.280
39818W        W12166  19.721  26.659   3.631
39819W        W12167  23.151  40.946  11.050
39820W        W12168  27.687  32.486  13.399
39821W        W12169   8.298  21.110  11.444
39822W        W12170  24.106   5.848   4.797
39823W        W12171  24.996  37.502   3.651
39824W        W12172  33.906  35.470   1.282
39825W        W12173   2.853  15.816   3.706
39826W        W12174  43.896  28.564   1.304
39827W        W12175  39.001   7.904   2.386
39828W        W12176  10.235  26.962   1.342
39829W        W12177  35.979  28.113  10.592
39830W        W12178   7.199  15.316   1.358
39831W        W12179   9.345  38.999   0.804
39832W        W12180  18.261  30.567   4.641
39833W        W12181  32.955  16.708  10.462
39834W        W12182  32.998  28.601  14.893
39835W        W12183  42.454   6.259   0.373
39836W        W12184   5.406  27.595  13.044
39837W        W12185  42.955  17.641   4.322
39838W        W12186  31.444  34.076   4.337
39839W        W12187  43.425  31.494   0.846
39840W        W12188   0.374  34.427  11.505
39841W        W12189   3.340  14.818  10.953
39842W        W12190   1.856  37.374   0.440
39843W        W12191  37.553   2.298   0.351
39844W        W12192   2.843  38.979  13.310
39845W        W12193  32.137   6.253  12.062
39846W        W12194  26.069  40.904  12.576
39847W        W12195  35.465  23.102   5.606
39848W        W12196  42.484  27.135  11.611
39849W        W12197  24.640  11.321   1.704
39850W        W12198  38.896  23.122   3.197
39851W        W12199  34.008  33.093  10.589
39852W        W12200   6.856  22.521  11.964
39853W        W12201  14.650   2.923  14.826
39854W        W12202  37.521   9.719  11.607
39855W        W12203  15.688  41.455   0.248
39856W        W12204  40.413  34.880   1.223
39857W        W12205  10.376  11.282  13.456
39858W        W12206  26.589  39.940  14.918
39859W        W12207  43.952  38.890   3.312
39860W        W12208   2.914  34.109   3.843
39861W        W12209  20.055  15.246   0.772
39862W        W12210   2.937   6.771   0.862
39863W        W12211  22.564  40.958  12.825
39864W        W12212  16.180  32.129   5.207
39865W        W12213   0.864  33.421  12.478
39866W        W12214   3.737   3.882   2.187
39867W        W12215  10.276   1.934   4.672
39868W        W12216  40.350  27.141   0.432
39869W        W12217   4.337   8.168   3.862
39870W        W12218  13.127  18.073  12.396
39871W        W12219  27.961  13.806   0.890
39872W        W12220  14.234  21.517  13.795
39873W        W12221  35.366  15.617  12.859
39874W        W12222  41.826  25.638  14.462
39875W        W12223   7.409   0.294   3.294
39876W        W12224  28.648   0.467  13.533
39877W        W12225  33.073  26.152  12.474
39878W        W12226  34.024  21.169   1.389
39879W        W12227   5.233  28.058   2.403
39880W        W12228  28.530  24.716   2.413
39881W        W12229   1.428  37.844   1.722
39882W        W12230   7.803  31.055   4.793
39883W        W12231  32.060  18.650  11.007
39884W        W12232  28.023  38.375  12.837
39885W        W12233  10.819   6.214   5.228
39886W        W12234  25.569  23.533  13.403
39887W        W12235  35.995  15.801  13.898
39888W        W12236  40.984  29.045  14.454
39889W        W12237  43.370  40.930   1.903
39890W        W12238  10.330  16.621   4.292
39891W        W12239   0.428   4.337   0.263
39892W        W12240  43.940  26.511   3.290
39893W        W12241  13.270  38.018   2.896
39894W        W12242  33.984   8.756  10.514
39895W        W12243  44.807  41.470   1.924
39896W        W12244   0.345   2.386  13.865
39897W        W12245  15.200   2.791   0.808
39898W        W12246  17.169   3.456   5.118
39899W        W12247  12.293  29.120  10.966
39900W        W12248  24.556  33.065   1.824
39901W        W12249  32.489   2.439   1.291
39902W        W12250   2.908  10.790   0.320
39903W        W12251  34.551  41.002   1.235
39904W        W12252  16.762   3.797  11.549
39905W        W12253  24.573  12.224   1.835
39906W        W12254  41.023  21.222  14.850
39907W        W12255   2.806   1.957   4.749
39908W        W12256   7.285  24.223  10.623
39909W        W12257  37.482   0.326   1.329
39910W        W12258  37.411  23.526   4.180
39911W        W12259  27.683   1.796   2.354
39912W        W12260  25.976   7.820   0.937
39913W        W12261  21.684   3.730  14.394
39914W        W12262   6.305  34.061  13.921
39915W        W12263   6.818  16.206  15.000
39916W        W12264  35.951   9.816   0.920
39917W        W12265   7.883  21.754   4.355
39918W        W12266  44.285  21.585   2.240
39919W        W12267  35.954   2.817  10.489
39920W        W12268  15.803   2.741   1.761
39921W        W12269  18.762  42.514  14.388
39922W        W12270  21.560  13.715   1.310
39923W        W12271  39.332  41.514   2.251
39924W        W12272  37.928  26.561  10.948
39925W        W12273   4.814  10.731   3.289
39926W        W12274  11.858  38.501  14.847
39927W        W12275  43.018  25.129   1.435
39928W        W12276  21.165  43.455   4.812
39929W        W12277  21.176  25.128  11.110
39930W        W12278  36.875  23.649  11.910
39931W        W12279  30.628   3.371  14.319
39932W        W12280  38.491   7.272  11.025
39933W        W12281  16.278  39.909  11.590
39934W        W12282  37.900  16.272  14.937
39935W        W12283  14.187  18.624  12.510
39936W        W12284  21.251  25.649   2.308
39937W        W12285  34.614  17.605   2.734
39938W        W12286  44.757   6.921  10.979
39939W        W12287   0.796  37.511   2.869
39940W        W12288   2.843   9.172   0.369
39941W        W12289  11.244  20.720  10.573
39942W        W12290   3.955   4.423   3.173
39943W        W12291  26.115  42.356   1.401
39944W        W12292  21.224  36.022  13.031
39945W        W12293  19.258   7.716  11.403
39946W        W12294  30.414  37.480   1.347
39947W        W12295   5.376  15.755  11.001
39948W        W12296  14.624  14.250   1.821
39949W        W12297  13.658  43.377  13.446
39950W        W12298  13.315  21.550  13.445
39951W        W12299  12.833  39.005  11.547
39952W        W12300  10.712  39.815  11.418
39953W        W12301  35.907  33.539   2.389
39954W        W12302  38.904  35.078   5.101
39955W        W12303  22.713  24.580   0.887
39956W        W12304   7.751  29.993   9.565
39957W        W12305  30.076  32.436  11.871
39958W        W12306  41.423   5.343  13.390
39959W        W12307  22.570  36.984   3.839
39960W        W12308   8.839  38.066   3.240
39961W        W12309  31.004  28.972   1.799
39962W        W12310  29.520  10.332   0.874
39963W        W12311   8.882  22.055   1.753
39964W        W12312  10.824  38.027   0.351
39965W        W12313  11.146  23.701   3.805
39966W        W12314   3.931   5.387  11.400
39967W        W12315  38.014  11.189  13.056
39968W        W12316  44.811   6.866   1.726
39969W        W12317  32.018  20.618  11.568
39970W        W12318   8.364  36.921   0.822
39971W        W12319  16.120   0.835   4.286
39972W        W12320  35.945  29.022  14.996
39973W        W12321  38.418  25.143  10.577
39974W        W12322   1.740  21.671  14.444
39975W        W12323  19.655  42.330   0.480
39976W        W12324  44.422  11.267  11.938
39977W        W12325  25.497  44.286   3.316
39978W        W12326  18.744  24.634  14.004
39979W        W12327  36.464   4.743   5.112
39980W        W12328  38.969  41.527  13.012
39981W        W12329   4.219  13.754  14.880
39982W        W12330  23.033  23.240   4.242
39983W        W12331  40.337  34.982   2.681
39984W        W12332  24.531  34.579  13.442
39985W        W12333  35.930  26.952  11.912
39986W        W12334  23.681  25.579  14.295
39987W        W12335   1.877  14.799  13.816
39988W        W12336  18.123  28.533  11.399
39989W        W12337  25.063  38.997   5.240
39990W        W12338  27.467  11.797   2.379
39991W        W12339  28.004  22.555   0.806
39992W        W12340  17.069  19.573   3.764
39993W        W12341   3.335  41.349  14.382
39994W        W12342  21.544  29.161   3.772
39995W        W12343  40.348   7.717  14.960
39996W        W12344  11.327   1.863  14.456
39997W        W12345   6.802  23.124   2.184
39998W        W12346  31.075  43.410  11.877
39999W        W12347  38.898  36.061  10.980
40000W        W12348  44.874   9.796  13.036
40001W        W12349  42.467  19.102   4.692
40002W        W12350  12.694  39.378  11.518
40003W        W12351  33.397  31.555  14.290
40004W        W12352  24.986  43.795   3.162
40005W        W12353  15.590  30.519  13.548
40006W        W12354  16.272  39.991   1.776
40007W        W12355  16.084  24.636   2.898
40008W        W12356  30.109   1.256   3.159
40009W        W12357  31.602  36.560   1.312
40010W        W12358   4.427   8.310   0.846
40011W        W12359  21.020  10.291  12.466
40012W        W12360   1.478  42.474   2.397
40013W        W12361  33.898  37.837  12.946
40014W        W12362  17.133   0.753   3.811
40015W        W12363  16.086  36.354   0.811
40016W        W12364   7.267  39.477   4.743
40017W        W12365  34.522  37.917  12.436
40018W        W12366  24.604  32.599   2.272
40019W        W12367  21.632  27.686   2.416
40020W        W12368  39.351  18.152   4.299
40021W        W12369   9.885   1.783   4.732
40022W        W12370  25.216  24.572   0.286
40023W        W12371  32.904  18.273  13.922
40024W        W12372   3.816  12.735  14.502
40025W        W12373  43.500  34.411   1.843
40026W        W12374  44.265  42.914   4.691
40027W        W12375  35.055  24.682  13.046
40028W        W12376   2.770  31.534   2.884
40029W        W12377   5.378  20.661   1.301
40030W        W12378  32.546   0.336   1.443
40031W        W12379  23.698   7.238  10.112
40032W        W12380  28.020  13.343  10.469
40033W        W12381  33.075   5.718   2.235
40034W        W12382  23.671  35.439   1.902
40035W        W12383  34.054   3.802  13.824
40036W        W12384   4.703  18.066   1.813
40037W        W12385  16.755  19.657  10.929
40038W        W12386  23.020  32.032   3.634
40039W        W12387  10.683  39.372   4.218
40040W        W12388  42.806  24.115   5.246
40041W        W12389  33.956  21.160   0.467
40042W        W12390  17.684  30.909   2.265
40043W        W12391  33.945  12.337   1.744
40044W        W12392  30.919  13.779   4.621
40045W        W12393  10.783  28.531   4.317
40046W        W12394  33.903  25.589  12.992
40047W        W12395  15.632  18.710   0.762
40048W        W12396  10.297  43.842  12.007
40049W        W12397  35.546   9.354  12.917
40050W        W12398  31.502  26.177  14.782
40051W        W12399  38.981  32.503   4.230
40052W        W12400  33.553   7.672   0.756
40053W        W12401  25.600  34.097  14.874
40054W        W12402  19.100  30.914  14.414
40055W        W12403  13.738   9.698  14.797
40056W        W12404  41.437  19.751  13.473
40057W        W12405   8.251   5.289  11.984
40058W        W12406  41.896  18.690  14.336
40059W        W12407  13.339  36.412   3.865
40060W        W12408   9.180  33.452   3.847
40061W        W12409  12.170   6.691   3.345
40062W        W12410  14.222  37.430   2.393
40063W        W12411  21.628  20.035   0.283
40064W        W12412  11.635   2.797   3.700
40065W        W12413  34.911  40.018   3.307
40066W        W12414  25.174  31.641   3.249
40067W        W12415  42.510  13.766   4.206
40068W        W12416  41.822  39.354   1.743
40069W        W12417   4.255   6.256  14.024
40070W        W12418  31.957  36.549   3.736
40071W        W12419  30.575  44.458   1.823
40072W        W12420  17.771   7.192   2.231
40073W        W12421   5.885   8.811   2.835
40074W        W12422  17.206   6.400   2.886
40075W        W12423  28.955  31.067  13.370
40076W        W12424   4.899   5.406   0.770
40077W        W12425  11.622   2.881  14.013
40078W        W12426  38.389  37.549   3.334
40079W        W12427  42.333  38.361  14.961
40080W        W12428   0.314   1.843   3.752
40081W        W12429  36.879  11.200   0.463
40082W        W12430  16.638  33.941  10.564
40083W        W12431  11.769  22.239  13.911
40084W        W12432  33.106  27.987  13.397
40085W        W12433  11.244   0.795   2.727
40086W        W12434  13.299  38.019  14.389
40087W        W12435  37.995   7.282   2.678
40088W        W12436  18.108  40.510  11.474
40089W        W12437  34.078  38.513   4.185
40090W        W12438  29.583  15.264  14.299
40091W        W12439  24.079  11.163   3.836
40092W        W12440   8.733   0.744   0.923
40093W        W12441  12.334  35.431   4.599
40094W        W12442  41.537  37.978  11.606
40095W        W12443  10.806  19.150   0.753
40096W        W12444  23.496   6.800  14.812
40097W        W12445  21.044  37.445   2.299
40098W        W12446  15.223  18.139   0.795
40099W        W12447  19.728  38.442  14.865
40100W        W12448  43.954  29.081  13.872
40101W        W12449  28.952  10.211   0.318
40102W        W12450   9.208  34.979  14.482
40103W        W12451  41.044  14.712   3.832
40104W        W12452  30.413  30.090  10.562
40105W        W12453  44.350  40.919   2.700
40106W        W12454   6.726  31.042  12.844
40107W        W12455  16.680   1.868   2.686
40108W        W12456   1.776  24.655  14.439
40109W        W12457   1.772  12.717  11.426
40110W        W12458  25.714  22.654   2.277
40111W        W12459  32.132  25.144   2.301
40112W        W12460  31.906   2.832   0.407
40113W        W12461  13.648  34.987   2.840
40114W        W12462   5.772  15.715  14.877
40115W        W12463  37.408  29.536   0.480
40116W        W12464   9.304  13.727   4.149
40117W        W12465  36.977   0.454  14.505
40118W        W12466   3.394  14.233   0.264
40119W        W12467  23.543  17.173  13.325
40120W        W12468   7.888  31.110  10.151
40121W        W12469   5.921  32.010  12.419
40122W        W12470  40.400   8.198  11.012
40123W        W12471  36.487  23.695   3.645
40124W        W12472  13.234  25.687  12.941
40125W        W12473  13.692  15.312  13.932
40126W        W12474  24.625  40.797   4.348
40127W        W12475   0.458  31.408   3.316
40128W        W12476  26.567  15.781   2.300
40129W        W12477  41.971  22.236  11.577
40130W        W12478   3.404  36.908   3.858
40131W        W12479  36.398  30.483   3.221
40132W        W12480   8.846  13.753   2.241
40133W        W12481  14.592  37.579   4.772
40134W        W12482   9.289  13.332   0.474
40135W        W12483  19.572  43.299   1.832
40136W        W12484  34.931   2.234   1.443
40137W        W12485  41.927   3.950  11.871
40138W        W12486  26.153  33.909  12.049
40139W        W12487  36.396   1.937   4.341
40140W        W12488  18.609  20.616   0.919
40141W        W12489  26.544  19.553   1.899
40142W        W12490  30.123  27.112  14.850
40143W        W12491   3.243   6.191   0.766
40144W        W12492  25.996  43.332  10.996
40145W        W12493  10.359   8.855   1.449
40146W        W12494  25.170  38.508  14.420
40147W        W12495  38.911  24.606  12.468
40148W        W12496  24.498   1.948  11.472
40149W        W12497  37.562  22.206   9.486
40150W        W12498  35.009  19.173  13.977
40151W        W12499  22.543   2.308   1.855
40152W        W12500  41.384   4.395   1.318
40153W        W12501  37.449   9.393  11.516
40154W        W12502  19.269  43.851   0.374
40155W        W12503   2.872  14.192   0.399
40156W        W12504   2.270  16.806  11.466
40157W        W12505  25.622  34.968  14.339
40158W        W12506   5.791  33.509  11.111
40159W        W12507   4.256  41.894  14.451
40160W        W12508  34.067  23.988  14.867
40161W        W12509  15.307  11.720   0.398
40162W        W12510  31.138   9.377   2.694
40163W        W12511  32.576  21.704  14.994
40164W        W12512  44.897  22.063  11.583
40165W        W12513   1.376  19.258  12.542
40166W        W12514  42.880  26.647  13.985
40167W        W12515  33.933  44.463  11.534
40168W        W12516  43.438  29.534  10.524
40169W        W12517  36.095  35.985   2.898
40170W        W12518  39.824  33.497   0.877
40171W        W12519  27.011  25.971   4.792
40172W        W12520  38.973  11.712   3.673
40173W        W12521  44.832  31.592   2.343
40174W        W12522   2.320   4.902  11.905
40175W        W12523  35.923   9.645  14.851
40176W        W12524   1.953  13.189   1.255
40177W        W12525  36.468  27.607  12.556
40178W        W12526  19.774  25.065   0.423
40179W        W12527  24.038   2.261  10.888
40180W        W12528  34.997  26.659  13.316
40181W        W12529  38.859  19.722  12.909
40182W        W12530  28.549  32.433   1.922
40183W        W12531  22.187  11.358  11.973
40184W        W12532  42.971  30.911   0.418
40185W        W12533  24.545   0.760   2.805
40186W        W12534  10.328   0.982   1.240
40187W        W12535  28.494  16.185  13.036
40188W        W12536  33.994  10.253   3.221
40189W        W12537  29.033  13.278   0.467
40190W        W12538  15.745   9.291  11.424
40191W        W12539  12.298   7.252   5.580
40192W        W12540  12.754  44.364  14.832
40193W        W12541  10.740  44.427  13.904
40194W        W12542   1.837  40.894   4.281
40195W        W12543  23.176  38.417   0.272
40196W        W12544  33.031  12.152   4.700
40197W        W12545   9.284  14.614   0.428
40198W        W12546  17.209  33.415  11.970
40199W        W12547  37.953  44.465   2.897
40200W        W12548  22.050  41.496  14.379
40201W        W12549   0.492  16.640   0.846
40202W        W12550  35.479  16.242  14.956
40203W        W12551  40.387  30.966   4.838
40204W        W12552  27.120  17.778   3.205
40205W        W12553  29.045  33.130   0.306
40206W        W12554  21.103   2.785   4.675
40207W        W12555  34.885  37.400   5.130
40208W        W12556   3.294   7.722  12.941
40209W        W12557   9.660  22.200  12.375
40210W        W12558  23.146   9.198   0.849
40211W        W12559  42.024  26.657  12.375
40212W        W12560  24.171  35.096   1.896
40213W        W12561  42.898   3.736  13.062
40214W        W12562  33.875   1.396  13.455
40215W        W12563  14.326  34.558   2.706
40216W        W12564   8.673  25.530  14.951
40217W        W12565  31.431   1.244   1.748
40218W        W12566  39.424  25.193   2.724
40219W        W12567  36.526   4.805  13.373
40220W        W12568  27.518  40.021   3.836
40221W        W12569  13.201  10.725  14.794
40222W        W12570  13.109   9.290   2.669
40223W        W12571  32.955  33.597  12.540
40224W        W12572  18.774  12.344   2.852
40225W        W12573  25.073   5.855   4.607
40226W        W12574  17.689  30.162   2.813
40227W        W12575  40.336  11.646  11.993
40228W        W12576   8.679  28.606   0.837
40229W        W12577   5.710  38.991   2.805
40230W        W12578  19.702  15.328   0.943
40231W        W12579  35.520   2.943   0.916
40232W        W12580  38.898  40.331   5.295
40233W        W12581  33.973  29.501   0.331
40234W        W12582  10.857  17.790   4.272
40235W        W12583  44.475  15.654   3.758
40236W        W12584  11.782  37.041   3.661
40237W        W12585  13.719  42.883   4.145
40238W        W12586  19.194  14.680  10.931
40239W        W12587   9.361  17.255   4.127
40240W        W12588  25.629  12.292   4.612
40241W        W12589  21.237  17.129   2.195
40242W        W12590   6.791  42.454   0.789
40243W        W12591  13.165  20.744   2.871
40244W        W12592   0.491  17.304   1.878
40245W        W12593  16.174  15.813  11.406
40246W        W12594   3.791  40.901   3.166
40247W        W12595   4.264  12.162  11.495
40248W        W12596  13.310  10.146  12.478
40249W        W12597  33.420   8.233  12.436
40250W        W12598  24.550   8.870  11.869
40251W        W12599   0.428  25.630   0.449
40252W        W12600   9.213   2.367   2.865
40253W        W12601  37.573  15.787  10.488
40254W        W12602  24.551  14.117  11.029
40255W        W12603  31.976  21.017  10.450
40256W        W12604  25.969  28.631   3.748
40257W        W12605  30.529  30.571   3.328
40258W        W12606  17.575  26.138  14.024
40259W        W12607  11.732  38.503   1.438
40260W        W12608   7.825  34.459  11.894
40261W        W12609  44.435  22.242  14.468
40262W        W12610  11.299  37.407  11.429
40263W        W12611   0.301   2.415  13.536
40264W        W12612  38.412  25.032   4.177
40265W        W12613  11.205  43.825   0.848
40266W        W12614  20.095   3.785   4.778
40267W        W12615  18.053  25.091  11.390
40268W        W12616  26.530  35.529   1.420
40269W        W12617  19.206  41.489   3.869
40270W        W12618  22.560  28.516   1.817
40271W        W12619  37.941  21.543   9.493
40272W        W12620  31.493  28.617   3.636
40273W        W12621   5.878  41.030   0.807
40274W        W12622  31.091  11.225  11.486
40275W        W12623  21.574  43.857   4.246
40276W        W12624   5.225  26.587   3.165
40277W        W12625   1.442  33.403  14.414
40278W        W12626  23.693  18.585  12.980
40279W        W12627  15.311  17.734   1.912
40280W        W12628   8.762   4.715   1.450
40281W        W12629  40.359  31.401   2.666
40282W        W12630  19.239  42.822  14.366
40283W        W12631  37.443   8.703   5.155
40284W        W12632  33.885   8.325  14.997
40285W        W12633  31.423   8.210  14.762
40286W        W12634   1.850  37.524  10.598
40287W        W12635  43.798  12.230   1.809
40288W        W12636  38.547   7.339  13.935
40289W        W12637   0.394  23.548  14.316
40290W        W12638  31.630  23.534   0.827
40291W        W12639  29.994  32.485   2.785
40292W        W12640  16.744  36.843   0.463
40293W        W12641  12.650  23.581  10.615
40294W        W12642  23.190  20.239  14.408
40295W        W12643   7.331  16.608  12.069
40296W        W12644  23.099  39.052  13.968
40297W        W12645  39.534  33.424   2.833
40298W        W12646  30.956  34.400  11.942
40299W        W12647  14.194  12.851   2.859
40300W        W12648  37.510  23.613  12.508
40301W        W12649  15.098  23.237   4.718
40302W        W12650  28.007  15.214  12.095
40303W        W12651  11.768  33.041  10.630
40304W        W12652  22.733  12.349  13.013
40305W        W12653   9.289  33.972   4.723
40306W        W12654   7.362  30.588   0.438
40307W        W12655   0.444  11.677  14.490
40308W        W12656  18.755  41.461  14.800
40309W        W12657  28.110  35.933  10.423
40310W        W12658   3.267  35.594  14.309
40311W        W12659  10.147   4.906   4.602
40312W        W12660  40.857  13.606   1.265
40313W        W12661  44.863  29.486  14.332
40314W        W12662   7.836  40.947   0.337
40315W        W12663  10.270  18.141   3.181
40316W        W12664  12.236  24.601   1.411
40317W        W12665  35.474  16.112  11.396
40318W        W12666  20.249  32.049  12.053
40319W        W12667   7.384   1.452  11.526
40320W        W12668  39.889  27.523  12.548
40321W        W12669  13.160  19.096  12.947
40322W        W12670  18.224  16.215   1.810
40323W        W12671  38.921  16.703   1.893
40324W        W12672  28.014  10.289   5.251
40325W        W12673  43.938   7.794   2.866
40326W        W12674  38.359  19.564   0.303
40327W        W12675  31.053  28.539   2.897
40328W        W12676  37.982   4.251  12.883
40329W        W12677   5.294  14.795  11.563
40330W        W12678   2.793  20.528  14.916
40331W        W12679  41.881  17.179  12.874
40332W        W12680   1.305  28.958   4.229
40333W        W12681  14.644  30.471   4.336
40334W        W12682  37.474  35.438  10.918
40335W        W12683  39.869  21.234   0.940
40336W        W12684   3.251  18.172   3.720
40337W        W12685   8.378   7.243  13.332
40338W        W12686  40.501  35.012  13.996
40339W        W12687   9.204  39.560  14.477
40340W        W12688   7.398  30.527   1.855
40341W        W12689  28.477  23.736  13.457
40342W        W12690  13.715  30.989  13.820
40343W        W12691  20.171  36.454   1.251
40344W        W12692   2.924  12.650  10.467
40345W        W12693  30.650  34.579  14.494
40346W        W12694  40.548  33.527  12.057
40347W        W12695  15.798  29.582  12.514
40348W        W12696  38.971  36.949  11.466
40349W        W12697  36.577   3.779   4.220
40350W        W12698  19.138  30.003  11.015
40351W        W12699  30.930  25.975  10.411
40352W        W12700  38.853  28.596  11.533
40353W        W12701  22.090  13.644  11.602
40354W        W12702   9.236  21.664  13.850
40355W        W12703  20.052  31.500   3.151
40356W        W12704  31.093  23.608  13.359
40357W        W12705   7.316  30.935  10.644
40358W        W12706  18.263  14.640  12.426
40359W        W12707  10.229  26.561   3.190
40360W        W12708  19.755  16.773  11.444
40361W        W12709   1.758  39.989   3.750
40362W        W12710   0.358  28.031  13.937
40363W        W12711  20.730  20.697  10.414
40364W        W12712   2.725   8.167   1.328
40365W        W12713  27.156  43.473   0.892
40366W        W12714   9.828  12.830   4.122
40367W        W12715  28.619  40.039  14.905
40368W        W12716   2.927  41.502  11.020
40369W        W12717   4.834  26.158   1.764
40370W        W12718   7.894  43.355  10.917
40371W        W12719  23.680   4.814   3.365
40372W        W12720   5.386  10.847   0.296
40373W        W12721   3.279  20.654   3.300
40374W        W12722  41.036   4.231   0.289
40375W        W12723   3.949  42.462  14.368
40376W        W12724  37.071   5.844  13.335
40377W        W12725  35.511  35.922  14.344
40378W        W12726   5.729   3.354   2.879
40379W        W12727  41.401  23.228  14.486
40380W        W12728   2.821  22.686   3.240
40381W        W12729   3.938   2.252  10.438
40382W        W12730  10.800  31.962  11.063
40383W        W12731  21.047  36.988  14.019
40384W        W12732  34.435  25.663  12.936
40385W        W12733  33.399  14.752   4.731
40386W        W12734  18.213   9.223   1.404
40387W        W12735  40.896  11.823   2.894
40388W        W12736  26.529   1.335   2.262
40389W        W12737  27.485  27.654   3.363
40390W        W12738  20.760  41.447   3.771
40391W        W12739  38.058   5.822   2.834
40392W        W12740  24.056  17.098  11.507
40393W        W12741  22.056  39.445  13.426
40394W        W12742  25.127  40.443  11.888
40395W        W12743  42.330   8.237  10.598
40396W        W12744  16.132  16.701   0.818
40397W        W12745  44.778  31.633   4.669
40398W        W12746  40.309   1.381  12.078
40399W        W12747   1.399  36.476  14.971
40400W        W12748  24.621  29.643   2.214
40401W        W12749  36.481   5.426  11.538
40402W        W12750  36.528  40.544   1.893
40403W        W12751  41.787   1.827  11.058
40404W        W12752  23.716  35.530   0.299
40405W        W12753   2.945  42.462   3.714
40406W        W12754  17.250  37.996   3.260
40407W        W12755  26.122   8.211  12.911
40408W        W12756  27.135   1.282  12.007
40409W        W12757  25.200  37.903  14.824
40410W        W12758  35.591   7.274  10.547
40411W        W12759  10.805   2.817   1.873
40412W        W12760  15.714  16.112  12.541
40413W        W12761  25.149   6.889   4.799
40414W        W12762  20.260  20.133  10.499
40415W        W12763  40.867  31.924   0.893
40416W        W12764  42.848  17.167  14.381
40417W        W12765   4.346  30.099   0.957
40418W        W12766  16.588  13.836  13.371
40419W        W12767  35.088   1.442  12.074
40420W        W12768  16.231  30.513  13.477
40421W        W12769  30.643   1.884  10.518
40422W        W12770   1.867  37.483  13.370
40423W        W12771  21.611  12.282  10.552
40424W        W12772   7.252  15.259  11.906
40425W        W12773  10.706   1.239   2.318
40426W        W12774   7.752  36.501   1.407
40427W        W12775  29.626   3.427   4.803
40428W        W12776   7.670   1.784  12.052
40429W        W12777   2.751  27.128   3.329
40430W        W12778   5.303   8.664  10.989
40431W        W12779  28.006   6.224  13.922
40432W        W12780  13.681   3.767  13.846
40433W        W12781  25.106  13.286   3.178
40434W        W12782  33.432  18.114  12.508
40435W        W12783  39.422  12.176  11.045
40436W        W12784  22.030  42.498  13.458
40437W        W12785  35.952  44.344   1.358
40438W        W12786   3.865  15.115  10.960
40439W        W12787  12.158  32.910   3.229
40440W        W12788  44.401  36.421  10.642
40441W        W12789   0.813   9.278  12.369
40442W        W12790  29.658  31.976  12.977
40443W        W12791  17.274  17.624   0.926
40444W        W12792  22.559  16.110  11.018
40445W        W12793  27.095  26.198  10.470
40446W        W12794  16.667  26.555  14.994
40447W        W12795  39.064  42.368  10.622
40448W        W12796  44.822  30.639   0.466
40449W        W12797  27.613  41.533   1.336
40450W        W12798  31.031   3.954  10.466
40451W        W12799  20.095  23.201   0.474
40452W        W12800   7.395   6.866  11.973
40453W        W12801  42.782  17.241  11.480
40454W        W12802  42.319  40.917   0.754
40455W        W12803   5.920  29.650  11.455
40456W        W12804  42.464  34.447  13.917
40457W        W12805  18.233  43.331   2.329
40458W        W12806  18.616  21.599  11.407
40459W        W12807  16.706  40.955  12.991
40460W        W12808  20.526  41.403  13.496
40461W        W12809   7.667   8.874  10.035
40462W        W12810  26.137   0.448   4.185
40463W        W12811  14.297  13.124  10.406
40464W        W12812  18.767  32.893  13.357
40465W        W12813  37.882  30.018   2.766
40466W        W12814  25.630  26.961  13.352
40467W        W12815  26.108  38.505  11.006
40468W        W12816  35.439   2.268   3.694
40469W        W12817   3.786  10.720   3.639
40470W        W12818  22.133  20.537   2.852
40471W        W12819  28.049  37.994  13.372
40472W        W12820  13.191  26.134   4.750
40473W        W12821  44.342  18.634  11.495
40474W        W12822   3.918   9.349  14.492
40475W        W12823  26.208  43.365  12.472
40476W        W12824  41.476  24.113  13.060
40477W        W12825  33.564  25.213  12.447
40478W        W12826  21.179  37.402   3.255
40479W        W12827  24.145  39.475  11.558
40480W        W12828   0.846  16.245  12.846
40481W        W12829  34.903  31.448   3.744
40482W        W12830   1.434  29.926   2.200
40483W        W12831  39.452  19.279  14.424
40484W        W12832  24.532   7.194  13.482
40485W        W12833  34.931  31.969   4.675
40486W        W12834  27.607  37.980  14.509
40487W        W12835  12.647   0.250   1.439
40488W        W12836  16.249  13.243  12.982
40489W        W12837  20.646  35.948   1.833
40490W        W12838   3.279  30.945   4.629
40491W        W12839   6.821  15.657   2.787
40492W        W12840  20.563  23.650  10.426
40493W        W12841  17.192   7.256  12.878
40494W        W12842  44.884  14.805   2.207
40495W        W12843  34.896   0.777   3.818
40496W        W12844  18.248  41.934   4.686
40497W        W12845  36.891  38.038   4.600
40498W        W12846  12.841  33.057   2.371
40499W        W12847  42.509   0.817  11.942
40500W        W12848  20.117  40.004  12.881
40501W        W12849  44.889  11.798  14.959
40502W        W12850  15.636   1.336  13.038
40503W        W12851   9.808  12.759   2.178
40504W        W12852  19.637  31.472   1.871
40505W        W12853  16.172  14.723   5.772
40506W        W12854  30.515  35.364  13.342
40507W        W12855  17.232   0.790  13.362
40508W        W12856  12.738  25.154  11.995
40509W        W12857  19.740  27.076   3.775
40510W        W12858  34.461   2.883  12.052
40511W        W12859  26.463  14.206  13.999
40512W        W12860  17.599  22.650  13.456
40513W        W12861  26.577  25.622  13.904
40514W        W12862  10.782  33.894  12.425
40515W        W12863  29.013   5.227  11.893
40516W        W12864  42.953  22.056   1.241
40517W        W12865   8.701  31.606  11.389
40518W        W12866  43.824  43.001  10.943
40519W        W12867  26.583   6.714   0.822
40520W        W12868   9.263  19.192  10.025
40521W        W12869  36.549   1.258  10.634
40522W        W12870  12.302  27.683  12.506
40523W        W12871  13.245  12.731   1.449
40524W        W12872  29.951  38.501  11.986
40525W        W12873  40.869  24.063   4.167
40526W        W12874  14.267  27.181  11.118
40527W        W12875  44.814  29.124   3.336
40528W        W12876  32.600  41.312   5.128
40529W        W12877  39.021  43.409   4.248
40530W        W12878  18.573  17.717   2.793
40531W        W12879   5.327  33.510  10.433
40532W        W12880  39.324  32.620   2.781
40533W        W12881  15.646   1.456  11.447
40534W        W12882  36.092  33.569  11.463
40535W        W12883   8.660  39.857  13.516
40536W        W12884  27.197   9.806  11.964
40537W        W12885   5.738  38.506   2.266
40538W        W12886  14.653  32.939  11.551
40539W        W12887  10.245  21.534  12.513
40540W        W12888  44.296  32.635  10.016
40541W        W12889  41.854  27.169   0.374
40542W        W12890  37.336  34.938  10.539
40543W        W12891  35.559  34.518   1.880
40544W        W12892  16.762  15.596   0.806
40545W        W12893  13.201  18.253   1.371
40546W        W12894  39.023  16.107   0.417
40547W        W12895  16.751  32.560  10.525
40548W        W12896  41.970   5.219  11.461
40549W        W12897  23.105  14.832  11.058
40550W        W12898  34.088  31.413   1.226
40551W        W12899  43.475  13.339  11.389
40552W        W12900  42.947  20.573  13.884
40553W        W12901   9.277  23.168  12.354
40554W        W12902  28.092   0.355   4.217
40555W        W12903   3.761  16.152   0.824
40556W        W12904   0.918  32.612  14.369
40557W        W12905  35.882  33.563  11.974
40558W        W12906  15.712   2.400   2.368
40559W        W12907  24.542   1.802   1.923
40560W        W12908  21.200  37.879   1.397
40561W        W12909  26.665   9.750   2.365
40562W        W12910  16.769  16.782   2.844
40563W        W12911  34.902  24.608   0.767
40564W        W12912  16.725  30.933  11.922
40565W        W12913   2.278  12.749  12.883
40566W        W12914  42.893  35.882  14.935
40567W        W12915  32.920   0.338  14.870
40568W        W12916  20.570  16.244  14.292
40569W        W12917  29.088  41.869   0.888
40570W        W12918  18.273  32.586   4.671
40571W        W12919  39.974  13.134   1.333
40572W        W12920   9.156  31.066  10.000
40573W        W12921  38.829   4.384   1.296
40574W        W12922   4.827  26.640   3.291
40575W        W12923   3.790  24.093   4.745
40576W        W12924  20.114  15.222   1.830
40577W        W12925  14.283  28.119  14.414
40578W        W12926   3.802  27.652  11.070
40579W        W12927  25.057  42.888  14.002
40580W        W12928  41.858  40.803  11.426
40581W        W12929  42.026  11.754   2.666
40582W        W12930  20.543  22.136  13.380
40583W        W12931  40.364  38.897   1.788
40584W        W12932  25.625  34.499  10.942
40585W        W12933  44.410  10.318  13.049
40586W        W12934  27.611  40.878   2.795
40587W        W12935  10.384   3.226  11.039
40588W        W12936  30.138   9.841  14.962
40589W        W12937   6.403   6.383   4.342
40590W        W12938  20.637  11.670  14.836
40591W        W12939   5.778  12.745  13.827
40592W        W12940   8.806  44.847  12.001
40593W        W12941  25.034  29.502  12.378
40594W        W12942   3.315  21.250  12.450
40595W        W12943  12.826  25.094  11.120
40596W        W12944  32.563   6.415  13.425
40597W        W12945   8.807   7.285   0.397
40598W        W12946  11.755  11.342   3.644
40599W        W12947   5.365  36.843  10.600
40600W        W12948  19.084  42.447   4.715
40601W        W12949  25.975  20.205  10.604
40602W        W12950  25.001  38.338  13.877
40603W        W12951   0.251   0.285  13.840
40604W        W12952  40.437  22.653  13.930
40605W        W12953   1.301  37.901  13.043
40606W        W12954  34.453   4.886   3.670
40607W        W12955  35.947   9.242   1.301
40608W        W12956  37.498  10.337   2.852
40609W        W12957   5.250  12.708  10.909
40610W        W12958   9.775  12.216  13.794
40611W        W12959  22.013  43.451  14.997
40612W        W12960   9.864  25.710   4.340
40613W        W12961  24.600  12.361   0.298
40614W        W12962  29.633   9.308  12.025
40615W        W12963  25.178  40.383  12.465
40616W        W12964  38.336  31.517   0.258
40617W        W12965   2.237   2.373   1.412
40618W        W12966  15.277   0.435  11.922
40619W        W12967   9.777  34.107   4.345
40620W        W12968  15.660  40.004  14.386
40621W        W12969  43.380  21.718   0.911
40622W        W12970  23.210  11.631   0.338
40623W        W12971  29.521   6.353  12.865
40624W        W12972  17.665  36.914  11.113
40625W        W12973  42.885   9.810  12.903
40626W        W12974  25.590  30.596   0.817
40627W        W12975   6.379  36.090   1.775
40628W        W12976   4.830   2.783   5.218
40629W        W12977  38.372  22.742  11.911
40630W        W12978  29.122  31.127   4.819
40631W        W12979  10.670  36.575   3.860
40632W        W12980  18.201  11.235   0.304
40633W        W12981  27.557   8.371   0.352
40634W        W12982  10.815  28.478   0.425
40635W        W12983   6.799   1.476   4.836
40636W        W12984  16.292   5.791  12.369
40637W        W12985  23.634  10.372  14.910
40638W        W12986  41.836  25.519  14.973
40639W        W12987  29.031   1.477  11.897
40640W        W12988  11.696  36.351  14.865
40641W        W12989  28.482  24.646  14.304
40642W        W12990  19.082   5.306  13.362
40643W        W12991   8.357  14.207   2.852
40644W        W12992  35.939   3.286  11.895
40645W        W12993  30.919  21.731   2.671
40646W        W12994  28.931  19.266   3.332
40647W        W12995  37.559  31.430   4.687
40648W        W12996  15.290  26.460  14.833
40649W        W12997  11.722  12.314   0.366
40650W        W12998  38.462  17.078   0.958
40651W        W12999   6.800   8.680  10.967
40652W        W13000   7.699  13.810  10.940
40653W        W13001  14.632  28.007  11.608
40654W        W13002  27.189   0.894  10.110
40655W        W13003  24.104  32.531  12.003
40656W        W13004  40.459  14.239  11.103
40657W        W13005  14.126   0.811  11.990
40658W        W13006  24.643  29.925   3.312
40659W        W13007  38.481  37.868   0.445
40660W        W13008  23.031   9.312   1.697
40661W        W13009  33.029  39.915  10.925
40662W        W13010  16.252   3.831   0.805
40663W        W13011  25.007  33.394   0.339
40664W        W13012   3.800  29.433   3.844
40665W        W13013  44.351  27.997  10.636
40666W        W13014   8.337  37.896  11.876
40667W        W13015  17.735  15.778  11.612
40668W        W13016  33.455  13.682  10.989
40669W        W13017  32.074  27.011  14.410
40670W        W13018  14.758  26.500  10.010
40671W        W13019   6.418  11.770  12.419
40672W        W13020  42.423  17.092   0.446
40673W        W13021   7.840  38.406  13.973
40674W        W13022  30.930  31.108   0.744
40675W        W13023  16.673  42.812   3.786
40676W        W13024   9.363   2.425  11.433
40677W        W13025  36.936  19.705  12.567
40678W        W13026  36.072  29.173   1.875
40679W        W13027  22.509  19.631  13.820
40680W        W13028   7.904  27.965  12.839
40681W        W13029  25.570  43.844  10.458
40682W        W13030  24.520  38.383   1.222
40683W        W13031  33.087  32.091  14.391
40684W        W13032   6.369  17.246   4.763
40685W        W13033  33.939  43.347  11.465
40686W        W13034   2.885  36.900  14.424
40687W        W13035  34.524  42.995   4.222
40688W        W13036  31.138   5.921  13.546
40689W        W13037  38.926  38.560  12.483
40690W        W13038  18.593   5.852   4.286
40691W        W13039  33.947  42.374   4.753
40692W        W13040  28.137  22.056   0.335
40693W        W13041   6.353  40.046   1.337
40694W        W13042  30.527   3.749  13.958
40695W        W13043  31.139   7.740   1.913
40696W        W13044   1.925  30.497   1.847
40697W        W13045  42.977  16.218  13.915
40698W        W13046  24.166  27.196  14.875
40699W        W13047  40.362   1.899  13.823
40700W        W13048   3.778  24.061   2.413
40701W        W13049  24.152  40.531   0.298
40702W        W13050  10.682  21.597  10.549
40703W        W13051  38.034  20.542   0.334
40704W        W13052  26.041  41.450  11.532
40705W        W13053   9.261   0.304  14.282
40706W        W13054  38.354  24.650  13.908
40707W        W13055  19.242  14.707   0.933
40708W        W13056  16.149  12.783  10.972
40709W        W13057  44.851  21.537  11.978
40710W        W13058  26.478  15.724   1.919
40711W        W13059  31.597  10.348   1.247
40712W        W13060  32.986  17.077   1.755
40713W        W13061  21.232  24.723   3.682
40714W        W13062  18.133   3.821  11.940
40715W        W13063  25.629   1.460  11.397
40716W        W13064  43.983  12.266   2.399
40717W        W13065  15.136  20.580   4.821
40718W        W13066  18.649  23.702   3.698
40719W        W13067  29.606  23.192   2.416
40720W        W13068  34.991  14.233  14.902
40721W        W13069  11.307  41.529   3.710
40722W        W13070  33.513  42.413  11.428
40723W        W13071  37.381  42.011  14.840
40724W        W13072  31.035  29.652  12.029
40725W        W13073  30.542  29.955   1.908
40726W        W13074  21.054  19.724  11.051
40727W        W13075  26.552   8.196   4.755
40728W        W13076  11.750  43.427  11.432
40729W        W13077  38.998  40.313   1.340
40730W        W13078  26.205  29.920   0.796
40731W        W13079   1.740  25.207   0.927
40732W        W13080   7.314  27.613   1.262
40733W        W13081  25.516  39.813  11.550
40734W        W13082  28.515  29.965   2.321
40735W        W13083  11.308  32.522   4.170
40736W        W13084  28.509  14.767   1.380
40737W        W13085   8.657  22.540  13.530
40738W        W13086  37.082  28.090   3.335
40739W        W13087   3.938   2.919   3.175
40740W        W13088  29.454  15.235   0.962
40741W        W13089  21.260  32.433  11.029
40742W        W13090   9.710  41.837  11.403
40743W        W13091  11.743  24.599  12.889
40744W        W13092  28.668  29.653  11.048
40745W        W13093  38.971  24.998  13.425
40746W        W13094  35.891  44.958  10.921
40747W        W13095  13.291   5.400  12.567
40748W        W13096  18.605  18.561  11.383
40749W        W13097  38.943  28.606  12.861
40750W        W13098  18.638  35.579   2.299
40751W        W13099  34.939  44.359  11.428
40752W        W13100  10.208  32.458   4.797
40753W        W13101   9.156  23.022   0.293
40754W        W13102   6.859  10.274   4.773
40755W        W13103   7.401   4.374  14.479
40756W        W13104   1.818  15.611  11.042
40757W        W13105  26.515  11.763  11.934
40758W        W13106  11.221  23.110  13.345
40759W        W13107  35.091   9.667  14.776
40760W        W13108  18.595  37.359   5.304
40761W        W13109  15.805   3.778   3.182
40762W        W13110   4.307  38.923   3.864
40763W        W13111  42.873  14.751   1.350
40764W        W13112  20.144  16.205   3.650
40765W        W13113  23.510  15.247   4.316
40766W        W13114  34.597  13.155   1.333
40767W        W13115  36.549  30.496   3.650
40768W        W13116  24.127  29.553   2.300
40769W        W13117  42.810   2.422   1.730
40770W        W13118   9.666  10.323   3.822
40771W        W13119  11.807  25.020   4.755
40772W        W13120   9.384  44.404  10.569
40773W        W13121  37.834  35.991   5.272
40774W        W13122  40.358  42.019  11.480
40775W        W13123   0.492   8.352   3.749
40776W        W13124   9.752   0.464   3.657
40777W        W13125   9.269  20.170   1.791
40778W        W13126  31.639  11.333   3.703
40779W        W13127  35.954  29.085   4.690
40780W        W13128  15.279  14.700   9.963
40781W        W13129  22.588  39.853   1.232
40782W        W13130  36.522   8.227  10.941
40783W        W13131  22.161   0.392   2.361
40784W        W13132  11.857  36.961  11.502
40785W        W13133  24.592  27.159  12.568
40786W        W13134  40.389  42.440  14.311
40787W        W13135  44.502   1.752  14.957
40788W        W13136  35.101  36.969   2.849
40789W        W13137  37.370   0.871   3.657
40790W        W13138  38.529  29.932  14.787
40791W        W13139   3.241  40.311  11.069
40792W        W13140  32.929  37.510  13.049
40793W        W13141   0.835   3.357  13.378
40794W        W13142  25.173  20.730  13.517
40795W        W13143   4.294  15.100  12.410
40796W        W13144  30.042   7.303  14.921
40797W        W13145  28.948  19.616  12.351
40798W        W13146  40.491  37.967   1.794
40799W        W13147  29.467  27.551   0.243
40800W        W13148  17.067   9.788  14.918
40801W        W13149   0.363  12.716   2.768
40802W        W13150   5.268  21.107   1.334
40803W        W13151  16.104  39.026   4.148
40804W        W13152  38.550  17.587  13.921
40805W        W13153  43.916  36.435   4.230
40806W        W13154  37.963  41.356  12.551
40807W        W13155  38.426  22.178   5.134
40808W        W13156  37.002  18.182  10.993
40809W        W13157  27.137  19.695  12.861
40810W        W13158  35.511  40.348   0.400
40811W        W13159  38.997   0.267  11.410
40812W        W13160  33.497  33.951  14.849
40813W        W13161  22.667  32.483   4.115
40814W        W13162   6.346  10.281  12.388
40815W        W13163  16.605  30.623   0.333
40816W        W13164   4.309  23.991  11.485
40817W        W13165   2.961  22.225  13.832
40818W        W13166  35.862  43.451   4.741
40819W        W13167  31.463  28.033   2.350
40820W        W13168  24.620  26.973   4.754
40821W        W13169  14.712  34.976  10.512
40822W        W13170  26.171  17.102   4.320
40823W        W13171  43.900  36.497   0.382
40824W        W13172  34.044  38.872   4.264
40825W        W13173  31.448  13.722  11.870
40826W        W13174  15.187  23.167   3.850
40827W        W13175   7.667  35.582  13.010
40828W        W13176  41.510  10.241   0.769
40829W        W13177  24.020  23.993   1.703
40830W        W13178  41.382   1.282  12.413
40831W        W13179   7.894  18.706  10.051
40832W        W13180   8.892  43.344   1.242
40833W        W13181   2.876  25.967   2.830
40834W        W13182  39.827  19.270   2.879
40835W        W13183   7.361   7.858   3.813
40836W        W13184  27.124  20.763  14.298
40837W        W13185  33.488  42.499  10.436
40838W        W13186  10.235  12.822   4.297
40839W        W13187  40.019  13.316   0.355
40840W        W13188  33.526  41.341   9.948
40841W        W13189   9.285  28.586  11.496
40842W        W13190  35.527  44.302  12.047
40843W        W13191  29.167  44.467   0.782
40844W        W13192  21.211   4.892  14.485
40845W        W13193   6.273  18.171  14.945
40846W        W13194  27.607  26.067   0.266
40847W        W13195  37.568  43.020  12.938
40848W        W13196  37.441  36.897  13.955
40849W        W13197  41.989  32.077   3.264
40850W        W13198   4.755  20.715  11.472
40851W        W13199  15.599  14.125  14.838
40852W        W13200  24.132  12.748   5.227
40853W        W13201  28.981  43.917  11.113
40854W        W13202  15.662  44.287  11.009
40855W        W13203  10.696  41.519   5.244
40856W        W13204  41.466  29.037   1.711
40857W        W13205  28.055  35.963  11.478
40858W        W13206  44.460  30.518   2.714
40859W        W13207  44.908  22.120  13.429
40860W        W13208  24.678  26.970   2.311
40861W        W13209  27.183  38.012  14.828
40862W        W13210  23.639   8.170   0.256
40863W        W13211  12.269  16.731  10.907
40864W        W13212  37.436  41.293   4.611
40865W        W13213  42.400  11.228  11.064
40866W        W13214  17.193   8.377   3.219
40867W        W13215  26.640  44.375  10.983
40868W        W13216   6.241  40.051  11.960
40869W        W13217  23.985  25.090   1.754
40870W        W13218  36.922  43.327   4.815
40871W        W13219  32.612  15.782  11.866
40872W        W13220  34.010  17.090  12.563
40873W        W13221  38.929  15.717  12.854
40874W        W13222   2.313   7.209  14.955
40875W        W13223  12.689  41.407  12.453
40876W        W13224  41.953  19.538   1.893
40877W        W13225  11.189  43.423  13.896
40878W        W13226  41.853  41.328   4.165
40879W        W13227  42.997  27.505  13.956
40880W        W13228  15.755  40.022  10.042
40881W        W13229   1.776  29.051  14.469
40882W        W13230  36.576  26.535   3.722
40883W        W13231  42.994  42.942   4.671
40884W        W13232  40.535  34.463  11.478
40885W        W13233  20.248  19.762  11.112
40886W        W13234  43.894  32.072   5.137
40887W        W13235  34.473   2.820   1.404
40888W        W13236  43.374  24.515  13.805
40889W        W13237  41.370  43.336   3.286
40890W        W13238  44.362  33.991   3.319
40891W        W13239  15.292   2.415   0.428
40892W        W13240  39.543  19.063   3.180
40893W        W13241  43.439  42.360  10.536
40894W        W13242  28.030  18.239  10.553
40895W        W13243   1.252  13.286   3.166
40896W        W13244  34.605   4.885   0.470
40897W        W13245  38.988  39.990  11.945
40898W        W13246  35.863   0.777   0.773
40899W        W13247  14.143  24.525  14.990
40900W        W13248  14.139   8.849  14.962
40901W        W13249  36.532  10.709   4.192
40902W        W13250  20.036  34.966   4.780
40903W        W13251  28.935  22.740   0.453
40904W        W13252  30.051  28.015  12.962
40905W        W13253   0.771  34.944   2.764
40906W        W13254  41.324  42.478   1.293
40907W        W13255  31.478  26.572   3.669
40908W        W13256   1.381  12.167  12.522
40909W        W13257  24.521  41.899   1.915
40910W        W13258  29.550  44.841   2.858
40911W        W13259  35.450  38.399  13.908
40912W        W13260  30.505  17.576  11.119
40913W        W13261  43.491   5.258   1.771
40914W        W13262   3.904  25.142   2.833
40915W        W13263   2.861   5.423  11.451
40916W        W13264  27.049  20.606   1.370
40917W        W13265   1.792  33.904   1.343
40918W        W13266  19.554  30.935   0.901
40919W        W13267  42.968   3.922  11.606
40920W        W13268  14.173   3.443  11.017
40921W        W13269  43.343  36.082   1.405
40922W        W13270  27.192  37.890  13.963
40923W        W13271  28.078  12.714   1.769
40924W        W13272   8.262  28.151  12.394
40925W        W13273  43.835  35.407  11.999
40926W        W13274   8.769  29.426   0.844
40927W        W13275   5.390  33.959  12.068
40928W        W13276  11.334   8.278   1.341
40929W        W13277   9.885  39.016   2.209
40930W        W13278  18.077  10.787   1.771
40931W        W13279  15.159  37.871  11.870
40932W        W13280  22.083  23.528   3.669
40933W        W13281   1.741  29.967   3.866
40934W        W13282  40.049  39.356   2.374
40935W        W13283   2.843  35.076   4.771
40936W        W13284  12.336  22.727  11.613
40937W        W13285  23.056  40.364  11.953
40938W        W13286  41.883  16.259   3.836
40939W        W13287   5.269  37.011   0.468
40940W        W13288  40.810  18.189  12.517
40941W        W13289  31.928  13.793  12.855
40942W        W13290   9.648  11.237   0.800
40943W        W13291  33.918  25.171   1.378
40944W        W13292  42.994  33.536  11.395
40945W        W13293  41.827  32.104  12.090
40946W        W13294  33.558  10.345   2.331
40947W        W13295  37.896  27.682  14.507
40948W        W13296   9.196   7.872   3.364
40949W        W13297  35.566  27.052  12.914
40950W        W13298  26.106  36.073   3.757
40951W        W13299  38.414  15.760   0.752
40952W        W13300   8.814  31.573   3.153
40953W        W13301   0.920   5.288   0.809
40954W        W13302  17.661  42.006   0.358
40955W        W13303  26.984  11.679  12.048
40956W        W13304  34.461  25.172  14.445
40957W        W13305   0.421  14.814   2.834
40958W        W13306  24.050  43.437   3.230
40959W        W13307  34.556  17.659  14.887
40960W        W13308  17.139   9.324   0.415
40961W        W13309  21.115  38.880  12.053
40962W        W13310   6.393  13.217  10.983
40963W        W13311   0.822  31.444   3.186
40964W        W13312  30.055  29.539   3.837
40965W        W13313  25.005  39.980  12.474
40966W        W13314   2.257  19.231  14.341
40967W        W13315  31.476  11.631  11.918
40968W        W13316  15.193  28.567  10.906
40969W        W13317  38.040  12.633  13.917
40970W        W13318  32.940  14.621  10.460
40971W        W13319  35.553  11.195   4.740
40972W        W13320   5.281  39.501   2.769
40973W        W13321   3.442   4.912  10.491
40974W        W13322  41.794  15.182  11.508
40975W        W13323  34.529   5.821  14.946
40976W        W13324  16.152   8.287   2.674
40977W        W13325  16.190  33.087   3.664
40978W        W13326  15.138  19.178   4.693
40979W        W13327  41.831   1.253   4.179
40980W        W13328  20.524  44.466   1.758
40981W        W13329  20.619  33.001  10.929
40982W        W13330   9.198  33.471  14.926
40983W        W13331  13.140   6.720  11.048
40984W        W13332  43.926  11.762   3.326
40985W        W13333  29.032   7.241   3.289
40986W        W13334  26.094   7.858  11.039
40987W        W13335  25.203  18.759   2.696
40988W        W13336  24.513  35.949  11.860
40989W        W13337  41.490  27.590  11.856
40990W        W13338  16.077  36.953  12.089
40991W        W13339  28.652  28.585   3.306
40992W        W13340  17.793  39.401   1.744
40993W        W13341   6.374  19.212  10.637
40994W        W13342  40.053   0.930  14.762
40995W        W13343   9.267  37.386   1.312
40996W        W13344  17.194  27.181  11.926
40997W        W13345  31.144   0.470  11.059
40998W        W13346  14.685  40.990   4.113
40999W        W13347  13.206   3.406   4.670
41000W        W13348  23.674  30.429   2.695
41001W        W13349  29.472  29.157   1.875
41002W        W13350  16.141  37.030   1.218
41003W        W13351   6.425  31.994  10.069
41004W        W13352  10.732  42.938   0.843
41005W        W13353   4.721  34.053  11.598
41006W        W13354  23.994  41.921   2.895
41007W        W13355  12.221   7.797  10.506
41008W        W13356   2.891  36.938   3.797
41009W        W13357  33.453   5.292  14.971
41010W        W13358   4.814  30.421  12.457
41011W        W13359  14.718  23.554   0.466
41012W        W13360  26.601  36.515   1.746
41013W        W13361  33.958  18.147   2.673
41014W        W13362   8.682  29.923   4.259
41015W        W13363  44.465  13.274  11.402
41016W        W13364  21.745  15.202  10.434
41017W        W13365  36.481   4.784   2.240
41018W        W13366  32.987   1.960   1.311
41019W        W13367   2.445   3.777  14.462
41020W        W13368  36.986  41.499  11.585
41021W        W13369  19.769  20.748  14.412
41022W        W13370   8.768  17.624   2.881
41023W        W13371  40.047  15.652   1.780
41024W        W13372  26.137   9.870   0.349
41025W        W13373  30.573  36.504   5.255
41026W        W13374  36.852  24.061  12.094
41027W        W13375  15.120  32.452   3.266
41028W        W13376   7.903  42.817  11.520
41029W        W13377  27.126  33.457  13.442
41030W        W13378  16.094   6.807  12.878
41031W        W13379   1.426  11.655  13.320
41032W        W13380  24.615  11.358   2.208
41033W        W13381  13.238  38.362  11.479
41034W        W13382  21.727   6.710  14.772
41035W        W13383  24.620  27.594  14.761
41036W        W13384  30.136  39.053  11.545
41037W        W13385  39.948  31.449  11.119
41038W        W13386  32.405  15.688   3.671
41039W        W13387  28.523   7.197   3.729
41040W        W13388  31.913  15.288   2.247
41041W        W13389   2.342   6.297   3.797
41042W        W13390  14.645  40.899   1.817
41043W        W13391  29.109  25.998  14.016
41044W        W13392  12.171   7.338  14.352
41045W        W13393   3.236  41.317  13.468
41046W        W13394  37.559  16.583  13.968
41047W        W13395  37.012  30.451  11.052
41048W        W13396  25.082  34.410  10.999
41049W        W13397  25.123  23.127   2.675
41050W        W13398  27.945   2.398   1.441
41051W        W13399   2.423  22.123  14.424
41052W        W13400  26.512  20.147  14.308
41053W        W13401  34.943  31.472   4.168
41054W        W13402   0.272  37.043   0.935
41055W        W13403  41.807   2.963   2.324
41056W        W13404  20.596  41.434   1.884
41057W        W13405  24.027  28.973   1.293
41058W        W13406  11.272  10.687  13.491
41059W        W13407   3.788  42.312   1.419
41060W        W13408  41.356   6.733   0.343
41061W        W13409   5.278   3.907   1.788
41062W        W13410  28.112  18.574  14.948
41063W        W13411  22.073  14.296   0.450
41064W        W13412   7.286  43.987  10.445
41065W        W13413  42.904  33.094  14.814
41066W        W13414   2.252   8.406  13.964
41067W        W13415   8.228   9.189  13.875
41068W        W13416   1.880   2.334   4.233
41069W        W13417   1.875   2.407  10.477
41070W        W13418   6.243  21.547   1.741
41071W        W13419  22.221  28.122  14.760
41072W        W13420  24.630  13.255  11.398
41073W        W13421  15.270  37.962  10.944
41074W        W13422   7.186   5.248  13.019
41075W        W13423  38.403  23.653  14.345
41076W        W13424  27.185   0.834   4.222
41077W        W13425  39.446  14.800  12.457
41078W        W13426  42.497  32.007   2.771
41079W        W13427  41.003  11.238  14.025
41080W        W13428  43.288  14.753   2.257
41081W        W13429   9.394   7.719   2.362
41082W        W13430  37.523  33.973   4.318
41083W        W13431  15.725  29.061  14.791
41084W        W13432  18.250  31.151   3.632
41085W        W13433  42.990  44.486   2.203
41086W        W13434   4.344  17.731   1.709
41087W        W13435  35.575  11.168   2.752
41088W        W13436  30.050   3.731  12.083
41089W        W13437  37.568  27.011  11.414
41090W        W13438  34.403  40.425   4.221
41091W        W13439   4.241  40.542  13.442
41092W        W13440   7.206  19.134   2.416
41093W        W13441   6.771  19.608  13.907
41094W        W13442  38.952   9.848   4.638
41095W        W13443   3.431   5.712  14.368
41096W        W13444  31.472   5.877   9.982
41097W        W13445   1.437  14.650  14.872
41098W        W13446  14.315  21.715  14.891
41099W        W13447  43.853  19.596  14.399
41100W        W13448  26.637   4.321   2.801
41101W        W13449  35.402  27.487  13.383
41102W        W13450   0.335   5.741   2.276
41103W        W13451   4.922   1.387  10.598
41104W        W13452  14.151  21.214  11.060
41105W        W13453  11.222  36.521   0.289
41106W        W13454  41.918  30.001   3.212
41107W        W13455  40.443  33.621   2.690
41108W        W13456  21.262   3.308  10.916
41109W        W13457  17.116  21.072   1.397
41110W        W13458  43.993   3.756  10.594
41111W        W13459  35.022  12.689  11.110
41112W        W13460  44.425  28.674   2.379
41113W        W13461  35.461  15.729  13.910
41114W        W13462   2.400  16.292  12.367
41115W        W13463  16.135  27.496  11.091
41116W        W13464  17.145  31.574  13.851
41117W        W13465  19.054  28.131  13.953
41118W        W13466  10.692  23.031  14.332
41119W        W13467  38.400  20.676  12.404
41120W        W13468  27.128  19.045  11.039
41121W        W13469  10.178  41.359  12.386
41122W        W13470   2.358  22.995   3.716
41123W        W13471   8.689   0.270  11.103
41124W        W13472   2.263  34.050  12.082
41125W        W13473  36.465  16.144  14.769
41126W        W13474  31.416   9.336  11.047
41127W        W13475  24.130  40.462  14.403
41128W        W13476   2.876   7.767  10.568
41129W        W13477   1.895   8.248   2.773
41130W        W13478  19.053  42.859  12.013
41131W        W13479  34.045  44.865  14.486
41132W        W13480  24.003  15.208   0.851
41133W        W13481  11.363  27.674   1.773
41134W        W13482  21.148  25.706  14.492
41135W        W13483   1.432   1.954  14.438
41136W        W13484  23.667  15.758   1.694
41137W        W13485  14.672  17.226   5.269
41138W        W13486  42.892   5.354  14.991
41139W        W13487  39.869  27.501   1.925
41140W        W13488   9.314  25.999   3.275
41141W        W13489  33.076  19.069  12.498
41142W        W13490  27.172  43.358   3.344
41143W        W13491  39.500  42.890  12.412
41144W        W13492  37.879   4.940  12.941
41145W        W13493  16.100  10.636  10.450
41146W        W13494  42.306  36.059   4.264
41147W        W13495   3.271  20.098  14.457
41148W        W13496   1.237   5.202  13.496
41149W        W13497  41.995  14.719  13.963
41150W        W13498  32.027  43.498   3.845
41151W        W13499  18.570  28.931   4.350
41152W        W13500  22.223  41.508   4.602
41153W        W13501  15.310   3.214  10.927
41154W        W13502   0.912   2.958   1.843
41155W        W13503   3.388  40.518   4.254
41156W        W13504  40.447  33.468   3.645
41157W        W13505  14.249   4.887   1.359
41158W        W13506   3.899   2.470   3.765
41159W        W13507  17.719   7.679   3.163
41160W        W13508  32.597  27.078   2.212
41161W        W13509  34.392  35.358   1.764
41162W        W13510  20.240   5.278  13.968
41163W        W13511  34.939  15.740  11.977
41164W        W13512  27.623  32.460   1.217
41165W        W13513  36.029  18.631   3.736
41166W        W13514   0.783  37.353  10.005
41167W        W13515  22.101  28.007   3.326
41168W        W13516  31.449  36.922  12.457
41169W        W13517  21.242  28.623  13.366
41170W        W13518  18.178  39.497   4.343
41171W        W13519  21.685  26.702  12.397
41172W        W13520  38.557  32.635   1.858
41173W        W13521   7.330   4.907   1.287
41174W        W13522  13.152  23.108   0.359
41175W        W13523  39.981  15.248   4.328
41176W        W13524  16.604   7.879   4.790
41177W        W13525  20.581  42.872  14.953
41178W        W13526  20.728   4.386   2.360
41179W        W13527  26.976  37.444   2.675
41180W        W13528   2.470  36.443   3.378
41181W        W13529  27.009  39.023  13.942
41182W        W13530  27.059  26.671   4.719
41183W        W13531  36.873  37.386   4.242
41184W        W13532  30.072  11.292  14.353
41185W        W13533  25.702   0.450  11.420
41186W        W13534   9.721  11.779   2.765
41187W        W13535  15.222  44.797  11.537
41188W        W13536  17.800  19.074   2.714
41189W        W13537  17.163  44.401   2.242
41190W        W13538   1.766  31.057  10.602
41191W        W13539  34.035  36.955   3.332
41192W        W13540  23.577  21.680   3.203
41193W        W13541  24.215  20.619   1.760
41194W        W13542   1.858   3.736  12.454
41195W        W13543  23.609  41.930   0.901
41196W        W13544   9.708  42.844  12.993
41197W        W13545  23.518  13.326   1.888
41198W        W13546   4.387   7.402  11.452
41199W        W13547  12.347   6.366  10.598
41200W        W13548  38.448  12.742  12.006
41201W        W13549  37.995  24.039  12.448
41202W        W13550  32.558  13.672  13.822
41203W        W13551   4.838  21.047  14.965
41204W        W13552   9.745   7.810   1.408
41205W        W13553   5.729  27.571   4.325
41206W        W13554  26.954   0.344  12.540
41207W        W13555   4.716   6.276  10.644
41208W        W13556  31.549  25.130   0.732
41209W        W13557  35.586  18.731  11.907
41210W        W13558  32.532   8.236   4.278
41211W        W13559  22.654  28.564  14.373
41212W        W13560   1.391   2.286  14.295
41213W        W13561  33.469  27.000  12.435
41214W        W13562  32.548  17.701  13.424
41215W        W13563  11.667  13.133  12.030
41216W        W13564  17.667  33.018   1.724
41217W        W13565  14.124  26.166   3.268
41218W        W13566  39.975   9.314  11.988
41219W        W13567   7.382   4.445   2.828
41220W        W13568   3.933  13.319   1.259
41221W        W13569  40.547  22.579  14.288
41222W        W13570  25.151  13.643  14.842
41223W        W13571   8.282  13.603   3.185
41224W        W13572   2.913  30.465  12.019
41225W        W13573  18.277  18.133  14.844
41226W        W13574   3.376  43.488   3.267
41227W        W13575  32.896  31.031  11.535
41228W        W13576  24.578  15.095  14.900
41229W        W13577   1.351   5.224  14.301
41230W        W13578   4.934  26.682   2.832
41231W        W13579  24.666  11.705  12.934
41232W        W13580  13.681   9.778  13.022
41233W        W13581   8.279  12.296   4.189
41234W        W13582   4.274  15.183  11.461
41235W        W13583  16.797  42.341  13.329
41236W        W13584  31.598   0.436  10.971
41237W        W13585  31.018   2.326  12.861
41238W        W13586  22.530  18.202   0.321
41239W        W13587  25.097  12.712   1.272
41240W        W13588   0.434  39.017  11.575
41241W        W13589  25.165  40.345  10.475
41242W        W13590   6.219   5.828   4.626
41243W        W13591  13.779  16.606   0.300
41244W        W13592  44.777  15.706  14.306
41245W        W13593   2.311  13.776  12.537
41246W        W13594  21.527  39.342   0.468
41247W        W13595  29.939  25.649   2.334
41248W        W13596  36.505   7.274  13.960
41249W        W13597  11.271  42.852   1.826
41250W        W13598  29.090  33.091  13.924
41251W        W13599   7.827   1.305  12.009
41252W        W13600  22.024  24.517  14.894
41253W        W13601  34.987   0.372   2.399
41254W        W13602  11.327  32.589  14.414
41255W        W13603   0.409  32.986   1.924
41256W        W13604  41.990   5.207   3.822
41257W        W13605  23.499  24.212   2.808
41258W        W13606  39.032  39.861  13.483
41259W        W13607  22.083  24.133   2.864
41260W        W13608  10.235  17.226  14.394
41261W        W13609  24.557  33.909  14.275
41262W        W13610  21.080  31.154   2.690
41263W        W13611  17.093  21.247  11.009
41264W        W13612  17.708   3.783  12.375
41265W        W13613  39.814  38.530  11.591
41266W        W13614   0.415   3.361   3.235
41267W        W13615  26.649  41.409  10.519
41268W        W13616   7.328   3.871   1.299
41269W        W13617  27.551  44.484  13.369
41270W        W13618  12.847  21.059   4.745
41271W        W13619  19.230   5.738  13.034
41272W        W13620  43.496  41.859   0.414
41273W        W13621  26.694  31.473  13.055
41274W        W13622  33.041  24.696   2.807
41275W        W13623  38.496  36.466   4.158
41276W        W13624  20.088   4.366   3.797
41277W        W13625  25.677  38.490  13.811
41278W        W13626  13.243  29.489   3.831
41279W        W13627  35.400  44.392   3.228
41280W        W13628  11.622  27.577   4.147
41281W        W13629   7.819   8.840  11.492
41282W        W13630   3.313  44.906   0.365
41283W        W13631  19.598  37.566   3.159
41284W        W13632  31.980  37.009   9.946
41285W        W13633  31.074  11.699   2.664
41286W        W13634  35.999  24.054   2.808
41287W        W13635   1.760  35.063   4.752
41288W        W13636  35.586  20.208  14.804
41289W        W13637  23.095  23.541  10.915
41290W        W13638  37.961   9.721   3.275
41291W        W13639  10.361  18.672   3.216
41292W        W13640  11.207  19.625   2.417
41293W        W13641  16.791   7.395  11.092
41294W        W13642  41.803  42.435  12.944
41295W        W13643  36.463  35.900  10.964
41296W        W13644   3.256  27.625   1.711
41297W        W13645  14.833  19.615   1.822
41298W        W13646  23.665  13.636   1.361
41299W        W13647  20.629  14.225   0.436
41300W        W13648  14.595  41.031   3.358
41301W        W13649   1.777  36.999  14.462
41302W        W13650  30.128  11.716  11.075
41303W        W13651  44.315   1.827  13.443
41304W        W13652  24.203  13.284   2.806
41305W        W13653  40.493  10.831  14.938
41306W        W13654  36.055  30.623   0.262
41307W        W13655  44.284  44.923   4.227
41308W        W13656  24.076  14.152  11.884
41309W        W13657  30.463  42.311  12.450
41310W        W13658   1.325  27.608   3.238
41311W        W13659  32.994  17.280  11.976
41312W        W13660  29.617  26.513   0.307
41313W        W13661   2.801  38.514  13.929
41314W        W13662  20.622  16.151   4.262
41315W        W13663  36.035  39.464   0.876
41316W        W13664   9.280  10.826  12.092
41317W        W13665  26.035  31.432  11.897
41318W        W13666   9.262  39.832   2.330
41319W        W13667  24.624  38.347  11.563
41320W        W13668  26.080  11.222   0.377
41321W        W13669  16.214  21.547   3.641
41322W        W13670  40.971  20.268  11.066
41323W        W13671  34.917  42.859  11.566
41324W        W13672  29.621  35.531  13.038
41325W        W13673  29.626  23.501   3.299
41326W        W13674  17.062   9.230   0.747
41327W        W13675  10.682  19.162   2.381
41328W        W13676  10.260  32.481   0.823
41329W        W13677   2.377  27.013  12.889
41330W        W13678   9.746   6.676  12.542
41331W        W13679  40.543   6.293  10.600
41332W        W13680  22.074  40.819   3.212
41333W        W13681  37.565  44.891   3.367
41334W        W13682  20.070   1.281  13.385
41335W        W13683  15.084  37.356  12.022
41336W        W13684   8.883   1.793  13.822
41337W        W13685  17.691  21.070   3.235
41338W        W13686   0.763   2.908   2.216
41339W        W13687  29.635  42.473  10.930
41340W        W13688  32.895  40.345  14.866
41341W        W13689  35.028  19.599   4.329
41342W        W13690  40.863  36.521   4.700
41343W        W13691  38.364  41.513  13.365
41344W        W13692   3.346  17.141   4.652
41345W        W13693  11.177  31.515   2.335
41346W        W13694  37.924  22.040  11.116
41347W        W13695  33.877  11.824  13.397
41348W        W13696  34.559  27.152   1.861
41349W        W13697  35.066   2.341   4.322
41350W        W13698  38.054   3.286   3.729
41351W        W13699  37.845  22.167  11.956
41352W        W13700  41.392  16.687  14.962
41353W        W13701  17.758  18.606  13.955
41354W        W13702  14.134   2.375  10.566
41355W        W13703  19.054   3.727   3.636
41356W        W13704  30.082  37.570   4.325
41357W        W13705  25.077  22.247  13.455
41358W        W13706  34.940   0.793  11.442
41359W        W13707  44.829   3.768   0.279
41360W        W13708   3.763  38.937   2.697
41361W        W13709  18.209  44.767  14.347
41362W        W13710  29.452  18.149   2.788
41363W        W13711   6.919  36.564  14.841
41364W        W13712  38.914  29.932  13.811
41365W        W13713  20.689  17.732   3.871
41366W        W13714  44.503  13.709   3.276
41367W        W13715  22.166   7.728   5.686
41368W        W13716  27.973  32.518  13.061
41369W        W13717   6.708   2.453   4.237
41370W        W13718  31.032  10.823   1.726
41371W        W13719  13.612  23.635  11.059
41372W        W13720  19.779  13.245   1.920
41373W        W13721   1.954   1.931  13.034
41374W        W13722  16.638  13.647  13.990
41375W        W13723  23.134  10.793  14.896
41376W        W13724   8.753  25.056   4.775
41377W        W13725   0.394  39.894   1.346
41378W        W13726  34.437   6.204  11.435
41379W        W13727  12.739  24.686   3.811
41380W        W13728  15.630  25.647  12.380
41381W        W13729  25.666  34.573  13.546
41382W        W13730  24.500  20.070  12.476
41383W        W13731  42.499  34.438  12.549
41384W        W13732  16.766   5.797  10.925
41385W        W13733  27.536  13.171  14.340
41386W        W13734   6.194  42.429  10.480
41387W        W13735  10.758  13.711  11.048
41388W        W13736  11.626  19.776   1.405
41389W        W13737  24.083  16.750   2.796
41390W        W13738   6.388  18.278   1.867
41391W        W13739  42.922  19.640   3.288
41392W        W13740  37.852  15.200   0.861
41393W        W13741   9.730  21.132   4.124
41394W        W13742  23.527  39.866   4.184
41395W        W13743  17.702  32.005   3.747
41396W        W13744  25.534  35.447  13.337
41397W        W13745   1.731  25.613  13.523
41398W        W13746  43.440  10.741  10.917
41399W        W13747  22.604  38.879   0.834
41400W        W13748  43.882  39.961   2.310
41401W        W13749   9.676  41.877  10.972
41402W        W13750  39.391  39.495   4.190
41403W        W13751   1.936   1.843   3.271
41404W        W13752   6.368  20.564   2.232
41405W        W13753  11.727  34.485   0.768
41406W        W13754  17.595  43.818  14.315
41407W        W13755  22.070  19.749   4.290
41408W        W13756  37.409   2.756   0.301
41409W        W13757  32.982  36.948   9.603
41410W        W13758  37.888  41.352  10.580
41411W        W13759  15.149  25.553   1.701
41412W        W13760  25.074  14.593  12.971
41413W        W13761  37.909  19.775  13.893
41414W        W13762   7.744  38.827   3.642
41415W        W13763  16.201  27.619  13.060
41416W        W13764  39.054   0.436  10.483
41417W        W13765  43.014   0.918  13.546
41418W        W13766  16.763  33.547  14.485
41419W        W13767  11.788  21.607  13.856
41420W        W13768  22.090  22.145  13.937
41421W        W13769   5.902  17.746  13.934
41422W        W13770   8.744  32.622   1.759
41423W        W13771  20.637  15.289  12.961
41424W        W13772  13.195   8.209   0.312
41425W        W13773   9.171   3.790   3.638
41426W        W13774   5.814  44.485  10.482
41427W        W13775  12.617  14.219   0.297
41428W        W13776  28.072  19.182  14.937
41429W        W13777  37.376   0.896   1.327
41430W        W13778  44.983  38.039  14.853
41431W        W13779  40.488   5.803   1.217
41432W        W13780  24.666  29.658  12.407
41433W        W13781  18.053  12.231   4.809
41434W        W13782   5.216  41.888  14.428
41435W        W13783  44.987  33.455   2.773
41436W        W13784  19.181  10.143   3.766
41437W        W13785  34.491  13.707  12.437
41438W        W13786   3.939  34.565  11.890
41439W        W13787   4.890   9.732   0.268
41440W        W13788  31.559   5.378  12.364
41441W        W13789  29.080  15.603  11.859
41442W        W13790   8.791   9.675  13.387
41443W        W13791  10.209  16.132   3.845
41444W        W13792  39.943  43.437   0.869
41445W        W13793  29.983  39.907  12.929
41446W        W13794  36.985  15.811  13.515
41447W        W13795   0.768   1.404   0.441
41448W        W13796   4.444  36.497   2.808
41449W        W13797  15.806  23.665  11.480
41450W        W13798  13.607   9.339   4.601
41451W        W13799   1.801  15.249   4.652
41452W        W13800  27.528  35.441  10.630
41453W        W13801   7.816  31.566   2.382
41454W        W13802  10.867   1.384   0.939
41455W        W13803   9.343  25.498   2.785
41456W        W13804  41.511  17.736   2.760
41457W        W13805  11.661  20.251  14.383
41458W        W13806   4.270  22.527   3.355
41459W        W13807   9.390  11.160  11.590
41460W        W13808  21.724  26.030   4.603
41461W        W13809  36.965  35.589   1.909
41462W        W13810  35.442  10.336   1.791
41463W        W13811  27.671  39.502   0.319
41464W        W13812  37.928  41.338   0.383
41465W        W13813  36.473  27.506   0.801
41466W        W13814  35.039   8.378  12.993
41467W        W13815  26.056  27.626   0.343
41468W        W13816  35.503   0.477   1.397
41469W        W13817  43.847   4.345  14.440
41470W        W13818  30.562  27.163   2.416
41471W        W13819  43.779  42.303  13.441
41472W        W13820  37.961  38.057   3.740
41473W        W13821  31.036   0.371   2.698
41474W        W13822  40.845   3.456   1.327
41475W        W13823  32.507  11.361   2.186
41476W        W13824  28.595   0.827   4.334
41477W        W13825  14.773  30.914  10.634
41478W        W13826  37.931  30.979  14.968
41479W        W13827   6.210  14.274   4.831
41480W        W13828   4.705  18.160  10.481
41481W        W13829  12.851  44.902  14.350
41482W        W13830  40.033  18.659   2.315
41483W        W13831  29.592   6.415   1.281
41484W        W13832  38.378  14.798  14.396
41485W        W13833   0.782  43.379   4.154
41486W        W13834  34.119   9.319  14.868
41487W        W13835  28.122  22.233   3.725
41488W        W13836  16.268  35.379  14.988
41489W        W13837   4.777  11.795   0.420
41490W        W13838  15.740  24.543   3.630
41491W        W13839  30.656  35.077   1.440
41492W        W13840  38.821  17.580  10.494
41493W        W13841   9.760   8.732  12.006
41494W        W13842  43.487  15.732  11.996
41495W        W13843  10.643   0.919  13.907
41496W        W13844  30.512  31.935  11.489
41497W        W13845  27.456  12.340  13.830
41498W        W13846   4.391  24.046  11.980
41499W        W13847  41.801  23.040   4.118
41500W        W13848  26.604  41.362   2.869
41501W        W13849  22.019  14.708   3.788
41502W        W13850  39.024   5.697   0.345
41503W        W13851  31.450  38.541   1.277
41504W        W13852  34.478  24.077  14.356
41505W        W13853  38.432  23.728  11.900
41506W        W13854   7.343   2.739  11.434
41507W        W13855  29.989  42.443  14.919
41508W        W13856  42.900  11.160   4.727
41509W        W13857  27.993  35.086  10.965
41510W        W13858  29.963  28.171  10.425
41511W        W13859   5.780  12.362  10.621
41512W        W13860  21.034  39.416   1.722
41513W        W13861  33.919  30.632  14.898
41514W        W13862  42.867  14.208   0.767
41515W        W13863  37.377  24.606  13.892
41516W        W13864  39.352  17.796  14.876
41517W        W13865  22.091   3.788   4.788
41518W        W13866  10.277  13.776   3.846
41519W        W13867   2.941  40.371  11.580
41520W        W13868  34.489  21.549  13.861
41521W        W13869  32.521  13.267  10.497
41522W        W13870   8.854  34.103   2.729
41523W        W13871  14.798  15.302  11.990
41524W        W13872  20.126   5.326  14.489
41525W        W13873  21.732  24.723  13.920
41526W        W13874  43.367  40.529  13.907
41527W        W13875  11.781  44.280  13.399
41528W        W13876   1.392  41.940   0.808
41529W        W13877  28.071  35.573  11.056
41530W        W13878  19.248  26.490  11.522
41531W        W13879  31.942   7.884   4.302
41532W        W13880  29.503  11.653   4.622
41533W        W13881  19.620   9.372  13.326
41534W        W13882   3.322  27.961   2.688
41535W        W13883  25.160  27.115  13.461
41536W        W13884   2.445  18.100  12.444
41537W        W13885  26.683  20.056   2.417
41538W        W13886  36.360   6.402   1.710
41539W        W13887  41.027  11.662  13.923
41540W        W13888  34.420  13.731  14.351
41541W        W13889   9.714  22.218  13.500
41542W        W13890  38.442   7.728  10.477
41543W        W13891  41.406  38.991  12.922
41544W        W13892  39.873  36.075  10.987
41545W        W13893  10.174  36.559  10.904
41546W        W13894  39.956  16.269  13.311
41547W        W13895  11.311   3.234   3.329
41548W        W13896  40.358  30.633   3.704
41549W        W13897  34.873  15.651  11.567
41550W        W13898  18.664  35.911   2.204
41551W        W13899  14.128  23.167  14.951
41552W        W13900  35.030   3.746  12.917
41553W        W13901  38.044  12.683   3.794
41554W        W13902  41.023  28.090   3.665
41555W        W13903  37.925  33.527  14.760
41556W        W13904   3.796  15.133  12.011
41557W        W13905  16.266   1.896  10.447
41558W        W13906  20.575   2.445   0.876
41559W        W13907   5.268  38.562  13.370
41560W        W13908  34.520   4.436  13.051
41561W        W13909  32.990  26.593   0.347
41562W        W13910  27.149  26.536  10.600
41563W        W13911  40.934  21.648   4.787
41564W        W13912  26.046  13.118   4.290
41565W        W13913   3.382   5.863  11.125
41566W        W13914  34.476  12.822   0.778
41567W        W13915  15.298   7.685   4.284
41568W        W13916  22.574  24.054   0.378
41569W        W13917   9.686  17.787  13.926
41570W        W13918  20.576  20.264   4.327
41571W        W13919  40.486   9.735   4.794
41572W        W13920  28.944  23.038   3.824
41573W        W13921  40.534  16.085   0.337
41574W        W13922  16.774  20.268  12.364
41575W        W13923  10.376  36.841   1.348
41576W        W13924  35.082  42.876   2.360
41577W        W13925  35.066  32.614   2.265
41578W        W13926  17.799  17.567   4.602
41579W        W13927  42.917  34.413   1.930
41580W        W13928  38.008  19.618  12.877
41581W        W13929  16.761  21.216   4.167
41582W        W13930  28.550  33.408   2.389
41583W        W13931  44.383  37.344   1.811
41584W        W13932  25.987  40.362   2.232
41585W        W13933  33.554   7.666  11.044
41586W        W13934  33.050  37.450  11.518
41587W        W13935  22.744  15.241  13.906
41588W        W13936  14.596  44.440   4.748
41589W        W13937  29.446   5.890  12.572
41590W        W13938   6.902  24.991  11.036
41591W        W13939  24.220   9.360   2.710
41592W        W13940  18.701  24.481   2.829
41593W        W13941  13.800  16.659   4.746
41594W        W13942  30.949  30.479   2.281
41595W        W13943   7.385   7.889  10.439
41596W        W13944  24.103  20.204   3.184
41597W        W13945  42.887  15.167   2.197
41598W        W13946  11.223  36.992   0.466
41599W        W13947   8.254   7.304   1.325
41600W        W13948  11.818  20.759  13.406
41601W        W13949  34.959  44.458  13.444
41602W        W13950  23.093  14.746   0.315
41603W        W13951   8.811  35.524  10.998
41604W        W13952  14.233  26.649   4.187
41605W        W13953   1.967  22.660   1.907
41606W        W13954  32.576  19.212   0.857
41607W        W13955  33.109  38.006  14.318
41608W        W13956  44.309  24.151  14.923
41609W        W13957  25.615  39.327  12.887
41610W        W13958  20.631  20.625   4.295
41611W        W13959  37.449   4.308   4.265
41612W        W13960  24.708  28.174  13.470
41613W        W13961   6.887   1.931  12.404
41614W        W13962  10.187  11.221  14.354
41615W        W13963  16.586  44.924  13.358
41616W        W13964  27.002  20.660  11.915
41617W        W13965   5.333  17.194  10.603
41618W        W13966   4.719  16.300   4.651
41619W        W13967  20.680  29.976   1.300
41620W        W13968  41.827   8.788   3.720
41621W        W13969  14.685  26.515  14.863
41622W        W13970  41.859   4.239   3.633
41623W        W13971   7.888   3.368  12.090
41624W        W13972  20.601  38.482  10.601
41625W        W13973  15.732  39.340   2.243
41626W        W13974  34.877  22.207   4.711
41627W        W13975   9.186  12.272  12.471
41628W        W13976  35.375  24.547   4.750
41629W        W13977  34.887  16.807  14.466
41630W        W13978   7.847  31.937   4.237
41631W        W13979  41.813   2.847   0.337
41632W        W13980  36.456  27.636  13.372
41633W        W13981  38.517  35.869  13.319
41634W        W13982  37.383  39.337   3.647
41635W        W13983  27.059  32.000   0.784
41636W        W13984  30.559  36.850   4.715
41637W        W13985   3.783   9.344   0.963
41638W        W13986  23.691  38.022  10.509
41639W        W13987   2.443   0.327   2.903
41640W        W13988  16.705  15.642  10.899
41641W        W13989   3.321   3.845  12.457
41642W        W13990   7.754  44.504  11.921
41643W        W13991  10.778   2.397  11.881
41644W        W13992  43.367  37.020   2.206
41645W        W13993  10.662  26.464   1.445
41646W        W13994  24.198  30.524  14.907
41647W        W13995  40.038  24.082   1.262
41648W        W13996   8.693   1.349  13.403
41649W        W13997   7.838  30.490   1.304
41650W        W13998  32.081   8.825   5.734
41651W        W13999  36.488  26.491  10.011
41652W        W14000  17.776  13.636   2.206
41653W        W14001  37.865  27.517  14.867
41654W        W14002  41.357  23.703   3.379
41655W        W14003   8.728  19.573  11.589
41656W        W14004  37.362  34.456  13.004
41657W        W14005  44.491  43.355  11.416
41658W        W14006  28.662  19.231   1.746
41659W        W14007  42.010  10.262   3.696
41660W        W14008   3.904  26.684   1.766
41661W        W14009  23.628  23.094   3.764
41662W        W14010  27.576  27.574   2.244
41663W        W14011   3.875  43.384   1.767
41664W        W14012  16.791   2.389  10.966
41665W        W14013  43.326  38.499   2.852
41666W        W14014   0.889  40.958  14.409
41667W        W14015   6.748  36.916   0.860
41668W        W14016   9.376  29.546  12.868
41669W        W14017  18.588  24.629  14.294
41670W        W14018  28.606  44.935   2.708
41671W        W14019  41.803  25.175   5.179
41672W        W14020  29.468  29.534  12.442
41673W        W14021   9.704  32.493   4.662
41674W        W14022  26.979  34.998  14.808
41675W        W14023  33.030  39.441  14.300
41676W        W14024  17.167  41.353   3.356
41677W        W14025  27.185  10.307  13.493
41678W        W14026  39.392   7.735   1.833
41679W        W14027  38.513  15.813  11.110
41680W        W14028  19.182  40.399   3.630
41681W        W14029  30.116   2.326  14.451
41682W        W14030   0.937  17.300   5.094
41683W        W14031  29.008  22.246   3.670
41684W        W14032  42.992  34.482   1.318
41685W        W14033  13.194   7.747   1.887
41686W        W14034  25.142   9.298  13.989
41687W        W14035  39.544   6.303   4.666
41688W        W14036   9.752  32.108  13.044
41689W        W14037   9.725  17.616  10.525
41690W        W14038  43.877  40.462   3.319
41691W        W14039  12.764  15.612   0.926
41692W        W14040  33.957   8.887   5.306
41693W        W14041  13.695  25.551  10.946
41694W        W14042  12.155  28.968  13.545
41695W        W14043  27.175  31.644  10.612
41696W        W14044  39.949  42.384  11.396
41697W        W14045   6.890  18.631  14.807
41698W        W14046  15.118  20.744  13.516
41699W        W14047  32.478   7.841  13.497
41700W        W14048  19.269  43.015   1.790
41701W        W14049  18.134  18.122   4.651
41702W        W14050  27.169  26.198   4.131
41703W        W14051  13.757  38.390   1.310
41704W        W14052  13.299  37.437  11.094
41705W        W14053  28.554   8.729  11.391
41706W        W14054  21.615  26.123   1.726
41707W        W14055  23.993  39.451   2.666
41708W        W14056  41.832  16.247   1.853
41709W        W14057  35.453   5.897  14.854
41710W        W14058  42.360  37.415   2.416
41711W        W14059  28.513   6.209  14.907
41712W        W14060  22.015  35.603   2.183
41713W        W14061  34.947  37.920  14.425
41714W        W14062  25.487  19.674   3.669
41715W        W14063  30.544  15.091   4.282
41716W        W14064  43.385  10.227  14.343
41717W        W14065  19.128  10.745   2.285
41718W        W14066   2.893   6.813  10.455
41719W        W14067  43.439  40.503  10.591
41720W        W14068  39.037   6.226   5.687
41721W        W14069  11.695  33.941  14.298
41722W        W14070  11.813  32.597   3.762
41723W        W14071  19.260  29.648  12.458
41724W        W14072   5.909  42.934  14.438
41725W        W14073  34.917  21.189  13.821
41726W        W14074  11.655  39.349  10.479
41727W        W14075  13.622  21.567  13.819
41728W        W14076  39.935  38.363   0.736
41729W        W14077  23.643  31.413  14.865
41730W        W14078  14.745   6.323  14.896
41731W        W14079   0.381  40.967  12.533
41732W        W14080  28.166  21.072  11.967
41733W        W14081  13.217  11.787   1.776
41734W        W14082  15.769  18.694  12.405
41735W        W14083  39.465  39.522   2.727
41736W        W14084  26.636  18.628  12.861
41737W        W14085  12.206  41.794  10.620
41738W        W14086   4.400  29.607  10.921
41739W        W14087   2.939   1.946  12.460
41740W        W14088  39.515  14.162  11.869
41741W        W14089  19.544  12.721  14.441
41742W        W14090  21.216  10.701   1.738
41743W        W14091   7.361  35.591  14.507
41744W        W14092  36.536   6.739  11.442
41745W        W14093   6.337   9.281   2.335
41746W        W14094  12.173   2.729  12.366
41747W        W14095  43.768   5.338   4.740
41748W        W14096  30.438  10.650   4.180
41749W        W14097  15.802  33.476  13.522
41750W        W14098  20.271   5.846   2.838
41751W        W14099  39.000   3.349  10.560
41752W        W14100  17.236  30.521   0.274
41753W        W14101  42.848  41.389  14.982
41754W        W14102  13.157  26.501   0.887
41755W        W14103   1.284  11.307   0.909
41756W        W14104   7.868  42.992   3.376
41757W        W14105  25.122  18.181   4.790
41758W        W14106  19.257   7.179   4.668
41759W        W14107  38.397   5.395   5.247
41760W        W14108  30.596   4.731  12.983
41761W        W14109  36.887   2.823   2.380
41762W        W14110  10.642   1.271  14.450
41763W        W14111  10.144   7.180   2.371
41764W        W14112  41.912  40.873   4.682
41765W        W14113  42.342   3.744   4.184
41766W        W14114   6.717   6.751  14.482
41767W        W14115  36.458   2.724  12.483
41768W        W14116  10.860  32.478  12.436
41769W        W14117  16.800  37.925  11.458
41770W        W14118  16.263  44.887  13.994
41771W        W14119  38.027  18.107  10.996
41772W        W14120  34.968   6.204   1.448
41773W        W14121  25.481   0.352   4.734
41774W        W14122  35.503  27.561  11.002
41775W        W14123  31.021  36.513  11.981
41776W        W14124   2.764  28.057  14.320
41777W        W14125  35.933  37.539  13.791
41778W        W14126   0.289  36.001   3.351
41779W        W14127  39.891  30.002   3.692
41780W        W14128  44.269  10.808   3.155
41781W        W14129   6.369   4.713   0.731
41782W        W14130  42.518  33.029  11.411
41783W        W14131   5.369   5.226  13.849
41784W        W14132   5.267  29.072  13.399
41785W        W14133   2.468   9.715  14.315
41786W        W14134  16.150  37.909  10.622
41787W        W14135  26.476  15.672  14.410
41788W        W14136  40.353   3.444   0.296
41789W        W14137  22.056  13.177   2.663
41790W        W14138  28.069   2.748  12.969
41791W        W14139  39.925  37.490  13.016
41792W        W14140  38.044  22.505   0.258
41793W        W14141  42.454  24.052   3.833
41794W        W14142  28.543  33.539  11.077
41795W        W14143   3.234   4.726   0.903
41796W        W14144  19.554  36.895   0.478
41797W        W14145  30.554  11.745   3.171
41798W        W14146  35.868  20.751  14.836
41799W        W14147  30.913   5.322   2.257
41800W        W14148  19.185   5.344  14.916
41801W        W14149  42.428  30.512   1.801
41802W        W14150  27.171   0.840   4.675
41803W        W14151  21.142  29.548   3.849
41804W        W14152  41.938  18.291  12.520
41805W        W14153   2.747   2.451  13.403
41806W        W14154   4.871  23.219   0.795
41807W        W14155  39.510  11.644   0.858
41808W        W14156  23.618  12.185  10.557
41809W        W14157  16.710  14.297  14.450
41810W        W14158   5.248   4.263  11.410
41811W        W14159   2.358   1.749  11.115
41812W        W14160   0.487  28.129   4.693
41813W        W14161   2.422  15.695   4.198
41814W        W14162  26.054  32.956  10.424
41815W        W14163  24.055  33.062   2.671
41816W        W14164  14.602  38.914  14.299
41817W        W14165   5.757  16.127   0.373
41818W        W14166  12.312   7.239  12.037
41819W        W14167  31.068  41.331   3.707
41820W        W14168   1.297  23.047  12.463
41821W        W14169  39.918  38.063  14.276
41822W        W14170  13.320  35.094  13.544
41823W        W14171  40.493  41.440   1.366
41824W        W14172  16.598  41.862   1.826
41825W        W14173   8.782  36.882  11.006
41826W        W14174  27.584  34.906  13.006
41827W        W14175   3.827   8.752   5.223
41828W        W14176  27.556  25.587   1.831
41829W        W14177   2.325   9.251  12.575
41830W        W14178  23.619  20.195  13.355
41831W        W14179  42.936  21.251  11.040
41832W        W14180  37.962  39.842  13.018
41833W        W14181  12.360  37.927  13.903
41834W        W14182  19.229  21.092  13.365
41835W        W14183  14.220  32.440   1.420
41836W        W14184  43.445  39.030  10.549
41837W        W14185  40.352  15.322  12.516
41838W        W14186  30.609  23.157   1.227
41839W        W14187  29.575   9.159  10.991
41840W        W14188  25.146  13.288  12.056
41841W        W14189  13.640  27.974  10.626
41842W        W14190  34.067  21.579  14.970
41843W        W14191  33.443   8.703  13.865
41844W        W14192  17.117  24.530   0.780
41845W        W14193  26.689  36.394  14.764
41846W        W14194   1.824  22.151  14.445
41847W        W14195  36.481  10.702  12.963
41848W        W14196  26.981  20.134  13.849
41849W        W14197   2.411  12.196   2.293
41850W        W14198  39.544  37.501   5.262
41851W        W14199   7.262  14.711   1.800
41852W        W14200  43.783  23.640   2.338
41853W        W14201  10.242  20.109   1.358
41854W        W14202  30.587  31.960  14.962
41855W        W14203  27.129  39.827   2.853
41856W        W14204   4.928  22.022  11.585
41857W        W14205  35.071   6.366  10.916
41858W        W14206   7.252   9.260  14.862
41859W        W14207  33.999  29.948  11.982
41860W        W14208  22.643  12.784  13.007
41861W        W14209  43.776  35.041   4.338
41862W        W14210  43.460  14.260  13.843
41863W        W14211  20.100  36.397  13.319
41864W        W14212   2.961  35.983   4.654
41865W        W14213   5.847   4.900  10.495
41866W        W14214  31.564  35.367   5.212
41867W        W14215  12.612  25.657   3.160
41868W        W14216  13.601  32.084  13.473
41869W        W14217  23.517  18.653   0.477
41870W        W14218  17.586   5.438   2.820
41871W        W14219  38.566  18.774   2.219
41872W        W14220   7.264  35.476   4.168
41873W        W14221  15.267  39.382  10.454
41874W        W14222  13.168  14.147  12.354
41875W        W14223  23.120  30.429   3.166
41876W        W14224  36.490  12.329   0.303
41877W        W14225  35.428  15.290  12.027
41878W        W14226  10.354  26.496   0.248
41879W        W14227  14.174  34.466   3.218
41880W        W14228  31.503  42.381   3.187
41881W        W14229  21.573  13.723  13.933
41882W        W14230  23.603   6.303   0.889
41883W        W14231   4.415  22.693  11.398
41884W        W14232  23.195  36.971   1.721
41885W        W14233   9.300   4.448   1.790
41886W        W14234   8.387  41.345  12.559
41887W        W14235  20.662  31.005   3.197
41888W        W14236  11.662   1.788  13.432
41889W        W14237  39.836  39.485   2.715
41890W        W14238   8.166  10.692   0.338
41891W        W14239  39.509   2.361   4.123
41892W        W14240  21.063  12.234   1.731
41893W        W14241  40.502   4.894   1.737
41894W        W14242  42.806   9.754   1.784
41895W        W14243  41.355  16.134  14.778
41896W        W14244   4.732  40.461   0.459
41897W        W14245   7.666  20.614   2.198
41898W        W14246   4.346  44.972   3.741
41899W        W14247  24.554   3.857   3.328
41900W        W14248  28.636  10.300   4.756
41901W        W14249  19.727  35.974  14.445
41902W        W14250  33.076   3.434  13.480
41903W        W14251  32.093  37.390  12.096
41904W        W14252  20.267  12.703   2.820
41905W        W14253   2.392   9.317  13.052
41906W        W14254  19.682  42.820  10.889
41907W        W14255  14.306  19.091   3.807
41908W        W14256   1.375  41.437  10.643
41909W        W14257  39.896   6.260   2.213
41910W        W14258  39.515  26.560   2.230
41911W        W14259  15.818  29.007   2.670
41912W        W14260  18.109  43.781   4.228
41913W        W14261  34.893  39.383  14.939
41914W        W14262  34.102  26.642   4.233
41915W        W14263   0.777   7.211  12.043
41916W        W14264  15.739  11.167   1.379
41917W        W14265   1.733   6.714   0.873
41918W        W14266  42.423  38.899   2.890
41919W        W14267  34.590   2.278  11.005
41920W        W14268   2.851  29.446   0.342
41921W        W14269  17.117  32.971  13.521
41922W        W14270   9.877  16.635   4.714
41923W        W14271  28.676  35.085  13.372
41924W        W14272  13.692  11.357  13.861
41925W        W14273  41.805   8.175  10.480
41926W        W14274   6.264  33.100   3.318
41927W        W14275  26.962   8.893   3.288
41928W        W14276   8.712  34.539   3.828
41929W        W14277  29.109  35.942   4.645
41930W        W14278  30.448   1.420  13.444
41931W        W14279   2.261  35.377   1.360
41932W        W14280  32.053  18.084  11.416
41933W        W14281  40.496  38.557   3.290
41934W        W14282  15.630  26.606  10.492
41935W        W14283   8.374  33.438  11.023
41936W        W14284  42.402  33.577   4.771
41937W        W14285   1.448  24.691  11.022
41938W        W14286   2.788   7.238   1.785
41939W        W14287   1.290  37.836  11.928
41940W        W14288  40.015  37.571  14.374
41941W        W14289  36.922  20.059   4.833
41942W        W14290  20.164  29.983   9.943
41943W        W14291  31.559   6.837   1.712
41944W        W14292  32.009  21.554   0.278
41945W        W14293  12.807   6.269  13.309
41946W        W14294  21.096  13.792   0.390
41947W        W14295  25.027   3.904  10.472
41948W        W14296  10.845  30.446  13.495
41949W        W14297   7.678  12.721  12.932
41950W        W14298  17.788  38.386   4.262
41951W        W14299  16.312  33.906  13.964
41952W        W14300  31.626  28.104  13.808
41953W        W14301  26.960  19.684   2.885
41954W        W14302  35.032   1.423   1.738
41955W        W14303  41.022   5.204   2.372
41956W        W14304  43.828  36.973   3.786
41957W        W14305  15.175  10.659   3.734
41958W        W14306  40.938  36.374  13.493
41959W        W14307  21.619  38.994  12.915
41960W        W14308  31.975  13.170   5.255
41961W        W14309  39.439  16.122   0.322
41962W        W14310  10.761  11.712   3.731
41963W        W14311  25.503  16.120  12.398
41964W        W14312  19.545   6.694   0.396
41965W        W14313  42.919  42.992   3.293
41966W        W14314   0.294  23.618  11.422
41967W        W14315  21.589  13.762   2.346
41968W        W14316  24.612  10.762   2.286
41969W        W14317  40.052   7.895   0.965
41970W        W14318  20.042  33.617   4.258
41971W        W14319  35.442  16.253  13.062
41972W        W14320  39.418  23.682  12.878
41973W        W14321  13.272  31.918   5.300
41974W        W14322  40.814  27.454   0.304
41975W        W14323  35.891  21.089  12.053
41976W        W14324  40.038  22.083   0.847
41977W        W14325  34.989  22.669  13.953
41978W        W14326  21.135  22.582  11.011
41979W        W14327   1.763  43.965   3.339
41980W        W14328  41.888  38.487  11.430
41981W        W14329  16.155  31.558  14.408
41982W        W14330   8.208   2.946   0.287
41983W        W14331  22.227  12.652  12.463
41984W        W14332  17.123  22.677   3.194
41985W        W14333   5.210  40.918  13.366
41986W        W14334   3.372  43.345  13.847
41987W        W14335   6.839   4.846  12.556
41988W        W14336  30.450   3.862  11.957
41989W        W14337  18.087  16.219   3.242
41990W        W14338   2.902   1.242   0.841
41991W        W14339  13.700  18.289  10.412
41992W        W14340  10.312  42.463   3.368
41993W        W14341  27.088   6.419  12.920
41994W        W14342  40.325  19.261   3.211
41995W        W14343  35.938  24.495  14.416
41996W        W14344  13.203  23.151  13.489
41997W        W14345  44.792   5.803  12.971
41998W        W14346  26.597  28.187  11.470
41999W        W14347  29.077  21.563   0.899
42000W        W14348  16.164  31.453  10.615
42001W        W14349  12.832  28.007  14.811
42002W        W14350  44.852  17.089   4.191
42003W        W14351  13.217  40.898  14.288
42004W        W14352  40.469  29.474  13.908
42005W        W14353   7.184   2.820  13.394
42006W        W14354   8.400  21.127   3.864
42007W        W14355  18.708  23.095  13.992
42008W        W14356  22.742  12.287  10.441
42009W        W14357  10.635   5.301  14.761
42010W        W14358   5.202  17.268   3.356
42011W        W14359  43.943   4.883   4.250
42012W        W14360  20.568   1.962  13.808
42013W        W14361  40.338  22.700   3.758
42014W        W14362   3.296   5.273   0.883
42015W        W14363   4.724  22.614   3.689
42016W        W14364  31.648  39.019  12.533
42017W        W14365  41.948  43.451  11.041
42018W        W14366  15.318  35.984   4.175
42019W        W14367  43.423  44.259  13.525
42020W        W14368  35.042   0.248  13.054
42021W        W14369   9.165  40.978  10.491
42022W        W14370  26.035  14.197  13.924
42023W        W14371   2.298  20.692  12.052
42024W        W14372  13.612  13.124   0.348
42025W        W14373   5.729  11.352  13.001
42026W        W14374   3.937  39.543  12.825
42027W        W14375  32.895  16.237  14.896
42028W        W14376  35.442  23.007  14.759
42029W        W14377  30.136  33.882   4.605
42030W        W14378  40.853   1.247  12.971
42031W        W14379  19.050   3.241  13.009
42032W        W14380  11.747  10.665   1.289
42033W        W14381  19.282  29.049   2.800
42034W        W14382  22.071  17.157   4.285
42035W        W14383   9.681  21.704  13.335
42036W        W14384  13.300  42.933   2.260
42037W        W14385  44.824  25.166  10.948
42038W        W14386  24.549   0.917  12.362
42039W        W14387  22.103  16.715   0.804
42040W        W14388  41.330  32.982  13.895
42041W        W14389  37.886  12.821   9.946
42042W        W14390   3.313   0.900   1.873
42043W        W14391  17.609  17.272   0.268
42044W        W14392   9.716  10.857   3.218
42045W        W14393  13.761  39.974  14.448
42046W        W14394  24.154  26.640   3.289
42047W        W14395  38.963  27.180   4.327
42048W        W14396  40.926  12.849  13.953
42049W        W14397  10.828  28.032  10.106
42050W        W14398  26.150  10.270  10.404
42051W        W14399  36.528   3.716  13.012
42052W        W14400  33.579   4.872   4.137
42053W        W14401  42.995  10.699  13.979
42054W        W14402  34.957   2.360   2.413
42055W        W14403  25.557  34.552   0.434
42056W        W14404   1.769  42.790  10.639
42057W        W14405  31.551  37.381  12.513
42058W        W14406  42.789  33.057  11.107
42059W        W14407  39.816  14.246  11.942
42060W        W14408  36.572  26.097  10.541
42061W        W14409  28.973  43.015   4.133
42062W        W14410  37.890  18.757   1.859
42063W        W14411  38.509  22.091  11.053
42064W        W14412   9.309  10.863   4.159
42065W        W14413   5.840   0.745  13.797
42066W        W14414  19.744  34.442   0.844
42067W        W14415  25.644   9.860   0.931
42068W        W14416  16.684  13.754   0.406
42069W        W14417  29.647  42.471   1.714
42070W        W14418  33.442  10.250   2.834
42071W        W14419   3.733  21.539   2.263
42072W        W14420  39.842   8.719   1.413
42073W        W14421   4.779  42.995  12.847
42074W        W14422  35.374   9.286  12.400
42075W        W14423  39.941  11.162   3.348
42076W        W14424   0.747  23.735   1.777
42077W        W14425  31.095  42.952   5.188
42078W        W14426  41.860  34.541   4.763
42079W        W14427  38.395  41.350  10.608
42080W        W14428   7.800  29.044   4.688
42081W        W14429  39.412  35.858   1.758
42082W        W14430  35.940   0.441  12.010
42083W        W14431  11.633   2.798  12.503
42084W        W14432  32.598   4.395   3.293
42085W        W14433  28.120  38.937  13.038
42086W        W14434   4.407  25.977   0.410
42087W        W14435   2.922   5.809  10.504
42088W        W14436  21.683  30.649   0.939
42089W        W14437   2.896  32.498   3.790
42090W        W14438   2.370  40.377   4.114
42091W        W14439  33.070  32.950   3.154
42092W        W14440  17.728   1.249  10.930
42093W        W14441  38.076  39.961   0.370
42094W        W14442  15.093  35.956  12.541
42095W        W14443  23.729  10.350  11.998
42096W        W14444  19.652  44.387  10.640
42097W        W14445   8.190   2.801  11.862
42098W        W14446  20.753  38.444   1.752
42099W        W14447  32.056  21.036  13.057
42100W        W14448  44.875  28.533   2.795
42101W        W14449  22.147  29.569  12.503
42102W        W14450  17.077  39.341  12.014
42103W        W14451  14.747  42.410   4.699
42104W        W14452  43.414   8.169  12.037
42105W        W14453  20.560  43.286  14.007
42106W        W14454  38.340  38.406   1.305
42107W        W14455  14.630  33.116  14.357
42108W        W14456  40.423   8.819   2.181
42109W        W14457  23.636  20.613  12.509
42110W        W14458  30.649  37.049  11.504
42111W        W14459  42.415  42.350  13.542
42112W        W14460   7.365  19.139  13.031
42113W        W14461  42.895  31.542  13.356
42114W        W14462  36.477  44.438   4.710
42115W        W14463  31.996  27.103  13.951
42116W        W14464   4.324  42.375  13.465
42117W        W14465  15.158  39.348  14.797
42118W        W14466  16.251  29.579  14.794
42119W        W14467  26.643  11.737   2.231
42120W        W14468  22.209  25.107  11.028
42121W        W14469   6.909   1.868   1.781
42122W        W14470  19.119  20.763   0.825
42123W        W14471  32.925  33.919   4.151
42124W        W14472  10.262   2.292  13.423
42125W        W14473  35.600  37.867  12.481
42126W        W14474  12.666  11.847   4.310
42127W        W14475  35.420  30.123   3.728
42128W        W14476  29.942  16.193  13.426
42129W        W14477  24.041  32.957  11.376
42130W        W14478  36.866   2.824  13.016
42131W        W14479  30.930  39.411   1.875
42132W        W14480   7.853  39.825  12.879
42133W        W14481  23.180   3.408  11.893
42134W        W14482  36.987  36.886   2.889
42135W        W14483  13.759  43.356  11.089
42136W        W14484  21.662  33.937   2.303
42137W        W14485  26.068  19.216   3.189
42138W        W14486  27.626  21.135  10.156
42139W        W14487  13.210   8.756  13.427
42140W        W14488  25.021  29.642   2.799
42141W        W14489  26.099  33.528  12.874
42142W        W14490   3.383  30.151   4.638
42143W        W14491  19.554  14.177  12.075
42144W        W14492  25.551   6.210   4.662
42145W        W14493   9.722   0.982   4.124
42146W        W14494   7.403  38.979  12.979
42147W        W14495  29.548  12.702  11.492
42148W        W14496   8.396   3.937  11.041
42149W        W14497  33.974  40.031  12.024
42150W        W14498  34.488  12.706   2.687
42151W        W14499  41.890   3.295   3.221
42152W        W14500  39.929  40.852  12.009
42153W        W14501  19.146  30.443  13.374
42154W        W14502  33.968   2.797   3.214
42155W        W14503  24.613   4.290  10.483
42156W        W14504  37.494  31.133   3.729
42157W        W14505  26.571  33.981   0.434
42158W        W14506   0.353   4.722  10.907
42159W        W14507   7.841  30.944   0.943
42160W        W14508  43.333  43.967  11.550
42161W        W14509   5.302  41.851  12.518
42162W        W14510  34.902  37.029  11.079
42163W        W14511  20.741  33.999   0.479
42164W        W14512   2.363  33.392  10.935
42165W        W14513   1.754  41.332  11.012
42166W        W14514  21.026  41.358  10.528
42167W        W14515   7.686  14.172   4.602
42168W        W14516  32.077   8.294  11.391
42169W        W14517  15.726  22.608   1.447
42170W        W14518   0.299  12.671  10.904
42171W        W14519  35.991  39.470  12.424
42172W        W14520  24.564  18.758  11.950
42173W        W14521  36.897   2.296   1.326
42174W        W14522  18.268  37.414  14.880
42175W        W14523  29.648  39.540   2.746
42176W        W14524   2.868  31.490   2.321
42177W        W14525   3.284  36.376   2.778
42178W        W14526  11.807  30.976   0.316
42179W        W14527  44.398  38.380   4.278
42180W        W14528  34.984  22.734   5.729
42181W        W14529  21.692  32.554  10.463
42182W        W14530   8.375  10.801   2.693
42183W        W14531  30.632  34.022  10.937
42184W        W14532  29.973   4.267   3.245
42185W        W14533   4.775  39.980  13.415
42186W        W14534   3.214  12.307  11.427
42187W        W14535  40.475  33.078   1.736
42188W        W14536  20.716  40.878  11.556
42189W        W14537  12.310  32.521   1.248
42190W        W14538  31.953  24.987   1.258
42191W        W14539   9.814  23.195   5.216
42192W        W14540  43.929  21.019  13.927
42193W        W14541  14.646   1.295  12.880
42194W        W14542   4.804  14.140   3.720
42195W        W14543  42.416  39.474   4.751
42196W        W14544  36.964   0.283  14.852
42197W        W14545   2.890  43.435  13.880
42198W        W14546  11.302   3.803  12.028
42199W        W14547   4.254   7.790   4.169
42200W        W14548   6.730   8.899  13.936
42201W        W14549  17.250  15.261   2.190
42202W        W14550  29.551  39.945   4.197
42203W        W14551  36.522  30.987   3.639
42204W        W14552  13.303  33.558   4.705
42205W        W14553  10.755  15.603   4.170
42206W        W14554  20.204  28.146   1.240
42207W        W14555  23.577   4.360  11.520
42208W        W14556  44.858  29.012   1.404
42209W        W14557  27.514  19.040  10.999
42210W        W14558  40.000   4.355   4.774
42211W        W14559   2.331  21.140   2.216
42212W        W14560  15.093  23.607  14.321
42213W        W14561  24.591   3.336   0.451
42214W        W14562  29.553  15.697  10.942
42215W        W14563  21.142  41.390   4.339
42216W        W14564   7.726  29.053  14.958
42217W        W14565   5.223  14.806  12.567
42218W        W14566  16.083  44.489   4.293
42219W        W14567  28.035  38.864   0.391
42220W        W14568  37.961  16.248  10.599
42221W        W14569  24.631   6.262   1.419
42222W        W14570  16.098  24.694   1.395
42223W        W14571  10.354  13.142   0.917
42224W        W14572   1.378  32.979  11.081
42225W        W14573   5.735  33.940  14.965
42226W        W14574  30.959  33.044   1.838
42227W        W14575  11.363  12.612  12.965
42228W        W14576  35.073  34.520  10.920
42229W        W14577  25.523   8.866   4.787
42230W        W14578  43.510  43.293   1.399
42231W        W14579  33.473  35.382   0.797
42232W        W14580   2.249   3.792  12.830
42233W        W14581  35.363  37.024   2.874
42234W        W14582   8.864  15.090   4.291
42235W        W14583  43.321   1.825  14.009
42236W        W14584  35.545  30.085   2.201
42237W        W14585  28.984  26.083   3.208
42238W        W14586  15.650  11.165  13.370
42239W        W14587  23.219  34.930  11.886
42240W        W14588   1.929  30.163   4.598
42241W        W14589  17.669   8.283   1.886
42242W        W14590   5.358  31.508   4.753
42243W        W14591  25.483   2.824   2.196
42244W        W14592  29.444  21.748   2.332
42245W        W14593  29.526  27.666   3.656
42246W        W14594  36.369  39.977   0.379
42247W        W14595  34.531  44.472   1.391
42248W        W14596  44.936  22.059  12.355
42249W        W14597  18.743  25.658  11.056
42250W        W14598  29.040   6.422   2.329
42251W        W14599  21.237   0.424  10.626
42252W        W14600  39.872   0.393  11.085
42253W        W14601  13.104  38.984  13.018
42254W        W14602  28.677   7.263   0.956
42255W        W14603  39.363   0.419  11.473
42256W        W14604  30.942  19.580   3.146
42257W        W14605  12.209  23.490  13.353
42258W        W14606  43.921  11.625  10.490
42259W        W14607  18.786  21.260   0.258
42260W        W14608  15.250  15.147  13.441
42261W        W14609  25.657  38.926   4.173
42262W        W14610  31.069  26.079   4.166
42263W        W14611   0.892  43.323   0.833
42264W        W14612   4.241  31.615  13.943
42265W        W14613  15.648  12.261  12.896
42266W        W14614  12.624  28.572   0.822
42267W        W14615  44.786   9.686  14.816
42268W        W14616  33.879  22.564  12.435
42269W        W14617  26.025   7.830   4.240
42270W        W14618  44.318  40.880   4.712
42271W        W14619  23.616  35.101   0.274
42272W        W14620  30.115   2.793   0.936
42273W        W14621  33.048  21.632  14.910
42274W        W14622  36.425  25.062  13.410
42275W        W14623  40.369   9.392  14.965
42276W        W14624   0.797  36.937  12.828
42277W        W14625   9.824  32.087   0.362
42278W        W14626   6.734  38.340   0.931
42279W        W14627  38.486   8.311  10.984
42280W        W14628  15.812  19.763   2.262
42281W        W14629  24.596  44.266  14.381
42282W        W14630  39.889   0.801   1.931
42283W        W14631   7.236  29.533  10.901
42284W        W14632  21.051  13.135   3.325
42285W        W14633  31.513  30.079  12.386
42286W        W14634  14.272  12.172  12.374
42287W        W14635  15.671  35.073   0.398
42288W        W14636   7.901  41.913  11.572
42289W        W14637  37.830   4.443  11.425
42290W        W14638   8.304  37.949   0.937
42291W        W14639   0.865  16.751  12.873
42292W        W14640  40.868  42.876  10.523
42293W        W14641  18.743  13.114   3.335
42294W        W14642  25.015  20.086  10.978
42295W        W14643  42.973  41.855   4.791
42296W        W14644  35.958  34.869  12.941
42297W        W14645  39.984  12.771   0.375
42298W        W14646  12.239  18.616  13.420
42299W        W14647  43.005  21.028  14.925
42300W        W14648  33.381  16.761  13.450
42301W        W14649   5.306   5.773   3.367
42302W        W14650  44.412  14.216  14.288
42303W        W14651  41.884  12.189   2.833
42304W        W14652  19.646  38.003   4.695
42305W        W14653   5.914  43.295  14.839
42306W        W14654  28.935  14.323  11.583
42307W        W14655   4.214   7.187  13.952
42308W        W14656   5.886   5.363  11.397
42309W        W14657  12.843  41.039   3.785
42310W        W14658   8.242  26.700   1.873
42311W        W14659  24.059   6.385   5.300
42312W        W14660  16.571  16.139   3.648
42313W        W14661  26.967  11.725   4.130
42314W        W14662   0.904   3.760  12.407
42315W        W14663  18.212  42.019   2.680
42316W        W14664  26.121  26.061  12.382
42317W        W14665  19.273   9.149  11.420
42318W        W14666  15.260  39.018   1.376
42319W        W14667  38.415   4.364   9.577
42320W        W14668   4.727  36.912  14.299
42321W        W14669  10.863  20.116   9.655
42322W        W14670  17.165  22.028   0.729
42323W        W14671  44.354  14.752  14.353
42324W        W14672  41.450   1.828   2.331
42325W        W14673  20.223  37.512   3.339
42326W        W14674  37.865   5.194   1.424
42327W        W14675  25.655  14.193  11.477
42328W        W14676  42.918   0.399   2.682
42329W        W14677  14.175   5.696  10.081
42330W        W14678  36.446  41.933  11.583
42331W        W14679  22.051  24.108  11.455
42332W        W14680  20.156  44.760  14.479
42333W        W14681  28.999  39.365   2.365
42334W        W14682  22.648  25.504  13.347
42335W        W14683  35.061  28.104  14.779
42336W        W14684   9.672  34.931  11.085
42337W        W14685  40.867   6.683  10.544
42338W        W14686  17.206  39.948  12.060
42339W        W14687   6.341  34.439  12.371
42340W        W14688  26.481  30.094   4.704
42341W        W14689  42.887   3.891   1.353
42342W        W14690   0.746  40.941   1.847
42343W        W14691   2.462  12.116  14.955
42344W        W14692  42.795  24.622   1.869
42345W        W14693  28.004  21.575  12.856
42346W        W14694  23.563  44.922   2.807
42347W        W14695   9.342  29.114   3.654
42348W        W14696  27.546   8.275   4.632
42349W        W14697  17.786   7.189   2.885
42350W        W14698  33.926   9.660  14.931
42351W        W14699  36.454  25.204   0.446
42352W        W14700  14.702   0.762  10.972
42353W        W14701  16.103  41.861   3.238
42354W        W14702  28.161  16.785   4.254
42355W        W14703  44.911   9.324   3.840
42356W        W14704  44.793   9.763   3.635
42357W        W14705  22.162  33.957   2.868
42358W        W14706  26.072  14.608   4.126
42359W        W14707  14.772  18.653   0.741
42360W        W14708  23.198  30.523   1.363
42361W        W14709  16.257  31.153   0.456
42362W        W14710  35.076  27.478  14.955
42363W        W14711   3.747  35.936   1.395
42364W        W14712   9.820  44.867   4.767
42365W        W14713  18.161   2.766   2.373
42366W        W14714  31.964   8.822   4.804
42367W        W14715  42.512  42.789   1.244
42368W        W14716   0.358  43.487  14.963
42369W        W14717  13.735  32.035   0.367
42370W        W14718   9.809  39.455   0.396
42371W        W14719  15.673  16.807   1.247
42372W        W14720  22.597   4.372   2.819
42373W        W14721  35.026   3.772  11.610
42374W        W14722  28.082   9.800   4.727
42375W        W14723  25.966  26.568  10.615
42376W        W14724   1.331  31.128  10.548
42377W        W14725   0.835  42.796   5.199
42378W        W14726   0.778  40.818  13.808
42379W        W14727  15.713  18.591   0.317
42380W        W14728   3.273   8.822  13.853
42381W        W14729   7.397   4.396  11.571
42382W        W14730  11.799   6.344   1.418
42383W        W14731   8.849  16.567  10.614
42384W        W14732  43.991  22.676  13.041
42385W        W14733  19.050   5.244  14.473
42386W        W14734   8.361  33.980  12.500
42387W        W14735  25.992  29.098   1.929
42388W        W14736  34.897   5.772  12.032
42389W        W14737  42.804  24.122  14.020
42390W        W14738   7.203  23.613   3.192
42391W        W14739   1.792   1.425  12.449
42392W        W14740  25.468  32.448   2.674
42393W        W14741  20.559   3.828  10.890
42394W        W14742  25.526  22.057   4.291
42395W        W14743  27.192   3.747   0.817
42396W        W14744   6.857   4.717   0.470
42397W        W14745  40.042  35.862   1.880
42398W        W14746  22.157   6.851   0.431
42399W        W14747  42.855  12.777  14.364
42400W        W14748  38.502  10.170  14.029
42401W        W14749  14.614  18.551   1.810
42402W        W14750   3.319  24.213  12.909
42403W        W14751  39.545  33.874  11.107
42404W        W14752  27.549  33.130  12.373
42405W        W14753  27.579  19.659   0.402
42406W        W14754  19.177   4.912   1.763
42407W        W14755  31.074  13.752  13.046
42408W        W14756  44.860   8.758   2.846
42409W        W14757  28.972   1.273   4.772
42410W        W14758   4.445  38.975   0.943
42411W        W14759  43.488  27.035  11.963
42412W        W14760  44.497   6.299  10.451
42413W        W14761  40.033  35.974  10.580
42414W        W14762  11.235  22.234  12.515
42415W        W14763  14.746  41.507  12.870
42416W        W14764  32.401  18.086   2.841
42417W        W14765  15.604  41.455   4.747
42418W        W14766  25.548  37.857  13.349
42419W        W14767   4.931   3.827  14.275
42420W        W14768  37.503  39.523   4.704
42421W        W14769   0.347   1.879  13.996
42422W        W14770  27.538  43.330  11.076
42423W        W14771   3.869  17.618  13.949
42424W        W14772  25.599  33.078   3.705
42425W        W14773  28.580  28.949   3.194
42426W        W14774  30.151  26.611   3.750
42427W        W14775  25.602   7.782   3.203
42428W        W14776  31.897   0.877   1.880
42429W        W14777   1.403   6.823  13.425
42430W        W14778  24.230   2.263   4.130
42431W        W14779  43.769  11.793   2.204
42432W        W14780  19.167  12.163  10.896
42433W        W14781   6.891  37.086  13.399
42434W        W14782  44.773   3.334   2.789
42435W        W14783  30.600   4.302  13.988
42436W        W14784  12.722   4.731   1.736
42437W        W14785  25.502  10.709  14.776
42438W        W14786  33.978  40.478  11.449
42439W        W14787  26.190  31.108   3.862
42440W        W14788  33.080   4.763   0.424
42441W        W14789  36.580  39.325   1.900
42442W        W14790   3.772  35.512  11.037
42443W        W14791  10.143  31.095  11.089
42444W        W14792  43.465  15.789   0.299
42445W        W14793   3.905  14.738  10.442
42446W        W14794  14.597  24.506   1.855
42447W        W14795  33.461   4.341   0.908
42448W        W14796  38.844   7.773  11.114
42449W        W14797  21.574  43.337   4.299
42450W        W14798   8.723   1.860  14.763
42451W        W14799  15.634  33.921  13.967
42452W        W14800  16.089  36.881  12.995
42453W        W14801  44.321  35.397   1.377
42454W        W14802  13.295  32.027  14.460
42455W        W14803  40.486  40.867   4.334
42456W        W14804  19.618  24.588   4.807
42457W        W14805  25.169  36.911  14.825
42458W        W14806  10.795  20.737   5.771
42459W        W14807   1.765  31.992   4.302
42460W        W14808  12.829  37.524   2.329
42461W        W14809  23.601  42.324   4.746
42462W        W14810  10.834  15.600  12.502
42463W        W14811  34.518   8.227  13.492
42464W        W14812  42.486  15.580   1.310
42465W        W14813  14.806  14.591   9.507
42466W        W14814  31.113   6.804   0.952
42467W        W14815  30.087  25.129   3.186
42468W        W14816  17.203  28.083   1.783
42469W        W14817   5.320  14.810   0.260
42470W        W14818  34.570   9.811   1.348
42471W        W14819  41.831  42.459  12.511
42472W        W14820   5.889   9.779   2.677
42473W        W14821  23.531  23.222  10.565
42474W        W14822  11.725   7.790  11.995
42475W        W14823   1.374  18.172   0.441
42476W        W14824  26.628  40.042  11.389
42477W        W14825  10.380  34.978  13.005
42478W        W14826  23.234  31.572  13.966
42479W        W14827   6.705  38.492   3.651
42480W        W14828  43.865  13.767  10.587
42481W        W14829  40.446  38.474   0.467
42482W        W14830  25.023  23.225  12.022
42483W        W14831  44.430  17.114  13.033
42484W        W14832  17.782  13.247   0.377
42485W        W14833  20.537  11.841  12.532
42486W        W14834  14.318  26.487   0.824
42487W        W14835  19.550   7.280  12.955
42488W        W14836  41.469  22.137  13.940
42489W        W14837  13.190   5.410   0.305
42490W        W14838   8.357  29.998  13.850
42491W        W14839  12.249  42.429  14.816
42492W        W14840   1.327  21.188   9.981
42493W        W14841   0.282  29.623   1.729
42494W        W14842  15.141   4.825   4.679
42495W        W14843   6.355  23.059   3.814
42496W        W14844  23.496  15.680  13.361
42497W        W14845  25.502  13.293   3.333
42498W        W14846  33.111  27.572   0.825
42499W        W14847  44.458  42.406  13.470
42500W        W14848  40.885  33.450   4.700
42501W        W14849  10.160  30.451  14.456
42502W        W14850  15.777  35.873  14.424
42503W        W14851  16.586  20.032   1.849
42504W        W14852  34.449  24.150   2.352
42505W        W14853   0.283  19.600  10.421
42506W        W14854  40.443   5.295  13.972
42507W        W14855  43.003  16.085   1.743
42508W        W14856  14.667  39.471  10.908
42509W        W14857  26.975  12.251  13.008
42510W        W14858  16.301  24.173   1.366
42511W        W14859  30.081   9.795  11.529
42512W        W14860   7.816  12.201  11.470
42513W        W14861  12.655   3.781  10.105
42514W        W14862  10.811  44.975   3.839
42515W        W14863  43.513  39.413  11.554
42516W        W14864  23.076   8.347   0.753
42517W        W14865  27.958  17.749  10.149
42518W        W14866   8.803   9.390  11.113
42519W        W14867  38.829  15.325   0.257
42520W        W14868  35.502   1.304  13.909
42521W        W14869  35.991  41.898  11.373
42522W        W14870  19.675  10.351  14.486
42523W        W14871  31.070  36.941   1.792
42524W        W14872  23.659  13.350  12.054
42525W        W14873  41.394  13.730  12.535
42526W        W14874  34.594  40.997   2.270
42527W        W14875   3.269   5.715  13.004
42528W        W14876  29.059  16.627   2.343
42529W        W14877  32.506  31.152  12.449
42530W        W14878  40.353   0.857  14.509
42531W        W14879   5.308  33.986   4.268
42532W        W14880  24.034  11.659   3.254
42533W        W14881  12.214  26.980  11.931
42534W        W14882  16.652  27.104   0.871
42535W        W14883  26.086  33.090   4.182
42536W        W14884  22.155  31.103  10.931
42537W        W14885  24.500  21.609   3.245
42538W        W14886  11.361   6.295  10.505
42539W        W14887   3.746   6.270   0.885
42540W        W14888  28.144   3.938   2.866
42541W        W14889  17.571  20.678  10.427
42542W        W14890  26.699  21.690  11.928
42543W        W14891  21.125  30.947  10.521
42544W        W14892   8.182  40.898  10.471
42545W        W14893  36.363  38.056   2.350
42546W        W14894  37.853  24.082  10.989
42547W        W14895  44.864  21.033   3.171
42548W        W14896  28.020   3.332   3.333
42549W        W14897  15.284  36.041  10.418
42550W        W14898  12.816   3.438   2.324
42551W        W14899  17.155   9.389   2.187
42552W        W14900  28.152  22.532   1.913
42553W        W14901  18.288  26.178  12.560
42554W        W14902   9.862  13.752   3.362
42555W        W14903   7.267  42.892   3.278
42556W        W14904  34.446   5.228  14.998
42557W        W14905  11.154   8.387   3.682
42558W        W14906  39.897  29.633   3.238
42559W        W14907  22.745  34.465  11.124
42560W        W14908  39.513  35.967   0.751
42561W        W14909   1.414  14.195   1.312
42562W        W14910   7.802  16.796   2.304
42563W        W14911  15.283  36.451  13.511
42564W        W14912  41.349  12.627  14.981
42565W        W14913  28.097   7.712   1.706
42566W        W14914  44.941  16.075   3.243
42567W        W14915  15.781  12.316  12.393
42568W        W14916   1.841   5.426   4.118
42569W        W14917  37.065  29.652   2.704
42570W        W14918  24.094  30.004   0.928
42571W        W14919  16.076  20.543  12.979
42572W        W14920  12.339  14.217  11.560
42573W        W14921  43.398  14.328   3.372
42574W        W14922  42.509   7.787  14.821
42575W        W14923  37.917  42.982  11.509
42576W        W14924  31.123   8.667  13.061
42577W        W14925  12.798  37.350  12.878
42578W        W14926  16.772  33.590  11.489
42579W        W14927   9.295   7.800  11.609
42580W        W14928   9.168  26.487   2.686
42581W        W14929  16.785   4.767  12.340
42582W        W14930  13.188  10.648  12.008
42583W        W14931  22.066  37.366  11.867
42584W        W14932  24.050  19.577  10.030
42585W        W14933  36.060   5.281   0.731
42586W        W14934  42.419  40.346  12.554
42587W        W14935   5.858  13.700  13.542
42588W        W14936  17.216  25.482   2.763
42589W        W14937  17.186  25.483   3.221
42590W        W14938  37.568  28.044  13.019
42591W        W14939  37.417   3.264   1.753
42592W        W14940  36.450  39.043   4.226
42593W        W14941  42.995   5.251  13.967
42594W        W14942   7.173   7.832   1.718
42595W        W14943  35.366  42.823  13.479
42596W        W14944  24.629  19.776   3.291
42597W        W14945  28.475   7.269  13.007
42598W        W14946  15.753  33.940  12.868
42599W        W14947  36.925  30.151   4.193
42600W        W14948  17.642   1.262   4.717
42601W        W14949  30.413  42.949  12.879
42602W        W14950  21.660  32.602  14.477
42603W        W14951  12.256   4.447   3.711
42604W        W14952  40.916  25.166   2.408
42605W        W14953  14.702  43.967   0.913
42606W        W14954  44.356  11.160  14.979
42607W        W14955  35.914  17.116   3.286
42608W        W14956  39.494  24.479   3.649
42609W        W14957  24.071  35.088   0.431
42610W        W14958   7.318   5.218  11.940
42611W        W14959  31.421  10.671   1.780
42612W        W14960  35.370  33.932   1.753
42613W        W14961  22.536  35.888   4.768
42614W        W14962  13.132  39.515   4.776
42615W        W14963  42.320   3.275   0.426
42616W        W14964  29.540  43.989   0.383
42617W        W14965  16.095  35.923  10.990
42618W        W14966  17.072  17.194  14.793
42619W        W14967  23.731  14.204   1.418
42620W        W14968  37.523  44.308   1.709
42621W        W14969  20.182  33.618   5.249
42622W        W14970  15.325  14.123   0.438
42623W        W14971   3.358   6.197   2.403
42624W        W14972  23.114  35.404  11.075
42625W        W14973  29.656  12.671  14.490
42626W        W14974   5.738  37.386  10.502
42627W        W14975  29.541   7.311   1.914
42628W        W14976  40.480  12.148  10.612
42629W        W14977  19.079  27.470  14.350
42630W        W14978  14.114  22.083  13.829
42631W        W14979  36.401  39.482  11.931
42632W        W14980   6.853  24.229  10.961
42633W        W14981  40.517  19.166   1.717
42634W        W14982   2.951   4.720   9.973
42635W        W14983   7.208  33.018  13.883
42636W        W14984   1.900  19.575  13.472
42637W        W14985   7.354  40.334  13.424
42638W        W14986   5.378  13.106  14.870
42639W        W14987   4.922  28.967  13.043
42640W        W14988  30.488   3.234   1.862
42641W        W14989  19.719  12.713  11.119
42642W        W14990  15.806  21.604   2.690
42643W        W14991   6.811  42.459   1.421
42644W        W14992  44.406  44.904   1.273
42645W        W14993  25.176  11.340   0.944
42646W        W14994  18.179  43.824  13.389
42647W        W14995   2.402  42.420   4.777
42648W        W14996  39.057  37.022   0.793
42649W        W14997   0.791  27.083   2.695
42650W        W14998  17.771  26.662   4.707
42651W        W14999  33.570  19.092   2.746
42652W        W15000  43.414  20.210  13.423
42653W        W15001  12.322  13.743   2.730
42654W        W15002  32.022  24.029   1.888
42655W        W15003   4.264  44.399   4.825
42656W        W15004  30.607   0.299  11.963
42657W        W15005  13.846  35.041  14.009
42658W        W15006  20.218  20.593   2.842
42659W        W15007   7.308  24.700  11.049
42660W        W15008   1.481  13.648   1.384
42661W        W15009  33.110   5.430  14.820
42662W        W15010  24.184  43.385   2.266
42663W        W15011   9.646   9.318   4.775
42664W        W15012  37.866  31.413   0.853
42665W        W15013  35.591   5.418   1.411
42666W        W15014  24.704  37.832  10.602
42667W        W15015  31.978  20.098   3.246
42668W        W15016  31.122  17.679   0.879
42669W        W15017  43.938  39.816   1.748
42670W        W15018   0.894  11.190   2.868
42671W        W15019  44.798  40.928   0.432
42672W        W15020   9.289  12.657   2.416
42673W        W15021  28.507  44.290  13.321
42674W        W15022   0.792  35.906  14.962
42675W        W15023  22.673   8.700   1.425
42676W        W15024  13.762  24.034  11.122
42677W        W15025  11.339  22.695  10.469
42678W        W15026  39.510  34.377  14.788
42679W        W15027   5.889   8.654  12.933
42680W        W15028   7.695  22.549  12.391
42681W        W15029  28.947   3.731  12.953
42682W        W15030  12.198  36.477   4.327
42683W        W15031   0.893   3.868   0.900
42684W        W15032  23.710   8.794   2.180
42685W        W15033  20.126  16.714  14.971
42686W        W15034  13.190  13.188  13.054
42687W        W15035   9.180  23.494  14.377
42688W        W15036  12.220  16.747   4.247
42689W        W15037  21.553  36.543  10.974
42690W        W15038  20.189  27.666  10.526
42691W        W15039  14.158  26.006   0.746
42692W        W15040  28.939  22.587   4.264
42693W        W15041  19.045   5.255   2.745
42694W        W15042   4.722   8.257   0.473
42695W        W15043  25.984   9.366   2.765
42696W        W15044  37.368   9.762   2.882
42697W        W15045  18.295   7.342  10.942
42698W        W15046  40.878  27.658  13.013
42699W        W15047   0.389  22.578   1.794
42700W        W15048  27.636  34.404   1.902
42701W        W15049  24.226  18.266  10.072
42702W        W15050  26.165  29.136   0.405
42703W        W15051   4.704  41.441   1.783
42704W        W15052  40.439   0.268  13.977
42705W        W15053   8.715  43.792  11.466
42706W        W15054  22.747  35.997   4.185
42707W        W15055  42.387  23.649  11.484
42708W        W15056  11.778  23.512   4.285
42709W        W15057  39.451   6.410   9.586
42710W        W15058  36.881  40.880  11.001
42711W        W15059  43.273   6.226   2.409
42712W        W15060   3.929  23.014   4.731
42713W        W15061  37.032  36.572   1.416
42714W        W15062  17.580  44.464  14.922
42715W        W15063   1.241  34.411   2.852
42716W        W15064  22.572   1.832   0.811
42717W        W15065  33.461  11.190   1.287
42718W        W15066  41.510   7.776  14.337
42719W        W15067  26.119  20.691   0.297
42720W        W15068  12.787  22.738  10.969
42721W        W15069  37.390  23.002   0.809
42722W        W15070  29.538  22.618  14.769
42723W        W15071  21.597   6.267  11.422
42724W        W15072  24.004  19.724   5.245
42725W        W15073  41.911  26.030  13.516
42726W        W15074  13.173   7.304   2.747
42727W        W15075   4.289  42.857  10.955
42728W        W15076  43.874  11.137  14.278
42729W        W15077  33.399  12.719  14.338
42730W        W15078  37.435  28.458  11.576
42731W        W15079  15.737  31.080  11.053
42732W        W15080  23.144  18.106  14.885
42733W        W15081  30.120  43.492  11.060
42734W        W15082  15.148  43.980  11.422
42735W        W15083  13.225   4.763  14.480
42736W        W15084  15.701   0.293  12.502
42737W        W15085  14.131  39.869  13.908
42738W        W15086  21.052  16.184  14.770
42739W        W15087  19.226   5.784  13.450
42740W        W15088  25.581  32.586  13.463
42741W        W15089  31.648  38.827   0.473
42742W        W15090  34.058  44.488  12.981
42743W        W15091  36.506  24.489   4.692
42744W        W15092  15.127  24.026  13.453
42745W        W15093  28.094  20.664  10.434
42746W        W15094  31.635   9.731  12.402
42747W        W15095   9.870  32.946   2.823
42748W        W15096  30.522  10.369   2.190
42749W        W15097  41.466  34.453   4.810
42750W        W15098  34.520  28.937   4.742
42751W        W15099  42.501   8.660  11.560
42752W        W15100  28.134  18.597   4.617
42753W        W15101  15.098   2.301  11.582
42754W        W15102  38.483  33.949   3.384
42755W        W15103   9.381  16.260   3.630
42756W        W15104  22.087  32.087  12.373
42757W        W15105   3.806  32.041   0.894
42758W        W15106  16.734  29.946  13.063
42759W        W15107  31.643  16.610   0.851
42760W        W15108   6.775   8.257   2.727
42761W        W15109  37.912  23.521   0.441
42762W        W15110  44.815  21.687   1.768
42763W        W15111  38.489  40.005   0.925
42764W        W15112  12.146  35.466  11.985
42765W        W15113  11.647  24.040  13.021
42766W        W15114  13.611  37.987   3.634
42767W        W15115  42.448   3.738  11.097
42768W        W15116  25.171  22.105  12.417
42769W        W15117   1.339  42.410   2.671
42770W        W15118  41.486  20.093   3.758
42771W        W15119  32.495   6.223   3.166
42772W        W15120  44.817  22.143  10.507
42773W        W15121  23.640  22.057  14.911
42774W        W15122  43.896  35.889   1.769
42775W        W15123   0.766  40.904   0.962
42776W        W15124  44.804  20.701  11.877
42777W        W15125  27.983  18.255  12.397
42778W        W15126  35.106  36.418  11.493
42779W        W15127  32.423  38.350   3.650
42780W        W15128  19.559  32.401  13.512
42781W        W15129  44.946  21.526   3.233
42782W        W15130  13.253  19.104   3.220
42783W        W15131  23.664  38.418  11.868
42784W        W15132  27.584   3.296   5.144
42785W        W15133  18.165  16.103  13.438
42786W        W15134   8.347  17.072  10.578
42787W        W15135  29.934  37.082  12.874
42788W        W15136  17.716  34.945   0.330
42789W        W15137  34.908  23.051   1.711
42790W        W15138  44.430  24.720  11.926
42791W        W15139  30.631  42.826  11.972
42792W        W15140  21.739  29.626   4.233
42793W        W15141   6.240  31.147   1.283
42794W        W15142  22.046  23.126   1.870
42795W        W15143  41.965  10.320  10.489
42796W        W15144  19.083  34.093  12.069
42797W        W15145   6.389  33.933  13.337
42798W        W15146  33.064  34.536  12.954
42799W        W15147  32.420  19.282  11.551
42800W        W15148  13.694  28.170   1.850
42801W        W15149  21.080  40.516  10.967
42802W        W15150  15.266  20.564  12.576
42803W        W15151  12.360  30.074  14.372
42804W        W15152  23.991   9.815  14.987
42805W        W15153  23.040  24.491  14.340
42806W        W15154   6.345   0.925   0.847
42807W        W15155  28.619  37.454  11.979
42808W        W15156  28.009  40.336   2.211
42809W        W15157  24.179  37.981   3.361
42810W        W15158  10.188  28.514  11.466
42811W        W15159   8.655  20.630   1.804
42812W        W15160  25.473  39.441   2.346
42813W        W15161  40.048   2.364   1.308
42814W        W15162  39.541  43.371  14.881
42815W        W15163   0.423   7.893  12.006
42816W        W15164  44.803  26.172  11.955
42817W        W15165  39.386  37.951  12.390
42818W        W15166   2.233  15.775   4.714
42819W        W15167  11.149  13.793   3.744
42820W        W15168  12.678   1.871  12.976
42821W        W15169  17.170   3.926   3.313
42822W        W15170  21.578  13.639   3.808
42823W        W15171  32.583  15.130  13.953
42824W        W15172  42.423   0.390  10.496
42825W        W15173  12.193  28.993   0.856
42826W        W15174   1.279  22.045  12.026
42827W        W15175  28.516  25.137  10.418
42828W        W15176  18.158  24.579   1.815
42829W        W15177  28.011  44.783   0.962
42830W        W15178  29.111  26.023  13.511
42831W        W15179  41.849  31.009  13.848
42832W        W15180  18.576  44.411  12.443
42833W        W15181  31.414  11.359  11.869
42834W        W15182  43.768   9.840   3.260
42835W        W15183  17.095  35.419  11.977
42836W        W15184  41.025  24.165   0.804
42837W        W15185  15.745  42.395   4.658
42838W        W15186  17.638  35.555  12.448
42839W        W15187  22.202  34.957   1.930
42840W        W15188  26.052  17.171  11.532
42841W        W15189  32.086  42.514  14.319
42842W        W15190  27.584  19.725  14.315
42843W        W15191  10.269  26.662   4.613
42844W        W15192  13.744  13.826   1.695
42845W        W15193  36.930   2.813   1.246
42846W        W15194  18.700  11.861  12.341
42847W        W15195  29.470  42.940  12.428
42848W        W15196   8.379  12.771   2.805
42849W        W15197  41.970  13.837  13.933
42850W        W15198  22.687   9.797  14.298
42851W        W15199  10.358  12.176  13.843
42852W        W15200  44.848  19.167   1.433
42853W        W15201  27.948  41.359   2.747
42854W        W15202  13.135  44.283  13.431
42855W        W15203  17.064  11.294   2.377
42856W        W15204  17.272   8.775   5.147
42857W        W15205  40.867  19.227   3.345
42858W        W15206  23.690   8.671  11.472
42859W        W15207   8.867   6.708  12.979
42860W        W15208  20.568  37.996  12.533
42861W        W15209  15.685  26.129   0.748
42862W        W15210  36.963  44.327   0.251
42863W        W15211  20.182  34.478  14.951
42864W        W15212   3.944  42.009  14.362
42865W        W15213  42.352  13.603   4.703
42866W        W15214  12.189  44.487  14.975
42867W        W15215  17.106  30.095   3.814
42868W        W15216  33.106  17.061   3.866
42869W        W15217  35.534  38.486  14.499
42870W        W15218  29.559  39.394   3.784
42871W        W15219  17.772   3.927   0.963
42872W        W15220   4.789   1.461   1.739
42873W        W15221  16.798   1.314  10.618
42874W        W15222  35.485  13.603  12.423
42875W        W15223  35.016  14.258  12.868
42876W        W15224  30.121   1.441   0.271
42877W        W15225  23.630  10.856   3.676
42878W        W15226  30.074   0.395  12.347
42879W        W15227  25.161  18.723   4.196
42880W        W15228   4.701  12.689   1.383
42881W        W15229  31.466  10.352   0.378
42882W        W15230  16.747  17.770  10.933
42883W        W15231  17.607  18.169  12.913
42884W        W15232  20.549  12.356  14.795
42885W        W15233  41.797  32.597  12.553
42886W        W15234   6.249  39.316   0.795
42887W        W15235   9.341  42.020   0.244
42888W        W15236   0.783   0.370   3.318
42889W        W15237  41.916  35.995   1.236
42890W        W15238  19.738  19.150  13.828
42891W        W15239  17.281  42.874   4.722
42892W        W15240  29.020  23.167  13.991
42893W        W15241  14.278  27.976   3.277
42894W        W15242  19.594  17.095   1.896
42895W        W15243  34.966  13.735   1.246
42896W        W15244  11.336  29.527   0.937
42897W        W15245  30.953  19.050  13.327
42898W        W15246  12.709  36.020   3.689
42899W        W15247  38.064   2.380   4.323
42900W        W15248   9.850  20.592  11.918
42901W        W15249  11.702  31.066   2.372
42902W        W15250   6.239  39.871  13.541
42903W        W15251  15.117  27.097  14.933
42904W        W15252   8.887  20.562  13.029
42905W        W15253  13.343  25.700   3.662
42906W        W15254  29.059  43.982   4.670
42907W        W15255  43.944  21.669  11.876
42908W        W15256  19.710  27.622   1.845
42909W        W15257   9.286  18.144   1.934
42910W        W15258  17.278  22.192   3.236
42911W        W15259  20.054  22.718   4.807
42912W        W15260  34.969   2.831  11.967
42913W        W15261   8.386  30.513   5.092
42914W        W15262  27.664   9.304   4.771
42915W        W15263  17.799  13.615   5.250
42916W        W15264  25.096   9.753   1.314
42917W        W15265   3.837  43.779   3.272
42918W        W15266  30.997   0.490   0.417
42919W        W15267  36.973  20.684   3.365
42920W        W15268  17.750  19.559   1.420
42921W        W15269   7.401  29.008  13.521
42922W        W15270  33.022  25.176  11.907
42923W        W15271  17.190  25.180   3.251
42924W        W15272  31.429  39.381  12.956
42925W        W15273  29.931  18.239   1.935
42926W        W15274  27.133  35.956   4.197
42927W        W15275  36.859  37.511   1.796
42928W        W15276  40.505  42.954   0.743
42929W        W15277  37.938  16.811  11.613
42930W        W15278  37.545  24.227   5.131
42931W        W15279   0.250  30.977  13.445
42932W        W15280   7.178   8.280  12.461
42933W        W15281  35.104  12.829  13.814
42934W        W15282   3.776   0.769  13.840
42935W        W15283  20.603  42.523   1.390
42936W        W15284   5.928  25.564  13.910
42937W        W15285  39.001  39.965   2.824
42938W        W15286   1.419  18.654   3.329
42939W        W15287   9.305  38.494  14.879
42940W        W15288   5.756  28.065  13.816
42941W        W15289  29.549  24.690   2.293
42942W        W15290  40.510  33.020   1.217
42943W        W15291  30.056  29.975  13.511
42944W        W15292   9.697   0.900  13.053
42945W        W15293   7.713  11.842  14.405
42946W        W15294  31.434  44.453   3.266
42947W        W15295   9.874  15.796  13.455
42948W        W15296  27.076  21.723   2.314
42949W        W15297   4.713   2.437   1.269
42950W        W15298  12.700  12.255   2.887
42951W        W15299  36.054  33.579  14.912
42952W        W15300   6.256   8.216  13.959
42953W        W15301  26.118  27.653  13.517
42954W        W15302  24.120   2.288  12.047
42955W        W15303   0.442  31.633  13.344
42956W        W15304  44.971   1.903  14.472
42957W        W15305   3.243  14.333   4.686
42958W        W15306  25.200  38.825   2.315
42959W        W15307  32.436  35.057   4.742
42960W        W15308  28.032  32.603  13.978
42961W        W15309   5.198  22.515  14.009
42962W        W15310  20.699  34.905   1.234
42963W        W15311  42.829  11.647  11.076
42964W        W15312   6.783  35.864   1.359
42965W        W15313   5.776  24.566  10.435
42966W        W15314  35.598  44.938   2.219
42967W        W15315  35.971  32.055  14.329
42968W        W15316   8.773  36.351  14.321
42969W        W15317  34.515   6.890   3.365
42970W        W15318  18.634  31.535   2.832
42971W        W15319  18.761  21.061  10.121
42972W        W15320  28.972  10.862  14.356
42973W        W15321  29.104   3.723  10.533
42974W        W15322  27.159  13.256  12.062
42975W        W15323  44.778  19.151  14.278
42976W        W15324  32.125  13.325   4.315
42977W        W15325  22.238   4.233  11.122
42978W        W15326  14.725  24.221  12.859
42979W        W15327  24.677   5.254  12.834
42980W        W15328  38.364   6.401  14.995
42981W        W15329  43.946  39.849  11.996
42982W        W15330   5.779   6.698  12.546
42983W        W15331  29.979  41.324  13.345
42984W        W15332  28.484   9.172   0.875
42985W        W15333   9.181  41.856  13.544
42986W        W15334   0.820  23.599  14.909
42987W        W15335  38.404   0.342   1.353
42988W        W15336  21.105  24.229  11.471
42989W        W15337   4.759  41.323   2.270
42990W        W15338  26.189   6.310  14.936
42991W        W15339  12.116   5.304   0.454
42992W        W15340  17.141  27.160  13.880
42993W        W15341  18.114  17.756  12.838
42994W        W15342  22.090  41.437  10.486
42995W        W15343   7.384  42.986  14.019
42996W        W15344   4.254   4.416   2.663
42997W        W15345   0.891  25.038   3.377
42998W        W15346  30.925  27.688  10.506
42999W        W15347   9.753  34.468  12.949
43000W        W15348  27.682  39.952  10.522
43001W        W15349  19.221  28.071  11.895
43002W        W15350  44.790  42.879   0.430
43003W        W15351  27.649   7.288   1.341
43004W        W15352   7.673  39.004  11.961
43005W        W15353  14.807  20.576   1.355
43006W        W15354   8.788  23.160  11.866
43007W        W15355  42.811  24.518  13.492
43008W        W15356  32.070  42.936   3.747
43009W        W15357  12.675  17.214   3.286
43010W        W15358  25.162  23.535  14.934
43011W        W15359  37.047  31.138   3.186
43012W        W15360  24.089  25.508   3.233
43013W        W15361   8.372   7.373  11.107
43014W        W15362  17.220  22.502   4.190
43015W        W15363  19.272  28.447   4.657
43016W        W15364  16.734  35.499  11.547
43017W        W15365  37.865   8.172  10.517
43018W        W15366  25.969  16.174  14.847
43019W        W15367  23.515  16.779   1.277
43020W        W15368   8.703   0.941  11.028
43021W        W15369  18.099  13.192   1.310
43022W        W15370  17.192  41.499   3.761
43023W        W15371  27.954  20.653  12.439
43024W        W15372  14.312  19.660  10.122
43025W        W15373  38.470  31.431   4.615
43026W        W15374   7.176   6.701  13.366
43027W        W15375  14.686  28.586  11.592
43028W        W15376   1.845  38.971  14.407
43029W        W15377  37.921   8.224   0.301
43030W        W15378  41.905  36.024  13.466
43031W        W15379  38.982  42.906   3.826
43032W        W15380  30.996  25.507   4.284
43033W        W15381   3.859  19.213   4.672
43034W        W15382  43.942  11.356  11.476
43035W        W15383   7.329   6.757   4.287
43036W        W15384   0.975   6.756   3.768
43037W        W15385  21.145  32.915   4.229
43038W        W15386  43.952   6.878   3.694
43039W        W15387  44.369   1.750   4.764
43040W        W15388   9.266  34.459   1.764
43041W        W15389  24.066  15.799   4.713
43042W        W15390  32.112  25.672  14.421
43043W        W15391   0.366  30.455  14.495
43044W        W15392   4.738  38.864  11.579
43045W        W15393  22.019  11.625   4.181
43046W        W15394   3.442   1.344  11.078
43047W        W15395  15.099  37.900  14.953
43048W        W15396  41.348   1.766   1.445
43049W        W15397  44.320   9.825  12.396
43050W        W15398  34.580  33.501  14.938
43051W        W15399  42.356  14.811  12.898
43052W        W15400  27.493   1.466   1.907
43053W        W15401  34.044  40.408   3.849
43054W        W15402  37.025   7.849  13.929
43055W        W15403  44.988  42.002  12.422
43056W        W15404  32.124  31.594  14.415
43057W        W15405  18.135  38.425  13.874
43058W        W15406  28.615  25.188  13.321
43059W        W15407  12.737  22.030   1.704
43060W        W15408   4.347  33.108  10.458
43061W        W15409  32.123  35.937   2.301
43062W        W15410  20.229  13.262   0.795
43063W        W15411  39.513  36.390  12.906
43064W        W15412  19.576  25.661  10.990
43065W        W15413  37.013  23.122  13.498
43066W        W15414   2.351  40.840  14.000
43067W        W15415   2.792  21.061  11.020
43068W        W15416  35.959   3.763  12.497
43069W        W15417  23.642  13.712  14.427
43070W        W15418   3.781  41.511  13.512
43071W        W15419  11.243  28.122   1.430
43072W        W15420  24.528  16.111   3.709
43073W        W15421  31.091  28.120   0.882
43074W        W15422  34.038  24.115  12.988
43075W        W15423   3.379  18.675  10.978
43076W        W15424  44.407  23.543  14.773
43077W        W15425  14.628  27.084  11.889
43078W        W15426  37.040  17.729  14.957
43079W        W15427  21.625  11.858   2.817
43080W        W15428  28.460   1.282   0.800
43081W        W15429  21.621  22.545   2.830
43082W        W15430   8.786   7.721  10.442
43083W        W15431   1.812  39.913  13.880
43084W        W15432  34.435   2.949   2.735
43085W        W15433  10.232  35.914  14.497
43086W        W15434  11.844   4.875  14.982
43087W        W15435  18.264  22.645  12.567
43088W        W15436  25.119  19.621   2.380
43089W        W15437  11.146  21.035  12.092
43090W        W15438   6.284   9.859  13.854
43091W        W15439  12.768   3.351   2.796
43092W        W15440   0.312  31.944  12.350
43093W        W15441  11.729   1.471  14.021
43094W        W15442  35.053  16.255  12.404
43095W        W15443  31.148   8.318   1.849
43096W        W15444  43.321  14.618  11.432
43097W        W15445  37.081  40.801   4.695
43098W        W15446  20.174  24.663  12.549
43099W        W15447  32.459  28.025   0.952
43100W        W15448  28.561  21.131  12.436
43101W        W15449  13.786   1.271   1.837
43102W        W15450  17.185  43.792   2.744
43103W        W15451  19.055   5.888   3.289
43104W        W15452   9.283  42.507   1.285
43105W        W15453  21.030  21.178  13.512
43106W        W15454  18.188  44.418   4.205
43107W        W15455  39.052  27.495  14.284
43108W        W15456  42.285  36.469   2.837
43109W        W15457  23.173  41.424  10.513
43110W        W15458   2.899  44.453  12.500
43111W        W15459  16.605   0.389   4.783
43112W        W15460   9.731  10.755  13.965
43113W        W15461  38.825  32.514  12.939
43114W        W15462  26.203  24.091  12.019
43115W        W15463  39.465   4.342   1.738
43116W        W15464  42.480  29.521   2.797
43117W        W15465  15.733  35.373   2.783
43118W        W15466   7.781  20.681   9.981
43119W        W15467  34.866  10.725   2.871
43120W        W15468  34.411  26.034  10.510
43121W        W15469  42.382  21.122   3.238
43122W        W15470  23.700  11.185  11.032
43123W        W15471  35.521  39.955  14.401
43124W        W15472  29.539  20.234   4.773
43125W        W15473  20.165  34.057   4.347
43126W        W15474  41.535   8.240  13.429
43127W        W15475  15.777   7.183  11.434
43128W        W15476  43.940   1.302  11.404
43129W        W15477   9.718  21.106   1.242
43130W        W15478  39.935   3.367  14.798
43131W        W15479   4.879  42.819  11.061
43132W        W15480   4.890  38.531  11.967
43133W        W15481  19.252  29.478  10.517
43134W        W15482  26.193  29.090  11.410
43135W        W15483  24.078   8.745   2.370
43136W        W15484   0.354  33.984   0.737
43137W        W15485  37.914  37.468  11.871
43138W        W15486  14.790   9.710   3.253
43139W        W15487  27.999  36.859  14.768
43140W        W15488   1.428  25.197   5.242
43141W        W15489  35.549  29.165  13.008
43142W        W15490  30.054   1.285   4.306
43143W        W15491   7.771  28.050   5.127
43144W        W15492  14.663  18.738  11.484
43145W        W15493  13.345  18.176   0.960
43146W        W15494  13.814  32.010  12.841
43147W        W15495  41.917  33.498  10.089
43148W        W15496  27.497  19.226  13.808
43149W        W15497   6.241  33.964  12.399
43150W        W15498  21.196  40.505   1.232
43151W        W15499  19.615   2.300   2.665
43152W        W15500  10.741  20.647   3.747
43153W        W15501  29.467  26.162  11.075
43154W        W15502  26.510  38.342  10.474
43155W        W15503  42.320  15.748  13.937
43156W        W15504   6.336  34.601   3.185
43157W        W15505  32.487   8.883   2.320
43158W        W15506   2.258  22.579  11.930
43159W        W15507   3.790  42.978   0.388
43160W        W15508  20.634  30.423  14.907
43161W        W15509  34.374  31.570   1.859
43162W        W15510  36.492  41.326  12.563
43163W        W15511  41.005  39.017  10.508
43164W        W15512   6.390  20.529  14.462
43165W        W15513  40.020  33.601  11.993
43166W        W15514  17.740  14.694   3.331
43167W        W15515  32.574  44.353  10.626
43168W        W15516  22.652  23.085   3.666
43169W        W15517  18.664   9.222   1.909
43170W        W15518   8.771  26.964   3.867
43171W        W15519  39.401  11.728   2.374
43172W        W15520  43.775  38.564  13.460
43173W        W15521  20.726  10.860   4.150
43174W        W15522  22.127   2.347   1.729
43175W        W15523   9.643  19.044   2.382
43176W        W15524  30.583  43.353  12.882
43177W        W15525   0.388  11.832  11.519
43178W        W15526  42.430  35.576  14.794
43179W        W15527  14.597  20.185   1.762
43180W        W15528  23.129  28.103  13.843
43181W        W15529  34.590  21.514   5.271
43182W        W15530   2.905  23.114   1.361
43183W        W15531  34.020   7.328  10.450
43184W        W15532  16.077   0.975   1.928
43185W        W15533  19.646   2.366   3.690
43186W        W15534  23.149  42.405  11.395
43187W        W15535  17.667  37.423   0.309
43188W        W15536   5.775   4.294  13.325
43189W        W15537   9.876  34.061   0.864
43190W        W15538  26.989   4.893   0.258
43191W        W15539  42.481  43.848   3.168
43192W        W15540  20.540  37.419  12.027
43193W        W15541  44.296  14.682   0.336
43194W        W15542  19.687   4.269  14.852
43195W        W15543  26.673  21.103   1.283
43196W        W15544  30.446  16.184  11.432
43197W        W15545  26.501  18.102   3.173
43198W        W15546  29.947   1.912  11.108
43199W        W15547  14.113  10.352   3.724
43200W        W15548  14.811  40.348  10.502
43201W        W15549  41.996  35.040   4.713
43202W        W15550  16.808  35.015   1.794
43203W        W15551   7.271  43.432   2.217
43204W        W15552  43.829  32.897  11.474
43205W        W15553  21.102  24.034  11.988
43206W        W15554  19.707  12.621   0.327
43207W        W15555  34.541  21.033  12.008
43208W        W15556   3.364  23.575   3.657
43209W        W15557  33.938  17.647  12.033
43210W        W15558  22.728   2.873   0.273
43211W        W15559  41.483  44.457  13.331
43212W        W15560  22.037  32.591  10.519
43213W        W15561  11.735   5.912   2.703
43214W        W15562  24.641   9.850  14.838
43215W        W15563  34.007  32.546   1.790
43216W        W15564  30.931  22.715  10.641
43217W        W15565   8.684  33.460  11.108
43218W        W15566  31.562   2.394   4.605
43219W        W15567  19.233  22.218  10.966
43220W        W15568  35.372   0.415  13.314
43221W        W15569   9.869  18.148  11.899
43222W        W15570  40.505  24.681   0.846
43223W        W15571  17.626  25.610  10.985
43224W        W15572  20.093  44.499  12.012
43225W        W15573  38.894  19.722  13.516
43226W        W15574  36.349   3.277  13.531
43227W        W15575  16.143  17.102   4.340
43228W        W15576  29.548   8.890  13.469
43229W        W15577  26.650  33.413   3.780
43230W        W15578  12.778  28.478  12.517
43231W        W15579  39.876  28.446  12.002
43232W        W15580  39.906  26.545   4.669
43233W        W15581  10.234  22.641   5.666
43234W        W15582  29.045   1.253   0.863
43235W        W15583  16.289  43.974  10.427
43236W        W15584   3.944   3.388   0.815
43237W        W15585   7.889  38.418   4.330
43238W        W15586  27.451  17.569   4.119
43239W        W15587  38.983   3.908  13.831
43240W        W15588  32.635   8.251   2.336
43241W        W15589  37.374   2.882   1.286
43242W        W15590  16.134  30.553   2.667
43243W        W15591  16.804  12.722   3.706
43244W        W15592   4.868  13.162   4.313
43245W        W15593   7.735  15.607   4.198
43246W        W15594  36.435  11.324   1.278
43247W        W15595  23.232   4.249   0.268
43248W        W15596  38.366  11.262   0.312
43249W        W15597  39.474  29.013   2.277
43250W        W15598  40.386  24.603   4.152
43251W        W15599  24.135  39.939   1.241
43252W        W15600  42.390   5.722  12.094
43253W        W15601  25.022  24.646  12.484
43254W        W15602   7.368   8.160   0.786
43255W        W15603  38.503  24.723  10.903
43256W        W15604  22.634  31.045   0.347
43257W        W15605   2.851  39.931  12.917
43258W        W15606  44.405  34.035   4.622
43259W        W15607   3.773  14.835  12.843
43260W        W15608  37.356  44.964  12.889
43261W        W15609  14.210   2.921   2.779
43262W        W15610  37.568   6.384  10.986
43263W        W15611   9.154   9.765   2.393
43264W        W15612   2.240  34.093  14.018
43265W        W15613  38.541  21.217   1.441
43266W        W15614   3.414  20.747  13.970
43267W        W15615   1.357   1.732  11.930
43268W        W15616   7.700  19.690   3.861
43269W        W15617  25.180  39.500   0.925
43270W        W15618   8.299  29.480   3.721
43271W        W15619   9.746  42.475   4.206
43272W        W15620  27.644  21.134  11.125
43273W        W15621  44.380   6.333   0.862
43274W        W15622   2.376  32.987  12.411
43275W        W15623  38.932  29.432  10.980
43276W        W15624  37.833  34.059   2.359
43277W        W15625  17.775  22.995   0.401
43278W        W15626  25.177  35.991   3.683
43279W        W15627   9.253  35.913   0.781
43280W        W15628   6.311   1.422  14.815
43281W        W15629  24.612  34.010  12.937
43282W        W15630   9.714   4.730   3.384
43283W        W15631  23.205  29.109   1.851
43284W        W15632  17.714  40.043  11.870
43285W        W15633  23.180  35.463  14.027
43286W        W15634  12.160  35.956  14.792
43287W        W15635  30.953  10.674  10.557
43288W        W15636  32.977  36.899   0.805
43289W        W15637  27.956  27.449   0.275
43290W        W15638  38.903  30.640  10.161
43291W        W15639  15.147  27.535   2.871
43292W        W15640  19.700  29.481   0.866
43293W        W15641  28.060  31.910   9.985
43294W        W15642  28.669  25.690   3.180
43295W        W15643  36.879  13.835  11.402
43296W        W15644  15.613   1.259  10.518
43297W        W15645  24.662   8.310   9.993
43298W        W15646  23.089  32.127   2.799
43299W        W15647  44.284  36.363  13.016
43300W        W15648  40.534  32.576   2.334
43301W        W15649  42.336  18.274   3.375
43302W        W15650  16.127  20.221  14.290
43303W        W15651  39.464  14.624   1.933
43304W        W15652  18.632  41.334   0.950
43305W        W15653  25.678  38.428   0.811
43306W        W15654   0.449  29.589  10.463
43307W        W15655  40.317  21.169   4.720
43308W        W15656  25.220   4.767  14.516
43309W        W15657   9.374  42.286  12.849
43310W        W15658   2.842   5.398  14.886
43311W        W15659  21.723  34.908  10.059
43312W        W15660  13.641  39.969   2.686
43313W        W15661   0.840  19.047  12.829
43314W        W15662  17.122  12.346  12.908
43315W        W15663   8.319  36.578  14.413
43316W        W15664   5.761  17.695   2.748
43317W        W15665  26.618  27.564  10.028
43318W        W15666  25.005  32.067  12.967
43319W        W15667   7.812  32.450  14.028
43320W        W15668  20.075  39.343   0.253
43321W        W15669  24.607   5.424  13.383
43322W        W15670   0.338  20.677   2.227
43323W        W15671  33.554  22.541  12.065
43324W        W15672  12.356  12.327  11.463
43325W        W15673  12.166  16.638  12.017
43326W        W15674  26.200  29.926  14.796
43327W        W15675  17.061  14.288   5.575
43328W        W15676  25.155   9.393   3.308
43329W        W15677  41.322  37.418   0.415
43330W        W15678   3.947  33.389  12.969
43331W        W15679  23.142  19.600  12.485
43332W        W15680  38.438  10.313   3.351
43333W        W15681   7.697   3.436   1.923
43334W        W15682  32.927  37.876  13.936
43335W        W15683  41.425  10.330  12.524
43336W        W15684  20.745   6.897   1.837
43337W        W15685  42.469  14.332   2.902
43338W        W15686  44.358  34.109  12.039
43339W        W15687  18.059  17.256   1.799
43340W        W15688  35.919  29.121   2.243
43341W        W15689  29.462  33.992   2.263
43342W        W15690  22.732  31.412   0.886
43343W        W15691   3.393  17.653   0.244
43344W        W15692  17.723  42.289   3.631
43345W        W15693  37.076  25.079   0.415
43346W        W15694  38.036  23.648  11.539
43347W        W15695   0.909  35.863  11.603
43348W        W15696   7.793  23.171   3.806
43349W        W15697  32.900  21.247  10.478
43350W        W15698  42.904  28.590  14.494
43351W        W15699  14.679  36.859  10.967
43352W        W15700   3.374  25.535  12.086
43353W        W15701  13.244  12.323  12.424
43354W        W15702  31.462  40.044   2.700
43355W        W15703  26.103  28.159   1.746
43356W        W15704  36.390   6.919  10.430
43357W        W15705  19.188  21.117  10.008
43358W        W15706   0.324  24.571  14.965
43359W        W15707  18.246  33.467  13.443
43360W        W15708  23.562   7.185   2.798
43361W        W15709  23.615  42.490   3.807
43362W        W15710   3.713  32.123   1.343
43363W        W15711  42.397   2.852  12.946
43364W        W15712  20.596  11.753   3.255
43365W        W15713  26.072  17.679   1.310
43366W        W15714  27.990  12.651   5.304
43367W        W15715  43.460  23.198   0.476
43368W        W15716  25.068  30.029  12.347
43369W        W15717  44.794   1.471   4.769
43370W        W15718  42.920   3.855   3.761
43371W        W15719   7.772  14.313   2.306
43372W        W15720  37.385   1.293  11.929
43373W        W15721  43.329  41.315  14.441
43374W        W15722  22.644  23.716   3.840
43375W        W15723  37.519   2.798   2.336
43376W        W15724   0.955  42.886   0.860
43377W        W15725  41.899  24.518  14.836
43378W        W15726  13.603  28.484  14.457
43379W        W15727  44.454  33.078  12.964
43380W        W15728  31.901  34.923   9.987
43381W        W15729   3.948  28.931  13.825
43382W        W15730  17.224  43.898   1.915
43383W        W15731  41.987   3.913   3.736
43384W        W15732  13.329  13.705  14.812
43385W        W15733  43.877  35.041  12.013
43386W        W15734  32.549  16.148   1.316
43387W        W15735   4.892  15.660   2.298
43388W        W15736   9.159  31.514  14.807
43389W        W15737  30.002  38.948   1.801
43390W        W15738  31.071  12.304  14.492
43391W        W15739  36.049  21.579   4.697
43392W        W15740   0.373  26.074   3.669
43393W        W15741  18.685  26.614   0.412
43394W        W15742  24.573  31.948   4.645
43395W        W15743  26.529  28.538   4.607
43396W        W15744  33.476  26.189  12.424
43397W        W15745  41.366  44.908  12.030
43398W        W15746  22.738  31.927  13.385
43399W        W15747   5.427  36.007  13.510
43400W        W15748  11.854  11.827   0.431
43401W        W15749  31.120   2.341   0.400
43402W        W15750  27.160  30.541   2.381
43403W        W15751  44.804  28.963   4.780
43404W        W15752  33.560  27.536  11.071
43405W        W15753  26.147   4.904   1.329
43406W        W15754  34.374  33.979   3.266
43407W        W15755   6.845  41.846   0.346
43408W        W15756  20.733   4.363  14.848
43409W        W15757  44.930  32.430   0.944
43410W        W15758  41.454  41.434   2.750
43411W        W15759  33.992  18.631   4.217
43412W        W15760  25.477  13.287  14.470
43413W        W15761  35.593  34.001   4.306
43414W        W15762  25.634  36.081   4.342
43415W        W15763  11.362  29.670   1.874
43416W        W15764  35.498  21.150  14.422
43417W        W15765  33.533  43.017   0.838
43418W        W15766   6.389  34.933  13.390
43419W        W15767   4.274  28.185  13.322
43420W        W15768  38.064  20.217  14.822
43421W        W15769  24.168  24.583   1.263
43422W        W15770  10.699   0.357  14.434
43423W        W15771  33.408  26.117  14.374
43424W        W15772  17.640  32.014  11.372
43425W        W15773  43.802  20.723   0.941
43426W        W15774  23.608  41.907   2.354
43427W        W15775   0.755  39.466  13.964
43428W        W15776  10.780   7.350   1.760
43429W        W15777   1.894  20.257   1.302
43430W        W15778  26.596  14.643  11.550
43431W        W15779  44.388   0.307  13.537
43432W        W15780   5.376  33.610   0.372
43433W        W15781  20.067  11.175  11.939
43434W        W15782   2.383  44.773  11.972
43435W        W15783  23.734  32.016  10.971
43436W        W15784   7.687  43.997   1.749
43437W        W15785  10.148  26.029   2.413
43438W        W15786   6.840  15.300  11.434
43439W        W15787  12.760   9.267  12.075
43440W        W15788  20.684   5.857   2.749
43441W        W15789   5.932  29.001  11.914
43442W        W15790  28.481  23.015  14.372
43443W        W15791  13.799  19.551   2.777
43444W        W15792   4.370  20.728   4.821
43445W        W15793  38.424   9.165  10.438
43446W        W15794  36.873  37.080  13.495
43447W        W15795  26.184  19.067  14.460
43448W        W15796  10.776  13.765  14.277
43449W        W15797  28.516  21.229   3.294
43450W        W15798  21.536   8.773  12.351
43451W        W15799  40.827  26.056  11.979
43452W        W15800  37.873  28.975  14.368
43453W        W15801  37.473   9.274   1.309
43454W        W15802   1.244   8.250   0.289
43455W        W15803   1.394  38.402  13.532
43456W        W15804   2.787   5.360   0.962
43457W        W15805   7.280  14.150   0.819
43458W        W15806  25.692  40.540  11.005
43459W        W15807  20.206   8.704  12.907
43460W        W15808  18.642  19.551   2.754
43461W        W15809  33.539  31.499  10.536
43462W        W15810  26.682   1.834   4.308
43463W        W15811  19.275   7.186  13.791
43464W        W15812  24.487  35.881   2.236
43465W        W15813  33.450   6.271   4.767
43466W        W15814  21.701  12.134  11.513
43467W        W15815  17.202  34.423   1.290
43468W        W15816  36.996  25.636   3.184
43469W        W15817  34.381  43.365   4.140
43470W        W15818  36.357  36.033   5.186
43471W        W15819  40.384  20.044   0.482
43472W        W15820  44.377   5.707   4.241
43473W        W15821  16.256  40.450   0.873
43474W        W15822  25.611  34.977   4.648
43475W        W15823   5.370  37.559   4.680
43476W        W15824  43.777  17.153  14.867
43477W        W15825  11.331  11.208  11.379
43478W        W15826  36.995  22.054  12.359
43479W        W15827  17.711  15.677   2.313
43480W        W15828  25.655  29.089   3.145
43481W        W15829  36.915  30.950   4.254
43482W        W15830  39.513  27.676  13.477
43483W        W15831   2.408   8.237   2.815
43484W        W15832   3.767   6.689   2.757
43485W        W15833  22.714  11.237  12.414
43486W        W15834  40.009  42.465  11.956
43487W        W15835  32.539  12.804  13.960
43488W        W15836  13.106  24.194   3.378
43489W        W15837  19.633  11.269   3.333
43490W        W15838   9.225  41.787   2.793
43491W        W15839   0.820  32.562  11.914
43492W        W15840   4.880  30.530   4.727
43493W        W15841  27.137  44.381   4.717
43494W        W15842  16.644   8.302   1.870
43495W        W15843  30.613  13.291   3.380
43496W        W15844  44.345  35.482   0.785
43497W        W15845  37.381  13.274  11.937
43498W        W15846  19.726  25.032   2.383
43499W        W15847  32.893  35.493   1.715
43500W        W15848  33.425   0.758   1.909
43501W        W15849  22.211  39.531   1.764
43502W        W15850  43.857  33.022   4.789
43503W        W15851  44.934  35.981   4.161
43504W        W15852  25.672  34.607   3.682
43505W        W15853  31.131  32.141   2.770
43506W        W15854   1.916  30.544  14.868
43507W        W15855  24.045  21.110  14.923
43508W        W15856  23.058   5.208   4.250
43509W        W15857  18.264   1.916   4.243
43510W        W15858  28.961  30.526  11.463
43511W        W15859  31.408  36.400   0.269
43512W        W15860  17.126  32.907  11.486
43513W        W15861  22.711  31.122  13.972
43514W        W15862   7.869   4.301  11.584
43515W        W15863  44.424   6.821  12.078
43516W        W15864   4.864  11.352  12.550
43517W        W15865  10.676  31.433  12.345
43518W        W15866  19.230   1.240   0.277
43519W        W15867  36.844  17.173   1.884
43520W        W15868  40.957   7.374   4.768
43521W        W15869  31.534  36.580  12.050
43522W        W15870  36.016  14.761  13.055
43523W        W15871  26.649  15.276   4.690
43524W        W15872  13.261  33.999   1.229
43525W        W15873  16.227  18.631  12.876
43526W        W15874  19.051  44.478  14.943
43527W        W15875  43.917  25.036   0.452
43528W        W15876  17.239  25.627   0.311
43529W        W15877  11.648  42.309  13.044
43530W        W15878  17.126  30.643  12.514
43531W        W15879  21.547  38.405  13.890
43532W        W15880  32.015   5.790   5.131
43533W        W15881   7.896   6.376   3.161
43534W        W15882  40.530  15.726   9.998
43535W        W15883  30.135  37.999  11.416
43536W        W15884   1.767   6.296   0.914
43537W        W15885  17.087  28.170   4.708
43538W        W15886  44.994  13.708  11.447
43539W        W15887  31.909  31.979   3.669
43540W        W15888  35.013  29.521   2.293
43541W        W15889  21.696   3.807  11.919
43542W        W15890  43.796  29.941  10.449
43543W        W15891  28.135  24.038  10.994
43544W        W15892  39.065   4.295   0.266
43545W        W15893   0.334  32.522  10.409
43546W        W15894  39.391  20.175   2.367
43547W        W15895  28.181  32.444  11.433
43548W        W15896   5.204  35.918  12.354
43549W        W15897  34.977  16.184  11.402
43550W        W15898  35.489  33.963  14.848
43551W        W15899  41.892  17.074   2.813
43552W        W15900   8.366   9.305   1.894
43553W        W15901  16.614  43.922   0.784
43554W        W15902  31.953   6.858   3.364
43555W        W15903   8.899  34.880   2.669
43556W        W15904  35.875  17.578  14.835
43557W        W15905  35.999  22.518   2.699
43558W        W15906   5.854  15.317   1.812
43559W        W15907  20.103  38.331   3.240
43560W        W15908   2.462  30.609  12.523
43561W        W15909  38.919  17.117   5.091
43562W        W15910  22.587  21.753  10.434
43563W        W15911  32.504  11.342   1.852
43564W        W15912  28.649  41.349   3.384
43565W        W15913  24.646  44.821   4.138
43566W        W15914  13.343  23.129  13.010
43567W        W15915  23.121  15.108  12.074
43568W        W15916  13.834  13.699   5.683
43569W        W15917  43.813   2.825  11.896
43570W        W15918  30.135  41.456  14.965
43571W        W15919  16.166  18.588   4.650
43572W        W15920  43.311  32.582   2.797
43573W        W15921   6.411  35.484  13.423
43574W        W15922  39.058  29.603   2.740
43575W        W15923  10.318  12.635   1.420
43576W        W15924   6.876  27.471   0.255
43577W        W15925  24.563  31.912  12.919
43578W        W15926  21.155  24.577   3.267
43579W        W15927  41.881  12.697   3.791
43580W        W15928  40.874  26.630   2.223
43581W        W15929   0.934  43.847   4.131
43582W        W15930  21.125  38.378   1.374
43583W        W15931  11.138  15.581   0.773
43584W        W15932  13.184  17.684   2.822
43585W        W15933  14.659   2.452   4.746
43586W        W15934   3.909  30.562   0.249
43587W        W15935   8.897  28.059   3.850
43588W        W15936  16.591   0.311  13.828
43589W        W15937  28.527  14.207   3.669
43590W        W15938   0.913  31.990   3.235
43591W        W15939  32.909  13.732  11.108
43592W        W15940  38.908  41.923  14.500
43593W        W15941  31.613  30.986  10.405
43594W        W15942  23.185  15.780  11.910
43595W        W15943  16.610  37.407   3.740
43596W        W15944  39.901  15.709   3.288
43597W        W15945  24.482  37.558  10.454
43598W        W15946  12.721  38.921   4.819
43599W        W15947   6.273  38.979   2.347
43600W        W15948  31.453  41.493  12.540
43601W        W15949  26.087   3.749   3.189
43602W        W15950  25.022   1.313   0.916
43603W        W15951  34.041   8.191   0.432
43604W        W15952  16.740  34.480   2.254
43605W        W15953   0.880  11.867  12.393
43606W        W15954  33.972  28.055   4.746
43607W        W15955  10.727  35.961   3.177
43608W        W15956  41.889  16.640   2.862
43609W        W15957   0.905   3.277  13.937
43610W        W15958  16.701  26.069  10.964
43611W        W15959  22.239  36.411   2.853
43612W        W15960  19.174  34.543  11.871
43613W        W15961  39.397   9.171  10.980
43614W        W15962  16.232  21.746   1.330
43615W        W15963  10.202  12.314   3.820
43616W        W15964  38.362  39.431   0.926
43617W        W15965  18.082  17.669  11.880
43618W        W15966   8.696  17.666   3.829
43619W        W15967  15.233  34.887  13.451
43620W        W15968  17.668  10.672   2.417
43621W        W15969   7.356  20.259  11.457
43622W        W15970  42.387   5.434   2.710
43623W        W15971  12.696  24.976   1.896
43624W        W15972  32.535  44.450   1.717
43625W        W15973  35.534  26.105   0.832
43626W        W15974   9.833  26.522  13.325
43627W        W15975  30.915  30.076   4.277
43628W        W15976  13.115  13.249   3.778
43629W        W15977  21.725   9.826  12.828
43630W        W15978  30.132  31.960   4.649
43631W        W15979  26.069  13.812   0.880
43632W        W15980  15.629  42.438  11.901
43633W        W15981  34.548  39.506  10.630
43634W        W15982  26.992  23.174   2.255
43635W        W15983  34.979   3.909   3.322
43636W        W15984  17.228  16.132  13.479
43637W        W15985  25.491   6.381  11.109
43638W        W15986  35.002   9.269   3.671
43639W        W15987  41.450  28.639  10.582
43640W        W15988  41.831  28.659  12.987
43641W        W15989  33.433  23.165   3.358
43642W        W15990  25.177  33.999   1.428
43643W        W15991   9.846  15.617   5.270
43644W        W15992  19.593  44.909  11.435
43645W        W15993   2.334   5.697  14.369
43646W        W15994  24.571  24.695  11.967
43647W        W15995  10.314   7.330  11.400
43648W        W15996  44.300  16.766  11.941
43649W        W15997  21.224  20.068  14.408
43650W        W15998  16.305  35.892   5.284
43651W        W15999  17.254  29.593  12.372
43652W        W16000  34.885  13.154  11.019
43653W        W16001  21.039  44.355   1.860
43654W        W16002  21.651  32.961   3.838
43655W        W16003  44.979  41.470   0.816
43656W        W16004  35.915  27.617  12.853
43657W        W16005   6.226  29.485   1.817
43658W        W16006  44.458  20.673  14.471
43659W        W16007  14.805  30.546  13.953
43660W        W16008  34.583  12.349  10.613
43661W        W16009  30.092  42.282  14.437
43662W        W16010   3.297  18.239  14.989
43663W        W16011  44.860  20.692  12.406
43664W        W16012   4.703  29.440  10.492
43665W        W16013  17.220  27.025  10.406
43666W        W16014   2.924  30.637  13.444
43667W        W16015  20.745   0.954  13.316
43668W        W16016  31.149  23.055  14.907
43669W        W16017  33.887  40.318  14.850
43670W        W16018  35.051   9.722   3.201
43671W        W16019   3.758  23.233  13.322
43672W        W16020   5.905   3.296   3.647
43673W        W16021  42.991  28.935  12.983
43674W        W16022  15.277  38.543  11.599
43675W        W16023  33.576  31.929   0.362
43676W        W16024  32.114  27.034   3.328
43677W        W16025   4.215  29.521   3.687
43678W        W16026  25.488  37.514  13.322
43679W        W16027  41.445  26.529  13.860
43680W        W16028  33.981  37.076  14.490
43681W        W16029  22.715  13.714   3.190
43682W        W16030   1.398  12.135  13.330
43683W        W16031  27.941  12.733  14.913
43684W        W16032  18.682  20.250  11.453
43685W        W16033  20.218  27.481   2.698
43686W        W16034   8.229  17.779  13.954
43687W        W16035  22.039  14.715  11.391
43688W        W16036  10.748  25.524   0.400
43689W        W16037  19.590  37.080   2.348
43690W        W16038   1.811  11.628  12.072
43691W        W16039  41.820  28.101   1.371
43692W        W16040  19.629  29.090  14.331
43693W        W16041  36.425  22.207   4.777
43694W        W16042  23.657  37.476  12.992
43695W        W16043  11.832  41.862   4.666
43696W        W16044  41.944  29.442   2.823
43697W        W16045  18.594  17.277  14.462
43698W        W16046  26.004  33.003   1.726
43699W        W16047  32.083   5.697   0.258
43700W        W16048  30.016  24.704   1.844
43701W        W16049  21.669  36.346  12.067
43702W        W16050  31.082  30.969  12.406
43703W        W16051  13.672   4.942  13.945
43704W        W16052  10.830  14.280   4.773
43705W        W16053   7.392  38.527   4.139
43706W        W16054  34.405  42.495   1.834
43707W        W16055  27.689   7.321  13.518
43708W        W16056  44.480  35.006   1.383
43709W        W16057  36.957  39.346   0.451
43710W        W16058  33.611  33.974   5.670
43711W        W16059  17.774   2.808   0.910
43712W        W16060  23.664  21.231  14.474
43713W        W16061  17.274  27.167  13.416
43714W        W16062  27.967  18.624  14.442
43715W        W16063  28.099   9.796  11.931
43716W        W16064  23.027  36.976  11.516
43717W        W16065   1.453  19.555  12.364
43718W        W16066  24.983   9.155   9.955
43719W        W16067  39.038   6.798   3.242
43720W        W16068  36.550  18.219   4.748
43721W        W16069  15.773  17.630   0.380
43722W        W16070  10.197  18.710   3.804
43723W        W16071   5.739  30.498   1.731
43724W        W16072  15.786  14.168   4.259
43725W        W16073  10.267   0.843  14.363
43726W        W16074  35.440  23.235  13.971
43727W        W16075  18.247  32.909   4.318
43728W        W16076  21.239  15.798  13.872
43729W        W16077  30.983  11.711   3.375
43730W        W16078   2.828   8.217   0.324
43731W        W16079  16.654  14.248  12.889
43732W        W16080  31.949  16.206   0.245
43733W        W16081  25.710  26.063   4.745
43734W        W16082   8.163  33.099   5.117
43735W        W16083   0.817   0.972  14.823
43736W        W16084  18.590  20.151  14.360
43737W        W16085  34.369  24.710  11.385
43738W        W16086   6.403  37.938   3.717
43739W        W16087  11.204  23.085   1.210
43740W        W16088  22.177  44.998  13.912
43741W        W16089   5.742  20.195   2.255
43742W        W16090  31.987  38.537  14.777
43743W        W16091   9.810  13.211  14.865
43744W        W16092  36.023  42.854   3.639
43745W        W16093  19.773  26.188  11.068
43746W        W16094   5.689   0.383  13.438
43747W        W16095  11.683  25.697  13.382
43748W        W16096  37.838  25.098   5.239
43749W        W16097  26.546  17.727  12.051
43750W        W16098  42.818  21.562   3.296
43751W        W16099   9.334  12.647   9.925
43752W        W16100   4.254  36.012  14.830
43753W        W16101  21.036   3.917   2.190
43754W        W16102  40.022   0.758  10.504
43755W        W16103  44.882  32.564  13.342
43756W        W16104  32.022  35.082   1.758
43757W        W16105  44.400  29.955  13.402
43758W        W16106  12.184   1.278  11.563
43759W        W16107  37.940  19.139  14.951
43760W        W16108   9.235  28.461   4.328
43761W        W16109  43.447  25.148  12.361
43762W        W16110  27.672   3.420  10.486
43763W        W16111   9.279  39.522   3.663
43764W        W16112  38.352   8.243   1.734
43765W        W16113  16.097  10.250   4.800
43766W        W16114   5.855  11.348  11.912
43767W        W16115  28.995   7.402   2.317
43768W        W16116  19.247  18.152  14.354
43769W        W16117  41.903  12.826   5.193
43770W        W16118  44.474  42.509   2.797
43771W        W16119  22.689  25.084  14.785
43772W        W16120  42.502   9.694  13.850
43773W        W16121  41.912  12.298   0.442
43774W        W16122  44.493  23.048  10.423
43775W        W16123  43.477  40.913  11.008
43776W        W16124  36.557  21.102   2.379
43777W        W16125  14.197  13.169  11.604
43778W        W16126  40.013  44.443  13.821
43779W        W16127  34.034  34.919   1.329
43780W        W16128   3.442  17.173  13.460
43781W        W16129  32.136  20.667  14.327
43782W        W16130  14.305  20.541  13.452
43783W        W16131  40.436  22.746   2.779
43784W        W16132  12.760  10.797   0.834
43785W        W16133  43.467  30.065  11.979
43786W        W16134  27.126  30.445  13.054
43787W        W16135   8.807  12.766   3.699
43788W        W16136   4.908   7.182   1.344
43789W        W16137  13.701  21.131   2.215
43790W        W16138   3.714  24.660  11.394
43791W        W16139   2.838   9.717  11.544
43792W        W16140  20.219  40.981   3.340
43793W        W16141  29.090  29.657   3.636
43794W        W16142  23.687  20.629   1.436
43795W        W16143  36.529  27.975  10.494
43796W        W16144  33.989  35.592   3.656
43797W        W16145   0.780  24.120  10.619
43798W        W16146  21.111  25.591   0.860
43799W        W16147  12.744  28.020   3.786
43800W        W16148  33.912  30.476   1.915
43801W        W16149   6.333  32.609   0.801
43802W        W16150  43.942  44.841   3.241
43803W        W16151  32.133   2.289   4.353
43804W        W16152   5.876  27.556  12.361
43805W        W16153  21.119  16.271  13.825
43806W        W16154  12.722  25.157  12.944
43807W        W16155  11.203   8.783   2.683
43808W        W16156  15.257  22.636   2.858
43809W        W16157  33.892  39.529   4.812
43810W        W16158   6.680  37.412   0.351
43811W        W16159  28.042  32.078   4.129
43812W        W16160  12.174   5.275  12.542
43813W        W16161   6.894  15.630   4.280
43814W        W16162  33.533  43.485   1.294
43815W        W16163  33.593  31.495   0.393
43816W        W16164  39.939  35.460   0.902
43817W        W16165   5.905  33.513   3.746
43818W        W16166  28.624  44.875   0.340
43819W        W16167  42.977  34.869   5.127
43820W        W16168  44.812   5.931  12.421
43821W        W16169  23.073  14.152  13.815
43822W        W16170  22.599   5.884   0.852
43823W        W16171  31.011  28.153  14.317
43824W        W16172  27.077   6.385   0.479
43825W        W16173  41.942  43.336  13.491
43826W        W16174   8.839  10.775   2.759
43827W        W16175  37.579  38.951  10.456
43828W        W16176  34.968   4.913  12.022
43829W        W16177  31.504   6.357  10.943
43830W        W16178  44.341  13.827  13.019
43831W        W16179  18.142   5.312  11.408
43832W        W16180  27.485   3.745  10.509
43833W        W16181  18.166  31.916  14.425
43834W        W16182   0.825  22.623  12.051
43835W        W16183  24.550  14.740   4.788
43836W        W16184  41.881  44.485   2.770
43837W        W16185  16.199  17.563   1.907
43838W        W16186  44.397  34.111  11.569
43839W        W16187  33.445  29.141   2.897
43840W        W16188  19.706  22.020  14.995
43841W        W16189  10.714  31.517  14.369
43842W        W16190  28.478  27.981   1.743
43843W        W16191   3.423  27.563   3.681
43844W        W16192  28.573  11.128  14.355
43845W        W16193  15.306  15.207  14.917
43846W        W16194  12.275  17.095   1.388
43847W        W16195   4.904  25.005   3.332
43848W        W16196  11.678  37.337  10.453
43849W        W16197  40.443  42.312   4.834
43850W        W16198  12.818  19.215  12.839
43851W        W16199  14.811   5.219   1.856
43852W        W16200  30.448  43.362   1.840
43853W        W16201  22.030  14.135   5.197
43854W        W16202   8.284  30.124   0.411
43855W        W16203  24.227  10.814   0.438
43856W        W16204  44.297   9.861   3.856
43857W        W16205  37.963  16.310   0.276
43858W        W16206   5.245   3.736  12.957
43859W        W16207  13.202   6.745  11.928
43860W        W16208  24.991  32.004   4.636
43861W        W16209  33.527  31.631   1.709
43862W        W16210  44.907  39.886   1.373
43863W        W16211   5.293  28.972  11.898
43864W        W16212   1.390   4.884   0.400
43865W        W16213   3.235  44.384   0.385
43866W        W16214   0.954  40.499  11.603
43867W        W16215  10.816  32.625  14.875
43868W        W16216   1.779  33.532  11.949
43869W        W16217  12.680  35.404   3.276
43870W        W16218  29.151  25.029   2.297
43871W        W16219   7.880  40.378  11.096
43872W        W16220  38.874  22.183   4.618
43873W        W16221  40.915  16.571  11.997
43874W        W16222  37.973   5.252   0.301
43875W        W16223  15.597   6.841  10.469
43876W        W16224  26.087   7.319   2.238
43877W        W16225  28.650  24.647  10.986
43878W        W16226  15.165  12.658  14.431
43879W        W16227  23.203  17.241  14.346
43880W        W16228  36.473  39.438   1.352
43881W        W16229  39.822  34.605  14.400
43882W        W16230  25.484   7.717  14.999
43883W        W16231  11.311  33.100   0.335
43884W        W16232  38.865  15.686   3.228
43885W        W16233  28.974  24.151   3.367
43886W        W16234  12.651   5.351  14.793
43887W        W16235  19.706   3.320   1.877
43888W        W16236  15.714  33.883   1.376
43889W        W16237  20.167  38.037   2.669
43890W        W16238  27.951  34.402   4.324
43891W        W16239  44.416  25.051   5.118
43892W        W16240  33.586  23.527  10.977
43893W        W16241  44.279  20.037  12.034
43894W        W16242  34.382  28.569   0.478
43895W        W16243  42.429  24.153  12.024
43896W        W16244  10.705  20.578  11.012
43897W        W16245  22.116  18.548   2.799
43898W        W16246   7.195   3.311   1.850
43899W        W16247  39.459  12.627  11.578
43900W        W16248  28.999  22.737   4.764
43901W        W16249   3.335  10.143   1.775
43902W        W16250  20.615   6.905   4.253
43903W        W16251   5.313  36.043   1.838
43904W        W16252  35.029  31.075  12.453
43905W        W16253  13.123   5.322  14.953
43906W        W16254  25.046  26.952   2.403
43907W        W16255  22.057  32.592  14.423
43908W        W16256  12.693   7.687  14.372
43909W        W16257  23.623  19.647   3.271
43910W        W16258  12.838  43.405   4.254
43911W        W16259  37.832  21.604   0.735
43912W        W16260  42.788  13.612   1.902
43913W        W16261  42.969   4.714   2.836
43914W        W16262  31.547  35.959  14.439
43915W        W16263  31.934  43.950   2.262
43916W        W16264  34.429  19.219  12.383
43917W        W16265   3.391   9.653   3.378
43918W        W16266  18.693  28.123  13.963
43919W        W16267   5.394  14.320   2.276
43920W        W16268   3.269  10.671   1.769
43921W        W16269  27.604  10.838  13.922
43922W        W16270  25.474  29.448  14.440
43923W        W16271  19.607  17.730  13.008
43924W        W16272  15.192  25.686  12.490
43925W        W16273  44.911  44.860  11.401
43926W        W16274  12.177   6.356   3.178
43927W        W16275  35.023  30.114   1.290
43928W        W16276  38.911  15.689   4.334
43929W        W16277  21.592  30.098   3.695
43930W        W16278   6.335  11.322   4.674
43931W        W16279  16.808  44.427   2.691
43932W        W16280  10.764  13.239   2.244
43933W        W16281  24.685  39.458   2.693
43934W        W16282  27.005  37.960  13.480
43935W        W16283  33.924  33.002   2.356
43936W        W16284  14.651  14.591   4.184
43937W        W16285   4.340  42.953   2.867
43938W        W16286  40.336   3.271   2.282
43939W        W16287  21.629  36.864   0.810
43940W        W16288  23.645   9.315   9.979
43941W        W16289  21.554  41.392  12.356
43942W        W16290   3.844  28.547  11.428
43943W        W16291   1.933  25.706   2.207
43944W        W16292  27.008   6.418  10.602
43945W        W16293  22.622  37.348  14.345
43946W        W16294  34.426  38.952  14.918
43947W        W16295   0.922  39.441  13.427
43948W        W16296   0.319  41.470  12.826
43949W        W16297  33.999  21.201   1.833
43950W        W16298  32.525   8.707   9.539
43951W        W16299  30.438  30.155  14.389
43952W        W16300  20.091  33.058   1.844
43953W        W16301  11.776  20.726   0.392
43954W        W16302  18.165  16.103  11.595
43955W        W16303  24.160  22.702   4.753
43956W        W16304   9.755   2.342  11.015
43957W        W16305  14.321  34.071   0.452
43958W        W16306  29.601   1.796   3.313
43959W        W16307   7.328   0.392  10.504
43960W        W16308  16.112   9.220  11.992
43961W        W16309  30.960  10.775  10.890
43962W        W16310  12.229  36.912  11.588
43963W        W16311   4.440  10.146  14.391
43964W        W16312  32.491  29.466   0.794
43965W        W16313  35.912   1.864   4.326
43966W        W16314  22.077   7.385  11.961
43967W        W16315  27.521  37.547  12.543
43968W        W16316  26.588  15.197   3.854
43969W        W16317  44.910  38.950   2.374
43970W        W16318   2.964  17.119   2.863
43971W        W16319  40.528   9.374   3.852
43972W        W16320   0.958  11.145   4.686
43973W        W16321  28.044  24.201   4.770
43974W        W16322  13.270   4.732  13.003
43975W        W16323  22.747  16.808   0.461
43976W        W16324  17.599  10.306  14.016
43977W        W16325  43.860  42.998   2.259
43978W        W16326  21.224  17.107  11.868
43979W        W16327   3.306  30.415  14.960
43980W        W16328  40.519  21.085   0.890
43981W        W16329  16.676  20.539   1.842
43982W        W16330  40.844  32.551   1.227
43983W        W16331  22.599  35.573   3.230
43984W        W16332  10.692   4.434  12.974
43985W        W16333  38.386   7.259  14.907
43986W        W16334  38.500  40.489   0.855
43987W        W16335   9.749  34.451  11.101
43988W        W16336  20.257  18.597   4.779
43989W        W16337   3.732  36.452  12.001
43990W        W16338  39.458  44.323  10.993
43991W        W16339  38.511  13.639  13.848
43992W        W16340  19.637   4.753   5.271
43993W        W16341  24.028  10.338  11.064
43994W        W16342  41.356  19.277   1.424
43995W        W16343  29.588  24.530   0.465
43996W        W16344   9.321   0.923  12.826
43997W        W16345   9.277   1.813   3.316
43998W        W16346  41.344  39.009  13.469
43999W        W16347  20.232   7.278   4.180
44000W        W16348  43.511  25.485  14.501
44001W        W16349  22.150   2.463   3.718
44002W        W16350  17.686  40.019   1.363
44003W        W16351  32.978  20.061  11.413
44004W        W16352  11.714  24.590  11.912
44005W        W16353  36.360  37.542   3.210
44006W        W16354  37.915  44.304   3.828
44007W        W16355  42.012  22.588   0.318
44008W        W16356   7.701  32.532  12.988
44009W        W16357  43.905   3.338   4.670
44010W        W16358   7.256  29.558  12.372
44011W        W16359   7.727  14.665  14.843
44012W        W16360  28.139  25.055  13.508
44013W        W16361  13.150  38.061  12.479
44014W        W16362  40.460  26.166   2.818
44015W        W16363   2.738   2.913   1.750
44016W        W16364  42.342  17.112  13.437
44017W        W16365  38.499  24.181  11.543
44018W        W16366  30.509   4.927   4.158
44019W        W16367  17.741  11.180   3.732
44020W        W16368  44.283  41.309  10.418
44021W        W16369  20.563  13.812  13.884
44022W        W16370  10.254   3.338   4.761
44023W        W16371   3.323  15.729  10.048
44024W        W16372  41.527   0.484   0.832
44025W        W16373  43.318   4.915   4.212
44026W        W16374  30.562  33.056   3.721
44027W        W16375  30.469  27.544  11.079
44028W        W16376  24.683   1.749   0.789
44029W        W16377  24.623  27.527  12.944
44030W        W16378  43.976  34.594  14.469
44031W        W16379  37.025  36.452  14.789
44032W        W16380   4.441  24.515  13.486
44033W        W16381  20.639  35.054  13.509
44034W        W16382   3.858  22.516   2.896
44035W        W16383  34.868  23.663  10.494
44036W        W16384  20.240  44.967  13.888
44037W        W16385  37.980   3.849  11.591
44038W        W16386   4.379  25.023  10.994
44039W        W16387  41.358  42.294  10.517
44040W        W16388  39.000  30.073   2.345
44041W        W16389   9.168  15.723  10.488
44042W        W16390  20.596  31.580   2.870
44043W        W16391  22.232  41.392  12.434
44044W        W16392   8.878  40.471   2.356
44045W        W16393  42.374   4.897  14.419
44046W        W16394  10.698  31.585  11.506
44047W        W16395  38.443  32.044   2.275
44048W        W16396  26.698  28.169  14.845
44049W        W16397   4.426  14.803   3.176
44050W        W16398  13.799  10.833   1.308
44051W        W16399  21.149  21.628   2.194
44052W        W16400  24.004  17.623   4.258
44053W        W16401   2.762  43.853  13.375
44054W        W16402   5.340  32.943   1.269
44055W        W16403  24.524  18.644   3.714
44056W        W16404  40.808  27.680  11.921
44057W        W16405  10.152  39.995   4.328
44058W        W16406  44.480  12.656   1.884
44059W        W16407  26.979  27.035   1.718
44060W        W16408   1.254  17.247  11.411
44061W        W16409  44.277   5.849   0.427
44062W        W16410  35.099  41.490  14.295
44063W        W16411  32.002  43.831  12.060
44064W        W16412   5.759  27.681  13.792
44065W        W16413  34.013  13.268  14.760
44066W        W16414   1.912  16.252   3.291
44067W        W16415  23.664   3.862   0.839
44068W        W16416  28.629  22.617  10.925
44069W        W16417  17.074  19.107  10.918
44070W        W16418   5.358   2.227   4.270
44071W        W16419  19.618   8.899  14.766
44072W        W16420   1.839  23.985   0.271
44073W        W16421  44.465  25.976  13.948
44074W        W16422  25.158   3.356  10.412
44075W        W16423  13.205  11.293  10.630
44076W        W16424  19.075  27.472   2.281
44077W        W16425  44.289   4.225   0.373
44078W        W16426  42.853  37.447  13.313
44079W        W16427  19.776   0.466  10.122
44080W        W16428  41.538  20.161   2.750
44081W        W16429  10.165   1.305  11.404
44082W        W16430  41.815  22.641  10.612
44083W        W16431   2.421  16.777   0.813
44084W        W16432  35.434  36.974  13.504
44085W        W16433   7.334  36.348   0.793
44086W        W16434   8.726  37.477   2.391
44087W        W16435  23.640  36.587   0.757
44088W        W16436  12.347  35.439   1.835
44089W        W16437  19.168  34.946   4.259
44090W        W16438  15.756  20.225   3.772
44091W        W16439  32.950   7.746  12.421
44092W        W16440  33.053  13.704   4.310
44093W        W16441  29.141   3.940   2.691
44094W        W16442  22.227   7.703   0.857
44095W        W16443   9.192  40.414   3.747
44096W        W16444  24.681  38.829   2.843
44097W        W16445  25.498  14.249   1.284
44098W        W16446  31.110  42.896   9.923
44099W        W16447  36.375  30.976   2.664
44100W        W16448   5.292  15.324   0.293
44101W        W16449   1.264  22.533   2.788
44102W        W16450  26.498  24.600   1.253
44103W        W16451  12.289  31.139  11.092
44104W        W16452   7.669  39.849   0.774
44105W        W16453  44.772   6.374  11.417
44106W        W16454  26.139   0.908  13.307
44107W        W16455  15.131  43.379  10.434
44108W        W16456  18.728  27.130  10.621
44109W        W16457   0.908  42.498  11.381
44110W        W16458   4.816  26.539   1.401
44111W        W16459  12.755  26.591  14.821
44112W        W16460   6.362  21.023  14.848
44113W        W16461  42.395  33.623  10.516
44114W        W16462   5.275  31.897  14.896
44115W        W16463  29.958  24.049  14.764
44116W        W16464   4.717   4.816  13.974
44117W        W16465   6.386  31.127   5.698
44118W        W16466  22.246  13.124  13.530
44119W        W16467   6.197   0.458  14.879
44120W        W16468  18.254   0.426  13.981
44121W        W16469   9.703  29.447  11.963
44122W        W16470  28.636  24.176   4.186
44123W        W16471   4.924  20.732   2.334
44124W        W16472  27.473  33.934  11.126
44125W        W16473  14.224  28.978  11.522
44126W        W16474  29.923  14.605   4.211
44127W        W16475   1.791  26.993   3.671
44128W        W16476   4.289  20.705  12.535
44129W        W16477  36.063  41.884  10.486
44130W        W16478   1.732  13.650  14.423
44131W        W16479   1.245  35.442   2.370
44132W        W16480  14.255   8.257  13.971
44133W        W16481  23.128  30.564  10.412
44134W        W16482  15.796  28.933   1.857
44135W        W16483  23.605   0.272  11.507
44136W        W16484  10.691   0.403   2.419
44137W        W16485  17.665  15.581   4.600
44138W        W16486  22.509   5.387   3.196
44139W        W16487  27.467  42.916  13.395
44140W        W16488  14.759   7.172  12.534
44141W        W16489  40.862  19.261  13.812
44142W        W16490  25.654   9.162   5.769
44143W        W16491  40.867  18.719   1.364
44144W        W16492  25.703   1.251   1.420
44145W        W16493  15.726  35.875   1.781
44146W        W16494  34.088   4.297  11.973
44147W        W16495  25.105   1.880  12.031
44148W        W16496  37.031  12.318  14.387
44149W        W16497  42.882  29.142   4.252
44150W        W16498  25.532  26.505   0.794
44151W        W16499   2.923  39.449   3.367
44152W        W16500  33.021  26.700   4.779
44153W        W16501   6.400  34.435  14.505
44154W        W16502   8.675  38.398   3.164
44155W        W16503  12.317  27.453   3.312
44156W        W16504  20.030  31.091   0.444
44157W        W16505  17.705  22.668   1.362
44158W        W16506  20.078  32.499   1.446
44159W        W16507   8.302  29.140  12.925
44160W        W16508   3.450  19.124   1.918
44161W        W16509  41.824  40.342   0.809
44162W        W16510  10.213  17.296   1.321
44163W        W16511  44.866  42.892  11.883
44164W        W16512  31.926  33.428   4.290
44165W        W16513  17.174  33.052   1.336
44166W        W16514  39.984   3.900   1.224
44167W        W16515  13.785  20.238  13.836
44168W        W16516  29.664  22.560  14.293
44169W        W16517  28.516   5.394  14.311
44170W        W16518  38.067  42.920   0.250
44171W        W16519  36.873   0.436   1.696
44172W        W16520  34.863   1.239  13.525
44173W        W16521  38.975   8.689   2.868
44174W        W16522   9.835  35.914  11.955
44175W        W16523  12.304  31.622   1.711
44176W        W16524  44.461   4.809   0.453
44177W        W16525  33.895  17.786   2.343
44178W        W16526  17.590  15.649   0.364
44179W        W16527  43.511   3.857  11.033
44180W        W16528  20.193  28.049   1.894
44181W        W16529   8.370  35.370   2.340
44182W        W16530   1.798  34.456  10.622
44183W        W16531  18.595  38.999   4.805
44184W        W16532   0.471  25.600   1.217
44185W        W16533  28.595  13.306   1.276
44186W        W16534  38.038  20.734  11.959
44187W        W16535  42.885   3.930   1.816
44188W        W16536   8.392  28.636  13.362
44189W        W16537  27.599  43.871  11.078
44190W        W16538   7.675  26.561  13.972
44191W        W16539  44.890  21.687   4.191
44192W        W16540  37.554  32.134  12.873
44193W        W16541  15.687  36.541  11.089
44194W        W16542  18.243   9.804  14.433
44195W        W16543  26.141  42.448   3.214
44196W        W16544   8.711  42.285  14.851
44197W        W16545  32.512  15.679   0.261
44198W        W16546  34.938  26.974  12.921
44199W        W16547  40.944   1.448   4.171
44200W        W16548  17.228  26.183  14.332
44201W        W16549   3.288  28.032   3.250
44202W        W16550  32.973   2.756   0.447
44203W        W16551  10.251  20.086   3.351
44204W        W16552  32.042   9.225   1.420
44205W        W16553  16.674   5.902  12.000
44206W        W16554  16.684  32.972   4.714
44207W        W16555  42.379  17.153   2.667
44208W        W16556  16.780  26.028  14.842
44209W        W16557   9.694   5.759   5.176
44210W        W16558  37.854   8.779   0.923
44211W        W16559  18.783   8.775   2.811
44212W        W16560  38.906  17.236  14.761
44213W        W16561  20.643  17.694  13.323
44214W        W16562  13.184  41.330   2.890
44215W        W16563  37.543  26.480   1.899
44216W        W16564   2.906  11.621   1.357
44217W        W16565  21.653   8.798  12.005
44218W        W16566  13.739  28.633   3.849
44219W        W16567   3.461  36.054  12.392
44220W        W16568  41.002  44.799  13.353
44221W        W16569  23.497  38.890   4.834
44222W        W16570  37.467  30.078  10.965
44223W        W16571  40.445  35.881   0.280
44224W        W16572  23.137  34.116   3.215
44225W        W16573   2.747  31.019  11.866
44226W        W16574  30.544  26.091   2.375
44227W        W16575  32.114  44.360  13.981
44228W        W16576  41.489  18.059  10.964
44229W        W16577  12.687   7.177  12.542
44230W        W16578  29.450   5.390   4.237
44231W        W16579   8.735   3.936   2.863
44232W        W16580  33.963  25.097   0.380
44233W        W16581  34.104   0.891   1.889
44234W        W16582  12.652  40.454  14.998
44235W        W16583  32.912   7.361   0.458
44236W        W16584  11.360  28.507   0.470
44237W        W16585   4.431  21.202  11.089
44238W        W16586  19.717  14.713   2.797
44239W        W16587  31.609  34.446   5.733
44240W        W16588  28.591  25.551  12.555
44241W        W16589  40.390  12.670  13.501
44242W        W16590  17.688  19.756  12.908
44243W        W16591  32.892  15.099  11.099
44244W        W16592  19.706  33.590   1.920
44245W        W16593  34.531  14.227   1.924
44246W        W16594  17.607  43.022   0.735
44247W        W16595  34.536  13.159   0.474
44248W        W16596  39.975   8.887  13.048
44249W        W16597   4.301  13.837   0.284
44250W        W16598  28.077   6.243  13.452
44251W        W16599  32.053  31.416   2.724
44252W        W16600  24.119  22.650   2.891
44253W        W16601  11.847  43.961   3.304
44254W        W16602   2.958   2.359   4.121
44255W        W16603  16.628  27.056   0.319
44256W        W16604   6.304   3.865   1.695
44257W        W16605  31.136  17.668  13.349
44258W        W16606  13.305  31.602   3.700
44259W        W16607  22.202   8.366   1.906
44260W        W16608  35.933   0.791  13.996
44261W        W16609  13.206  20.210  14.814
44262W        W16610  43.272  37.419   2.184
44263W        W16611  42.483  10.295   4.816
44264W        W16612   5.752  35.110  11.021
44265W        W16613  25.497  27.614  13.823
44266W        W16614  36.390  20.030   5.200
44267W        W16615   3.453  13.629   2.876
44268W        W16616  27.145  34.491   3.262
44269W        W16617  31.432  10.794  10.629
44270W        W16618  32.094   4.335   0.294
44271W        W16619   7.388  34.910   0.809
44272W        W16620  39.064  12.193   4.163
44273W        W16621  10.689  34.095   0.455
44274W        W16622  29.600  36.396   3.717
44275W        W16623  12.660   8.657  12.386
44276W        W16624  33.886  41.874  10.963
44277W        W16625  35.859  27.047  14.500
44278W        W16626  25.552  30.915  13.954
44279W        W16627  40.026  31.588  12.488
44280W        W16628  24.668  12.307  13.984
44281W        W16629  32.426  13.342  12.349
44282W        W16630  30.003   3.329   3.829
44283W        W16631  37.895   7.355  14.930
44284W        W16632   1.837   2.884   4.204
44285W        W16633  31.936  15.733  11.410
44286W        W16634  32.547  30.915  10.597
44287W        W16635  33.437  38.850   4.293
44288W        W16636  32.045  30.423  14.946
44289W        W16637  27.642   8.733  10.616
44290W        W16638  39.904  32.004  14.973
44291W        W16639  33.546  43.975  10.604
44292W        W16640  33.009  42.441   3.645
44293W        W16641  13.306  32.606   3.363
44294W        W16642  11.300  34.933   1.889
44295W        W16643   8.203  40.832  11.981
44296W        W16644  28.133  28.129   1.819
44297W        W16645  40.969  40.380  12.480
44298W        W16646  14.227   9.760   1.403
44299W        W16647  19.260  20.231  14.809
44300W        W16648  38.905  32.637   2.285
44301W        W16649  35.011  22.115   9.593
44302W        W16650  35.367   9.683   4.224
44303W        W16651  31.412  25.569  12.440
44304W        W16652  41.043  14.799   0.271
44305W        W16653   8.898  18.074   2.754
44306W        W16654  13.118  15.246  14.432
44307W        W16655  12.227  24.584  10.571
44308W        W16656   2.935  18.770   0.880
44309W        W16657   3.425   8.729   3.191
44310W        W16658  13.215  22.163  12.503
44311W        W16659  19.055  39.523  14.931
44312W        W16660  36.096   2.885   4.670
44313W        W16661  37.976   1.333   1.261
44314W        W16662  20.711  44.003  12.962
44315W        W16663  12.807  15.121  13.816
44316W        W16664  41.874  27.545   3.373
44317W        W16665  23.118  24.988  11.573
44318W        W16666  41.870   5.401   3.207
44319W        W16667   3.923  20.115   1.743
44320W        W16668  13.813  34.400   3.661
44321W        W16669   8.166  28.481  14.939
44322W        W16670   7.828  17.722  13.423
44323W        W16671   5.795  33.891   2.185
44324W        W16672  14.216  22.656  12.454
44325W        W16673   6.916  12.190   4.677
44326W        W16674  25.713  32.470  13.851
44327W        W16675  31.420   3.274   0.730
44328W        W16676  27.686  30.154  10.633
44329W        W16677  15.696  21.522  13.982
44330W        W16678   0.974  31.472   1.222
44331W        W16679   9.871  33.490   4.756
44332W        W16680  28.099  32.973   3.204
44333W        W16681  36.454  44.829   3.740
44334W        W16682  17.789   3.339   1.242
44335W        W16683  33.430  44.800  12.040
44336W        W16684  28.169  33.445   2.405
44337W        W16685  17.265   4.376   3.809
44338W        W16686  33.940  17.572  11.503
44339W        W16687  36.068  38.491   3.636
44340W        W16688  12.615   5.360   1.379
44341W        W16689   1.422  22.590   3.779
44342W        W16690  24.030  14.653  14.442
44343W        W16691  41.013  12.183   0.802
44344W        W16692  36.051  22.242   4.168
44345W        W16693  20.697  41.033   4.820
44346W        W16694  15.635   8.812   0.938
44347W        W16695   1.475  10.293   1.346
44348W        W16696  31.037   6.842   1.734
44349W        W16697  44.292  36.413   1.755
44350W        W16698  39.033  14.165   3.813
44351W        W16699  25.524   1.327  13.430
44352W        W16700  24.108   3.885  11.859
44353W        W16701   3.924  31.923  10.940
44354W        W16702  10.835  43.408   4.741
44355W        W16703  18.196  18.199   3.746
44356W        W16704  24.059   4.755  10.630
44357W        W16705  31.137  24.094   1.703
44358W        W16706  16.758   0.968   2.784
44359W        W16707  41.473   5.345   3.304
44360W        W16708   3.714  39.374   2.355
44361W        W16709  37.579   8.684   4.687
44362W        W16710   5.291  28.035  14.902
44363W        W16711  29.480  25.032   5.252
44364W        W16712  41.818  44.426   4.804
44365W        W16713  43.457   8.798   2.311
44366W        W16714  10.204  16.110  14.358
44367W        W16715  21.523   9.348   2.314
44368W        W16716  41.293  25.068  13.437
44369W        W16717  26.611  33.086  14.849
44370W        W16718  21.055  40.391  12.833
44371W        W16719  28.094  27.088  14.785
44372W        W16720  42.990   5.910  10.011
44373W        W16721  14.828  27.642  12.060
44374W        W16722  33.918  36.016  10.420
44375W        W16723  34.385  28.161  13.996
44376W        W16724  26.046  13.671  14.774
44377W        W16725  16.734  24.540  14.419
44378W        W16726  24.622  11.635  12.535
44379W        W16727  28.932  26.560  13.523
44380W        W16728  43.453  43.450  10.552
44381W        W16729  19.700  15.616   1.819
44382W        W16730  11.835   4.753   2.353
44383W        W16731  21.107  20.739   1.714
44384W        W16732  34.589   4.910  11.859
44385W        W16733  26.961  24.017   4.739
44386W        W16734  42.344  12.655   1.694
44387W        W16735  16.315  11.762   5.638
44388W        W16736   2.752   4.768  12.930
44389W        W16737  44.483  21.537  14.450
44390W        W16738  13.730   5.834   5.102
44391W        W16739   6.396  25.138  12.991
44392W        W16740  41.391  28.537  11.540
44393W        W16741  10.150   6.365  14.785
44394W        W16742  34.945  40.933  12.876
44395W        W16743  16.571  29.058   2.341
44396W        W16744  44.442  33.889   1.330
44397W        W16745  14.276  39.970  10.606
44398W        W16746  24.990   7.727   1.733
44399W        W16747  14.269  39.987  12.847
44400W        W16748   1.327  38.057  10.906
44401W        W16749  26.467   4.263  14.021
44402W        W16750   6.401  38.324   1.399
44403W        W16751   8.814  14.603  11.008
44404W        W16752   0.815  20.675  12.343
44405W        W16753  25.668  16.216   1.854
44406W        W16754  39.560  34.000   0.931
44407W        W16755   4.767  16.663  11.092
44408W        W16756  24.665  25.491  14.810
44409W        W16757  22.607  40.813   1.815
44410W        W16758   2.820  30.020  14.792
44411W        W16759  22.565   4.403  14.897
44412W        W16760  44.452  12.813  10.954
44413W        W16761  42.493  21.576  11.000
44414W        W16762  40.962  15.621  10.487
44415W        W16763  16.634  39.461   0.330
44416W        W16764  17.668  23.092  11.890
44417W        W16765  22.532  38.864  11.066
44418W        W16766  33.132  40.505   2.316
44419W        W16767  29.140  40.537  11.050
44420W        W16768  34.564  42.861   2.230
44421W        W16769  37.387  19.183  12.028
44422W        W16770  20.260  31.469   4.306
44423W        W16771  35.071  35.023  11.440
44424W        W16772   0.483  31.564  10.550
44425W        W16773  36.509  19.605  11.116
44426W        W16774  19.169  42.793  13.423
44427W        W16775  26.555  42.404  14.395
44428W        W16776  33.622   5.832   3.807
44429W        W16777   5.370  16.119   3.705
44430W        W16778  43.298   3.233   1.779
44431W        W16779  15.194  11.187   4.803
44432W        W16780  24.031  14.340   2.254
44433W        W16781   5.414  40.405   3.241
44434W        W16782   9.788  13.233   1.838
44435W        W16783  15.127  21.551  11.542
44436W        W16784  39.842  36.523  10.427
44437W        W16785  39.916  32.992   2.188
44438W        W16786  33.899  21.686  11.887
44439W        W16787  19.551  11.275   1.918
44440W        W16788  39.426   1.839   1.846
44441W        W16789  43.777  30.032   0.358
44442W        W16790  29.457  20.668   2.744
44443W        W16791  18.610  40.340   1.215
44444W        W16792   7.319   1.327  14.468
44445W        W16793  15.239   3.860  10.420
44446W        W16794  19.743  29.613   9.458
44447W        W16795   6.348  15.295   2.185
44448W        W16796  25.972   8.300   2.370
44449W        W16797  37.402  14.732   5.108
44450W        W16798  37.040  30.938  13.030
44451W        W16799  24.505  13.150  14.902
44452W        W16800  23.494  27.446   1.708
44453W        W16801  27.680  15.760  10.049
44454W        W16802  27.027   6.424  11.413
44455W        W16803  34.033  37.396  12.981
44456W        W16804  16.101  36.931  12.577
44457W        W16805  26.689  37.506  13.035
44458W        W16806  30.633  30.928   4.124
44459W        W16807  37.871  11.176  14.293
44460W        W16808  22.028   1.248   1.811
44461W        W16809  15.251  34.005   1.777
44462W        W16810  30.926  36.400   2.802
44463W        W16811  42.960  23.596  11.039
44464W        W16812  37.575  24.192   0.470
44465W        W16813  20.249  28.015  14.333
44466W        W16814  18.224   9.728  12.441
44467W        W16815   2.240  29.134  14.845
44468W        W16816  15.325  24.224  10.960
44469W        W16817  18.632  26.468  13.517
44470W        W16818   8.793  10.310   0.810
44471W        W16819   0.815  38.917   5.120
44472W        W16820   1.824   4.805  11.972
44473W        W16821  32.008  13.833   4.154
44474W        W16822  26.170   5.382   0.945
44475W        W16823  23.560  33.527  11.378
44476W        W16824  36.573   1.935   3.657
44477W        W16825  10.322  32.089   4.781
44478W        W16826  17.091   3.777   2.665
44479W        W16827  19.128  31.561  12.865
44480W        W16828  17.273  27.537   0.446
44481W        W16829  27.188  38.425  11.083
44482W        W16830  39.929  15.225  10.990
44483W        W16831   8.893  22.165   3.351
44484W        W16832  22.996  13.826   4.719
44485W        W16833  28.668  19.160   3.304
44486W        W16834  31.456  17.798  14.509
44487W        W16835  13.292   8.181  13.816
44488W        W16836  15.123  35.473  12.344
44489W        W16837  19.545  17.727   2.882
44490W        W16838  14.823  22.198   1.328
44491W        W16839  40.797  33.534  14.493
44492W        W16840  22.650   8.163  11.404
44493W        W16841  16.251  19.226   0.904
44494W        W16842  35.473   6.744   0.444
44495W        W16843  20.581  27.073  13.516
44496W        W16844   6.773  15.230  12.425
44497W        W16845  18.602   6.794   3.319
44498W        W16846   9.727  33.480  13.408
44499W        W16847  30.923   8.704  10.574
44500W        W16848  17.790  34.867   0.957
44501W        W16849  33.466  30.145  10.439
44502W        W16850   0.889  34.003  12.052
44503W        W16851  34.396  36.938  12.390
44504W        W16852  27.591  35.395   0.399
44505W        W16853   4.937  15.086  10.077
44506W        W16854  21.745  33.038  14.897
44507W        W16855  19.148  38.508   2.745
44508W        W16856  34.484   7.194   4.208
44509W        W16857  42.839   3.945  11.929
44510W        W16858   9.164  40.538   0.778
44511W        W16859  30.529  43.291  13.951
44512W        W16860   1.468   0.320  11.880
44513W        W16861  14.671  40.990  11.126
44514W        W16862  36.386  20.739   5.720
44515W        W16863  29.576  28.501  11.122
44516W        W16864  41.494  33.968   1.749
44517W        W16865   7.342   4.811   5.089
44518W        W16866  22.148  36.867  14.845
44519W        W16867  17.584  12.655   4.681
44520W        W16868  44.499  11.272   3.829
44521W        W16869  38.459  16.258   4.598
44522W        W16870  22.196   4.280  13.964
44523W        W16871  10.355   6.811   4.786
44524W        W16872  19.718   1.760  14.945
44525W        W16873   8.832  13.145   3.226
44526W        W16874  25.015   2.337  10.416
44527W        W16875   7.809  17.121  12.983
44528W        W16876  41.360   3.251   2.374
44529W        W16877   2.759   6.676   3.387
44530W        W16878   4.857  21.041   5.234
44531W        W16879  12.773  40.852  10.589
44532W        W16880  38.366   7.222   2.767
44533W        W16881  22.595  21.226   0.453
44534W        W16882  14.337   7.886   5.213
44535W        W16883  43.903  24.625  12.850
44536W        W16884  40.305  39.006   1.389
44537W        W16885   9.330  10.198   2.772
44538W        W16886   9.738  12.611  12.996
44539W        W16887  36.888  41.392  11.927
44540W        W16888  17.196  29.482   2.711
44541W        W16889  13.657  29.432   1.269
44542W        W16890  23.034   0.385  14.399
44543W        W16891  25.560  10.833   4.772
44544W        W16892   6.319  16.719  13.378
44545W        W16893  17.613   8.163   3.729
44546W        W16894  21.540  41.886   4.308
44547W        W16895  22.112  44.809   2.741
44548W        W16896  37.895  30.523   3.773
44549W        W16897  33.078  18.214  11.599
44550W        W16898  12.698  32.589   4.770
44551W        W16899  19.541  42.850   2.284
44552W        W16900  43.378  30.439  13.816
44553W        W16901  32.454   7.816  14.985
44554W        W16902  24.095  30.043  11.064
44555W        W16903  19.626   1.892  10.522
44556W        W16904   3.800   4.381   1.830
44557W        W16905  44.482  10.239   2.321
44558W        W16906   8.882   3.869  11.074
44559W        W16907   3.830  23.669  13.379
44560W        W16908   1.410  36.556   1.398
44561W        W16909   1.804  38.036   0.823
44562W        W16910  27.143  23.146  12.010
44563W        W16911  44.757   5.694  11.521
44564W        W16912   4.209  16.226   1.841
44565W        W16913   9.788  43.020  13.894
44566W        W16914  32.488   9.776   3.757
44567W        W16915  23.565  11.257   4.654
44568W        W16916  38.931  24.084  10.957
44569W        W16917  35.002  26.072  12.531
44570W        W16918  10.860  44.875   4.754
44571W        W16919   7.806  14.240   1.251
44572W        W16920  19.213  22.684   4.319
44573W        W16921  38.855  10.321   4.708
44574W        W16922  17.633   7.358  10.417
44575W        W16923  23.140  30.604   4.354
44576W        W16924  35.559   1.766   4.278
44577W        W16925  27.169  30.047  11.983
44578W        W16926  30.444  13.340  14.963
44579W        W16927  34.959  21.175  14.837
44580W        W16928  14.629  36.579  11.407
44581W        W16929  32.907  19.216   0.395
44582W        W16930  25.041  44.433   0.352
44583W        W16931   5.332  20.552   2.739
44584W        W16932  10.334  14.732  11.431
44585W        W16933  14.646  35.404   2.334
44586W        W16934   7.199  28.490  13.367
44587W        W16935   6.678  44.941  10.625
44588W        W16936   4.232  19.096  11.019
44589W        W16937  41.027   3.295  14.419
44590W        W16938  10.761  27.089  11.991
44591W        W16939  24.202  32.416  14.414
44592W        W16940   2.447  26.055  11.508
44593W        W16941  25.684  31.423  13.832
44594W        W16942  21.175  39.020   3.757
44595W        W16943  30.938   3.424   1.857
44596W        W16944  27.179  34.105   1.886
44597W        W16945  35.865  42.006  14.889
44598W        W16946  24.002   3.394  12.838
44599W        W16947  42.496  36.589  13.903
44600W        W16948  44.956  19.570  11.995
44601W        W16949  22.620  39.423   4.681
44602W        W16950  27.491   4.704  14.405
44603W        W16951  42.876  22.118   0.422
44604W        W16952  11.217  41.416  11.447
44605W        W16953  17.634  36.900  12.506
44606W        W16954  37.496  42.344   4.794
44607W        W16955  40.435  26.479   1.235
44608W        W16956  31.521  21.737  12.886
44609W        W16957  40.941  27.535   4.222
44610W        W16958  17.615   0.340   0.779
44611W        W16959  26.522  36.076  12.395
44612W        W16960  19.542  16.675  10.498
44613W        W16961   1.941   7.334   0.777
44614W        W16962  28.456  36.533  14.899
44615W        W16963   3.934  18.707   0.739
44616W        W16964   1.905  41.922   3.209
44617W        W16965  38.487  29.508  13.885
44618W        W16966   0.359  27.535  12.405
44619W        W16967  27.525  40.811  12.947
44620W        W16968  28.581  20.687  12.047
44621W        W16969  27.672  33.379  13.389
44622W        W16970  36.447   2.260  11.594
44623W        W16971  22.123   6.826   4.771
44624W        W16972  21.620  15.237  14.869
44625W        W16973  31.897   3.328   0.815
44626W        W16974   3.874  10.341  13.869
44627W        W16975   1.364  14.669   0.947
44628W        W16976  40.924  20.161  12.911
44629W        W16977  28.538  16.197  13.334
44630W        W16978  21.165  44.769   4.769
44631W        W16979  11.164  23.235  11.981
44632W        W16980  36.465  19.066   0.827
44633W        W16981  32.432  20.648  11.965
44634W        W16982   4.428   5.753   0.918
44635W        W16983  24.210  13.132  14.892
44636W        W16984  15.676  22.571   0.855
44637W        W16985  37.048   0.422   3.306
44638W        W16986   5.764  32.507  11.545
44639W        W16987   9.344  42.924   2.292
44640W        W16988  29.026  35.498  12.394
44641W        W16989   3.758  15.307  13.380
44642W        W16990  30.592  41.005   1.920
44643W        W16991  14.258   1.398   3.251
44644W        W16992  34.052  38.000   4.174
44645W        W16993  15.103  36.950   2.668
44646W        W16994  12.215  14.311   3.650
44647W        W16995   1.402   2.837  12.434
44648W        W16996  26.481  23.991   1.866
44649W        W16997  29.094  43.813  14.909
44650W        W16998  26.982  29.005   2.259
44651W        W16999  15.176  20.069   3.208
44652W        W17000   1.955  14.257   0.935
44653W        W17001  41.374  16.226   3.794
44654W        W17002  29.997   9.178  11.092
44655W        W17003  17.160  39.542   0.847
44656W        W17004  12.290  33.066  13.326
44657W        W17005  10.851  10.817  10.588
44658W        W17006  26.952  39.376  11.959
44659W        W17007  20.220  21.695  14.007
44660W        W17008  10.239   1.302  12.905
44661W        W17009  22.592   8.304   0.463
44662W        W17010  13.239  22.070  11.505
44663W        W17011  35.574   1.900  13.876
44664W        W17012  15.659  24.002   0.410
44665W        W17013  15.667  32.134   1.212
44666W        W17014  32.607   0.750   4.756
44667W        W17015  32.414   8.312   3.857
44668W        W17016  42.473  16.118  13.794
44669W        W17017   0.319   4.246   1.729
44670W        W17018   4.862   5.209  12.062
44671W        W17019  41.814   6.702   0.480
44672W        W17020   5.815  28.577  14.949
44673W        W17021  40.804  32.943   1.295
44674W        W17022   6.770  12.718  11.609
44675W        W17023  21.210  40.029  14.019
44676W        W17024  40.416   2.751  14.898
44677W        W17025  11.724  40.047  11.611
44678W        W17026  36.881  14.196   0.320
44679W        W17027  30.065  36.423  13.507
44680W        W17028  29.490   6.251  14.458
44681W        W17029  43.287  28.945  13.341
44682W        W17030  35.551  34.874   0.296
44683W        W17031  20.748   2.443  14.420
44684W        W17032  42.468  38.037   2.883
44685W        W17033  39.960  25.138  11.020
44686W        W17034  14.211  24.090   2.757
44687W        W17035   3.756   1.881   3.194
44688W        W17036  30.982  41.426   0.833
44689W        W17037  39.976   6.770  10.558
44690W        W17038   5.888  31.147   1.322
44691W        W17039  37.083  44.946   3.802
44692W        W17040   4.355   1.470  13.385
44693W        W17041  26.985  28.006  14.363
44694W        W17042  20.675  14.785  10.424
44695W        W17043  30.641   8.899   4.721
44696W        W17044   5.689  36.374  14.999
44697W        W17045  34.483  43.793   1.398
44698W        W17046   0.854  11.861   3.776
44699W        W17047  22.144  39.366   4.166
44700W        W17048  24.665  35.010  10.580
44701W        W17049  24.037  37.884   4.687
44702W        W17050   6.221  33.095  13.048
44703W        W17051  34.068  13.762  11.976
44704W        W17052  27.172  22.583  12.083
44705W        W17053   7.272  28.040   0.455
44706W        W17054  40.381   1.476  11.417
44707W        W17055  13.210  11.822  10.109
44708W        W17056  39.937  32.507   4.837
44709W        W17057   6.853   1.275  13.967
44710W        W17058   3.239  13.273   2.177
44711W        W17059  12.311  25.023   0.927
44712W        W17060   1.961  13.315  11.611
44713W        W17061  11.677  12.707   1.345
44714W        W17062  25.067  39.421  13.035
44715W        W17063  43.949  20.062   4.325
44716W        W17064  16.798  23.231   3.719
44717W        W17065   0.296   1.379   0.916
44718W        W17066  40.463  19.045  13.420
44719W        W17067  15.749  14.317  11.054
44720W        W17068  37.920   3.829   1.858
44721W        W17069   3.731  34.615  13.376
44722W        W17070  13.619  14.260   4.801
44723W        W17071  38.463  44.402   4.672
44724W        W17072   2.447  25.515  10.431
44725W        W17073  31.429  16.597   4.765
44726W        W17074  33.974   1.873  12.844
44727W        W17075  27.171  40.411   2.746
44728W        W17076  21.062  24.034   3.267
44729W        W17077   0.983  22.184   1.213
44730W        W17078  24.049  42.875  12.406
44731W        W17079  38.952  32.921  11.117
44732W        W17080   3.392  40.425   1.715
44733W        W17081  37.004   6.815   4.624
44734W        W17082  16.707   2.342   0.278
44735W        W17083  40.841  10.232  13.361
44736W        W17084  43.509  31.036   2.221
44737W        W17085  20.650   8.406  11.557
44738W        W17086  34.953  42.970   3.636
44739W        W17087  35.383  21.239  13.323
44740W        W17088  11.372  41.454   0.922
44741W        W17089  40.535  26.541  13.019
44742W        W17090  18.269  40.030  13.970
44743W        W17091  44.451  19.552  14.314
44744W        W17092   7.170  30.985  13.026
44745W        W17093  23.113  15.668   0.354
44746W        W17094  19.564  34.999   1.359
44747W        W17095  22.101  10.384   2.227
44748W        W17096  25.136  21.564  12.983
44749W        W17097  41.990  16.574  10.537
44750W        W17098   1.843  32.455  13.450
44751W        W17099  31.560  17.203  11.469
44752W        W17100   5.737  17.587   4.636
44753W        W17101  31.469  15.763   1.855
44754W        W17102   1.397  31.911  12.494
44755W        W17103  32.589  22.106   2.673
44756W        W17104   3.838  44.354   1.900
44757W        W17105  33.020  16.761   2.816
44758W        W17106   8.827   7.786   0.270
44759W        W17107  23.536  21.572  12.865
44760W        W17108  28.114  20.703  11.901
44761W        W17109  10.785   1.874   2.790
44762W        W17110  11.289  39.970  14.807
44763W        W17111  42.817  39.493   3.251
44764W        W17112  36.051  43.942  12.895
44765W        W17113  14.221  38.042   3.368
44766W        W17114  31.904  44.260  14.322
44767W        W17115  40.900  16.172  13.507
44768W        W17116   8.846  13.174   1.378
44769W        W17117  23.087   2.357  13.434
44770W        W17118   2.381  34.923  12.039
44771W        W17119  40.472  30.000   3.238
44772W        W17120  23.216   9.367  11.129
44773W        W17121  32.076  19.663  14.017
44774W        W17122   5.256  41.384  14.916
44775W        W17123  29.934  15.659   3.668
44776W        W17124  18.735  23.532   3.376
44777W        W17125  15.116  25.111  13.331
44778W        W17126  25.599  44.756  13.327
44779W        W17127  24.189  10.825   2.788
44780W        W17128  41.369  34.893   2.773
44781W        W17129  16.089  32.535  10.499
44782W        W17130  19.139  43.301   3.382
44783W        W17131  25.701   8.235   5.256
44784W        W17132  18.231   2.385   3.792
44785W        W17133  16.260  32.962  12.450
44786W        W17134  19.128  18.712  10.990
44787W        W17135  36.534   4.813  13.050
44788W        W17136   9.845  41.991   1.905
44789W        W17137   0.300   9.379   0.333
44790W        W17138  21.544   3.393   4.209
44791W        W17139  14.808  41.501   3.689
44792W        W17140  26.187  44.377   1.425
44793W        W17141  35.947  28.125   2.398
44794W        W17142   3.244  17.218   4.252
44795W        W17143  43.861  19.050   3.285
44796W        W17144   8.754  26.530   0.412
44797W        W17145  13.779   2.388   0.814
44798W        W17146  16.190  31.633  13.894
44799W        W17147  37.916   3.228   4.763
44800W        W17148  32.053  25.117  12.846
44801W        W17149  22.692  19.574   9.920
44802W        W17150  27.546  29.945  12.537
44803W        W17151  32.595  40.836  10.528
44804W        W17152  40.521   2.429  14.406
44805W        W17153  13.149  44.761   1.339
44806W        W17154   6.812  23.549  14.492
44807W        W17155  21.648   9.161  11.909
44808W        W17156   4.733  28.005  14.912
44809W        W17157  23.665  44.394  10.980
44810W        W17158  38.848  42.947   1.220
44811W        W17159  17.584  29.558   3.230
44812W        W17160   2.882  20.083  10.476
44813W        W17161   8.352   9.692   1.299
44814W        W17162   0.782  12.156   1.766
44815W        W17163  12.206  24.134  13.047
44816W        W17164   1.245  27.569   0.244
44817W        W17165  22.035  26.001   1.892
44818W        W17166  26.624  35.414  11.873
44819W        W17167   6.359  40.856  13.032
44820W        W17168   9.235  10.876   2.726
44821W        W17169  27.026  22.221  13.460
44822W        W17170  30.432  38.379  12.089
44823W        W17171  16.800  12.800   0.314
44824W        W17172  14.659   5.804   3.760
44825W        W17173  11.212  30.025  11.923
44826W        W17174  26.185  26.999   2.743
44827W        W17175  19.263   0.857  11.099
44828W        W17176   8.763  29.990   2.236
44829W        W17177  29.093  15.243  11.117
44830W        W17178   7.696  29.977   9.972
44831W        W17179   2.279  38.912  12.574
44832W        W17180   4.806  34.863   1.443
44833W        W17181  23.169  19.664   1.388
44834W        W17182   6.268  41.844   2.864
44835W        W17183   7.834  24.166   0.779
44836W        W17184  23.999  44.785   1.380
44837W        W17185   3.743  37.840  10.523
44838W        W17186  24.552  38.455   0.783
44839W        W17187  32.888   1.381   1.862
44840W        W17188   6.384  26.469   3.145
44841W        W17189  13.749  24.620  13.511
44842W        W17190   2.741  11.341  13.833
44843W        W17191  13.250   5.193  13.045
44844W        W17192  36.034   7.267   3.711
44845W        W17193  15.265  34.369  10.588
44846W        W17194  26.985  27.959  12.919
44847W        W17195  37.905  12.649  10.943
44848W        W17196  29.518  40.449  10.033
44849W        W17197  40.416  24.641  10.972
44850W        W17198  31.081  42.335   3.832
44851W        W17199  16.678  35.464   1.749
44852W        W17200   9.776  31.898  12.038
44853W        W17201   6.682  33.387  14.778
44854W        W17202  34.574   2.382   3.185
44855W        W17203  31.052  37.346  13.432
44856W        W17204  26.125  36.869  11.377
44857W        W17205   1.448  17.096   4.726
44858W        W17206  12.625  38.842  12.923
44859W        W17207  26.605  15.271  10.992
44860W        W17208   5.207  42.834   4.685
44861W        W17209   2.418   2.899   1.797
44862W        W17210  44.313  44.313   1.378
44863W        W17211  21.665  17.188   0.765
44864W        W17212  19.746  40.547   1.709
44865W        W17213  28.971   9.327   4.622
44866W        W17214  26.956   6.745   1.328
44867W        W17215   5.885  30.014   2.845
44868W        W17216   2.964  41.523  12.825
44869W        W17217  18.769   4.886  12.855
44870W        W17218  23.000   4.836   1.862
44871W        W17219  10.719  30.453  12.086
44872W        W17220  41.004  22.046  10.591
44873W        W17221  12.128   5.263  14.895
44874W        W17222  40.370  30.593  12.046
44875W        W17223  31.590  10.657   0.432
44876W        W17224   1.805   8.699   0.856
44877W        W17225  26.698  20.566  14.279
44878W        W17226  34.913  38.425  11.610
44879W        W17227  15.222  42.318   1.436
44880W        W17228  33.073  39.933  13.499
44881W        W17229  39.908   3.454  11.535
44882W        W17230  44.385  20.718  14.824
44883W        W17231  20.590  17.260   3.369
44884W        W17232  23.004  41.887   0.303
44885W        W17233   3.880  18.052  14.373
44886W        W17234   0.815  27.141  12.022
44887W        W17235  10.678  14.107  10.898
44888W        W17236   3.258  30.524  12.927
44889W        W17237  43.796  41.936   1.301
44890W        W17238  26.469  24.044  14.801
44891W        W17239  14.816  40.438   2.276
44892W        W17240  24.174  36.855  11.417
44893W        W17241  26.021  25.511   4.825
44894W        W17242  17.211  11.762   2.844
44895W        W17243  38.895   9.377  14.875
44896W        W17244  14.753   7.757   4.653
44897W        W17245  28.964  28.122  12.416
44898W        W17246   2.775  21.045  14.793
44899W        W17247  34.530   6.274  13.467
44900W        W17248  32.926  27.690   2.322
44901W        W17249  33.398  23.634   2.290
44902W        W17250   0.386  28.437   0.400
44903W        W17251  25.486  38.570  14.353
44904W        W17252  39.976  15.195   1.733
44905W        W17253  17.800   4.417   3.644
44906W        W17254  32.110  32.534  12.570
44907W        W17255  25.194  17.790   2.387
44908W        W17256   4.422  28.667  12.961
44909W        W17257  25.621  37.433  14.282
44910W        W17258  12.751  12.347  12.894
44911W        W17259  41.534   3.458   3.300
44912W        W17260  12.740  34.899   3.748
44913W        W17261  36.491  35.548  11.902
44914W        W17262   5.888  38.003  10.576
44915W        W17263  34.529  27.965  11.387
44916W        W17264  29.573  26.109   1.864
44917W        W17265  11.782  12.181  10.080
44918W        W17266   5.827  19.211   3.799
44919W        W17267  21.695  37.463   0.750
44920W        W17268  32.438   6.852   0.274
44921W        W17269   8.655   7.810   3.685
44922W        W17270  32.411  43.771  10.470
44923W        W17271  24.133  43.981  14.802
44924W        W17272   6.379  32.551   3.638
44925W        W17273  42.826  19.259  11.919
44926W        W17274  17.643   5.204  13.454
44927W        W17275   0.828  14.299  14.774
44928W        W17276  14.138  19.179  14.027
44929W        W17277  27.078  33.456  12.430
44930W        W17278  15.786  21.252   3.261
44931W        W17279  14.313  40.883   3.202
44932W        W17280  37.991  11.253   1.316
44933W        W17281  31.628  18.765  12.439
44934W        W17282  14.729  35.362   1.737
44935W        W17283  38.525  11.801  14.275
44936W        W17284   3.943  23.720   1.287
44937W        W17285  20.603  32.430   3.294
44938W        W17286  39.325   6.840  11.950
44939W        W17287   0.448  29.626   1.393
44940W        W17288  29.086   6.816   4.811
44941W        W17289  40.986  28.144   4.254
44942W        W17290  21.692  44.957   1.312
44943W        W17291   0.824  20.669  12.991
44944W        W17292  42.881  34.094   4.756
44945W        W17293  32.091  22.058  13.370
44946W        W17294  15.143  39.400  13.862
44947W        W17295   0.492  42.776   4.735
44948W        W17296   6.405  13.180  14.928
44949W        W17297  17.287   9.210   1.933
44950W        W17298  44.440  18.163  14.463
44951W        W17299  37.548   1.947  11.504
44952W        W17300  12.818   5.768   0.332
44953W        W17301   5.360   5.360  10.429
44954W        W17302  17.257  39.377   3.824
44955W        W17303   0.381  44.357   3.220
44956W        W17304  40.453   4.378   1.726
44957W        W17305  25.500  31.146   0.835
44958W        W17306  11.837   9.386  14.354
44959W        W17307  40.519   7.831   3.327
44960W        W17308  19.207  10.214   0.264
44961W        W17309  40.390  30.041   0.411
44962W        W17310  30.091  38.396   3.747
44963W        W17311  43.378   9.752   1.414
44964W        W17312  30.478  25.218   0.433
44965W        W17313  40.902  25.685   3.732
44966W        W17314  42.032  36.548   2.226
44967W        W17315   0.347  38.326  11.481
44968W        W17316  39.994  31.623   2.200
44969W        W17317  36.909  23.649  13.367
44970W        W17318  36.483  37.344   0.847
44971W        W17319  42.527  21.583   0.442
44972W        W17320  33.956   0.847   4.630
44973W        W17321  27.455  43.905   0.842
44974W        W17322   2.930  18.679  13.964
44975W        W17323   9.759  40.499   3.372
44976W        W17324  25.157  10.683  11.880
44977W        W17325  34.082   4.434  10.505
44978W        W17326   1.246  17.751   0.288
44979W        W17327  12.704   8.201  12.945
44980W        W17328  43.348  19.146   4.139
44981W        W17329  15.612   0.298   2.739
44982W        W17330  23.227  24.162  12.006
44983W        W17331  44.988  34.445  12.512
44984W        W17332  36.093   1.464   1.751
44985W        W17333  12.615   7.734  13.017
44986W        W17334  10.658  23.139  11.989
44987W        W17335  40.803   7.812   1.748
44988W        W17336  10.240  31.953  12.889
44989W        W17337   2.917  25.084   4.618
44990W        W17338   1.330  36.501   2.783
44991W        W17339  33.433  26.498   4.188
44992W        W17340  29.934  23.516  10.496
44993W        W17341   7.852  17.066  14.808
44994W        W17342  30.452  27.608  11.890
44995W        W17343  30.117  16.713   0.765
44996W        W17344  44.862  18.702   4.798
44997W        W17345  16.622   1.405  11.083
44998W        W17346  30.985  37.888   4.133
44999W        W17347   4.739  32.604  12.521
45000W        W17348  42.977   2.889   2.750
45001W        W17349  41.373  41.858  12.365
45002W        W17350  16.094  31.605  14.857
45003W        W17351  18.733  15.197  11.119
45004W        W17352  34.578  33.935  11.975
45005W        W17353  39.032  28.161   4.124
45006W        W17354   4.886  17.224   0.303
45007W        W17355  10.315  30.929   2.856
45008W        W17356  21.210  25.193  13.972
45009W        W17357  17.123   5.774  12.978
45010W        W17358   5.415  24.511   1.798
45011W        W17359  11.685   0.825  12.540
45012W        W17360  27.477   7.404  14.418
45013W        W17361  16.727   5.905  12.906
45014W        W17362   6.277  42.458  11.055
45015W        W17363  10.367  44.311   3.240
45016W        W17364  28.629  10.193  10.142
45017W        W17365  23.692  11.264   0.454
45018W        W17366  28.131  18.276  10.093
45019W        W17367  26.052  23.047   1.409
45020W        W17368  24.131   3.419   4.314
45021W        W17369  41.991  37.362   9.953
45022W        W17370  38.469   0.454  13.362
45023W        W17371   5.244  29.003  14.379
45024W        W17372   2.409   7.185   2.207
45025W        W17373   7.380  19.668   3.208
45026W        W17374  31.070  10.242  12.891
45027W        W17375  38.066   5.765  12.555
45028W        W17376  24.226  33.619  14.959
45029W        W17377   6.284  29.922   4.780
45030W        W17378   8.191  30.428   3.255
45031W        W17379   6.851  12.212   4.198
45032W        W17380   2.366   4.439   0.775
45033W        W17381  35.873   1.252  13.311
45034W        W17382  40.897  11.672  14.489
45035W        W17383  30.999  15.086  12.072
45036W        W17384  23.019  16.756  13.537
45037W        W17385  17.256  35.393   1.789
45038W        W17386   3.841  11.366  12.083
45039W        W17387  23.610   4.939  13.869
45040W        W17388   2.408  24.995  11.449
45041W        W17389  42.881  12.823  12.058
45042W        W17390  23.560  31.902   4.830
45043W        W17391   8.847  28.595   1.805
45044W        W17392   9.323  29.608   4.638
45045W        W17393  30.482  43.407   4.774
45046W        W17394  10.308   0.320   4.213
45047W        W17395  17.264  14.812  12.941
45048W        W17396  23.093  10.674   0.371
45049W        W17397   3.886   1.966  10.917
45050W        W17398  23.142  10.331   2.706
45051W        W17399   7.740  25.574   4.173
45052W        W17400  15.326  44.832   1.777
45053W        W17401  29.450  40.956   2.295
45054W        W17402  22.243  34.085   4.183
45055W        W17403  20.179  17.796  10.636
45056W        W17404  10.350   8.167  13.844
45057W        W17405  20.657  18.668  11.943
45058W        W17406  23.597  44.952   3.161
45059W        W17407  32.065  28.438   3.277
45060W        W17408  18.199  40.896  10.942
45061W        W17409  10.740  10.337   4.605
45062W        W17410  39.008  31.621  11.426
45063W        W17411  17.235  29.550   0.256
45064W        W17412   9.754   4.840  13.804
45065W        W17413  12.805   1.369   1.933
45066W        W17414  14.725   8.711  13.021
45067W        W17415  42.990  25.491  12.828
45068W        W17416  36.373  13.319   0.459
45069W        W17417  32.455   2.892   2.794
45070W        W17418  16.191  26.544  13.502
45071W        W17419  15.733  39.843   3.774
45072W        W17420  39.511  22.174  14.881
45073W        W17421   2.730  12.133   2.740
45074W        W17422   9.205   6.821   1.347
45075W        W17423  17.594  33.926  12.567
45076W        W17424  27.578  22.149   4.766
45077W        W17425  37.998  28.038   9.983
45078W        W17426  16.124  30.500  11.081
45079W        W17427  10.255   0.421  14.918
45080W        W17428  35.481  41.377  10.420
45081W        W17429   0.840  16.593  14.780
45082W        W17430   2.421  39.909  13.959
45083W        W17431  18.089  11.300  10.981
45084W        W17432   7.709  32.885   9.552
45085W        W17433   4.732  26.162   4.145
45086W        W17434  30.010  28.560  10.526
45087W        W17435  14.616  34.369  11.602
45088W        W17436  15.177  25.589  13.019
45089W        W17437  22.116  10.246   3.740
45090W        W17438   1.374  34.932   4.350
45091W        W17439  22.745  37.402  11.054
45092W        W17440  17.191   3.247   2.415
45093W        W17441  35.468  27.974  13.481
45094W        W17442   3.258   4.256  11.034
45095W        W17443   0.438  37.502   0.884
45096W        W17444  27.580  36.094   4.248
45097W        W17445  36.524  34.915   2.789
45098W        W17446  26.954  29.628   3.231
45099W        W17447  26.555  39.849   2.847
45100W        W17448  19.127  18.103   3.224
45101W        W17449   8.191   4.337  14.492
45102W        W17450  43.420  38.360  10.459
45103W        W17451  34.377  32.549   2.418
45104W        W17452  12.799  33.563  10.428
45105W        W17453  36.026  17.583  10.441
45106W        W17454  41.359  39.960   3.839
45107W        W17455  23.188  36.960   2.812
45108W        W17456  21.035  21.647  10.979
45109W        W17457  18.739  36.954   0.333
45110W        W17458  11.746   6.822  13.994
45111W        W17459  19.676   8.363   4.604
45112W        W17460   8.847  28.543  13.968
45113W        W17461  23.603   2.806   0.877
45114W        W17462  33.469   4.429  12.396
45115W        W17463  19.534  30.947   5.263
45116W        W17464  28.056  37.528  10.493
45117W        W17465  32.455  16.204  11.546
45118W        W17466  44.792  33.584   2.382
45119W        W17467   5.884  31.503  12.956
45120W        W17468  18.172  25.539   4.313
45121W        W17469  15.642   8.741  13.356
45122W        W17470  19.086   9.358  14.885
45123W        W17471  29.463  26.159   0.428
45124W        W17472  10.187   5.206  12.487
45125W        W17473  41.473  28.530  14.983
45126W        W17474   7.789  11.799   1.276
45127W        W17475  33.427   2.451  13.508
45128W        W17476   8.288  20.529   1.401
45129W        W17477   5.375  18.295   3.698
45130W        W17478  28.174  31.477   2.202
45131W        W17479   3.747  20.601  13.365
45132W        W17480  17.222  40.925  14.766
45133W        W17481  12.168   3.738  12.023
45134W        W17482  24.147  12.160  12.404
45135W        W17483   4.250  37.907   4.193
45136W        W17484  29.115  26.989  12.420
45137W        W17485   7.895   2.758  13.502
45138W        W17486  34.465  34.457   5.728
45139W        W17487  15.295  16.252  14.958
45140W        W17488   5.833  34.043   2.861
45141W        W17489  12.795  40.967   2.668
45142W        W17490  27.132  28.673   1.409
45143W        W17491  20.054  14.775  14.773
45144W        W17492  30.640  17.630  13.358
45145W        W17493  22.685   9.185   3.356
45146W        W17494   4.300  44.960   1.223
45147W        W17495   7.375  20.594   5.274
45148W        W17496  21.577  41.509  10.512
45149W        W17497   9.764  40.854   1.897
45150W        W17498  24.163   8.253   0.839
45151W        W17499  10.202  36.513   2.352
45152W        W17500  13.206  10.279   3.157
45153W        W17501  32.562  39.447   1.710
45154W        W17502   9.182   0.251   1.361
45155W        W17503  41.935  44.363   5.137
45156W        W17504  22.215   0.884   3.811
45157W        W17505  31.016  12.672  10.568
45158W        W17506   5.208  25.196   4.200
45159W        W17507  18.713   5.926   2.261
45160W        W17508   9.755  42.897   2.707
45161W        W17509  34.918  25.519   4.195
45162W        W17510   4.404   7.867  11.966
45163W        W17511  19.071  43.379  14.774
45164W        W17512  38.569  27.648   4.217
45165W        W17513  16.710  25.672  11.094
45166W        W17514  39.366   8.783   1.884
45167W        W17515  21.042   8.663   3.314
45168W        W17516   3.292  13.235   0.951
45169W        W17517   3.827  37.348   0.776
45170W        W17518  31.487  14.778   1.731
45171W        W17519  30.114  30.054   4.170
45172W        W17520   3.730  23.516   4.153
45173W        W17521   4.848  24.990   0.401
45174W        W17522   1.430  32.059   3.311
45175W        W17523  41.900  19.606   3.200
45176W        W17524  40.456  39.344   4.672
45177W        W17525   5.238  21.218   1.817
45178W        W17526  17.276  43.772   4.331
45179W        W17527  28.058  24.054  14.912
45180W        W17528   1.360  15.321   0.906
45181W        W17529  41.030  40.953   4.777
45182W        W17530  40.801  12.241   0.294
45183W        W17531   5.885  37.053   1.421
45184W        W17532  38.560  30.485  14.953
45185W        W17533  36.371  16.182   0.802
45186W        W17534  15.246  26.468  10.936
45187W        W17535  16.733  17.776  10.617
45188W        W17536  10.260  34.537   0.458
45189W        W17537   2.955  39.980   3.328
45190W        W17538  25.598  24.581   2.292
45191W        W17539  11.223  30.141  14.958
45192W        W17540   0.752  13.785  14.865
45193W        W17541   9.320  24.125  12.382
45194W        W17542  20.610  40.911  13.949
45195W        W17543  42.526  12.186  10.615
45196W        W17544  16.208  36.080  13.024
45197W        W17545  36.904  10.857   4.640
45198W        W17546   5.329  40.380   0.354
45199W        W17547  16.699  44.274  11.426
45200W        W17548  12.285  25.660  10.524
45201W        W17549  18.712  25.579  13.888
45202W        W17550  17.278  29.643  11.546
45203W        W17551  35.522   1.748   1.704
45204W        W17552  23.575  29.921   2.810
45205W        W17553   1.800  18.658  12.341
45206W        W17554  41.353  22.514   3.864
45207W        W17555   0.858   8.379   2.788
45208W        W17556  26.694  37.913  13.997
45209W        W17557  10.177  44.467   2.724
45210W        W17558  10.787  21.145   5.221
45211W        W17559  18.156  29.650   3.650
45212W        W17560  33.560  21.182  12.536
45213W        W17561  27.527   6.302  14.785
45214W        W17562  17.195  39.375  13.351
45215W        W17563  38.955  15.637  14.949
45216W        W17564  28.659  16.206   1.818
45217W        W17565  39.936  28.122  13.013
45218W        W17566   3.888  39.823  14.858
45219W        W17567  18.587   0.271   0.740
45220W        W17568  12.670  36.360   4.805
45221W        W17569  29.023   5.743   4.272
45222W        W17570  24.687   8.849   0.788
45223W        W17571  37.458  12.127  13.959
45224W        W17572   7.310  20.632   0.876
45225W        W17573  31.451  12.317   1.234
45226W        W17574   6.215  39.414  11.523
45227W        W17575  40.017  15.701  11.582
45228W        W17576  44.387   3.721  14.987
45229W        W17577  37.012  30.446  10.426
45230W        W17578  44.796   6.753   0.796
45231W        W17579  23.693  31.138  13.878
45232W        W17580  13.746  43.372   0.380
45233W        W17581  36.584  25.060   2.201
45234W        W17582  21.066  35.480   4.629
45235W        W17583  40.454  21.100  12.011
45236W        W17584  14.328  19.259   3.269
45237W        W17585  23.103  38.384  12.364
45238W        W17586   5.381  12.807   3.280
45239W        W17587   9.291  17.579  13.409
45240W        W17588  10.309  10.358  10.909
45241W        W17589  28.118  12.358  14.393
45242W        W17590  37.844  22.613  12.572
45243W        W17591  27.676  12.767  10.406
45244W        W17592  41.038  19.693  10.926
45245W        W17593  39.416  30.484   4.835
45246W        W17594  20.639   0.864  11.089
45247W        W17595  38.537  18.138  13.813
45248W        W17596  18.072   5.398   3.829
45249W        W17597   3.334  27.195  13.414
45250W        W17598  30.452  23.685   3.739
45251W        W17599  13.720  23.682   1.694
45252W        W17600  14.108  15.104   1.768
45253W        W17601  37.064  38.457  14.415
45254W        W17602  10.675  20.703   3.205
45255W        W17603  23.519  22.560   0.344
45256W        W17604  19.676  41.322   3.821
45257W        W17605  44.758   3.400  14.355
45258W        W17606  44.790  32.965  14.017
45259W        W17607  25.142  13.111  13.522
45260W        W17608   7.811  14.716   4.661
45261W        W17609  20.715   5.754  12.917
45262W        W17610   5.924  44.504   4.829
45263W        W17611  24.142  27.969  10.022
45264W        W17612  18.239  33.979  14.764
45265W        W17613   6.360  19.694   4.303
45266W        W17614  36.443   5.292   0.310
45267W        W17615  21.605  44.415   0.736
45268W        W17616  20.705  15.145  14.433
45269W        W17617  35.571  24.686   3.711
45270W        W17618  31.984  24.089  11.437
45271W        W17619  38.885  26.987  12.345
45272W        W17620   8.302  43.354   3.727
45273W        W17621  28.673   2.314   0.965
45274W        W17622   1.928   7.708   3.670
45275W        W17623  38.061  34.547   1.737
45276W        W17624  21.185  40.456  13.369
45277W        W17625  40.906   0.861  11.580
45278W        W17626  20.719  28.127   1.296
45279W        W17627  13.113  15.186   0.327
45280W        W17628  12.750  40.443  10.480
45281W        W17629   3.229  31.562   1.865
45282W        W17630   2.289  41.499  11.066
45283W        W17631  24.209   9.723  13.991
45284W        W17632  19.555  41.942   3.334
45285W        W17633  12.123  26.589   2.337
45286W        W17634  10.644   2.769  11.560
45287W        W17635  32.035  42.473   4.696
45288W        W17636  11.702  33.896  11.527
45289W        W17637  22.212  13.284  14.771
45290W        W17638  10.183  19.687  10.084
45291W        W17639  42.432  13.663   1.878
45292W        W17640  25.597  10.718  14.417
45293W        W17641   5.862  42.494   4.198
45294W        W17642  32.920   4.873   3.739
45295W        W17643   8.696  44.982  10.937
45296W        W17644  31.499   2.917   1.772
45297W        W17645  15.118  20.102  11.124
45298W        W17646  36.460   4.280  13.863
45299W        W17647   9.153   6.237   1.728
45300W        W17648  36.432  21.540   1.449
45301W        W17649  10.847  33.404   9.999
45302W        W17650  13.601  34.402  10.473
45303W        W17651  16.709   9.650  12.577
45304W        W17652   2.953  15.682  10.546
45305W        W17653  35.030  19.274  14.452
45306W        W17654  18.602  29.512  13.997
45307W        W17655  19.283  27.532  12.498
45308W        W17656  32.391  44.935   0.363
45309W        W17657  22.723  34.038  12.832
45310W        W17658  13.330  43.271   0.245
45311W        W17659  11.361  30.598   3.726
45312W        W17660  40.531  27.456   0.865
45313W        W17661   1.246  28.071  11.031
45314W        W17662   3.312  23.184  14.423
45315W        W17663   9.189  19.083   2.685
45316W        W17664  39.326  15.176  10.604
45317W        W17665  20.064  13.770   4.618
45318W        W17666   6.202  20.079   4.350
45319W        W17667   5.867  44.374   3.761
45320W        W17668  44.869  12.158   1.727
45321W        W17669  28.021  14.320  14.294
45322W        W17670  21.705  18.720   2.404
45323W        W17671  12.247  44.315   2.684
45324W        W17672  41.829  24.979  12.074
45325W        W17673   5.200  16.118   4.352
45326W        W17674  15.746  12.199   9.521
45327W        W17675  39.942  33.973   4.185
45328W        W17676  13.174  14.726   0.295
45329W        W17677  21.069  26.463  14.299
45330W        W17678   2.758  37.849  10.483
45331W        W17679  34.033  13.201   4.691
45332W        W17680  39.972   2.909   1.758
45333W        W17681  15.702  36.855   3.172
45334W        W17682  25.669  19.698   4.135
45335W        W17683   0.886  15.653   3.254
45336W        W17684  29.096  37.006  12.352
45337W        W17685  40.472  14.681  11.458
45338W        W17686  10.743  39.556   3.719
45339W        W17687  41.823  24.066  12.466
45340W        W17688   0.269   9.854   2.814
45341W        W17689  31.079   8.829   5.271
45342W        W17690   7.669  43.343  11.876
45343W        W17691  13.107   6.404   4.600
45344W        W17692   9.191  24.595   1.876
45345W        W17693  40.870  27.151  14.000
45346W        W17694  23.508  20.532  10.423
45347W        W17695  15.116  16.131   1.389
45348W        W17696  34.946  43.497   3.376
45349W        W17697  16.161  39.869   1.339
45350W        W17698  42.294  19.561  10.472
45351W        W17699  11.281   5.203   2.196
45352W        W17700  41.344  40.897   2.710
45353W        W17701  21.112  15.123  11.403
45354W        W17702   9.883  31.932   1.747
45355W        W17703  15.307  11.222   3.267
45356W        W17704  10.820  28.524   1.240
45357W        W17705  10.659  11.809  12.503
45358W        W17706  32.109  15.243   1.929
45359W        W17707  32.569  36.537   5.614
45360W        W17708  32.104  44.805  12.885
45361W        W17709  23.112  26.041  13.325
45362W        W17710   4.366  31.420   1.912
45363W        W17711  43.290  37.521  13.397
45364W        W17712  16.612  22.047   0.805
45365W        W17713  32.622  19.194  13.489
45366W        W17714  33.052  44.992  12.490
45367W        W17715  23.664  29.157  14.878
45368W        W17716  13.737  26.657  10.613
45369W        W17717  23.987  35.991  12.059
45370W        W17718  39.454  12.722   1.783
45371W        W17719   1.956  34.087  11.460
45372W        W17720  17.307  37.042   4.626
45373W        W17721  22.654   0.318  13.793
45374W        W17722   7.822   6.758   2.705
45375W        W17723  26.148  19.142  12.538
45376W        W17724  36.373  26.487   2.784
45377W        W17725  18.657  26.545  12.957
45378W        W17726   0.933   7.393  10.486
45379W        W17727  31.036  26.989  13.909
45380W        W17728  26.606  22.182  13.045
45381W        W17729   6.422  35.482  11.433
45382W        W17730  36.587  26.022   1.825
45383W        W17731  39.554  29.056  13.035
45384W        W17732  23.575   9.245   3.336
45385W        W17733  25.164  34.470   3.361
45386W        W17734  34.910  16.595  14.760
45387W        W17735  29.426  13.282  10.985
45388W        W17736  35.036   1.438  14.909
45389W        W17737  28.111  22.225  14.872
45390W        W17738   3.323  42.403  13.422
45391W        W17739  23.504  14.648   4.824
45392W        W17740  38.396   3.821  10.567
45393W        W17741  27.942  35.058  12.922
45394W        W17742  24.559  30.942  13.330
45395W        W17743  38.543  13.665   4.217
45396W        W17744  43.345  27.131   4.238
45397W        W17745  26.982  38.399  13.052
45398W        W17746  39.343  32.611   1.906
45399W        W17747  33.497  16.074   3.840
45400W        W17748  34.393  11.790  14.329
45401W        W17749  33.993  31.580   4.305
45402W        W17750  44.441  42.399   2.297
45403W        W17751  41.395  23.546  10.972
45404W        W17752  35.383   2.791   0.279
45405W        W17753   9.888  38.515   4.734
45406W        W17754  29.996   1.845   3.260
45407W        W17755  17.692  38.942  10.618
45408W        W17756  31.546  30.539   3.337
45409W        W17757  11.778  17.744   3.301
45410W        W17758   7.857  10.233  12.918
45411W        W17759  42.348  24.607   4.121
45412W        W17760  34.871  41.868  11.461
45413W        W17761  23.490  13.267   2.794
45414W        W17762   2.437  40.468  13.443
45415W        W17763   8.298  17.701  14.951
45416W        W17764  29.919  21.142   3.310
45417W        W17765   8.712  32.981   2.819
45418W        W17766  11.256  17.083   4.333
45419W        W17767  33.085  13.211  13.974
45420W        W17768  44.979  10.185   3.326
45421W        W17769   1.398   8.895   1.863
45422W        W17770   6.866  33.015  12.851
45423W        W17771   5.737  18.566   0.888
45424W        W17772   1.409  28.010  13.961
45425W        W17773   0.861  33.587  10.445
45426W        W17774  18.085  15.193   0.442
45427W        W17775  31.453   4.883  13.364
45428W        W17776   7.831  40.876  11.466
45429W        W17777   2.812  28.633   4.140
45430W        W17778   7.708   2.834   3.766
45431W        W17779   4.379  14.783  12.564
45432W        W17780  30.618  38.418  10.559
45433W        W17781  23.171  24.482   2.825
45434W        W17782  38.009  11.342  13.464
45435W        W17783  20.583  33.096  13.417
45436W        W17784  36.863  31.146  11.115
45437W        W17785  21.097  37.556  11.086
45438W        W17786  20.735  44.389   2.384
45439W        W17787  12.677  32.426  14.359
45440W        W17788  36.404  33.879   1.792
45441W        W17789  39.947  37.542   2.793
45442W        W17790   9.666  33.457  11.531
45443W        W17791   4.740  11.663  11.085
45444W        W17792   8.255  24.483  10.557
45445W        W17793  42.401  37.083  13.392
45446W        W17794  37.936  36.024   0.807
45447W        W17795   8.240   8.235   2.372
45448W        W17796  14.109  32.130   3.786
45449W        W17797  34.613  27.528   1.906
45450W        W17798  42.285  13.738   1.394
45451W        W17799  44.494  17.582  12.428
45452W        W17800  12.689   8.169  13.431
45453W        W17801   6.906  44.402   1.717
45454W        W17802  31.545  21.114   1.311
45455W        W17803   8.276  30.071  14.506
45456W        W17804   2.884   7.785  13.912
45457W        W17805   1.739  19.243  13.909
45458W        W17806  14.322  28.437   3.299
45459W        W17807  36.007  11.647   3.329
45460W        W17808  15.788  18.050  10.562
45461W        W17809  43.387  14.327   0.288
45462W        W17810  28.144   7.804  11.056
45463W        W17811  33.012  12.645   1.248
45464W        W17812  36.572   3.344   0.895
45465W        W17813   4.919  18.164  13.505
45466W        W17814  18.200  26.642  12.965
45467W        W17815   7.237  40.990   1.342
45468W        W17816  17.070  43.904   4.612
45469W        W17817  33.909  40.841   1.901
45470W        W17818  17.721  17.247  14.954
45471W        W17819   9.374  21.158   9.953
45472W        W17820  21.590   7.708   4.238
45473W        W17821  14.676   5.733   4.833
45474W        W17822  13.247  29.167   3.789
45475W        W17823  43.790  31.085  14.298
45476W        W17824  36.437   8.756  10.538
45477W        W17825  19.662   1.355   3.774
45478W        W17826  22.719   0.288   2.198
45479W        W17827  23.225  29.561  10.485
45480W        W17828  18.067  44.328   0.913
45481W        W17829  44.791  38.379  12.494
45482W        W17830  17.183  35.934  14.515
45483W        W17831  19.731  27.454   0.942
45484W        W17832  44.893   6.686  11.392
45485W        W17833  21.724  10.222  12.414
45486W        W17834  38.013  41.411   3.849
45487W        W17835   8.168   2.745  14.881
45488W        W17836   9.372  29.479  13.395
45489W        W17837  42.997   1.868   2.773
45490W        W17838  33.038   7.820  13.846
45491W        W17839  28.572  12.786   0.367
45492W        W17840  23.539  38.324   2.414
45493W        W17841  42.905  43.996  13.022
45494W        W17842  12.201  28.496   3.731
45495W        W17843  13.224   9.709   0.360
45496W        W17844  17.659  16.611   0.242
45497W        W17845  30.552  19.181  14.913
45498W        W17846   1.747  28.621  11.113
45499W        W17847   9.845   8.701   2.354
45500W        W17848  34.568  41.322  11.601
45501W        W17849  32.975  22.568   0.280
45502W        W17850  37.555  14.757   2.371
45503W        W17851   3.744  37.374   1.771
45504W        W17852  43.006  42.792  11.885
45505W        W17853  38.441  31.908   1.781
45506W        W17854  41.353   0.870   1.436
45507W        W17855   1.805   3.240   0.317
45508W        W17856   8.161  24.639  13.436
45509W        W17857  39.315  15.712   2.899
45510W        W17858  32.439  22.072   3.153
45511W        W17859   5.892   3.913   0.436
45512W        W17860  37.034  35.944  13.869
45513W        W17861  40.038   0.970   1.304
45514W        W17862   8.722  39.963   2.376
45515W        W17863  44.495  44.816   2.754
45516W        W17864  37.940  40.393  13.912
45517W        W17865  39.363  14.300   1.211
45518W        W17866  21.756  14.305   4.269
45519W        W17867  19.058  40.339  14.380
45520W        W17868  30.429  34.032  12.543
45521W        W17869  41.848  31.954   2.783
45522W        W17870  21.221  28.013   4.781
45523W        W17871  12.287  37.079  14.900
45524W        W17872   7.717  21.091   5.116
45525W        W17873   8.383  13.675  12.578
45526W        W17874  37.996  29.015   0.383
45527W        W17875  20.181  21.633  12.522
45528W        W17876  17.580  32.895  12.078
45529W        W17877  43.799  30.971   1.243
45530W        W17878  12.275  12.791  12.927
45531W        W17879   4.361  22.061   0.914
45532W        W17880  32.937  14.736  13.524
45533W        W17881   1.872   6.287   0.364
45534W        W17882  23.230  12.825  14.873
45535W        W17883  31.482  32.901  14.851
45536W        W17884  18.724  30.994   5.199
45537W        W17885  10.364  19.227  11.057
45538W        W17886  39.063  11.803  12.012
45539W        W17887  12.350   6.421   0.274
45540W        W17888  24.607  15.746  10.906
45541W        W17889  41.828   7.313   1.723
45542W        W17890   3.264  41.965   3.307
45543W        W17891  30.149  35.017  12.449
45544W        W17892  15.604  15.717   5.166
45545W        W17893  39.486   9.685  12.574
45546W        W17894  10.226  22.591   5.162
45547W        W17895  27.668  43.440   3.211
45548W        W17896  19.130   6.238  13.875
45549W        W17897  21.594  10.740   1.898
45550W        W17898  42.984  26.995   2.404
45551W        W17899  20.649  16.673   1.720
45552W        W17900  27.617  13.826   1.828
45553W        W17901  23.234  24.694  13.039
45554W        W17902  20.237   1.734  10.897
45555W        W17903  30.584  13.282   1.717
45556W        W17904  43.514  20.624  11.542
45557W        W17905  38.895  41.383  13.391
45558W        W17906   9.723  39.962  13.922
45559W        W17907  30.613   7.894  10.609
45560W        W17908  20.142  37.046   2.317
45561W        W17909  25.468  18.110  13.434
45562W        W17910  18.712  26.091   3.313
45563W        W17911  42.459   0.432  11.972
45564W        W17912  34.406  32.086   1.218
45565W        W17913  22.155  12.156  14.003
45566W        W17914  44.361  29.993  10.939
45567W        W17915  13.277   1.806   3.750
45568W        W17916  32.514  39.415  12.510
45569W        W17917   3.447  42.284   3.245
45570W        W17918   3.380  40.877  10.458
45571W        W17919  44.299  10.187   4.265
45572W        W17920  12.792  44.914  11.857
45573W        W17921  43.368  26.612   1.801
45574W        W17922  44.756  42.949  13.327
45575W        W17923  14.731   7.700   2.305
45576W        W17924  16.654  14.212   4.183
45577W        W17925  32.490  40.042   2.831
45578W        W17926  34.409   1.741   2.826
45579W        W17927  23.675   0.946  14.929
45580W        W17928  17.096   9.186  14.431
45581W        W17929  18.096  32.455   3.632
45582W        W17930  31.954   2.761   1.874
45583W        W17931  29.484  11.803  14.824
45584W        W17932  16.162   3.283   4.149
45585W        W17933  14.328  14.124  12.438
45586W        W17934  21.747  21.180   3.247
45587W        W17935  41.491  17.711  14.823
45588W        W17936   5.847   1.259  11.968
45589W        W17937   0.304  40.376   3.812
45590W        W17938  40.508  32.018  14.423
45591W        W17939  42.293  23.008  13.885
45592W        W17940  27.093  15.190  10.520
45593W        W17941   3.833  20.056   4.725
45594W        W17942  14.692  11.828  12.904
45595W        W17943  44.273   1.740  12.862
45596W        W17944  13.343   7.726   0.298
45597W        W17945  19.589  22.159  11.940
45598W        W17946  32.539  22.156  11.120
45599W        W17947  26.524  41.793   5.209
45600W        W17948  30.528   1.978   2.852
45601W        W17949   7.273  19.192   3.790
45602W        W17950  40.026  39.811  14.003
45603W        W17951  32.990  42.285  10.477
45604W        W17952  42.974  42.280   0.926
45605W        W17953  22.222  21.611   1.444
45606W        W17954  26.632  20.670   2.249
45607W        W17955   5.717   7.785   4.263
45608W        W17956   3.854  29.617   1.332
45609W        W17957  22.191   4.721  10.576
45610W        W17958  32.017  32.505  10.944
45611W        W17959  21.636  10.282  12.032
45612W        W17960   2.337   8.168  10.896
45613W        W17961  30.109  40.917   1.716
45614W        W17962  25.650  32.504   3.316
45615W        W17963  17.086  17.693  10.608
45616W        W17964   0.374  18.222  14.948
45617W        W17965  32.095  21.130   3.186
45618W        W17966  11.837  36.984  11.944
45619W        W17967  44.486  30.125  11.974
45620W        W17968  11.708  28.545   2.308
45621W        W17969  35.874  37.387   0.481
45622W        W17970  39.834  24.562  13.447
45623W        W17971  11.705  14.101  12.905
45624W        W17972  27.174  36.847   1.361
45625W        W17973  22.090  38.400  13.996
45626W        W17974  10.810  25.546   4.207
45627W        W17975  28.098  35.412  13.008
45628W        W17976   3.861  34.038  12.392
45629W        W17977  16.808   5.865   4.771
45630W        W17978  10.211  15.629  14.512
45631W        W17979   8.796  15.614  10.565
45632W        W17980   1.816  34.488  13.963
45633W        W17981  34.928  30.033   0.771
45634W        W17982  21.719   0.397  13.043
45635W        W17983  39.353  21.193   1.223
45636W        W17984  16.795  12.741   5.153
45637W        W17985  39.935  10.199   2.244
45638W        W17986  13.293  36.841   2.285
45639W        W17987  38.996  14.800   0.875
45640W        W17988  39.853   9.189  10.631
45641W        W17989  29.446  38.354   0.447
45642W        W17990  10.719  30.079  14.326
45643W        W17991  44.874   4.266   0.735
45644W        W17992  31.493  11.172  10.504
45645W        W17993   7.826   7.322  10.409
45646W        W17994  41.846  21.261   2.297
45647W        W17995  38.342  43.998  11.905
45648W        W17996  29.919  30.921   1.712
45649W        W17997  30.988  32.939  12.990
45650W        W17998   5.222   6.212   1.360
45651W        W17999  41.950   1.324   3.858
45652W        W18000   6.417  21.542  14.783
45653W        W18001  40.345  28.983   3.680
45654W        W18002  38.489  42.382  12.994
45655W        W18003   8.351   9.333   3.849
45656W        W18004  23.698   8.385  10.551
45657W        W18005  17.284  13.757   2.246
45658W        W18006  29.461  20.573  12.473
45659W        W18007   8.266   3.448  13.523
45660W        W18008  28.011   0.447   4.740
45661W        W18009  43.895  29.487   1.235
45662W        W18010  30.030  23.633   0.848
45663W        W18011  12.664  37.944  13.818
45664W        W18012  40.388   9.745   0.738
45665W        W18013  17.219   0.876  13.989
45666W        W18014  22.702  17.198  10.926
45667W        W18015  19.282  41.950   4.691
45668W        W18016  20.623  39.013   1.784
45669W        W18017  28.666  16.187   4.775
45670W        W18018   4.246   5.887   0.256
45671W        W18019   1.271  35.541  11.101
45672W        W18020  24.024  28.028   3.196
45673W        W18021  37.441  14.641  14.021
45674W        W18022  42.379  29.619   1.924
45675W        W18023  22.054  37.932  12.927
45676W        W18024   6.243  30.420  14.485
45677W        W18025  20.608  37.569   4.696
45678W        W18026  25.992   2.929   4.727
45679W        W18027  30.531  42.303   1.829
45680W        W18028  40.842  20.525   3.176
45681W        W18029  30.908  35.897   4.285
45682W        W18030   9.165   1.871   2.899
45683W        W18031  15.148  42.443   0.346
45684W        W18032  40.938  20.179   2.182
45685W        W18033  41.867  10.831  14.393
45686W        W18034  38.039  28.636  13.508
45687W        W18035  14.181   6.291  10.514
45688W        W18036   0.807  14.167  13.058
45689W        W18037  10.189   7.862  14.815
45690W        W18038  15.115  11.759  14.422
45691W        W18039  21.084   2.774  11.572
45692W        W18040   8.798  24.621  11.525
45693W        W18041  30.055  42.912  13.048
45694W        W18042  24.018  43.791   3.853
45695W        W18043  28.473  37.910   4.214
45696W        W18044  39.482  31.952   2.287
45697W        W18045  13.156  13.762   2.850
45698W        W18046   0.988  42.440   2.332
45699W        W18047  33.038  21.095  11.057
45700W        W18048  15.802  26.607  14.929
45701W        W18049  43.503  13.246  13.356
45702W        W18050  33.399  41.430  14.995
45703W        W18051  20.591  38.363  10.921
45704W        W18052  37.369  23.229   4.121
45705W        W18053  42.379  29.502   2.214
45706W        W18054  18.733   1.434   0.439
45707W        W18055  44.273   0.806  10.939
45708W        W18056  23.642   8.898   4.640
45709W        W18057  10.684  30.421   3.236
45710W        W18058  18.273  17.283  13.839
45711W        W18059  32.970   5.201   0.244
45712W        W18060  38.035  22.525   2.873
45713W        W18061  41.375  21.570   0.840
45714W        W18062  44.317  10.764   1.745
45715W        W18063  31.113  15.733   1.870
45716W        W18064  34.911   3.426   3.634
45717W        W18065   9.700  33.577  14.388
45718W        W18066   6.202  28.472  11.106
45719W        W18067   2.945  16.705   4.238
45720W        W18068  26.619  33.911  14.452
45721W        W18069  37.491  13.113   4.135
45722W        W18070  44.874  43.502  10.510
45723W        W18071  13.340  22.023   1.413
45724W        W18072  11.154  18.156  11.936
45725W        W18073   8.715  23.637   3.735
45726W        W18074  32.462  32.078   1.839
45727W        W18075  21.102  18.696   0.961
45728W        W18076  42.865  34.564   4.767
45729W        W18077   1.848  12.828  12.469
45730W        W18078  41.935  32.444  13.333
45731W        W18079  33.875   9.820   1.797
45732W        W18080  12.294  32.629  10.404
45733W        W18081  26.463  43.863   1.332
45734W        W18082  39.551  43.443   0.936
45735W        W18083  35.990  28.037   2.834
45736W        W18084   2.283  36.570  13.058
45737W        W18085  32.434  40.023   1.277
45738W        W18086   4.926  36.064  12.947
45739W        W18087  37.572   6.236  13.418
45740W        W18088  30.153  25.048  12.836
45741W        W18089  36.000  11.184  14.484
45742W        W18090  37.391  27.609  10.031
45743W        W18091  33.549   1.415  10.898
45744W        W18092  29.513  25.012   0.450
45745W        W18093  30.426  28.148   0.424
45746W        W18094   6.754  24.080  13.817
45747W        W18095   9.796  17.687  11.925
45748W        W18096  28.981  29.571  14.960
45749W        W18097  17.197  10.756  13.548
45750W        W18098   8.355   2.805  13.959
45751W        W18099  39.860  15.221   2.215
45752W        W18100  24.031   7.843  12.879
45753W        W18101  20.750  18.127  14.454
45754W        W18102   1.968  40.465  10.512
45755W        W18103  10.240  30.494   2.296
45756W        W18104  44.411  14.118  12.904
45757W        W18105  39.374  35.603   0.475
45758W        W18106  15.102  22.252   3.670
45759W        W18107  29.923  35.973   3.680
45760W        W18108  43.462  33.926  13.393
45761W        W18109  10.823  36.964  11.490
45762W        W18110  44.989  29.654  12.517
45763W        W18111  41.810  16.759   4.672
45764W        W18112  28.967  29.575  11.485
45765W        W18113  37.060   2.311  10.540
45766W        W18114   6.208  37.992  10.941
45767W        W18115   8.330  43.485  13.857
45768W        W18116   9.796  19.539   3.634
45769W        W18117  29.957  36.350  11.512
45770W        W18118  41.843  29.448  11.378
45771W        W18119   1.446  15.605   0.751
45772W        W18120  44.311  35.087  10.126
45773W        W18121   2.267   7.379  11.410
45774W        W18122   7.850  18.207  11.458
45775W        W18123   5.216  12.632   1.236
45776W        W18124  40.812  18.280  11.106
45777W        W18125  43.499  43.485   2.871
45778W        W18126  11.690  27.004  13.049
45779W        W18127  44.765  43.904   2.711
45780W        W18128  43.469  33.876   1.899
45781W        W18129  12.636  43.423   0.912
45782W        W18130  22.701  28.647  11.409
45783W        W18131   1.935   7.712  13.380
45784W        W18132  17.572  39.402  12.514
45785W        W18133  24.213  27.576  12.944
45786W        W18134  10.661   5.439  14.508
45787W        W18135  35.949  27.093   2.203
45788W        W18136  32.466  21.617   3.651
45789W        W18137  21.148   9.802   4.597
45790W        W18138  28.436  42.293  13.863
45791W        W18139  32.410  17.673   1.781
45792W        W18140   0.872  15.190   0.300
45793W        W18141  33.562  14.156   5.185
45794W        W18142  11.339  14.682  13.874
45795W        W18143  24.104  35.929  13.365
45796W        W18144  33.591  28.984   2.241
45797W        W18145  23.642   5.696  12.952
45798W        W18146  18.289   7.680  13.054
45799W        W18147  40.380   4.889  12.493
45800W        W18148   6.809  20.106  11.102
45801W        W18149  36.053  34.581   0.919
45802W        W18150  31.417  15.646   0.286
45803W        W18151  44.268  25.100  12.874
45804W        W18152  28.489  18.775   4.271
45805W        W18153  17.146  35.479  10.617
45806W        W18154  26.078  26.678  13.011
45807W        W18155  25.535  14.276  14.882
45808W        W18156   8.364  30.923   3.646
45809W        W18157   2.756  38.479  10.404
45810W        W18158  24.053  34.056  14.327
45811W        W18159  34.434  18.714  13.342
45812W        W18160   3.291  29.506  12.345
45813W        W18161  28.042  36.472   4.663
45814W        W18162  34.006  37.581   3.650
45815W        W18163  37.868   2.269  10.409
45816W        W18164  19.622   1.242  10.547
45817W        W18165  13.188  43.993   2.417
45818W        W18166   8.316  31.567  11.380
45819W        W18167  15.182  12.708  11.034
45820W        W18168   0.769  29.157  13.811
45821W        W18169  42.370  31.034   2.853
45822W        W18170  26.021  25.591  11.508
45823W        W18171   3.895  21.664   4.319
45824W        W18172  38.820  32.001   3.710
45825W        W18173  11.866  13.210   4.129
45826W        W18174  34.031  39.360  12.345
45827W        W18175  30.604  23.688  12.940
45828W        W18176  22.709  18.641  13.386
45829W        W18177  19.164  39.423  11.113
45830W        W18178  37.068  39.331  10.597
45831W        W18179   8.744  15.664  11.976
45832W        W18180  13.118  29.996  11.599
45833W        W18181  29.152  12.321   4.278
45834W        W18182  15.237  37.052   1.424
45835W        W18183  29.657  41.303  12.954
45836W        W18184  38.927  18.625  13.406
45837W        W18185  18.788  22.572  12.409
45838W        W18186  18.121   1.967   1.327
45839W        W18187  36.504  21.192   0.729
45840W        W18188   2.453  13.618   1.694
45841W        W18189  37.476  28.026   5.086
45842W        W18190   4.855  12.639  10.471
45843W        W18191   4.846   3.284  10.999
45844W        W18192  41.400  37.428   4.759
45845W        W18193  43.352   2.779   4.244
45846W        W18194  15.659   2.229  14.425
45847W        W18195  41.942  21.137   5.111
45848W        W18196  39.471   7.411  11.472
45849W        W18197   2.291  43.460  14.802
45850W        W18198  33.070  27.511   4.695
45851W        W18199  12.723  42.825   1.422
45852W        W18200  35.462  10.836  12.356
45853W        W18201  20.267  36.453   2.222
45854W        W18202   1.370   0.248   3.318
45855W        W18203  10.156  19.754   2.350
45856W        W18204   1.467  12.845   3.644
45857W        W18205  25.591  13.261   4.114
45858W        W18206  39.500  27.981   0.956
45859W        W18207  38.840   7.248  12.353
45860W        W18208  41.789  29.489  13.359
45861W        W18209   8.819  19.199   2.758
45862W        W18210   0.765  10.347   2.225
45863W        W18211  20.757  41.881   1.863
45864W        W18212   8.866  42.860   5.086
45865W        W18213  10.256   9.334   4.686
45866W        W18214  29.004  25.592  13.519
45867W        W18215   3.215  29.070  10.536
45868W        W18216   8.354  31.507  12.373
45869W        W18217  25.197  19.669   4.804
45870W        W18218  24.090  12.747   1.836
45871W        W18219  43.426  13.771  12.926
45872W        W18220  32.567  28.559   4.231
45873W        W18221  21.621  28.045   3.656
45874W        W18222  34.581   8.657   3.801
45875W        W18223  38.874   1.374  11.985
45876W        W18224   4.718  34.983  12.047
45877W        W18225  44.975  41.529   4.336
45878W        W18226  18.253  24.647  12.353
45879W        W18227  28.094  16.620   0.767
45880W        W18228   4.842  39.494  10.095
45881W        W18229  19.697  21.163   0.327
45882W        W18230  24.094  13.243  12.529
45883W        W18231  21.146  33.066   1.407
45884W        W18232  37.904  22.043  13.414
45885W        W18233  15.744  27.554   1.229
45886W        W18234   3.242  43.440   2.408
45887W        W18235  42.011   2.731  13.955
45888W        W18236  18.057  28.633   4.615
45889W        W18237  39.331  21.629   3.688
45890W        W18238  10.750   1.880  10.992
45891W        W18239  38.947  32.022  11.046
45892W        W18240  32.405   8.872   0.340
45893W        W18241  44.875   9.869   0.769
45894W        W18242   4.804  38.068  11.593
45895W        W18243  39.888  12.821   3.801
45896W        W18244   9.803  20.101  12.377
45897W        W18245  41.452   6.258   0.864
45898W        W18246  33.029   3.431   0.753
45899W        W18247  14.302  42.009  13.448
45900W        W18248   7.722  27.975   3.738
45901W        W18249  40.484  18.757   3.276
45902W        W18250  11.338   4.795  10.986
45903W        W18251   3.763  20.217  11.885
45904W        W18252  43.300   6.248   0.813
45905W        W18253  14.711  20.127   3.257
45906W        W18254  32.141  12.797   4.341
45907W        W18255  38.059   6.199   9.967
45908W        W18256  19.244  40.465   1.347
45909W        W18257  26.700  25.106  13.375
45910W        W18258  13.651  14.338   0.944
45911W        W18259  42.912  22.050   2.389
45912W        W18260  13.686  31.117   1.377
45913W        W18261  30.481  23.559  10.964
45914W        W18262  22.240  44.393  12.566
45915W        W18263  42.445  41.931  11.385
45916W        W18264  26.119  33.065   3.845
45917W        W18265  26.477  23.021  12.880
45918W        W18266  19.140  17.306  11.972
45919W        W18267  32.890   5.253   4.766
45920W        W18268  15.820  12.731   0.902
45921W        W18269  39.344   4.216  11.007
45922W        W18270   6.362   8.685  11.483
45923W        W18271  12.198  25.094   4.231
45924W        W18272  33.470  33.079   3.783
45925W        W18273  35.544  20.072   4.284
45926W        W18274  12.122  28.120   4.147
45927W        W18275  14.239  36.059   0.446
45928W        W18276   6.861  38.021  13.397
45929W        W18277  34.421   5.206  11.945
45930W        W18278   8.753  15.195  13.039
45931W        W18279  31.564  10.363  12.020
45932W        W18280  23.533  26.535  10.531
45933W        W18281  34.582  12.721   1.741
45934W        W18282   2.855  39.442  12.060
45935W        W18283  34.901  19.128  10.545
45936W        W18284  29.027  40.487  14.500
45937W        W18285  26.978  31.910   4.121
45938W        W18286  43.019   1.348   3.733
45939W        W18287  22.703  27.068   0.893
45940W        W18288  37.408   9.866   4.272
45941W        W18289  16.160   3.308   2.314
45942W        W18290  40.964  14.776  12.488
45943W        W18291  30.161   5.437  13.418
45944W        W18292   7.332   2.331  13.325
45945W        W18293  17.273  11.204   0.833
45946W        W18294  17.583  14.816   0.260
45947W        W18295  10.769  27.093  13.028
45948W        W18296  31.470  18.085  10.951
45949W        W18297  21.628  23.110   1.771
45950W        W18298  35.493  14.335  14.440
45951W        W18299  43.463   2.920  14.938
45952W        W18300  17.079  37.866  10.930
45953W        W18301  20.605  38.980   2.856
45954W        W18302  10.800  15.205   1.838
45955W        W18303  37.934  18.222  10.457
45956W        W18304  30.943   4.931  13.454
45957W        W18305  27.986  35.896   4.249
45958W        W18306   3.396  27.471   2.380
45959W        W18307  13.309  30.507  13.411
45960W        W18308  30.952  26.536  10.050
45961W        W18309  26.674  34.889  12.424
45962W        W18310  26.530  20.094   1.212
45963W        W18311  19.107  25.073   3.860
45964W        W18312  26.980  31.924   3.695
45965W        W18313  10.748  25.571   0.781
45966W        W18314   9.266   3.781  14.513
45967W        W18315  16.291   4.814   3.177
45968W        W18316   4.884  17.775  14.354
45969W        W18317  30.016  31.989   3.708
45970W        W18318  38.860  40.410  12.944
45971W        W18319   8.683  26.193   0.915
45972W        W18320  38.355   4.896  11.952
45973W        W18321  34.110   2.955   2.328
45974W        W18322  36.941   0.883  14.331
45975W        W18323  42.331  44.971  13.414
45976W        W18324  28.151   1.341  13.411
45977W        W18325   7.829  29.057  13.460
45978W        W18326   6.413  12.776  14.858
45979W        W18327  32.416  39.468   2.903
45980W        W18328   0.382  19.557   0.461
45981W        W18329  22.006  18.236   3.863
45982W        W18330  41.381  31.536   2.875
45983W        W18331  21.065   5.822   3.820
45984W        W18332  11.634  44.811   3.761
45985W        W18333  18.164  28.670   0.772
45986W        W18334  41.803  14.708   0.851
45987W        W18335  11.336  27.976   0.904
45988W        W18336  10.170   4.899  14.926
45989W        W18337  24.122  34.915  13.851
45990W        W18338  13.192  16.805   1.374
45991W        W18339   0.765  22.104   0.444
45992W        W18340  21.734   4.355  11.522
45993W        W18341  20.073  11.631  14.287
45994W        W18342  38.027  33.004   2.366
45995W        W18343   3.318  17.062   3.305
45996W        W18344  35.514   7.278  11.562
45997W        W18345  16.209   3.896   3.829
45998W        W18346  14.185  23.125  11.958
45999W        W18347  40.031  41.381  11.383
46000W        W18348  27.173  42.911  14.793
46001W        W18349  21.149   1.752   5.144
46002W        W18350  12.324  37.568  13.914
46003W        W18351   2.754   5.256   4.231
46004W        W18352  10.800   2.848  14.923
46005W        W18353  44.782  26.072   0.901
46006W        W18354  35.050  29.535   1.267
46007W        W18355  29.620   9.187   3.315
46008W        W18356   4.326   7.886  10.891
46009W        W18357  32.115  10.806   0.322
46010W        W18358   7.305  14.178   0.393
46011W        W18359  41.398  14.754  13.007
46012W        W18360  33.084   4.847  14.444
46013W        W18361  19.629  25.692  12.412
46014W        W18362  29.129  34.042   1.305
46015W        W18363  28.149  12.716   2.211
46016W        W18364   7.377   7.304   0.835
46017W        W18365  33.483  41.333   1.779
46018W        W18366  41.369  44.284   4.324
46019W        W18367  39.556  25.160  10.990
46020W        W18368  24.114  36.874  12.911
46021W        W18369   6.205  34.877   3.298
46022W        W18370  17.593  35.034   4.620
46023W        W18371  42.450   0.977  10.516
46024W        W18372  43.376  34.586   0.284
46025W        W18373  26.540  12.215   2.326
46026W        W18374  12.186  31.142   2.792
46027W        W18375  26.033  41.845   2.813
46028W        W18376   6.836  25.053   1.297
46029W        W18377  44.929  29.958   2.900
46030W        W18378   6.862  14.828   4.325
46031W        W18379  41.307  27.581   3.273
46032W        W18380  41.928  39.349  13.038
46033W        W18381   2.877   7.310  12.901
46034W        W18382  41.888  42.340   0.304
46035W        W18383  15.692   2.859   1.325
46036W        W18384   5.770  18.710   4.729
46037W        W18385  30.085  14.718   3.313
46038W        W18386  10.291  19.043  12.501
46039W        W18387  12.233   8.654   4.165
46040W        W18388  31.629  34.520  10.141
46041W        W18389  13.809   4.223  12.573
46042W        W18390  11.280  17.231   2.309
46043W        W18391   0.401  25.582  12.432
46044W        W18392   5.844  41.041   4.229
46045W        W18393  19.105  16.632   2.704
46046W        W18394  30.567  44.457   0.753
46047W        W18395  26.489   7.369  11.914
46048W        W18396  30.120  42.951   2.314
46049W        W18397  12.355   7.179   3.802
46050W        W18398   7.772  19.565   1.786
46051W        W18399  35.902  42.443  12.415
46052W        W18400   6.832  30.500   1.378
46053W        W18401  22.198   6.730  13.498
46054W        W18402   1.305   1.364   3.161
46055W        W18403   0.274  12.221   1.442
46056W        W18404  38.976  42.392  13.356
46057W        W18405  36.035  40.464  11.465
46058W        W18406  25.130  30.042   2.339
46059W        W18407  37.547  39.433   2.308
46060W        W18408   7.287  34.041   1.308
46061W        W18409   1.892  33.040   4.148
46062W        W18410   8.282  34.907   1.905
46063W        W18411  32.570  25.994  12.963
46064W        W18412  10.212  44.471   0.418
46065W        W18413   4.763  41.299   3.387
46066W        W18414  39.925  23.585  12.016
46067W        W18415  31.528  14.259  14.406
46068W        W18416  28.997  30.955  13.883
46069W        W18417   0.338   1.401  11.521
46070W        W18418  26.649  28.018   4.244
46071W        W18419  30.493  22.193   2.191
46072W        W18420   4.878  35.046   0.754
46073W        W18421  13.137  38.878   0.810
46074W        W18422  16.584  32.066   5.277
46075W        W18423  41.356  11.785   2.721
46076W        W18424   9.796   1.359   0.765
46077W        W18425   1.366  41.472   2.196
46078W        W18426  13.144  12.179  14.440
46079W        W18427  36.897  26.025  10.417
46080W        W18428  23.677  31.625  12.876
46081W        W18429  27.450  17.092  11.932
46082W        W18430  13.199   0.943  10.119
46083W        W18431  23.564  37.350   1.360
46084W        W18432  32.136  15.326   3.383
46085W        W18433  28.009  24.634  11.496
46086W        W18434   1.781  26.048   4.679
46087W        W18435  40.341   7.868   0.480
46088W        W18436   0.960  32.586   3.751
46089W        W18437  44.261  18.702   4.261
46090W        W18438  44.382  32.601  12.008
46091W        W18439  16.579  34.453  13.318
46092W        W18440   9.825   5.240  12.064
46093W        W18441  20.207  17.645   3.208
46094W        W18442  15.229  25.552   2.809
46095W        W18443   4.407   8.693  14.434
46096W        W18444   7.298  17.587  13.469
46097W        W18445  17.675   1.427   0.417
46098W        W18446  41.998   3.724   1.373
46099W        W18447   0.346  13.772  13.502
46100W        W18448  36.480  16.714   3.650
46101W        W18449   0.376  17.716   3.357
46102W        W18450  36.507  41.359   2.382
46103W        W18451   4.440   4.422   1.909
46104W        W18452  18.057  39.035   1.224
46105W        W18453   1.289  29.430   0.756
46106W        W18454  11.687  37.037  11.026
46107W        W18455   7.211  28.970   2.242
46108W        W18456  11.743  17.070  12.047
46109W        W18457  22.076   3.357   2.251
46110W        W18458  31.497  32.100  11.857
46111W        W18459  18.569  42.416  10.587
46112W        W18460   1.881  11.337   1.749
46113W        W18461  40.456  18.575  11.878
46114W        W18462  14.120  28.672   2.406
46115W        W18463  25.201  42.377  14.364
46116W        W18464   9.704   0.366  12.061
46117W        W18465   8.704   6.881  12.003
46118W        W18466  39.988  30.657  14.030
46119W        W18467  19.239  23.114  11.527
46120W        W18468   0.801  28.075  10.463
46121W        W18469  19.670  11.815   1.764
46122W        W18470   7.407  45.000  10.630
46123W        W18471  25.710  24.978  13.510
46124W        W18472  37.000  11.864   2.735
46125W        W18473  12.268   3.930  12.925
46126W        W18474  10.227  10.310  11.481
46127W        W18475  22.662  28.615  12.957
46128W        W18476  29.604  10.864   0.268
46129W        W18477  39.867  12.690  11.931
46130W        W18478  33.075  26.690  11.045
46131W        W18479  25.081  18.780  10.929
46132W        W18480  27.985  44.956  12.558
46133W        W18481  43.929  11.714  11.110
46134W        W18482  24.075   4.337   4.129
46135W        W18483   3.423  21.155   3.799
46136W        W18484  18.550  34.555  12.398
46137W        W18485  35.898  39.341  11.072
46138W        W18486  14.242  30.468  11.595
46139W        W18487  12.282  41.819  11.945
46140W        W18488   3.845  27.488   3.783
46141W        W18489  21.052  19.076  12.466
46142W        W18490  16.178  12.690  11.856
46143W        W18491   5.261  23.095   2.396
46144W        W18492   0.393  15.158  11.097
46145W        W18493   2.795  21.671  12.986
46146W        W18494  43.432  13.831   3.312
46147W        W18495  16.313  26.674   5.105
46148W        W18496  20.054  28.596   4.324
46149W        W18497  26.044  16.793   4.611
46150W        W18498   8.300  43.960   2.842
46151W        W18499  43.516  17.620   1.436
46152W        W18500  40.337  39.004  11.035
46153W        W18501  16.796  11.177   0.305
46154W        W18502  20.218  30.564   0.424
46155W        W18503   5.796  14.801  12.385
46156W        W18504  28.607   8.324   3.670
46157W        W18505   6.301  17.580  14.406
46158W        W18506   6.387  19.621  14.361
46159W        W18507  30.519  33.510  12.980
46160W        W18508   5.730  36.397   4.124
46161W        W18509   2.321  19.756  14.353
46162W        W18510  25.705  26.143   0.875
46163W        W18511   2.966  26.627   2.211
46164W        W18512  26.477  39.842   0.956
46165W        W18513  32.137   1.249   4.738
46166W        W18514   8.801  41.849   4.286
46167W        W18515  37.476  42.417  11.416
46168W        W18516  20.258   5.383   1.445
46169W        W18517   2.314  21.208  10.639
46170W        W18518  43.015  38.365  13.337
46171W        W18519  18.282  11.168   3.824
46172W        W18520  34.459  26.000   4.630
46173W        W18521  42.519  29.469   3.279
46174W        W18522  10.850  43.328   4.124
46175W        W18523  12.807  23.627   1.307
46176W        W18524  41.920  11.717   1.854
46177W        W18525  12.327  25.071  10.950
46178W        W18526  18.759  29.556   2.269
46179W        W18527  11.785   8.782  11.053
46180W        W18528   8.797   4.281  13.417
46181W        W18529  42.289  40.448   1.214
46182W        W18530  17.623  32.090   1.935
46183W        W18531  13.750  24.075   2.255
46184W        W18532   1.304  28.541   4.827
46185W        W18533  12.731  37.443  13.922
46186W        W18534   5.755  23.582  11.042
46187W        W18535  27.491  18.234   4.770
46188W        W18536   4.765  44.370   3.706
46189W        W18537   9.881  14.153   2.819
46190W        W18538  14.709   4.897   2.699
46191W        W18539  11.772   8.767  11.433
46192W        W18540  16.810   1.810  12.352
46193W        W18541  15.587   7.279   3.227
46194W        W18542  17.723   9.324   3.365
46195W        W18543  24.052  41.819   0.338
46196W        W18544  28.622  22.046   1.382
46197W        W18545  11.849  24.521  11.492
46198W        W18546  21.696  28.009   2.406
46199W        W18547  42.011  19.655   2.830
46200W        W18548  12.230  34.370   4.114
46201W        W18549  24.122   6.754  12.492
46202W        W18550  14.335  20.562   2.776
46203W        W18551  32.011  35.552  11.434
46204W        W18552  10.171   2.246   1.814
46205W        W18553  29.943  24.665   0.847
46206W        W18554  28.933  24.677   1.816
46207W        W18555  23.490   6.706   1.842
46208W        W18556   7.355   3.751   0.821
46209W        W18557  33.038  20.164   4.786
46210W        W18558  34.873   6.332   4.799
46211W        W18559  39.399  26.625  10.456
46212W        W18560  44.767  40.442   3.746
46213W        W18561   9.678   3.710  12.869
46214W        W18562  39.967  13.153  12.521
46215W        W18563  13.180  22.075   2.267
46216W        W18564  15.328  30.151  13.405
46217W        W18565   8.732  15.110  10.638
46218W        W18566  41.439  41.381   3.214
46219W        W18567   4.217  24.569   2.275
46220W        W18568  34.404  27.568   4.755
46221W        W18569  32.075  35.998   0.266
46222W        W18570  15.611  13.113   4.325
46223W        W18571   0.325  35.070  13.798
46224W        W18572  17.226   7.380   0.369
46225W        W18573   2.316  20.159   0.733
46226W        W18574  44.922  40.938   0.838
46227W        W18575  36.538  29.106   4.757
46228W        W18576  30.500  42.451   2.225
46229W        W18577  42.281  38.540   4.616
46230W        W18578  22.651  27.645   1.914
46231W        W18579  24.671  26.167  12.392
46232W        W18580  27.526  14.199  13.357
46233W        W18581   8.899  22.563   4.254
46234W        W18582  19.628  39.407  12.071
46235W        W18583  15.166  27.979   3.360
46236W        W18584  31.121   6.416  13.314
46237W        W18585  29.148  33.126  12.517
46238W        W18586  15.248  32.609  11.060
46239W        W18587   0.889   3.416  14.939
46240W        W18588  29.998  23.230  11.604
46241W        W18589  30.045  28.114   4.711
46242W        W18590  38.563  18.562  14.994
46243W        W18591  22.159   3.809   1.857
46244W        W18592  29.467  25.647  11.396
46245W        W18593  26.044  35.045   3.218
46246W        W18594  29.426   8.733   2.837
46247W        W18595  19.697  43.833  12.953
46248W        W18596   1.821   4.449   1.718
46249W        W18597  35.055  14.607  11.414
46250W        W18598   0.276  17.653   1.351
46251W        W18599  38.514  31.144  12.888
46252W        W18600  40.010   9.329  14.916
46253W        W18601   2.797  44.259   1.279
46254W        W18602   1.357  25.654  10.934
46255W        W18603  36.574  29.608  11.079
46256W        W18604  18.557  35.420  12.396
46257W        W18605  38.482  23.138   3.658
46258W        W18606  38.554  10.711  12.073
46259W        W18607   0.934  14.796   4.619
46260W        W18608   0.309  24.022  12.078
46261W        W18609  36.890  30.067  11.434
46262W        W18610   0.306  35.486   2.737
46263W        W18611  30.139   7.897   2.839
46264W        W18612  43.982   6.901   0.368
46265W        W18613  21.234  33.482   3.344
46266W        W18614   4.843  39.501   4.134
46267W        W18615  15.749   5.823  12.958
46268W        W18616  29.069  21.042  12.536
46269W        W18617  42.400  16.629   3.191
46270W        W18618   4.933  17.789   3.796
46271W        W18619   2.945  30.932  10.422
46272W        W18620   3.768   8.717  11.886
46273W        W18621   0.806  41.503  10.513
46274W        W18622  34.371  36.525   0.445
46275W        W18623  34.120  31.633  11.124
46276W        W18624  32.598   4.939  12.342
46277W        W18625   8.376  10.175  14.972
46278W        W18626  32.030  17.798   3.870
46279W        W18627   6.228  43.812   3.182
46280W        W18628  41.836   0.480  14.510
46281W        W18629  41.848  34.992  10.644
46282W        W18630   3.811  16.653   0.327
46283W        W18631  42.441  38.938  14.954
46284W        W18632  32.636  39.496  12.027
46285W        W18633  26.669  34.064   4.354
46286W        W18634  37.396  14.340   4.783
46287W        W18635  19.046  43.874   0.964
46288W        W18636   5.242   5.794  14.439
46289W        W18637  20.225  10.854  11.994
46290W        W18638  14.206   1.305  10.433
46291W        W18639  30.935  32.496   1.846
46292W        W18640  16.712  33.539   1.872
46293W        W18641   5.697  39.863  12.511
46294W        W18642  21.234  32.534  12.080
46295W        W18643   2.431  15.597   0.732
46296W        W18644  34.893  13.116  13.000
46297W        W18645  43.962  14.309  13.800
46298W        W18646  12.703  41.003  11.109
46299W        W18647  43.481  12.192  12.429
46300W        W18648  10.848  35.506   0.426
46301W        W18649  25.151  38.850   0.285
46302W        W18650  16.261  30.076  12.842
46303W        W18651  37.548  12.802  14.432
46304W        W18652  41.505  40.920  10.434
46305W        W18653   0.861  26.051   0.338
46306W        W18654  25.169  25.667  10.575
46307W        W18655  22.641  37.018   2.829
46308W        W18656  15.814  28.979   4.630
46309W        W18657  34.928  32.466  13.371
46310W        W18658  10.149  27.196  13.469
46311W        W18659  31.135   1.447   0.967
46312W        W18660  29.556   6.258  14.026
46313W        W18661  20.220  10.644  14.499
46314W        W18662  27.492  37.367   2.772
46315W        W18663  11.347  30.540   2.332
46316W        W18664  27.012  41.828  13.995
46317W        W18665  39.031  25.087  10.089
46318W        W18666  21.600   5.357  13.381
46319W        W18667  16.678   5.369   0.824
46320W        W18668  42.030  36.931   1.350
46321W        W18669  23.183   7.332  10.898
46322W        W18670  33.029   6.893   3.163
46323W        W18671  20.173  40.829  11.515
46324W        W18672  37.024  12.287   0.765
46325W        W18673  13.630  29.057   1.881
46326W        W18674  16.781  14.691  12.536
46327W        W18675  39.810  13.754   4.817
46328W        W18676  25.692  36.864   1.220
46329W        W18677  41.525  25.557  14.896
46330W        W18678  27.691   9.224  10.470
46331W        W18679  13.205  41.847  13.056
46332W        W18680  29.548  21.520  10.554
46333W        W18681   0.406  28.513   1.839
46334W        W18682  26.101   1.892  11.074
46335W        W18683  15.791  42.468  14.975
46336W        W18684  32.479   1.307  12.944
46337W        W18685  39.341  18.171  11.456
46338W        W18686  21.128  21.574   2.878
46339W        W18687  30.153  26.515  12.546
46340W        W18688  36.379  21.184  10.027
46341W        W18689   8.723  31.996   4.637
46342W        W18690  35.997  37.907  14.011
46343W        W18691  37.351   7.886   3.337
46344W        W18692  21.612  33.449  13.466
46345W        W18693  44.493  13.844  11.087
46346W        W18694  24.078   4.904  10.050
46347W        W18695  26.048   5.701  11.536
46348W        W18696   8.800  16.684  13.031
46349W        W18697  43.928  24.208  13.933
46350W        W18698  23.670  11.262  11.480
46351W        W18699   5.408  25.989  13.816
46352W        W18700   0.365  12.201  13.840
46353W        W18701   5.326  44.439  14.366
46354W        W18702  29.448  32.081   4.339
46355W        W18703  43.390  40.833  13.953
46356W        W18704  44.456  16.703   9.943
46357W        W18705  19.167   7.178  14.421
46358W        W18706  29.998  21.035   0.758
46359W        W18707  36.593  33.097   1.711
46360W        W18708  15.706   7.679  12.402
46361W        W18709  36.368  18.744  13.875
46362W        W18710  42.919  23.592   1.251
46363W        W18711  12.269  36.421   1.417
46364W        W18712  23.017  12.666   4.700
46365W        W18713  35.855  36.063  14.282
46366W        W18714  39.019  12.178  12.428
46367W        W18715  21.715   3.896   0.455
46368W        W18716  43.812  23.999   3.657
46369W        W18717  32.928  36.434  14.972
46370W        W18718  41.813  42.424   3.728
46371W        W18719  30.645  34.450  10.596
46372W        W18720  18.575   1.777   4.806
46373W        W18721  39.360  21.109   3.708
46374W        W18722  14.756  13.276  10.602
46375W        W18723  32.521  41.402  13.463
46376W        W18724  29.620   5.689  14.453
46377W        W18725  20.223  43.954   0.405
46378W        W18726  43.929  37.008   2.746
46379W        W18727   0.374  27.526   3.313
46380W        W18728  21.125  22.187   3.193
46381W        W18729  35.066   6.288  14.939
46382W        W18730  18.682  23.553  13.026
46383W        W18731  27.977  29.567  13.847
46384W        W18732   2.945   4.783   0.800
46385W        W18733  28.176  18.784   4.181
46386W        W18734   8.687  30.463  14.807
46387W        W18735  13.832   6.729   2.362
46388W        W18736  11.766  14.258   1.715
46389W        W18737  27.178   4.905   4.341
46390W        W18738  38.499   9.728   2.713
46391W        W18739  42.951  32.935  12.054
46392W        W18740  27.163  22.537   1.210
46393W        W18741  11.703   2.959   4.628
46394W        W18742  18.625  34.999   1.442
46395W        W18743  22.620   0.400  14.485
46396W        W18744  28.946   3.358  14.921
46397W        W18745  24.547  36.544   3.265
46398W        W18746  36.039  12.259  10.640
46399W        W18747  25.058  34.581   1.722
46400W        W18748  17.185  41.428  12.974
46401W        W18749  21.204   5.264   4.796
46402W        W18750   7.183  16.125   4.673
46403W        W18751  44.282  26.086  12.555
46404W        W18752  15.586  35.870   3.724
46405W        W18753   6.195  24.144   0.441
46406W        W18754  25.533  44.755   3.147
46407W        W18755  27.021   9.662  13.859
46408W        W18756  42.958   3.876   0.281
46409W        W18757  40.830  37.905   4.138
46410W        W18758  13.118  10.354  13.961
46411W        W18759  34.013  27.004   0.261
46412W        W18760  12.706  43.296  13.954
46413W        W18761  43.458  26.546   2.338
46414W        W18762  10.823  44.964   3.333
46415W        W18763  44.816   8.368  13.433
46416W        W18764  12.646  31.099  12.495
46417W        W18765   3.767   2.882   2.720
46418W        W18766   1.446  33.468  12.825
46419W        W18767  27.642  22.192  12.500
46420W        W18768  35.473  25.473  10.500
46421W        W18769  15.318   3.232   4.802
46422W        W18770  41.479  26.077   3.808
46423W        W18771  27.487  22.635   2.375
46424W        W18772  21.692  13.123   2.237
46425W        W18773   4.751   4.216   4.184
46426W        W18774  28.439  32.904  11.919
46427W        W18775   9.812  23.659   2.730
46428W        W18776  34.419  10.792   2.875
46429W        W18777   2.248  21.620  11.511
46430W        W18778   6.813  26.201   4.597
46431W        W18779  19.708   4.868   3.726
46432W        W18780  42.872   1.769  10.569
46433W        W18781  39.001   7.216  11.030
46434W        W18782  37.001  15.665   3.811
46435W        W18783  36.075  23.143  11.474
46436W        W18784  25.483  17.175   3.245
46437W        W18785  33.528   3.799  13.871
46438W        W18786  25.571  24.704   4.296
46439W        W18787  40.484  17.666   0.745
46440W        W18788  23.067  14.771  12.885
46441W        W18789   7.839  44.497   4.766
46442W        W18790  19.599  26.489  11.045
46443W        W18791   7.762  39.466  10.599
46444W        W18792   0.821  24.139  12.492
46445W        W18793   5.853  35.065   0.864
46446W        W18794  25.212   0.329   1.869
46447W        W18795   7.320  25.618  13.932
46448W        W18796  26.098  19.721  11.446
46449W        W18797  27.584   4.234   4.283
46450W        W18798  14.117  29.024   4.616
46451W        W18799   8.797  10.351  13.962
46452W        W18800  22.540  14.333  11.395
46453W        W18801  16.643  29.068   4.306
46454W        W18802  33.468  27.484   3.851
46455W        W18803  31.983  44.472  13.020
46456W        W18804  26.492  36.090  13.889
46457W        W18805  43.809  31.985  14.314
46458W        W18806  34.955   9.158   0.383
46459W        W18807  14.676  18.228   2.387
46460W        W18808  27.602  28.648  13.515
46461W        W18809  20.679   0.466  10.965
46462W        W18810  36.479  35.879  12.924
46463W        W18811   2.381  15.714  11.497
46464W        W18812   6.316  42.419  13.471
46465W        W18813  17.702   0.386   2.884
46466W        W18814  40.883  32.483  11.127
46467W        W18815  15.695  25.569   4.268
46468W        W18816  22.999  10.641   2.368
46469W        W18817  43.307   1.756   2.672
46470W        W18818  37.373   9.307   0.307
46471W        W18819  22.611  27.968  13.475
46472W        W18820   8.870  24.111   2.245
46473W        W18821  17.588  20.268  13.001
46474W        W18822  40.881  30.103   1.812
46475W        W18823  26.067  17.705  13.539
46476W        W18824   6.349  14.240   9.932
46477W        W18825  20.638  12.635  12.908
46478W        W18826  13.220  18.581  14.383
46479W        W18827  23.190  11.815  12.007
46480W        W18828   3.288  42.795   3.825
46481W        W18829   8.816  29.662   2.403
46482W        W18830   1.910  23.131   3.732
46483W        W18831   2.752   6.868  14.826
46484W        W18832  17.181  14.787   1.428
46485W        W18833  36.539   3.769  11.488
46486W        W18834  43.495  31.928   1.426
46487W        W18835   7.313  32.893  10.136
46488W        W18836  15.164  41.858   4.128
46489W        W18837   2.255  23.152   4.620
46490W        W18838  40.427  39.892  11.863
46491W        W18839  37.033   1.754   1.270
46492W        W18840  12.628   7.829  11.927
46493W        W18841  34.993  13.272   0.444
46494W        W18842  39.453   4.812   3.701
46495W        W18843   0.306   6.893  14.500
46496W        W18844  29.659  43.467   4.206
46497W        W18845  34.560  13.259   4.610
46498W        W18846  31.476  24.984   4.787
46499W        W18847  25.601   3.927   0.852
46500W        W18848   0.742  33.936   2.359
46501W        W18849  23.686  31.136   0.422
46502W        W18850  14.749  17.149   2.200
46503W        W18851  30.945   2.330   1.820
46504W        W18852  28.458  18.757  12.953
46505W        W18853  13.266   2.848  12.908
46506W        W18854  22.193  30.999  14.776
46507W        W18855  22.630  41.509   0.436
46508W        W18856  12.341  44.487  10.925
46509W        W18857  22.222   0.832  13.959
46510W        W18858  33.518  13.145   2.880
46511W        W18859  37.361   3.917   1.833
46512W        W18860  32.012  12.347   3.842
46513W        W18861   5.375  36.551   1.923
46514W        W18862   1.237   8.255  10.408
46515W        W18863  40.973   9.728  10.559
46516W        W18864  40.395   6.798  12.908
46517W        W18865  33.403  37.029   2.693
46518W        W18866  44.756   3.395   0.479
46519W        W18867  39.056  19.555  11.915
46520W        W18868  24.074   3.922   3.265
46521W        W18869  23.495  19.253   3.842
46522W        W18870  25.218  13.741   4.348
46523W        W18871  39.535  12.241  13.965
46524W        W18872   3.253   4.750   5.213
46525W        W18873  15.277   0.462   1.886
46526W        W18874  31.896  20.670   4.201
46527W        W18875   7.255  15.748   3.146
46528W        W18876  39.352  35.015   2.252
46529W        W18877   6.870  13.147  10.944
46530W        W18878  32.562   5.823  13.902
46531W        W18879  43.335  39.320  10.615
46532W        W18880  12.274  40.039   0.933
46533W        W18881  25.566  42.382  13.884
46534W        W18882  28.087  21.593  10.966
46535W        W18883  27.064  13.168   4.618
46536W        W18884  34.556  32.424   2.679
46537W        W18885  22.232  12.287  12.948
46538W        W18886  24.070  30.958  11.439
46539W        W18887  23.673  12.135   4.776
46540W        W18888  40.874  31.131   2.831
46541W        W18889  22.045  36.500   3.716
46542W        W18890  16.781  25.568  14.027
46543W        W18891  28.600  36.014  11.907
46544W        W18892  44.000  41.406   2.221
46545W        W18893  42.915  10.188   5.249
46546W        W18894   9.699  22.054   2.349
46547W        W18895  17.125   6.857   1.932
46548W        W18896  21.748  17.675   0.826
46549W        W18897  30.045  43.329   2.363
46550W        W18898  22.695  28.938  14.808
46551W        W18899   9.284  40.826   2.345
46552W        W18900  34.084  10.154   0.960
46553W        W18901  28.526  19.104   4.703
46554W        W18902   2.280   3.765   0.734
46555W        W18903   5.856  34.375   1.365
46556W        W18904   5.308  10.268  12.485
46557W        W18905  35.376  41.951   1.794
46558W        W18906  31.970   5.711   5.717
46559W        W18907  11.631  43.432   3.753
46560W        W18908  13.177  37.913   3.304
46561W        W18909  29.060  20.129   1.278
46562W        W18910  11.201   9.775   0.431
46563W        W18911  20.705  16.293  13.860
46564W        W18912  43.910  42.942  12.032
46565W        W18913  44.443  37.387  14.342
46566W        W18914  41.335  37.892   0.726
46567W        W18915   9.242  32.401  11.953
46568W        W18916  13.788  26.634   1.244
46569W        W18917  20.757  42.445  13.347
46570W        W18918  33.029  43.769  12.994
46571W        W18919  40.866  41.447  12.991
46572W        W18920   1.277  37.035  10.421
46573W        W18921  13.175  38.538   1.385
46574W        W18922  31.614  19.091  12.397
46575W        W18923  43.308   0.849  13.850
46576W        W18924  23.555  10.191   4.142
46577W        W18925  44.859  22.236   3.248
46578W        W18926  36.379  39.539  11.609
46579W        W18927  24.688  22.570  13.000
46580W        W18928  21.263  42.904  12.579
46581W        W18929  12.322  38.374  12.987
46582W        W18930  21.576  12.668  11.117
46583W        W18931  18.207  13.136   2.722
46584W        W18932  22.652  34.964   1.241
46585W        W18933   6.326  32.067   4.767
46586W        W18934   9.213  10.322  13.962
46587W        W18935   4.759  11.339   2.690
46588W        W18936  11.258  38.823   2.711
46589W        W18937  41.833  14.813  10.913
46590W        W18938   4.810   8.382  13.046
46591W        W18939  39.820  27.615   4.734
46592W        W18940  31.625  19.752   0.278
46593W        W18941  39.471  34.610   3.237
46594W        W18942  34.108  40.548  11.055
46595W        W18943  22.699  40.307   3.771
46596W        W18944   1.911  17.622   1.286
46597W        W18945  42.312  30.605  10.511
46598W        W18946  32.084  32.549  10.594
46599W        W18947  34.524   7.672  14.418
46600W        W18948  25.504  37.476   2.352
46601W        W18949   9.702  33.018   5.648
46602W        W18950  17.782  23.021  10.544
46603W        W18951   7.317  38.521  12.385
46604W        W18952  40.306  29.059  10.498
46605W        W18953  31.475  14.642  11.935
46606W        W18954   9.386  26.014  14.431
46607W        W18955   2.722  27.164  10.610
46608W        W18956  12.646  22.642   3.765
46609W        W18957  44.769  21.578  12.532
46610W        W18958  28.099  36.035   1.422
46611W        W18959  29.966  13.844   2.819
46612W        W18960   7.189  35.911  12.547
46613W        W18961  24.711  28.567   1.907
46614W        W18962  44.398  44.463  10.968
46615W        W18963   2.770   7.698  13.448
46616W        W18964   2.390  41.529   0.361
46617W        W18965  25.578  14.797  12.045
46618W        W18966   7.760  39.510   1.385
46619W        W18967  31.520   7.187  13.834
46620W        W18968  19.599  37.477   0.807
46621W        W18969  21.232  20.252   4.340
46622W        W18970   8.779  43.944   3.278
46623W        W18971  24.692   0.380  14.411
46624W        W18972   9.875  25.594   4.756
46625W        W18973  44.758   4.295  12.432
46626W        W18974  15.633  25.633  10.950
46627W        W18975  12.613  37.539  13.351
46628W        W18976  30.924  33.989   0.301
46629W        W18977  21.231   6.882   2.256
46630W        W18978   5.875  39.359  12.500
46631W        W18979  32.996  18.660  14.030
46632W        W18980  22.093  15.760  13.495
46633W        W18981  33.610   8.675   5.114
46634W        W18982   5.764  21.586  13.326
46635W        W18983   1.343  40.810  14.437
46636W        W18984  10.753   8.828  11.868
46637W        W18985   2.424  41.466   1.219
46638W        W18986  17.561  12.842   3.236
46639W        W18987   2.938   9.215  11.583
46640W        W18988  20.579  25.988   3.273
46641W        W18989   5.781  33.608  13.515
46642W        W18990   6.295   7.304   2.749
46643W        W18991   4.895   1.731   3.868
46644W        W18992  23.690  19.699  14.381
46645W        W18993  16.125  22.688  12.383
46646W        W18994  10.234   9.840  12.941
46647W        W18995  33.510   0.933  11.941
46648W        W18996  19.750  41.468  14.883
46649W        W18997  43.428  16.572   2.756
46650W        W18998   3.780   5.693   3.668
46651W        W18999  10.684  36.401   3.379
46652W        W19000   9.727  20.582   0.893
46653W        W19001   4.769  10.351  10.940
46654W        W19002   2.458  17.571   2.256
46655W        W19003   1.265  42.776  10.639
46656W        W19004   9.204  20.125  11.028
46657W        W19005  24.039  30.922  14.512
46658W        W19006  28.954  23.676   1.823
46659W        W19007  13.757  16.125  14.481
46660W        W19008  41.502  13.164   4.181
46661W        W19009  11.232  14.300  13.970
46662W        W19010  32.914  39.953  11.464
46663W        W19011  35.887   6.749  11.039
46664W        W19012  16.716   9.188  11.067
46665W        W19013  19.568  24.567   4.267
46666W        W19014   6.875   7.326  11.958
46667W        W19015  30.098  27.605   0.469
46668W        W19016  13.631  14.728  12.512
46669W        W19017  43.014   1.861  13.055
46670W        W19018  13.351   8.327   4.830
46671W        W19019   7.387  33.095   9.671
46672W        W19020  16.302   5.890  14.921
46673W        W19021  42.001  34.099   4.698
46674W        W19022  19.655  25.010   4.795
46675W        W19023  18.609  30.154  13.369
46676W        W19024  13.819   9.753  13.391
46677W        W19025  24.605  31.628   3.193
46678W        W19026  34.945  27.160   2.377
46679W        W19027  35.073  36.860   4.792
46680W        W19028  33.010  43.876  13.425
46681W        W19029   7.335   2.356  14.850
46682W        W19030  30.911  14.150   3.261
46683W        W19031  24.612  29.920  14.319
46684W        W19032   9.317  27.629  12.994
46685W        W19033  37.424  38.995   2.358
46686W        W19034   0.763  23.092   4.145
46687W        W19035   9.669   0.870   3.274
46688W        W19036  13.689  13.618  12.950
46689W        W19037  27.476  32.117  13.536
46690W        W19038  43.950  37.434  10.551
46691W        W19039  34.463  43.766   2.849
46692W        W19040   9.720  22.007  11.550
46693W        W19041   1.920   7.755  11.887
46694W        W19042  13.822   8.208   2.699
46695W        W19043  43.826   2.887  12.411
46696W        W19044  13.733  32.423   1.394
46697W        W19045  33.499  25.991  10.511
46698W        W19046   2.914  26.481  14.293
46699W        W19047   8.711  26.998   0.824
46700W        W19048  33.574  32.418  13.016
46701W        W19049  19.189  31.431   5.631
46702W        W19050  13.172  39.031   1.225
46703W        W19051  11.717  14.179   3.359
46704W        W19052  36.550   4.339   9.511
46705W        W19053   9.208  21.039   0.397
46706W        W19054  34.403  14.765  11.883
46707W        W19055   2.893  10.295  13.950
46708W        W19056  19.602  43.936  12.389
46709W        W19057  28.529  15.727   3.313
46710W        W19058   0.483   2.376   2.403
46711W        W19059  43.509  27.643   4.154
46712W        W19060   0.258  32.600  12.345
46713W        W19061  28.545  42.495  14.516
46714W        W19062   9.328   2.789   2.382
46715W        W19063  16.280  29.068   0.838
46716W        W19064  12.851  19.060   2.382
46717W        W19065  33.099  12.642  10.473
46718W        W19066  29.924  14.112   0.319
46719W        W19067  36.971  33.026   4.631
46720W        W19068  21.737  31.631   5.690
46721W        W19069  13.810  34.426   0.273
46722W        W19070   6.329   1.747   4.664
46723W        W19071  43.454  29.604  13.382
46724W        W19072  36.086  24.571  13.977
46725W        W19073  36.061  31.979   1.750
46726W        W19074  14.715  24.098  12.034
46727W        W19075   9.274  25.198   1.374
46728W        W19076  30.980   4.825  10.605
46729W        W19077  16.201  36.883  10.408
46730W        W19078  18.746  32.442  11.089
46731W        W19079  26.698  44.435   1.248
46732W        W19080  13.184  44.938  12.882
46733W        W19081  39.542   0.795  12.070
46734W        W19082  29.953   4.447  13.060
46735W        W19083  35.904  13.241   3.254
46736W        W19084  31.098  19.113  14.865
46737W        W19085  41.880   0.468  12.027
46738W        W19086   1.918  32.536   3.779
46739W        W19087  42.883  31.545   3.653
46740W        W19088  34.916  37.485  14.024
46741W        W19089  33.059  21.081   3.146
46742W        W19090  37.387  40.326   2.311
46743W        W19091  11.199  31.621   3.352
46744W        W19092  43.475   6.917   1.801
46745W        W19093   7.368  16.185   2.788
46746W        W19094  16.661  27.031   2.295
46747W        W19095  32.574  16.736  14.010
46748W        W19096  37.573   9.304   2.820
46749W        W19097  28.554  20.250   3.227
46750W        W19098  35.539  36.508  10.626
46751W        W19099  36.575  23.652   0.745
46752W        W19100  20.660  17.638  11.504
46753W        W19101  36.440  17.248  14.896
46754W        W19102  40.959  29.171  12.468
46755W        W19103  22.686  11.233  10.529
46756W        W19104  26.961  38.405  12.524
46757W        W19105  15.141  26.581  12.552
46758W        W19106  15.151  14.708   4.719
46759W        W19107  40.014  11.667   2.238
46760W        W19108  44.356  18.090  10.990
46761W        W19109  35.988  32.999   0.872
46762W        W19110  17.696  16.209   0.942
46763W        W19111  31.422   6.227   0.381
46764W        W19112  38.441   3.767   3.321
46765W        W19113  17.224  23.178   0.450
46766W        W19114  14.102  42.018   3.207
46767W        W19115  39.532  10.236  10.022
46768W        W19116  38.424  32.471   4.148
46769W        W19117  44.482  29.087   1.253
46770W        W19118   3.745   2.910  10.503
46771W        W19119  37.016  23.047   0.253
46772W        W19120  27.958  14.206   2.347
46773W        W19121  22.014  40.523   2.299
46774W        W19122  16.131  36.947  11.402
46775W        W19123   9.355   0.955  11.524
46776W        W19124  29.625  22.511   3.368
46777W        W19125  35.378  17.222  11.403
46778W        W19126  36.020  40.454   5.181
46779W        W19127  10.200  16.130   0.470
46780W        W19128   4.771   4.710   3.783
46781W        W19129  15.242  12.294   4.127
46782W        W19130   6.683   2.272   1.290
46783W        W19131  28.574  21.263  10.479
46784W        W19132  13.140   4.347  13.460
46785W        W19133  44.442  35.012  13.321
46786W        W19134   6.918  34.552  13.926
46787W        W19135  32.980  19.717   3.275
46788W        W19136  39.911  36.009  11.424
46789W        W19137  27.545  23.191  10.500
46790W        W19138  40.974  21.583  13.868
46791W        W19139  32.502  11.345  10.613
46792W        W19140  40.958   0.354   3.304
46793W        W19141  39.330   2.775   3.269
46794W        W19142  29.067  33.397   1.290
46795W        W19143  26.511  36.928   0.899
46796W        W19144  22.528  42.023   0.284
46797W        W19145  36.981  16.105  14.783
46798W        W19146  17.270  10.222  13.963
46799W        W19147  40.000  25.654   3.148
46800W        W19148  18.697  27.021   0.829
46801W        W19149  12.835  43.475  14.390
46802W        W19150   6.324  27.178  13.884
46803W        W19151   2.401  20.658  14.960
46804W        W19152  17.760  24.699  12.418
46805W        W19153  40.870  44.504   1.301
46806W        W19154  44.980  32.034   0.307
46807W        W19155  19.099   8.844  13.898
46808W        W19156  29.591  37.858  12.989
46809W        W19157  28.515  16.701   0.883
46810W        W19158  18.763  13.189   0.449
46811W        W19159   0.301  16.083  11.972
46812W        W19160  16.597  27.577   3.757
46813W        W19161  40.537   6.383   2.892
46814W        W19162  21.693   8.165  13.011
46815W        W19163   3.732   0.769  10.990
46816W        W19164   7.793  10.210  10.890
46817W        W19165  33.899  15.643   1.362
46818W        W19166   4.921  17.641  12.859
46819W        W19167  44.777  12.240  10.416
46820W        W19168  27.446  11.762   1.298
46821W        W19169  18.702  16.571  11.007
46822W        W19170   5.718  35.965   1.846
46823W        W19171  43.889   8.329   0.393
46824W        W19172  39.557  34.086  12.966
46825W        W19173  14.761   2.814   2.823
46826W        W19174  38.996  33.038  10.020
46827W        W19175  39.850  33.096  13.906
46828W        W19176  44.292  14.648  10.443
46829W        W19177  20.658  25.623  14.386
46830W        W19178  26.021  13.814   2.694
46831W        W19179  31.610   8.161   1.894
46832W        W19180  33.016  42.829   5.271
46833W        W19181  22.014   4.868   0.762
46834W        W19182  34.565   9.686  13.867
46835W        W19183  37.570  10.341   3.318
46836W        W19184  43.467  40.544   2.768
46837W        W19185  15.578   0.328  11.094
46838W        W19186  38.548   2.804   3.241
46839W        W19187  23.010  24.025   3.673
46840W        W19188   7.182  34.036   1.836
46841W        W19189  33.409  36.371  10.517
46842W        W19190   6.883  36.368  13.878
46843W        W19191   8.846  22.051  12.081
46844W        W19192  40.390  35.592   4.730
46845W        W19193  26.983  15.595   4.601
46846W        W19194  38.919  16.804  12.971
46847W        W19195   8.668   2.943   4.215
46848W        W19196  41.003   1.255   1.903
46849W        W19197  18.628   4.359   3.336
46850W        W19198  15.093  41.523   3.749
46851W        W19199  17.681  17.274   3.365
46852W        W19200  41.352  23.035   3.768
46853W        W19201  29.152  31.940   5.237
46854W        W19202  35.988  18.605  13.949
46855W        W19203   0.788  40.307  10.618
46856W        W19204  15.662   7.176   4.343
46857W        W19205  39.008  23.502  14.961
46858W        W19206   3.215  33.589   1.256
46859W        W19207  32.609  19.574  10.929
46860W        W19208  32.940  15.796  11.514
46861W        W19209  42.449  44.465   2.782
46862W        W19210  42.475   3.427   1.890
46863W        W19211  29.580  31.593   4.816
46864W        W19212  23.110  41.843   2.827
46865W        W19213  33.410  24.571  12.405
46866W        W19214  32.393  11.639   2.843
46867W        W19215  28.070  34.383   5.192
46868W        W19216   7.722   5.436   1.450
46869W        W19217  18.244  35.857   0.376
46870W        W19218  30.544   8.387   3.271
46871W        W19219  10.797  16.269  11.958
46872W        W19220   4.752  41.455   0.749
46873W        W19221  15.194  42.007  10.562
46874W        W19222  15.304  38.437   1.426
46875W        W19223  19.066   7.386   3.687
46876W        W19224  22.222  27.614  14.839
46877W        W19225   7.816   7.890  12.502
46878W        W19226  11.621   7.342  13.322
46879W        W19227   2.732  22.563   1.217
46880W        W19228  17.284  16.608   2.202
46881W        W19229  13.763   8.326  10.518
46882W        W19230   8.357   0.362   2.178
46883W        W19231  43.306  35.548  12.042
46884W        W19232  22.209   2.750   1.787
46885W        W19233   7.873   3.831  14.909
46886W        W19234  37.546   7.276   2.809
46887W        W19235  34.953  24.195   0.451
46888W        W19236  23.720   7.688  13.508
46889W        W19237  42.792   0.311   1.921
46890W        W19238  29.004  24.723   1.251
46891W        W19239  32.423  36.496  10.997
46892W        W19240  19.579  44.344   9.959
46893W        W19241  42.881  10.253   0.300
46894W        W19242  30.521  14.616  11.087
46895W        W19243  18.785  44.798   3.693
46896W        W19244  17.603   2.341   4.673
46897W        W19245  35.893   4.893   3.821
46898W        W19246  15.215   0.448  13.313
46899W        W19247  41.018   7.339  12.907
46900W        W19248   9.677   8.676   0.441
46901W        W19249   3.863  14.239   1.723
46902W        W19250  40.923  27.152  14.354
46903W        W19251  26.642  18.646   2.664
46904W        W19252   7.670  17.068   0.475
46905W        W19253  28.934  44.284   4.598
46906W        W19254  19.182  32.536  12.861
46907W        W19255  35.366  41.452   1.809
46908W        W19256  28.634  37.882  11.855
46909W        W19257  32.587  10.817  11.902
46910W        W19258   9.193  35.512  12.365
46911W        W19259  10.320  43.787   1.286
46912W        W19260  15.721  33.486   0.914
46913W        W19261   2.406   2.326  13.354
46914W        W19262  44.274   0.757  11.410
46915W        W19263  27.158  24.485   1.725
46916W        W19264   2.830  21.169  12.397
46917W        W19265   3.817  44.343   4.615
46918W        W19266  28.506  11.840  12.453
46919W        W19267  19.179  30.492   1.854
46920W        W19268  15.815  11.301  12.045
46921W        W19269  32.978   1.767  12.987
46922W        W19270  14.242  14.741   2.841
46923W        W19271   8.692  42.332   0.756
46924W        W19272  19.750  38.553   3.303
46925W        W19273  17.562  22.129   3.361
46926W        W19274  35.870  34.070   3.201
46927W        W19275  31.513  27.141  12.089
46928W        W19276  22.245  23.611  12.496
46929W        W19277  28.064  13.611   2.371
46930W        W19278  37.491  30.110   0.328
46931W        W19279  10.383  11.137   1.787
46932W        W19280  20.592   1.456   1.906
46933W        W19281  30.128  30.911   0.470
46934W        W19282   4.921  13.805   0.449
46935W        W19283  18.555  14.683   4.736
46936W        W19284  39.946   6.308  12.079
46937W        W19285  40.946  10.639  14.437
46938W        W19286  19.780  36.355   3.835
46939W        W19287  39.845  36.897  10.915
46940W        W19288   6.186  22.712   9.924
46941W        W19289   4.786  26.091  12.880
46942W        W19290  18.122  31.487  13.817
46943W        W19291   3.345  19.557  11.961
46944W        W19292  41.799   3.452   4.188
46945W        W19293  28.077  42.285  11.399
46946W        W19294  42.863   1.264  10.504
46947W        W19295  18.699  39.494  10.962
46948W        W19296   6.340  17.109   2.751
46949W        W19297  10.371  30.609   0.411
46950W        W19298  30.054   8.869  14.282
46951W        W19299  36.978   9.706  12.525
46952W        W19300  12.170  17.158  11.937
46953W        W19301  21.132  12.809  14.776
46954W        W19302  25.660   3.411   0.274
46955W        W19303  16.180  39.028  12.022
46956W        W19304  30.501   8.756   0.764
46957W        W19305  33.038   0.915  10.620
46958W        W19306  42.430  33.882   2.731
46959W        W19307  25.687  42.364   2.901
46960W        W19308  25.074  36.094  12.924
46961W        W19309   1.760  38.824   1.761
46962W        W19310  24.067   6.868   5.178
46963W        W19311  40.485   6.802  14.423
46964W        W19312  31.561  39.385   1.248
46965W        W19313  24.119  42.816  10.484
46966W        W19314  15.196  42.859   3.750
46967W        W19315  40.353   8.184  12.937
46968W        W19316  42.886   7.763  11.568
46969W        W19317  23.155  29.085  13.919
46970W        W19318  30.048  19.144  14.363
46971W        W19319  32.941  24.225   2.690
46972W        W19320   7.397  31.985   1.743
46973W        W19321  27.636  19.661   1.400
46974W        W19322  12.774  22.059   4.754
46975W        W19323  18.210  32.487   1.703
46976W        W19324  31.569  24.129  12.497
46977W        W19325  21.189  23.184   1.243
46978W        W19326  12.706  44.267  12.933
46979W        W19327  13.243  36.489   2.699
46980W        W19328  40.353   7.871   2.899
46981W        W19329  14.201  16.570   1.898
46982W        W19330  31.479   8.172   9.539
46983W        W19331  10.660  38.425   2.874
46984W        W19332  26.558  31.030   4.264
46985W        W19333  35.500  12.290   2.271
46986W        W19334  18.684  27.146  12.518
46987W        W19335  44.262  24.714   1.849
46988W        W19336  15.149   7.361   2.191
46989W        W19337  21.708  35.977  12.452
46990W        W19338  43.859  38.904   0.800
46991W        W19339  44.287  44.854  14.997
46992W        W19340  22.666  27.980   5.082
46993W        W19341  24.616  28.081  13.989
46994W        W19342  13.225  10.640  13.479
46995W        W19343   5.884   6.838   3.642
46996W        W19344  27.593   5.781  14.893
46997W        W19345  30.511  44.983   0.730
46998W        W19346  35.426  37.879  14.948
46999W        W19347  31.065   9.219  14.303
47000W        W19348  14.710  17.251  11.568
47001W        W19349  35.437  24.000   4.764
47002W        W19350  28.476   6.876  14.924
47003W        W19351  35.901  29.460  11.413
47004W        W19352  13.257  39.010  11.476
47005W        W19353  24.623  38.494  13.036
47006W        W19354  25.194   6.720  10.404
47007W        W19355  27.558   5.848   2.662
47008W        W19356  24.529  26.659   1.837
47009W        W19357  34.948  37.418  11.002
47010W        W19358  25.169  35.063   2.833
47011W        W19359  26.062  20.528  11.430
47012W        W19360   2.820  14.665  13.891
47013W        W19361  25.098  39.458   1.768
47014W        W19362  14.704  23.506  12.488
47015W        W19363  28.618  36.079  12.846
47016W        W19364  40.376   6.419   1.826
47017W        W19365  35.873  28.573  13.516
47018W        W19366  33.382   1.823  13.392
47019W        W19367   7.402  39.441   3.381
47020W        W19368  35.035  10.280  10.946
47021W        W19369   9.346  10.200   3.634
47022W        W19370  41.505   6.414  14.452
47023W        W19371  41.029  43.834   1.331
47024W        W19372   9.299  10.777   0.857
47025W        W19373   2.830  19.152  11.569
47026W        W19374  20.260  24.010  13.969
47027W        W19375  18.668  16.700  14.919
47028W        W19376  35.495  28.030   1.737
47029W        W19377  16.156  20.609  10.522
47030W        W19378   8.702  12.761  12.468
47031W        W19379  42.911   6.876   3.204
47032W        W19380  34.072  14.324   4.334
47033W        W19381  43.463  11.814  11.496
47034W        W19382  43.418  16.730  14.420
47035W        W19383   6.267  19.177  13.398
47036W        W19384   0.951  19.677   2.413
47037W        W19385   4.777  36.454   5.263
47038W        W19386  36.529   1.412  14.960
47039W        W19387  42.491   1.787   0.267
47040W        W19388  20.696  42.335  12.447
47041W        W19389  44.374  19.750   0.260
47042W        W19390  27.687  31.560  12.049
47043W        W19391  10.164  24.163   3.238
47044W        W19392  28.584  21.709  11.898
47045W        W19393  14.748  28.435  12.042
47046W        W19394  17.586  25.070  12.406
47047W        W19395  26.963  32.967  14.834
47048W        W19396  24.158  34.088   1.885
47049W        W19397  24.113  39.018  14.494
47050W        W19398  10.743  15.755  13.488
47051W        W19399   0.803  10.646   0.242
47052W        W19400  20.687  14.656  13.421
47053W        W19401  42.948  26.653   2.279
47054W        W19402   7.668  42.857  10.570
47055W        W19403  31.955  38.954   1.927
47056W        W19404  18.742  20.556  11.581
47057W        W19405  35.376  20.239   3.862
47058W        W19406   4.822  28.986  10.031
47059W        W19407  19.197  33.517  13.963
47060W        W19408   3.799  33.571   0.331
47061W        W19409  35.951  42.873   4.813
47062W        W19410  44.380  17.787  14.950
47063W        W19411  37.383  14.213  10.963
47064W        W19412  25.008  20.582   0.464
47065W        W19413  41.857  37.460   5.102
47066W        W19414  18.653   6.712   2.246
47067W        W19415  14.791  21.629   4.272
47068W        W19416   9.847   8.320  13.056
47069W        W19417  35.439  33.917   4.624
47070W        W19418  14.805  15.599   2.869
47071W        W19419  38.543   2.255  13.547
47072W        W19420  35.501   0.941  11.928
47073W        W19421  24.119  29.116   4.271
47074W        W19422  43.483  38.890   2.202
47075W        W19423   5.710  22.519  14.351
47076W        W19424  16.108  21.037   0.423
47077W        W19425  31.520  29.924  13.497
47078W        W19426  32.947  13.220   1.245
47079W        W19427  28.599  23.218  11.041
47080W        W19428   6.682   5.399   4.807
47081W        W19429  29.433   9.723   0.755
47082W        W19430   3.737  35.931   4.232
47083W        W19431  22.683  41.787   2.892
47084W        W19432  28.635  34.500  11.969
47085W        W19433  23.112   9.193   2.773
47086W        W19434  42.471  37.355   3.673
47087W        W19435  38.355   3.924  12.831
47088W        W19436   7.861  31.091   9.492
47089W        W19437  10.837  24.146   4.771
47090W        W19438  18.136   3.385   2.723
47091W        W19439  18.719  18.177  10.032
47092W        W19440  29.974   0.310  13.309
47093W        W19441  15.186  35.559   3.702
47094W        W19442   8.802  39.436  13.985
47095W        W19443   5.739  14.264  11.877
47096W        W19444  10.325  38.382  14.889
47097W        W19445  38.076  28.439   0.371
47098W        W19446  12.736  43.022  12.440
47099W        W19447  10.700  32.940  12.901
47100W        W19448  42.424  40.482  14.418
47101W        W19449  21.599  44.480  13.421
47102W        W19450  15.728  17.791  14.008
47103W        W19451   8.735  38.539  14.279
47104W        W19452  35.027  18.188  11.871
47105W        W19453  22.202  18.659   0.925
47106W        W19454   8.839   2.234   0.822
47107W        W19455  22.708  33.526   0.478
47108W        W19456  35.014  26.015   2.725
47109W        W19457  36.522  43.867  14.459
47110W        W19458  32.626   4.405  14.481
47111W        W19459  13.154   2.376  11.462
47112W        W19460  26.073  41.461  10.475
47113W        W19461  11.817  16.806   0.960
47114W        W19462  10.193  33.071   4.193
47115W        W19463   3.804   9.851   0.242
47116W        W19464  39.002  40.984   1.308
47117W        W19465   3.954  10.279  10.892
47118W        W19466   3.349  26.571   3.190
47119W        W19467   1.915  23.035  11.099
47120W        W19468   9.262  34.021  10.523
47121W        W19469  11.827  30.505   5.123
47122W        W19470   1.772  30.008  12.919
47123W        W19471  24.032  32.034   0.949
47124W        W19472  40.543  16.586   2.706
47125W        W19473  39.036   0.422   4.157
47126W        W19474  10.354  42.856  13.840
47127W        W19475  25.990  28.548  13.813
47128W        W19476   0.460   6.382  10.437
47129W        W19477  36.977  28.467   0.958
47130W        W19478  18.748  23.109   3.639
47131W        W19479  17.252   0.941  14.343
47132W        W19480   3.755  29.584   4.170
47133W        W19481  33.968  11.791   3.189
47134W        W19482  18.742  13.334  12.053
47135W        W19483  38.998  40.048   4.290
47136W        W19484  43.449  22.508  14.420
47137W        W19485  15.112  39.398  14.414
47138W        W19486  43.463  13.675  11.090
47139W        W19487  23.085  10.257  12.847
47140W        W19488  33.381   0.407  11.926
47141W        W19489  40.535   5.817   0.440
47142W        W19490  41.336  17.157  12.528
47143W        W19491  27.638  17.199   3.181
47144W        W19492  35.463  30.454   2.216
47145W        W19493  44.810  17.582   0.412
47146W        W19494  18.207  18.600   3.308
47147W        W19495  31.487  40.347   1.291
47148W        W19496  21.106   5.245  14.849
47149W        W19497   6.291  21.516   1.434
47150W        W19498  22.536  19.623   4.736
47151W        W19499  30.468  42.367  12.052
47152W        W19500   5.856  36.026   3.331
47153W        W19501  30.946  12.314   0.476
47154W        W19502  30.938   9.751   3.632
47155W        W19503  28.948  19.209  12.058
47156W        W19504  34.597  43.350   4.643
47157W        W19505  34.511  42.983   0.271
47158W        W19506  26.974  36.466   0.439
47159W        W19507  42.391  11.687  13.989
47160W        W19508  31.015  12.254  13.848
47161W        W19509   4.867  40.010   1.863
47162W        W19510   4.813  40.545   4.173
47163W        W19511  22.102   0.917  14.481
47164W        W19512  29.437  11.254   1.903
47165W        W19513  44.921  37.841  11.389
47166W        W19514   0.486  18.575   3.268
47167W        W19515  42.895  14.202   2.230
47168W        W19516   0.813  20.523  12.024
47169W        W19517  43.880  18.683  10.989
47170W        W19518  17.079   6.266  14.924
47171W        W19519   6.391  17.225   3.293
47172W        W19520  44.872  38.450  11.116
47173W        W19521  22.524  40.452   4.155
47174W        W19522  14.684  21.595   0.813
47175W        W19523   6.188  35.498  12.339
47176W        W19524  18.288   8.392  14.498
47177W        W19525  40.832   2.350   0.294
47178W        W19526  30.082   3.761   1.845
47179W        W19527  29.624   4.285  13.522
47180W        W19528  43.432  13.691   2.765
47181W        W19529   3.768  21.746  13.889
47182W        W19530  15.118   9.834   4.704
47183W        W19531   3.335  18.782  12.422
47184W        W19532  14.226  37.933  14.325
47185W        W19533  34.907  23.238  12.548
47186W        W19534  25.669  44.386   0.815
47187W        W19535  20.152  44.999   4.322
47188W        W19536  26.123  28.026  14.367
47189W        W19537  16.658  21.100   1.438
47190W        W19538   6.265   6.906  11.857
47191W        W19539   5.922  34.450  12.883
47192W        W19540  34.450  39.941  10.548
47193W        W19541  15.590  29.468   1.298
47194W        W19542  16.148  33.433   0.310
47195W        W19543  33.382  11.737  14.958
47196W        W19544  31.472  40.368   0.383
47197W        W19545  44.994  14.767   3.761
47198W        W19546  31.928   2.768   3.728
47199W        W19547  34.910  30.525  11.452
47200W        W19548  11.152  27.502  11.376
47201W        W19549  43.289   9.666  13.442
47202W        W19550  16.186  26.955  14.397
47203W        W19551  13.187  15.746  10.433
47204W        W19552   2.412  36.443  13.545
47205W        W19553  38.482  42.479  10.971
47206W        W19554  13.640  40.837  11.902
47207W        W19555  28.673  18.276  14.806
47208W        W19556  15.170   6.749   3.777
47209W        W19557  10.384  23.056  12.526
47210W        W19558  38.965  44.781  12.087
47211W        W19559  31.957  17.287  12.486
47212W        W19560   1.887  24.092   1.338
47213W        W19561  21.720  12.190   1.277
47214W        W19562   9.251   1.336   1.741
47215W        W19563   3.245  11.855   0.844
47216W        W19564  39.447  31.442   4.633
47217W        W19565  38.484  13.165   4.311
47218W        W19566  18.224  42.470   1.694
47219W        W19567  26.092   3.400   4.260
47220W        W19568   0.367  10.841  13.878
47221W        W19569  44.438  25.040  11.924
47222W        W19570  20.063  14.778   4.152
47223W        W19571   1.812  20.074  14.839
47224W        W19572   2.404  22.509   3.715
47225W        W19573  39.978  16.620   2.846
47226W        W19574  30.594   6.424  12.955
47227W        W19575  43.813  39.396   3.795
47228W        W19576  12.748  32.467  13.540
47229W        W19577  41.865   8.829  11.953
47230W        W19578   3.461   5.315  14.951
47231W        W19579  26.584   4.213   0.754
47232W        W19580  14.326  39.324   3.681
47233W        W19581  28.477  40.863   4.713
47234W        W19582  33.999  13.309  14.496
47235W        W19583  11.148  43.509   0.429
47236W        W19584  14.312  17.296  11.116
47237W        W19585  29.573  34.938  10.428
47238W        W19586  19.156  25.990  11.016
47239W        W19587  34.400  21.716   2.699
47240W        W19588  12.331  24.123   3.152
47241W        W19589  33.470  24.216  12.860
47242W        W19590  28.081   0.839  12.946
47243W        W19591  26.081   8.164   0.780
47244W        W19592  42.792  17.065  13.543
47245W        W19593  29.495  34.495   0.471
47246W        W19594  36.541   4.770   9.514
47247W        W19595  11.641  34.546  14.965
47248W        W19596  21.135  16.167  12.401
47249W        W19597  21.665  44.310  14.943
47250W        W19598  24.492   2.751   0.742
47251W        W19599  11.250  43.475   4.155
47252W        W19600  11.781   4.720  12.963
47253W        W19601  38.427  12.768   4.674
47254W        W19602  25.171  25.181   4.634
47255W        W19603  34.867  40.437  12.901
47256W        W19604  35.863  42.505  11.561
47257W        W19605   2.794  42.427   1.792
47258W        W19606  27.601  38.344  12.994
47259W        W19607  25.674  26.036  14.772
47260W        W19608  34.107  24.017   4.142
47261W        W19609  34.520  21.231  10.133
47262W        W19610  34.370  32.557   1.298
47263W        W19611   4.336  32.449  12.507
47264W        W19612   6.415  35.077  10.156
47265W        W19613  14.708  30.007   3.694
47266W        W19614  42.789  15.582  12.464
47267W        W19615  40.940   9.719  14.358
47268W        W19616  35.416   9.193   1.363
47269W        W19617  20.530  13.189   0.885
47270W        W19618  33.605  44.390   2.417
47271W        W19619  28.608   3.336  10.974
47272W        W19620   8.255  30.627   1.225
47273W        W19621   5.757  32.976   2.309
47274W        W19622   3.371   9.220   0.729
47275W        W19623  16.195  19.184   3.353
47276W        W19624  25.557   1.882  10.564
47277W        W19625   1.748  16.775   2.849
47278W        W19626   4.262  21.248   3.739
47279W        W19627  15.760  36.923  10.476
47280W        W19628   5.855   5.857  12.839
47281W        W19629  36.478  30.056   3.827
47282W        W19630   1.864  28.016  10.424
47283W        W19631  24.582  26.698  10.944
47284W        W19632  27.574  15.611   1.267
47285W        W19633  11.792   1.284  14.506
47286W        W19634  32.418  17.090  10.082
47287W        W19635  10.249  44.317   4.187
47288W        W19636  12.272  14.830   4.300
47289W        W19637   1.458  29.119  12.380
47290W        W19638  12.211  35.950   0.350
47291W        W19639  41.416  43.322   0.846
47292W        W19640  33.603  21.042   4.170
47293W        W19641  24.079   2.280  11.385
47294W        W19642  19.138  16.127  14.389
47295W        W19643   3.341  32.455   4.789
47296W        W19644  38.403  28.948  13.987
47297W        W19645  38.941  33.012   3.673
47298W        W19646  19.247  20.547  12.851
47299W        W19647  38.385   5.917   1.845
47300W        W19648  41.514  23.992  14.881
47301W        W19649   9.782  10.690  14.793
47302W        W19650   6.850  26.671  10.451
47303W        W19651  42.470  39.941  10.995
47304W        W19652  42.893  19.094   2.382
47305W        W19653  29.460  43.957  11.019
47306W        W19654  43.876  24.714   2.724
47307W        W19655  42.804  37.864   2.297
47308W        W19656  18.584  23.687  13.320
47309W        W19657  21.153  12.349  12.028
47310W        W19658  11.372   9.289   2.230
47311W        W19659   1.254  27.654  13.440
47312W        W19660  16.275  34.612   1.843
47313W        W19661   6.329   4.289   0.930
47314W        W19662  14.225  14.801   3.739
47315W        W19663   2.943  21.227  11.568
47316W        W19664  43.002  28.002   4.119
47317W        W19665  26.626  31.057   0.415
47318W        W19666  21.574  43.440  10.642
47319W        W19667  37.851  15.754   0.898
47320W        W19668   1.804  44.951  12.345
47321W        W19669  41.528   2.818   4.622
47322W        W19670  21.717  12.198  12.065
47323W        W19671   6.296  11.293   2.230
47324W        W19672  11.340  31.126  14.322
47325W        W19673  24.711  42.914  11.523
47326W        W19674  28.939   6.369  13.014
47327W        W19675  13.109   9.718   0.901
47328W        W19676  13.731   2.397   3.235
47329W        W19677  25.055  25.561  13.991
47330W        W19678  24.603  17.167   0.874
47331W        W19679   0.864   9.697   3.288
47332W        W19680  44.454  23.528   1.382
47333W        W19681   8.771  10.847   0.968
47334W        W19682   4.823  23.025  12.429
47335W        W19683  28.185   4.729   9.922
47336W        W19684   3.721  15.706  13.532
47337W        W19685   4.362  21.065  14.006
47338W        W19686  18.560  44.460  11.032
47339W        W19687   4.936  12.253  12.859
47340W        W19688  12.673   0.941  12.564
47341W        W19689  21.081  29.032  11.113
47342W        W19690  28.091  17.797   3.845
47343W        W19691  30.430   8.186  13.545
47344W        W19692  29.648  40.814   0.244
47345W        W19693  27.548   3.948  14.001
47346W        W19694  35.931   2.284   1.896
47347W        W19695  36.355  16.623  10.554
47348W        W19696  39.894  23.495   4.226
47349W        W19697  41.482  41.019   4.148
47350W        W19698  27.678   9.260  12.948
47351W        W19699  29.048   0.907   4.709
47352W        W19700  40.860  10.709  11.576
47353W        W19701  33.005   3.265   4.730
47354W        W19702  37.392   0.971  10.575
47355W        W19703  42.322  24.494  14.945
47356W        W19704   5.413  39.440   3.779
47357W        W19705  15.163   0.254   3.218
47358W        W19706  26.576  32.539  14.850
47359W        W19707  33.001  26.573   1.292
47360W        W19708   8.742  13.188   1.860
47361W        W19709  13.137   5.744   2.417
47362W        W19710  23.674  22.590  10.607
47363W        W19711  16.163   3.897   4.662
47364W        W19712  42.792   7.316  13.464
47365W        W19713  17.171  14.233  13.795
47366W        W19714  37.878  18.113   0.377
47367W        W19715  13.155   4.323  11.896
47368W        W19716  29.175  19.774  13.833
47369W        W19717  36.917  11.689  13.467
47370W        W19718  13.725  26.585   4.779
47371W        W19719  12.633  14.592  11.057
47372W        W19720  40.963  29.607   1.713
47373W        W19721   9.806  20.132   2.195
47374W        W19722  42.024  23.714  10.092
47375W        W19723  23.598  19.107   1.820
47376W        W19724   1.781   8.745   3.843
47377W        W19725  19.600  29.021   1.823
47378W        W19726  14.336  43.382  11.051
47379W        W19727  20.709  38.895   3.699
47380W        W19728  22.073  28.599  14.791
47381W        W19729   2.877  34.513  12.440
47382W        W19730  16.278  43.487   4.305
47383W        W19731  38.923  27.945   5.279
47384W        W19732  25.127  37.340  14.931
47385W        W19733  12.744  24.206  11.428
47386W        W19734  44.971  32.454  14.446
47387W        W19735  13.744  32.498   4.719
47388W        W19736  21.171  41.984   5.164
47389W        W19737  23.706  44.422   1.763
47390W        W19738  15.679  36.397  14.764
47391W        W19739  12.141  18.570  14.954
47392W        W19740  36.963  43.892   4.125
47393W        W19741  41.388   6.412  12.415
47394W        W19742  35.098  40.849  11.106
47395W        W19743  30.116  10.167  11.500
47396W        W19744  35.917  39.813   0.294
47397W        W19745  31.514  14.702   3.168
47398W        W19746  22.585   0.937   3.721
47399W        W19747  18.582   5.892  14.874
47400W        W19748  30.524  32.561  13.938
47401W        W19749  23.029   5.772  14.872
47402W        W19750  41.971  31.422  10.484
47403W        W19751  23.611  11.323   2.764
47404W        W19752  20.128  38.029   3.674
47405W        W19753  16.181   8.674   0.820
47406W        W19754  17.213   9.303  13.381
47407W        W19755   7.232   6.423  11.121
47408W        W19756  21.241  25.179   3.308
47409W        W19757  20.656  32.012   0.468
47410W        W19758  20.227  26.638   1.717
47411W        W19759  16.635  23.091  12.412
47412W        W19760  40.848  17.781   1.395
47413W        W19761  24.097  40.391   3.652
47414W        W19762  33.024  29.073   4.673
47415W        W19763  25.643   9.847   2.813
47416W        W19764  34.419   7.773  10.460
47417W        W19765   7.848  12.777  10.107
47418W        W19766  40.408   2.235   4.347
47419W        W19767  11.307  21.714  11.012
47420W        W19768   1.249   6.829  11.571
47421W        W19769  16.181  31.971  14.007
47422W        W19770  18.253  13.115  11.463
47423W        W19771  37.411  41.315   2.207
47424W        W19772  39.320   6.715   9.545
47425W        W19773   6.308   4.292  12.991
47426W        W19774  26.982  28.966  12.013
47427W        W19775   1.468  35.591   4.704
47428W        W19776  27.169  35.862   5.147
47429W        W19777  41.411  24.984  11.596
47430W        W19778  14.614  15.762   1.277
47431W        W19779  15.310  38.942   0.422
47432W        W19780  10.182  32.983   3.187
47433W        W19781   7.857  12.224  14.759
47434W        W19782  17.767  26.489  14.366
47435W        W19783   5.889  12.218   3.325
47436W        W19784  37.556  33.552  13.810
47437W        W19785  29.991  14.230  13.893
47438W        W19786  26.523  30.053   2.281
47439W        W19787  10.157  40.823  12.531
47440W        W19788  18.625  27.153  14.444
47441W        W19789  41.002   6.338   2.704
47442W        W19790  17.302  27.193  11.107
47443W        W19791  33.410  26.012  10.030
47444W        W19792   8.277   1.814  13.534
47445W        W19793  30.162   9.785  13.988
47446W        W19794  17.183  22.656  11.969
47447W        W19795  19.743  17.648  12.488
47448W        W19796  37.502  17.577   2.185
47449W        W19797  32.548   3.325   1.821
47450W        W19798  23.115  25.483  12.372
47451W        W19799  26.106  31.572   4.649
47452W        W19800  38.076  22.670  10.099
47453W        W19801  40.004  35.574  13.953
47454W        W19802  33.486   4.926  13.460
47455W        W19803   6.855  43.830  11.986
47456W        W19804  15.601  33.023  14.387
47457W        W19805  17.081  19.680   4.617
47458W        W19806  30.032  39.985   0.456
47459W        W19807   0.449  39.808   1.922
47460W        W19808   1.875  24.152  14.417
47461W        W19809  44.299  41.888  14.325
47462W        W19810  34.067   5.405  11.983
47463W        W19811  26.065  20.228   4.303
47464W        W19812  38.556  22.194   2.200
47465W        W19813  13.770  35.383  12.867
47466W        W19814  20.616  18.238   2.341
47467W        W19815  16.160   2.286  12.516
47468W        W19816  39.532   6.289   3.212
47469W        W19817  33.070  34.940  14.779
47470W        W19818  40.410   6.351  14.868
47471W        W19819  21.573  33.076  13.450
47472W        W19820   6.331  19.195  11.905
47473W        W19821   6.874  22.650   4.243
47474W        W19822  37.957  26.501  14.497
47475W        W19823  19.284  15.192  14.846
47476W        W19824  29.538  17.225   5.321
47477W        W19825  12.758   3.778  10.409
47478W        W19826  33.047  34.969   3.742
47479W        W19827  37.944  14.123   4.703
47480W        W19828   4.436  13.255   0.339
47481W        W19829   5.432   4.745  14.484
47482W        W19830   3.744   2.278   0.800
47483W        W19831  33.104  25.590   1.213
47484W        W19832   7.715  42.454  11.003
47485W        W19833  22.053  12.826   2.859
47486W        W19834   6.352  38.071   3.384
47487W        W19835  27.163   8.336   4.280
47488W        W19836  29.470  12.284   3.631
47489W        W19837  19.131   2.468  10.904
47490W        W19838  14.234   3.774  13.534
47491W        W19839   3.340  18.548   0.344
47492W        W19840  24.218   2.826  13.928
47493W        W19841  13.299  30.565  14.780
47494W        W19842  34.865  28.988   1.794
47495W        W19843  35.012  40.997   3.335
47496W        W19844  30.134  23.703  13.329
47497W        W19845  40.330  42.453  14.798
47498W        W19846  27.583  16.751   4.629
47499W        W19847  30.496  44.442   2.257
47500W        W19848  44.327  12.240  11.965
47501W        W19849   5.341  40.332   2.884
47502W        W19850  30.543  31.982  10.931
47503W        W19851  21.225  32.633  12.981
47504W        W19852  39.975  16.766   4.804
47505W        W19853  21.663   3.216  11.451
47506W        W19854  34.482  24.011   0.456
47507W        W19855  13.212   0.788   1.777
47508W        W19856  30.521  41.877  13.976
47509W        W19857   1.322  44.784   0.826
47510W        W19858  22.105  15.815   4.823
47511W        W19859  13.154  27.089   4.831
47512W        W19860  27.019  14.608   1.302
47513W        W19861  37.990   1.243  13.335
47514W        W19862  12.643  16.774   1.379
47515W        W19863  22.210  36.479   4.737
47516W        W19864  35.941  10.748  13.853
47517W        W19865  19.577  34.095  12.910
47518W        W19866  34.391  33.120   4.815
47519W        W19867  17.160  33.603   4.789
47520W        W19868  13.259  22.619  13.803
47521W        W19869  16.155  26.573   3.330
47522W        W19870  41.442   8.848   2.811
47523W        W19871  28.060   7.178  10.594
47524W        W19872  10.788  37.832  14.936
47525W        W19873  11.821  10.159  12.534
47526W        W19874  17.192   1.779   4.779
47527W        W19875  44.278  18.162   0.883
47528W        W19876  31.141  15.807  14.503
47529W        W19877  35.364  11.669  13.329
47530W        W19878  43.946  35.502   3.155
47531W        W19879  25.188  14.816   0.243
47532W        W19880  28.114  17.623   0.736
47533W        W19881   1.461  23.545   0.962
47534W        W19882  10.831  31.421  12.073
47535W        W19883  27.549  34.546   0.284
47536W        W19884  20.203  35.395  11.924
47537W        W19885  33.888  13.845  11.410
47538W        W19886  28.108  11.141   3.731
47539W        W19887  30.965  29.572   1.898
47540W        W19888   1.272   6.678   0.730
47541W        W19889  39.065   9.308   0.785
47542W        W19890  11.821  25.564  11.874
47543W        W19891  25.211  19.721  12.988
47544W        W19892  42.448  10.785   4.293
47545W        W19893  30.485  44.771  12.860
47546W        W19894  30.558  27.620  14.295
47547W        W19895  28.986  33.928  11.009
47548W        W19896  38.974   7.875  13.907
47549W        W19897  28.632   6.188   0.298
47550W        W19898   1.315   3.852  11.039
47551W        W19899  27.189  44.320  14.478
47552W        W19900  27.526  15.678  13.034
47553W        W19901  39.016  25.476   2.668
47554W        W19902  34.975  19.142  14.968
47555W        W19903  28.975  28.061   3.324
47556W        W19904  27.112  28.027  11.480
47557W        W19905  18.580  23.213  12.878
47558W        W19906  31.493  20.627  12.414
47559W        W19907  30.643  30.418   3.789
47560W        W19908  24.221   9.797   1.335
47561W        W19909  38.900   6.782   4.149
47562W        W19910  34.066  23.086  11.371
47563W        W19911  13.653  24.510  14.977
47564W        W19912   9.232  18.566   2.378
47565W        W19913  24.094  29.956   2.829
47566W        W19914  28.077   8.898  11.504
47567W        W19915  29.455   3.367  12.340
47568W        W19916   6.412  19.184   3.363
47569W        W19917  38.435  23.648  13.526
47570W        W19918  18.178  18.681  14.491
47571W        W19919  19.729   4.430   4.134
47572W        W19920  25.695  30.496   5.116
47573W        W19921  25.124   9.719  11.410
47574W        W19922  19.732  12.760   3.676
47575W        W19923  39.491  22.694  11.877
47576W        W19924   5.298   0.359  13.841
47577W        W19925   4.931  41.958  12.842
47578W        W19926  35.992  34.539   3.755
47579W        W19927  32.001   4.376  13.442
47580W        W19928  42.939  29.533  13.849
47581W        W19929  37.456  32.918  13.432
47582W        W19930  23.031  17.086   4.251
47583W        W19931   0.488  21.686   1.901
47584W        W19932  44.260  25.122  13.792
47585W        W19933  18.599   0.869  10.593
47586W        W19934  22.637   6.756  10.586
47587W        W19935   0.411   6.918  10.476
47588W        W19936   2.252  41.426   1.715
47589W        W19937  39.485   4.883  14.954
47590W        W19938   3.382  16.764   2.809
47591W        W19939  43.330  11.753  10.892
47592W        W19940   6.184  32.448  12.069
47593W        W19941  23.626   0.465  12.361
47594W        W19942  35.420  13.331   2.769
47595W        W19943  28.084  13.136   0.898
47596W        W19944  19.760  18.712   4.131
47597W        W19945  26.532   6.679   2.250
47598W        W19946  39.335  33.526   1.914
47599W        W19947  10.175  21.545  12.020
47600W        W19948  22.129   3.262   0.316
47601W        W19949  13.237  40.852  11.524
47602W        W19950  33.923  13.180  11.465
47603W        W19951   2.955  11.665   0.924
47604W        W19952  24.041  42.480   0.864
47605W        W19953  28.170  20.253  14.989
47606W        W19954  35.861   9.659   3.380
47607W        W19955   2.881  19.659   2.315
47608W        W19956  12.838  17.777   3.341
47609W        W19957  41.043  12.249   4.329
47610W        W19958  30.059  11.298   1.805
47611W        W19959  22.050  44.763   4.623
47612W        W19960   8.244   4.379   4.177
47613W        W19961  38.392   4.793   0.943
47614W        W19962  11.171   1.916   1.745
47615W        W19963  17.722  16.138  12.843
47616W        W19964  35.381  32.088   0.481
47617W        W19965  13.808   7.866   4.143
47618W        W19966   9.276  10.154   3.161
47619W        W19967  28.576   1.359  13.347
47620W        W19968  15.110   5.740   0.427
47621W        W19969  10.269  15.603   3.713
47622W        W19970   6.406  38.037  10.409
47623W        W19971  17.104  38.061  12.517
47624W        W19972  31.003  36.535   5.784
47625W        W19973  13.608  28.466  10.547
47626W        W19974   7.342  42.860   4.598
47627W        W19975  39.464  42.368  14.896
47628W        W19976  16.204  13.623  10.899
47629W        W19977   5.317  40.513  13.050
47630W        W19978  17.643  12.647   2.754
47631W        W19979   3.455  11.200  14.794
47632W        W19980  24.154  37.886  14.431
47633W        W19981  21.639  10.368   4.132
47634W        W19982   4.847  24.102   4.746
47635W        W19983  17.621  29.940   9.437
47636W        W19984   8.353  30.154   2.826
47637W        W19985  12.653   6.256  11.878
47638W        W19986  13.111   9.351   0.955
47639W        W19987   6.331  40.980   3.779
47640W        W19988   1.356   6.766   2.337
47641W        W19989  43.968  31.431   3.190
47642W        W19990  37.528  23.988  12.441
47643W        W19991   6.220  36.021   0.461
47644W        W19992  39.499  15.720  11.427
47645W        W19993  21.728  44.892  11.115
47646W        W19994  36.394  28.673   0.744
47647W        W19995   5.316  37.934   2.703
47648W        W19996   7.766  12.654  11.454
47649W        W19997  44.371  19.109   0.468
47650W        W19998   9.808   4.265   3.691
47651W        W19999  18.251   1.402   3.379
47652W        W20000  35.578  10.346  10.571
47653W        W20001  29.921   7.271   2.678
47654W        W20002  37.388   6.278   2.670
47655W        W20003  26.690  26.034  11.872
47656W        W20004  10.327  38.335  13.987
47657W        W20005  16.123  27.014   2.683
47658W        W20006   9.688  37.998   4.124
47659W        W20007  11.162  18.763   2.847
47660W        W20008  41.857  13.309   1.393
47661W        W20009   6.834  27.103  13.860
47662W        W20010  20.724  44.410  10.544
47663W        W20011  38.058  34.549  12.460
47664W        W20012   0.253  11.819   1.250
47665W        W20013  35.885  26.172   2.405
47666W        W20014  11.671  40.979   4.324
47667W        W20015  20.659  43.968  14.301
47668W        W20016   9.672  35.524  13.899
47669W        W20017  37.522  43.422   1.769
47670W        W20018  38.827  34.992  12.379
47671W        W20019   1.765  14.712   0.427
47672W        W20020  37.351   1.274   2.286
47673W        W20021  27.068  38.874   4.813
47674W        W20022  31.925   1.388   2.903
47675W        W20023  31.898  22.243  12.576
47676W        W20024  23.130  42.310   1.767
47677W        W20025  17.749  32.123  14.338
47678W        W20026  35.547  44.812   4.163
47679W        W20027  39.860  22.209  13.476
47680W        W20028   8.812  13.623   1.350
47681W        W20029   4.756   3.740   4.145
47682W        W20030  24.529  19.284   4.189
47683W        W20031  11.272  42.029  10.406
47684W        W20032  30.072  44.793  13.879
47685W        W20033  10.739   0.803  11.858
47686W        W20034   0.894   8.355   1.263
47687W        W20035  44.369  35.458  11.973
47688W        W20036  19.598  14.220  11.090
47689W        W20037  17.716   1.925  12.448
47690W        W20038  41.901   1.823   1.303
47691W        W20039  13.735  34.077  11.430
47692W        W20040  38.460  30.470  13.444
47693W        W20041   7.324  36.019   1.304
47694W        W20042  36.492  24.198   0.952
47695W        W20043  41.891  25.030   0.321
47696W        W20044   7.672  24.632  13.866
47697W        W20045   2.409  20.108  10.930
47698W        W20046  26.027  11.802  12.879
47699W        W20047   9.670  19.767  14.850
47700W        W20048  11.351   7.786  11.925
47701W        W20049  14.795   7.247  14.895
47702W        W20050   3.739   7.408  10.610
47703W        W20051  11.658  11.217  11.488
47704W        W20052   7.874   1.882   0.285
47705W        W20053  15.699  42.954   3.849
47706W        W20054   8.288   1.971  13.016
47707W        W20055  22.134  38.534  13.355
47708W        W20056  38.035   7.816   2.254
47709W        W20057  35.364  36.486   1.249
47710W        W20058  41.968   6.751   4.118
47711W        W20059  38.049  19.073  12.007
47712W        W20060  43.897  30.117   1.219
47713W        W20061  33.007  25.994  11.937
47714W        W20062  43.822   5.734  11.498
47715W        W20063  23.499  19.640  13.502
47716W        W20064  13.648  15.293  12.497
47717W        W20065  36.866  44.378  14.449
47718W        W20066  29.959   1.469  12.518
47719W        W20067   8.161  10.218  13.812
47720W        W20068  11.153  39.497   4.167
47721W        W20069  27.505  41.898   0.425
47722W        W20070  41.848  19.617  12.362
47723W        W20071  30.628  38.384   4.738
47724W        W20072   6.804  21.653   0.782
47725W        W20073  31.418  35.012   4.795
47726W        W20074  19.084  20.616  11.029
47727W        W20075  24.975   6.765  13.447
47728W        W20076   8.855  38.959  10.475
47729W        W20077  28.600   1.283   4.778
47730W        W20078  29.660   3.943   3.825
47731W        W20079  15.598   4.718  13.423
47732W        W20080  21.218  29.494  11.119
47733W        W20081  37.955  43.403  12.899
47734W        W20082   7.833  30.992  10.980
47735W        W20083  34.883  34.975  14.410
47736W        W20084  30.441   8.800   5.091
47737W        W20085  21.181   2.796  12.863
47738W        W20086  22.126  24.074  14.292
47739W        W20087  21.230  14.718   4.706
47740W        W20088  16.806   5.693   1.785
47741W        W20089  42.810   7.893   5.310
47742W        W20090  12.232  36.958  10.413
47743W        W20091   3.735  36.021  11.023
47744W        W20092  34.601  20.733  11.574
47745W        W20093  43.297  15.262  14.873
47746W        W20094  24.704  18.728  13.515
47747W        W20095  29.619  19.247   2.781
47748W        W20096  14.754   8.285   1.880
47749W        W20097  10.661  23.069   0.960
47750W        W20098  23.027  30.568  11.913
47751W        W20099  26.955  32.534  11.052
47752W        W20100   8.779   4.825   0.758
47753W        W20101  13.280  38.039  14.932
47754W        W20102   2.388  30.466  11.489
47755W        W20103  15.677  21.186  10.888
47756W        W20104   4.437   4.360   4.626
47757W        W20105  28.475   0.946   3.671
47758W        W20106   6.913   5.399  10.906
47759W        W20107  19.270  12.654  13.059
47760W        W20108  11.244  25.036  14.362
47761W        W20109   4.753  32.461  13.954
47762W        W20110  41.013  12.130   3.345
47763W        W20111  17.113  26.680   4.260
47764W        W20112  44.882  25.683   2.804
47765W        W20113  42.907  44.464   1.776
47766W        W20114  22.669  19.221   4.290
47767W        W20115  18.592  43.021  10.067
47768W        W20116  15.237  44.447   4.799
47769W        W20117  28.020  16.103  13.460
47770W        W20118  35.963  44.291   0.816
47771W        W20119  15.223  33.406   0.805
47772W        W20120  22.685  30.565  10.632
47773W        W20121   7.344  44.938  13.342
47774W        W20122  38.051  17.778   3.260
47775W        W20123  17.586  19.766  12.066
47776W        W20124  13.338  41.409   5.112
47777W        W20125  18.085  28.629   2.825
47778W        W20126   8.766  35.978  12.409
47779W        W20127  19.205   1.273   2.786
47780W        W20128   0.969  32.981   0.322
47781W        W20129  31.109  41.432   4.133
47782W        W20130  27.504  44.278  11.885
47783W        W20131  40.846  39.057   3.813
47784W        W20132  26.588   9.330  14.343
47785W        W20133  25.568  26.531  14.944
47786W        W20134  18.559  20.696   3.238
47787W        W20135   8.832  30.155   3.293
47788W        W20136  34.486  24.501  12.514
47789W        W20137  37.948  40.377  11.563
47790W        W20138  23.632  41.532   0.748
47791W        W20139  38.480  23.727   3.271
47792W        W20140  43.481   2.913   3.353
47793W        W20141  33.029  14.232   1.906
47794W        W20142  34.499  40.863  12.488
47795W        W20143   9.328  24.501  14.439
47796W        W20144  36.526  44.934   1.363
47797W        W20145   9.765  43.012  14.283
47798W        W20146   5.232  26.154  14.928
47799W        W20147  12.244   1.857  10.957
47800W        W20148  23.131  43.462   4.175
47801W        W20149   9.298  11.276   1.353
47802W        W20150  20.617   8.732  12.934
47803W        W20151  39.557  44.397  12.458
47804W        W20152   5.886  34.496  11.581
47805W        W20153  12.640   3.801  13.850
47806W        W20154  16.776  25.572   3.381
47807W        W20155  30.635  25.686  11.111
47808W        W20156   7.859  39.829  11.466
47809W        W20157   7.733  10.370  10.421
47810W        W20158  23.661   7.731   5.273
47811W        W20159  24.002   4.312   2.309
47812W        W20160   5.817  22.048   1.729
47813W        W20161  10.151  12.261  12.365
47814W        W20162  34.552   8.660   0.965
47815W        W20163   2.417  42.915   5.250
47816W        W20164  37.994   9.845  12.938
47817W        W20165   5.358  34.938   4.149
47818W        W20166  15.707  23.189   2.694
47819W        W20167  21.155  19.760  14.377
47820W        W20168  33.393  31.470  13.365
47821W        W20169   0.872   4.769   2.385
47822W        W20170  43.418  34.959   2.388
47823W        W20171  39.434  30.502  14.398
47824W        W20172  25.476  37.501   2.727
47825W        W20173  42.842  18.138   4.690
47826W        W20174  44.848  30.441   0.812
47827W        W20175  40.352  35.371  13.387
47828W        W20176  25.540  37.012   2.248
47829W        W20177  28.119  41.940   3.676
47830W        W20178  36.363   3.429   0.371
47831W        W20179  38.871  37.451   4.145
47832W        W20180   0.405   8.705  13.364
47833W        W20181   1.411  30.585   2.407
47834W        W20182   2.733  27.967  14.855
47835W        W20183   8.387  17.581  10.942
47836W        W20184  20.192  19.270   4.150
47837W        W20185  41.443  31.090  10.405
47838W        W20186  13.173   3.448  11.105
47839W        W20187   6.354  29.587  14.474
47840W        W20188   6.837  25.037   3.670
47841W        W20189  41.818  20.745  11.898
47842W        W20190  12.185  19.261  13.058
47843W        W20191  32.585  35.575  10.459
47844W        W20192  17.102  15.180   4.265
47845W        W20193  18.669  20.607  12.935
47846W        W20194  12.767   3.909  11.099
47847W        W20195   7.718  13.637  12.937
47848W        W20196   9.326   8.875   3.694
47849W        W20197  24.698  29.534  11.473
47850W        W20198  36.860  32.130  10.640
47851W        W20199  27.004   7.687   1.766
47852W        W20200  39.925  23.568  10.938
47853W        W20201  37.542  31.460  14.027
47854W        W20202  30.164  42.910  11.464
47855W        W20203  29.949   4.850  12.427
47856W        W20204   4.925  18.613   1.784
47857W        W20205  27.576   2.812   0.323
47858W        W20206  28.461  42.443  13.007
47859W        W20207  42.446   2.361  12.865
47860W        W20208  38.364  43.849   0.272
47861W        W20209  13.711  26.620   4.233
47862W        W20210   2.372   8.855  14.846
47863W        W20211  22.544  37.575  13.850
47864W        W20212  35.552  21.181   2.690
47865W        W20213  12.287  13.297   1.352
47866W        W20214   3.377  31.622  10.482
47867W        W20215   4.942  21.681   2.235
47868W        W20216   5.425  25.569  13.936
47869W        W20217   1.847   1.255   2.233
47870W        W20218   9.361  40.318  14.963
47871W        W20219  10.243   2.361   4.644
47872W        W20220   7.249  35.451   1.923
47873W        W20221  31.563   7.698  11.540
47874W        W20222  43.421  43.937   4.738
47875W        W20223  20.200  17.717   1.430
47876W        W20224  27.135  28.176   2.276
47877W        W20225   4.414  12.808  14.354
47878W        W20226  34.104  31.597  12.482
47879W        W20227   3.422  30.936   1.232
47880W        W20228  38.849  40.953   0.912
47881W        W20229  44.850  44.504   2.337
47882W        W20230  12.771  27.956  13.452
47883W        W20231   3.426  13.702  14.898
47884W        W20232   7.343  16.757  13.443
47885W        W20233  35.372  25.982   1.245
47886W        W20234  36.931  14.604   0.797
47887W        W20235  35.866  44.758  14.903
47888W        W20236   9.358   2.748   0.834
47889W        W20237  14.627  32.419  14.899
47890W        W20238  22.168  13.290  10.468
47891W        W20239  37.397  11.325  10.053
47892W        W20240  33.606  13.116  10.638
47893W        W20241  31.073  25.043  12.552
47894W        W20242  43.935   2.750   3.828
47895W        W20243  35.856  15.296  11.015
47896W        W20244  26.689  26.081   4.299
47897W        W20245  40.536  36.473  12.525
47898W        W20246  34.915  36.990  13.430
47899W        W20247   6.257   3.927  13.838
47900W        W20248  20.260  26.512  11.408
47901W        W20249  43.836   1.794   2.184
47902W        W20250  40.023  22.700   2.281
47903W        W20251  16.697  25.529   0.337
47904W        W20252  17.641  32.493  14.503
47905W        W20253  22.081  31.925   0.894
47906W        W20254  38.965  31.976  12.408
47907W        W20255  18.288  11.821   1.365
47908W        W20256   9.805  26.077  10.550
47909W        W20257   8.294  19.141  10.981
47910W        W20258  24.198   1.350  14.336
47911W        W20259  17.101  13.291   2.756
47912W        W20260  12.199  19.113  11.445
47913W        W20261  40.936  21.605  11.996
47914W        W20262  14.752  36.083  10.035
47915W        W20263  39.025  28.166   1.745
47916W        W20264  21.246  26.528   3.279
47917W        W20265  44.410  29.069   1.908
47918W        W20266  21.588   2.734  14.030
47919W        W20267   9.281  14.299  11.577
47920W        W20268  35.003  40.516   1.425
47921W        W20269  27.576  33.008   4.152
47922W        W20270  15.246   2.825  14.776
47923W        W20271   2.962  20.527   3.355
47924W        W20272  27.967  31.963   2.882
47925W        W20273  43.010   0.422  13.378
47926W        W20274  39.941  11.675  14.957
47927W        W20275  34.084  23.209   3.720
47928W        W20276   7.798  43.791  12.501
47929W        W20277  44.802   5.409  11.037
47930W        W20278  15.808  14.695   4.286
47931W        W20279   1.430  34.988  11.967
47932W        W20280   1.481  11.841  14.313
47933W        W20281  44.337   5.260   4.201
47934W        W20282  35.392  23.241  10.468
47935W        W20283  36.028  16.575  10.559
47936W        W20284  23.019  13.812  11.066
47937W        W20285  35.446  14.799  10.557
47938W        W20286   4.291  15.787  14.970
47939W        W20287  36.946   8.343  11.428
47940W        W20288  32.125  39.386   0.391
47941W        W20289  42.502  20.062  14.973
47942W        W20290  14.785   5.821  10.409
47943W        W20291   0.854   9.253  10.930
47944W        W20292   4.759  22.584  14.462
47945W        W20293  21.680  44.921   0.752
47946W        W20294   3.218  22.130   4.755
47947W        W20295  12.161   6.783   4.293
47948W        W20296  39.380  40.975  14.345
47949W        W20297  22.659  39.853   0.337
47950W        W20298  38.551  36.457  12.361
47951W        W20299  34.475  30.496  14.787
47952W        W20300  17.755  43.015  12.381
47953W        W20301   6.780  17.284   4.759
47954W        W20302  11.128  39.475   0.957
47955W        W20303   6.262  27.098  11.589
47956W        W20304  16.729   3.924   1.843
47957W        W20305  34.431  12.269  13.872
47958W        W20306  19.252  41.819  12.017
47959W        W20307   9.738  38.550   1.345
47960W        W20308  14.737  36.892  14.764
47961W        W20309  24.681  31.429   1.297
47962W        W20310  11.777  12.680  10.084
47963W        W20311   6.381  43.819   2.877
47964W        W20312   3.896  26.093   0.780
47965W        W20313  10.148  17.791  13.473
47966W        W20314   4.929   2.284   1.785
47967W        W20315  19.596  11.347  10.481
47968W        W20316  34.500   9.386  11.588
47969W        W20317  42.801  14.678  10.486
47970W        W20318  11.336  12.711  13.876
47971W        W20319  11.716  23.101  13.330
47972W        W20320   4.243  27.141  13.449
47973W        W20321   0.939  17.689  13.541
47974W        W20322   8.159   4.915   1.913
47975W        W20323  10.788   2.930  13.363
47976W        W20324  10.200  23.653   0.739
47977W        W20325  28.569  28.166  14.855
47978W        W20326  37.916   6.346   0.475
47979W        W20327  19.575  17.673   1.701
47980W        W20328  40.530   3.884  14.431
47981W        W20329  22.999   6.736   0.840
47982W        W20330  31.908  36.985   2.807
47983W        W20331  34.959  38.842  14.929
47984W        W20332  42.784   9.269   2.794
47985W        W20333  27.053  42.794  13.848
47986W        W20334  30.552   6.266   0.247
47987W        W20335  18.242   3.728  14.466
47988W        W20336  35.069  15.106   2.759
47989W        W20337   3.837  35.399  14.356
47990W        W20338  34.567  35.926  14.386
47991W        W20339   6.919   3.912   3.372
47992W        W20340  31.918  18.641   1.418
47993W        W20341   8.659  35.852  12.839
47994W        W20342  35.883   6.267   3.713
47995W        W20343   6.739  42.521  14.416
47996W        W20344  25.034  10.778  14.348
47997W        W20345  44.346  17.750  13.900
47998W        W20346   9.204  43.896  11.462
47999W        W20347  31.518  27.684  13.929
48000W        W20348  36.972  19.040  12.056
48001W        W20349  33.887  29.981  12.365
48002W        W20350   3.921  28.175   0.278
48003W        W20351   5.439   2.962   2.312
48004W        W20352  23.571  44.471   4.234
48005W        W20353  28.668  18.729   3.164
48006W        W20354  13.199   2.898   3.238
48007W        W20355  11.289  20.577  13.044
48008W        W20356  30.487  26.962   3.277
48009W        W20357  26.991  12.657   3.182
48010W        W20358  13.140   4.365  14.424
48011W        W20359   3.393   5.695   3.636
48012W        W20360  14.738  27.553  11.532
48013W        W20361   5.841  39.863   1.216
48014W        W20362  34.471  21.132   1.821
48015W        W20363  22.059  24.978   1.935
48016W        W20364  35.436  39.365   2.278
48017W        W20365  35.915   4.829   2.704
48018W        W20366  26.960  33.594   1.814
48019W        W20367   0.864  15.789  11.608
48020W        W20368  12.748  28.069   1.223
48021W        W20369  21.119   9.824   2.239
48022W        W20370  32.610  13.183  13.920
48023W        W20371   1.266   6.684   3.309
48024W        W20372  26.087   1.459  13.478
48025W        W20373  19.546   3.290  11.464
48026W        W20374  16.678  34.596   4.228
48027W        W20375   7.747  13.234  10.909
48028W        W20376  15.138  30.600  12.023
48029W        W20377  19.141  25.999   2.901
48030W        W20378   5.368   5.716  13.539
48031W        W20379  26.620   2.787  12.502
48032W        W20380  17.120  21.601   1.925
48033W        W20381   2.896  34.429  14.776
48034W        W20382  21.551  16.805  12.581
48035W        W20383  37.390  40.321  14.785
48036W        W20384  21.164  23.661   2.344
48037W        W20385   8.198  18.668  13.907
48038W        W20386  10.826  29.021   1.699
48039W        W20387   1.968   0.328   1.280
48040W        W20388  22.528  39.987   3.738
48041W        W20389  44.900  41.315   4.810
48042W        W20390  18.757  18.199  11.911
48043W        W20391  31.436  42.329  14.874
48044W        W20392   7.346  35.570  13.533
48045W        W20393   1.268   9.306  10.406
48046W        W20394  31.981  10.250  12.037
48047W        W20395  40.442  26.667  12.389
48048W        W20396  29.994  12.225   2.856
48049W        W20397  19.575  43.786  10.630
48050W        W20398  33.891  15.617   9.939
48051W        W20399  15.798   4.247   4.630
48052W        W20400  36.531  34.975  12.388
48053W        W20401   4.394  41.443  12.899
48054W        W20402   5.708  23.222  12.371
48055W        W20403  17.795  25.554  12.518
48056W        W20404   4.449  23.085  14.931
48057W        W20405  41.898   6.899  10.454
48058W        W20406  30.551  11.680  10.439
48059W        W20407   2.354   5.344   1.843
48060W        W20408  25.536  16.212  12.076
48061W        W20409  27.020  38.821  10.075
48062W        W20410  37.397   0.963   2.315
48063W        W20411  10.365  39.492   3.839
48064W        W20412  38.039   1.430   3.196
48065W        W20413  25.084  15.249   1.762
48066W        W20414  41.409  40.955  12.855
48067W        W20415  43.342  34.015  10.489
48068W        W20416  20.589  19.105   3.813
48069W        W20417   5.388  11.264   3.319
48070W        W20418   0.313   9.659   4.756
48071W        W20419  42.783  32.047   2.305
48072W        W20420  43.850  40.835  14.380
48073W        W20421  41.829  11.139  14.841
48074W        W20422  25.510  40.307  13.041
48075W        W20423   2.268   0.852  12.499
48076W        W20424  36.404  27.648  10.926
48077W        W20425  26.550  12.289  10.981
48078W        W20426  11.767  26.570  12.969
48079W        W20427  37.913  22.596   3.284
48080W        W20428  11.749  38.011   0.248
48081W        W20429  18.262  25.102  12.091
48082W        W20430  24.196  24.517  11.512
48083W        W20431   1.802   6.711  10.442
48084W        W20432  35.085   5.807  14.495
48085W        W20433   5.705   8.665   1.867
48086W        W20434  22.160  18.654   1.721
48087W        W20435  19.634  44.932  12.934
48088W        W20436  14.680   1.284  10.602
48089W        W20437  25.182  13.281   3.856
48090W        W20438  41.970  39.459   0.303
48091W        W20439  37.406  11.765  12.568
48092W        W20440  18.276  15.792   3.731
48093W        W20441  13.625  44.976   0.480
48094W        W20442  17.095  14.330   1.905
48095W        W20443  16.096  42.910   1.843
48096W        W20444  27.668  31.898   4.335
48097W        W20445  38.071   2.772   3.180
48098W        W20446  12.182   9.852  11.986
48099W        W20447   2.795  26.566  11.418
48100W        W20448  22.042  25.077   3.330
48101W        W20449   3.273  43.271   0.454
48102W        W20450  20.204  33.990   1.233
48103W        W20451  16.294   0.922   0.475
48104W        W20452   0.454  43.445   1.261
48105W        W20453  10.365  29.506  10.525
48106W        W20454  20.092   8.339  13.987
48107W        W20455  18.129   7.210  13.998
48108W        W20456  11.640  33.607  13.976
48109W        W20457  13.666  22.239   1.371
48110W        W20458   5.732  29.648  10.454
48111W        W20459  35.407   3.329  13.371
48112W        W20460  16.246  12.760  13.417
48113W        W20461  26.097  40.332  11.892
48114W        W20462  34.572  38.853   1.401
48115W        W20463  33.526  43.868   2.260
48116W        W20464   8.672  23.065  14.864
48117W        W20465  25.192   9.215   1.891
48118W        W20466  42.022  10.686  12.918
48119W        W20467  42.359  40.379  10.958
48120W        W20468  31.101  29.526  12.572
48121W        W20469  40.470  14.185   0.405
48122W        W20470  32.520  17.237   1.246
48123W        W20471   0.300  16.091   4.163
48124W        W20472   5.253  35.972   3.636
48125W        W20473  10.138  23.028   4.773
48126W        W20474  28.503  43.353   0.337
48127W        W20475  41.395  31.530  13.841
48128W        W20476  14.590   4.908  10.477
48129W        W20477  32.939  26.993  11.005
48130W        W20478  15.766  37.983   3.339
48131W        W20479  19.721  35.077  14.501
48132W        W20480  18.050  42.962   1.359
48133W        W20481  28.586  37.001   1.811
48134W        W20482  11.241  35.367  13.506
48135W        W20483  11.183  35.071   0.341
48136W        W20484  24.679  16.074   1.713
48137W        W20485   7.335  38.903  11.024
48138W        W20486   8.717  34.507   4.710
48139W        W20487  27.029  27.617   1.255
48140W        W20488   5.845  24.622  13.057
48141W        W20489  33.016  18.053  11.013
48142W        W20490  22.671  28.934   0.968
48143W        W20491   0.780   8.401  12.577
48144W        W20492   6.740  28.953  10.626
48145W        W20493  31.612   6.236  10.114
48146W        W20494  18.563  29.537   9.933
48147W        W20495   8.217  37.858  14.995
48148W        W20496  24.580   0.893   1.720
48149W        W20497   0.875  39.916  12.530
48150W        W20498   6.720  27.577  13.495
48151W        W20499  15.117  44.864  12.037
48152W        W20500  30.504  13.662   4.835
48153W        W20501  31.533  44.322  14.475
48154W        W20502   1.295  28.087  10.590
48155W        W20503  23.095   3.788   1.262
48156W        W20504  42.302  31.134   1.914
48157W        W20505  18.725  18.162  10.452
48158W        W20506  33.041  24.709  14.789
48159W        W20507  10.270  18.659  11.870
48160W        W20508  22.574  43.929   1.324
48161W        W20509  17.624   2.262  14.331
48162W        W20510  28.659  24.099  12.446
48163W        W20511  13.253   0.429   0.301
48164W        W20512  36.533  11.650  13.449
48165W        W20513  41.451  29.928   3.787
48166W        W20514  30.619  36.020   1.802
48167W        W20515  19.767   5.251  14.995
48168W        W20516  38.519  31.984   0.964
48169W        W20517  10.159  23.997  10.500
48170W        W20518  24.713  20.083   0.862
48171W        W20519  34.614  22.687  11.439
48172W        W20520  37.965  23.640  11.051
48173W        W20521  40.976  27.576  13.396
48174W        W20522   7.892  15.799  10.128
48175W        W20523  22.998   6.709   3.853
48176W        W20524  20.591  29.147  12.485
48177W        W20525   0.844  12.756  11.927
48178W        W20526   2.775  17.170  11.387
48179W        W20527   6.726   9.660   0.450
48180W        W20528  22.025   1.810  12.361
48181W        W20529  38.510  34.468   1.839
48182W        W20530  34.106  25.616   0.885
48183W        W20531  33.555  42.370   1.429
48184W        W20532  35.506  31.966  12.897
48185W        W20533  39.520  41.404  13.837
48186W        W20534  39.349  36.994   0.840
48187W        W20535  23.226  28.093  14.864
48188W        W20536  14.207  18.586  13.894
48189W        W20537  25.490  25.062   2.410
48190W        W20538  23.575   5.736  12.367
48191W        W20539  14.160  14.230  11.120
48192W        W20540  15.642  40.424   5.134
48193W        W20541  32.538  38.058   1.932
48194W        W20542  19.632   0.402  14.998
48195W        W20543   7.258  12.140   3.386
48196W        W20544  11.298  32.126   0.304
48197W        W20545  20.612   9.389  13.344
48198W        W20546  21.084  42.963  10.006
48199W        W20547  31.964   5.900   0.938
48200W        W20548  26.134  43.455   0.817
48201W        W20549  21.511   0.330  12.477
48202W        W20550  20.767  14.643  14.406
48203W        W20551   7.347  17.284  13.481
48204W        W20552   1.385  33.936  10.578
48205W        W20553  19.705  40.999   4.680
48206W        W20554  38.339   0.939   4.799
48207W        W20555  29.061  39.051   2.815
48208W        W20556  12.303  12.757  12.536
48209W        W20557  17.088   1.426  11.980
48210W        W20558  13.151  14.207   9.942
48211W        W20559  21.748  19.612   2.419
48212W        W20560  28.443   0.355  11.874
48213W        W20561  34.434  43.949  10.904
48214W        W20562  27.059  31.421   3.838
48215W        W20563  33.081  37.387   1.418
48216W        W20564  30.459  11.752  13.494
48217W        W20565  17.099  23.689   3.757
48218W        W20566  16.080  29.147   1.271
48219W        W20567  35.074  22.740   2.208
48220W        W20568  31.075  12.763  13.413
48221W        W20569  44.986  21.748   2.682
48222W        W20570  41.365  36.487  14.398
48223W        W20571  13.286   4.357   9.667
48224W        W20572  20.726   2.407  11.884
48225W        W20573  42.791  33.388   2.373
48226W        W20574   9.886  26.582  10.954
48227W        W20575  27.165  43.976   0.966
48228W        W20576  31.094   8.203  11.899
48229W        W20577  27.628  12.187  11.102
48230W        W20578  25.015  33.395   2.744
48231W        W20579   5.903  33.034  13.545
48232W        W20580   1.915  31.082   1.932
48233W        W20581   8.371  32.414  10.460
48234W        W20582  11.145  22.173  13.547
48235W        W20583  16.582   3.349  14.455
48236W        W20584  22.083  17.741   4.285
48237W        W20585   2.311  13.729  10.614
48238W        W20586   4.331  39.024  10.491
48239W        W20587  17.105  16.598   3.371
48240W        W20588  41.303   9.354  13.536
48241W        W20589  34.503  32.572  13.482
48242W        W20590  34.577  16.158  12.988
48243W        W20591  14.143  24.576   4.628
48244W        W20592  39.478  27.464   2.409
48245W        W20593   5.894  23.531   3.155
48246W        W20594  13.295  27.184  10.541
48247W        W20595  37.354  42.002  12.432
48248W        W20596  17.609  44.768   3.763
48249W        W20597  13.773  39.361   3.657
48250W        W20598  10.755   1.861   0.850
48251W        W20599  31.051  31.151  11.061
48252W        W20600  23.069  39.995   2.804
48253W        W20601   1.467  15.788  11.599
48254W        W20602   0.828  35.483  12.407
48255W        W20603  25.512  23.608  11.427
48256W        W20604  32.531  37.900  13.438
48257W        W20605  42.285  16.639   0.759
48258W        W20606   1.806  17.186   4.815
48259W        W20607  12.665  33.488   1.797
48260W        W20608  43.900  27.127   4.212
48261W        W20609  27.633  38.027   2.883
48262W        W20610  39.354   8.330   2.896
48263W        W20611  17.768  28.479   2.254
48264W        W20612  40.429  18.225   0.385
48265W        W20613   5.836   7.235  12.399
48266W        W20614  21.220  37.929  12.932
48267W        W20615  40.377   2.816  10.637
48268W        W20616  42.407  42.006   2.410
48269W        W20617   2.781  33.510  14.845
48270W        W20618  14.773  20.138  14.322
48271W        W20619  32.114  37.540   4.673
48272W        W20620  16.195  29.663  13.821
48273W        W20621   4.241  25.650   1.354
48274W        W20622   1.477  31.416  11.567
48275W        W20623  41.483  18.142   3.647
48276W        W20624   8.830  24.551   2.699
48277W        W20625  33.003  11.225   3.314
48278W        W20626  32.107  14.143  12.512
48279W        W20627  38.990  39.560   1.827
48280W        W20628  39.492  36.445  14.864
48281W        W20629  30.628  32.535   1.858
48282W        W20630   6.341   7.197   1.250
48283W        W20631  16.143   9.383   1.838
48284W        W20632   1.383  38.504   3.228
48285W        W20633  35.051  32.530  12.071
48286W        W20634  31.141   3.372  10.550
48287W        W20635  20.082  18.699   4.237
48288W        W20636  19.768  40.047   4.351
48289W        W20637  32.610  20.576  10.591
48290W        W20638   7.691  21.614  12.504
48291W        W20639  28.494  20.742   1.273
48292W        W20640  31.913  14.711  13.917
48293W        W20641  22.184  29.951  14.851
48294W        W20642  35.417  21.598   2.686
48295W        W20643   1.819  21.220  13.029
48296W        W20644  32.980  18.218  12.936
48297W        W20645  37.061  21.144   4.730
48298W        W20646  20.085  16.581  11.045
48299W        W20647   8.687  40.811  13.896
48300W        W20648   0.384  22.123  14.283
48301W        W20649  34.412  17.661  12.553
48302W        W20650   4.361   1.397  14.515
48303W        W20651   9.668  13.715  10.984
48304W        W20652  13.249  44.299   3.326
48305W        W20653  12.126   5.324  10.542
48306W        W20654  24.077   2.802   2.265
48307W        W20655  43.424  43.354   2.331
48308W        W20656  10.733  41.379   1.812
48309W        W20657  26.491   2.870   0.877
48310W        W20658  24.066  19.628  13.410
48311W        W20659  22.147  24.004  14.879
48312W        W20660  42.934  29.133  13.980
48313W        W20661  16.605   8.201  13.034
48314W        W20662  15.780  37.897  10.583
48315W        W20663  13.151  20.587   1.830
48316W        W20664  22.252  38.533   1.373
48317W        W20665  26.068   9.772  11.489
48318W        W20666  43.294  42.791   4.792
48319W        W20667  30.506   2.759   0.934
48320W        W20668   4.800   1.740   3.180
48321W        W20669  13.115   1.242  14.939
48322W        W20670   3.404  12.323   1.806
48323W        W20671  32.075  41.428   9.935
48324W        W20672  19.071  12.264   2.822
48325W        W20673  12.708  19.545  11.476
48326W        W20674  40.475  24.709   4.662
48327W        W20675   7.770  42.394  14.495
48328W        W20676  24.633  31.951  10.491
48329W        W20677  17.206   3.766   4.176
48330W        W20678  41.992  39.008  10.081
48331W        W20679  28.538  26.612  11.890
48332W        W20680  32.970  30.608  13.930
48333W        W20681  22.636  25.477   4.301
48334W        W20682  44.809  14.263  10.413
48335W        W20683  11.197  15.792  14.871
48336W        W20684   8.384  30.518   2.799
48337W        W20685   3.444   2.759  14.312
48338W        W20686   5.203  12.172   0.757
48339W        W20687  30.499  11.147   4.784
48340W        W20688  20.071  29.165  12.857
48341W        W20689   9.858  38.971  14.380
48342W        W20690  36.073  25.520   3.748
48343W        W20691   5.790  32.079  12.954
48344W        W20692  12.122  28.654  14.290
48345W        W20693   6.360  39.350   1.257
48346W        W20694  19.186  27.065  11.010
48347W        W20695   4.210  13.320   2.245
48348W        W20696  27.530  30.039   1.333
48349W        W20697  39.448  41.367  12.537
48350W        W20698  33.068  36.988   4.674
48351W        W20699  32.542   1.345  12.403
48352W        W20700   2.868  30.044   2.351
48353W        W20701  44.357   0.894   3.651
48354W        W20702  17.181  11.645   2.293
48355W        W20703  38.072   4.930   5.759
48356W        W20704  22.253   0.871  10.964
48357W        W20705  42.454  19.277   2.893
48358W        W20706  29.936   6.892   2.309
48359W        W20707  17.607  36.877  14.328
48360W        W20708   4.772  27.122   0.812
48361W        W20709  39.349  30.019  13.379
48362W        W20710  12.330  12.761   1.837
48363W        W20711  31.003  26.543  12.954
48364W        W20712  32.600  40.382  13.846
48365W        W20713  16.795  14.158  13.896
48366W        W20714  38.871  14.756  13.902
48367W        W20715  26.127  35.449   4.831
48368W        W20716  10.225  16.285   1.838
48369W        W20717  28.651  29.611  12.053
48370W        W20718  15.085   6.266   4.288
48371W        W20719  14.783  24.119  10.435
48372W        W20720  15.225  13.171  14.798
48373W        W20721  13.304   1.336  11.982
48374W        W20722  10.170  34.884   1.278
48375W        W20723  32.068  14.810   1.845
48376W        W20724  28.948  32.011  11.480
48377W        W20725  23.583  27.068  11.494
48378W        W20726   2.286  30.061   0.933
48379W        W20727  24.213   4.339   0.734
48380W        W20728  19.685  19.111   1.337
48381W        W20729  22.516   3.735  11.573
48382W        W20730  27.996  29.602   0.781
48383W        W20731  23.731  43.853   1.813
48384W        W20732  14.218   3.928   0.885
48385W        W20733  43.896  42.825   0.280
48386W        W20734  37.054   0.783  14.002
48387W        W20735  23.688   2.847  13.385
48388W        W20736  19.676   6.405   3.861
48389W        W20737  13.257  31.980  11.064
48390W        W20738  42.971  24.482   4.291
48391W        W20739  41.517  21.608   1.819
48392W        W20740  40.942  37.516   0.474
48393W        W20741  29.984  25.167  13.423
48394W        W20742  42.300  39.852   2.776
48395W        W20743   8.301  17.079  12.878
48396W        W20744  40.832   4.339   3.682
48397W        W20745  27.688  26.699  12.878
48398W        W20746  18.589  21.623   2.389
48399W        W20747  26.520  37.495  10.158
48400W        W20748   4.212  18.135  10.907
48401W        W20749  44.496  35.928   2.257
48402W        W20750  38.865  22.197   2.401
48403W        W20751  19.648   0.930   4.762
48404W        W20752  36.074  27.514   0.955
48405W        W20753  26.505   5.816   2.203
48406W        W20754  10.199   0.962  14.014
48407W        W20755  42.940  18.202   4.343
48408W        W20756  43.791  16.688   1.714
48409W        W20757  42.808  33.939   1.287
48410W        W20758  28.665  28.054   3.336
48411W        W20759  35.575  21.043   4.308
48412W        W20760  15.178  27.001  13.863
48413W        W20761   1.311  38.365  14.954
48414W        W20762  10.216  27.065  11.087
48415W        W20763  18.236  43.966  10.621
48416W        W20764   6.232  31.142  14.790
48417W        W20765  37.380  41.438   4.317
48418W        W20766  17.720  27.541  14.430
48419W        W20767  34.537  23.130  11.481
48420W        W20768  32.969  17.672  12.413
48421W        W20769  22.671  24.517  13.394
48422W        W20770  44.355  17.258  14.342
48423W        W20771  17.197   7.208   4.350
48424W        W20772   1.798   4.370  13.309
48425W        W20773  35.515  38.068   0.839
48426W        W20774   0.748  17.103   4.734
48427W        W20775  31.504  16.798   0.322
48428W        W20776  44.262  12.741   0.359
48429W        W20777  19.065  41.411  14.454
48430W        W20778  16.573  19.633   1.899
48431W        W20779  29.933  41.863  12.065
48432W        W20780   0.965  38.357   3.350
48433W        W20781  18.637  29.048  10.501
48434W        W20782  25.579  10.205  10.908
48435W        W20783  21.060  35.907   9.974
48436W        W20784  37.981  37.051   2.185
48437W        W20785  25.058  39.830   4.810
48438W        W20786  23.148  16.266  10.599
48439W        W20787  28.448   8.208   0.732
48440W        W20788  30.985   3.727  10.947
48441W        W20789   7.377   1.806   0.433
48442W        W20790  42.927  33.056  10.493
48443W        W20791  15.760  28.014   1.859
48444W        W20792  44.459  39.509   3.768
48445W        W20793  16.614  17.574   2.415
48446W        W20794  31.033  32.018  10.604
48447W        W20795  35.887   0.901  11.587
48448W        W20796   4.773   6.789   9.962
48449W        W20797   6.755  11.736  12.994
48450W        W20798   0.967  10.347   2.758
48451W        W20799  23.193  17.207  14.974
48452W        W20800  19.587  37.474  12.404
48453W        W20801  36.434  28.508   4.181
48454W        W20802  14.808  12.252  12.452
48455W        W20803  31.420   0.350   1.252
48456W        W20804  12.822  44.840  12.529
48457W        W20805  27.075   1.357  14.833
48458W        W20806  23.169  25.965  12.481
48459W        W20807  22.037   4.313   4.779
48460W        W20808  39.431   9.789  13.518
48461W        W20809  25.206  19.219  10.645
48462W        W20810  30.043  41.474  14.348
48463W        W20811   5.696   4.250  11.909
48464W        W20812  20.095   4.417  13.375
48465W        W20813  44.923   8.678  14.786
48466W        W20814  19.211  15.745  13.995
48467W        W20815   1.404  14.705   4.692
48468W        W20816  22.678  44.263   3.794
48469W        W20817   8.874  13.773  11.429
48470W        W20818  22.252  24.614  13.394
48471W        W20819  17.187  27.447  11.480
48472W        W20820  34.885  22.609   1.317
48473W        W20821   1.424  15.785  12.027
48474W        W20822  43.495   7.182  14.361
48475W        W20823   8.704  10.639  13.524
48476W        W20824   2.728  22.249   3.861
48477W        W20825   3.408  17.802  12.545
48478W        W20826  30.066   6.234   5.718
48479W        W20827  29.124  13.119   0.766
48480W        W20828  39.891  35.892  13.539
48481W        W20829  29.921  33.537   2.337
48482W        W20830  22.075  11.139   4.310
48483W        W20831  43.886  19.687  11.085
48484W        W20832  20.215   3.903   2.667
48485W        W20833  42.417  34.864   0.396
48486W        W20834  25.557  38.382  11.097
48487W        W20835   4.211   6.333  14.515
48488W        W20836   0.752   2.432  10.409
48489W        W20837  11.244  44.447   0.733
48490W        W20838  41.535  39.873  14.931
48491W        W20839   1.407  26.962  11.021
48492W        W20840  42.017   2.256   1.694
48493W        W20841  13.340   2.339  14.794
48494W        W20842   1.892   3.276   1.746
48495W        W20843  34.995  13.237  12.549
48496W        W20844  34.011  32.558  11.119
48497W        W20845  44.945  29.474  13.904
48498W        W20846  32.998   5.722   5.212
48499W        W20847  28.969  23.536   0.793
48500W        W20848   1.893  40.460   2.322
48501W        W20849   9.256  24.033   0.730
48502W        W20850  39.973   1.472  12.890
48503W        W20851  20.239  15.586   3.758
48504W        W20852  31.106  23.573   4.341
48505W        W20853  43.902  21.179  13.004
48506W        W20854  13.114   7.331   3.183
48507W        W20855  18.716   9.215   0.861
48508W        W20856  18.288   2.957  13.996
48509W        W20857  25.654  15.800   1.220
48510W        W20858   1.250  14.126   3.254
48511W        W20859  41.810  35.503   3.259
48512W        W20860  35.889  16.648   2.247
48513W        W20861  39.039  28.531   3.354
48514W        W20862  32.904   1.253   1.264
48515W        W20863  24.711  40.402   2.189
48516W        W20864  23.080  20.539  13.349
48517W        W20865  18.186  38.986  11.520
48518W        W20866  27.567  14.110  14.827
48519W        W20867  30.163  28.549  12.361
48520W        W20868   5.276  31.454   3.255
48521W        W20869   2.810   7.256  11.451
48522W        W20870   7.899  14.240   0.752
48523W        W20871  39.410  40.317   3.273
48524W        W20872   0.397  17.300  11.451
48525W        W20873  15.116  20.108   4.691
48526W        W20874  25.060  36.395  11.051
48527W        W20875   2.741  28.628   4.828
48528W        W20876  36.075  22.230   2.676
48529W        W20877  24.022  32.055   3.705
48530W        W20878  44.888   0.869  12.866
48531W        W20879   1.331  34.585   4.247
48532W        W20880  27.175   5.256  14.991
48533W        W20881  20.187  16.642   3.643
48534W        W20882  43.463  42.866  11.907
48535W        W20883  32.948  31.999  14.958
48536W        W20884   9.353  33.520   4.235
48537W        W20885  11.773  40.468  11.012
48538W        W20886  35.443  14.780   4.762
48539W        W20887  35.906   9.842  12.519
48540W        W20888  18.697   7.758   3.754
48541W        W20889   1.424  24.999   1.904
48542W        W20890  38.873  20.628   0.283
48543W        W20891  44.271  20.625   0.785
48544W        W20892  18.783  28.625   0.810
48545W        W20893  39.895  43.463   4.684
48546W        W20894  33.626  41.012   3.661
48547W        W20895  24.231  32.544   4.128
48548W        W20896  44.828  34.601  12.947
48549W        W20897  32.890  21.575  13.447
48550W        W20898  29.103   4.358   4.119
48551W        W20899  14.724  32.561  12.852
48552W        W20900  27.675  12.197  12.863
48553W        W20901  14.757  19.153  11.434
48554W        W20902  17.268   9.727   0.377
48555W        W20903  27.664  33.441   0.826
48556W        W20904  18.154  15.619  10.493
48557W        W20905  40.481  11.750   3.818
48558W        W20906  32.493  36.571  14.773
48559W        W20907  40.321  33.964  14.946
48560W        W20908  26.118  43.000  14.413
48561W        W20909   2.863   6.315   1.389
48562W        W20910  26.979  41.913   0.865
48563W        W20911  11.294  40.044  13.942
48564W        W20912   8.791  24.612   2.333
48565W        W20913  22.132  39.818  13.351
48566W        W20914  25.519   4.321  10.417
48567W        W20915  15.705  33.483  13.855
48568W        W20916  29.121  23.661  13.839
48569W        W20917   4.210  27.196   3.283
48570W        W20918  41.042   7.312   3.201
48571W        W20919  16.295  31.966  10.962
48572W        W20920  34.445  18.051  10.616
48573W        W20921   4.788  23.077   3.771
48574W        W20922  43.963  36.855  12.364
48575W        W20923   6.681   9.670  11.457
48576W        W20924  27.685  28.092  10.499
48577W        W20925   8.363  37.009  14.422
48578W        W20926   8.755  33.524   1.341
48579W        W20927  35.415   2.299  14.472
48580W        W20928  17.089  27.564  11.084
48581W        W20929  20.682  38.941  12.495
48582W        W20930  10.858  18.753   4.223
48583W        W20931  33.913  40.978   2.259
48584W        W20932  17.255   0.986   2.215
48585W        W20933  39.967   1.330   4.273
48586W        W20934   7.308  20.610  12.054
48587W        W20935  39.355  25.114   0.801
48588W        W20936   8.211  27.997   2.254
48589W        W20937  15.088  36.907   3.748
48590W        W20938  30.920  42.399  12.472
48591W        W20939  38.556  29.558   3.789
48592W        W20940  35.973   5.779  13.904
48593W        W20941  22.177  34.116  12.558
48594W        W20942  38.368  23.003   4.295
48595W        W20943  17.223   0.948  11.934
48596W        W20944  37.338  27.173  14.963
48597W        W20945  30.102  38.397  13.431
48598W        W20946   8.763  27.971  13.930
48599W        W20947  16.208  20.168   4.760
48600W        W20948  18.075  37.343   9.953
48601W        W20949  38.480  31.467  10.587
48602W        W20950   7.866  14.775   2.734
48603W        W20951  32.459  12.670  12.883
48604W        W20952  32.097   8.767  10.624
48605W        W20953   7.697  35.440   1.836
48606W        W20954   1.320  18.625  14.465
48607W        W20955  19.644  33.421   0.808
48608W        W20956  39.362  31.952   4.334
48609W        W20957  42.386  33.483   3.815
48610W        W20958  21.160   9.267   2.897
48611W        W20959  31.114   5.781   4.611
48612W        W20960  14.801  18.167   9.944
48613W        W20961  19.048  11.137   0.479
48614W        W20962  17.638  34.877  12.560
48615W        W20963  31.912   5.709  14.778
48616W        W20964  34.098  42.516  14.970
48617W        W20965  17.111  21.620  11.557
48618W        W20966   2.804  41.355   1.365
48619W        W20967  28.115  35.058  13.422
48620W        W20968  12.269  35.880   0.746
48621W        W20969  28.107   7.685  11.480
48622W        W20970  39.335  11.652  10.536
48623W        W20971  37.501  25.115  11.956
48624W        W20972  36.032  39.545   1.387
48625W        W20973  13.755  40.470  14.494
48626W        W20974  29.611  35.387   4.350
48627W        W20975  24.075  44.873  14.323
48628W        W20976  20.229  29.083   4.834
48629W        W20977  10.650  24.979   2.208
48630W        W20978  28.170   4.744  12.552
48631W        W20979  24.575   6.406   4.158
48632W        W20980   0.473  40.546  12.898
48633W        W20981  16.578  23.551  14.859
48634W        W20982   1.850   6.407  10.639
48635W        W20983  40.450  35.855  10.486
48636W        W20984  19.652   7.269   1.864
48637W        W20985   3.711   9.374  13.528
48638W        W20986  42.918  36.532  11.504
48639W        W20987  19.577  36.486   3.343
48640W        W20988  10.709  36.506   1.275
48641W        W20989  23.235   7.288   4.191
48642W        W20990  36.545   2.362  13.921
48643W        W20991  37.461  27.489   1.311
48644W        W20992  13.612  13.330   5.707
48645W        W20993  28.966  26.480   2.789
48646W        W20994  13.209  41.471  14.335
48647W        W20995  40.993  25.972   2.730
48648W        W20996  37.870  11.650  10.469
48649W        W20997  16.182  28.511   4.823
48650W        W20998  29.544  38.911   2.883
48651W        W20999  29.494   7.830  11.960
48652W        W21000  13.264   8.870   0.768
48653W        W21001  30.002  18.293   4.134
48654W        W21002  21.702  34.893   0.907
48655W        W21003  23.228  14.721  13.541
48656W        W21004  36.940  34.071  14.841
48657W        W21005  41.367  34.067  11.016
48658W        W21006  28.049  40.938  12.488
48659W        W21007  17.707   9.669   3.853
48660W        W21008   2.420  43.795  10.561
48661W        W21009  34.597   7.713   0.755
48662W        W21010   2.349  12.674  11.423
48663W        W21011  12.338  40.954  12.966
48664W        W21012  26.010  41.903  12.368
48665W        W21013  33.467  18.270   3.317
48666W        W21014  32.406  29.524   3.217
48667W        W21015  30.541  14.324   1.807
48668W        W21016  31.972  19.588  10.626
48669W        W21017  16.657  29.150   1.325
48670W        W21018  10.698  42.507  10.927
48671W        W21019  43.470   5.206  11.991
48672W        W21020  29.144  15.145  14.896
48673W        W21021  10.273  42.385   3.739
48674W        W21022  32.080  40.325   1.433
48675W        W21023   8.849  42.984  12.843
48676W        W21024  26.014  21.511   0.344
48677W        W21025   4.380  17.217   4.165
48678W        W21026   1.788  15.301   3.229
48679W        W21027  20.052   0.932  14.779
48680W        W21028  17.799  28.598  14.277
48681W        W21029  17.579  24.095  12.993
48682W        W21030  38.896  30.567  14.304
48683W        W21031  39.501  19.697   3.827
48684W        W21032  43.294  11.167   1.302
48685W        W21033  16.208  43.820   4.312
48686W        W21034   9.189  23.577  13.036
48687W        W21035  38.982  35.404   3.276
48688W        W21036   5.307  12.198   4.823
48689W        W21037  28.066  20.088  14.368
48690W        W21038  28.934   9.190  11.984
48691W        W21039   9.242   2.810  10.599
48692W        W21040  28.545  33.884   4.616
48693W        W21041  14.697   9.656  14.458
48694W        W21042  19.586   7.764  10.571
48695W        W21043  17.122  38.437  11.510
48696W        W21044  32.598  38.362  13.853
48697W        W21045  41.425   9.312  14.949
48698W        W21046   9.338  36.039   4.807
48699W        W21047  41.953   6.711  13.921
48700W        W21048  37.484  34.464  14.988
48701W        W21049   8.758  23.640  10.441
48702W        W21050  16.590  11.361  14.318
48703W        W21051  12.334  23.191   0.933
48704W        W21052  40.004  44.893   0.468
48705W        W21053  28.563  12.249  13.545
48706W        W21054  23.082  32.031  14.917
48707W        W21055   2.901   2.333   1.373
48708W        W21056   4.725  36.377   2.277
48709W        W21057  19.107  32.565   3.286
48710W        W21058  36.035   7.894  10.544
48711W        W21059  23.736  25.529  13.332
48712W        W21060  20.126   8.720   0.833
48713W        W21061  40.431  17.612   1.831
48714W        W21062  28.041  12.147  12.947
48715W        W21063  40.918   3.257  11.960
48716W        W21064  43.278  39.858   0.353
48717W        W21065   1.287  17.234   4.332
48718W        W21066  44.929  40.338   2.360
48719W        W21067   7.733  43.314   1.818
48720W        W21068  35.487   8.878  14.371
48721W        W21069  39.907  43.816   1.727
48722W        W21070  44.337  12.672   4.635
48723W        W21071  11.862  43.367   0.763
48724W        W21072  37.519  44.491  12.986
48725W        W21073   9.765   0.421  11.013
48726W        W21074  32.607   8.736   1.812
48727W        W21075  36.389  19.267   4.324
48728W        W21076  36.863  13.784   2.268
48729W        W21077  22.032  39.962   2.769
48730W        W21078  13.803  36.426  13.519
48731W        W21079  27.144  41.825  10.933
48732W        W21080  29.112  25.107   4.791
48733W        W21081  17.650  12.243   4.119
48734W        W21082   9.370  20.762   4.827
48735W        W21083  14.185   4.333  12.422
48736W        W21084  40.303  31.945  10.975
48737W        W21085  39.973  25.652  12.909
48738W        W21086  36.538   9.833  12.464
48739W        W21087  42.465   7.831  12.425
48740W        W21088  37.411  26.668  13.003
48741W        W21089  33.453  32.605  14.490
48742W        W21090  30.035   3.868  12.905
48743W        W21091  10.351  27.148   5.128
48744W        W21092  39.974   3.276   2.336
48745W        W21093  21.536  35.884   2.233
48746W        W21094  42.443  29.512  10.924
48747W        W21095  37.525  34.009   3.319
48748W        W21096   3.402  38.449   4.681
48749W        W21097   3.248  33.967  12.475
48750W        W21098   6.333  41.376  10.895
48751W        W21099  27.123  28.512   0.455
48752W        W21100  28.541  24.026   0.295
48753W        W21101  30.630  17.660  14.284
48754W        W21102  24.036  25.983  11.602
48755W        W21103  29.560  30.512  11.863
48756W        W21104  20.634  10.219  12.510
48757W        W21105  24.119  36.377  12.392
48758W        W21106  40.476  44.463   2.290
48759W        W21107  12.811  26.574  13.328
48760W        W21108  20.552  35.021   4.828
48761W        W21109  12.652  43.436  11.426
48762W        W21110  34.388  28.182  10.976
48763W        W21111  24.077  21.237   1.916
48764W        W21112  10.757  31.542   4.813
48765W        W21113  25.659  28.001  10.980
48766W        W21114   5.435  34.052  14.403
48767W        W21115  26.613  28.576   3.722
48768W        W21116   6.867   8.739  14.944
48769W        W21117  34.614  30.483  10.621
48770W        W21118  27.482  13.306  11.017
48771W        W21119  10.248   3.227   3.656
48772W        W21120  28.534  41.028   2.252
48773W        W21121  18.208  21.528   0.844
48774W        W21122  38.382  18.640  10.462
48775W        W21123  10.138   3.724  11.378
48776W        W21124   5.279  44.843   3.273
48777W        W21125  11.693  11.666   9.939
48778W        W21126  26.587  33.496   2.768
48779W        W21127  18.136  37.350  13.489
48780W        W21128  39.870   0.325  13.507
48781W        W21129  27.533   9.809  11.421
48782W        W21130  16.805  17.166  10.461
48783W        W21131  11.681   4.884   4.653
48784W        W21132   7.178  22.107  12.348
48785W        W21133  20.180  20.097  12.479
48786W        W21134  42.321  27.940  11.990
48787W        W21135   7.891  31.011  14.278
48788W        W21136  32.055  22.712  11.478
48789W        W21137  15.225  33.994   0.274
48790W        W21138  31.615  40.470   3.185
48791W        W21139  28.970   6.197   1.862
48792W        W21140  17.175  31.646  12.541
48793W        W21141  19.111  17.633   2.764
48794W        W21142  30.914   7.375   1.268
48795W        W21143  28.031   9.685  14.918
48796W        W21144   4.931  26.560   0.395
48797W        W21145  11.352  24.580   4.173
48798W        W21146   9.673   7.274  10.924
48799W        W21147   1.237  31.001  14.948
48800W        W21148  21.583  24.141  13.378
48801W        W21149   9.314  38.857   3.649
48802W        W21150  23.219  40.472  14.286
48803W        W21151   7.697  24.660  11.474
48804W        W21152  13.738  24.482  11.442
48805W        W21153  33.947  33.955   0.329
48806W        W21154  36.483  12.188  14.891
48807W        W21155  14.818  36.063  11.384
48808W        W21156  18.785  11.153  14.338
48809W        W21157  22.219   3.350  12.395
48810W        W21158  16.567  27.670   1.897
48811W        W21159  12.221  41.429   3.218
48812W        W21160  27.567   3.863   1.281
48813W        W21161   1.762  21.544   1.758
48814W        W21162  44.424  22.712   0.256
48815W        W21163  36.927  26.004   3.271
48816W        W21164  31.502   8.380  11.397
48817W        W21165  12.159  42.282   0.869
48818W        W21166  41.998  23.549  14.893
48819W        W21167  38.523   3.391  14.298
48820W        W21168  32.581  25.040  12.830
48821W        W21169  18.781  33.436  13.409
48822W        W21170  31.483  20.188   1.397
48823W        W21171   9.651  11.787  14.866
48824W        W21172   4.861  40.365   3.324
48825W        W21173   8.377  18.618  11.382
48826W        W21174   0.796  21.084  13.812
48827W        W21175  39.994   8.171  13.337
48828W        W21176   5.889  36.430  14.018
48829W        W21177   5.749  22.230  14.766
48830W        W21178  31.972  37.423   2.404
48831W        W21179  40.033  18.215  14.944
48832W        W21180  39.981   6.211  14.761
48833W        W21181  15.272  26.038  11.048
48834W        W21182  26.192  36.936  14.280
48835W        W21183  30.116  39.001   3.276
48836W        W21184  14.322  39.857  11.000
48837W        W21185   5.900  29.012   4.828
48838W        W21186  35.488  27.472  14.953
48839W        W21187  40.332  15.756  11.944
48840W        W21188   8.722  26.507   2.879
48841W        W21189  12.830  15.213  11.462
48842W        W21190  33.094  12.718  14.854
48843W        W21191  20.694  19.277   1.214
48844W        W21192  10.201  16.092   4.289
48845W        W21193  10.825  41.384   4.810
48846W        W21194  27.482  19.775   3.657
48847W        W21195  31.514  16.126  13.791
48848W        W21196  33.092   8.348   4.638
48849W        W21197  23.495  35.937   0.835
48850W        W21198  33.977  16.245  10.437
48851W        W21199  11.685   6.208   5.762
48852W        W21200  33.926  38.452   4.785
48853W        W21201  33.539  24.152   2.701
48854W        W21202  30.140   2.314   2.760
48855W        W21203  44.442  24.998   4.296
48856W        W21204  40.805  40.348   4.791
48857W        W21205  12.221  28.667  12.380
48858W        W21206   0.489  30.087  13.006
48859W        W21207   7.788  15.598   2.195
48860W        W21208   5.214  39.548   1.340
48861W        W21209  34.890   5.392  10.548
48862W        W21210  44.403  20.223   1.827
48863W        W21211   6.739  33.512  11.055
48864W        W21212  25.511  32.536   4.811
48865W        W21213  16.297  20.141   2.897
48866W        W21214  11.129  32.451   2.698
48867W        W21215  27.163  33.396  14.871
48868W        W21216  29.941   8.360   2.220
48869W        W21217  12.791  11.205   3.679
48870W        W21218  35.509  15.657   0.365
48871W        W21219   7.885  40.339   1.421
48872W        W21220  31.955  36.506   4.725
48873W        W21221  21.253  12.187  10.406
48874W        W21222   3.722  40.309  14.979
48875W        W21223  42.969  14.239  14.402
48876W        W21224  35.877  14.761   0.888
48877W        W21225  12.693  17.726   2.808
48878W        W21226  43.483  36.899   3.344
48879W        W21227  38.531   8.819  11.995
48880W        W21228   8.710  37.842  12.964
48881W        W21229  34.450  39.006   1.734
48882W        W21230  13.284  30.646   4.613
48883W        W21231  27.987   9.832  13.858
48884W        W21232  11.653  34.014  12.394
48885W        W21233  26.478   3.283  14.764
48886W        W21234  34.031   0.839   0.340
48887W        W21235   4.720  36.532  14.013
48888W        W21236  15.321  10.281   1.836
48889W        W21237  10.193  10.703  10.484
48890W        W21238   5.706  11.801  12.021
48891W        W21239   8.228   8.851   2.685
48892W        W21240   7.218   4.807   4.754
48893W        W21241   2.436  44.993  13.019
48894W        W21242   6.352   1.284  14.419
48895W        W21243  12.358  44.361  12.009
48896W        W21244  21.146  11.325  10.905
48897W        W21245  17.133  31.551   1.294
48898W        W21246  31.068   9.301   3.354
48899W        W21247  18.752   5.691   2.737
48900W        W21248  33.554  26.087   4.210
48901W        W21249   6.872  35.873   4.174
48902W        W21250  18.687   5.923  13.449
48903W        W21251  35.871  28.586   1.323
48904W        W21252  42.304   4.279   4.835
48905W        W21253  38.464  24.522   0.313
48906W        W21254  24.619   7.724  10.479
48907W        W21255  32.002  24.678  11.484
48908W        W21256  25.678  16.700  14.976
48909W        W21257  20.197   5.750   3.651
48910W        W21258  34.974   0.855  13.063
48911W        W21259  17.662  39.056  14.943
48912W        W21260  32.593   6.712   4.620
48913W        W21261  21.242   4.267  13.396
48914W        W21262  25.486  17.603   0.307
48915W        W21263  36.464  35.938   0.844
48916W        W21264  31.053   1.414  11.082
48917W        W21265  26.624  25.599   3.320
48918W        W21266   3.431  36.907  13.795
48919W        W21267  21.517  38.826  13.349
48920W        W21268  20.679  20.055   2.836
48921W        W21269  35.598   7.869  10.952
48922W        W21270  14.612  24.700   2.896
48923W        W21271  33.429  44.010  11.902
48924W        W21272  36.095  37.039  12.075
48925W        W21273  43.415   9.656  12.379
48926W        W21274  24.710   0.332   2.412
48927W        W21275  24.168  30.649  10.071
48928W        W21276  15.322   8.355  14.875
48929W        W21277  10.826  37.856   1.398
48930W        W21278  36.421  43.775  14.928
48931W        W21279  38.943  11.147   0.824
48932W        W21280  24.093  33.927   0.828
48933W        W21281  20.633  36.352   0.254
48934W        W21282  32.991  18.713   1.226
48935W        W21283  39.514  42.291  13.408
48936W        W21284  21.642  32.939   3.276
48937W        W21285  40.446   0.967  11.517
48938W        W21286   5.224  15.308   3.669
48939W        W21287  34.604  22.686  12.448
48940W        W21288  10.194  17.185  11.570
48941W        W21289   6.822  31.638  13.930
48942W        W21290  18.590   7.730  14.910
48943W        W21291  18.107  13.295   2.206
48944W        W21292  32.103  18.779   3.284
48945W        W21293  15.302  24.692  14.769
48946W        W21294  38.334  15.144  14.804
48947W        W21295  42.816  11.700  14.983
48948W        W21296  20.037  31.485  11.943
48949W        W21297  23.222  11.684  12.831
48950W        W21298  33.115  34.889  12.561
48951W        W21299  19.539  41.487  13.417
48952W        W21300  26.622  15.268  12.045
48953W        W21301  33.495   6.231  13.497
48954W        W21302   7.230  36.461   0.471
48955W        W21303  37.071  39.353  10.899
48956W        W21304  29.559  11.293  13.524
48957W        W21305  29.539  38.854   3.689
48958W        W21306  29.562   9.377   2.412
48959W        W21307   9.676  17.801   3.233
48960W        W21308  42.961  22.615   0.470
48961W        W21309  39.944  19.273   2.362
48962W        W21310  32.121  26.013  13.547
48963W        W21311  41.464  23.999   4.303
48964W        W21312  18.713  39.363   1.772
48965W        W21313  22.219  40.922   1.807
48966W        W21314  29.482  44.849  12.980
48967W        W21315  25.118   8.244   9.983
48968W        W21316   7.709   8.365   3.147
48969W        W21317  17.682  15.769   1.212
48970W        W21318  29.954   7.749  11.018
48971W        W21319  26.588  12.826   2.861
48972W        W21320   2.273  31.986  14.374
48973W        W21321  33.572  32.535   2.757
48974W        W21322  33.931  28.162   1.854
48975W        W21323   5.727  16.229  11.431
48976W        W21324  16.811  15.618  13.015
48977W        W21325  24.682  43.796  12.830
48978W        W21326  25.078  10.740  13.313
48979W        W21327  25.555  33.097  14.511
48980W        W21328  11.348  13.302  13.415
48981W        W21329  28.459  21.046  13.368
48982W        W21330  43.506  33.523   0.798
48983W        W21331  18.053  37.988  13.342
48984W        W21332   4.311  29.928  10.516
48985W        W21333  14.144  13.689  14.515
48986W        W21334  31.977  18.085   2.740
48987W        W21335  28.551  43.410   0.793
48988W        W21336  16.246  12.162  11.438
48989W        W21337  32.018  23.228  10.460
48990W        W21338  44.952  37.895   1.334
48991W        W21339   6.268   5.718  13.986
48992W        W21340  28.061   6.828   2.830
48993W        W21341  21.634  12.812   4.188
48994W        W21342   6.400   4.410   3.262
48995W        W21343  21.247  18.774  12.992
48996W        W21344   1.800  31.028   2.800
48997W        W21345  15.579   5.731  11.938
48998W        W21346  31.933   1.348   1.873
48999W        W21347  27.612  43.480   4.230
49000W        W21348   3.285  14.597  14.797
49001W        W21349   0.477  36.413  11.128
49002W        W21350  10.691  35.574  13.033
49003W        W21351   7.890   4.721  13.960
49004W        W21352  28.658   8.786   0.787
49005W        W21353  19.184  15.800  14.891
49006W        W21354  18.260  39.892   2.767
49007W        W21355   1.392   5.784   1.895
49008W        W21356  26.189  30.510  13.804
49009W        W21357  19.750   1.243   1.771
49010W        W21358  18.062  43.958   0.728
49011W        W21359  13.318  28.053  11.937
49012W        W21360  16.588  26.102   4.315
49013W        W21361  40.451  37.999   0.903
49014W        W21362  14.096  24.161   4.745
49015W        W21363  23.716  21.757   4.796
49016W        W21364  28.005  13.828   3.817
49017W        W21365  41.453  32.936   1.393
49018W        W21366  31.084  37.965   0.924
49019W        W21367  37.033  32.457  13.904
49020W        W21368  36.999  33.442  14.031
49021W        W21369  41.486  44.380   2.894
49022W        W21370  29.444   2.833  12.499
49023W        W21371  26.647  24.563  11.905
49024W        W21372   2.910  16.114   3.360
49025W        W21373  27.963  24.145   1.837
49026W        W21374  35.384  32.952  13.895
49027W        W21375  16.219   6.415  11.026
49028W        W21376  15.579   3.301   1.234
49029W        W21377  27.940  35.098  14.448
49030W        W21378  25.169  42.028   2.682
49031W        W21379   6.723  28.495   4.663
49032W        W21380  41.822  37.079   3.836
49033W        W21381  26.205  15.113  13.520
49034W        W21382  13.705   9.234  11.920
49035W        W21383  31.136  24.226   3.332
49036W        W21384  24.579  10.843  14.851
49037W        W21385   5.338  21.214   0.465
49038W        W21386  19.144   5.301  12.933
49039W        W21387  25.495  40.412  12.431
49040W        W21388   1.304  16.168   2.181
49041W        W21389  42.331   8.323  13.423
49042W        W21390   9.729  27.998   4.604
49043W        W21391  26.540  28.163   2.740
49044W        W21392  23.093  25.220  12.525
49045W        W21393  32.112  33.879   1.911
49046W        W21394  43.994  11.171   1.229
49047W        W21395  34.540  27.568  12.455
49048W        W21396   2.808  37.080  14.993
49049W        W21397   6.913  14.283   4.606
49050W        W21398  16.776  27.533  12.451
49051W        W21399  19.180  20.212   0.843
49052W        W21400  43.970   5.706   3.832
49053W        W21401  36.881  43.961  13.889
49054W        W21402   6.842  28.043   2.191
49055W        W21403   8.185  35.410   2.790
49056W        W21404  27.613  26.987   1.876
49057W        W21405  13.313  37.406  14.011
49058W        W21406  21.703  31.562   0.889
49059W        W21407  29.141  37.525   1.924
49060W        W21408   7.378  44.307   0.921
49061W        W21409  14.207  14.824   9.971
49062W        W21410  24.040  38.906   0.466
49063W        W21411   7.279  21.230  12.093
49064W        W21412  42.407  32.934  14.499
49065W        W21413  22.651   8.329  13.941
49066W        W21414  37.570  23.012  14.432
49067W        W21415  11.291  39.846   3.764
49068W        W21416  26.577  16.298   0.897
49069W        W21417  21.736   6.360   2.299
49070W        W21418  38.887  36.869  10.891
49071W        W21419  43.021  19.228  14.983
49072W        W21420  13.288  24.557   3.715
49073W        W21421  19.236  30.443  10.062
49074W        W21422  21.677   8.342   2.379
49075W        W21423  15.235  13.633   1.761
49076W        W21424  22.185   9.762  11.916
49077W        W21425  40.527  36.353  10.430
49078W        W21426  37.365  20.153   2.310
49079W        W21427  11.317  18.263  11.503
49080W        W21428  29.008  31.104   3.640
49081W        W21429  42.800  37.432   4.695
49082W        W21430  39.985  14.311   4.233
49083W        W21431  43.365   8.893   4.805
49084W        W21432  39.497  37.907   1.255
49085W        W21433  33.609  19.144   0.441
49086W        W21434  27.011  27.492   3.151
49087W        W21435  35.363  18.143   2.847
49088W        W21436  34.462  31.634  13.506
49089W        W21437  34.430  31.479   4.746
49090W        W21438  35.047  27.140  13.904
49091W        W21439   2.340   7.309  13.027
49092W        W21440  18.714  14.767  11.475
49093W        W21441  44.908  17.746   2.212
49094W        W21442  44.468  20.068  12.966
49095W        W21443  31.139  25.574   4.601
49096W        W21444  34.938   4.449   3.282
49097W        W21445  19.046  32.106   2.222
49098W        W21446  16.750  33.999   0.844
49099W        W21447  20.144  38.869   1.322
49100W        W21448  44.970  42.505   1.751
49101W        W21449  13.676  11.343   2.197
49102W        W21450  32.564  20.761   2.326
49103W        W21451  23.044   5.314   0.762
49104W        W21452   4.743  38.076  11.925
49105W        W21453   8.831  12.762   2.323
49106W        W21454  26.070  24.215   4.724
49107W        W21455  37.850  44.365   1.921
49108W        W21456   7.888   1.733  13.920
49109W        W21457  14.799  42.483   1.747
49110W        W21458  33.566  41.536  11.897
49111W        W21459  38.499  20.585  10.072
49112W        W21460  14.591  34.405  13.451
49113W        W21461  23.559   5.724  11.119
49114W        W21462  22.011  41.508   4.334
49115W        W21463  22.126   0.847  14.928
49116W        W21464  17.229  19.646   9.924
49117W        W21465   7.247  22.185  13.341
49118W        W21466  44.892  25.141   3.220
49119W        W21467  20.228  13.258  12.044
49120W        W21468   2.860   4.944   3.383
49121W        W21469  28.046  35.905  13.006
49122W        W21470  22.575  36.854  14.391
49123W        W21471  11.758  23.683  14.913
49124W        W21472  16.645  34.565  11.472
49125W        W21473   2.810  42.376   1.265
49126W        W21474   7.287  24.687  14.025
49127W        W21475  43.490  25.983   1.310
49128W        W21476   6.275  16.316   2.880
49129W        W21477   0.964  14.626   3.729
49130W        W21478  34.088  16.685   2.726
49131W        W21479   9.290  29.083   4.207
49132W        W21480  31.580  38.027  12.978
49133W        W21481  25.090  30.104   1.254
49134W        W21482  12.679  30.940   3.670
49135W        W21483  17.136  11.697  12.463
49136W        W21484  20.055  36.573   3.174
49137W        W21485   8.329  33.556  13.988
49138W        W21486   5.393  25.697  12.461
49139W        W21487  24.184  44.984   4.160
49140W        W21488  42.438  42.341   2.673
49141W        W21489  14.740  10.323   1.326
49142W        W21490  33.531  42.352   2.180
49143W        W21491  20.552   3.375   1.738
49144W        W21492  29.107  21.080  11.069
49145W        W21493  40.851  35.039  10.564
49146W        W21494  32.027  28.448  12.441
49147W        W21495  17.076   8.757   4.201
49148W        W21496  18.706  32.914  14.306
49149W        W21497  22.601  21.170   1.841
49150W        W21498  17.690  11.746  14.417
49151W        W21499  18.193  12.654   4.219
49152W        W21500  34.458  32.143   2.716
49153W        W21501  31.414  11.326   0.949
49154W        W21502   6.752  14.111  12.374
49155W        W21503   7.858  18.636  11.121
49156W        W21504  24.683  37.394  14.822
49157W        W21505   3.223  27.989   2.316
49158W        W21506   3.245  31.602   0.364
49159W        W21507  22.246  27.559   2.900
49160W        W21508  23.086  23.542  11.866
49161W        W21509  24.184  42.281   1.343
49162W        W21510  44.296  27.456  11.909
49163W        W21511  34.867  38.999  13.981
49164W        W21512   4.881   8.865  14.300
49165W        W21513   3.319  33.085  12.571
49166W        W21514  34.556  17.645  13.312
49167W        W21515   7.357  43.303   1.764
49168W        W21516  36.499  32.402  10.423
49169W        W21517  13.178  21.189   4.778
49170W        W21518   6.184  18.774   1.697
49171W        W21519   8.838  24.160   1.424
49172W        W21520  40.802  16.745   1.241
49173W        W21521  28.142   5.890  14.509
49174W        W21522  10.751  39.940   3.818
49175W        W21523  26.070  35.599   1.820
49176W        W21524  27.081   5.332   2.385
49177W        W21525  31.547  42.452   3.742
49178W        W21526  40.970  23.531  11.552
49179W        W21527  21.150  23.021   1.902
49180W        W21528  19.137  40.315  10.973
49181W        W21529  10.708  23.650   3.734
49182W        W21530   4.881  27.608   1.297
49183W        W21531  34.948  30.508  12.069
49184W        W21532   0.751  41.482  14.497
49185W        W21533  26.671   3.217   3.265
49186W        W21534  42.462   1.753  11.443
49187W        W21535  34.106  11.346  12.539
49188W        W21536   9.310  42.944   4.271
49189W        W21537  11.218  39.497   3.709
49190W        W21538  35.976  38.917  12.877
49191W        W21539  37.886   5.239   0.755
49192W        W21540  30.437  42.478  13.918
49193W        W21541   9.790   7.816  12.083
49194W        W21542  18.681   6.419  12.879
49195W        W21543  43.016  20.083   4.229
49196W        W21544  17.246  30.087  10.984
49197W        W21545   9.678  38.503  14.908
49198W        W21546  37.952  27.953  12.998
49199W        W21547  44.793  39.484  14.948
49200W        W21548  17.276   8.836   2.211
49201W        W21549  21.639  16.738  14.447
49202W        W21550  14.699   4.747   3.861
49203W        W21551  28.656  16.139   2.752
49204W        W21552  32.106   4.846   2.378
49205W        W21553  41.300  42.027  13.523
49206W        W21554  29.519  28.541  12.085
49207W        W21555  25.193  39.917   2.270
49208W        W21556  32.057   2.294   2.825
49209W        W21557  32.131  21.712   3.648
49210W        W21558  25.519  42.481  13.445
49211W        W21559  33.061   9.859   0.363
49212W        W21560  15.778  17.173  11.936
49213W        W21561  18.580   2.878  14.477
49214W        W21562  22.249  36.097  12.058
49215W        W21563  31.975  25.115  13.415
49216W        W21564  39.501  39.960   3.243
49217W        W21565  30.937  36.930   0.753
49218W        W21566  41.474  41.308  12.872
49219W        W21567   1.968  23.601   3.330
49220W        W21568  32.505  31.979   2.806
49221W        W21569  33.955   7.791   3.213
49222W        W21570  19.083  42.422   3.752
49223W        W21571  25.055  36.541   0.897
49224W        W21572  12.823  20.137  13.054
49225W        W21573  10.380  10.258  13.054
49226W        W21574  32.469   6.789   9.959
49227W        W21575   8.160  40.424  10.620
49228W        W21576   0.276   2.860  13.058
49229W        W21577   5.268  33.042  11.910
49230W        W21578   7.911  39.857   0.268
49231W        W21579  39.333  14.143  13.960
49232W        W21580  16.232  10.377  13.445
49233W        W21581  43.898  27.117  13.015
49234W        W21582   9.828  30.157  12.453
49235W        W21583  23.499  24.542   1.815
49236W        W21584  14.261  22.661  13.809
49237W        W21585   1.875  10.323   1.212
49238W        W21586  24.059  12.347   0.925
49239W        W21587  41.970  37.934   2.862
49240W        W21588  33.539  43.393   3.177
49241W        W21589  23.614   5.885  13.339
49242W        W21590  44.295  16.287  12.483
49243W        W21591   0.841   5.345   0.245
49244W        W21592  43.995   6.274   1.928
49245W        W21593  30.118  29.587  14.329
49246W        W21594  10.192  21.058  13.039
49247W        W21595  34.546  34.483  14.334
49248W        W21596  30.543  18.621   1.873
49249W        W21597  44.906  33.927   2.290
49250W        W21598  28.615  42.823   3.362
49251W        W21599  30.537  39.553  12.846
49252W        W21600   6.275  26.178   2.220
49253W        W21601  38.003  38.336  11.609
49254W        W21602  18.278   2.839   0.901
49255W        W21603  34.483  31.112   1.263
49256W        W21604  41.873  37.991   3.678
49257W        W21605  42.331  26.511   2.799
49258W        W21606  16.763  32.546  13.399
49259W        W21607  23.004   5.434   4.746
49260W        W21608  17.775  12.681  11.455
49261W        W21609  23.105  18.661   4.792
49262W        W21610  25.022  20.190   3.739
49263W        W21611  28.996   9.354   3.865
49264W        W21612  17.702  28.067   4.320
49265W        W21613  41.803  27.094  12.579
49266W        W21614  30.462  36.468   1.818
49267W        W21615  10.250   9.375   1.371
49268W        W21616  20.652   3.229   2.844
49269W        W21617  16.233  12.686   3.326
49270W        W21618  41.799   9.247   0.263
49271W        W21619   9.285  44.358  14.359
49272W        W21620  35.576  36.976   1.406
49273W        W21621  44.864  38.482  13.954
49274W        W21622  23.188   7.183  13.350
49275W        W21623  10.785  39.371   2.758
49276W        W21624   4.343  16.619  10.937
49277W        W21625   7.401  31.022  10.961
49278W        W21626  22.140  40.432  11.462
49279W        W21627  31.949  19.576  12.573
49280W        W21628   8.366  15.099  12.866
49281W        W21629  27.574   2.282  11.479
49282W        W21630  11.722  37.943   2.759
49283W        W21631  36.556   5.871   0.318
49284W        W21632  39.322  13.829   3.676
49285W        W21633  23.659  13.642   0.480
49286W        W21634  24.589   9.170  13.310
49287W        W21635  42.888  31.149   3.261
49288W        W21636  34.515  26.093   3.707
49289W        W21637  11.286   7.308  12.378
49290W        W21638  21.169   4.853   1.867
49291W        W21639  17.081  36.503   1.414
49292W        W21640  37.989  36.490  13.475
49293W        W21641  38.052  10.250  10.513
49294W        W21642  35.035  23.156  10.641
49295W        W21643  24.567  10.321   2.881
49296W        W21644  41.452   5.701   3.779
49297W        W21645  33.403  36.398   0.871
49298W        W21646  26.043  20.191   3.636
49299W        W21647  42.488  20.185   4.318
49300W        W21648  42.776  15.805  10.035
49301W        W21649  18.612  29.650   4.598
49302W        W21650  28.073   8.876  11.045
49303W        W21651  38.518   5.246  12.482
49304W        W21652  19.189  24.571  13.839
49305W        W21653  32.892  38.374  12.903
49306W        W21654   5.882   9.799   0.961
49307W        W21655  26.473   0.945   4.195
49308W        W21656  14.169  23.067   4.179
49309W        W21657  35.530  29.560  13.328
49310W        W21658  29.595  43.968   2.357
49311W        W21659  40.482  14.799   0.863
49312W        W21660   0.382  12.784   1.380
49313W        W21661  22.166  41.817   2.671
49314W        W21662  29.119  13.602   2.215
49315W        W21663  27.461  38.845   0.363
49316W        W21664   4.359   1.938   1.248
49317W        W21665  32.540   3.744   4.767
49318W        W21666   6.801   4.329   2.729
49319W        W21667  11.187  41.994   3.839
49320W        W21668  33.944  43.337   0.357
49321W        W21669  22.662  36.910  13.323
49322W        W21670  36.867  10.821   2.771
49323W        W21671  10.225   7.321  10.621
49324W        W21672  17.723   6.255   0.758
49325W        W21673  19.171   3.455   1.854
49326W        W21674   4.711   1.322   3.713
49327W        W21675   9.208   0.873   4.315
49328W        W21676  10.197  43.298   1.369
49329W        W21677  40.510  35.481   1.880
49330W        W21678  39.860  23.038  14.849
49331W        W21679   4.800  27.530  14.481
49332W        W21680  22.196   8.349   3.356
49333W        W21681  38.016  14.232  12.514
49334W        W21682  30.561   6.740  11.064
49335W        W21683  35.038  25.104   4.223
49336W        W21684  16.638  25.592  12.842
49337W        W21685  12.791  14.824   3.701
49338W        W21686  28.034  20.530   3.234
49339W        W21687  10.863  40.338  13.808
49340W        W21688  31.429  15.227  12.541
49341W        W21689  13.750  34.088  12.920
49342W        W21690  34.444   4.418  11.111
49343W        W21691  18.672  32.131   0.284
49344W        W21692  28.133  38.041   0.895
49345W        W21693  21.025  24.559  11.532
49346W        W21694  17.068  42.365   2.415
49347W        W21695  40.490  42.796   2.222
49348W        W21696   6.334  39.974   3.370
49349W        W21697  13.313  15.133   1.729
49350W        W21698  12.180  22.720   4.223
49351W        W21699   9.646  40.044   3.857
49352W        W21700  24.691  35.068   3.199
49353W        W21701   7.269  40.821   1.761
49354W        W21702   8.161  16.700   2.897
49355W        W21703  25.666  43.502   2.384
49356W        W21704  34.984  44.780   0.740
49357W        W21705  29.493   9.724  13.951
49358W        W21706  25.164  31.481  11.442
49359W        W21707  17.591  12.729   2.284
49360W        W21708   9.660  26.547   2.725
49361W        W21709  22.689  34.612  11.591
49362W        W21710  17.105  42.809  14.972
49363W        W21711   6.286   3.395  13.460
49364W        W21712  39.963  29.621  13.371
49365W        W21713  16.083  33.541   1.842
49366W        W21714  39.366   8.200   0.911
49367W        W21715  15.668  18.176  14.025
49368W        W21716  41.296  23.205   4.731
49369W        W21717  20.032  25.029  12.368
49370W        W21718   0.460  15.152   4.192
49371W        W21719  32.636  28.157   0.376
49372W        W21720  29.951  28.030  11.592
49373W        W21721  15.121  32.469   1.914
49374W        W21722  18.280  27.157  13.962
49375W        W21723   2.455   8.273   4.775
49376W        W21724   6.194   4.433   4.333
49377W        W21725  19.264  34.952   0.267
49378W        W21726  39.852   7.672  10.427
49379W        W21727  18.126  32.397  13.866
49380W        W21728   1.765  25.699   1.930
49381W        W21729  12.315  14.755   4.599
49382W        W21730  34.391  34.549  12.092
49383W        W21731   0.291  41.387  12.382
49384W        W21732  25.544   2.795   3.370
49385W        W21733  30.445  24.513  14.971
49386W        W21734  10.795  22.635  13.319
49387W        W21735  28.498  12.827  14.978
49388W        W21736  38.532  17.802   1.887
49389W        W21737   7.746  12.260  12.339
49390W        W21738  41.441   9.172   2.826
49391W        W21739  22.011  25.662   2.313
49392W        W21740  12.324  34.563   3.248
49393W        W21741  39.529  10.325  13.831
49394W        W21742   8.719  26.682  10.455
49395W        W21743   2.734   4.424  12.971
49396W        W21744   4.349  19.751  14.331
49397W        W21745  32.577   4.449   0.273
49398W        W21746  39.538  18.548  14.031
49399W        W21747  35.947  24.660   4.660
49400W        W21748  44.359  22.226   2.413
49401W        W21749  36.411  20.555  12.400
49402W        W21750  25.690  39.043  11.975
49403W        W21751   0.965  29.119   0.392
49404W        W21752  35.950  33.464   4.683
49405W        W21753  19.175  23.984   3.754
49406W        W21754  26.026  24.092  11.574
49407W        W21755  19.679  37.013  12.451
49408W        W21756  12.735  12.166  11.404
49409W        W21757  17.240  43.935   3.341
49410W        W21758  26.161  12.810   2.246
49411W        W21759   5.800   3.453   1.366
49412W        W21760   5.771  43.803  13.963
49413W        W21761  31.975   1.971  13.910
49414W        W21762  16.090  36.522   3.362
49415W        W21763  22.152  20.649  14.419
49416W        W21764  17.209   8.170  14.013
49417W        W21765  17.215  22.059   4.128
49418W        W21766  17.186   0.327  11.372
49419W        W21767   6.392  25.520   0.804
49420W        W21768  44.874  22.582   0.854
49421W        W21769   6.740  43.966  14.971
49422W        W21770   1.731  10.259   4.713
49423W        W21771   0.892  24.153   0.448
49424W        W21772  17.664  44.361   1.338
49425W        W21773  13.292   5.234  13.872
49426W        W21774  35.579  10.342  11.589
49427W        W21775  15.819   3.380  11.568
49428W        W21776  36.390   7.856  14.276
49429W        W21777   6.319  34.408   1.725
49430W        W21778  25.029   9.221   0.331
49431W        W21779  19.559  16.167   4.220
49432W        W21780   4.373  28.521  12.055
49433W        W21781   2.430  37.939  14.819
49434W        W21782  29.123  21.209   4.215
49435W        W21783   2.443   7.884  13.482
49436W        W21784  27.568  41.847  12.941
49437W        W21785  44.260   2.803   3.774
49438W        W21786   4.395  25.570   2.826
49439W        W21787   1.451  38.487  14.389
49440W        W21788  10.657   3.374   3.186
49441W        W21789  30.023   1.857   0.452
49442W        W21790  15.632  31.432   3.843
49443W        W21791   9.722  20.648  14.503
49444W        W21792  16.751  26.027  12.523
49445W        W21793   3.883  22.536  10.442
49446W        W21794  29.474   6.846  13.895
49447W        W21795  29.016   7.192   4.293
49448W        W21796  42.473  39.507   2.186
49449W        W21797  41.475  38.988   3.703
49450W        W21798  22.115  36.884  11.546
49451W        W21799  41.502  30.640  11.922
49452W        W21800   1.252  32.397  13.904
49453W        W21801  34.539   9.307  14.911
49454W        W21802  42.014  26.693  11.477
49455W        W21803  26.087  29.644  12.500
49456W        W21804  28.930  17.576  12.492
49457W        W21805  36.008  23.594  10.586
49458W        W21806  17.170  40.320  10.568
49459W        W21807   5.892  22.059   3.865
49460W        W21808   8.169  35.100  14.435
49461W        W21809   0.386  10.671   0.251
49462W        W21810   8.760   4.936   3.149
49463W        W21811  13.262  17.617   0.377
49464W        W21812  27.501  41.437   0.322
49465W        W21813   0.939  11.808   4.280
49466W        W21814  42.441  24.498   2.716
49467W        W21815  20.621  14.278  10.934
49468W        W21816   7.739  12.184  14.385
49469W        W21817  33.941  43.980  14.495
49470W        W21818   2.734  24.582  12.437
49471W        W21819  39.457  26.112   1.355
49472W        W21820  29.010  32.037   1.744
49473W        W21821  40.019   2.270   2.245
49474W        W21822  13.307   9.752   3.743
49475W        W21823  21.752  17.090  11.567
49476W        W21824  16.107   9.669   0.443
49477W        W21825  20.669  17.660  10.561
49478W        W21826  18.780  25.140   2.865
49479W        W21827  20.591  31.623   1.257
49480W        W21828  13.752  18.745  14.828
49481W        W21829  24.105  15.106  10.502
49482W        W21830  22.124  18.073  11.390
49483W        W21831  17.692  24.515  10.435
49484W        W21832  38.534  36.576  11.017
49485W        W21833  24.611  44.307  12.389
49486W        W21834   6.807  17.781   1.430
49487W        W21835  29.517   6.847  10.527
49488W        W21836  21.638  40.921  13.434
49489W        W21837  16.226   0.780   1.266
49490W        W21838   1.861  29.428  14.862
49491W        W21839   6.310   9.720   2.400
49492W        W21840   5.751  22.550   0.397
49493W        W21841  18.164  35.381   4.242
49494W        W21842  17.558   7.336  13.982
49495W        W21843  35.949  17.699  11.919
49496W        W21844   9.319  30.122  14.343
49497W        W21845   9.770   0.817   1.713
49498W        W21846  36.547  36.081  13.502
49499W        W21847  24.591  11.779  10.408
49500W        W21848  43.891  28.568  14.816
49501W        W21849  31.411  28.585   1.781
49502W        W21850   7.346  42.369  11.442
49503W        W21851  29.639  39.480  14.896
49504W        W21852  17.130  13.242   3.815
49505W        W21853  39.435  30.956   2.192
49506W        W21854   0.877  37.363   3.166
49507W        W21855  11.341  29.579  13.911
49508W        W21856  23.718  24.623  12.409
49509W        W21857   0.359  28.508   1.221
49510W        W21858  18.226  11.629   2.664
49511W        W21859  10.197  21.660   3.646
49512W        W21860   6.351  40.036   4.283
49513W        W21861  37.041   7.250  10.998
49514W        W21862  39.959  18.783  11.091
49515W        W21863  32.601  17.666  11.086
49516W        W21864  30.916   4.828   1.904
49517W        W21865  30.469  15.087   2.786
49518W        W21866  22.660  18.147   2.206
49519W        W21867  24.126  34.495   1.892
49520W        W21868  19.261   4.295  13.475
49521W        W21869   2.894  28.488   3.691
49522W        W21870  37.387  44.269   0.479
49523W        W21871  29.072   2.416  10.470
49524W        W21872  18.222   9.217  14.789
49525W        W21873  34.108  23.683  12.963
49526W        W21874   2.820  16.567   1.746
49527W        W21875  28.929  22.190  10.485
49528W        W21876  11.763  35.528   3.636
49529W        W21877   7.180   2.340   0.481
49530W        W21878  44.479  29.558  13.828
49531W        W21879  21.661   0.329  10.460
49532W        W21880   6.812   1.253   4.258
49533W        W21881  35.877  38.076   1.235
49534W        W21882  38.390  41.028   3.766
49535W        W21883  29.101  34.525  13.994
49536W        W21884   2.872   1.282  11.881
49537W        W21885  31.498  40.342   1.934
49538W        W21886  18.614  19.541  14.296
49539W        W21887  41.888  17.278   4.352
49540W        W21888   4.351  20.070  11.401
49541W        W21889  11.667  10.344   1.267
49542W        W21890  20.529  20.128  13.534
49543W        W21891  14.663  38.333   4.837
49544W        W21892  41.300  24.522  11.992
49545W        W21893  33.498   2.445   1.242
49546W        W21894  30.970  14.793  14.769
49547W        W21895  11.343   2.818  11.975
49548W        W21896  11.193   3.716  10.466
49549W        W21897  40.803   0.830   1.805
49550W        W21898   3.348  12.120   4.268
49551W        W21899  13.122  33.579  13.810
49552W        W21900  40.323  12.330   3.638
49553W        W21901   0.783  41.515   4.713
49554W        W21902  44.342   1.316  13.507
49555W        W21903   8.720   1.456   2.382
49556W        W21904  21.674  32.121  12.440
49557W        W21905   0.772   1.363  13.327
49558W        W21906  12.317   9.710  13.910
49559W        W21907   1.888  36.976  13.403
49560W        W21908   8.170  31.912  10.067
49561W        W21909  42.905  29.499  12.580
49562W        W21910  17.260   8.314   0.833
49563W        W21911  18.173   4.844  12.831
49564W        W21912  16.268  22.730   4.804
49565W        W21913  21.751  34.558   4.135
49566W        W21914  34.093   4.934  12.931
49567W        W21915  42.833   5.435   2.743
49568W        W21916  14.159  27.565  14.830
49569W        W21917   1.951   2.294  12.087
49570W        W21918  38.064   2.938  11.038
49571W        W21919  11.309  16.138   4.142
49572W        W21920  44.905  31.980  10.641
49573W        W21921  22.063  12.714   3.288
49574W        W21922  26.687  42.401  14.000
49575W        W21923  24.637  42.451  12.889
49576W        W21924   2.850  26.461   9.927
49577W        W21925  17.066  22.098  11.500
49578W        W21926  18.622  33.573  12.527
49579W        W21927   4.838   4.236  12.857
49580W        W21928  18.095  24.219  13.002
49581W        W21929  43.799  33.529   9.956
49582W        W21930  11.752  18.241   4.742
49583W        W21931  15.782  32.572   3.800
49584W        W21932  23.701  34.907  12.524
49585W        W21933  23.568  25.608  13.908
49586W        W21934  38.952  36.394  12.083
49587W        W21935  44.861  42.454  12.407
49588W        W21936  26.075  13.333   0.375
49589W        W21937  41.322  11.729  11.571
49590W        W21938  27.593  11.701   3.810
49591W        W21939  23.227   8.304  13.883
49592W        W21940  24.218  37.941  14.947
49593W        W21941  15.321  17.689  11.006
49594W        W21942  13.606  35.885  11.551
49595W        W21943  33.908  10.716  11.965
49596W        W21944  28.117  17.234  12.938
49597W        W21945  23.724   6.392   1.933
49598W        W21946   8.371   0.788  12.046
49599W        W21947  42.462  32.566  14.504
49600W        W21948   7.403   0.912  10.972
49601W        W21949  28.983   4.251   0.301
49602W        W21950   9.352   5.408  14.373
49603W        W21951   4.398  28.544  14.367
49604W        W21952   0.408   3.818   2.893
49605W        W21953  39.839  25.582  12.025
49606W        W21954  25.584   7.807   0.858
49607W        W21955  36.517  26.968   4.739
49608W        W21956   3.425  33.532   2.762
49609W        W21957  21.687  25.141  14.301
49610W        W21958  38.857  22.645  10.889
49611W        W21959  35.006   9.844  11.060
49612W        W21960  14.329   3.771   0.360
49613W        W21961  17.602  12.854   9.630
49614W        W21962  14.665  27.597   3.673
49615W        W21963  42.406  10.147   2.182
49616W        W21964  43.468   8.730  14.782
49617W        W21965  29.620  23.581  12.446
49618W        W21966  39.005  33.449  14.937
49619W        W21967  43.822  19.175  14.466
49620W        W21968  15.738  36.438  11.522
49621W        W21969  44.937  38.044   2.797
49622W        W21970  16.080  11.261  11.462
49623W        W21971  29.613   8.853   1.874
49624W        W21972  35.038  21.030   2.287
49625W        W21973  33.012  35.969   1.809
49626W        W21974  20.214  23.084  14.997
49627W        W21975  14.801   1.791  12.517
49628W        W21976  10.166   9.876  13.916
49629W        W21977   4.712   2.794   0.782
49630W        W21978  29.576  30.162   4.262
49631W        W21979  30.017  15.780  10.959
49632W        W21980  44.869  25.070  12.460
49633W        W21981  39.045  26.565  14.398
49634W        W21982  32.939  41.372   3.789
49635W        W21983  37.997  23.553  12.964
49636W        W21984  39.982  23.128  12.854
49637W        W21985  16.284  32.420   4.201
49638W        W21986   7.297  18.102  11.105
49639W        W21987   5.326   9.289   4.828
49640W        W21988  24.517  35.520   0.351
49641W        W21989  26.593  16.113   3.721
49642W        W21990  16.783  42.340   2.824
49643W        W21991  44.858  36.052   0.876
49644W        W21992  13.809  15.738   3.757
49645W        W21993  27.011  39.977  14.287
49646W        W21994  29.120   4.942   1.787
49647W        W21995  33.517  33.608   2.664
49648W        W21996  30.977  29.654  14.316
49649W        W21997  21.584  34.419  13.503
49650W        W21998  14.702  13.759  10.630
49651W        W21999  41.980  25.976  11.102
49652W        W22000  33.415   7.300   3.263
49653W        W22001  22.642  19.611  12.406
49654W        W22002   1.906   4.398  10.416
49655W        W22003  30.956  21.234  14.453
49656W        W22004  28.436  23.697  14.380
49657W        W22005  40.838   3.309   2.301
49658W        W22006  21.539  43.825  13.970
49659W        W22007   9.211  36.578   4.221
49660W        W22008  38.344  33.460   1.722
49661W        W22009  41.383  31.140  14.873
49662W        W22010  28.509  38.953  12.874
49663W        W22011   7.762  11.699  11.114
49664W        W22012  16.666  20.262  10.949
49665W        W22013   2.918  12.794   1.747
49666W        W22014   3.790  17.074  14.842
49667W        W22015  10.179   5.394   3.642
49668W        W22016  28.524  29.548   2.373
49669W        W22017  18.703   0.382  14.448
49670W        W22018  36.353  25.208  11.969
49671W        W22019  31.922  26.958  10.530
49672W        W22020   2.892   3.275   3.294
49673W        W22021  11.248   4.867   1.712
49674W        W22022  11.333  13.287  12.530
49675W        W22023  14.228  10.326  13.950
49676W        W22024  21.704  18.162  11.035
49677W        W22025   8.822  11.704   5.153
49678W        W22026   7.351  16.073  11.585
49679W        W22027  13.157   0.749   2.747
49680W        W22028  18.760  30.427   4.215
49681W        W22029  39.993   9.149   4.805
49682W        W22030  14.330  26.538  14.343
49683W        W22031  17.190   0.280   2.215
49684W        W22032  36.018  40.015  13.009
49685W        W22033  14.734  12.666   1.334
49686W        W22034  10.847  40.902  14.371
49687W        W22035  36.571  27.944  11.443
49688W        W22036  25.514  10.157   0.356
49689W        W22037  36.042  40.028   1.818
49690W        W22038  33.902   7.853  13.840
49691W        W22039   2.961  18.137  13.467
49692W        W22040  32.441  21.148   2.209
49693W        W22041  22.594  42.917  12.066
49694W        W22042   0.982  25.108  14.832
49695W        W22043  37.543  39.921   0.782
49696W        W22044  26.053   9.324  11.038
49697W        W22045   9.367  13.136  13.503
49698W        W22046  40.545  13.336  11.500
49699W        W22047  32.487  11.779   1.748
49700W        W22048   1.268  36.049  11.922
49701W        W22049  34.386   7.237   0.254
49702W        W22050  44.477   3.801  10.982
49703W        W22051  26.662  23.532   3.176
49704W        W22052   9.805  29.944  14.356
49705W        W22053  43.959  42.309   4.681
49706W        W22054  16.626  21.160   3.385
49707W        W22055   5.372   1.758   2.403
49708W        W22056  36.866  23.072  10.104
49709W        W22057  21.686   5.715   0.880
49710W        W22058  23.650  38.063  14.472
49711W        W22059   2.401  21.111   1.733
49712W        W22060  44.297  12.225   1.885
49713W        W22061  34.979  33.087  14.401
49714W        W22062  14.689   8.400   0.866
49715W        W22063   4.870  15.125  13.879
49716W        W22064  24.051  15.278  12.518
49717W        W22065  14.149  11.845   4.782
49718W        W22066  33.052   3.385   3.720
49719W        W22067  42.928   3.215  10.905
49720W        W22068  11.130  21.752  13.809
49721W        W22069   5.354  38.440  12.425
49722W        W22070  40.997  18.744  14.822
49723W        W22071  44.365   2.727  14.924
49724W        W22072   1.240  44.477  14.934
49725W        W22073  11.361  29.088   3.809
49726W        W22074  21.640  37.909   1.704
49727W        W22075   3.793  37.371  13.851
49728W        W22076  41.837  30.561   5.094
49729W        W22077  14.159  12.828  13.958
49730W        W22078  19.214   6.308   3.285
49731W        W22079  10.158   9.879  14.515
49732W        W22080  35.574   9.782   3.807
49733W        W22081  26.189   6.757   3.253
49734W        W22082   1.790  30.984   4.135
49735W        W22083  19.191   2.270  10.474
49736W        W22084  11.743  17.770  11.506
49737W        W22085  26.046   0.930  14.450
49738W        W22086  21.608  15.629   3.775
49739W        W22087   2.740   3.904   3.350
49740W        W22088  36.466  18.105  12.343
49741W        W22089  20.184  42.476   0.917
49742W        W22090   1.967  31.949   5.135
49743W        W22091  29.977  19.155  13.910
49744W        W22092  13.748  20.585  10.536
49745W        W22093  38.057  14.229   2.750
49746W        W22094  34.486  31.917   2.336
49747W        W22095   9.669  31.077   4.326
49748W        W22096  12.723  31.627   1.227
49749W        W22097  28.676  37.858  11.119
49750W        W22098  32.504  25.500  14.829
49751W        W22099  13.654  25.657   3.364
49752W        W22100  17.085   6.693  10.608
49753W        W22101  11.860  10.328   5.272
49754W        W22102   2.362  33.550   3.825
49755W        W22103  29.542   7.848   3.825
49756W        W22104   0.408  21.207  10.546
49757W        W22105   5.355   9.237   4.265
49758W        W22106  14.620  18.126   4.247
49759W        W22107  14.613  44.856   2.740
49760W        W22108  30.909  44.290   2.222
49761W        W22109   7.826  32.467   2.698
49762W        W22110  28.156  32.020   5.133
49763W        W22111  35.979  34.396   4.311
49764W        W22112  37.065   5.305  11.467
49765W        W22113  14.283   5.251   3.678
49766W        W22114  34.527  13.273  14.847
49767W        W22115  33.550   2.776   3.272
49768W        W22116  29.026  34.559  12.373
49769W        W22117  27.530  24.109   4.160
49770W        W22118  36.036  38.948  13.488
49771W        W22119   3.947  18.608  12.359
49772W        W22120  13.306  36.465  12.975
49773W        W22121  32.485  11.709   0.728
49774W        W22122  24.517  40.360   1.703
49775W        W22123  33.940  19.775   2.353
49776W        W22124  15.131  36.496   4.653
49777W        W22125   8.217  42.525  12.378
49778W        W22126  18.252  26.017  13.526
49779W        W22127  14.156  25.701   0.294
49780W        W22128  16.808   6.784  10.612
49781W        W22129   4.850  20.155  13.994
49782W        W22130   1.751  43.466   2.249
49783W        W22131  28.594   7.730  12.980
49784W        W22132  35.859  19.039   2.185
49785W        W22133  30.109  20.687   3.678
49786W        W22134  33.037  30.451   3.689
49787W        W22135   7.331   5.740   1.245
49788W        W22136  14.289  26.695   3.292
49789W        W22137  10.757  30.140  13.415
49790W        W22138   6.770  11.134   3.790
49791W        W22139  25.508  16.180  12.966
49792W        W22140  33.512  25.002  10.095
49793W        W22141  39.375  17.150   3.631
49794W        W22142   3.881  18.749  10.997
49795W        W22143  42.794   8.317  10.942
49796W        W22144  21.085   2.369   4.262
49797W        W22145  13.163   7.671  12.081
49798W        W22146  30.000  30.144  13.795
49799W        W22147  17.195  25.996  11.456
49800W        W22148  23.229  35.565   2.750
49801W        W22149  31.928  12.815   2.343
49802W        W22150  20.677  22.221  10.605
49803W        W22151  39.932  28.959   0.953
49804W        W22152  44.449  30.655   0.768
49805W        W22153  41.899  14.731  11.405
49806W        W22154  38.071  29.574  11.985
49807W        W22155   6.788   8.767  13.452
49808W        W22156  17.720   7.797  11.404
49809W        W22157   9.188  15.728   3.782
49810W        W22158  32.623  27.495  13.027
49811W        W22159  42.396  28.621   4.256
49812W        W22160  38.959  31.629  14.286
49813W        W22161  11.840  19.588   9.953
49814W        W22162   5.874  12.741  11.593
49815W        W22163   4.424   2.242   3.177
49816W        W22164  19.567   5.215  10.437
49817W        W22165  40.494  17.772   3.203
49818W        W22166   9.780  40.428   0.424
49819W        W22167  35.453  34.930   3.801
49820W        W22168  18.286  36.516  13.433
49821W        W22169  18.718  42.970  14.862
49822W        W22170  19.211  39.338  11.379
49823W        W22171  10.696  17.782   3.704
49824W        W22172   5.330   8.351   3.167
49825W        W22173  16.263   0.306  12.057
49826W        W22174  16.808   3.787  14.478
49827W        W22175  39.854  25.601   4.681
49828W        W22176  33.062  36.549   0.831
49829W        W22177   8.188  17.243   1.375
49830W        W22178   2.332   5.234  13.397
49831W        W22179  18.283  23.060  12.964
49832W        W22180  10.669   9.887   4.743
49833W        W22181  38.467  38.048   1.704
49834W        W22182  23.192  36.086   0.900
49835W        W22183  44.837  23.572   0.408
49836W        W22184  22.562  29.963   3.673
49837W        W22185  23.144   3.733   3.668
49838W        W22186  15.790  17.064  10.411
49839W        W22187  38.499  27.081   3.857
49840W        W22188   0.854   5.344  11.484
49841W        W22189  38.965   2.810  14.759
49842W        W22190  38.493   8.696  12.341
49843W        W22191  22.591   3.455  13.524
49844W        W22192  38.935   6.290  10.977
49845W        W22193  16.777   8.294   2.859
49846W        W22194  17.792  25.074  14.442
49847W        W22195  22.017  23.195  10.569
49848W        W22196  34.052  35.591   5.229
49849W        W22197  38.475  20.631  14.281
49850W        W22198  25.988  19.238  14.015
49851W        W22199  25.569  41.920  11.884
49852W        W22200  10.722  29.043   2.252
49853W        W22201  10.650  26.045   1.223
49854W        W22202   9.743  11.830   3.229
49855W        W22203  13.604  10.211   3.369
49856W        W22204  20.612  38.389   4.783
49857W        W22205  35.588  26.566   0.958
49858W        W22206   7.692  38.381  13.460
49859W        W22207  28.081   7.805   0.913
49860W        W22208  25.565  30.157   1.339
49861W        W22209  18.693  31.941  12.461
49862W        W22210  19.673   1.741   1.257
49863W        W22211  15.084  39.438  12.033
49864W        W22212  26.508  14.815   1.849
49865W        W22213  37.986   4.254   2.673
49866W        W22214  36.983  18.058   2.733
49867W        W22215  11.343  14.190  13.329
49868W        W22216   9.289  10.650  13.020
49869W        W22217  37.000   2.420   4.804
49870W        W22218   9.385  24.170  10.011
49871W        W22219  11.192  27.008   0.880
49872W        W22220  30.614  44.473  10.502
49873W        W22221  20.574  26.076   2.734
49874W        W22222  35.949  29.615   4.705
49875W        W22223   3.278   0.987  12.908
49876W        W22224  26.166  21.536   3.806
49877W        W22225  30.969  17.170   3.754
49878W        W22226  25.470  28.485   0.867
49879W        W22227  12.149  41.954  13.351
49880W        W22228  13.236  29.607  14.926
49881W        W22229  43.515  16.651   3.217
49882W        W22230  26.456  31.093   3.236
49883W        W22231  10.748   5.892  13.902
49884W        W22232  26.997  38.006  11.104
49885W        W22233  23.556  35.998   2.194
49886W        W22234  20.657  17.117  12.869
49887W        W22235  34.001  11.220   2.332
49888W        W22236  18.709   3.826  12.391
49889W        W22237  32.612  22.010  11.504
49890W        W22238  16.155   1.790  11.072
49891W        W22239   9.859   4.775   3.682
49892W        W22240  32.080  19.136  13.547
49893W        W22241   0.343  43.958   0.442
49894W        W22242  34.920  43.435   0.925
49895W        W22243  40.493  17.169   2.853
49896W        W22244  33.383  18.646  14.950
49897W        W22245  36.095  11.223  11.548
49898W        W22246  28.179   4.907   4.643
49899W        W22247   6.878  39.046   2.807
49900W        W22248   1.778   9.693  13.959
49901W        W22249  13.117  11.819   3.337
49902W        W22250  18.662  14.698  12.375
49903W        W22251  44.295  32.506   2.877
49904W        W22252  16.786  44.936  14.481
49905W        W22253  40.900   7.796  13.950
49906W        W22254   8.848   7.666   4.694
49907W        W22255  27.485  34.884   4.313
49908W        W22256  38.026  39.409  12.942
49909W        W22257  40.865  15.179  12.379
49910W        W22258  26.964   1.915  11.979
49911W        W22259  40.013  37.868   3.820
49912W        W22260  37.509  42.838   1.842
49913W        W22261  24.054  12.664  14.461
49914W        W22262  37.961  39.808  12.371
49915W        W22263  38.877  14.615  13.044
49916W        W22264  43.322  28.462   2.878
49917W        W22265  22.011  14.598   2.851
49918W        W22266  44.285  41.023   1.902
49919W        W22267  10.210  31.421   1.810
49920W        W22268  11.625  40.852  14.303
49921W        W22269  12.288  13.135  13.505
49922W        W22270   2.941  27.494  11.940
49923W        W22271  11.699   5.717   0.293
49924W        W22272   8.813  36.517  10.586
49925W        W22273  31.075   8.694   0.415
49926W        W22274   7.346  32.563  12.470
49927W        W22275  25.218  44.996   2.340
49928W        W22276   5.431   7.860  13.933
49929W        W22277  23.079  19.547   2.286
49930W        W22278   4.301  21.223   1.885
49931W        W22279  36.490   1.826  10.620
49932W        W22280  30.435   9.761  11.001
49933W        W22281  27.191  33.124   0.243
49934W        W22282  24.981  25.517   2.320
49935W        W22283  25.179  27.692   4.731
49936W        W22284  18.736  26.457   4.270
49937W        W22285  42.934  19.572   0.345
49938W        W22286   4.241  44.470   0.910
49939W        W22287  17.222  16.282  11.405
49940W        W22288  18.120  28.445  12.036
49941W        W22289  33.535  15.092  11.527
49942W        W22290  37.557  17.735   0.849
49943W        W22291  28.142  36.377   3.311
49944W        W22292  31.031   0.767   2.258
49945W        W22293   8.393  18.160   2.183
49946W        W22294  39.410   2.882  11.864
49947W        W22295  33.502  18.056  13.537
49948W        W22296  13.717  23.099   2.740
49949W        W22297   4.788  22.732  13.386
49950W        W22298  17.146  25.072  11.092
49951W        W22299   7.669  11.154  14.893
49952W        W22300   7.262   8.883  13.478
49953W        W22301  25.547  35.456   0.911
49954W        W22302  10.736  15.764  12.042
49955W        W22303   4.293   3.221   2.415
49956W        W22304  16.078   9.290  13.514
49957W        W22305  31.415  16.706  11.977
49958W        W22306   6.327   3.365  14.794
49959W        W22307  19.543  30.008  11.990
49960W        W22308  36.017  39.523  10.559
49961W        W22309  36.581  12.276  13.912
49962W        W22310  32.137  11.276  12.378
49963W        W22311  38.455  26.011  10.498
49964W        W22312  27.466   4.883  12.510
49965W        W22313  19.736  39.445  13.837
49966W        W22314  36.361  29.960  13.942
49967W        W22315  44.798  25.176   0.360
49968W        W22316  23.645   2.806   3.861
49969W        W22317  34.021  24.534   0.899
49970W        W22318   9.685  34.064  14.275
49971W        W22319   6.678  11.129  11.532
49972W        W22320  34.102  35.957   2.209
49973W        W22321   3.402   0.330   1.323
49974W        W22322  14.831  20.663   3.321
49975W        W22323  37.927  16.314   3.760
49976W        W22324  18.278  12.852  14.878
49977W        W22325   1.301  40.986   3.642
49978W        W22326  17.179   5.283   4.653
49979W        W22327   7.321  41.408  14.899
49980W        W22328  24.168  18.108   4.742
49981W        W22329  12.232  37.499  12.006
49982W        W22330  43.819   0.749   3.695
49983W        W22331  21.600  17.146   9.957
49984W        W22332   1.444  13.138   3.703
49985W        W22333  14.754  35.007  13.981
49986W        W22334  38.851  43.501  13.969
49987W        W22335  15.650  38.475   2.844
49988W        W22336   4.222  37.512   2.798
49989W        W22337  16.704  17.711   4.120
49990W        W22338  32.132  29.991  12.533
49991W        W22339  20.079  30.104   0.926
49992W        W22340  14.660   4.788  10.047
49993W        W22341  35.394  39.871  12.956
49994W        W22342  14.664  43.330   3.667
49995W        W22343  43.455  15.308   2.193
49996W        W22344  37.461  22.084  14.950
49997W        W22345  36.941  44.432  13.044
49998W        W22346  43.367  33.032   1.416
49999W        W22347  35.398  31.473  10.587
50000W        W22348   9.226  39.450   0.764
50001W        W22349  30.918  34.973  10.933
50002W        W22350  13.270  40.986   4.193
50003W        W22351  35.402   8.657   1.423
50004W        W22352  43.339  22.505   0.402
50005W        W22353  35.107  20.212   3.822
50006W        W22354  34.914  43.910   0.369
50007W        W22355  15.708  28.035  13.910
50008W        W22356  27.530   7.716   3.167
50009W        W22357  25.084  29.443   3.796
50010W        W22358  16.623   2.923  12.568
50011W        W22359  32.105  40.528  12.970
50012W        W22360  32.058   6.373   1.436
50013W        W22361  37.860  39.560   3.865
50014W        W22362   4.315  34.018   1.826
50015W        W22363   1.255   5.360   3.365
50016W        W22364  42.296  44.424  11.535
50017W        W22365  34.973  10.184  11.514
50018W        W22366   4.270   8.753  10.557
50019W        W22367  21.627  27.191  12.387
50020W        W22368   3.738  13.767   3.202
50021W        W22369   0.335  42.405  10.465
50022W        W22370   5.893  38.982   1.278
50023W        W22371  28.982  33.950   3.631
50024W        W22372  36.501  13.280   4.658
50025W        W22373  40.507  22.152   3.318
50026W        W22374  34.933  26.144   2.199
50027W        W22375  35.364  12.203  14.848
50028W        W22376  13.604   2.936  10.479
50029W        W22377   9.724  28.965   3.867
50030W        W22378  43.391  23.990  13.874
50031W        W22379  38.896  40.035  10.552
50032W        W22380   6.728   6.348   4.619
50033W        W22381   2.451   0.866  13.467
50034W        W22382  17.094  36.567   4.224
50035W        W22383  31.082  30.512  12.969
50036W        W22384  13.330  38.369  10.536
50037W        W22385   4.784   1.446   3.186
50038W        W22386  17.743  15.611  11.887
50039W        W22387   7.778  35.361   0.432
50040W        W22388  33.480   7.222  14.947
50041W        W22389  36.942  40.506  14.027
50042W        W22390  34.059  22.063  11.114
50043W        W22391  10.195  40.857   1.274
50044W        W22392   0.333  33.090  10.466
50045W        W22393  16.280  32.993   0.798
50046W        W22394  24.175   6.775  14.897
50047W        W22395  16.278  21.634  12.406
50048W        W22396   0.932   0.260   1.704
50049W        W22397   9.802  20.526  11.574
50050W        W22398  26.469  27.500  13.338
50051W        W22399  35.861  18.258  13.842
50052W        W22400  19.585  23.121  11.112
50053W        W22401  25.701  10.227   3.634
50054W        W22402  19.161  30.006  10.487
50055W        W22403  15.265  41.927   1.389
50056W        W22404  43.014  42.982  11.464
50057W        W22405  34.472  30.077   3.363
50058W        W22406  26.190  17.569   4.780
50059W        W22407  35.583  25.633  12.896
50060W        W22408   0.293  17.082  12.843
50061W        W22409   9.884  35.007  11.537
50062W        W22410  37.938  25.991   3.252
50063W        W22411  43.512  16.731   2.229
50064W        W22412  33.981  15.220  11.579
50065W        W22413   4.354  11.762   3.830
50066W        W22414  15.227  11.679  13.327
50067W        W22415  17.679  30.140  12.408
50068W        W22416  33.553  25.528   1.753
50069W        W22417  43.365  14.261   5.227
50070W        W22418  32.930  29.561  13.470
50071W        W22419   9.863  25.155   0.456
50072W        W22420  28.964  29.164  14.468
50073W        W22421  14.691  15.645  14.926
50074W        W22422   4.906  33.389  13.467
50075W        W22423  31.931  36.998   5.153
50076W        W22424  13.105  24.018  12.977
50077W        W22425  25.657   9.387  11.079
50078W        W22426  29.490  13.779  14.393
50079W        W22427  33.444  40.430  10.515
50080W        W22428  40.447  24.078   5.088
50081W        W22429  18.790  28.643   3.678
50082W        W22430   1.374  37.401  13.807
50083W        W22431  33.130  40.353  14.425
50084W        W22432   2.771  40.850   2.326
50085W        W22433   5.198  38.406   3.339
50086W        W22434  37.582  19.204  10.568
50087W        W22435  19.281  30.972   4.606
50088W        W22436  16.631   7.717   4.296
50089W        W22437  41.374  40.910  13.476
50090W        W22438   9.783  42.491   3.716
50091W        W22439   8.251  34.401   4.707
50092W        W22440  23.539  41.464   2.702
50093W        W22441  34.520  26.127  12.831
50094W        W22442  12.796  38.997  10.486
50095W        W22443  11.279  24.580  10.900
50096W        W22444   6.696  20.125   1.378
50097W        W22445  12.747  36.466   3.752
50098W        W22446  35.897   2.336  11.104
50099W        W22447  25.521  14.178   0.859
50100W        W22448  32.596  32.983  11.600
50101W        W22449  25.499  26.072  13.859
50102W        W22450  44.494   8.233  14.349
50103W        W22451  39.030  41.497  13.979
50104W        W22452  20.273  41.325  14.770
50105W        W22453  33.048  38.385   1.311
50106W        W22454  35.044  19.236   3.354
50107W        W22455  29.668  39.894  11.908
50108W        W22456  10.309  32.969  10.118
50109W        W22457  33.913   6.858  13.432
50110W        W22458  23.171  29.450  13.846
50111W        W22459  25.698  36.348   2.709
50112W        W22460  14.122  31.040  11.381
50113W        W22461  25.605  11.638  14.794
50114W        W22462  19.729  13.166   3.697
50115W        W22463   0.301   9.774   3.281
50116W        W22464  39.402  12.667   3.855
50117W        W22465  35.501  30.925   0.866
50118W        W22466  36.918  17.106   4.144
50119W        W22467   8.367  34.045   1.354
50120W        W22468  29.587   2.810  11.027
50121W        W22469  23.085  35.097  10.525
50122W        W22470  25.679  42.470   4.662
50123W        W22471  11.686  10.252  14.016
50124W        W22472  14.716  43.343   2.267
50125W        W22473   6.754  34.065   0.373
50126W        W22474  15.653  13.663  12.013
50127W        W22475  26.676  26.055  14.325
50128W        W22476  23.565  19.684  11.082
50129W        W22477   6.226  34.880  10.970
50130W        W22478  26.999  37.015  11.006
50131W        W22479  38.864  29.587   1.270
50132W        W22480   8.788  24.196   2.738
50133W        W22481  36.446  33.009   3.284
50134W        W22482  43.837  43.473  13.913
50135W        W22483  42.827  43.821  13.808
50136W        W22484  42.847  33.539  11.015
50137W        W22485   6.778  41.027   4.227
50138W        W22486  43.341  20.069  10.426
50139W        W22487  30.621   7.887  13.864
50140W        W22488  28.450  42.782   5.097
50141W        W22489  25.096   5.432  10.507
50142W        W22490  44.806   8.829   0.408
50143W        W22491   0.344   2.880   2.862
50144W        W22492  17.143  14.647   3.689
50145W        W22493   3.858  22.012   0.441
50146W        W22494  32.949  42.396  12.032
50147W        W22495  17.777  28.539   1.227
50148W        W22496  41.413  40.447  11.447
50149W        W22497  17.270  22.068  14.967
50150W        W22498  40.368  10.314  13.317
50151W        W22499  40.809   6.722  12.356
50152W        W22500  32.449  43.455   0.476
50153W        W22501  35.578  27.040   2.217
50154W        W22502  44.330   6.317   4.658
50155W        W22503  22.669  15.703  14.885
50156W        W22504   3.294  39.490  13.822
50157W        W22505   7.780   7.751   4.148
50158W        W22506   0.378  39.541  11.871
50159W        W22507  43.861  11.684   0.806
50160W        W22508   0.278  17.242  11.103
50161W        W22509  22.519  40.976  11.563
50162W        W22510  40.911   4.411   0.875
50163W        W22511  33.601  44.840   0.886
50164W        W22512  13.764  40.414  13.996
50165W        W22513   9.200   6.907   2.333
50166W        W22514  35.380  22.060  12.921
50167W        W22515  11.207  30.455   1.407
50168W        W22516  43.785   7.312  13.511
50169W        W22517  31.018  42.983   1.826
50170W        W22518  21.149  38.372   3.302
50171W        W22519  19.723  18.595  14.018
50172W        W22520  40.454   5.300  12.967
50173W        W22521  31.509   0.458   2.818
50174W        W22522  41.522  41.824   1.433
50175W        W22523  33.971  13.686   1.449
50176W        W22524  27.997  13.735  12.375
50177W        W22525  41.371  30.510   1.774
50178W        W22526  38.854  43.931  10.921
50179W        W22527  32.953  37.410   4.730
50180W        W22528  12.327  15.122  12.874
50181W        W22529   4.791  36.861  12.569
50182W        W22530   8.828  34.114  10.483
50183W        W22531  32.001  12.668   2.814
50184W        W22532  35.406  37.416   4.805
50185W        W22533  25.495  40.465   0.914
50186W        W22534  16.180  43.935   3.642
50187W        W22535  31.479  24.023   2.266
50188W        W22536  25.141  36.561  12.968
50189W        W22537  37.358  28.177   3.651
50190W        W22538  44.944  12.192   4.337
50191W        W22539  15.207   2.408  11.024
50192W        W22540  33.391  16.687  14.416
50193W        W22541  32.059  13.724   1.840
50194W        W22542  20.707  21.142  11.996
50195W        W22543  17.162  34.943   2.871
50196W        W22544  33.546  25.713   4.242
50197W        W22545  33.065  29.638   4.346
50198W        W22546  19.136  43.508   1.400
50199W        W22547   6.356  22.217   4.641
50200W        W22548  23.017  22.136   4.606
50201W        W22549  30.076  31.564   1.745
50202W        W22550  41.850  28.017   0.956
50203W        W22551   3.309  33.939   0.849
50204W        W22552   6.291   4.357   3.752
50205W        W22553  28.957  18.151  12.061
50206W        W22554  40.963  19.773  14.361
50207W        W22555   2.877  33.545  10.994
50208W        W22556   3.253   3.259   4.635
50209W        W22557  26.191  20.634  14.016
50210W        W22558  31.495  33.513  11.894
50211W        W22559  35.919  20.729  10.026
50212W        W22560  36.564  20.076  13.359
50213W        W22561  20.194  44.936  11.390
50214W        W22562  39.517   6.680  11.003
50215W        W22563  12.614  19.100  10.449
50216W        W22564  18.080  38.326  11.009
50217W        W22565  14.753  26.989   1.825
50218W        W22566   0.888  42.956  11.509
50219W        W22567  16.260  24.497  10.981
50220W        W22568  16.212  21.194   1.848
50221W        W22569   2.351  12.829  13.810
50222W        W22570  39.886  44.927  11.432
50223W        W22571  14.210  39.862  12.006
50224W        W22572  12.132  33.416  14.358
50225W        W22573  24.649  13.680  13.012
50226W        W22574  17.762  42.410  12.008
50227W        W22575  31.437  41.892   0.331
50228W        W22576  35.388  30.609  10.936
50229W        W22577  21.611  17.796  11.495
50230W        W22578  38.996  36.046   0.820
50231W        W22579  24.013  39.825   0.773
50232W        W22580  34.561  30.977  14.812
50233W        W22581  37.347   6.879   1.745
50234W        W22582  36.062  13.145  13.362
50235W        W22583   6.425  18.244  13.463
50236W        W22584  31.539  34.969   2.874
50237W        W22585  28.666  12.711  10.641
50238W        W22586  19.671  31.574  10.569
50239W        W22587  11.357  44.358  12.867
50240W        W22588  36.427  28.083  12.513
50241W        W22589  31.489  28.516  10.561
50242W        W22590  23.677   2.321  12.392
50243W        W22591  24.669  41.948  14.978
50244W        W22592   3.939  40.009   1.907
50245W        W22593  11.305  36.934   3.776
50246W        W22594   0.440  36.465   4.139
50247W        W22595  13.798  42.918  10.542
50248W        W22596   9.193  43.791  14.813
50249W        W22597  40.053  21.684   3.328
50250W        W22598  27.653  38.963   2.215
50251W        W22599  12.280   2.963  10.516
50252W        W22600  41.986  34.437  12.039
50253W        W22601  35.931  19.703   4.824
50254W        W22602   2.726  42.856  13.495
50255W        W22603  27.667  10.800  12.847
50256W        W22604  15.213  13.211   4.639
50257W        W22605  43.930   5.341   0.338
50258W        W22606  32.531   7.712   9.538
50259W        W22607  44.274  21.078   0.464
50260W        W22608  25.587  26.498   5.120
50261W        W22609  22.696  42.998   3.325
50262W        W22610   4.849  44.313  11.586
50263W        W22611   2.760  21.141  10.501
50264W        W22612  11.147   3.326   4.216
50265W        W22613   2.901  39.941   2.863
50266W        W22614  38.063  31.101  11.884
50267W        W22615  44.900  15.239   2.298
50268W        W22616   2.411  28.999   3.752
50269W        W22617  37.049  31.980   0.917
50270W        W22618   9.348  32.978  11.517
50271W        W22619  14.709  26.116  13.924
50272W        W22620  23.105  44.439   1.315
50273W        W22621  36.085  26.084  13.452
50274W        W22622   1.838   0.490  10.445
50275W        W22623  25.032  21.179  13.474
50276W        W22624   6.381   4.346  14.006
50277W        W22625  28.665   3.454  12.469
50278W        W22626   8.716  27.690   0.946
50279W        W22627  18.170  17.151  12.464
50280W        W22628  21.679  27.667  14.501
50281W        W22629  36.889  13.270  11.539
50282W        W22630  28.554  30.112   3.722
50283W        W22631  15.580  20.184  10.920
50284W        W22632  12.332  26.686  12.038
50285W        W22633  29.141   7.833   2.297
50286W        W22634  24.152   5.727   1.857
50287W        W22635  28.629   3.232  12.087
50288W        W22636  21.229  24.686  14.007
50289W        W22637  35.537  22.725   3.266
50290W        W22638  43.813  16.112  12.881
50291W        W22639  17.097  42.417  11.521
50292W        W22640  11.328   5.751   2.298
50293W        W22641  17.218   8.753   4.642
50294W        W22642  37.349  21.240   1.271
50295W        W22643  43.484  42.972   3.740
50296W        W22644  39.010  30.608   4.283
50297W        W22645   0.756  13.821   2.761
50298W        W22646  11.348  21.233   3.828
50299W        W22647  17.686  20.728   4.622
50300W        W22648  17.680  35.055  10.505
50301W        W22649  43.407  30.128  11.611
50302W        W22650   9.677   5.242   1.266
50303W        W22651  43.441  35.853   3.366
50304W        W22652  41.526   0.259   4.800
50305W        W22653  16.113  33.987  12.469
50306W        W22654  33.994  26.572   2.366
50307W        W22655   8.338  42.356   3.707
50308W        W22656   9.361  11.212  13.997
50309W        W22657   7.690  17.657   3.869
50310W        W22658  24.115  34.949   3.359
50311W        W22659  44.410  19.208  11.411
50312W        W22660  11.228  11.756  13.540
50313W        W22661  30.002  23.050   2.297
50314W        W22662   3.451  30.482  11.114
50315W        W22663  25.021   1.294  12.892
50316W        W22664   0.769  30.150   0.867
50317W        W22665  16.694  43.891  13.405
50318W        W22666  15.712  42.999  13.344
50319W        W22667  13.270   2.273   0.436
50320W        W22668   9.309   2.736   2.842
50321W        W22669  30.913   3.434   4.120
50322W        W22670   6.215  35.521  14.428
50323W        W22671  25.510   3.955   3.229
50324W        W22672  19.270  25.027  13.955
50325W        W22673  43.765  36.503  10.576
50326W        W22674  40.881  16.298   0.874
50327W        W22675  44.864  24.709  13.920
50328W        W22676   6.243  38.852   1.405
50329W        W22677  13.136  15.600   2.775
50330W        W22678  27.102  32.454   2.710
50331W        W22679  42.993   7.298  11.407
50332W        W22680  24.664  32.631   3.832
50333W        W22681  23.682  23.736   4.121
50334W        W22682  36.066  12.161  14.843
50335W        W22683   2.449   6.240  14.906
50336W        W22684  22.177  10.740   5.095
50337W        W22685  28.186  39.813  11.432
50338W        W22686  28.037   2.445  13.921
50339W        W22687  40.051  16.636   1.784
50340W        W22688  34.978   4.877   1.421
50341W        W22689  27.104  12.266   0.329
50342W        W22690  14.138  25.965  10.449
50343W        W22691   0.954   3.360  12.867
50344W        W22692  32.621  33.495  14.827
50345W        W22693  12.127   7.289  13.954
50346W        W22694   3.746  17.658   4.299
50347W        W22695   5.265  41.344  11.862
50348W        W22696  25.550  21.514  13.053
50349W        W22697  20.676  44.377  12.365
50350W        W22698  33.990  20.652  14.980
50351W        W22699   5.267  24.500   2.727
50352W        W22700  23.225  11.214   3.635
50353W        W22701  23.165  33.093   4.186
50354W        W22702  28.476  36.561   4.837
50355W        W22703  27.467  33.464   3.763
50356W        W22704  41.508   7.683  13.867
50357W        W22705   1.733  33.595  11.476
50358W        W22706  28.487  13.303  10.598
50359W        W22707  24.062  38.452   3.805
50360W        W22708  12.788  26.161   0.409
50361W        W22709   5.857   6.397   2.805
50362W        W22710  40.434  13.184  12.839
50363W        W22711  26.461  28.013   4.694
50364W        W22712   6.748   3.883   1.858
50365W        W22713  24.583  44.267  11.969
50366W        W22714   3.274  34.080  10.929
50367W        W22715  33.917  43.288  11.016
50368W        W22716  34.051  36.846  11.917
50369W        W22717  30.913  13.291  14.480
50370W        W22718   6.900  28.537  10.934
50371W        W22719  37.375  36.561  10.430
50372W        W22720  14.638  35.078  11.439
50373W        W22721  38.060   5.315  12.917
50374W        W22722   5.877  39.955   4.277
50375W        W22723  33.394  12.762  13.844
50376W        W22724  39.397  38.045   2.860
50377W        W22725  31.993  11.259  10.556
50378W        W22726  24.003  21.060  11.460
50379W        W22727   5.921  19.136  11.599
50380W        W22728  33.458   1.368  10.526
50381W        W22729  41.529  33.502   5.142
50382W        W22730  26.088  15.792  14.811
50383W        W22731  40.811  23.551  14.304
50384W        W22732  34.587  14.653  14.426
50385W        W22733  24.007  13.842  11.413
50386W        W22734  44.399  16.146   4.307
50387W        W22735  39.557  23.107  14.937
50388W        W22736   1.825  29.480   4.631
50389W        W22737  37.959   3.270   2.234
50390W        W22738   4.348  28.548   0.286
50391W        W22739  24.025  26.563  13.519
50392W        W22740  17.223   1.323  13.455
50393W        W22741  33.006  43.344  14.846
50394W        W22742  18.193   4.320  12.431
50395W        W22743   5.815   6.294  14.818
50396W        W22744  18.551   5.352   3.817
50397W        W22745  44.766  15.692  13.388
50398W        W22746  21.634   5.402  12.573
50399W        W22747  44.320  15.313   4.166
50400W        W22748   1.845  13.165   2.875
50401W        W22749   0.891   3.439   1.355
50402W        W22750  39.376  34.396  10.553
50403W        W22751  29.446  14.185   1.893
50404W        W22752  11.301  32.085   1.887
50405W        W22753  15.724  37.422   1.807
50406W        W22754  44.857  31.474   1.441
50407W        W22755  24.046  13.328  14.494
50408W        W22756  28.443  30.113  10.902
50409W        W22757   4.726  43.514  11.993
50410W        W22758   8.774  11.722  13.490
50411W        W22759  21.093  25.539   5.103
50412W        W22760   9.878  30.121   3.271
50413W        W22761   1.273  40.351   1.733
50414W        W22762  17.103  37.067   0.482
50415W        W22763  25.635  29.985   0.845
50416W        W22764  14.222  39.490  10.599
50417W        W22765  27.020  15.733   1.227
50418W        W22766  44.286  17.282  13.864
50419W        W22767  27.609  12.760  10.900
50420W        W22768  35.939   6.394  14.890
50421W        W22769   3.805  35.445   0.435
50422W        W22770  11.300  22.100   0.319
50423W        W22771  36.458  36.897   1.822
50424W        W22772  37.928  36.514   2.193
50425W        W22773  43.915  14.138   1.809
50426W        W22774  15.583   7.340   2.385
50427W        W22775  20.079  16.755   0.308
50428W        W22776   5.241  44.310   3.741
50429W        W22777  13.631   6.370  10.441
50430W        W22778   0.839   4.261   2.271
50431W        W22779  31.997  23.192   4.195
50432W        W22780  44.271  32.060  12.978
50433W        W22781  42.499   1.380  11.877
50434W        W22782  14.621  33.437  13.976
50435W        W22783  14.792  43.922  10.560
50436W        W22784  18.649  19.046  13.896
50437W        W22785  35.385   2.443  13.458
50438W        W22786   1.370  39.032   4.179
50439W        W22787  19.076   2.362   3.681
50440W        W22788  37.836  27.502  13.950
50441W        W22789  38.024  35.455  14.788
50442W        W22790   5.734  41.526   4.186
50443W        W22791  40.455  24.029   3.836
50444W        W22792   0.947  19.143   0.446
50445W        W22793  15.248  27.157   0.732
50446W        W22794  27.054  44.772  10.403
50447W        W22795   6.899  20.627  12.089
50448W        W22796  39.330   3.715  14.843
50449W        W22797  11.638  36.518   1.265
50450W        W22798  32.977   4.937   0.742
50451W        W22799  30.108  16.709  10.966
50452W        W22800   7.190  36.580  13.410
50453W        W22801   0.745  31.420   2.227
50454W        W22802  41.868  17.734   3.853
50455W        W22803   9.767   3.861  11.566
50456W        W22804  30.073   6.739  13.830
50457W        W22805   1.349  22.191  12.403
50458W        W22806  29.648  28.940   3.368
50459W        W22807  37.572   7.265   5.262
50460W        W22808  42.376   2.371   1.751
50461W        W22809   7.253   3.314   3.341
50462W        W22810   8.795  31.933  11.105
50463W        W22811  35.569  26.671  11.412
50464W        W22812  25.561  24.510  13.997
50465W        W22813  32.116  29.108  12.477
50466W        W22814   4.755  42.969   1.287
50467W        W22815  39.917  14.250   1.228
50468W        W22816  27.668  27.969   3.378
50469W        W22817   5.820   7.259  13.426
50470W        W22818  40.536  43.485  12.442
50471W        W22819  38.970  32.457   1.375
50472W        W22820  17.631   8.872  13.391
50473W        W22821   7.668   1.451   4.748
50474W        W22822   9.156  33.459  10.461
50475W        W22823  16.185  44.889   3.361
50476W        W22824  25.027  27.140   4.154
50477W        W22825  21.559   9.332   3.824
50478W        W22826  24.053  35.860   0.802
50479W        W22827  21.086   4.866   4.208
50480W        W22828   7.220  35.956  11.053
50481W        W22829  11.730  18.703   0.462
50482W        W22830  44.438   3.807   3.698
50483W        W22831  19.228  40.536  13.480
50484W        W22832  10.363  27.545   4.219
50485W        W22833  21.177   5.906   1.707
50486W        W22834  41.535  30.005   4.793
50487W        W22835  11.341  16.645   1.823
50488W        W22836   2.909   0.752  13.919
50489W        W22837  11.367   4.407  11.004
50490W        W22838   4.845  44.996  14.345
50491W        W22839  44.977  30.953   1.801
50492W        W22840  22.074  40.890   2.778
50493W        W22841   5.765  13.751   0.407
50494W        W22842  25.645  33.884  10.482
50495W        W22843   8.338  33.531  10.140
50496W        W22844   1.317  44.979   3.664
50497W        W22845  43.349   9.256   0.823
50498W        W22846  26.604  32.087  12.032
50499W        W22847  29.502   0.936  11.567
50500W        W22848  30.050   5.816   2.385
50501W        W22849  26.097  14.680   0.261
50502W        W22850  11.656  41.905   2.850
50503W        W22851  19.555  20.618   4.669
50504W        W22852  19.638  16.314  10.508
50505W        W22853  29.107  33.396  14.764
50506W        W22854  22.998   4.805  12.521
50507W        W22855  35.367  32.054   0.732
50508W        W22856  41.015  17.638  10.965
50509W        W22857  39.522  38.011   3.269
50510W        W22858  27.002  16.714   1.346
50511W        W22859  27.542  40.366  10.482
50512W        W22860   1.313  35.992  14.941
50513W        W22861  19.748  27.088   1.403
50514W        W22862  18.589  16.207   0.323
50515W        W22863   9.244  30.539  14.405
50516W        W22864   4.215  20.261  13.860
50517W        W22865  22.580  30.415   2.310
50518W        W22866  28.592  34.946  10.939
50519W        W22867   2.772   5.934   2.399
50520W        W22868  41.354   3.923   2.207
50521W        W22869  21.221  16.660  12.034
50522W        W22870  29.017  36.487  13.878
50523W        W22871  43.889  21.667   2.779
50524W        W22872   9.671  15.769  12.522
50525W        W22873  44.493  43.486   4.316
50526W        W22874  34.551  42.975  12.825
50527W        W22875  16.676  40.818  13.482
50528W        W22876   2.839   1.739  13.894
50529W        W22877   0.378  28.940  11.947
50530W        W22878  27.961  10.777   4.613
50531W        W22879  31.577   1.805  12.490
50532W        W22880  39.020   0.494  12.097
50533W        W22881   3.917  14.324  13.462
50534W        W22882   6.196  41.853  11.949
50535W        W22883  35.062   5.294  11.100
50536W        W22884  33.554   2.323   2.341
50537W        W22885   9.316  27.662  11.597
50538W        W22886   3.456  41.451  14.842
50539W        W22887  29.026  23.022  10.945
50540W        W22888  21.126  18.666   3.303
50541W        W22889  19.620  11.214   4.647
50542W        W22890   1.437  43.923  13.025
50543W        W22891   5.691  17.650   1.231
50544W        W22892  29.045  29.560   2.364
50545W        W22893   2.312  41.397  13.476
50546W        W22894  37.370  40.867   4.295
50547W        W22895  24.098  28.169  10.569
50548W        W22896  14.594  21.669  12.441
50549W        W22897  15.261   0.743   0.266
50550W        W22898  24.514  37.494  14.289
50551W        W22899  10.216   8.376  12.831
50552W        W22900  27.538  44.314   4.776
50553W        W22901  31.967   5.325   5.123
50554W        W22902  26.149  12.209  11.919
50555W        W22903  19.702  26.983   0.459
50556W        W22904   2.346  34.372  10.577
50557W        W22905  13.231   4.904   4.210
50558W        W22906  36.894   3.429   0.802
50559W        W22907  20.606  43.851   2.327
50560W        W22908  36.891  17.652  13.422
50561W        W22909   4.217   0.340  12.083
50562W        W22910  12.253  44.776   0.789
50563W        W22911   5.831  24.224  11.543
50564W        W22912  15.090  35.411  11.032
50565W        W22913  27.642  26.114  12.913
50566W        W22914   1.821  37.939   1.210
50567W        W22915  11.692  37.953  10.973
50568W        W22916  12.647   1.770  10.502
50569W        W22917  37.924   3.318  10.464
50570W        W22918  38.393  13.280  11.899
50571W        W22919  29.598   6.679  11.497
50572W        W22920  23.160  24.549   1.374
50573W        W22921  41.312  16.724  14.515
50574W        W22922  44.802   5.858  11.908
50575W        W22923   8.393  33.529  13.517
50576W        W22924  36.545  15.126  13.040
50577W        W22925  27.501  11.237  14.831
50578W        W22926   0.768  34.488  13.824
50579W        W22927  10.641  35.864  12.075
50580W        W22928  19.559  31.441  12.861
50581W        W22929  32.904   5.804  11.448
50582W        W22930  37.898  16.671   1.243
50583W        W22931  16.076  13.117  12.453
50584W        W22932  33.010  26.100   0.898
50585W        W22933   4.206   1.392   4.221
50586W        W22934  40.469  23.054   4.803
50587W        W22935  36.529  42.442   3.784
50588W        W22936   3.839  10.316   3.284
50589W        W22937  41.799  21.084   3.674
50590W        W22938  24.598   7.337  12.915
50591W        W22939   1.273  16.785   4.758
50592W        W22940  43.452   8.747  12.037
50593W        W22941  20.754   7.879  13.979
50594W        W22942  31.516  17.640  13.446
50595W        W22943  44.496  27.029   2.794
50596W        W22944  42.008  19.243  14.860
50597W        W22945  38.459  33.549   4.333
50598W        W22946  33.012   3.935   3.713
50599W        W22947  21.653   3.322  13.937
50600W        W22948  13.683   5.706   9.445
50601W        W22949  35.951  37.028  12.359
50602W        W22950  23.023  17.664  13.798
50603W        W22951  14.664  39.558   1.744
50604W        W22952  44.349  10.258  13.951
50605W        W22953  14.612  38.941  14.821
50606W        W22954   5.215  35.373  13.468
50607W        W22955   6.271   5.324   3.853
50608W        W22956  11.746  40.491   3.146
50609W        W22957  38.885  22.231  13.442
50610W        W22958  19.199  21.089  11.410
50611W        W22959   5.765  43.401  14.409
50612W        W22960  44.899  25.673   3.148
50613W        W22961   0.971  36.894  12.528
50614W        W22962  32.902  14.708  12.461
50615W        W22963  39.867  38.824  12.984
50616W        W22964  15.185   8.849  10.579
50617W        W22965   1.955  22.621   2.724
50618W        W22966   3.714  44.778  10.514
50619W        W22967   5.714  38.024   4.777
50620W        W22968  42.457  26.023   4.642
50621W        W22969  29.156  41.480   2.291
50622W        W22970   2.449  23.990   0.461
50623W        W22971  36.482  29.985   2.250
50624W        W22972  40.538  44.323  10.525
50625W        W22973  37.980  35.546  11.941
50626W        W22974  27.128   0.287   3.638
50627W        W22975  12.660  28.182   4.197
50628W        W22976  23.032  43.844  11.485
50629W        W22977  32.525  27.069  13.956
50630W        W22978   5.375  32.033  12.346
50631W        W22979  43.289  18.259   5.222
50632W        W22980  21.093  14.255   1.211
50633W        W22981   3.800  13.246  12.949
50634W        W22982  41.431   3.349  13.847
50635W        W22983  37.893  15.607   2.267
50636W        W22984  36.092  42.495   1.357
50637W        W22985  25.054  44.472  11.452
50638W        W22986  25.146  23.020   2.340
50639W        W22987  36.361  44.954  13.541
50640W        W22988  12.797  30.443   3.759
50641W        W22989  30.104  31.970   0.862
50642W        W22990  16.297  35.515   2.881
50643W        W22991  34.434  38.037   3.160
50644W        W22992   0.449  28.168   2.398
50645W        W22993  13.720  23.728   4.302
50646W        W22994   6.906   8.720  14.458
50647W        W22995  13.325  21.126  11.440
50648W        W22996  23.136   8.279  12.047
50649W        W22997  34.035  38.518   3.843
50650W        W22998  37.942   7.317   0.259
50651W        W22999  30.507   2.453   0.379
50652W        W23000  39.833  26.701  12.030
50653W        W23001  31.418   6.288   3.354
50654W        W23002  40.416  15.251   0.344
50655W        W23003  27.189  44.417   1.875
50656W        W23004  18.585   6.761  12.060
50657W        W23005  24.080  19.569   3.806
50658W        W23006   0.472  16.709   2.261
50659W        W23007  32.477   6.685   2.756
50660W        W23008  39.886  28.131  10.478
50661W        W23009  41.993  24.556  14.327
50662W        W23010  42.519  41.448   4.805
50663W        W23011   6.233  20.244  11.007
50664W        W23012  35.533  38.385   2.695
50665W        W23013  17.745  17.232   2.325
50666W        W23014  38.942  21.055   3.672
50667W        W23015   3.386  22.124   4.347
50668W        W23016   0.335   9.317  14.770
50669W        W23017  27.524  15.675  13.840
50670W        W23018  27.464  36.904   3.366
50671W        W23019   6.417  15.166   1.230
50672W        W23020  23.609   8.712  10.416
50673W        W23021  33.954  23.690   0.368
50674W        W23022  44.844  36.032   1.438
50675W        W23023  40.999  38.513  12.456
50676W        W23024  44.969  33.022  14.883
50677W        W23025  40.948  10.313   5.137
50678W        W23026  38.914  32.887   4.733
50679W        W23027  42.782  35.931  14.439
50680W        W23028  43.824  29.062   0.837
50681W        W23029   4.778  40.049   1.359
50682W        W23030  22.006  36.939   1.732
50683W        W23031  10.868  29.121  12.868
50684W        W23032   9.746  34.490   3.323
50685W        W23033   4.213  42.792   1.927
50686W        W23034  30.935  18.136   3.807
50687W        W23035  30.953   7.795   9.662
50688W        W23036  35.921   1.957  13.518
50689W        W23037  23.013  44.797  13.941
50690W        W23038  44.858  24.517   1.335
50691W        W23039   3.289  36.868   0.267
50692W        W23040  20.188  22.192  11.902
50693W        W23041  11.649   4.707   1.741
50694W        W23042  11.143  23.073  12.519
50695W        W23043  11.625  39.972   1.855
50696W        W23044  24.672  21.144   4.327
50697W        W23045  36.350  22.040  10.440
50698W        W23046  22.210   8.339  14.933
50699W        W23047   6.738  32.959   3.659
50700W        W23048  27.080   1.895   3.829
50701W        W23049   8.365  13.712   0.264
50702W        W23050  21.180  31.420   2.284
50703W        W23051  44.345  43.514  13.958
50704W        W23052  18.766  23.492  11.901
50705W        W23053  23.112   0.318   0.864
50706W        W23054  15.764  22.629  13.943
50707W        W23055  22.566   6.701   4.673
50708W        W23056  31.648  41.463   0.834
50709W        W23057   3.313   0.330   0.248
50710W        W23058  27.677  39.984   1.300
50711W        W23059  35.485   9.248  11.986
50712W        W23060  37.472  37.990   1.825
50713W        W23061  16.138   9.160  12.356
50714W        W23062  29.021  25.526   0.300
50715W        W23063  32.976  14.308  13.538
50716W        W23064  31.936  23.496   0.863
50717W        W23065  16.726  36.901  11.036
50718W        W23066  26.469  33.537  12.574
50719W        W23067  33.437   5.295   2.892
50720W        W23068  32.447   4.229  12.464
50721W        W23069  40.887  28.124  14.876
50722W        W23070  24.559  41.485   4.827
50723W        W23071   3.327  41.334   0.327
50724W        W23072  19.748  28.974  10.461
50725W        W23073  12.285  42.943  13.362
50726W        W23074  38.335  18.123  11.412
50727W        W23075   7.753  18.184  10.596
50728W        W23076   0.291  19.083   1.212
50729W        W23077  30.047  41.382  12.861
50730W        W23078  15.101  13.747   0.770
50731W        W23079   6.730  37.420  13.881
50732W        W23080  22.094  24.615   0.869
50733W        W23081   8.724  19.638   0.855
50734W        W23082   2.961  15.609  14.467
50735W        W23083   3.398   4.257  14.456
50736W        W23084  31.990   2.429  10.921
50737W        W23085   2.403  27.141  10.952
50738W        W23086   6.778   8.370  10.932
50739W        W23087  28.111  17.673   2.777
50740W        W23088  35.512  34.418  14.343
50741W        W23089   8.349  11.656  12.543
50742W        W23090  41.442  28.642   0.787
50743W        W23091  16.254  21.623  14.944
50744W        W23092  15.592  38.547  10.459
50745W        W23093   3.896  23.603  10.951
50746W        W23094  38.388   6.812  12.987
50747W        W23095  38.951  16.650  11.047
50748W        W23096  37.375  16.306   0.448
50749W        W23097   0.814  39.915   1.212
50750W        W23098  41.406   5.219  13.863
50751W        W23099  39.931  31.560  10.600
50752W        W23100  23.057  29.944  12.561
50753W        W23101  28.490   1.358  10.534
50754W        W23102  25.094  42.817  11.855
50755W        W23103  31.617  16.586   3.772
50756W        W23104   9.290  32.498  14.447
50757W        W23105  16.257  14.829   4.158
50758W        W23106  34.064  37.992   0.739
50759W        W23107  13.253   8.164  11.105
50760W        W23108  26.628   1.958   0.381
50761W        W23109  30.594  39.903  10.629
50762W        W23110  17.235  32.593   1.781
50763W        W23111   0.775  19.755  10.451
50764W        W23112  13.124  37.854  11.921
50765W        W23113  19.205  31.091  11.963
50766W        W23114  10.674  20.628   4.125
50767W        W23115   2.733  22.213  14.809
50768W        W23116  38.431  43.943  14.785
50769W        W23117  21.205  42.313  11.488
50770W        W23118  23.088  40.876  10.477
50771W        W23119   5.768  35.401  12.966
50772W        W23120  24.657  29.147   3.233
50773W        W23121  31.556  38.408  12.893
50774W        W23122  40.480  25.023   3.811
50775W        W23123  26.083  32.093  13.935
50776W        W23124  42.933  23.587  12.079
50777W        W23125  24.595   2.321  14.306
50778W        W23126  15.755  25.478  11.533
50779W        W23127  18.669  36.866   1.914
50780W        W23128  30.090  34.025  11.899
50781W        W23129   6.814  18.641  14.030
50782W        W23130  31.927  20.733   1.885
50783W        W23131   4.815  11.300   4.609
50784W        W23132  17.070   9.303   1.268
50785W        W23133   6.256  21.701  12.916
50786W        W23134  33.503  28.529  14.839
50787W        W23135  23.176  28.466   0.330
50788W        W23136  28.660  37.998  14.947
50789W        W23137   9.195  23.687   4.208
50790W        W23138   0.940  39.416  11.446
50791W        W23139  29.121  36.991   2.213
50792W        W23140  11.752   0.394   3.683
50793W        W23141  12.267   9.254   1.779
50794W        W23142   0.297  26.205   0.820
50795W        W23143  38.861  24.095  14.833
50796W        W23144  20.110  44.318  14.433
50797W        W23145  15.585  27.611   2.735
50798W        W23146  34.455  32.594  12.478
50799W        W23147  14.669  18.675   4.679
50800W        W23148  18.140  21.130   4.648
50801W        W23149   7.412  21.232  14.371
50802W        W23150  24.104  38.905   3.370
50803W        W23151   1.430  21.050   0.385
50804W        W23152   8.192  29.620  14.986
50805W        W23153  36.996   6.295  14.886
50806W        W23154  19.778  29.664   5.302
50807W        W23155  10.256  16.673   0.758
50808W        W23156  13.641  29.056  12.363
50809W        W23157  34.510  17.200  11.049
50810W        W23158  17.291  22.678  11.038
50811W        W23159  31.946   8.184  10.906
50812W        W23160  15.142  17.225  10.537
50813W        W23161   7.909   6.846  10.526
50814W        W23162  34.892  44.425  14.812
50815W        W23163  10.665  40.446  12.513
50816W        W23164  24.173  21.115   4.324
50817W        W23165   7.379  10.781  12.414
50818W        W23166  32.967  11.743  11.375
50819W        W23167  38.051  38.500   2.189
50820W        W23168  35.410  16.776  10.432
50821W        W23169  25.583   3.250  10.001
50822W        W23170  35.896  38.973  13.929
50823W        W23171  27.981   8.853   4.130
50824W        W23172  42.944  36.380  13.369
50825W        W23173  43.274  27.967  11.984
50826W        W23174  28.515  29.938  13.962
50827W        W23175  31.623  27.476   3.649
50828W        W23176   1.829  44.303  12.992
50829W        W23177  31.021  40.454  13.356
50830W        W23178  27.009  16.587   3.212
50831W        W23179  15.646  42.981  12.853
50832W        W23180  23.543  14.635   3.195
50833W        W23181   2.417  40.411   3.663
50834W        W23182  14.275  25.550  12.385
50835W        W23183  16.577  33.095   1.342
50836W        W23184   5.915   1.788   2.706
50837W        W23185  14.186  20.536   0.790
50838W        W23186   8.241   5.769  14.499
50839W        W23187  31.617   0.880  12.977
50840W        W23188  28.046  24.057   0.913
50841W        W23189  17.707   2.899   0.351
50842W        W23190  11.271   8.707  13.876
50843W        W23191  32.598  42.996   2.390
50844W        W23192  28.146  28.064  11.457
50845W        W23193  32.411  43.424  14.425
50846W        W23194   5.355  15.763   1.753
50847W        W23195  21.737  20.714   2.231
50848W        W23196  37.514  38.882   5.208
50849W        W23197  35.110   0.426  12.020
50850W        W23198  14.267  30.059   0.394
50851W        W23199   4.262  21.197   2.398
50852W        W23200  30.017  18.638   2.839
50853W        W23201  30.581  42.488  12.855
50854W        W23202  24.511  38.839  12.478
50855W        W23203  15.801  18.153   4.811
50856W        W23204  14.761   4.717   4.652
50857W        W23205  31.530  11.210   4.619
50858W        W23206  24.714   7.907   4.261
50859W        W23207   0.257  42.423  13.333
50860W        W23208  24.606  27.460   2.348
50861W        W23209  14.618  26.089   4.684
50862W        W23210   2.899  28.061   4.742
50863W        W23211  28.039  16.751  11.026
50864W        W23212  32.509  40.334   4.828
50865W        W23213   5.257  18.556  12.477
50866W        W23214  28.586  22.035  12.397
50867W        W23215  28.529  31.040  10.955
50868W        W23216  11.319  36.516  14.501
50869W        W23217  10.725  34.987   2.890
50870W        W23218  38.024  36.576   1.260
50871W        W23219  17.219  38.538  11.037
50872W        W23220  27.027  25.576   1.305
50873W        W23221  43.952  29.008   2.253
50874W        W23222  19.576   8.294   0.373
50875W        W23223  29.022  23.541   2.688
50876W        W23224  27.188   5.300  12.519
50877W        W23225  31.535   4.935  14.416
50878W        W23226  18.270  16.640  14.396
50879W        W23227   4.342  30.431  12.019
50880W        W23228  20.240  14.792   3.385
50881W        W23229   9.357  20.103   0.425
50882W        W23230  15.252  16.231  13.456
50883W        W23231  37.444  14.327   3.189
50884W        W23232  39.540  32.992  12.502
50885W        W23233   1.742  37.080   1.813
50886W        W23234  44.784  21.688   2.258
50887W        W23235  14.219  23.541  14.369
50888W        W23236  42.453  14.716  11.125
50889W        W23237  44.847   2.735   1.435
50890W        W23238   2.887  31.442  12.474
50891W        W23239  42.819   1.471  11.374
50892W        W23240  38.901  44.907  14.977
50893W        W23241  31.087   2.858   1.427
50894W        W23242  17.211  36.358  11.573
50895W        W23243  26.039  40.340   0.931
50896W        W23244   7.668  42.014  12.431
50897W        W23245   8.811  25.095  14.447
50898W        W23246  20.063  25.216   4.757
50899W        W23247  11.656  28.465  11.607
50900W        W23248   7.830   1.335  10.985
50901W        W23249  23.159  10.653  14.502
50902W        W23250  26.476  41.309   4.235
50903W        W23251  28.520  30.493   3.815
50904W        W23252   2.446  36.435   2.373
50905W        W23253   3.273  35.008  13.908
50906W        W23254  31.938   0.266  10.926
50907W        W23255  38.380  37.872   4.611
50908W        W23256  17.790  35.474  14.354
50909W        W23257  29.580  24.701   0.728
50910W        W23258  28.469  29.661  13.970
50911W        W23259  18.561  20.079   0.362
50912W        W23260   9.345   2.794  13.034
50913W        W23261  28.038  26.207   4.186
50914W        W23262  17.647   4.717  12.957
50915W        W23263  34.375  25.999  13.344
50916W        W23264   2.942  13.656  13.349
50917W        W23265  16.673  10.864  11.487
50918W        W23266  20.037  34.877  11.101
50919W        W23267  43.981  31.976   4.164
50920W        W23268  26.513  28.444   0.748
50921W        W23269  37.510  43.426   3.156
50922W        W23270  39.423  25.004  13.460
50923W        W23271  15.180   4.875  14.289
50924W        W23272   7.865  33.061   1.339
50925W        W23273  12.812  20.655   3.748
50926W        W23274  30.135  34.976   1.837
50927W        W23275   1.346  34.591  13.973
50928W        W23276  35.496  29.022   0.869
50929W        W23277  18.122  34.921   3.352
50930W        W23278  27.949  26.004   2.276
50931W        W23279  35.955  38.400   2.755
50932W        W23280  39.907  18.614   4.744
50933W        W23281  11.823  22.509  10.495
50934W        W23282  32.456  43.940  13.918
50935W        W23283  15.245  31.603  10.601
50936W        W23284  21.146  20.702  14.766
50937W        W23285   3.871  22.247   1.861
50938W        W23286  43.001  18.657  13.865
50939W        W23287  11.326  21.102  14.935
50940W        W23288  11.262  18.786  11.866
50941W        W23289  26.031  44.424  14.454
50942W        W23290  32.440  21.155   3.168
50943W        W23291  27.662   3.225   9.942
50944W        W23292   9.856   2.758   4.340
50945W        W23293  17.682  20.219   0.409
50946W        W23294  20.630  41.379  14.483
50947W        W23295  37.570  21.092  14.329
50948W        W23296  15.246  34.432  14.792
50949W        W23297  27.664   6.220   2.338
50950W        W23298   9.345   7.246   2.229
50951W        W23299   1.844  35.543   0.361
50952W        W23300  12.119  25.154   3.297
50953W        W23301  30.605  31.609  11.046
50954W        W23302  37.083  32.091   2.749
50955W        W23303  28.998   5.242   2.881
50956W        W23304  15.609   5.875   3.685
50957W        W23305  38.027   7.395   3.164
50958W        W23306  19.564  25.215  11.582
50959W        W23307   6.362   0.954  12.972
50960W        W23308   9.792   8.262  13.327
50961W        W23309  20.570  44.758   2.861
50962W        W23310  15.782   3.279   2.257
50963W        W23311   2.930  33.523  14.321
50964W        W23312  40.053   0.331   3.808
50965W        W23313  29.604  18.217  13.518
50966W        W23314   2.231  29.061   9.989
50967W        W23315  44.329   8.267   2.859
50968W        W23316  29.958   5.390   1.705
50969W        W23317  28.468  16.098  13.879
50970W        W23318  29.551  36.007  11.014
50971W        W23319  41.863  29.599   0.728
50972W        W23320  38.996  23.548   9.993
50973W        W23321   5.902   9.747   1.415
50974W        W23322  27.522  37.070  10.990
50975W        W23323  33.925  44.383   3.847
50976W        W23324  28.186  39.411   4.671
50977W        W23325  44.955  17.675   3.703
50978W        W23326  29.639  20.722  13.341
50979W        W23327  20.184  44.428  12.962
50980W        W23328  42.284  25.207  11.948
50981W        W23329  34.577  40.809  14.841
50982W        W23330  20.054  33.038   1.311
50983W        W23331  35.523  43.355   2.416
50984W        W23332  19.168  41.029   1.764
50985W        W23333  42.404  33.079   2.401
50986W        W23334  40.923   8.714   2.806
50987W        W23335  12.697  28.153  12.356
50988W        W23336  30.119  31.484  12.856
50989W        W23337  20.573  34.026  12.436
50990W        W23338  38.978  38.529   4.241
50991W        W23339  23.135  39.033   3.735
50992W        W23340   3.726  43.778   3.636
50993W        W23341   7.827  28.184  13.997
50994W        W23342  14.180   2.421  13.448
50995W        W23343  11.808  29.001   4.697
50996W        W23344  29.502  12.746  12.074
50997W        W23345  15.811  16.760  10.470
50998W        W23346  29.432  11.348   2.782
50999W        W23347  30.104  44.928  10.940
51000W        W23348   9.326  40.978   4.699
51001W        W23349   6.213  11.771   3.378
51002W        W23350  38.030   1.429  14.932
51003W        W23351   0.962  36.975   2.749
51004W        W23352   2.380  43.848  13.909
51005W        W23353  34.551   8.788  14.417
51006W        W23354  18.592  10.788   1.333
51007W        W23355  17.729  13.282   0.736
51008W        W23356   8.703  21.667  11.048
51009W        W23357  42.338  24.221  14.821
51010W        W23358  12.644  24.223  13.829
51011W        W23359  39.940  19.106  11.501
51012W        W23360  30.115  38.953  13.342
51013W        W23361  21.130  18.090  11.393
51014W        W23362  27.611  42.946   3.773
51015W        W23363  15.714   6.284  14.399
51016W        W23364  19.119  44.352  14.451
51017W        W23365  41.982  36.522   2.841
51018W        W23366  18.646  34.441   4.278
51019W        W23367  44.980  21.124  13.398
51020W        W23368  21.665  19.057  14.835
51021W        W23369   9.279  41.389  11.930
51022W        W23370  38.388  12.352  12.002
51023W        W23371   8.238  20.633  11.923
51024W        W23372  44.332  37.495  10.454
51025W        W23373  18.244  35.034  14.952
51026W        W23374   7.871  42.320   4.170
51027W        W23375  41.428  34.570  11.480
51028W        W23376   7.701   6.893  12.988
51029W        W23377   4.863  44.326  12.031
51030W        W23378   3.240   2.827  12.973
51031W        W23379  18.744  37.874  13.377
51032W        W23380  11.649   6.920   0.863
51033W        W23381  44.950  39.353  13.393
51034W        W23382   0.929  13.722  13.825
51035W        W23383  38.945  40.980   0.324
51036W        W23384  14.108  43.004   4.837
51037W        W23385  32.465  41.869   4.775
51038W        W23386  38.398  43.910  13.951
51039W        W23387  25.049   7.191  14.929
51040W        W23388  26.059  11.730  11.958
51041W        W23389  17.603  29.012  14.296
51042W        W23390   1.813   1.243   3.797
51043W        W23391  42.952  15.724   3.687
51044W        W23392  44.990  30.950   1.396
51045W        W23393  31.411  40.869  14.799
51046W        W23394   3.215   3.384  14.867
51047W        W23395  39.456  14.659  14.879
51048W        W23396  23.185  44.299  12.442
51049W        W23397  40.483  40.359  11.385
51050W        W23398  14.757  14.299  12.880
51051W        W23399  10.770  24.140  14.330
51052W        W23400   7.171  40.892   3.795
51053W        W23401  35.920  23.078  12.411
51054W        W23402  43.467  43.289   4.781
51055W        W23403  42.337  11.668  13.324
51056W        W23404  32.129   6.368  13.495
51057W        W23405   9.298  40.354   4.769
51058W        W23406  40.416  37.386  10.101
51059W        W23407  31.417  40.980   3.319
51060W        W23408  31.128   8.313   5.631
51061W        W23409   7.709  32.610   1.329
51062W        W23410  20.047  40.412   3.375
51063W        W23411   1.833  36.043   0.898
51064W        W23412  29.076   9.658  11.031
51065W        W23413   9.177  19.719   5.317
51066W        W23414  31.564  26.524  14.361
51067W        W23415   5.733  19.277  12.367
51068W        W23416  13.245  42.905   4.242
51069W        W23417  37.371   6.343  14.974
51070W        W23418  11.669  31.409   3.368
51071W        W23419  40.011  24.656  11.905
51072W        W23420  10.155  17.123  12.363
51073W        W23421  40.820  39.368   0.429
51074W        W23422  11.317  36.557   4.681
51075W        W23423  11.786   3.872  12.478
51076W        W23424   5.396  28.452  14.975
51077W        W23425  40.464  14.598   1.344
51078W        W23426  32.423  21.511   2.291
51079W        W23427  41.014  38.541   0.726
51080W        W23428  19.554  29.433   4.227
51081W        W23429  21.734  40.032  14.949
51082W        W23430   3.277   7.847  11.862
51083W        W23431   5.760  20.670  12.359
51084W        W23432  41.807  11.704   3.254
51085W        W23433  26.035   4.933  11.612
51086W        W23434  30.938  42.283  10.901
51087W        W23435  17.171  16.243   3.336
51088W        W23436  43.352   5.850  14.371
51089W        W23437  24.200  17.555  10.585
51090W        W23438  21.033  23.132   0.831
51091W        W23439  26.474  21.662   3.759
51092W        W23440  18.273  26.110   2.855
51093W        W23441  40.041   3.228  10.906
51094W        W23442  35.565  13.257  14.432
51095W        W23443  12.353  37.972  14.373
51096W        W23444  42.379   7.749   2.405
51097W        W23445  20.624  27.449  14.930
51098W        W23446  14.304  16.245   4.164
51099W        W23447  32.490  34.563   5.306
51100W        W23448  41.371  24.675  14.472
51101W        W23449  43.272  36.408  11.056
51102W        W23450  14.625   1.410  13.986
51103W        W23451   7.206  29.603   0.815
51104W        W23452  37.936  15.759  11.426
51105W        W23453   5.328  19.561  11.596
51106W        W23454  21.123  43.958  13.378
51107W        W23455  24.628  39.048   0.428
51108W        W23456  29.986  26.630   2.741
51109W        W23457  18.050  15.586  13.865
51110W        W23458  16.737  13.844   3.226
51111W        W23459  29.613  25.114   2.309
51112W        W23460  30.428  33.926   1.886
51113W        W23461   6.798  19.719   4.746
51114W        W23462  14.263  31.484   4.624
51115W        W23463  13.105  21.028   2.298
51116W        W23464  29.620  39.933  11.394
51117W        W23465   9.250  30.961   1.329
51118W        W23466  26.548   6.237   2.377
51119W        W23467  30.954  25.039   0.267
51120W        W23468  32.090  41.991   2.339
51121W        W23469  37.988  12.739  11.446
51122W        W23470  22.653  37.003   4.666
51123W        W23471  19.666   0.467  10.902
51124W        W23472  11.222   3.928   9.544
51125W        W23473  38.886  24.060   4.684
51126W        W23474  24.983  38.840   1.237
51127W        W23475  17.212  43.940  12.094
51128W        W23476  21.526  15.216   4.770
51129W        W23477  41.946  12.837   1.794
51130W        W23478  26.977   0.419  11.958
51131W        W23479  30.937  22.641   3.659
51132W        W23480  20.177  39.497  14.019
51133W        W23481  42.813  31.452   2.884
51134W        W23482   1.955   5.884  11.008
51135W        W23483  12.200   3.371  10.446
51136W        W23484  42.374   3.824   3.684
51137W        W23485  22.032  19.700   1.353
51138W        W23486  42.926   9.744  14.470
51139W        W23487  25.993  40.812  11.572
51140W        W23488  41.909  17.718  14.803
51141W        W23489  14.259   0.881   4.210
51142W        W23490  15.136   7.714   0.393
51143W        W23491  27.605  18.238   1.929
51144W        W23492  24.699  21.040   2.893
51145W        W23493  30.028  23.070  11.966
51146W        W23494  32.420  25.511  10.601
51147W        W23495  13.805   2.418   1.742
51148W        W23496  18.266  30.569   2.189
51149W        W23497  44.327  38.898   3.175
51150W        W23498   5.249  40.422   4.320
51151W        W23499  30.595   2.367   4.815
51152W        W23500  44.865  31.932   3.665
51153W        W23501  43.310  11.289   4.835
51154W        W23502  13.663  14.137   2.803
51155W        W23503  10.227  26.601   4.204
51156W        W23504  12.272  17.240  10.943
51157W        W23505  16.672   5.406  13.036
51158W        W23506  15.604  11.223  14.477
51159W        W23507  12.151   0.989  12.503
51160W        W23508   7.193  26.984   4.713
51161W        W23509  19.048  37.433  14.935
51162W        W23510  39.347  43.904  12.832
51163W        W23511  21.627  15.800  11.916
51164W        W23512  28.582  17.667   3.716
51165W        W23513  33.023  37.847  12.541
51166W        W23514  32.120   4.820  11.029
51167W        W23515  41.338  10.218   1.853
51168W        W23516  14.723   7.409   4.827
51169W        W23517   7.315   9.289  14.359
51170W        W23518  29.953  39.894  10.989
51171W        W23519  41.435   5.429   2.294
51172W        W23520   0.251   0.303   0.285
51173W        W23521  34.873   7.723  14.446
51174W        W23522  40.985  28.024   1.365
51175W        W23523  22.126  36.979   0.796
51176W        W23524  39.907   8.391   1.701
51177W        W23525  10.255  19.754  13.526
51178W        W23526   0.293  36.997   4.175
51179W        W23527  41.475  22.014   2.332
51180W        W23528  34.066   5.291   4.123
51181W        W23529  13.769   9.392  10.484
51182W        W23530  30.416  17.686  13.885
51183W        W23531  11.861  37.039   4.711
51184W        W23532  29.963  11.157  12.414
51185W        W23533  39.971  37.400   4.645
51186W        W23534  23.083  42.309  10.569
51187W        W23535  23.723  26.702   1.802
51188W        W23536  24.981  23.610  12.381
51189W        W23537  33.951  25.081   2.811
51190W        W23538  18.735   1.852  14.964
51191W        W23539  14.758  27.158  12.486
51192W        W23540  35.984  14.725  13.508
51193W        W23541  18.671  24.131  14.507
51194W        W23542   8.313   9.170   2.780
51195W        W23543  17.603  36.395  11.559
51196W        W23544  22.741  16.692   1.920
51197W        W23545  21.148  30.937   3.752
51198W        W23546   3.249  42.009   4.300
51199W        W23547   7.908  32.535  11.476
51200W        W23548  33.431  10.876   4.611
51201W        W23549  18.128   4.825  14.782
51202W        W23550   8.659  34.411   1.933
51203W        W23551   4.750  32.125   1.873
51204W        W23552  22.073   9.310   5.174
51205W        W23553  41.887  35.478   1.790
51206W        W23554  40.916  10.713   2.825
51207W        W23555  11.199  42.902  11.553
51208W        W23556   4.765   7.207  13.029
51209W        W23557  21.755  19.734  10.901
51210W        W23558  26.491  44.303   2.373
51211W        W23559   2.963  37.973   4.223
51212W        W23560  39.054   2.446   2.712
51213W        W23561   8.718   3.394  14.797
51214W        W23562  23.604   1.448  11.525
51215W        W23563  32.991  40.936   1.833
51216W        W23564  11.756   7.822  14.777
51217W        W23565  17.695  11.332   0.336
51218W        W23566  42.524  12.219   1.896
51219W        W23567  32.125   2.943  12.458
51220W        W23568  12.168  14.644   3.705
51221W        W23569   1.752   1.380  11.116
51222W        W23570  39.539   8.360  10.957
51223W        W23571  25.191  11.370   4.750
51224W        W23572  34.922  17.660   0.734
51225W        W23573  42.874  35.925   1.300
51226W        W23574  44.763  36.392  10.462
51227W        W23575   5.768  19.223   0.745
51228W        W23576   6.802  26.641  11.608
51229W        W23577  34.568  41.502  11.038
51230W        W23578   0.771  21.609   3.815
51231W        W23579  43.440  37.058   0.876
51232W        W23580  24.984  18.254  13.522
51233W        W23581   5.718  14.279   3.668
51234W        W23582  13.634  28.612   2.386
51235W        W23583  28.538  38.825  11.968
51236W        W23584   6.296  27.128   4.792
51237W        W23585  18.186  15.264   0.920
51238W        W23586  22.178  29.564   3.241
51239W        W23587  44.911  40.505  11.904
51240W        W23588  16.703  34.999  13.827
51241W        W23589   0.425  11.343   1.733
51242W        W23590  22.713  43.879  11.054
51243W        W23591  20.246  33.437  13.401
51244W        W23592   8.893  14.646   4.165
51245W        W23593   7.704  33.021  11.539
51246W        W23594  27.167  44.865  13.327
51247W        W23595  26.605   5.881  11.468
51248W        W23596  15.111   5.390  13.423
51249W        W23597  32.914  38.901   0.789
51250W        W23598  24.206  23.195   3.866
51251W        W23599  18.273   4.396   4.148
51252W        W23600  18.732   1.470  14.368
51253W        W23601  33.568   3.710  11.113
51254W        W23602  38.401  32.120   0.332
51255W        W23603  41.468  39.887  14.337
51256W        W23604  44.787  30.592   1.386
51257W        W23605  24.605  30.066   0.367
51258W        W23606  10.722  41.345   0.927
51259W        W23607  37.920  24.144   2.683
51260W        W23608   6.774   0.753  14.513
51261W        W23609  39.495  11.627  13.035
51262W        W23610  40.933  19.591  11.510
51263W        W23611   7.799   1.837  14.809
51264W        W23612   8.379   7.301  12.079
51265W        W23613  31.470  19.586   3.854
51266W        W23614  38.367  44.906  14.007
51267W        W23615  35.604  12.340   3.169
51268W        W23616   2.463   4.887  12.378
51269W        W23617  21.121  21.110   1.404
51270W        W23618  23.117  43.395   0.321
51271W        W23619  35.411  19.257   1.428
51272W        W23620  41.377   0.881   0.946
51273W        W23621  15.725  33.940   0.356
51274W        W23622   4.875  31.043  13.973
51275W        W23623  27.588  11.757   2.828
51276W        W23624  33.127  37.442  14.492
51277W        W23625   5.328  11.793   0.847
51278W        W23626  41.925  41.820   3.742
51279W        W23627   6.256  10.776   1.319
51280W        W23628   2.949   9.222  10.591
51281W        W23629   4.832  10.716   3.762
51282W        W23630  26.110  15.692  12.548
51283W        W23631  15.279   5.889  14.378
51284W        W23632  31.999  34.897  10.948
51285W        W23633   6.728   4.326  11.466
51286W        W23634  32.121  10.703   4.800
51287W        W23635  36.045   9.670   1.363
51288W        W23636   2.429  16.131  12.085
51289W        W23637  22.713  38.358  14.351
51290W        W23638   8.655  30.057   0.892
51291W        W23639  17.200  30.601  10.129
51292W        W23640   9.820  39.927  14.816
51293W        W23641  11.792  25.131   1.294
51294W        W23642  16.639  19.118  12.001
51295W        W23643  11.643  12.254  11.104
51296W        W23644  24.099  35.425  13.358
51297W        W23645  40.521  11.686  11.096
51298W        W23646  13.604  22.721  14.853
51299W        W23647  29.127   3.367  13.997
51300W        W23648  21.700  13.205  12.557
51301W        W23649  23.117  44.874  14.947
51302W        W23650  30.128  10.683   4.347
51303W        W23651  36.513  33.605   2.181
51304W        W23652  27.152  26.511   1.898
51305W        W23653   0.798  12.360  13.318
51306W        W23654  22.706  18.664  13.005
51307W        W23655  11.316   7.843   0.471
51308W        W23656   7.320  24.190  14.983
51309W        W23657   5.701  26.120  13.893
51310W        W23658  40.955   6.838   1.705
51311W        W23659  10.244  12.256   4.615
51312W        W23660  20.726  38.335   0.359
51313W        W23661   4.841  31.000  14.877
51314W        W23662   0.805  37.886   0.768
51315W        W23663  27.581  34.890   3.272
51316W        W23664  40.954  26.194  10.622
51317W        W23665  10.224  38.881  10.598
51318W        W23666  11.369  22.674  14.462
51319W        W23667  11.686  42.370  10.531
51320W        W23668  42.954   0.901   5.137
51321W        W23669  38.910  32.447   3.333
51322W        W23670  17.155  20.111   0.453
51323W        W23671  13.769  33.067  13.494
51324W        W23672  40.050  39.539   1.346
51325W        W23673   4.218  13.347  10.968
51326W        W23674   5.722  14.647  11.577
51327W        W23675  25.136   8.761  10.961
51328W        W23676  25.706  35.077  12.417
51329W        W23677  26.105  17.182   0.382
51330W        W23678  20.194  43.403  12.830
51331W        W23679  17.720  15.680  14.427
51332W        W23680  30.645  13.777   4.282
51333W        W23681  23.584  14.335   0.807
51334W        W23682  43.350  35.048  11.942
51335W        W23683   0.944   6.764   0.822
51336W        W23684  42.471  26.106   4.322
51337W        W23685  31.913  28.947  11.476
51338W        W23686   4.725   8.891  10.493
51339W        W23687  26.671  37.554   2.367
51340W        W23688   7.355  14.323   4.806
51341W        W23689  29.051  23.233  10.581
51342W        W23690  39.964  34.993   0.328
51343W        W23691  26.612   7.866  12.487
51344W        W23692   0.742   4.260   0.777
51345W        W23693  33.990   4.294   2.708
51346W        W23694  32.123  32.014  11.078
51347W        W23695  22.222  30.658  11.957
51348W        W23696  11.317  42.953   4.245
51349W        W23697  28.088   0.914  12.492
51350W        W23698  11.834  26.112  13.379
51351W        W23699  12.647   4.221  12.344
51352W        W23700  17.272  40.430  11.116
51353W        W23701   1.325  21.147   4.624
51354W        W23702  38.463  30.940  13.891
51355W        W23703  28.178  24.643   2.258
51356W        W23704  19.614  41.465  10.973
51357W        W23705   6.763  41.959  14.819
51358W        W23706  17.151  37.919   4.181
51359W        W23707  19.766  24.135  12.008
51360W        W23708  27.478  23.220   1.274
51361W        W23709   5.929  22.717  12.889
51362W        W23710  24.714  17.637   3.333
51363W        W23711  36.457  21.049   0.256
51364W        W23712  41.897  40.830  13.848
51365W        W23713  10.256  14.152  11.975
51366W        W23714  21.627  28.951  10.599
51367W        W23715  16.239  11.636   5.187
51368W        W23716  18.197   8.823  12.400
51369W        W23717   2.434  43.358  10.565
51370W        W23718  24.191  12.140  14.461
51371W        W23719  23.181  20.653  13.846
51372W        W23720  33.434  22.009  12.883
51373W        W23721  18.165  15.780  12.476
51374W        W23722  35.902   9.698  11.093
51375W        W23723  40.525  19.055  14.310
51376W        W23724  41.831   7.250   0.851
51377W        W23725  19.187  16.750  12.472
51378W        W23726   9.310  33.964   2.203
51379W        W23727  37.902  37.990   0.397
51380W        W23728   2.836  32.006   1.388
51381W        W23729  44.458   7.299  11.446
51382W        W23730  28.580  31.905   4.835
51383W        W23731  44.943  14.223  12.483
51384W        W23732  16.197   8.783   1.305
51385W        W23733  37.446   4.281   5.105
51386W        W23734  15.184  11.219   0.769
51387W        W23735   0.879   4.834   3.805
51388W        W23736   1.879  22.735   3.350
51389W        W23737  42.849   5.341  14.353
51390W        W23738   6.753  43.822   3.306
51391W        W23739  41.342  37.914   2.725
51392W        W23740  44.390  19.617  13.530
51393W        W23741   1.847  44.994  12.920
51394W        W23742  31.133  20.665   1.697
51395W        W23743  11.646  18.774   2.379
51396W        W23744  44.419   4.727   3.378
51397W        W23745  18.663   5.881   3.755
51398W        W23746  43.440  20.112  12.438
51399W        W23747  24.195  14.760   4.122
51400W        W23748  40.448  41.006  13.934
51401W        W23749   1.369  34.614  14.966
51402W        W23750   5.765  33.887   3.250
51403W        W23751  26.559  18.121  14.297
51404W        W23752   6.247  13.216  10.624
51405W        W23753   5.821  23.098   0.876
51406W        W23754   0.289  11.703  10.473
51407W        W23755  32.909  37.005   0.279
51408W        W23756  21.562  31.939  14.335
51409W        W23757   4.321  34.067   4.723
51410W        W23758  12.734  38.022   4.643
51411W        W23759  33.531  32.900   0.338
51412W        W23760  28.140  39.537  12.828
51413W        W23761  31.613  19.731   2.667
51414W        W23762   2.832   0.400  13.840
51415W        W23763  25.168   7.394   9.446
51416W        W23764  16.146  26.484  12.450
51417W        W23765  42.448  20.104  10.931
51418W        W23766  22.134  10.320   5.636
51419W        W23767  11.245  29.951   2.412
51420W        W23768  11.194  38.439   2.324
51421W        W23769  28.516  42.832   4.234
51422W        W23770   1.817  24.688  13.474
51423W        W23771  20.727  11.719  14.280
51424W        W23772  19.114  17.679   2.386
51425W        W23773  12.357  36.506  13.837
51426W        W23774  38.537  44.892   1.796
51427W        W23775  35.097  27.021   1.244
51428W        W23776  15.175  15.621  13.395
51429W        W23777  24.133   5.414  11.861
51430W        W23778  34.079   6.765   3.299
51431W        W23779  36.419  17.126   2.382
51432W        W23780  38.973  31.965   1.752
51433W        W23781  43.448  41.904  14.413
51434W        W23782  22.049  12.288   3.847
51435W        W23783  16.267  41.452   3.278
51436W        W23784   4.721  31.077   4.770
51437W        W23785  38.847  42.450  13.944
51438W        W23786  25.181   9.234   2.723
51439W        W23787  40.866  17.305   2.333
51440W        W23788  22.679   3.349   0.430
51441W        W23789   4.214  19.057   2.219
51442W        W23790  41.795  21.260  10.638
51443W        W23791  27.539  14.620  13.487
51444W        W23792  41.840   1.790   2.861
51445W        W23793  33.544  42.878  10.445
51446W        W23794   9.770  28.140  13.346
51447W        W23795  29.958  33.027   1.371
51448W        W23796   1.285  36.969  13.892
51449W        W23797  10.248  25.015   0.791
51450W        W23798   2.447  24.067  12.340
51451W        W23799  10.824   9.752   0.841
51452W        W23800  36.954  32.433   2.178
51453W        W23801  29.023   7.289  10.980
51454W        W23802  31.498   0.980   1.222
51455W        W23803  42.310   7.721  10.935
51456W        W23804  44.761  34.407   0.471
51457W        W23805   6.801  43.374  10.544
51458W        W23806  15.266  44.411   2.190
51459W        W23807  41.997  40.335  12.526
51460W        W23808  19.612   0.314   2.669
51461W        W23809  39.387  14.759  10.438
51462W        W23810  36.387  41.369  11.982
51463W        W23811  16.780   2.231  12.017
51464W        W23812   7.878  24.131   1.371
51465W        W23813   6.320  13.745  14.785
51466W        W23814  18.730   7.758  12.067
51467W        W23815   1.462  32.477   2.826
51468W        W23816  11.630  18.111   1.385
51469W        W23817  37.577  44.380   2.317
51470W        W23818  41.374  23.668  14.017
51471W        W23819   6.863  26.688  10.947
51472W        W23820  20.532  19.635   4.232
51473W        W23821  20.199  37.010  10.631
51474W        W23822   2.953  18.089   4.668
51475W        W23823  11.666  18.710  13.026
51476W        W23824  12.762  24.669   0.948
51477W        W23825  13.773  32.999   2.220
51478W        W23826   4.907  11.161   2.399
51479W        W23827   4.384  20.261   2.776
51480W        W23828  22.629  26.495  14.863
51481W        W23829  43.387  31.407   1.841
51482W        W23830   9.252  20.193  14.999
51483W        W23831  15.273  30.636  13.404
51484W        W23832  38.828  15.285   4.601
51485W        W23833  29.537  15.317  14.835
51486W        W23834  12.831  35.032  14.017
51487W        W23835  20.094  15.803  14.999
51488W        W23836  36.963   7.314   2.235
51489W        W23837  11.637  37.569  10.158
51490W        W23838   9.791   8.830   1.260
51491W        W23839  33.038  14.289   4.838
51492W        W23840  33.405   7.805  13.532
51493W        W23841  22.083  13.161  11.539
51494W        W23842  26.963  12.759  13.362
51495W        W23843  24.207  37.832   2.376
51496W        W23844  27.648  38.558   2.903
51497W        W23845  23.677  23.637   3.159
51498W        W23846  33.585  29.151  10.035
51499W        W23847  32.506  28.680   1.449
51500W        W23848   3.459  10.726  13.812
51501W        W23849  20.065   0.414  11.463
51502W        W23850   6.778  44.927   0.935
51503W        W23851  36.009   7.678   0.296
51504W        W23852  22.564  19.122  10.493
51505W        W23853  10.782  14.766   0.785
51506W        W23854  24.587  23.108  11.495
51507W        W23855  16.626  28.458  13.962
51508W        W23856   7.316  23.534   1.781
51509W        W23857  28.436  32.999   4.264
51510W        W23858   7.371  20.045   0.766
51511W        W23859  31.520  36.362  12.349
51512W        W23860  21.222   0.908   3.793
51513W        W23861   4.308  29.045  12.073
51514W        W23862  17.655  14.338   4.163
51515W        W23863   1.424  11.262  10.596
51516W        W23864   0.263  39.844  11.072
51517W        W23865  39.396  26.645   1.807
51518W        W23866  13.198  30.910  11.895
51519W        W23867  21.104   7.715  11.887
51520W        W23868   6.757  39.827  14.795
51521W        W23869  41.917  35.106   1.397
51522W        W23870   6.871  32.096  11.567
51523W        W23871  20.590  24.672  11.403
51524W        W23872   1.400   2.306   1.736
51525W        W23873  28.668  32.544   3.146
51526W        W23874  10.752  10.861   3.772
51527W        W23875  23.158  30.595  11.490
51528W        W23876   2.228  29.623  13.318
51529W        W23877  34.009   6.204  11.952
51530W        W23878  39.468  16.781   2.875
51531W        W23879  12.136  44.263  11.459
51532W        W23880  42.477  22.171   1.308
51533W        W23881  19.718  32.120  14.788
51534W        W23882   3.952  25.592  13.898
51535W        W23883   8.830   5.405   4.700
51536W        W23884  10.223  11.350  10.925
51537W        W23885  39.367   1.796   1.318
51538W        W23886   4.334   7.353  14.941
51539W        W23887  15.737   4.375  13.404
51540W        W23888  32.023  42.804  10.639
51541W        W23889  13.244   5.802   5.674
51542W        W23890  13.317  36.858   1.885
51543W        W23891   4.294   6.835  13.372
51544W        W23892  12.622  20.069   4.335
51545W        W23893  18.134  13.632  11.865
51546W        W23894  29.435  22.246   2.233
51547W        W23895  19.756  16.695  13.879
51548W        W23896  17.065   9.763  10.580
51549W        W23897   4.911  30.483  10.143
51550W        W23898  29.668  15.137   3.751
51551W        W23899  34.052  31.508   1.788
51552W        W23900  24.569  43.855   2.296
51553W        W23901  32.555  43.481  14.010
51554W        W23902  27.446  14.163   1.731
51555W        W23903   9.868  21.648  12.473
51556W        W23904  29.654  34.536  10.506
51557W        W23905  42.955  31.446   3.378
51558W        W23906  11.131  17.620  14.933
51559W        W23907   1.386  11.150   4.736
51560W        W23908  33.984  28.957   2.366
51561W        W23909  14.195   5.817  13.851
51562W        W23910  36.982  14.710  12.374
51563W        W23911   0.419   9.660   0.763
51564W        W23912  18.694  44.410  11.392
51565W        W23913   9.255  31.099   0.432
51566W        W23914  27.598  22.153  13.907
51567W        W23915  36.396  39.919  11.059
51568W        W23916  39.847  33.006  10.482
51569W        W23917  14.313  18.693   3.274
51570W        W23918  41.029  16.132  13.805
51571W        W23919  30.525  35.088   2.721
51572W        W23920  37.018  28.171   1.243
51573W        W23921  34.513   2.871  10.957
51574W        W23922  39.440   9.327  14.000
51575W        W23923  30.461  30.094   4.249
51576W        W23924  25.586  10.282   0.878
51577W        W23925  26.049   6.730   3.754
51578W        W23926  10.223  41.524   1.839
51579W        W23927  29.061  44.385  12.417
51580W        W23928  18.152  28.596   4.118
51581W        W23929  41.882   7.176   4.155
51582W        W23930  44.957  25.619   0.856
51583W        W23931  37.012  31.997  12.873
51584W        W23932  36.559   2.472   3.727
51585W        W23933  44.987  11.867  11.878
51586W        W23934   0.374  20.575  10.889
51587W        W23935  11.152  12.197  12.464
51588W        W23936  12.263  17.658  10.524
51589W        W23937  34.883  25.524  12.002
51590W        W23938  13.719  36.418   3.176
51591W        W23939  37.960  12.236   3.753
51592W        W23940  40.324   4.820  14.972
51593W        W23941  14.254   9.888   4.703
51594W        W23942  43.765   1.746   4.755
51595W        W23943  43.299  12.240  13.420
51596W        W23944  40.006  16.282  11.508
51597W        W23945   4.211  26.609  10.566
51598W        W23946  22.111  12.673  10.908
51599W        W23947  15.598  44.971   1.416
51600W        W23948  10.177  42.988  13.387
51601W        W23949  38.883  17.773   1.409
51602W        W23950  28.614  19.181  12.078
51603W        W23951  27.487  44.772  12.889
51604W        W23952   4.421  36.028  10.889
51605W        W23953  22.185   7.223   2.808
51606W        W23954  13.213  35.595   2.298
51607W        W23955  31.028  34.540  13.921
51608W        W23956  12.611   1.292  14.404
51609W        W23957  33.995  15.609  14.827
51610W        W23958  17.087  16.696  14.804
51611W        W23959  42.373   0.946   1.881
51612W        W23960  34.889   3.922  11.025
51613W        W23961  31.003  14.112   9.961
51614W        W23962  41.512  14.172  14.349
51615W        W23963  39.320  39.058  12.948
51616W        W23964  25.634  44.997   4.178
51617W        W23965  41.433  11.338   1.404
51618W        W23966  19.583   5.252  12.402
51619W        W23967  21.044  38.510  14.305
51620W        W23968   5.412  12.725  14.431
51621W        W23969  40.966  37.878   3.841
51622W        W23970  23.572  23.041   2.332
51623W        W23971  10.677  21.170   1.916
51624W        W23972  13.180  36.430  12.469
51625W        W23973   2.862  38.447  11.884
51626W        W23974  28.440  37.421  12.556
51627W        W23975  23.005   6.896  12.387
51628W        W23976  34.956   4.775  12.514
51629W        W23977  30.059  26.153   0.926
51630W        W23978  14.632  38.005  10.543
51631W        W23979  41.854   1.461  12.959
51632W        W23980  22.101  25.637   4.119
51633W        W23981  41.015  35.033  14.420
51634W        W23982   3.883  29.062   2.670
51635W        W23983   3.405   3.899  14.810
51636W        W23984   2.460  33.554  14.308
51637W        W23985  22.229  22.600  14.491
51638W        W23986  10.229  11.296   4.691
51639W        W23987  18.766  29.955   4.132
51640W        W23988  37.375   6.860   5.732
51641W        W23989  44.946  21.665   0.736
51642W        W23990  40.366  20.196   1.741
51643W        W23991  41.518  20.184  13.365
51644W        W23992  12.163  39.534  12.079
51645W        W23993  26.613  13.315   2.886
51646W        W23994  21.520   5.377   3.206
51647W        W23995  34.991  16.657  12.546
51648W        W23996  29.574   9.202   4.226
51649W        W23997  38.924   9.644   3.250
51650W        W23998  15.197  15.315   4.304
51651W        W23999  26.669  20.098   0.872
51652W        W24000  37.894  15.084  13.870
51653W        W24001  44.294  43.982   2.832
51654W        W24002  10.300  15.170   3.640
51655W        W24003  11.711   5.822  12.968
51656W        W24004   8.270   9.649   4.779
51657W        W24005  30.160  28.458  13.529
51658W        W24006  26.555  41.995  10.910
51659W        W24007   4.945  20.612  10.897
51660W        W24008   4.936  34.375   2.378
51661W        W24009  13.773   0.321   2.325
51662W        W24010   0.302  30.019   1.221
51663W        W24011  16.146   8.281  11.018
51664W        W24012  13.137   3.759   9.966
51665W        W24013  22.631  11.129  14.884
51666W        W24014  20.672  13.821  10.519
51667W        W24015  38.944  42.832  14.015
51668W        W24016  42.785  16.704   3.630
51669W        W24017  35.376   7.871  10.481
51670W        W24018   5.198  25.157  10.476
51671W        W24019  39.448  15.758   3.336
51672W        W24020  14.134  27.686   0.888
51673W        W24021  39.498  26.679  14.823
51674W        W24022   9.701   5.827   4.703
51675W        W24023  36.859  28.945  10.893
51676W        W24024  15.713  24.052  13.009
51677W        W24025  15.231  43.355  12.477
51678W        W24026  36.367  38.856   3.845
51679W        W24027   6.199  21.632   4.656
51680W        W24028  33.388  44.486   1.814
51681W        W24029  29.048  39.858   1.229
51682W        W24030  11.784   3.852   0.284
51683W        W24031  33.940  41.010   3.364
51684W        W24032  12.224  30.112   0.256
51685W        W24033  36.970  44.310   3.777
51686W        W24034  22.631  19.146   0.826
51687W        W24035   0.493  12.193  14.437
51688W        W24036  13.721  12.791  10.046
51689W        W24037   2.283   6.707   3.845
51690W        W24038  41.474  16.232  12.445
51691W        W24039  15.279  20.215  11.474
51692W        W24040   7.910  44.905  13.025
51693W        W24041   2.387  10.663  11.547
51694W        W24042   0.399  18.249   0.809
51695W        W24043   9.785  27.593   3.700
51696W        W24044  28.637  42.317   1.228
51697W        W24045  31.443   3.368   2.214
51698W        W24046  40.351  28.168   4.834
51699W        W24047  37.870  13.667   2.317
51700W        W24048  26.562  27.007   2.376
51701W        W24049   8.695  37.040   3.780
51702W        W24050  31.934  44.362   5.170
51703W        W24051  22.595  24.998   2.406
51704W        W24052   2.339   3.888  10.948
51705W        W24053  29.036   8.227  11.082
51706W        W24054   4.784  41.908   0.320
51707W        W24055   8.219  40.949   3.339
51708W        W24056  22.165  42.801  12.837
51709W        W24057  39.395  10.870   3.278
51710W        W24058   2.309   4.266   3.703
51711W        W24059   4.403  35.972  13.887
51712W        W24060   1.339  27.058   2.214
51713W        W24061   7.779  39.818  10.487
51714W        W24062  40.317  18.755  12.426
51715W        W24063  43.402  24.540   4.688
51716W        W24064   6.815  23.173   0.464
51717W        W24065  10.784  41.398  13.468
51718W        W24066  38.995  42.415  11.106
51719W        W24067  43.415  13.694  11.496
51720W        W24068  23.708  34.525   2.204
51721W        W24069  23.189  10.145   0.427
51722W        W24070  12.203  27.177   2.334
51723W        W24071  31.629  37.062   2.250
51724W        W24072  36.429  22.712  11.493
51725W        W24073  18.119  27.574   3.168
51726W        W24074  33.586  37.855  11.068
51727W        W24075   1.461   7.865   4.671
51728W        W24076   3.270  18.551   1.265
51729W        W24077   6.409   4.424   1.211
51730W        W24078  43.932  44.886  13.395
51731W        W24079  36.490  31.975  11.899
51732W        W24080   9.675  12.153   3.698
51733W        W24081   9.327   7.218   4.320
51734W        W24082  16.126  36.084   3.258
51735W        W24083  37.507  15.762  13.460
51736W        W24084  44.374  18.660   4.810
51737W        W24085  19.673  30.527   3.243
51738W        W24086  31.402  12.691   3.311
51739W        W24087  33.453  33.022   3.282
51740W        W24088  14.676  13.232   3.258
51741W        W24089  38.849  21.051  10.893
51742W        W24090   5.702  25.550   0.762
51743W        W24091  37.399  35.981   0.458
51744W        W24092  19.171  27.590  14.009
51745W        W24093  22.171  12.336   4.184
51746W        W24094  43.980  19.232   1.789
51747W        W24095  30.089  41.905   1.789
51748W        W24096  39.053   0.769   5.260
51749W        W24097  13.616  38.513   3.179
51750W        W24098   8.248  19.205  13.368
51751W        W24099  20.705   9.372  11.871
51752W        W24100  40.055  14.264  13.998
51753W        W24101   9.858  26.482   1.283
51754W        W24102  30.970  27.105  14.279
51755W        W24103  19.607  19.594   2.806
51756W        W24104  12.820   1.822   1.774
51757W        W24105  36.356  34.020   4.767
51758W        W24106  30.559  12.320   0.950
51759W        W24107  29.141  44.961   3.836
51760W        W24108  31.436  41.481   4.632
51761W        W24109  20.105  29.955   3.173
51762W        W24110  14.135  30.641   4.738
51763W        W24111  15.796  42.849  11.393
51764W        W24112  38.445  38.889   2.751
51765W        W24113  16.277   3.904   1.782
51766W        W24114  29.166  25.469  10.561
51767W        W24115  32.392   8.236   4.731
51768W        W24116  24.193   5.375   2.853
51769W        W24117  32.400  20.553   0.417
51770W        W24118  25.200  21.602   5.270
51771W        W24119   2.894  17.740  11.590
51772W        W24120  15.731  10.792   3.794
51773W        W24121  30.160  41.417  11.029
51774W        W24122   0.452  28.585   0.824
51775W        W24123  16.219  23.635  14.795
51776W        W24124   3.260  37.944  13.377
51777W        W24125   4.912   3.906  13.892
51778W        W24126  21.567   5.748  14.770
51779W        W24127   8.286  29.656   0.906
51780W        W24128  28.663  20.558  13.377
51781W        W24129   4.418  25.002  13.442
51782W        W24130  39.930  29.542  11.872
51783W        W24131  38.874  13.228   4.696
51784W        W24132  13.130  19.247  13.858
51785W        W24133  43.796  33.105  12.517
51786W        W24134  39.388  40.900   3.802
51787W        W24135  26.998  21.682   3.664
51788W        W24136  11.365  17.141  11.997
51789W        W24137  36.578  44.288  14.432
51790W        W24138  40.399  15.215   2.782
51791W        W24139  27.691  10.301  12.397
51792W        W24140  43.766  42.924  13.054
51793W        W24141   6.762   7.833   1.840
51794W        W24142  41.982   1.949   4.140
51795W        W24143  44.916  31.034  10.602
51796W        W24144  11.632  39.498  13.464
51797W        W24145  41.477  26.184   4.738
51798W        W24146   7.747  38.872   5.305
51799W        W24147   2.365  34.053   3.212
51800W        W24148   4.206  30.912  12.483
51801W        W24149  11.166  34.532   3.324
51802W        W24150  29.005  27.646   3.341
51803W        W24151  18.244   8.384  13.808
51804W        W24152  26.626   8.703  11.972
51805W        W24153   8.887  30.647   1.802
51806W        W24154  14.236  39.957  12.401
51807W        W24155  19.121   8.240  12.984
51808W        W24156   6.235   8.163  11.858
51809W        W24157   3.872  30.520  11.604
51810W        W24158  43.994   9.319  14.325
51811W        W24159  39.492   4.910   0.871
51812W        W24160  14.672  23.124  12.447
51813W        W24161  20.115  27.141   4.803
51814W        W24162  12.620  44.995  12.905
51815W        W24163  21.598  12.219   2.800
51816W        W24164  11.265  26.967   2.797
51817W        W24165  23.061  35.106  10.941
51818W        W24166  20.693  29.439   0.387
51819W        W24167  18.786  28.512  13.376
51820W        W24168  11.840   6.780   3.787
51821W        W24169  43.394  10.295   4.669
51822W        W24170  11.756  35.565   0.310
51823W        W24171   4.878  19.174   4.745
51824W        W24172  13.645  11.247  10.608
51825W        W24173  15.280  27.125  12.430
51826W        W24174  33.881   0.309  10.477
51827W        W24175  14.264  33.877  11.874
51828W        W24176  17.278  32.592   1.425
51829W        W24177  35.590  30.044   0.882
51830W        W24178  26.036  21.210  14.411
51831W        W24179   0.802  29.490   3.235
51832W        W24180  32.040  31.448  13.041
51833W        W24181  19.597  10.751   3.375
51834W        W24182   6.894  32.018   0.395
51835W        W24183  17.721  31.500   4.790
51836W        W24184  31.022   1.818   1.210
51837W        W24185   0.859  30.458   2.354
51838W        W24186  26.626  30.475   1.836
51839W        W24187  14.175  37.364  10.999
51840W        W24188  29.494   8.670   5.115
51841W        W24189  27.005  26.102  12.346
51842W        W24190  21.091  41.479  12.470
51843W        W24191  33.898   4.900   1.232
51844W        W24192  43.411  30.553  14.795
51845W        W24193  28.106  25.695   0.259
51846W        W24194   6.233  37.458  14.029
51847W        W24195  35.051  11.145  14.318
51848W        W24196  31.135   6.195   0.772
51849W        W24197  19.253  37.394   3.696
51850W        W24198  40.387   4.754  12.870
51851W        W24199  24.653  40.387  13.994
51852W        W24200   8.812  29.924  11.394
51853W        W24201   6.307  23.208  11.052
51854W        W24202  22.652  14.816  14.937
51855W        W24203  28.568  38.043  12.910
51856W        W24204  41.854  27.089  10.606
51857W        W24205  19.587   4.773  13.012
51858W        W24206  27.611   0.265   0.741
51859W        W24207  38.364  41.926  13.885
51860W        W24208  39.518  17.210  12.455
51861W        W24209  37.890   0.972   1.313
51862W        W24210  15.109  13.800  12.878
51863W        W24211  32.078   8.312  10.072
51864W        W24212  16.241   1.474   1.245
51865W        W24213  16.590   7.329   1.889
51866W        W24214  42.316  37.421   0.751
51867W        W24215  30.987   6.310  11.521
51868W        W24216  41.888  42.822   4.679
51869W        W24217  42.834  35.482   1.439
51870W        W24218  10.787  39.412   3.297
51871W        W24219  43.827   8.689  13.454
51872W        W24220   5.706  44.500   0.935
51873W        W24221   8.405  31.557  11.991
51874W        W24222   1.255   0.916  10.566
51875W        W24223  18.100  39.365   4.744
51876W        W24224   4.407   6.297  14.923
51877W        W24225  39.019   7.307  14.892
51878W        W24226  31.098  14.671   1.250
51879W        W24227   3.379  15.761   2.846
51880W        W24228  33.075  27.527  10.418
51881W        W24229  25.615  23.696  14.945
51882W        W24230   2.352  21.595  12.569
51883W        W24231  31.516   4.774   1.850
51884W        W24232  17.218  32.451   0.302
51885W        W24233  10.691  22.133   1.742
51886W        W24234  27.043   0.329  13.797
51887W        W24235  40.457  10.687  11.115
51888W        W24236  32.579  12.675   2.735
51889W        W24237   5.380   2.774   3.235
51890W        W24238  32.912  36.048  10.955
51891W        W24239  29.608   5.872   1.888
51892W        W24240  28.135  30.014  12.086
51893W        W24241  11.182  44.817  11.072
51894W        W24242   2.737   9.376  14.426
51895W        W24243  27.575   0.440   4.661
51896W        W24244  42.482   8.361  11.526
51897W        W24245  29.001  25.583  11.521
51898W        W24246  16.114  18.749   3.856
51899W        W24247   2.767   7.398   4.176
51900W        W24248  35.505  17.612  13.803
51901W        W24249   5.708  38.494   4.838
51902W        W24250  11.249  21.750  14.474
51903W        W24251  37.575   0.373  13.968
51904W        W24252  19.054   2.273  13.040
51905W        W24253  40.541  17.178  10.426
51906W        W24254  33.114  14.331   0.923
51907W        W24255   4.248  24.209   2.338
51908W        W24256   3.342  42.828  11.863
51909W        W24257  14.305  24.630   0.840
51910W        W24258   0.465  38.939  11.985
51911W        W24259  28.185  26.677  14.855
51912W        W24260  18.595  29.124  14.290
51913W        W24261  18.701  38.429   2.724
51914W        W24262  15.152  19.140  14.389
51915W        W24263   3.819  32.411   2.754
51916W        W24264  26.519   8.854  13.517
51917W        W24265   3.307  35.523   4.624
51918W        W24266   6.764   1.408  10.906
51919W        W24267  33.409  28.597  12.514
51920W        W24268  33.904   4.861   3.362
51921W        W24269  35.497  37.894  10.474
51922W        W24270  28.009   5.286  14.329
51923W        W24271  34.935  29.060  14.303
51924W        W24272   1.319   4.396  14.953
51925W        W24273  21.117  14.685  13.833
51926W        W24274  20.098   7.391  10.032
51927W        W24275   0.889   6.321   0.947
51928W        W24276  29.492  37.859   3.765
51929W        W24277  32.112  27.626  14.290
51930W        W24278  41.489  18.630  12.561
51931W        W24279  41.965  19.746  14.030
51932W        W24280  14.274  37.978   3.828
51933W        W24281   1.891   2.322  11.420
51934W        W24282  21.214  41.496   3.652
51935W        W24283  30.580  27.068   1.383
51936W        W24284  29.598  33.436  10.498
51937W        W24285  36.989  26.466   3.222
51938W        W24286  25.713  33.050   3.253
51939W        W24287   9.302  12.165  10.481
51940W        W24288  34.435  21.142   5.130
51941W        W24289  43.294  31.439   4.337
51942W        W24290  19.709   9.810  12.877
51943W        W24291  21.136  42.322  13.057
51944W        W24292  12.186   4.764  14.015
51945W        W24293  18.197  17.732  13.465
51946W        W24294  17.795  40.954  10.476
51947W        W24295  20.153   4.732  13.798
51948W        W24296  36.991   8.827   3.346
51949W        W24297  42.848   1.732   2.394
51950W        W24298  12.837  30.489   1.824
51951W        W24299  43.879  28.482   2.197
51952W        W24300   5.225  41.866  10.589
51953W        W24301  16.257  41.357  10.513
51954W        W24302  42.030  37.431  12.420
51955W        W24303  31.962   7.278   4.712
51956W        W24304   2.299   1.732  14.378
51957W        W24305  37.574  15.655  11.922
51958W        W24306   8.672   4.813  14.398
51959W        W24307  28.046   4.284   0.253
51960W        W24308   0.346   1.237   4.144
51961W        W24309  32.996  13.821  14.377
51962W        W24310  10.292  23.566  11.971
51963W        W24311  17.086  15.597  12.026
51964W        W24312  20.712  41.300   2.283
51965W        W24313  22.144  30.632  12.468
51966W        W24314  23.546  30.147  10.997
51967W        W24315  27.993  37.505   2.665
51968W        W24316  14.782  33.913  12.008
51969W        W24317  13.682  10.174  13.454
51970W        W24318  14.671  26.057  14.935
51971W        W24319  11.732   5.813  12.518
51972W        W24320  31.926  44.887   1.438
51973W        W24321  31.034  21.546   3.778
51974W        W24322   9.814  30.551   1.885
51975W        W24323  41.442  43.437   5.160
51976W        W24324  30.001  29.119   1.371
51977W        W24325   7.328  18.113  12.484
51978W        W24326   2.407  26.479   4.210
51979W        W24327  34.917  30.962  13.973
51980W        W24328  13.805   6.386  10.115
51981W        W24329  39.897  33.008  14.998
51982W        W24330  39.921   1.835  14.997
51983W        W24331  25.680  21.709   4.685
51984W        W24332  31.413   0.924   1.844
51985W        W24333   4.867  22.233  10.113
51986W        W24334  42.382  36.973  14.491
51987W        W24335  10.737  40.858  12.476
51988W        W24336  15.182  38.893   3.162
51989W        W24337  24.109   1.823  14.458
51990W        W24338  40.932  44.815   4.178
51991W        W24339   3.789  20.669   0.266
51992W        W24340  32.905  14.618   2.847
51993W        W24341  25.200  33.967   0.934
51994W        W24342   9.382   9.279  13.364
51995W        W24343   9.306  16.614   3.801
51996W        W24344  26.656   8.276   2.404
51997W        W24345  36.023   5.260  10.601
51998W        W24346  43.925  44.353   1.912
51999W        W24347  27.995   4.909  14.863
52000W        W24348  12.796  11.717  11.972
52001W        W24349   2.325  32.613   4.719
52002W        W24350  31.956  42.030   4.205
52003W        W24351  18.173  43.963  10.957
52004W        W24352  24.698   9.221   4.335
52005W        W24353  14.262  17.061  11.393
52006W        W24354  11.135  36.365   2.839
52007W        W24355   8.165  28.066  12.993
52008W        W24356   4.390   7.673  12.931
52009W        W24357  35.999  24.682   1.820
52010W        W24358  42.888   7.213  11.931
52011W        W24359  44.493  15.294  11.059
52012W        W24360  43.494  18.275  10.404
52013W        W24361  32.895  32.551  10.564
52014W        W24362  23.523  40.023   4.770
52015W        W24363  32.084  15.799   0.429
52016W        W24364  17.725  24.479   0.861
52017W        W24365  39.488  34.406  14.457
52018W        W24366  44.839  43.898   4.659
52019W        W24367   0.352  28.947  12.480
52020W        W24368  23.223   9.314  14.338
52021W        W24369  20.632  44.485   4.773
52022W        W24370  27.122  10.794  14.304
52023W        W24371  39.484  37.879   0.839
52024W        W24372  18.550  21.236  10.509
52025W        W24373  38.383  24.004  12.447
52026W        W24374  10.257  11.814   0.948
52027W        W24375  13.289   6.772   2.377
52028W        W24376  19.592  27.482   4.663
52029W        W24377   8.702  41.522   1.257
52030W        W24378  38.533   9.293   0.449
52031W        W24379  13.253  13.193   2.248
52032W        W24380   5.256  10.838  10.641
52033W        W24381   9.861  28.511  13.986
52034W        W24382  35.911  43.999   4.685
52035W        W24383  34.534  43.437   1.740
52036W        W24384  38.355  11.321  10.966
52037W        W24385  10.840  10.648  13.357
52038W        W24386  25.105   9.190  13.509
52039W        W24387  32.488   7.239  12.968
52040W        W24388  40.501   0.353   3.322
52041W        W24389  15.286  13.752  11.985
52042W        W24390  12.665  20.171  11.557
52043W        W24391  23.222  13.320  11.050
52044W        W24392  16.594  35.852   3.172
52045W        W24393   5.695  38.983  14.338
52046W        W24394  11.213  15.161  10.627
52047W        W24395   5.707   2.238   3.209
52048W        W24396  19.227  18.230   4.248
52049W        W24397  42.918  36.520   4.241
52050W        W24398  11.723  40.946   0.257
52051W        W24399  19.085  29.108   2.301
52052W        W24400  16.701  28.059  11.025
52053W        W24401   4.449  42.443   1.432
52054W        W24402  31.068   1.385  12.347
52055W        W24403  34.958  41.351  11.535
52056W        W24404  12.754  26.957   1.295
52057W        W24405  10.182  37.008  14.864
52058W        W24406  20.732  22.010  11.593
52059W        W24407   6.408  14.165   1.390
52060W        W24408  28.547  15.664   0.824
52061W        W24409  33.882   7.766   5.118
52062W        W24410  17.237  20.544   4.253
52063W        W24411  25.474   8.270   0.317
52064W        W24412  16.740  22.103   1.389
52065W        W24413   7.866  16.162   1.270
52066W        W24414  18.235  19.156   1.901
52067W        W24415   8.328  29.639   4.706
52068W        W24416  32.609   5.747   4.131
52069W        W24417  41.333  25.135   1.732
52070W        W24418   2.869  35.366   0.347
52071W        W24419  22.545  24.496  10.929
52072W        W24420  28.570  18.647   2.280
52073W        W24421  17.726  36.375  14.846
52074W        W24422  38.859   7.782   5.286
52075W        W24423  25.565  21.746  12.447
52076W        W24424   2.269   8.367   1.871
52077W        W24425  30.950  17.301   1.334
52078W        W24426  27.195  19.545  11.399
52079W        W24427  43.453   9.171   3.302
52080W        W24428  12.262   4.730  14.494
52081W        W24429  37.009   0.487  12.949
52082W        W24430   7.697  16.755  13.023
52083W        W24431  11.218  43.015  13.946
52084W        W24432  32.976  25.675   0.829
52085W        W24433  18.171   9.816  10.979
52086W        W24434  22.624   6.329   2.269
52087W        W24435  25.569  31.579  11.947
52088W        W24436  41.816  13.160  10.618
52089W        W24437  28.158  30.482  10.440
52090W        W24438  21.656   1.409  13.523
52091W        W24439  41.016   1.474   0.776
52092W        W24440  35.930  35.035   1.729
52093W        W24441  21.036  14.154   9.927
52094W        W24442  27.181  40.825   0.271
52095W        W24443  36.891   3.741   2.899
52096W        W24444  24.013  41.900  10.516
52097W        W24445  44.463  23.192   4.597
52098W        W24446  11.721  17.770  14.297
52099W        W24447  19.602  23.553   1.292
52100W        W24448  35.382   7.898  13.409
52101W        W24449  21.554  14.634  13.456
52102W        W24450  42.843  28.624   4.229
52103W        W24451  21.735  24.686   2.712
52104W        W24452   7.703   7.290   1.229
52105W        W24453   8.242  36.900  10.983
52106W        W24454  30.473   7.819   9.585
52107W        W24455  15.796   2.882  13.819
52108W        W24456  21.511  28.046   9.925
52109W        W24457  43.367   2.333  11.511
52110W        W24458   9.241   0.864   3.367
52111W        W24459  16.284  38.067   3.698
52112W        W24460  36.467  22.210   3.868
52113W        W24461   7.753  15.761  13.821
52114W        W24462  43.925  29.503  11.017
52115W        W24463  34.101  43.275  11.876
52116W        W24464  15.319  13.601   0.257
52117W        W24465   0.944  37.479   1.403
52118W        W24466  43.480  21.630  13.414
52119W        W24467  20.162  37.873   3.217
52120W        W24468  24.191  11.365   1.424
52121W        W24469  24.200  19.101  11.023
52122W        W24470  13.672  27.515  14.862
52123W        W24471  26.952  37.026   0.815
52124W        W24472  39.852  31.153  14.018
52125W        W24473  28.440  33.937   2.259
52126W        W24474  40.868  18.680   2.233
52127W        W24475   8.734  40.544  11.900
52128W        W24476   3.748   3.402   3.719
52129W        W24477  12.154  35.071  11.122
52130W        W24478   4.439  41.456   2.892
52131W        W24479   6.352   5.311  13.506
52132W        W24480  20.162  13.329   2.843
52133W        W24481  12.683  10.681  12.040
52134W        W24482  19.066  33.010   1.280
52135W        W24483  23.018   8.335  12.519
52136W        W24484  36.929  14.643   1.382
52137W        W24485  28.124  15.685  12.090
52138W        W24486  34.869   2.886   4.194
52139W        W24487   0.448  31.928  11.998
52140W        W24488   9.338  20.208   9.462
52141W        W24489  16.573   3.726   3.199
52142W        W24490   0.431  32.456  14.973
52143W        W24491  25.631   1.835  12.925
52144W        W24492   8.295  30.504  13.395
52145W        W24493  27.088  12.340   0.795
52146W        W24494  41.488   8.849  12.991
52147W        W24495   0.420  23.223   2.741
52148W        W24496  11.363  18.270   0.792
52149W        W24497  27.131  28.466   2.835
52150W        W24498   6.790  40.814  10.541
52151W        W24499  19.641  14.243  10.476
52152W        W24500  28.615   6.822  11.884
52153W        W24501  36.999  20.734  13.481
52154W        W24502  42.381  39.557  10.421
52155W        W24503  11.701  20.664  12.443
52156W        W24504  30.595  32.079   2.356
52157W        W24505   5.292  38.339   4.777
52158W        W24506  26.457   5.212  12.988
52159W        W24507  43.880  32.895   4.195
52160W        W24508  34.961   5.402   2.877
52161W        W24509  36.868   8.665  12.492
52162W        W24510  19.043  34.045   1.700
52163W        W24511  31.417  23.568   3.686
52164W        W24512  15.617  25.013   3.367
52165W        W24513  15.188  24.571  13.947
52166W        W24514  21.610  16.120  12.554
52167W        W24515  23.725  16.174   4.745
52168W        W24516  23.490  24.485   2.834
52169W        W24517  38.026  17.723   0.355
52170W        W24518  17.262  36.501   4.613
52171W        W24519   3.252  43.489   1.285
52172W        W24520  16.226   7.258  13.391
52173W        W24521  44.438  38.890   5.257
52174W        W24522   9.847  14.687  10.970
52175W        W24523  35.529  11.712  12.484
52176W        W24524  11.732  39.487   4.806
52177W        W24525  39.935  27.068  14.779
52178W        W24526  13.721   6.696   4.758
52179W        W24527   4.834  34.584   5.279
52180W        W24528  17.303   3.824  11.398
52181W        W24529  13.276  28.575   2.881
52182W        W24530  34.108   8.360   1.704
52183W        W24531  28.951  42.294   0.926
52184W        W24532   9.344  31.126  14.306
52185W        W24533  17.282  19.178   4.838
52186W        W24534   4.405  28.435   0.846
52187W        W24535  44.991  33.897  12.988
52188W        W24536  25.175  39.492  13.817
52189W        W24537  18.591   7.682  12.489
52190W        W24538  41.500  35.470  12.512
52191W        W24539  39.904  43.764   0.359
52192W        W24540   8.733  31.591   2.872
52193W        W24541  44.772   8.712   3.835
52194W        W24542  19.544  25.044   4.176
52195W        W24543  10.166   2.884   4.287
52196W        W24544  21.078  40.822   3.205
52197W        W24545  43.466  14.624   0.356
52198W        W24546   3.277  27.028   0.771
52199W        W24547  23.023  20.585  13.049
52200W        W24548  39.459  30.553  10.460
52201W        W24549  33.951  21.089   4.208
52202W        W24550  24.648  43.955   4.610
52203W        W24551  16.631   1.866   3.169
52204W        W24552  33.003  43.283   1.927
52205W        W24553   4.721   1.772   2.217
52206W        W24554  43.847  39.975   1.442
52207W        W24555  26.154   3.946  13.823
52208W        W24556   6.759  14.196  12.063
52209W        W24557  15.720  23.519  10.105
52210W        W24558  18.706  24.695   4.190
52211W        W24559  29.922  34.395   0.815
52212W        W24560   3.757   9.280  11.449
52213W        W24561  41.860  43.359  10.424
52214W        W24562  24.032  20.170  13.863
52215W        W24563  36.567  23.685   3.291
52216W        W24564  22.053  20.650   3.184
52217W        W24565  19.257   1.843  11.936
52218W        W24566  32.503   6.346  10.508
52219W        W24567  26.191  28.028  11.001
52220W        W24568  43.818  28.017   0.933
52221W        W24569   0.422  38.550   3.178
52222W        W24570  25.149  20.102   4.146
52223W        W24571   3.817  19.550   2.389
52224W        W24572  21.244  36.474  12.851
52225W        W24573  41.019   7.216  13.546
52226W        W24574  33.964   3.259  13.986
52227W        W24575  26.135  43.946   0.262
52228W        W24576   6.883  44.962   1.781
52229W        W24577  22.502  12.612  10.906
52230W        W24578  41.986  16.691  11.610
52231W        W24579  17.583  14.815  11.058
52232W        W24580  31.068  20.671  13.937
52233W        W24581   1.872  26.131   2.195
52234W        W24582  29.139  27.002   0.423
52235W        W24583  14.157   5.413  14.470
52236W        W24584  36.086  27.184   2.745
52237W        W24585  21.751  26.141   4.294
52238W        W24586   2.897  26.526  13.466
52239W        W24587  32.038  39.421  10.644
52240W        W24588  27.518  33.438   2.850
52241W        W24589  20.731  17.624  11.929
52242W        W24590  27.559  35.880  13.907
52243W        W24591  33.451  16.161  14.962
52244W        W24592   4.908   1.341   0.803
52245W        W24593  15.157   9.309   4.730
52246W        W24594  43.330  24.014  13.332
52247W        W24595  20.556   8.833  11.083
52248W        W24596  34.564   5.259  10.407
52249W        W24597   9.858  44.900  13.523
52250W        W24598  30.955  28.022  14.848
52251W        W24599  10.688  29.462  11.565
52252W        W24600  37.062  35.437  11.079
52253W        W24601  24.112  18.249   2.676
52254W        W24602   0.975  38.991   2.384
52255W        W24603  13.781   1.850   4.343
52256W        W24604  13.349  39.460   2.419
52257W        W24605  28.579  36.420  12.967
52258W        W24606  41.965  41.820   5.116
52259W        W24607  22.702  27.665   0.848
52260W        W24608  30.529  36.513  14.319
52261W        W24609  43.885  22.142  12.965
52262W        W24610   3.436  10.145  14.375
52263W        W24611  13.815  38.459  14.825
52264W        W24612  33.949   5.695  14.350
52265W        W24613  21.150  42.489   2.867
52266W        W24614  41.366   1.354   2.771
52267W        W24615  43.944  18.061  10.530
52268W        W24616  35.488  42.311   3.835
52269W        W24617  27.121  14.283  11.583
52270W        W24618  36.951   4.318  11.064
52271W        W24619  18.670  34.998  14.023
52272W        W24620  44.997   6.688   3.853
52273W        W24621  35.999  21.557  14.847
52274W        W24622  34.520  17.574   4.189
52275W        W24623  32.477  43.516   0.880
52276W        W24624   0.351  15.583  12.084
52277W        W24625  19.740  31.595  12.399
52278W        W24626   1.846  43.322  11.862
52279W        W24627  12.323  16.569  13.307
52280W        W24628  23.578   4.744   0.766
52281W        W24629  37.574  26.105  10.630
52282W        W24630  19.632  42.993   2.760
52283W        W24631  32.535  38.889  10.633
52284W        W24632  18.714  42.847  13.887
52285W        W24633   4.708  30.141   0.864
52286W        W24634  36.095  39.923   3.688
52287W        W24635   7.318  25.055  10.603
52288W        W24636  16.177   5.417   0.302
52289W        W24637  16.216  29.471   2.683
52290W        W24638  29.922  33.390  10.481
52291W        W24639  35.887  28.509   2.201
52292W        W24640   7.804  20.610   5.621
52293W        W24641   5.810  32.983  13.873
52294W        W24642  22.239   3.360   1.794
52295W        W24643  39.548  12.705   2.844
52296W        W24644  28.929   2.810  12.473
52297W        W24645  14.765   1.264   1.371
52298W        W24646   4.280   7.879   0.776
52299W        W24647   8.767  13.739  14.902
52300W        W24648  35.953  23.169   9.945
52301W        W24649  42.324  28.004   1.313
52302W        W24650  20.708  39.883   4.322
52303W        W24651  29.592  36.911  13.935
52304W        W24652  26.105  14.735  10.410
52305W        W24653  35.507  26.954   3.194
52306W        W24654  16.128   4.794   0.439
52307W        W24655  29.654  10.878  13.872
52308W        W24656   6.187   6.197   1.252
52309W        W24657  30.084  14.816  14.781
52310W        W24658  11.279   3.433  13.860
52311W        W24659  43.271  44.324   2.204
52312W        W24660  38.333  25.564  11.582
52313W        W24661   3.383  40.439  11.966
52314W        W24662  29.509   8.673  11.877
52315W        W24663  13.613  18.152  11.013
52316W        W24664  21.076  43.468  11.020
52317W        W24665  15.234  24.073  12.885
52318W        W24666  13.279  32.093  10.059
52319W        W24667  16.671  19.270  11.558
52320W        W24668   7.857  13.734   0.376
52321W        W24669  24.990  21.542  10.619
52322W        W24670   6.404  34.891  14.509
52323W        W24671   1.917  37.359   4.304
52324W        W24672   2.946  44.880  13.340
52325W        W24673  16.140  10.872  14.801
52326W        W24674  23.236  34.458  13.036
52327W        W24675  26.660  15.285   0.892
52328W        W24676  38.348  13.804   0.962
52329W        W24677  43.020  31.125   1.351
52330W        W24678  19.135   3.316   1.407
52331W        W24679  20.569  40.443  12.949
52332W        W24680  16.283  24.126   4.817
52333W        W24681  21.138  21.092   4.331
52334W        W24682   9.300  22.591  14.461
52335W        W24683  15.106  11.134  14.510
52336W        W24684   9.261  17.688  12.448
52337W        W24685  18.091  18.263  11.519
52338W        W24686  30.065  23.528   1.883
52339W        W24687  30.959  29.493   1.357
52340W        W24688  25.510  13.819  14.484
52341W        W24689  33.880  24.204   0.263
52342W        W24690  26.069   9.839  13.869
52343W        W24691  32.028  34.047  11.500
52344W        W24692  14.764  24.984   0.845
52345W        W24693  33.593  39.968   3.305
52346W        W24694  24.620   3.748  12.504
52347W        W24695  40.043  24.565   1.327
52348W        W24696  43.878  35.038   4.806
52349W        W24697  40.355  23.709   2.813
52350W        W24698  42.365  31.548   3.351
52351W        W24699  36.902  17.302  13.918
52352W        W24700  37.439   1.912  10.629
52353W        W24701  21.524   7.394   4.312
52354W        W24702   8.196   3.868  11.514
52355W        W24703  10.807   2.366  14.372
52356W        W24704  40.999   7.841   4.155
52357W        W24705   8.858   7.732   4.254
52358W        W24706  25.157  26.597   5.303
52359W        W24707  11.371   7.874  12.846
52360W        W24708   6.212  38.474  12.519
52361W        W24709  40.803  13.653  11.950
52362W        W24710  20.110  44.339  12.470
52363W        W24711  16.251  22.233   2.213
52364W        W24712  39.826  11.276   1.796
52365W        W24713  40.364   9.747  11.985
52366W        W24714  43.401   4.425   3.812
52367W        W24715   4.700  10.209   0.343
52368W        W24716  40.507   7.699  11.465
52369W        W24717  28.932  43.854   2.274
52370W        W24718  43.975  39.526   2.308
52371W        W24719  21.258   6.409   1.359
52372W        W24720  30.642  36.093   3.675
52373W        W24721  34.090  22.610   3.846
52374W        W24722   7.368   5.399   1.261
52375W        W24723  35.578  36.058   1.391
52376W        W24724  42.412  33.528  12.910
52377W        W24725  38.434   7.876   3.635
52378W        W24726  23.613  18.637  13.978
52379W        W24727  32.402  32.039  12.438
52380W        W24728  24.535  36.934   4.747
52381W        W24729   5.912   5.861  12.006
52382W        W24730   5.900  32.026  11.524
52383W        W24731  12.797  33.008  12.870
52384W        W24732   8.376  26.204  11.942
52385W        W24733   9.247   0.755  10.504
52386W        W24734  34.453   6.754  10.590
52387W        W24735  44.458  32.142   1.908
52388W        W24736   6.275  44.343   2.788
52389W        W24737  43.274   5.835  11.891
52390W        W24738  23.121   1.424  10.540
52391W        W24739   5.402  28.989   4.277
52392W        W24740  19.596  34.576  13.823
52393W        W24741  29.427  22.062  12.372
52394W        W24742   1.918  23.646  10.593
52395W        W24743  12.123  15.588   1.800
52396W        W24744  39.024  25.111   4.707
52397W        W24745   7.310  13.265  11.940
52398W        W24746   9.736  41.001   0.407
52399W        W24747  40.546   3.254  11.933
52400W        W24748  32.529  23.508  13.997
52401W        W24749  30.982  27.514   2.868
52402W        W24750  30.490  33.587   3.200
52403W        W24751  12.845   6.821  12.565
52404W        W24752  36.458  41.917   4.725
52405W        W24753  42.400  23.682   3.295
52406W        W24754  12.778   3.902   2.370
52407W        W24755   1.928  19.771  10.497
52408W        W24756  36.096  38.359  12.040
52409W        W24757  39.500  19.138   3.753
52410W        W24758  14.322   6.230   1.736
52411W        W24759   9.689  27.623  13.339
52412W        W24760  31.996  33.904   4.794
52413W        W24761   2.385  11.807   3.669
52414W        W24762   2.428   6.361   1.299
52415W        W24763  32.019  17.177  12.018
52416W        W24764  36.551  26.116  13.447
52417W        W24765  37.495   4.253   0.248
52418W        W24766  21.117  38.879   1.342
52419W        W24767  14.644   7.352  10.452
52420W        W24768  24.049  12.117  11.003
52421W        W24769  24.570  10.713   4.321
52422W        W24770  20.177  44.937  10.581
52423W        W24771  43.406   2.736   0.244
52424W        W24772  26.663  40.517   3.783
52425W        W24773   6.838  30.050   1.212
52426W        W24774  29.450  15.749  11.609
52427W        W24775   8.727  23.735  14.016
52428W        W24776  13.736  41.322  13.815
52429W        W24777  40.427   9.867  14.857
52430W        W24778  33.968  35.546  11.023
52431W        W24779  43.806  33.382   0.383
52432W        W24780  27.029  26.608  12.922
52433W        W24781  12.623  26.639  12.076
52434W        W24782  36.920   4.757   0.269
52435W        W24783  39.532  40.023   2.769
52436W        W24784  37.085  27.666  14.401
52437W        W24785  19.142  16.268   1.932
52438W        W24786  37.351  18.753  11.968
52439W        W24787  18.107  26.089  13.864
52440W        W24788  36.437  40.477   3.726
52441W        W24789  11.159  11.635   3.843
52442W        W24790   1.292   1.836  13.957
52443W        W24791  28.485   5.836   0.892
52444W        W24792  27.616   7.819  13.404
52445W        W24793  17.120  36.495  14.385
52446W        W24794  33.933  39.814   1.248
52447W        W24795   2.933   9.276  14.861
52448W        W24796  36.077  41.884  13.888
52449W        W24797   1.312  21.037  12.967
52450W        W24798  11.681  36.399  11.049
52451W        W24799  42.511   6.749   2.231
52452W        W24800  13.331  11.702  13.019
52453W        W24801   2.414  13.801  11.927
52454W        W24802  42.321  30.036  14.870
52455W        W24803  41.338  43.017  10.553
52456W        W24804   4.821  37.437  10.642
52457W        W24805  24.001   1.253  10.894
52458W        W24806   8.729  39.424   0.794
52459W        W24807  23.116  30.005  10.518
52460W        W24808  31.550   7.839   0.921
52461W        W24809  28.652   8.192  14.969
52462W        W24810   9.178  30.562   3.659
52463W        W24811   0.799   7.709  12.823
52464W        W24812  16.074   4.932   2.858
52465W        W24813   5.780  17.733   0.790
52466W        W24814  24.979   1.421   0.422
52467W        W24815  31.423  28.955  10.903
52468W        W24816  29.138  20.574   2.704
52469W        W24817  21.665  40.046  13.470
52470W        W24818  36.522  30.134   0.828
52471W        W24819  41.930  10.359  13.433
52472W        W24820   6.775  13.283   3.380
52473W        W24821  34.960  18.070   3.687
52474W        W24822  16.656  19.674  10.556
52475W        W24823  39.493   8.731   0.300
52476W        W24824  40.896  27.184  10.890
52477W        W24825   4.333  41.365  13.853
52478W        W24826  17.704  27.174   2.217
52479W        W24827  12.129  31.016   0.727
52480W        W24828  11.229   5.758   1.399
52481W        W24829   6.856  37.919   3.665
52482W        W24830  11.848   6.694   5.581
52483W        W24831   0.285  14.678   1.777
52484W        W24832   4.330  11.689  12.834
52485W        W24833  35.013  14.713  10.954
52486W        W24834   7.766  37.040  11.913
52487W        W24835  27.539  10.162  12.855
52488W        W24836  31.442  33.411   2.183
52489W        W24837  12.172  15.673   0.297
52490W        W24838  40.916  37.044  10.550
52491W        W24839  41.431   2.316   2.183
52492W        W24840  39.548   6.801  13.828
52493W        W24841  41.464   1.961   4.629
52494W        W24842  17.239  32.491  10.971
52495W        W24843  32.933   5.837   4.731
52496W        W24844   4.360   8.249   2.751
52497W        W24845   7.672  15.670  12.884
52498W        W24846  11.129  23.111   4.805
52499W        W24847   7.753   5.848  12.451
52500W        W24848  18.256  33.416   4.662
52501W        W24849  40.307  33.508   9.930
52502W        W24850  37.453  39.390  12.971
52503W        W24851  19.567  37.390  10.954
52504W        W24852   3.411  16.084  14.442
52505W        W24853  25.542  22.044   2.710
52506W        W24854  40.886   4.224   1.449
52507W        W24855  38.069  13.267  14.341
52508W        W24856  19.100  29.071   9.575
52509W        W24857  32.962  42.787   2.807
52510W        W24858  19.211   1.444   3.235
52511W        W24859  16.730  42.888   4.666
52512W        W24860   6.353  15.741   1.257
52513W        W24861   5.347  16.639  11.055
52514W        W24862   5.856  24.682   0.797
52515W        W24863  40.965   5.696   3.859
52516W        W24864  26.193   8.889  11.380
52517W        W24865  39.960  14.334  10.619
52518W        W24866   6.920  24.095   1.433
52519W        W24867  44.336  36.423   4.203
52520W        W24868  41.878  33.508   1.783
52521W        W24869  24.571  13.680   0.406
52522W        W24870   0.354  41.292   3.686
52523W        W24871   5.294  30.470  11.066
52524W        W24872  16.157  19.248  10.413
52525W        W24873  24.124  35.555   0.377
52526W        W24874  41.378   8.684   4.320
52527W        W24875  20.065  36.532   0.890
52528W        W24876   5.312   8.858   1.344
52529W        W24877  12.763   9.372  10.949
52530W        W24878  38.347   8.261   1.373
52531W        W24879  11.685   3.422  10.126
52532W        W24880  29.125  10.839   0.296
52533W        W24881  43.415  20.163   2.282
52534W        W24882  21.547  31.938  13.364
52535W        W24883  37.900  31.582   0.365
52536W        W24884  40.957  43.414  14.420
52537W        W24885  12.787  42.375  11.565
52538W        W24886  28.035  34.068  10.484
52539W        W24887  26.159  20.042   2.216
52540W        W24888  30.134  42.856   1.698
52541W        W24889  26.679  22.160  12.548
52542W        W24890  13.231  13.251   1.861
52543W        W24891  12.140  35.067  12.892
52544W        W24892  35.882  13.643   2.751
52545W        W24893   6.248  23.691  14.897
52546W        W24894  29.097  26.528   3.740
52547W        W24895  26.143  29.648  12.875
52548W        W24896  12.833  22.747  12.498
52549W        W24897  11.651  33.570   4.157
52550W        W24898   6.695   4.745  10.527
52551W        W24899   8.729  10.184   0.370
52552W        W24900  15.798  36.539   3.359
52553W        W24901  12.781  25.542  11.925
52554W        W24902  24.612  24.128   4.620
52555W        W24903  16.092  31.575   2.857
52556W        W24904  13.721   3.363   0.275
52557W        W24905  26.670  22.685  14.504
52558W        W24906  24.996  19.177   4.714
52559W        W24907  28.109  17.296  11.413
52560W        W24908  44.957   6.917  11.923
52561W        W24909  36.521   8.287   2.704
52562W        W24910  38.369  38.995  14.426
52563W        W24911  33.023  23.674  11.371
52564W        W24912  32.027  40.334  12.505
52565W        W24913   0.316   5.378  11.513
52566W        W24914  22.686   9.212  14.326
52567W        W24915  19.218  39.016   2.852
52568W        W24916  38.399   9.744   3.186
52569W        W24917   8.694  16.785  13.379
52570W        W24918  21.024  18.695   2.206
52571W        W24919   6.742   7.255   1.861
52572W        W24920  39.840  37.533  13.481
52573W        W24921  11.652   9.200   1.801
52574W        W24922  18.072  38.884   0.362
52575W        W24923  43.433  40.835   1.398
52576W        W24924  19.069   8.363  13.400
52577W        W24925  30.529  25.137   2.821
52578W        W24926   2.322  12.206  10.897
52579W        W24927   3.392  18.689  11.977
52580W        W24928  41.322  19.151   1.722
52581W        W24929  30.419   7.835   5.144
52582W        W24930  18.255   4.342  14.448
52583W        W24931  28.496  20.124   1.216
52584W        W24932   0.254   9.708  12.449
52585W        W24933  24.593  26.038  11.052
52586W        W24934  31.579  35.929  11.993
52587W        W24935  21.060  30.475  11.419
52588W        W24936  11.184  32.523  10.545
52589W        W24937  36.354  33.925  13.500
52590W        W24938  42.874  32.984  12.430
52591W        W24939  41.004   8.798   0.341
52592W        W24940  40.441  29.141  13.889
52593W        W24941  36.497  10.823   1.827
52594W        W24942  10.340  43.433  10.413
52595W        W24943   8.664   1.842  10.957
52596W        W24944  18.121  12.743  11.115
52597W        W24945  35.389  17.129   1.232
52598W        W24946  34.040   7.376  13.544
52599W        W24947  15.125  36.024   1.784
52600W        W24948   6.232  20.180  12.383
52601W        W24949  18.198  27.551   3.845
52602W        W24950   6.382  25.640  11.059
52603W        W24951  41.813  42.922   2.301
52604W        W24952  28.517  11.248   4.663
52605W        W24953   5.877  18.277   0.268
52606W        W24954   5.425  35.024   0.421
52607W        W24955  16.149  27.166  10.592
52608W        W24956  40.841  40.404   2.697
52609W        W24957  35.931  12.338   3.185
52610W        W24958  28.463  28.156   0.737
52611W        W24959  44.923  31.901   2.839
52612W        W24960  25.042  20.099  12.002
52613W        W24961  41.833   8.289  13.430
52614W        W24962   2.441   6.274  14.516
52615W        W24963  44.870  42.845   3.153
52616W        W24964   3.812   7.852   3.176
52617W        W24965   7.715  31.997   9.986
52618W        W24966  27.076   7.270  14.411
52619W        W24967  24.083  39.931  12.903
52620W        W24968  16.267   7.267  10.633
52621W        W24969   9.876  21.068  12.944
52622W        W24970   8.316  33.392   9.520
52623W        W24971   0.961  18.160  14.970
52624W        W24972  33.094  34.907  10.424
52625W        W24973  16.779  36.574  12.507
52626W        W24974  40.870  24.095  11.517
52627W        W24975  25.191  12.253  10.568
52628W        W24976  42.002  38.038  10.514
52629W        W24977   1.313   3.353   2.677
52630W        W24978   9.722  24.208   0.825
52631W        W24979   3.373  35.062  13.515
52632W        W24980  37.087  42.412   1.217
52633W        W24981  14.220  13.336   0.731
52634W        W24982  39.371  29.670   2.716
52635W        W24983  19.666  11.829   0.807
52636W        W24984   7.727   3.842  11.411
52637W        W24985  44.971  15.602  12.954
52638W        W24986  28.504  21.522   3.751
52639W        W24987  14.596  38.852   0.965
52640W        W24988   8.265  11.742   1.306
52641W        W24989  14.779   8.208   1.382
52642W        W24990   3.876   3.815  11.026
52643W        W24991   8.366  15.590   2.893
52644W        W24992  42.348  42.023   1.898
52645W        W24993  10.761   8.198   3.752
52646W        W24994  14.739  14.273   2.375
52647W        W24995  29.554  39.491  12.392
52648W        W24996  35.440  13.742  13.034
52649W        W24997  24.154   4.934   3.223
52650W        W24998  23.207  15.628   0.883
52651W        W24999  37.996  25.481  13.955
52652W        W25000  34.911  15.799   4.199
52653W        W25001  27.550  37.488  10.147
52654W        W25002  42.914   7.278   4.189
52655W        W25003   9.722  18.671   3.654
52656W        W25004  40.329  42.872  13.936
52657W        W25005  21.535  28.495   2.186
52658W        W25006  14.652  19.555  13.488
52659W        W25007  44.341  43.858  14.391
52660W        W25008  10.194  15.787  14.941
52661W        W25009  18.091  32.054   1.774
52662W        W25010  43.845   4.851  13.528
52663W        W25011  10.643  34.087   2.699
52664W        W25012   8.875   1.748   1.359
52665W        W25013   8.686  15.738  14.398
52666W        W25014  14.687  37.339   0.796
52667W        W25015   4.744   4.825   0.869
52668W        W25016  23.683   3.933   3.675
52669W        W25017   1.335  23.044  12.870
52670W        W25018  41.414   3.888  13.344
52671W        W25019   4.402  19.139   3.163
52672W        W25020  10.166  42.992  12.512
52673W        W25021  23.517   8.356  11.927
52674W        W25022  32.633  31.622  13.807
52675W        W25023  20.083  28.567  12.476
52676W        W25024  34.069  36.998   5.101
52677W        W25025   8.216  19.775  11.128
52678W        W25026  40.476  35.933  11.913
52679W        W25027   4.314  23.039  14.364
52680W        W25028   4.915  13.753   1.696
52681W        W25029   3.417  34.474  12.836
52682W        W25030  32.047  22.215   4.827
52683W        W25031  10.356  20.630  14.760
52684W        W25032  40.856  44.398   3.320
52685W        W25033  37.399  13.763   0.866
52686W        W25034   5.336   7.296   2.372
52687W        W25035  17.586  42.411   4.270
52688W        W25036  14.119  11.285  13.032
52689W        W25037   0.264   3.348   2.405
52690W        W25038  23.542   8.285   3.646
52691W        W25039  23.516  40.454   0.817
52692W        W25040  17.292  11.798   1.321
52693W        W25041  17.692  20.534   0.481
52694W        W25042  36.863  21.553   4.158
52695W        W25043  12.687  35.057  12.035
52696W        W25044  24.009  24.158  11.540
52697W        W25045   4.841   1.474  13.356
52698W        W25046   3.296   4.731   4.646
52699W        W25047   4.704  26.112   3.737
52700W        W25048  43.905  25.676   3.208
52701W        W25049   9.286  20.700  13.843
52702W        W25050  30.017  21.698  13.820
52703W        W25051  27.111  21.525  12.387
52704W        W25052  29.601  16.750   0.288
52705W        W25053  12.682  24.171   1.248
52706W        W25054  26.176  33.035   2.239
52707W        W25055  10.715  16.785   0.341
52708W        W25056  40.832  28.972   4.315
52709W        W25057  31.016  38.473  11.993
52710W        W25058  13.746  10.217   0.882
52711W        W25059  42.326  29.153   1.439
52712W        W25060  12.738  42.450  11.862
52713W        W25061  12.656  27.041  14.776
52714W        W25062  31.520  38.033   0.882
52715W        W25063  36.352  30.930  14.819
52716W        W25064  39.962  22.734   1.935
52717W        W25065  38.443  36.950   1.837
52718W        W25066  31.547   9.371   0.332
52719W        W25067   8.265  33.903   3.677
52720W        W25068  14.178  32.102  13.982
52721W        W25069  29.445  26.197  14.924
52722W        W25070  12.624  17.153  12.044
52723W        W25071  16.808  36.380  12.074
52724W        W25072  10.294  36.377  13.841
52725W        W25073  14.245  27.978   5.122
52726W        W25074   4.846  43.505  14.388
52727W        W25075  25.187  38.343  11.045
52728W        W25076   5.711  18.090  12.480
52729W        W25077  14.731  19.565   5.179
52730W        W25078  29.042  16.298   4.728
52731W        W25079  21.153  43.513  13.887
52732W        W25080  21.520  31.587  14.430
52733W        W25081  22.685  34.104  11.125
52734W        W25082  36.917  40.919   3.260
52735W        W25083  14.170  29.508   4.779
52736W        W25084  33.525  42.426   2.789
52737W        W25085  25.694  38.457  12.352
52738W        W25086   1.413   2.910  13.852
52739W        W25087  30.552   6.350  11.101
52740W        W25088  19.207  10.373   4.304
52741W        W25089   1.414  41.501   0.384
52742W        W25090  30.063  17.298  14.466
52743W        W25091  35.584   5.766  13.547
52744W        W25092  32.532  42.388  12.358
52745W        W25093  23.729  28.022   0.881
52746W        W25094   9.301  23.001   5.251
52747W        W25095   6.368   9.648  11.454
52748W        W25096  13.722  21.551   0.817
52749W        W25097  29.456  17.067   0.870
52750W        W25098  16.657  13.174  13.881
52751W        W25099  39.028  15.289   0.927
52752W        W25100  20.256  40.855   0.747
52753W        W25101  20.217  11.719  10.076
52754W        W25102   0.807   5.301  10.986
52755W        W25103   4.415   2.936  13.040
52756W        W25104  16.194   9.345   4.676
52757W        W25105   2.442  19.680   4.130
52758W        W25106  31.076  44.442   4.290
52759W        W25107  29.561  27.521  11.451
52760W        W25108  11.189  32.424   0.869
52761W        W25109  38.402   7.692   4.793
52762W        W25110  29.023  18.116  11.127
52763W        W25111  43.459  11.166  10.997
52764W        W25112  40.507  30.047  14.284
52765W        W25113   2.817  30.062   4.637
52766W        W25114   0.308  19.265  12.940
52767W        W25115   9.193  17.202  13.912
52768W        W25116  21.252  24.216   5.191
52769W        W25117   0.250   8.308  14.818
52770W        W25118  25.593  17.623  10.553
52771W        W25119  29.036  10.784   2.260
52772W        W25120  25.479  42.955   4.741
52773W        W25121  27.068   7.172   4.174
52774W        W25122  28.514  40.357  14.446
52775W        W25123  37.542  12.835  13.000
52776W        W25124  22.010  38.938  11.503
52777W        W25125  13.223  16.676  12.458
52778W        W25126   2.285  40.462   2.679
52779W        W25127  27.152  16.282  12.373
52780W        W25128   0.330   9.866   4.133
52781W        W25129   5.230  26.476   4.814
52782W        W25130   5.323  19.140  12.536
52783W        W25131  35.004  32.426   2.855
52784W        W25132  23.196  38.873  11.466
52785W        W25133  36.458  35.934  10.029
52786W        W25134  42.996   6.363  11.591
52787W        W25135  43.321  18.544   0.467
52788W        W25136  18.222   6.346  12.368
52789W        W25137  39.013   7.812  14.365
52790W        W25138  12.362   8.786   2.671
52791W        W25139  30.493  20.549  13.459
52792W        W25140  18.655  30.611   3.346
52793W        W25141   0.766   8.805   2.872
52794W        W25142   1.471   0.925   2.747
52795W        W25143   3.920   0.304  14.920
52796W        W25144  27.537  43.400  13.345
52797W        W25145  26.081  39.870   2.709
52798W        W25146  14.727   6.883  13.945
52799W        W25147  29.946  38.407  13.050
52800W        W25148  42.378  44.341  11.877
52801W        W25149   9.275  38.946  12.381
52802W        W25150  23.073   7.910   2.838
52803W        W25151  27.520  10.369  13.496
52804W        W25152  41.376  37.060  10.412
52805W        W25153  19.641  35.914   0.854
52806W        W25154  22.627  19.588  11.943
52807W        W25155   7.383  21.526  14.852
52808W        W25156  29.432  19.665  13.994
52809W        W25157   1.373   6.233   1.812
52810W        W25158   6.427  32.434  13.410
52811W        W25159  38.336   5.806  13.845
52812W        W25160  19.610  38.992   2.212
52813W        W25161  36.525  42.502  11.461
52814W        W25162  15.735  28.583   2.811
52815W        W25163  27.157  39.009  12.909
52816W        W25164   3.415  30.632   1.848
52817W        W25165  26.605  29.617   1.447
52818W        W25166  40.440  39.998  13.351
52819W        W25167  42.323  24.603   0.285
52820W        W25168  38.060  34.954   4.713
52821W        W25169  38.398  38.908  14.986
52822W        W25170  18.572  11.787   2.689
52823W        W25171  14.821  33.916  14.915
52824W        W25172  11.243   5.212   0.776
52825W        W25173   2.949  28.658   3.360
52826W        W25174  36.095  13.108  10.994
52827W        W25175  12.235  42.325  11.417
52828W        W25176  39.416  29.983  13.837
52829W        W25177  24.033  14.600   2.220
52830W        W25178  17.131  39.862   3.345
52831W        W25179  16.684  28.085   0.404
52832W        W25180  23.240  27.116  13.824
52833W        W25181  18.595  17.110   5.266
52834W        W25182  21.513  15.595   0.944
52835W        W25183  11.314  33.497   0.877
52836W        W25184  21.667  10.640  14.012
52837W        W25185  25.185   8.185  13.008
52838W        W25186   5.898   3.739  11.975
52839W        W25187  42.788  32.486  14.006
52840W        W25188  42.294  13.133   4.201
52841W        W25189  21.745   4.709  14.809
52842W        W25190  14.598  36.543  12.500
52843W        W25191  42.946  40.318  11.070
52844W        W25192  15.311  43.465  11.059
52845W        W25193  25.038   0.358   2.884
52846W        W25194  25.477  13.310  13.541
52847W        W25195  34.510  23.055  11.050
52848W        W25196   5.230  25.652   3.838
52849W        W25197  19.152  23.049  14.462
52850W        W25198  39.977  17.676  13.855
52851W        W25199  12.701  33.610   4.298
52852W        W25200  40.999  41.390   3.335
52853W        W25201  13.214  41.039  14.953
52854W        W25202  33.079  36.947  10.929
52855W        W25203  27.950  13.194  13.038
52856W        W25204  28.966  13.756  11.433
52857W        W25205  40.988  29.066   0.855
52858W        W25206  13.326  28.456  12.577
52859W        W25207   7.404  22.137   2.856
52860W        W25208  36.375  25.041   3.244
52861W        W25209   7.678  21.688   2.683
52862W        W25210  30.979   7.679  14.827
52863W        W25211   6.824  21.616   1.931
52864W        W25212  17.666  27.590   0.740
52865W        W25213  15.751  13.215   2.816
52866W        W25214  17.088  11.233  14.387
52867W        W25215  44.879  26.083   1.846
52868W        W25216  19.211  23.022  14.946
52869W        W25217  40.391  18.268   1.910
52870W        W25218  22.226  23.022   3.314
52871W        W25219  21.048  17.092  14.486
52872W        W25220  26.959  25.120  11.007
52873W        W25221  28.136  28.155   2.762
52874W        W25222  10.376  36.375   0.794
52875W        W25223  16.265  12.276   1.354
52876W        W25224   2.460  20.178   1.268
52877W        W25225   8.271  39.956   2.770
52878W        W25226  10.166  14.136   5.253
52879W        W25227   7.281  18.239   4.150
52880W        W25228  12.703   3.726   1.853
52881W        W25229   2.846  34.012  14.319
52882W        W25230  26.195  28.124  11.491
52883W        W25231  15.119  30.044   0.846
52884W        W25232   3.314  38.938  14.971
52885W        W25233  44.449   7.681   2.370
52886W        W25234  43.878   1.481   0.463
52887W        W25235  15.116   4.809  13.810
52888W        W25236  27.598  40.326   1.414
52889W        W25237  16.124  24.549   4.763
52890W        W25238  39.927  10.268  11.577
52891W        W25239   0.903  30.496  10.618
52892W        W25240  41.952  16.609   2.368
52893W        W25241  39.410   1.287  14.775
52894W        W25242   6.299  26.612  11.537
52895W        W25243  39.511  42.381   4.272
52896W        W25244  33.524  29.596   0.272
52897W        W25245  40.033  32.092   4.767
52898W        W25246  17.280  38.963   3.150
52899W        W25247  40.898   0.492  12.052
52900W        W25248  26.994  11.226   1.758
52901W        W25249  21.619  10.759   3.215
52902W        W25250  21.525   4.376  13.398
52903W        W25251  21.617  22.208  14.384
52904W        W25252  20.769  17.224  14.913
52905W        W25253  18.266  12.162  13.841
52906W        W25254  30.084  26.066   3.167
52907W        W25255  10.300  33.025  11.436
52908W        W25256  22.177   6.882  11.047
52909W        W25257   8.783  13.242  11.978
52910W        W25258  34.444  24.127   3.347
52911W        W25259  23.523  43.813   3.689
52912W        W25260   4.279  15.638  11.586
52913W        W25261  40.023   6.412   1.814
52914W        W25262   4.227  22.051   3.830
52915W        W25263  28.006  11.128  13.500
52916W        W25264  44.411  43.868   1.708
52917W        W25265  18.287  30.945   0.941
52918W        W25266   1.914  10.801   4.607
52919W        W25267  20.748  25.060   4.642
52920W        W25268  25.604  14.275   3.277
52921W        W25269   5.785  13.681   0.846
52922W        W25270  21.127  42.971   3.756
52923W        W25271  35.971  32.071   2.673
52924W        W25272  37.840  15.188   1.913
52925W        W25273  28.092  19.707   9.968
52926W        W25274  34.019  43.825  10.457
52927W        W25275   8.372  31.071   0.958
52928W        W25276  22.574  15.270   0.331
52929W        W25277  31.093   4.240   3.806
52930W        W25278  22.556  38.955  14.810
52931W        W25279  42.030  32.406   4.670
52932W        W25280  24.712  29.459   3.709
52933W        W25281  24.115  15.677  14.889
52934W        W25282  41.428  22.619   4.711
52935W        W25283  10.341  34.479   2.748
52936W        W25284   5.294  29.620  10.527
52937W        W25285  20.036  17.734   2.836
52938W        W25286  24.975  27.635   2.229
52939W        W25287  37.444  41.858   3.678
52940W        W25288  19.065  14.780  13.860
52941W        W25289   1.372  25.554  11.550
52942W        W25290  23.566  34.502  10.448
52943W        W25291  43.790   6.814   3.354
52944W        W25292   1.816  22.696   0.933
52945W        W25293  14.637  22.096   2.899
52946W        W25294  31.445  22.602  12.001
52947W        W25295  23.626  10.230   2.852
52948W        W25296  19.638  20.590   1.927
52949W        W25297  20.761  11.669   0.760
52950W        W25298  17.203  29.566  11.995
52951W        W25299  43.473  24.106   3.168
52952W        W25300  13.299  38.878   2.320
52953W        W25301  12.310  31.140  14.857
52954W        W25302  11.740  26.500  10.971
52955W        W25303  39.053  18.196   0.841
52956W        W25304  15.736  36.497   1.931
52957W        W25305  29.105  44.269  10.502
52958W        W25306  32.459   0.271  10.470
52959W        W25307   7.206  32.633  12.003
52960W        W25308  12.355  31.433   0.780
52961W        W25309  43.442   2.410   0.965
52962W        W25310   3.912  34.508   4.169
52963W        W25311  42.379   6.219   4.251
52964W        W25312  21.620  13.661  11.562
52965W        W25313  41.872  26.513   1.414
52966W        W25314   1.871  37.496  13.929
52967W        W25315  27.616  20.143   4.643
52968W        W25316  31.943   3.244  14.988
52969W        W25317   6.676   8.396   4.165
52970W        W25318  17.670   6.400  14.003
52971W        W25319  43.848  36.548  13.979
52972W        W25320  25.057  22.160   0.948
52973W        W25321  19.724  14.801  13.493
52974W        W25322   6.272   1.767   1.212
52975W        W25323  28.654  20.247  10.918
52976W        W25324  32.980  41.895  12.469
52977W        W25325   2.258   7.369   2.841
52978W        W25326  13.255   6.206  13.524
52979W        W25327  40.343  39.976   0.312
52980W        W25328   0.833  39.874   0.273
52981W        W25329  30.032  43.382   2.851
52982W        W25330  33.945  17.294   4.677
52983W        W25331  12.756  23.520  11.608
52984W        W25332   9.211  26.615  12.466
52985W        W25333  30.526  34.560  11.402
52986W        W25334  40.441  14.237  10.525
52987W        W25335  33.114   6.772   1.934
52988W        W25336   6.380  39.019   4.691
52989W        W25337  18.673  17.207  11.901
52990W        W25338  17.230  21.169  11.887
52991W        W25339   6.237  18.627  10.982
52992W        W25340  12.837   2.472  11.530
52993W        W25341  11.627  18.237   1.793
52994W        W25342  41.912  30.653   3.828
52995W        W25343  16.808  31.131  11.049
52996W        W25344  22.034  10.262  12.376
52997W        W25345  29.971  39.405   0.813
52998W        W25346  21.709   3.288  14.787
52999W        W25347  13.296  23.560   2.750
53000W        W25348  11.756  20.718  10.891
53001W        W25349  14.218  19.607   0.780
53002W        W25350  18.075   2.911   1.815
53003W        W25351  38.962  13.700   0.889
53004W        W25352  22.101   4.795  12.463
53005W        W25353  41.533  25.642   0.325
53006W        W25354   4.731  18.774  13.399
53007W        W25355  19.763  32.041  11.902
53008W        W25356  22.219  18.656   1.417
53009W        W25357   7.202  29.984  11.571
53010W        W25358  31.471  31.455   3.277
53011W        W25359  17.751   0.440  11.472
53012W        W25360  42.369   7.746   1.253
53013W        W25361  35.914  17.259  11.515
53014W        W25362  33.392  34.535   4.319
53015W        W25363  36.519  34.958  10.561
53016W        W25364  19.158   5.357   4.702
53017W        W25365   8.778  25.217   2.294
53018W        W25366  25.100  37.857   0.480
53019W        W25367  21.725  37.383   4.235
53020W        W25368  35.866  33.474  10.490
53021W        W25369  33.062   8.173   9.655
53022W        W25370   5.821   6.804   4.179
53023W        W25371   2.431  44.375   3.261
53024W        W25372  10.331  29.131  14.853
53025W        W25373  41.985  19.535  13.519
53026W        W25374  42.892   0.987   0.803
53027W        W25375  25.702  11.704   4.659
53028W        W25376  36.888  41.311  14.857
53029W        W25377   0.350   7.368  12.447
53030W        W25378  21.526   9.150  10.465
53031W        W25379  19.762  19.707   1.888
53032W        W25380   8.262  36.442  12.415
53033W        W25381  23.059  29.061   2.723
53034W        W25382  35.902  32.016  14.936
53035W        W25383  11.840  17.656   0.433
53036W        W25384  20.101  21.246   2.708
53037W        W25385  34.422  26.138   2.392
53038W        W25386  32.939  44.976   1.237
53039W        W25387  30.070   1.347  13.335
53040W        W25388  33.387  29.081  13.399
53041W        W25389  13.662  28.452   1.711
53042W        W25390  43.325  11.281  12.824
53043W        W25391  13.795  39.009   2.284
53044W        W25392   7.241  42.411   1.856
53045W        W25393   7.859  14.210   3.658
53046W        W25394  15.671  20.599   2.407
53047W        W25395  14.820  34.432  13.874
53048W        W25396  37.515  44.986  12.365
53049W        W25397  44.267  22.208  10.517
53050W        W25398  13.135  10.194   2.224
53051W        W25399  38.937   1.931   2.186
53052W        W25400   3.836  18.755   2.764
53053W        W25401   1.331  20.233   4.197
53054W        W25402   2.793  33.586   2.394
53055W        W25403  23.109  40.368   2.237
53056W        W25404   9.341   0.963  10.913
53057W        W25405   6.684   3.229  11.591
53058W        W25406  15.255   1.400  11.526
53059W        W25407   7.206  15.116  10.444
53060W        W25408  17.064  20.042  10.918
53061W        W25409  36.884  16.227   0.905
53062W        W25410  31.907  23.204   2.724
53063W        W25411  41.511  41.493  14.422
53064W        W25412   4.842  29.119   2.892
53065W        W25413   7.791  41.923   0.480
53066W        W25414   1.391  22.152  14.352
53067W        W25415  28.105  30.579   1.369
53068W        W25416  25.688  38.820   1.697
53069W        W25417   5.721  18.283   3.798
53070W        W25418  42.918  29.499  11.451
53071W        W25419  38.490  38.969  10.424
53072W        W25420  38.447  28.072  12.405
53073W        W25421  13.654  13.105   4.709
53074W        W25422  16.199  26.670   2.784
53075W        W25423   3.950  38.947  11.060
53076W        W25424  36.925  15.277   4.678
53077W        W25425  16.184   8.874   3.253
53078W        W25426   8.320  25.963   1.244
53079W        W25427  13.152  21.164  13.481
53080W        W25428  19.744   9.680  14.402
53081W        W25429   5.756   0.876   1.838
53082W        W25430  36.426  30.927  13.440
53083W        W25431   9.323  44.413   3.280
53084W        W25432  10.371  11.808   0.470
53085W        W25433  14.159   8.352  11.494
53086W        W25434  31.933  10.739   1.696
53087W        W25435  43.013  35.482   3.169
53088W        W25436  13.682  11.232   1.367
53089W        W25437   9.227  36.929   3.659
53090W        W25438  30.542  25.972  12.007
53091W        W25439  13.257  36.972  13.358
53092W        W25440  21.552  26.622  10.616
53093W        W25441  36.544  41.836  14.013
53094W        W25442  24.164  16.705  11.495
53095W        W25443   4.279  15.663   3.220
53096W        W25444  30.078  28.036   0.889
53097W        W25445  42.356   9.355  11.598
53098W        W25446  29.071  29.550  11.917
53099W        W25447   7.225  31.031   3.189
53100W        W25448  36.583  27.677   3.220
53101W        W25449  41.464  10.704   3.378
53102W        W25450  13.182  24.213   4.743
53103W        W25451  21.546  36.944  10.528
53104W        W25452  41.938  41.004  10.559
53105W        W25453  35.439  20.525  12.877
53106W        W25454  25.508  30.581   9.951
53107W        W25455  21.082  16.307   2.751
53108W        W25456   9.880   0.490  13.026
53109W        W25457  23.023  39.044  14.799
53110W        W25458  20.617  32.451   1.306
53111W        W25459  15.823  34.416   4.222
53112W        W25460  16.121   6.206  14.300
53113W        W25461  27.541  40.369  12.084
53114W        W25462  10.740   7.875  14.967
53115W        W25463  44.907  24.649   1.839
53116W        W25464  21.662  28.062  13.474
53117W        W25465  26.659  39.910  11.018
53118W        W25466  13.658  23.543   3.828
53119W        W25467  27.545  38.389   4.805
53120W        W25468  34.560  27.958   0.282
53121W        W25469   0.982   2.767  12.457
53122W        W25470   4.872  30.013   2.252
53123W        W25471   3.455  13.780   1.754
53124W        W25472  25.655  31.509   0.962
53125W        W25473   7.245  20.613  13.359
53126W        W25474  38.337  19.219   3.721
53127W        W25475  25.705  38.888  14.456
53128W        W25476  40.408  16.277  13.536
53129W        W25477  29.080  41.532  14.842
53130W        W25478  40.962  36.559   3.792
53131W        W25479  36.505  16.161  12.565
53132W        W25480   0.293  20.682  12.067
53133W        W25481  43.496  32.081   9.987
53134W        W25482   9.366  25.977  10.464
53135W        W25483  11.273  15.179   3.153
53136W        W25484   1.362  34.062  12.067
53137W        W25485   0.393  34.968   2.402
53138W        W25486  30.427  40.977  10.507
53139W        W25487  27.060  40.308  12.570
53140W        W25488   7.882  39.518  11.907
53141W        W25489  36.466  40.408  12.556
53142W        W25490   2.386  18.186  10.036
53143W        W25491  23.714  17.588  11.560
53144W        W25492  37.536   3.810   9.977
53145W        W25493  20.211  22.683  10.928
53146W        W25494  38.425  20.593   0.438
53147W        W25495  14.788   4.833   1.352
53148W        W25496  14.803  29.129   1.880
53149W        W25497  32.486  14.792  14.827
53150W        W25498  23.722  36.389  13.964
53151W        W25499  28.158   6.842   1.388
53152W        W25500  16.567   8.276  13.309
53153W        W25501  12.270  34.973   2.801
53154W        W25502  20.229  38.850  12.481
53155W        W25503   8.892  28.525  10.631
53156W        W25504   9.180  12.153  11.028
53157W        W25505   0.282  28.139   2.901
53158W        W25506  30.082  15.716  12.339
53159W        W25507  22.124   8.849  11.978
53160W        W25508  36.502   0.364  10.003
53161W        W25509   8.343   9.218  13.021
53162W        W25510  40.405  10.369  10.436
53163W        W25511   0.373  14.135   2.199
53164W        W25512  43.989  20.195  11.498
53165W        W25513  42.984  37.879   1.283
53166W        W25514  38.059   1.410  12.436
53167W        W25515  37.557   9.167   3.693
53168W        W25516  41.852  22.505   9.922
53169W        W25517  17.707   6.250  14.340
53170W        W25518  37.923  19.767   4.132
53171W        W25519  11.622  23.095   1.926
53172W        W25520  34.995  26.977   1.879
53173W        W25521  28.060  35.547   3.307
53174W        W25522  15.642  23.620  14.908
53175W        W25523  31.977  32.523   1.433
53176W        W25524  23.133  36.054  14.772
53177W        W25525  28.932  16.192  13.805
53178W        W25526   0.345  11.343  11.500
53179W        W25527  27.478  26.197   1.421
53180W        W25528   1.470  13.678  11.867
53181W        W25529  10.779  39.500   1.267
53182W        W25530   1.879   3.732   0.964
53183W        W25531  15.174  16.671  13.361
53184W        W25532  22.218   0.776  11.483
53185W        W25533  19.754  29.012   9.614
53186W        W25534  41.375  27.173   4.348
53187W        W25535  44.348  33.029   3.669
53188W        W25536  40.455  44.331  11.602
53189W        W25537  40.432  27.620  14.343
53190W        W25538  16.095  12.731  12.534
53191W        W25539  27.003   8.744   0.919
53192W        W25540  35.857   5.888   3.349
53193W        W25541  39.443  18.635   2.309
53194W        W25542  23.652  28.047  11.601
53195W        W25543  33.553  22.073  12.487
53196W        W25544   9.279  20.163   1.396
53197W        W25545  22.566  31.986  12.879
53198W        W25546  10.187  11.855  11.558
53199W        W25547   3.232  12.333   3.291
53200W        W25548  25.006   5.742   1.719
53201W        W25549  13.144  16.651   4.816
53202W        W25550   6.232  10.855   3.314
53203W        W25551  25.662  27.994   0.840
53204W        W25552  13.731   2.250   2.821
53205W        W25553  45.000  32.541  13.816
53206W        W25554  28.111  20.192  10.539
53207W        W25555  32.915   3.399  13.013
53208W        W25556  12.659   3.264   5.102
53209W        W25557   7.345  29.423   4.152
53210W        W25558   4.322  20.234  10.951
53211W        W25559  23.584   6.287  10.588
53212W        W25560   5.413  11.625  11.401
53213W        W25561  22.076   4.208   1.778
53214W        W25562  12.145  35.578   3.379
53215W        W25563  16.655  43.967  14.398
53216W        W25564  17.186  10.145  14.389
53217W        W25565  15.591   6.410   3.653
53218W        W25566  24.060  34.575  14.433
53219W        W25567   2.789  32.095   0.964
53220W        W25568  44.843  44.869   3.772
53221W        W25569   6.211  38.331  13.916
53222W        W25570  30.524   0.395   0.378
53223W        W25571   7.398  38.979   3.651
53224W        W25572  20.742  41.352  12.497
53225W        W25573  16.781  15.291  10.520
53226W        W25574  24.708  10.242   0.337
53227W        W25575  17.701  24.062  10.589
53228W        W25576   9.819   7.251   3.648
53229W        W25577  30.641  33.950  11.489
53230W        W25578  10.867  22.137  12.947
53231W        W25579  23.571  15.589   4.764
53232W        W25580  36.907  25.963   1.715
53233W        W25581  44.945  23.628   4.183
53234W        W25582  14.684  25.672   3.727
53235W        W25583   7.395  32.904   0.786
53236W        W25584   0.831   6.787   0.366
53237W        W25585  27.972  33.545  13.432
53238W        W25586  14.649   0.748   3.253
53239W        W25587  37.958   0.309   2.836
53240W        W25588   6.401   0.415   3.281
53241W        W25589  27.130  42.921   2.197
53242W        W25590  21.182  29.026   0.397
53243W        W25591  35.049  20.701   2.295
53244W        W25592   4.227  39.817   1.437
53245W        W25593  36.574   5.313   2.702
53246W        W25594   0.908   5.211   2.245
53247W        W25595  41.414  22.135  13.526
53248W        W25596   4.305  26.693   3.212
53249W        W25597  40.533  30.960   1.363
53250W        W25598   7.902  15.615   4.831
53251W        W25599  36.543  30.530  10.098
53252W        W25600  14.659   7.399   1.419
53253W        W25601   6.372  19.214  10.898
53254W        W25602  40.499  27.124   3.842
53255W        W25603  38.328  17.657   0.331
53256W        W25604  18.083  33.132   0.815
53257W        W25605  23.242  43.316   3.667
53258W        W25606   1.381  37.493  11.985
53259W        W25607  37.998  38.819   4.746
53260W        W25608  35.596  42.516  13.504
53261W        W25609   8.180  23.734   1.242
53262W        W25610  21.710  16.779  11.925
53263W        W25611  42.905  12.650   0.806
53264W        W25612  28.604   5.688  12.089
53265W        W25613  40.504  10.682   0.417
53266W        W25614   9.183  30.623   5.200
53267W        W25615  26.645  23.110   1.892
53268W        W25616   6.721  34.372   1.882
53269W        W25617  41.970  41.919  12.453
53270W        W25618   9.853  38.558  12.869
53271W        W25619  36.089   5.846  13.534
53272W        W25620  30.067   4.941  10.580
53273W        W25621   7.310   4.859  14.807
53274W        W25622  27.954  44.267   1.815
53275W        W25623  27.129   3.772   4.125
53276W        W25624   9.668  10.282  11.549
53277W        W25625  15.195  42.818  11.874
53278W        W25626  27.456  23.185  12.470
53279W        W25627  34.476  11.341   4.342
53280W        W25628  11.194  20.584   1.396
53281W        W25629  41.377  11.659   3.798
53282W        W25630  18.552  33.474   2.269
53283W        W25631  32.127  15.643  11.923
53284W        W25632  21.708  19.693   2.704
53285W        W25633   5.788   3.417  14.333
53286W        W25634  19.156  28.107  12.980
53287W        W25635   4.322  43.957  14.315
53288W        W25636  41.866  43.326  13.936
53289W        W25637  33.993  22.063   3.863
53290W        W25638  41.909   5.745  11.449
53291W        W25639  35.412  28.037   2.702
53292W        W25640   6.850  31.922  13.486
53293W        W25641  20.220  27.458   1.925
53294W        W25642   5.747  36.066  13.857
53295W        W25643   6.730  39.431   1.319
53296W        W25644  32.475   2.301   0.317
53297W        W25645  11.784  12.646   0.307
53298W        W25646  27.184  40.319   1.773
53299W        W25647  19.255  31.457  13.806
53300W        W25648  44.855   6.291  11.100
53301W        W25649  14.747  23.060  13.428
53302W        W25650   0.907   5.728   4.830
53303W        W25651  40.909  36.858   3.323
53304W        W25652  29.175  25.623   3.234
53305W        W25653  30.013  20.540  13.956
53306W        W25654  19.586  10.779   0.771
53307W        W25655  21.725   5.194  10.890
53308W        W25656  28.990  19.709   4.179
53309W        W25657   0.870  20.050  13.375
53310W        W25658  22.041  33.459  12.560
53311W        W25659  25.634  27.595  11.889
53312W        W25660  28.124  21.050  12.881
53313W        W25661   1.807  25.490   0.423
53314W        W25662   9.213  12.138   2.865
53315W        W25663  13.130   4.239  14.900
53316W        W25664   1.272  14.595  10.422
53317W        W25665   2.357  37.842  12.558
53318W        W25666   7.310  26.583  11.447
53319W        W25667  21.050  17.673  12.410
53320W        W25668  39.480  31.049   0.447
53321W        W25669  15.742  20.167  11.977
53322W        W25670  26.655  44.777   2.800
53323W        W25671  20.131  13.677  14.429
53324W        W25672   1.758  26.620  13.807
53325W        W25673  40.969   0.969   4.223
53326W        W25674  13.604  40.413   2.703
53327W        W25675  18.257  37.520  12.926
53328W        W25676  24.612  21.638   4.793
53329W        W25677  13.218  34.110   0.959
53330W        W25678  30.026  39.952   1.267
53331W        W25679  44.991  26.131   3.181
53332W        W25680  13.667  26.601   0.278
53333W        W25681  39.886  29.623  14.880
53334W        W25682  33.601  41.804  12.950
53335W        W25683   8.208  17.761   2.818
53336W        W25684  29.627  31.924   1.769
53337W        W25685   7.201  28.083   4.271
53338W        W25686  22.107   9.149   0.326
53339W        W25687  33.882  31.134   0.865
53340W        W25688   0.965  43.775   1.430
53341W        W25689   1.929  13.234  11.107
53342W        W25690  39.996   3.369   0.435
53343W        W25691  32.887  43.844   4.151
53344W        W25692  35.375  44.449  14.362
53345W        W25693  12.315   5.884  12.056
53346W        W25694  30.639  23.576   4.673
53347W        W25695  23.156  14.723   4.773
53348W        W25696  14.183   9.685  13.467
53349W        W25697  25.090  17.293   4.228
53350W        W25698  14.694   6.273   1.290
53351W        W25699   2.356  31.935   3.281
53352W        W25700  32.098   1.731   1.723
53353W        W25701  38.955   3.935   2.888
53354W        W25702  13.674  20.730  13.052
53355W        W25703  27.680  25.053   0.416
53356W        W25704  24.191  44.888  13.020
53357W        W25705  28.438   3.423   3.379
53358W        W25706  16.202  44.463   0.731
53359W        W25707  21.092  38.956   4.118
53360W        W25708  25.152  17.669  10.485
53361W        W25709   6.829  16.136   0.844
53362W        W25710   0.900  17.288  12.452
53363W        W25711  35.963  43.322   2.281
53364W        W25712  24.626  13.183   3.651
53365W        W25713   6.712  42.944  12.547
53366W        W25714  32.046  40.008   3.316
53367W        W25715  21.183  33.567   3.816
53368W        W25716  39.960  42.800   2.417
53369W        W25717  14.096   2.397   4.284
53370W        W25718  23.129  12.612   0.820
53371W        W25719  29.467  38.050  12.492
53372W        W25720  27.491   5.363  13.965
53373W        W25721  19.726  20.240  13.925
53374W        W25722  14.124   7.672  10.994
53375W        W25723  43.364  32.977   0.419
53376W        W25724   1.349  32.615  10.621
53377W        W25725   1.770  17.118   1.857
53378W        W25726  33.485  30.618  10.513
53379W        W25727  14.777  16.647   4.838
53380W        W25728  16.183  32.536   1.288
53381W        W25729   5.315  24.547  14.470
53382W        W25730  44.974  26.662   2.747
53383W        W25731  37.879  28.470   0.900
53384W        W25732  28.154  19.578   4.835
53385W        W25733   1.907   6.840   4.236
53386W        W25734  21.040  17.568  10.623
53387W        W25735   2.828  25.014  11.054
53388W        W25736   7.689  35.385   2.218
53389W        W25737  20.586  22.715   3.212
53390W        W25738   0.899  42.427   2.888
53391W        W25739  42.944  34.061  13.404
53392W        W25740  40.971  38.962  13.876
53393W        W25741  25.566  42.427  10.588
53394W        W25742   3.772  37.386   0.391
53395W        W25743  41.007  41.801  11.913
53396W        W25744  36.985  31.125  14.438
53397W        W25745   6.712  26.639  12.970
53398W        W25746  13.781   9.327   3.712
53399W        W25747  15.311   5.420   3.171
53400W        W25748  27.196  36.557  14.021
53401W        W25749  21.545   6.864   2.376
53402W        W25750  29.173  24.988  13.425
53403W        W25751   3.231  35.453   1.814
53404W        W25752  33.045  32.038   1.371
53405W        W25753   0.915  20.088   1.256
53406W        W25754  25.984  25.680  11.944
53407W        W25755  42.982  40.957   2.251
53408W        W25756  23.197  18.088  11.088
53409W        W25757  33.099  21.176  12.048
53410W        W25758   4.215  31.010   1.384
53411W        W25759  23.604  44.998  10.938
53412W        W25760   7.704   0.904  13.971
53413W        W25761  26.657  13.658   1.420
53414W        W25762   2.467  42.959  13.961
53415W        W25763  26.963   2.389  11.859
53416W        W25764  23.082  39.903   1.321
53417W        W25765   0.944  22.642   3.838
53418W        W25766  32.402  22.625   1.412
53419W        W25767  22.576  36.890   0.369
53420W        W25768  17.297   2.349  10.102
53421W        W25769  14.663  21.243   4.282
53422W        W25770  25.206  36.512   3.707
53423W        W25771  20.135   8.356  11.594
53424W        W25772  39.046   9.300   3.255
53425W        W25773  16.224  21.583  12.983
53426W        W25774  36.391   5.759   1.926
53427W        W25775   6.285  37.052  12.340
53428W        W25776  40.875  23.637   1.777
53429W        W25777   2.376  23.736   3.176
53430W        W25778  37.946  33.112   0.816
53431W        W25779  40.874  26.553  11.886
53432W        W25780  28.024  18.089   1.745
53433W        W25781  21.094  19.561   3.717
53434W        W25782  41.472   8.304  13.997
53435W        W25783   4.783  10.369  10.526
53436W        W25784  33.553  20.213  14.927
53437W        W25785  28.120  25.216  11.950
53438W        W25786  17.575  44.763   3.363
53439W        W25787  13.725  36.914  10.586
53440W        W25788  22.057   8.381  11.401
53441W        W25789   1.333  39.399  14.021
53442W        W25790  35.536   4.383  14.350
53443W        W25791  29.546  23.497   0.418
53444W        W25792   9.681   5.881  13.401
53445W        W25793  33.924  27.077  14.470
53446W        W25794  17.209  37.873  14.851
53447W        W25795   1.303   8.818   3.868
53448W        W25796   8.765  24.534  14.288
53449W        W25797   0.947  34.585   2.799
53450W        W25798  33.932   1.363   4.723
53451W        W25799  35.974  31.608   1.335
53452W        W25800  43.836  17.134   0.372
53453W        W25801  43.880  34.390   2.255
53454W        W25802   1.345  16.608   0.795
53455W        W25803  40.506  37.462   4.622
53456W        W25804   0.347  19.112   3.158
53457W        W25805  40.030  36.486  10.968
53458W        W25806  21.573   9.157  12.405
53459W        W25807  13.178  26.182  14.422
53460W        W25808  44.944  40.399  14.396
53461W        W25809  12.671  27.982   0.849
53462W        W25810   3.315  28.541   0.352
53463W        W25811  32.128  12.335   1.780
53464W        W25812  17.663  35.389   4.654
53465W        W25813  43.772   5.350  11.571
53466W        W25814  13.252  10.858   1.427
53467W        W25815  22.014   2.312  10.458
53468W        W25816  11.331   6.746   1.799
53469W        W25817  37.012  10.253  11.395
53470W        W25818  38.353  10.243  11.933
53471W        W25819  40.365  40.444  14.853
53472W        W25820  14.730  19.147   0.326
53473W        W25821  22.514  31.511   1.420
53474W        W25822  26.134  12.650   3.183
53475W        W25823   1.807  37.361   2.183
53476W        W25824  37.578  20.627   5.671
53477W        W25825  23.686   5.304   3.370
53478W        W25826   5.348  40.846   4.238
53479W        W25827  16.627  32.052   4.711
53480W        W25828  35.534  14.743  14.987
53481W        W25829   1.328   9.862  11.910
53482W        W25830  29.654  36.416  12.939
53483W        W25831   5.782  10.869  11.050
53484W        W25832  28.466  14.160   2.386
53485W        W25833  18.111  23.618  14.772
53486W        W25834  41.034   5.736  12.003
53487W        W25835  22.091   3.946  11.522
53488W        W25836  14.178  18.135   0.297
53489W        W25837   9.260  33.601   1.928
53490W        W25838  43.311  43.835   0.726
53491W        W25839  21.662  30.538  13.439
53492W        W25840  38.518  15.109   1.887
53493W        W25841  37.047   9.390   4.287
53494W        W25842  34.376  12.840  13.409
53495W        W25843  28.490  43.838  12.369
53496W        W25844   6.399  24.184  13.388
53497W        W25845  27.600  23.611  13.442
53498W        W25846  15.213  17.154   3.268
53499W        W25847  17.237   8.667  12.033
53500W        W25848   5.884   4.720  12.979
53501W        W25849   2.752  20.159  11.527
53502W        W25850  26.560   5.217   3.744
53503W        W25851  28.058  19.697  10.499
53504W        W25852  33.131  24.064  14.864
53505W        W25853  36.876   9.356   0.394
53506W        W25854  30.568  38.345  14.479
53507W        W25855  35.073  16.116   0.805
53508W        W25856  26.060  26.206   2.738
53509W        W25857  16.726  16.745   0.766
53510W        W25858  19.049   0.475  14.281
53511W        W25859  11.856  36.470  11.437
53512W        W25860  20.178  12.799   1.892
53513W        W25861  29.129  15.115   4.160
53514W        W25862  23.705  15.110  13.489
53515W        W25863  20.733   2.428  11.403
53516W        W25864  13.797  43.472   1.294
53517W        W25865  32.402   7.777   2.826
53518W        W25866   5.434  10.155  10.900
53519W        W25867   5.744  33.564  12.454
53520W        W25868  16.785  35.459   2.693
53521W        W25869  10.192  32.118   3.690
53522W        W25870  23.017  25.517   4.766
53523W        W25871   5.842  12.348   2.869
53524W        W25872  33.517  29.551  10.096
53525W        W25873   6.811   9.796   3.174
53526W        W25874  21.540  39.379  10.478
53527W        W25875  15.106  40.332  11.082
53528W        W25876  16.623  11.854  11.566
53529W        W25877  27.016  41.936  11.553
53530W        W25878  11.678  21.042   2.332
53531W        W25879  11.747  26.479   1.919
53532W        W25880   1.796  35.101   1.700
53533W        W25881  16.290  12.845  11.426
53534W        W25882  22.209  11.156  10.536
53535W        W25883  40.333   1.941   3.334
53536W        W25884  34.456  10.837   3.172
53537W        W25885  15.161   1.447  10.921
53538W        W25886  27.506  31.965  13.023
53539W        W25887   0.490  27.590  11.539
53540W        W25888  14.732   0.376  11.113
53541W        W25889  40.900   8.801  11.605
53542W        W25890  16.269  25.001   0.372
53543W        W25891  28.464  40.799  12.887
53544W        W25892  44.287  33.404   5.219
53545W        W25893  39.500  17.084   2.239
53546W        W25894  34.075  21.640   3.807
53547W        W25895  24.073  28.043  12.537
53548W        W25896  17.782  41.816  12.903
53549W        W25897   9.842  31.024   2.725
53550W        W25898  32.946   3.240   1.308
53551W        W25899  40.799  39.527  11.083
53552W        W25900  26.207  22.195   2.895
53553W        W25901  34.999  16.791   1.348
53554W        W25902  26.540  13.663  13.533
53555W        W25903  33.476  13.248   3.333
53556W        W25904   3.748  18.762  13.462
53557W        W25905  16.222  30.948  12.505
53558W        W25906  40.401  31.502   4.287
53559W        W25907  30.917  33.430  12.913
53560W        W25908  32.003   1.354   0.847
53561W        W25909  16.155   5.399   1.717
53562W        W25910  14.702  20.754  13.875
53563W        W25911  18.697  17.307   4.783
53564W        W25912  13.205  29.031  10.006
53565W        W25913  28.012  36.558  12.529
53566W        W25914  26.008   3.400   2.374
53567W        W25915  40.374  42.887   1.316
53568W        W25916  43.372  43.298   3.824
53569W        W25917  13.192  22.137  11.956
53570W        W25918  44.892   4.871  11.872
53571W        W25919   0.912   4.830   1.369
53572W        W25920   3.785  10.208   4.257
53573W        W25921  16.153  31.980   2.329
53574W        W25922  12.653   1.840   3.152
53575W        W25923  18.640  24.050   3.296
53576W        W25924   1.461  29.075   1.399
53577W        W25925   9.675   9.834   3.191
53578W        W25926  41.861  29.478  13.982
53579W        W25927   5.420  37.925  11.916
53580W        W25928  11.263  23.667  14.472
53581W        W25929  21.145  15.589   4.645
53582W        W25930  31.534  18.066   0.961
53583W        W25931  32.597  27.567  13.855
53584W        W25932   5.363  16.631   0.245
53585W        W25933  25.993  18.722   4.685
53586W        W25934  13.129  12.341  11.078
53587W        W25935  28.931  16.266  13.429
53588W        W25936  22.637   5.213  10.641
53589W        W25937  32.621  42.417  12.879
53590W        W25938  20.534   1.244  12.893
53591W        W25939  25.639  34.949   0.886
53592W        W25940  44.816  25.124   4.816
53593W        W25941  11.197  41.537  14.927
53594W        W25942  28.133  16.125   3.646
53595W        W25943  26.645  27.022  11.874
53596W        W25944  22.070  34.048   2.418
53597W        W25945  42.448  10.259   3.692
53598W        W25946  32.923   4.406   3.361
53599W        W25947  34.961  16.091   3.308
53600W        W25948  10.666  27.520  10.920
53601W        W25949  38.072  16.588   1.873
53602W        W25950  32.426  40.971  12.566
53603W        W25951  33.887   6.721   3.816
53604W        W25952   7.820  42.481  14.760
53605W        W25953  24.149  29.499   0.397
53606W        W25954  29.481  12.277   4.286
53607W        W25955  12.261  25.085  12.552
53608W        W25956  44.869   9.299  12.363
53609W        W25957  17.276  17.082   0.737
53610W        W25958  36.852  29.019  14.029
53611W        W25959   8.161  19.098   1.749
53612W        W25960   3.782  14.746   0.791
53613W        W25961   0.979  25.066   9.937
53614W        W25962   0.319  43.478   0.479
53615W        W25963  37.023  35.004   0.757
53616W        W25964  24.546  36.474   4.219
53617W        W25965   4.353  39.374  13.925
53618W        W25966   0.373  34.091   2.802
53619W        W25967  17.225  37.942  12.034
53620W        W25968  39.334  28.584  10.489
53621W        W25969   4.849  17.669  13.386
53622W        W25970  24.580  15.657   2.367
53623W        W25971  34.536  10.678  11.537
53624W        W25972  21.076  16.122   0.353
53625W        W25973   7.887   8.887   2.790
53626W        W25974   5.822   4.932   0.286
53627W        W25975  13.777   2.354  13.006
53628W        W25976  20.562   4.325  11.912
53629W        W25977  15.236   7.696   0.840
53630W        W25978  34.086  28.105   3.658
53631W        W25979  11.278  37.946   1.373
53632W        W25980  32.516   9.368   9.544
53633W        W25981  22.998  16.775   3.349
53634W        W25982  15.654   9.743   1.220
53635W        W25983  34.375   2.301  12.447
53636W        W25984   2.824  43.278   4.832
53637W        W25985   7.898  44.303  13.798
53638W        W25986  20.028  34.119  14.388
53639W        W25987   8.264  36.090   3.694
53640W        W25988  36.064   0.880  13.382
53641W        W25989  23.159   8.697  10.926
53642W        W25990   8.802  43.983  13.821
53643W        W25991  29.511  19.670  11.019
53644W        W25992  19.639  33.558  10.599
53645W        W25993  21.663  21.517  14.332
53646W        W25994  26.195  38.057  12.028
53647W        W25995   2.244  33.544   2.830
53648W        W25996   4.259  37.361   2.367
53649W        W25997  15.637  22.525   3.828
53650W        W25998  32.892  20.071   3.865
53651W        W25999  25.648   5.278   4.150
53652W        W26000  21.043  22.013   2.841
53653W        W26001  13.266  23.685   4.197
53654W        W26002   2.935  14.644  12.874
53655W        W26003  15.686   5.786  13.862
53656W        W26004  14.322  19.252  14.838
53657W        W26005  38.452  31.029   2.373
53658W        W26006  12.731   2.305   1.421
53659W        W26007  18.198  12.814   3.363
53660W        W26008  22.699   2.777  13.500
53661W        W26009   1.330  27.633  10.960
53662W        W26010  40.047  39.054  12.542
53663W        W26011  19.204   0.331   1.230
53664W        W26012   3.367  25.086   2.810
53665W        W26013  35.941   0.763  10.420
53666W        W26014  39.958  16.265   1.227
53667W        W26015  42.924  23.048  12.565
53668W        W26016  10.249  41.969  11.077
53669W        W26017   8.183  13.316  11.593
53670W        W26018  18.063   1.436  12.944
53671W        W26019   5.911  23.122  14.867
53672W        W26020  36.854  43.374   3.200
53673W        W26021  41.017  27.565   3.824
53674W        W26022  40.801  25.697   4.831
53675W        W26023   8.280  26.552  12.554
53676W        W26024   3.289  10.168  12.537
53677W        W26025  41.467  19.127  10.436
53678W        W26026  38.883  10.663   4.239
53679W        W26027  12.156  38.938   4.762
53680W        W26028  18.284  12.763  12.403
53681W        W26029   9.226  43.817  10.618
53682W        W26030  39.328  42.779   1.353
53683W        W26031  27.535  33.602  12.950
53684W        W26032  15.293   3.790   2.870
53685W        W26033  34.010  42.802   4.304
53686W        W26034   2.780  30.495  11.397
53687W        W26035  37.391  19.244   2.689
53688W        W26036  20.713  14.685   0.483
53689W        W26037   3.802  21.188  13.417
53690W        W26038  13.339   5.424   5.200
53691W        W26039  21.675  36.953   2.841
53692W        W26040   4.433  22.660   2.677
53693W        W26041  25.471  24.170  11.920
53694W        W26042  31.050  11.669   0.252
53695W        W26043  21.047  19.209  11.949
53696W        W26044   5.778  11.706   1.309
53697W        W26045  15.650  20.165   0.740
53698W        W26046  43.371   6.784   3.361
53699W        W26047  36.439  12.233   2.412
53700W        W26048  10.328  20.133   4.207
53701W        W26049  13.164  29.622  10.412
53702W        W26050  35.997  21.036  12.440
53703W        W26051  13.147  11.754   5.277
53704W        W26052   9.820  40.458  12.012
53705W        W26053  36.905  41.488  12.910
53706W        W26054  40.332  39.843   3.830
53707W        W26055  14.103  33.621   1.753
53708W        W26056  40.520  32.570  13.395
53709W        W26057  24.523  22.193   0.849
53710W        W26058  30.494   3.723  13.058
53711W        W26059  39.974  43.844  12.984
53712W        W26060  11.672  30.554  12.427
53713W        W26061   5.334   9.228   3.719
53714W        W26062  39.485  25.008   5.188
53715W        W26063  32.090  39.925  13.960
53716W        W26064  19.607   2.771   3.860
53717W        W26065  30.525  25.604   1.694
53718W        W26066  17.690  12.737  14.976
53719W        W26067  43.473  19.586  14.764
53720W        W26068  34.438  35.428  12.473
53721W        W26069   2.466  41.798   2.265
53722W        W26070   4.383  10.643  12.866
53723W        W26071  40.482  23.518   9.994
53724W        W26072   1.243  40.400   0.244
53725W        W26073  32.637  17.265   1.768
53726W        W26074  23.988   8.763   1.716
53727W        W26075  12.730  13.256   4.781
53728W        W26076   3.357  10.833  11.966
53729W        W26077  37.364  43.957  11.558
53730W        W26078  43.430  35.542   1.865
53731W        W26079  13.711  18.764  12.860
53732W        W26080  24.571  27.967  12.872
53733W        W26081  11.731  17.558   1.843
53734W        W26082  33.421   9.812  12.376
53735W        W26083   9.302   3.264   4.771
53736W        W26084  28.109  23.713   0.266
53737W        W26085   7.798   3.228   0.858
53738W        W26086  36.899   3.277   0.309
53739W        W26087   8.814  37.477  14.775
53740W        W26088  27.657  26.598   1.879
53741W        W26089  24.645  42.324   1.833
53742W        W26090  15.151  32.591  12.065
53743W        W26091  33.412  32.412   0.881
53744W        W26092  39.870  37.028  13.436
53745W        W26093  41.341  39.525  13.487
53746W        W26094  10.871  20.139  13.505
53747W        W26095  34.570  29.554   2.663
53748W        W26096  41.380  11.151   4.291
53749W        W26097  18.691   0.908   3.864
53750W        W26098   1.271   8.742  14.336
53751W        W26099  33.998  21.042  13.879
53752W        W26100  27.133   1.327  12.861
53753W        W26101  24.534  37.880   4.700
53754W        W26102   0.332   8.854   1.701
53755W        W26103  44.944  13.637  11.888
53756W        W26104  23.157   1.969   2.873
53757W        W26105   7.275  41.918  11.125
53758W        W26106  35.891   7.758   3.220
53759W        W26107   2.944   9.823  11.867
53760W        W26108  13.294  16.799  11.504
53761W        W26109  29.471  26.644   1.440
53762W        W26110   6.852  41.879   0.945
53763W        W26111  15.768  19.046  14.277
53764W        W26112  37.480  12.851   3.632
53765W        W26113  34.966  38.024  13.926
53766W        W26114  27.944  31.897  12.501
53767W        W26115  43.380  32.614   0.412
53768W        W26116  17.150  40.916   4.319
53769W        W26117  41.395   1.412  12.087
53770W        W26118   3.426  34.970  10.559
53771W        W26119  21.624  35.917  14.015
53772W        W26120  27.537  20.720   4.835
53773W        W26121  29.006  25.039  14.334
53774W        W26122  40.471  29.574  13.353
53775W        W26123  41.299  19.721  11.916
53776W        W26124  30.581  36.588   2.227
53777W        W26125  17.164  22.182  12.888
53778W        W26126   1.733  41.807   0.267
53779W        W26127  18.061  18.789  11.452
53780W        W26128  32.631  37.038   4.731
53781W        W26129  33.995  38.366   3.206
53782W        W26130   0.377  28.055   1.770
53783W        W26131   6.697  32.494  10.076
53784W        W26132  42.352  35.366  10.407
53785W        W26133  10.213  27.614  11.493
53786W        W26134  22.731  44.927  10.477
53787W        W26135  39.985  38.469   0.398
53788W        W26136  32.950  26.199   0.361
53789W        W26137  40.505  43.478  14.434
53790W        W26138  10.639  12.679   4.284
53791W        W26139   3.287  27.947  14.845
53792W        W26140  33.897  25.542   4.676
53793W        W26141  35.448  15.112  12.837
53794W        W26142  44.867   2.244   3.848
53795W        W26143   3.451  18.250   3.385
53796W        W26144  25.066   5.217  14.817
53797W        W26145  36.947   6.230   3.154
53798W        W26146  14.671   5.862   3.373
53799W        W26147  16.220  11.829   4.673
53800W        W26148  32.054  27.169  12.368
53801W        W26149  24.592   8.283  12.386
53802W        W26150   5.346  16.628  10.531
53803W        W26151   9.715   4.934   4.644
53804W        W26152   4.214  36.401  12.915
53805W        W26153  27.506  38.048  13.463
53806W        W26154  37.933   4.925   9.627
53807W        W26155   2.412  13.118   0.730
53808W        W26156  30.999  38.863  14.794
53809W        W26157  38.061  35.361  11.608
53810W        W26158  15.635  42.793  14.515
53811W        W26159  29.031  21.580  14.788
53812W        W26160  25.025  43.405   4.223
53813W        W26161  23.646  38.969   3.862
53814W        W26162  42.812   9.226   3.693
53815W        W26163  17.746  12.722   3.810
53816W        W26164   0.864  26.142  13.325
53817W        W26165  27.597  25.144   3.689
53818W        W26166  38.046  37.343   2.684
53819W        W26167  29.102  11.303  10.516
53820W        W26168  22.524  19.058  13.935
53821W        W26169  21.173   5.265   2.841
53822W        W26170  13.228   5.891   1.269
53823W        W26171  24.590  38.562   4.117
53824W        W26172   5.706  24.171  10.536
53825W        W26173  40.318  37.369  12.382
53826W        W26174  32.603  38.858   2.196
53827W        W26175  34.979  31.591  14.920
53828W        W26176   4.323  43.829   3.146
53829W        W26177   0.812  30.976   2.677
53830W        W26178   1.840  23.555  12.877
53831W        W26179  22.511   3.231   3.645
53832W        W26180  18.642  12.353  13.912
53833W        W26181  15.793  42.977   2.234
53834W        W26182  21.654  39.831  10.994
53835W        W26183  34.466  16.709  13.044
53836W        W26184   4.407  44.409  11.585
53837W        W26185  26.026  27.956   2.296
53838W        W26186  26.609  40.525  10.607
53839W        W26187   2.920  32.575  10.463
53840W        W26188  15.788  19.647  12.973
53841W        W26189   2.454  13.730   1.445
53842W        W26190  21.715  29.932  13.028
53843W        W26191  43.935  24.626  13.877
53844W        W26192   4.717  26.631   4.620
53845W        W26193  32.932   0.487  13.449
53846W        W26194   3.925  33.578  14.759
53847W        W26195  33.996  18.287   0.332
53848W        W26196  31.632   1.266  13.805
53849W        W26197  42.506   4.866  11.539
53850W        W26198  10.873  33.568  12.359
53851W        W26199   0.441  36.021  12.391
53852W        W26200  16.721  39.033   0.918
53853W        W26201  32.894   5.384  12.970
53854W        W26202  44.966  43.913  14.388
53855W        W26203  12.801  31.066   4.128
53856W        W26204   5.861  42.860  11.968
53857W        W26205  28.456  27.627  14.018
53858W        W26206  44.976   4.935  10.967
53859W        W26207  35.392  37.858   0.468
53860W        W26208  32.941  18.285  14.777
53861W        W26209  19.759  37.496  11.538
53862W        W26210  28.977  35.065   0.749
53863W        W26211  16.618  27.447  11.009
53864W        W26212  13.204  25.019  10.517
53865W        W26213  18.671  27.522   0.427
53866W        W26214  40.968  36.844   3.636
53867W        W26215  40.404  35.368   2.191
53868W        W26216  44.418   3.271   0.754
53869W        W26217  40.044  25.016  12.457
53870W        W26218  30.559  20.109  13.382
53871W        W26219   7.892  13.671  14.493
53872W        W26220  24.177   4.705   2.231
53873W        W26221  40.015  35.984   4.639
53874W        W26222   0.861   8.356   2.263
53875W        W26223  26.634  21.074   4.305
53876W        W26224  29.114  28.562  11.037
53877W        W26225  24.019  41.448  11.478
53878W        W26226   1.807  24.579  11.011
53879W        W26227   3.288   8.748   1.826
53880W        W26228  27.612  19.146  14.966
53881W        W26229  34.902  39.501   0.383
53882W        W26230  35.435  17.596   0.327
53883W        W26231  38.433  22.637   2.859
53884W        W26232  18.578  11.638  11.044
53885W        W26233   3.739  35.024  11.414
53886W        W26234  21.584   3.838   3.668
53887W        W26235  13.736  18.153   2.701
53888W        W26236  39.896   2.775  10.502
53889W        W26237  26.021  26.559   1.289
53890W        W26238  41.528  10.289  12.086
53891W        W26239  13.126  17.683   3.383
53892W        W26240   3.886  27.139  13.530
53893W        W26241  27.501  16.645  12.030
53894W        W26242  39.937  38.034   3.152
53895W        W26243   7.686   5.837  11.001
53896W        W26244  24.597   7.226   0.818
53897W        W26245  19.180  16.607   0.382
53898W        W26246   5.919  17.303   0.256
53899W        W26247  41.013  27.578  14.489
53900W        W26248  44.895  30.507   3.707
53901W        W26249  43.408  39.017  10.095
53902W        W26250  22.524  26.973   3.295
53903W        W26251  11.169   4.774   2.814
53904W        W26252  14.290  10.785  13.522
53905W        W26253  10.638  20.270   5.660
53906W        W26254  33.026  31.084  14.472
53907W        W26255   3.226  16.780  14.352
53908W        W26256  41.021   5.422  13.000
53909W        W26257  36.355  18.182   0.879
53910W        W26258   9.367   5.899   3.638
53911W        W26259   6.219  29.049   1.887
53912W        W26260   9.151  12.288   3.219
53913W        W26261  14.638  32.944   4.718
53914W        W26262  38.848   2.831  11.998
53915W        W26263   0.834  35.512  13.862
53916W        W26264  16.117  30.419  13.023
53917W        W26265   9.739  19.212  13.434
53918W        W26266  12.310  11.745   3.665
53919W        W26267  33.045  29.476  10.476
53920W        W26268  36.858  29.049  12.974
53921W        W26269  43.772  41.907  14.762
53922W        W26270  28.039  12.175   2.208
53923W        W26271  31.079  37.520   3.683
53924W        W26272  23.673  36.007  12.953
53925W        W26273  12.326   0.344  14.783
53926W        W26274  15.727   4.315  10.453
53927W        W26275  36.015  16.692   3.675
53928W        W26276  12.774  40.516   4.244
53929W        W26277   5.435  19.613   2.712
53930W        W26278   1.838  19.218   0.909
53931W        W26279  20.085  12.659   0.368
53932W        W26280  34.479  27.574  14.454
53933W        W26281   3.221  34.474  10.472
53934W        W26282   3.366  13.293  11.035
53935W        W26283  13.241  42.001  13.978
53936W        W26284   2.296  16.631  14.801
53937W        W26285   3.282  31.961  13.454
53938W        W26286  29.938  29.114  11.587
53939W        W26287  11.200  13.671   3.174
53940W        W26288  25.564  41.482   4.158
53941W        W26289   6.237  17.108  10.074
53942W        W26290  27.457  33.395   3.355
53943W        W26291   0.955  20.708  11.426
53944W        W26292  36.491  23.225   4.793
53945W        W26293   5.718  24.027  14.844
53946W        W26294  37.497  30.055  14.796
53947W        W26295  23.026  35.041   1.277
53948W        W26296  32.637  33.992  12.536
53949W        W26297  30.086  34.954   0.736
53950W        W26298   8.175  32.899   3.773
53951W        W26299  34.465  36.019   0.320
53952W        W26300  44.383   3.360  11.593
53953W        W26301  10.362  22.014   0.905
53954W        W26302   9.312  37.343   0.851
53955W        W26303   7.738  39.545   4.776
53956W        W26304  15.273  24.034  11.450
53957W        W26305   6.697   6.917  14.877
53958W        W26306   8.202  17.147   4.240
53959W        W26307  30.422   5.874  10.453
53960W        W26308  26.990  12.845  14.830
53961W        W26309  12.180   3.811   2.375
53962W        W26310   7.358   5.371  13.330
53963W        W26311  10.288  18.584   0.727
53964W        W26312   9.777  12.647   1.745
53965W        W26313  34.450  35.955   3.644
53966W        W26314  43.021  20.089   0.441
53967W        W26315  23.232  36.964  14.423
53968W        W26316  26.460   2.275  11.031
53969W        W26317  21.245  34.573  10.487
53970W        W26318  26.624  16.201   2.828
53971W        W26319  32.578  44.393  13.477
53972W        W26320  10.227  41.931  10.543
53973W        W26321  33.973  41.983   4.350
53974W        W26322  18.686   2.400   4.670
53975W        W26323   4.755  38.984   3.311
53976W        W26324  43.318  22.742  11.497
53977W        W26325  38.940  15.626  14.001
53978W        W26326  22.719   2.951   3.757
53979W        W26327   2.359   1.242   4.173
53980W        W26328  35.004  18.622  13.949
53981W        W26329   7.250  26.059  12.957
53982W        W26330  11.765  37.011  10.140
53983W        W26331   6.757  41.967   2.839
53984W        W26332  29.173  18.561   0.852
53985W        W26333   4.715  39.035  11.953
53986W        W26334  22.662  26.495  11.455
53987W        W26335   4.360  42.343   0.465
53988W        W26336  24.160  18.265   4.228
53989W        W26337   3.456  19.282  11.492
53990W        W26338  15.211   5.851  13.011
53991W        W26339   0.369  13.801   0.871
53992W        W26340   1.921  19.600   4.813
53993W        W26341  11.220  17.636   1.895
53994W        W26342  14.813  41.533   4.719
53995W        W26343   6.290   1.408  13.829
53996W        W26344  11.236   9.735  14.459
53997W        W26345  44.981  38.853   1.294
53998W        W26346  18.250  20.151   4.616
53999W        W26347  34.028  20.543   1.761
54000W        W26348  10.779  24.995   3.816
54001W        W26349   9.827  21.236  11.980
54002W        W26350  25.187  17.177   4.682
54003W        W26351   1.419  35.036   0.441
54004W        W26352  40.443   7.363  12.568
54005W        W26353   2.910  16.313  11.406
54006W        W26354  29.120   2.835   1.398
54007W        W26355   4.264  39.465   4.669
54008W        W26356  42.423  26.130  14.501
54009W        W26357  28.979  42.477  10.503
54010W        W26358  44.369  11.367  13.866
54011W        W26359  35.981  40.386   1.800
54012W        W26360   2.410  16.201  10.912
54013W        W26361  31.146   1.819   3.853
54014W        W26362  33.048  44.768  10.469
54015W        W26363  43.949   6.234   4.611
54016W        W26364  35.978  38.557   0.767
54017W        W26365  29.116  10.780  10.496
54018W        W26366   5.724  23.529   1.775
54019W        W26367  27.574  31.137  12.491
54020W        W26368  35.969  27.607   4.191
54021W        W26369  29.070  36.059  12.413
54022W        W26370   0.302  17.306   2.349
54023W        W26371  18.690  24.068  11.878
54024W        W26372  34.402  25.010  10.452
54025W        W26373  21.248   8.860  13.363
54026W        W26374  23.623   8.712   9.928
54027W        W26375   3.882   2.788  14.381
54028W        W26376  13.148  38.324   1.875
54029W        W26377  29.545  16.094   4.342
54030W        W26378   5.851  13.694  12.341
54031W        W26379   4.896  34.458  14.963
54032W        W26380  43.391  17.612  11.451
54033W        W26381  18.134  41.011  14.974
54034W        W26382  39.427  29.597  11.929
54035W        W26383  28.177  14.667  10.595
54036W        W26384  23.073  22.511   0.438
54037W        W26385  17.648  35.400   0.444
54038W        W26386  42.782  22.007  12.894
54039W        W26387  22.195  41.509  10.941
54040W        W26388  29.035  39.054  14.298
54041W        W26389  29.932  35.500  13.455
54042W        W26390  40.830  19.190   1.894
54043W        W26391  33.033   6.255  14.914
54044W        W26392  31.936  14.225   0.813
54045W        W26393  43.959  39.348  12.462
54046W        W26394  36.531  21.717  13.381
54047W        W26395   3.263  19.735   5.292
54048W        W26396  38.493   8.391  10.558
54049W        W26397  25.975  33.125  12.476
54050W        W26398  33.384  13.336   4.292
54051W        W26399  12.719  22.585   0.435
54052W        W26400   0.357  32.551   2.301
54053W        W26401  28.562  18.055  11.010
54054W        W26402  25.641  44.318   4.145
54055W        W26403   7.346  26.696   0.474
54056W        W26404  25.487   9.194  13.504
54057W        W26405  13.212   5.425  10.997
54058W        W26406   5.789   4.397   2.264
54059W        W26407   0.746  30.572   1.413
54060W        W26408  28.515  35.995   0.773
54061W        W26409  24.606  25.697  13.520
54062W        W26410  19.166  27.061  14.515
54063W        W26411   0.919  36.434   1.295
54064W        W26412  22.102  14.111   0.911
54065W        W26413  11.666  36.880   2.257
54066W        W26414  31.476  32.492  11.612
54067W        W26415  17.768  26.994   0.856
54068W        W26416  30.933  42.834   3.663
54069W        W26417  14.106  32.467   2.356
54070W        W26418   0.478  24.673  11.546
54071W        W26419  13.320  38.024   1.922
54072W        W26420  35.491  30.563   1.743
54073W        W26421   1.760  39.883   1.721
54074W        W26422  40.516   7.876  13.428
54075W        W26423  14.827  43.862  13.998
54076W        W26424  12.217  16.737   3.743
54077W        W26425  29.957  22.594  12.844
54078W        W26426   7.413   5.732   4.608
54079W        W26427   8.398  27.044   3.358
54080W        W26428  18.555  34.569  11.982
54081W        W26429  20.639   1.925   2.776
54082W        W26430  13.773  13.823   2.356
54083W        W26431  15.188  42.908   0.903
54084W        W26432  20.745  21.543   0.279
54085W        W26433  36.916  25.962   0.338
54086W        W26434  44.489   7.803   5.087
54087W        W26435  31.120  20.163  13.895
54088W        W26436  35.563  23.669   1.703
54089W        W26437   7.263  32.494   3.211
54090W        W26438   2.363  13.745   4.666
54091W        W26439  11.781  18.636   3.291
54092W        W26440  37.484  13.138  12.991
54093W        W26441  10.183   0.837   5.232
54094W        W26442  33.910  16.212  14.016
54095W        W26443  21.641   4.869   2.295
54096W        W26444  21.612  33.014  10.641
54097W        W26445  44.295  23.580  11.556
54098W        W26446  34.400  14.774   3.653
54099W        W26447  17.302  44.820  13.433
54100W        W26448  38.368   6.731  10.051
54101W        W26449  43.920  39.394   0.304
54102W        W26450  29.456  33.002  12.962
54103W        W26451  17.302   1.853   1.710
54104W        W26452  27.586  38.499  14.283
54105W        W26453  33.067  27.477  11.409
54106W        W26454  14.279  20.053  12.449
54107W        W26455   2.234  12.288   3.869
54108W        W26456  16.267  21.528   2.758
54109W        W26457  13.121  41.440   3.730
54110W        W26458  34.921   0.439  10.465
54111W        W26459  39.447  11.160   3.811
54112W        W26460  14.833  29.147   2.240
54113W        W26461  25.217   2.276   4.260
54114W        W26462  28.994   2.289   4.636
54115W        W26463  20.594  13.145  12.542
54116W        W26464   1.932  30.605   4.126
54117W        W26465  41.414  22.585  11.588
54118W        W26466  14.241  24.494  10.544
54119W        W26467  10.159   1.874   0.253
54120W        W26468  25.693  15.617   0.735
54121W        W26469  43.986   0.297  14.477
54122W        W26470  12.786  41.442   0.787
54123W        W26471  37.001  30.936   3.832
54124W        W26472  14.148  36.971   2.239
54125W        W26473  43.411   8.780  12.339
54126W        W26474   0.282  15.144  11.938
54127W        W26475  20.669  23.120  14.806
54128W        W26476   3.241  33.013   1.348
54129W        W26477  24.586  25.969  12.011
54130W        W26478   8.672  32.541   5.703
54131W        W26479  31.645  36.990   0.930
54132W        W26480  37.447  15.324  12.969
54133W        W26481  33.946  34.478   2.852
54134W        W26482  24.031  10.363   1.832
54135W        W26483   7.869  26.144  13.485
54136W        W26484  13.655  16.646  10.619
54137W        W26485  23.696  36.957   4.783
54138W        W26486  32.428  29.053   5.310
54139W        W26487  42.933  18.656  12.453
54140W        W26488  30.647  37.042  11.855
54141W        W26489  31.591  31.618  14.836
54142W        W26490  34.927  28.017   2.322
54143W        W26491  35.913  35.010   4.619
54144W        W26492  37.341  35.490   4.791
54145W        W26493  22.582   5.208  12.477
54146W        W26494  38.963  36.500  14.500
54147W        W26495  30.160   8.317   0.752
54148W        W26496  32.631  30.519   0.913
54149W        W26497  26.503  40.813   3.655
54150W        W26498  28.056  14.597  14.448
54151W        W26499  13.165  23.007  10.889
54152W        W26500   8.295  34.928   4.835
54153W        W26501  35.005  42.340   4.193
54154W        W26502  44.887   7.897  11.122
54155W        W26503   6.241  23.043   4.117
54156W        W26504  36.374  24.602   2.210
54157W        W26505   6.855  16.279  12.062
54158W        W26506  15.609  37.083  12.931
54159W        W26507  31.485  28.437   0.846
54160W        W26508  29.010  40.993  14.770
54161W        W26509  35.095  21.574   3.299
54162W        W26510  19.259  20.214   4.185
54163W        W26511  22.191  29.123  12.536
54164W        W26512   2.457   5.244  10.959
54165W        W26513  35.930  36.404  14.413
54166W        W26514  26.568  25.975  13.975
54167W        W26515  35.904  44.349   2.824
54168W        W26516   0.347   3.456   1.407
54169W        W26517   0.438  21.518   3.146
54170W        W26518  35.076   0.853   2.391
54171W        W26519  15.211  37.006   2.324
54172W        W26520  39.477  28.019  14.327
54173W        W26521  29.951  40.371  11.124
54174W        W26522   6.756  41.404  12.924
54175W        W26523   4.337   1.912   3.854
54176W        W26524  20.206  43.946  12.937
54177W        W26525  24.189   5.755   4.154
54178W        W26526  31.961  43.865   4.326
54179W        W26527  12.662  13.712  12.507
54180W        W26528  11.198   2.448   2.180
54181W        W26529   6.723  11.653   2.237
54182W        W26530   6.377  13.601  13.041
54183W        W26531  18.062  44.408   3.260
54184W        W26532  44.406  22.596   2.214
54185W        W26533  37.536  11.127   2.218
54186W        W26534  33.933  26.968  13.533
54187W        W26535  38.979  43.949  12.922
54188W        W26536  40.971  14.116   4.790
54189W        W26537  40.540  27.097  10.532
54190W        W26538  38.415  17.076   0.358
54191W        W26539   1.796  26.603   4.182
54192W        W26540  13.270  11.784   2.804
54193W        W26541  29.576  36.583  14.334
54194W        W26542  43.503  35.451   4.692
54195W        W26543  34.395  22.662   2.182
54196W        W26544  35.097  42.849  14.858
54197W        W26545  11.215  19.764  14.842
54198W        W26546  11.664  36.912  12.830
54199W        W26547   8.809  43.809   2.780
54200W        W26548  23.009  30.915  11.540
54201W        W26549   6.384  43.014   4.657
54202W        W26550   0.305  35.492  14.875
54203W        W26551  17.285   6.760  11.380
54204W        W26552   3.288  31.932  12.004
54205W        W26553  25.196  10.279  12.005
54206W        W26554  34.919  37.978   4.665
54207W        W26555  38.041  25.675   1.299
54208W        W26556  10.686  12.293  11.489
54209W        W26557  19.768   6.218  10.553
54210W        W26558  11.214  25.069  12.046
54211W        W26559  26.551  32.394   0.828
54212W        W26560   9.795  35.879  10.913
54213W        W26561  16.188  18.578   4.293
54214W        W26562  20.724  14.289  12.880
54215W        W26563  10.752  36.560  12.399
54216W        W26564  42.361   5.872  14.305
54217W        W26565   8.312  14.141   1.861
54218W        W26566  34.956  28.575   3.373
54219W        W26567  14.604  17.697  11.936
54220W        W26568  20.679  30.594  10.042
54221W        W26569  26.680  43.487   1.316
54222W        W26570  20.132  32.596  10.470
54223W        W26571   3.393  11.142  14.022
54224W        W26572  36.522  26.678  12.906
54225W        W26573  19.046  30.617   2.696
54226W        W26574  11.843  21.255  11.599
54227W        W26575  43.322  30.611   4.662
54228W        W26576  25.540  41.511  14.009
54229W        W26577  11.782   3.219   0.469
54230W        W26578   9.214  27.995   3.195
54231W        W26579  37.383   5.253  10.941
54232W        W26580   5.717  11.317   0.275
54233W        W26581  12.159  30.960  14.406
54234W        W26582  21.236   9.763  12.407
54235W        W26583  10.376  32.564   3.730
54236W        W26584   1.311  26.977  12.036
54237W        W26585   8.374   4.874  10.475
54238W        W26586  43.798  14.235   3.822
54239W        W26587   3.393  10.776   2.777
54240W        W26588   1.797   6.722   4.744
54241W        W26589  26.981  43.929  14.933
54242W        W26590  17.228   5.321   4.293
54243W        W26591  20.767  39.882   1.779
54244W        W26592  26.044   9.335  11.547
54245W        W26593   6.690  26.164  12.880
54246W        W26594  34.568  17.654  12.912
54247W        W26595   0.773  27.606  10.420
54248W        W26596  34.385  14.231  13.325
54249W        W26597  12.832  44.945   4.318
54250W        W26598  25.584  34.555  13.889
54251W        W26599  21.260  28.602   0.476
54252W        W26600  17.662  28.037  11.127
54253W        W26601  23.000  14.311   0.823
54254W        W26602  15.267  32.610  11.573
54255W        W26603  24.626  17.674  10.549
54256W        W26604  18.717  32.487  12.906
54257W        W26605  38.055  18.569   0.937
54258W        W26606  33.387  39.330  11.073
54259W        W26607  30.073  43.437  10.547
54260W        W26608  31.916  32.130  12.850
54261W        W26609  32.600  10.213   4.753
54262W        W26610  21.529  15.725  12.942
54263W        W26611  43.271  35.920   2.193
54264W        W26612  43.948   9.644  14.496
54265W        W26613   7.682  29.539   1.430
54266W        W26614  39.419   9.813  11.098
54267W        W26615  12.671  37.989   1.700
54268W        W26616  20.546   3.736  10.549
54269W        W26617  13.109  25.214   3.687
54270W        W26618  34.110   8.861   1.888
54271W        W26619  28.099  40.439  14.467
54272W        W26620  26.956   5.261   1.917
54273W        W26621  35.968  10.327   0.843
54274W        W26622  11.221  22.106  10.161
54275W        W26623  10.283  23.156   5.186
54276W        W26624  21.588  15.193  11.858
54277W        W26625   5.915  26.522  12.056
54278W        W26626  17.647   8.841   1.243
54279W        W26627  38.389  38.511   4.644
54280W        W26628  23.605  36.872  11.937
54281W        W26629  39.000  31.557  13.526
54282W        W26630  25.196   8.845  13.341
54283W        W26631  40.440   9.874  11.096
54284W        W26632  35.426  34.529   3.788
54285W        W26633  28.530  36.902  10.447
54286W        W26634  27.670   9.272  10.945
54287W        W26635  16.250  24.197  12.416
54288W        W26636  14.252  38.565  14.300
54289W        W26637  17.243  26.499   3.237
54290W        W26638  15.299   2.871   3.806
54291W        W26639  18.203  42.972   4.725
54292W        W26640  23.507  38.328  12.543
54293W        W26641  12.644  36.082   2.877
54294W        W26642  23.127  24.027   2.816
54295W        W26643  35.368  36.392   0.358
54296W        W26644  39.546  31.079  12.466
54297W        W26645  43.889   2.804  12.840
54298W        W26646  10.738  32.552   2.848
54299W        W26647   3.240   9.717  11.434
54300W        W26648  29.491  31.127  10.631
54301W        W26649  19.276   9.384   1.931
54302W        W26650  14.628  31.560  13.918
54303W        W26651  40.475   2.757   0.449
54304W        W26652  26.990  31.641   0.405
54305W        W26653  42.418  35.480  11.387
54306W        W26654  42.823  24.085  13.522
54307W        W26655  27.484  38.022   0.814
54308W        W26656  22.526   6.695   3.238
54309W        W26657  25.099  19.711   0.479
54310W        W26658  36.979  43.021   3.723
54311W        W26659  12.128  27.068  14.423
54312W        W26660   5.749  19.713   4.677
54313W        W26661   1.431  18.636   1.704
54314W        W26662  38.531  25.033  14.931
54315W        W26663  23.655  17.614   1.240
54316W        W26664  12.766  11.162  12.079
54317W        W26665  39.913   8.769  11.896
54318W        W26666  36.501   6.252   5.616
54319W        W26667  37.338  18.626   2.352
54320W        W26668  18.226  24.554  13.431
54321W        W26669  17.678   0.862  11.125
54322W        W26670  44.325  37.055  14.391
54323W        W26671   6.832   8.676  11.493
54324W        W26672  35.434  22.033   3.830
54325W        W26673  38.060  17.164   4.813
54326W        W26674  15.677   9.788  14.023
54327W        W26675  10.192   1.293  12.524
54328W        W26676  40.389  23.206  12.370
54329W        W26677  26.193  33.968   0.422
54330W        W26678  15.641  30.561  10.135
54331W        W26679  39.444  30.566   4.173
54332W        W26680  30.537   8.894  11.379
54333W        W26681  10.645  39.015   2.194
54334W        W26682   5.318  42.856  12.974
54335W        W26683  18.726  38.427   3.652
54336W        W26684  24.578  20.586  12.907
54337W        W26685  14.110  27.547  13.372
54338W        W26686  39.482  26.080   3.249
54339W        W26687  26.563  34.939  12.990
54340W        W26688  33.973  31.560  12.048
54341W        W26689  10.300  13.212   3.296
54342W        W26690  33.593  32.026   9.939
54343W        W26691  12.337  42.421   4.218
54344W        W26692  13.142  22.067  13.533
54345W        W26693  21.594   6.385   2.753
54346W        W26694  21.564  13.140  10.457
54347W        W26695  41.881  32.137  11.450
54348W        W26696  34.063  29.479   2.182
54349W        W26697  29.518   1.295  13.814
54350W        W26698   9.201  38.883   2.764
54351W        W26699  29.496  31.533  12.548
54352W        W26700  10.153   5.412   1.702
54353W        W26701  14.731  17.634   1.930
54354W        W26702  12.182  34.585  12.578
54355W        W26703  21.731   0.471  10.924
54356W        W26704  40.456  35.913  11.045
54357W        W26705  12.207   5.931  12.487
54358W        W26706   4.941  28.157   4.206
54359W        W26707  38.377  31.499   2.826
54360W        W26708   7.279  19.749   2.285
54361W        W26709   7.741  38.999   4.624
54362W        W26710  44.350  19.127   4.697
54363W        W26711   6.825   2.375   3.213
54364W        W26712  32.491  40.972   4.118
54365W        W26713  15.625  29.428  14.307
54366W        W26714  31.566  19.763   2.335
54367W        W26715  35.899  29.148  13.359
54368W        W26716  14.815  40.522   1.801
54369W        W26717  40.974  33.987   4.613
54370W        W26718  32.504  11.268  13.041
54371W        W26719   1.798   4.253   1.364
54372W        W26720   2.897  40.965  11.958
54373W        W26721  29.606  25.124  10.962
54374W        W26722  23.232  37.514  10.993
54375W        W26723  40.358  22.524   3.252
54376W        W26724  26.123  29.572   4.341
54377W        W26725  28.964  31.603   4.300
54378W        W26726   6.265   0.809   4.317
54379W        W26727   4.361  10.769   1.239
54380W        W26728   0.823  31.480   2.661
54381W        W26729  35.078  19.175  11.453
54382W        W26730  31.507  21.233  12.360
54383W        W26731  14.096  19.102   0.817
54384W        W26732   7.175  15.700  13.443
54385W        W26733  26.987  38.023  12.442
54386W        W26734  20.138  21.616   0.366
54387W        W26735  27.178   9.275  10.916
54388W        W26736   8.782  30.457   1.364
54389W        W26737  10.816  22.997  12.390
54390W        W26738  27.978  15.111  13.316
54391W        W26739  11.858   5.311  11.386
54392W        W26740  32.090  26.527   4.274
54393W        W26741   7.808  15.123   0.804
54394W        W26742  27.506   3.405   4.283
54395W        W26743  28.474  31.060  14.365
54396W        W26744   8.235  25.081  14.012
54397W        W26745  12.314  18.148   2.845
54398W        W26746  29.509  43.982   3.665
54399W        W26747  31.917   5.835   3.856
54400W        W26748  33.529  37.857  12.387
54401W        W26749  38.961   2.802   4.190
54402W        W26750   7.289   1.969  10.940
54403W        W26751  30.130  33.614   3.250
54404W        W26752  27.020  44.837  12.884
54405W        W26753  39.000  40.917  11.402
54406W        W26754  24.179  28.180  13.033
54407W        W26755  13.334   5.869  14.021
54408W        W26756  15.221  37.552   4.313
54409W        W26757   1.847  37.575  10.129
54410W        W26758  12.682  18.696   1.718
54411W        W26759  15.820  15.267  11.115
54412W        W26760  16.811   4.240   0.866
54413W        W26761   8.872   3.402  13.909
54414W        W26762  12.666  43.966   4.817
54415W        W26763   2.395  35.978   3.373
54416W        W26764  31.090   7.797   4.733
54417W        W26765  29.128   0.957   3.753
54418W        W26766  14.228  14.705  13.949
54419W        W26767  35.079  42.856   0.268
54420W        W26768  32.093  33.046   4.344
54421W        W26769   2.876   9.725  11.122
54422W        W26770  31.505   2.726  14.775
54423W        W26771  33.528  34.432  10.993
54424W        W26772  19.102  17.111  14.472
54425W        W26773   4.877   9.821   2.406
54426W        W26774  30.425  29.930   2.239
54427W        W26775  39.035  38.405  10.059
54428W        W26776   2.429  30.529   2.771
54429W        W26777  40.858  33.105   1.838
54430W        W26778  43.468  27.003  14.823
54431W        W26779  21.730  23.213  10.487
54432W        W26780  29.631   4.894  14.404
54433W        W26781   0.965   1.379   4.636
54434W        W26782  37.901  42.301  12.359
54435W        W26783   2.225   5.842  13.502
54436W        W26784  17.631  35.440  10.524
54437W        W26785  15.304  31.083  10.481
54438W        W26786  39.893  27.573  10.900
54439W        W26787  15.816  28.104   4.248
54440W        W26788  21.732  34.376   5.278
54441W        W26789  22.062   1.974  12.978
54442W        W26790  19.277   9.285   2.799
54443W        W26791  44.799  27.558   0.799
54444W        W26792   5.319  34.454   0.854
54445W        W26793  31.573  28.530  11.981
54446W        W26794  36.900  20.131  10.131
54447W        W26795  37.865   0.253   2.252
54448W        W26796  14.306  24.988  12.339
54449W        W26797  19.758  44.953   0.785
54450W        W26798  43.449  18.092  14.031
54451W        W26799  30.029  34.911   2.294
54452W        W26800  14.281  29.134   0.460
54453W        W26801  24.180  44.406   9.932
54454W        W26802   1.430  44.315   2.212
54455W        W26803  33.097  11.816   3.209
54456W        W26804  37.970   6.286   2.772
54457W        W26805  14.719   3.876   1.873
54458W        W26806  12.616  39.020   1.720
54459W        W26807  11.852  37.057  10.514
54460W        W26808  17.253  44.467  12.382
54461W        W26809   8.746  41.440  10.408
54462W        W26810  22.116   9.699   9.473
54463W        W26811  22.720   6.191   4.831
54464W        W26812  30.042  12.769  12.949
54465W        W26813  26.482  44.002   1.733
54466W        W26814  27.056  39.446  13.317
54467W        W26815  33.881  10.768  12.427
54468W        W26816   4.863  19.272  13.934
54469W        W26817  39.006   5.278   9.998
54470W        W26818  23.990  31.558   4.600
54471W        W26819  31.546  19.630  13.536
54472W        W26820  17.577  31.017   0.960
54473W        W26821  22.668   6.847   0.791
54474W        W26822  34.573   7.758   1.299
54475W        W26823  29.580  20.155   2.388
54476W        W26824   7.291  33.916   2.408
54477W        W26825  36.566  26.040  11.571
54478W        W26826   3.248  26.996  11.549
54479W        W26827  19.161  13.175   1.342
54480W        W26828  18.291  20.729   2.898
54481W        W26829  32.623  37.418   1.339
54482W        W26830  19.617  27.182   1.816
54483W        W26831  44.756  23.988   3.320
54484W        W26832  39.919  34.110   2.879
54485W        W26833  22.601   8.873   4.345
54486W        W26834  20.232  25.622  10.452
54487W        W26835   9.713  23.634   0.810
54488W        W26836   7.363  39.050  12.024
54489W        W26837  19.746  35.869   1.335
54490W        W26838   5.252  38.966   4.615
54491W        W26839  32.943  44.871   0.452
54492W        W26840  34.010  20.112  13.547
54493W        W26841   8.252  32.051   3.176
54494W        W26842  43.330  23.652  14.993
54495W        W26843  30.419  44.381   3.731
54496W        W26844  11.214  28.981  13.461
54497W        W26845  37.358   6.200  10.630
54498W        W26846   0.400  23.642  12.459
54499W        W26847  44.836   0.750   4.294
54500W        W26848  36.078   9.364   0.874
54501W        W26849  30.447  39.026  13.040
54502W        W26850  14.208  13.766   2.744
54503W        W26851   9.296   2.348  14.805
54504W        W26852  35.523  11.244  14.012
54505W        W26853  39.040  26.642  14.936
54506W        W26854  11.332  30.117   0.761
54507W        W26855   8.658  44.835   4.655
54508W        W26856  33.077  22.560  13.449
54509W        W26857  16.248  20.168  14.834
54510W        W26858   1.857  30.034   1.835
54511W        W26859  23.031  23.732   1.851
54512W        W26860   5.870  36.883  13.975
54513W        W26861  41.306  28.576   3.768
54514W        W26862   0.406  24.000  11.399
54515W        W26863  23.228   6.414   2.808
54516W        W26864  26.548  34.438   3.676
54517W        W26865  40.541  27.656  10.915
54518W        W26866  23.129  27.540  13.427
54519W        W26867  42.489   5.849  10.507
54520W        W26868  14.797   9.876  13.923
54521W        W26869   9.156   4.819  10.489
54522W        W26870  38.072   2.254   1.852
54523W        W26871  42.342  13.163  11.025
54524W        W26872  26.587   3.743  13.907
54525W        W26873  34.019  40.369  10.560
54526W        W26874  37.869  29.434  13.403
54527W        W26875  26.475  36.882   4.627
54528W        W26876  14.310   5.768   2.847
54529W        W26877  31.917  10.707   1.327
54530W        W26878  24.612  15.793   0.282
54531W        W26879   1.237  24.620  13.908
54532W        W26880  44.006  43.979  11.931
54533W        W26881  20.101   4.935  12.830
54534W        W26882  12.615  22.023  14.919
54535W        W26883  27.605   8.259  14.294
54536W        W26884  35.949   6.857   3.865
54537W        W26885   6.212   3.900   4.157
54538W        W26886  27.594  35.573   3.361
54539W        W26887  15.626   0.391  12.885
54540W        W26888  39.388  15.269   0.313
54541W        W26889  26.543  34.403   5.083
54542W        W26890  21.710  39.042  10.593
54543W        W26891  19.582  39.809   3.213
54544W        W26892   8.799  23.158  10.927
54545W        W26893  21.621   5.281  12.899
54546W        W26894  43.786   7.260  12.424
54547W        W26895   5.368  18.659  14.427
54548W        W26896  15.799  37.869   0.297
54549W        W26897   8.882  22.563   1.300
54550W        W26898  17.151  31.511   2.237
54551W        W26899  25.074  28.939  11.059
54552W        W26900  31.607  13.788   0.876
54553W        W26901  39.010  13.812   2.294
54554W        W26902  18.562  35.038   0.767
54555W        W26903  15.103  42.288   3.771
54556W        W26904  30.475   7.715   1.329
54557W        W26905  23.713  38.398   4.614
54558W        W26906  30.563  13.230  12.476
54559W        W26907  11.848  35.946  12.851
54560W        W26908  30.019  37.470   0.821
54561W        W26909  12.361   6.831  13.336
54562W        W26910  28.435  20.619  14.486
54563W        W26911  37.019  27.686   4.823
54564W        W26912  34.902  32.574   0.742
54565W        W26913  35.474  35.028   1.261
54566W        W26914  13.270  42.963  10.026
54567W        W26915  11.271  39.832  13.459
54568W        W26916   7.354  42.004  13.944
54569W        W26917  23.228  41.410  13.857
54570W        W26918  36.969  34.525  13.538
54571W        W26919   2.455  38.452  12.966
54572W        W26920   0.812  37.975   3.181
54573W        W26921   4.330  31.093   4.264
54574W        W26922  16.267  36.910   1.835
54575W        W26923  20.194  13.121  11.611
54576W        W26924  32.470  19.551  14.909
54577W        W26925  35.015  10.172  12.828
54578W        W26926   0.805  29.432  12.488
54579W        W26927   1.429  25.050  13.337
54580W        W26928  43.966  38.838  12.448
54581W        W26929   5.326  24.588  14.980
54582W        W26930  39.888  11.714  12.382
54583W        W26931  13.209   4.215  12.500
54584W        W26932  22.651  32.991  13.509
54585W        W26933  42.509  37.364   4.319
54586W        W26934  21.660  36.370   0.243
54587W        W26935  18.583  13.737   0.422
54588W        W26936   7.244  15.814  10.604
54589W        W26937  12.344   7.302   0.420
54590W        W26938  12.670   7.862   2.195
54591W        W26939  17.274  12.743   1.372
54592W        W26940  28.016   2.917  11.611
54593W        W26941  33.393  21.249  10.064
54594W        W26942  36.485  37.891  12.526
54595W        W26943  22.708  29.553  12.476
54596W        W26944  34.863  13.106   3.235
54597W        W26945  15.290  28.151   4.178
54598W        W26946  31.458  33.619  10.470
54599W        W26947  14.252  15.793  11.441
54600W        W26948  17.236  23.502   1.373
54601W        W26949  36.477  17.748  14.852
54602W        W26950  25.567   3.931  14.992
54603W        W26951  31.007  16.762   1.288
54604W        W26952   4.924  13.274   1.314
54605W        W26953  27.952   8.180   4.742
54606W        W26954  24.042  33.561  12.038
54607W        W26955  10.636   8.854   0.397
54608W        W26956  42.855  23.208   0.410
54609W        W26957  24.494  30.612   0.367
54610W        W26958   1.811  33.937  13.377
54611W        W26959  13.836   1.350   3.734
54612W        W26960  22.009  12.617  11.457
54613W        W26961   8.316  31.997  14.283
54614W        W26962  10.324  28.118   4.275
54615W        W26963   3.839   8.891   4.337
54616W        W26964  32.081  16.076  14.488
54617W        W26965  35.533  32.558   3.691
54618W        W26966  12.783   5.313   3.238
54619W        W26967  28.675  11.332   1.375
54620W        W26968  43.838  15.149  11.068
54621W        W26969  30.953  33.574  13.815
54622W        W26970  30.445   4.357   3.277
54623W        W26971  34.988   3.766  10.501
54624W        W26972  22.513   8.250   1.413
54625W        W26973  13.161  33.443  11.594
54626W        W26974   7.763  30.075  10.509
54627W        W26975  38.443   4.700  13.359
54628W        W26976  36.407  37.007   3.385
54629W        W26977   5.383  20.054  12.902
54630W        W26978  20.185   3.225  14.290
54631W        W26979  22.556  42.415  13.982
54632W        W26980  25.131  36.359   4.781
54633W        W26981  43.017  21.160   0.897
54634W        W26982  25.711   6.820  11.530
54635W        W26983  26.117  12.217   4.325
54636W        W26984  41.343  18.573   1.915
54637W        W26985   9.702  38.571   3.375
54638W        W26986   1.397  23.633   2.877
54639W        W26987   6.693   2.750   0.961
54640W        W26988   1.941  36.469  13.011
54641W        W26989  20.601  11.274  13.006
54642W        W26990  30.015  12.841  13.324
54643W        W26991  19.213   6.756  12.083
54644W        W26992  34.476  41.465  11.875
54645W        W26993  40.958  27.970  13.387
54646W        W26994  13.303  10.851  13.935
54647W        W26995  32.907  15.598   0.416
54648W        W26996  42.981  41.918   1.879
54649W        W26997  38.954  41.420  12.072
54650W        W26998   8.662  40.876   2.877
54651W        W26999  15.116   6.396  12.847
54652W        W27000  22.128  44.951  10.889
54653W        W27001  28.968  12.169  13.341
54654W        W27002  34.118  37.519  11.024
54655W        W27003  19.637  18.236  14.983
54656W        W27004  18.628  39.963  13.379
54657W        W27005  29.168  28.654  10.481
54658W        W27006  37.495  19.258   4.296
54659W        W27007   2.894  43.806   0.279
54660W        W27008  15.175  20.598   0.375
54661W        W27009  36.077  24.166   0.812
54662W        W27010   7.705   4.236   4.214
54663W        W27011  27.673  21.246  12.908
54664W        W27012  21.642  17.659  12.565
54665W        W27013  30.120  33.511   4.261
54666W        W27014   0.460  19.627   3.314
54667W        W27015  30.423  42.296   4.344
54668W        W27016  16.771  27.460   4.740
54669W        W27017  32.442  17.146   4.705
54670W        W27018   3.839   9.311   1.928
54671W        W27019  44.443  28.468   4.292
54672W        W27020  18.210   1.295   4.129
54673W        W27021  10.299   2.429  11.460
54674W        W27022  20.729   7.361  10.917
54675W        W27023   4.907  42.448  12.411
54676W        W27024  38.535  25.624  10.934
54677W        W27025  10.272  13.789   4.740
54678W        W27026  16.174  13.603   2.235
54679W        W27027   2.229   5.699  10.600
54680W        W27028  40.991  12.264  14.279
54681W        W27029  13.161  31.086   0.856
54682W        W27030  34.931  10.759   3.336
54683W        W27031  38.845  20.552  13.895
54684W        W27032  34.933  27.012  12.578
54685W        W27033   1.977  22.239   1.280
54686W        W27034  22.243   1.829  12.070
54687W        W27035  15.129  22.528  11.470
54688W        W27036  12.665   0.326  13.320
54689W        W27037  33.977  36.506   2.701
54690W        W27038   5.404  18.650   0.775
54691W        W27039  14.257  42.786  12.013
54692W        W27040   5.242   1.255  13.497
54693W        W27041   8.743  12.341  14.002
54694W        W27042  36.449  24.515  10.556
54695W        W27043   3.854  18.696  11.901
54696W        W27044  10.874  42.899   5.129
54697W        W27045  22.228  35.378  10.404
54698W        W27046   5.270   7.853   4.795
54699W        W27047   9.709   0.280  13.877
54700W        W27048  39.362  43.376   0.423
54701W        W27049  25.122  39.443   0.453
54702W        W27050   0.984  14.210   1.337
54703W        W27051  39.912  26.695   0.926
54704W        W27052  23.491  35.928  11.454
54705W        W27053   9.643  27.655   2.272
54706W        W27054  30.133  33.509   3.732
54707W        W27055  38.850  33.049   1.296
54708W        W27056  39.818  37.032  13.049
54709W        W27057   5.407  16.731   1.331
54710W        W27058   4.276   0.930  12.512
54711W        W27059  37.855   9.299   4.260
54712W        W27060  40.378  19.599  11.490
54713W        W27061  13.755  14.648  14.307
54714W        W27062  28.492  17.198   2.727
54715W        W27063  11.247  24.635   0.295
54716W        W27064   2.263  29.474  11.421
54717W        W27065  19.101  42.890   2.341
54718W        W27066  21.259  20.699   2.311
54719W        W27067   9.179  40.999  11.958
54720W        W27068   2.777   7.887  14.999
54721W        W27069  27.623  16.699  10.557
54722W        W27070  29.136   0.392   4.157
54723W        W27071   7.208   2.345   3.344
54724W        W27072   8.191  26.681   2.792
54725W        W27073  18.664  19.265  12.429
54726W        W27074   7.175  24.725   2.738
54727W        W27075  40.963  18.247  13.480
54728W        W27076  23.207  26.530  13.518
54729W        W27077   3.397  17.078  12.443
54730W        W27078  16.592  40.053  14.770
54731W        W27079   5.335  37.900  12.470
54732W        W27080  34.454  10.213   4.196
54733W        W27081  36.049   5.345   0.377
54734W        W27082   0.942  18.586  12.378
54735W        W27083  37.466   4.807  14.320
54736W        W27084  21.130   3.337   5.237
54737W        W27085   4.432   7.201  10.640
54738W        W27086   8.722  35.917   2.818
54739W        W27087  43.911  29.616   1.724
54740W        W27088  25.973  10.755  14.449
54741W        W27089  24.220  10.676  13.331
54742W        W27090  37.872   0.365  11.524
54743W        W27091  26.624   3.778   4.332
54744W        W27092  32.032  17.749  11.561
54745W        W27093   9.851  37.405   3.310
54746W        W27094  30.496  12.127   4.706
54747W        W27095  42.919  34.864  10.979
54748W        W27096  17.083  39.065   0.856
54749W        W27097  41.522  32.549  13.432
54750W        W27098  29.470  10.316  12.877
54751W        W27099  14.627  15.132   1.218
54752W        W27100  32.105  26.480   0.772
54753W        W27101  16.201  11.838   3.657
54754W        W27102  27.647  25.625  14.338
54755W        W27103  35.423  15.170   1.298
54756W        W27104  26.543  38.999  12.387
54757W        W27105   5.222   3.845   0.789
54758W        W27106  30.939   3.339  11.577
54759W        W27107  37.073  29.593  12.883
54760W        W27108   1.911  40.455  11.974
54761W        W27109  27.975   4.818   2.701
54762W        W27110  14.754  44.933   0.856
54763W        W27111  38.539   4.247  11.528
54764W        W27112   1.852  38.395  11.085
54765W        W27113  34.979   3.735  14.966
54766W        W27114  26.492  38.458  13.800
54767W        W27115   0.967  44.477  12.932
54768W        W27116  41.507   5.207   0.907
54769W        W27117  15.254  14.686  10.451
54770W        W27118  24.039   8.369  12.366
54771W        W27119  31.417  43.486  11.547
54772W        W27120  18.645   6.714  11.001
54773W        W27121   3.380   3.834   0.837
54774W        W27122   5.421  32.440  13.505
54775W        W27123  32.434   9.337   5.669
54776W        W27124   2.731  27.597   1.219
54777W        W27125   6.702  36.018  14.438
54778W        W27126  30.006   6.319  11.499
54779W        W27127   1.900  14.714   1.898
54780W        W27128   7.865  30.058   1.214
54781W        W27129  36.062  12.632  11.076
54782W        W27130  25.523   9.172  12.059
54783W        W27131   3.923   7.389   4.609
54784W        W27132  24.142  15.736   1.760
54785W        W27133  41.437  12.170  14.940
54786W        W27134  43.428  34.602  14.460
54787W        W27135   2.901  39.874  14.887
54788W        W27136   6.290  17.216  12.025
54789W        W27137  41.899  16.742   3.848
54790W        W27138  28.932  37.437   1.418
54791W        W27139  44.969  15.693  14.939
54792W        W27140  25.694  26.542  11.999
54793W        W27141  34.065  40.305   2.364
54794W        W27142  44.376  34.037   2.855
54795W        W27143   1.875  11.867  14.438
54796W        W27144  30.458  14.322   4.236
54797W        W27145  31.001  15.179  11.052
54798W        W27146  24.699  44.851   3.184
54799W        W27147  41.343  25.191   1.373
54800W        W27148  10.277   4.362   5.117
54801W        W27149   1.890  18.785   1.269
54802W        W27150  23.026   0.296  12.513
54803W        W27151  38.532  26.998  13.791
54804W        W27152  37.914  33.391  10.062
54805W        W27153  31.532  30.546   0.966
54806W        W27154   2.813  17.118   1.916
54807W        W27155  28.577   5.699  11.542
54808W        W27156  18.589   7.266   2.365
54809W        W27157   8.892   7.391  11.922
54810W        W27158  29.948  11.702  13.444
54811W        W27159   6.832  19.148   0.847
54812W        W27160  13.120   5.288   1.703
54813W        W27161  19.534   9.793   1.725
54814W        W27162   9.867   3.740  10.603
54815W        W27163  34.369  36.064  13.454
54816W        W27164  29.467  38.825   4.823
54817W        W27165  21.069  12.357  12.988
54818W        W27166  18.623   6.291  13.399
54819W        W27167  33.067  36.089  14.961
54820W        W27168  20.084  21.645  11.576
54821W        W27169   2.794   5.716   1.808
54822W        W27170   6.403   6.343   5.096
54823W        W27171   1.832  18.239   3.177
54824W        W27172  29.029  40.475  12.424
54825W        W27173  34.884  36.573   4.776
54826W        W27174  33.077   8.887   2.286
54827W        W27175   8.736   5.752   3.769
54828W        W27176  14.259   6.830  13.969
54829W        W27177  14.594  27.690  10.621
54830W        W27178  31.032  35.432  14.304
54831W        W27179  44.761  20.529   0.417
54832W        W27180  14.665  20.683  10.932
54833W        W27181  19.217  15.803   2.325
54834W        W27182   9.789  39.407   2.869
54835W        W27183   4.893  25.647  11.449
54836W        W27184   5.428  30.060   1.697
54837W        W27185  31.451   1.398   3.757
54838W        W27186  19.677  41.978  10.958
54839W        W27187  33.450  25.596  13.808
54840W        W27188   8.240   6.767  12.395
54841W        W27189  26.151  11.305   4.138
54842W        W27190  19.266  42.487  12.854
54843W        W27191  27.952  19.543  12.540
54844W        W27192  42.029   9.885   0.247
54845W        W27193  22.151  38.950  13.025
54846W        W27194  30.014  19.726   3.769
54847W        W27195  37.482  30.919  11.059
54848W        W27196  40.981  40.436   0.836
54849W        W27197  24.661  20.717  11.585
54850W        W27198  38.867  42.778   5.281
54851W        W27199   3.922  23.681  14.360
54852W        W27200  21.642  20.769  10.558
54853W        W27201  17.159  18.705  13.313
54854W        W27202  10.763   7.328   4.656
54855W        W27203  36.016  26.556  10.618
54856W        W27204  16.146  34.994  11.410
54857W        W27205  44.281  33.881   0.830
54858W        W27206  34.547  13.776   1.399
54859W        W27207  28.070  35.890  14.018
54860W        W27208   5.720  26.477   0.860
54861W        W27209   5.809  27.086   1.359
54862W        W27210  21.204  31.410   1.926
54863W        W27211   0.809  35.048   4.750
54864W        W27212  39.557  25.613   4.320
54865W        W27213   8.334   4.827  12.383
54866W        W27214  43.844  25.173  11.860
54867W        W27215  34.953  41.300   0.456
54868W        W27216   1.329  36.419   0.418
54869W        W27217   8.850  38.327  11.862
54870W        W27218  12.206   9.831  14.788
54871W        W27219  11.184  39.396  14.758
54872W        W27220  40.441  41.000  14.988
54873W        W27221  39.988  34.501   0.914
54874W        W27222   5.894  30.021   0.818
54875W        W27223   1.963  15.720  12.849
54876W        W27224  41.533  34.020  13.461
54877W        W27225  20.210  25.569   4.703
54878W        W27226  28.960  23.025   0.913
54879W        W27227  39.845  26.100  14.428
54880W        W27228  33.515  25.209   0.924
54881W        W27229  31.094  42.803   0.414
54882W        W27230  18.200  39.882   0.755
54883W        W27231  16.640  37.855   2.390
54884W        W27232   6.747  33.105   3.387
54885W        W27233  25.986  33.934   4.618
54886W        W27234   1.950  27.650  10.914
54887W        W27235  11.272   9.765   2.708
54888W        W27236  29.946  26.498  13.519
54889W        W27237   1.261  36.013   4.614
54890W        W27238  27.450  40.953  11.924
54891W        W27239  44.936  35.101   3.189
54892W        W27240  14.126  10.778   4.272
54893W        W27241  10.860  26.552   1.855
54894W        W27242  37.895   6.745  13.363
54895W        W27243  21.637  11.344   2.844
54896W        W27244  33.446  20.684  13.364
54897W        W27245  34.468  22.998  12.984
54898W        W27246  24.038  10.650   3.344
54899W        W27247  35.358   4.207   1.898
54900W        W27248   5.780  15.721  13.797
54901W        W27249  26.503  37.844   2.710
54902W        W27250  15.791   3.750  12.981
54903W        W27251  41.487  14.724  12.506
54904W        W27252  33.970  12.725   2.404
54905W        W27253  27.556  33.588  14.324
54906W        W27254  42.407  36.450  10.426
54907W        W27255  43.301   6.354   3.857
54908W        W27256   6.877  31.549  10.105
54909W        W27257  27.063  39.526   0.480
54910W        W27258  13.745  41.011  14.813
54911W        W27259  36.389  27.525   4.761
54912W        W27260  40.893  30.560   0.376
54913W        W27261  25.469  24.677   3.215
54914W        W27262  20.603  12.628   0.316
54915W        W27263  26.013   7.375  13.809
54916W        W27264  23.228  25.025  14.288
54917W        W27265   4.284  21.723   3.366
54918W        W27266  23.661  34.385  11.058
54919W        W27267  26.622  18.149   4.341
54920W        W27268   0.946  25.630   2.816
54921W        W27269  34.108  39.976   0.844
54922W        W27270   8.366  19.240  11.565
54923W        W27271   4.735  44.299  11.124
54924W        W27272  26.029  41.329   4.681
54925W        W27273  39.851  40.476  11.888
54926W        W27274  11.196  35.942   3.233
54927W        W27275  35.063  33.902   0.804
54928W        W27276   5.784  31.444  13.810
54929W        W27277   5.878  28.002  11.077
54930W        W27278   6.748   8.295   3.154
54931W        W27279   7.318  10.382  10.412
54932W        W27280  30.985  32.087  12.070
54933W        W27281   9.313   5.721  14.512
54934W        W27282  19.094  43.942   3.233
54935W        W27283  33.020  31.498  11.613
54936W        W27284  35.447  12.769   0.774
54937W        W27285   5.709  44.496  13.892
54938W        W27286   6.355   1.818   0.298
54939W        W27287   0.927  19.624  14.846
54940W        W27288  12.208  40.541  11.485
54941W        W27289  31.151  44.296  10.577
54942W        W27290  21.191   8.857  10.014
54943W        W27291  43.370  13.106   4.147
54944W        W27292  41.525  37.446   3.219
54945W        W27293  22.655   3.363  13.834
54946W        W27294  29.480  16.200  12.017
54947W        W27295  40.887   0.463   4.703
54948W        W27296   5.835  15.219  13.015
54949W        W27297  31.624   1.804   3.216
54950W        W27298  41.836  20.634   0.756
54951W        W27299  14.147   5.888  12.351
54952W        W27300  12.661  23.223   0.325
54953W        W27301   5.778  12.670   1.838
54954W        W27302   8.372  39.986   0.784
54955W        W27303  42.331  12.152   2.373
54956W        W27304   9.151  25.494  13.035
54957W        W27305   6.311  14.685   3.830
54958W        W27306  41.015   4.416  12.847
54959W        W27307  37.045  21.741   1.394
54960W        W27308  17.265  26.183   1.722
54961W        W27309  38.034  36.922  13.904
54962W        W27310  24.683  33.021  11.077
54963W        W27311  26.092  23.222  11.998
54964W        W27312  21.536   1.431  11.903
54965W        W27313   9.267  18.756  12.403
54966W        W27314  13.828  14.219  14.898
54967W        W27315  19.088  27.667  12.083
54968W        W27316  21.652  12.616  12.913
54969W        W27317   1.301  39.428  13.003
54970W        W27318  34.891  26.119  13.496
54971W        W27319  15.154  21.572  10.950
54972W        W27320   0.355   4.909   1.394
54973W        W27321  39.429  21.552   0.441
54974W        W27322  34.406  32.132  14.926
54975W        W27323  40.900   9.198  11.553
54976W        W27324  37.075  18.154  10.517
54977W        W27325  20.723   1.481  12.544
54978W        W27326  30.026   7.727  14.801
54979W        W27327  33.470   5.819   4.206
54980W        W27328  13.744  16.578   1.898
54981W        W27329  31.058   4.250  13.873
54982W        W27330   0.887  14.772  14.450
54983W        W27331  18.573  19.754   0.802
54984W        W27332   3.821  26.497  12.020
54985W        W27333   8.177   4.325   3.826
54986W        W27334   5.784   4.744   3.371
54987W        W27335  39.933   4.862  10.562
54988W        W27336   0.922   8.300  14.828
54989W        W27337  15.295  12.287  10.628
54990W        W27338  16.716  21.683  12.062
54991W        W27339   5.391  13.602  12.359
54992W        W27340   1.346   9.777   4.132
54993W        W27341   2.359   0.412  13.825
54994W        W27342   6.697  42.993  12.078
54995W        W27343  14.109  11.171   2.862
54996W        W27344  27.960   7.706   1.210
54997W        W27345  20.701   3.338   4.326
54998W        W27346  34.420  12.116  13.460
54999W        W27347  30.567  13.783  13.864
55000W        W27348   6.234   5.289   2.317
55001W        W27349  10.771  37.023  13.503
55002W        W27350  40.834   0.345  12.343
55003W        W27351  42.795   9.355  12.555
55004W        W27352  31.117  21.724  14.001
55005W        W27353  37.920  32.137   4.171
55006W        W27354  13.312  44.873  11.945
55007W        W27355  42.981  38.338  13.044
55008W        W27356   8.373  12.791   4.597
55009W        W27357   2.235  35.941   0.359
55010W        W27358   4.211  16.781  12.430
55011W        W27359  25.701   8.784  14.954
55012W        W27360  15.147   6.236   3.717
55013W        W27361   9.876  40.440  13.384
55014W        W27362   3.833  11.809  13.309
55015W        W27363   7.682  30.953   2.877
55016W        W27364  35.422  24.528   1.707
55017W        W27365   3.753  43.340   3.153
55018W        W27366  30.440  33.024   2.378
55019W        W27367   5.237   6.916   4.604
55020W        W27368  35.403  18.648   3.283
55021W        W27369   6.701  19.197  13.522
55022W        W27370  15.196  19.645  11.895
55023W        W27371  15.211   8.236  12.942
55024W        W27372  18.643  39.450   0.382
55025W        W27373  30.511  27.504   0.384
55026W        W27374  29.588  22.188   4.141
55027W        W27375  10.816   9.809   1.726
55028W        W27376  31.115  14.300   2.868
55029W        W27377  41.949  24.201   3.386
55030W        W27378  35.875  40.906   0.801
55031W        W27379  42.885  25.037  11.925
55032W        W27380   1.923  18.267   3.731
55033W        W27381  15.757  24.172  12.456
55034W        W27382   4.819   4.796   1.934
55035W        W27383  29.070   3.262   0.286
55036W        W27384  25.519  18.735   0.352
55037W        W27385   4.900  26.693  14.775
55038W        W27386  38.032  38.467   1.806
55039W        W27387   3.766   6.737  11.473
55040W        W27388  21.756  41.929  12.557
55041W        W27389  27.617   9.365  14.836
55042W        W27390  32.391   1.799   2.351
55043W        W27391   3.387  19.589  10.559
55044W        W27392  39.317   4.296   3.853
55045W        W27393  31.415   3.295  11.540
55046W        W27394  22.159  27.086  13.933
55047W        W27395  25.689  34.101   4.339
55048W        W27396  44.449  14.103  10.435
55049W        W27397  25.165  34.537  11.398
55050W        W27398   3.353  16.626  13.485
55051W        W27399   9.793   9.668   0.783
55052W        W27400  43.307   1.332  13.538
55053W        W27401  16.119  14.128   4.792
55054W        W27402   7.845  25.081   2.327
55055W        W27403  39.825   5.288   4.301
55056W        W27404  22.562  28.641  13.871
55057W        W27405  37.564  23.530  14.984
55058W        W27406   8.402  28.673  11.107
55059W        W27407   0.303  28.649  11.505
55060W        W27408  26.618   3.331  10.507
55061W        W27409   7.176  26.961   3.318
55062W        W27410   7.258  34.874  13.860
55063W        W27411  40.928   5.253   0.835
55064W        W27412  29.575  12.638  13.837
55065W        W27413  22.109  18.206   2.226
55066W        W27414  16.103  13.182   1.341
55067W        W27415   5.381   5.327  13.388
55068W        W27416   2.807  21.031  13.386
55069W        W27417   9.264  11.206   1.876
55070W        W27418  34.866  34.388   4.186
55071W        W27419  31.077  41.915   3.270
55072W        W27420  11.867  15.801   0.368
55073W        W27421  30.431   4.345   4.154
55074W        W27422   4.353  33.939  13.981
55075W        W27423   9.177  22.696  11.413
55076W        W27424  33.516  21.558   3.245
55077W        W27425  43.828  36.885   0.426
55078W        W27426  25.972  39.342   2.374
55079W        W27427  30.911  41.485  14.764
55080W        W27428   7.878  20.228  13.862
55081W        W27429  18.264   6.295  14.288
55082W        W27430  34.368  31.960  10.952
55083W        W27431   8.234  14.732   1.754
55084W        W27432  13.283  22.063  14.766
55085W        W27433   5.379  34.074  13.502
55086W        W27434   7.869  31.956  14.454
55087W        W27435   4.826  35.465  10.026
55088W        W27436  24.725  24.019   2.709
55089W        W27437  23.706   8.307   3.316
55090W        W27438  32.927  36.959   3.728
55091W        W27439   2.261  37.467   0.737
55092W        W27440  44.484  20.173   2.372
55093W        W27441  19.598  31.114   2.388
55094W        W27442   0.857   1.401   3.790
55095W        W27443  17.200   3.240  10.603
55096W        W27444   6.210  23.169   4.749
55097W        W27445  13.716   6.836   0.249
55098W        W27446  43.345  39.891   0.814
55099W        W27447   9.810  23.650  13.040
55100W        W27448  41.340  26.486  12.018
55101W        W27449  28.584  29.973  11.607
55102W        W27450  44.269  42.905   3.382
55103W        W27451  34.006  18.076  10.409
55104W        W27452   2.941  15.606   1.358
55105W        W27453  12.131  18.696   0.870
55106W        W27454  40.458   8.195   2.341
55107W        W27455   6.810  43.879  11.000
55108W        W27456  18.202  29.564  14.802
55109W        W27457  37.857   2.390   4.806
55110W        W27458  25.487  20.108  10.473
55111W        W27459  23.528  35.873   3.833
55112W        W27460  20.693  19.637  14.330
55113W        W27461  14.221  22.517   3.749
55114W        W27462  32.539  40.503  12.487
55115W        W27463  27.515  18.115  12.907
55116W        W27464  24.706  16.602   4.261
55117W        W27465  27.476  32.014   4.642
55118W        W27466  20.058  11.712   2.766
55119W        W27467  19.763  17.590   3.176
55120W        W27468  28.110  11.172  14.836
55121W        W27469  31.921  43.859   3.204
55122W        W27470   3.821  31.549   4.734
55123W        W27471  26.503  22.054   1.419
55124W        W27472  20.198  37.056  11.503
55125W        W27473   6.195  25.571  14.304
55126W        W27474  21.180  43.796  10.489
55127W        W27475   3.330  26.523  14.884
55128W        W27476  36.568   9.338  13.910
55129W        W27477  19.582  38.508  12.035
55130W        W27478  25.582  24.998  12.869
55131W        W27479  23.585  24.492  14.815
55132W        W27480  36.904  16.791   2.683
55133W        W27481   1.483   6.397   4.321
55134W        W27482  17.622  36.547   3.244
55135W        W27483  15.241  10.236   1.361
55136W        W27484  33.052   1.904   1.834
55137W        W27485  22.137  44.848  11.515
55138W        W27486  28.107  19.548   2.715
55139W        W27487  38.875  22.043   3.306
55140W        W27488  38.057  23.052  12.934
55141W        W27489   1.363   3.361   1.388
55142W        W27490   4.793  40.869   0.313
55143W        W27491  41.505  21.083   4.255
55144W        W27492  37.568  34.018   0.469
55145W        W27493  41.470   4.246   4.701
55146W        W27494  13.776  31.033  14.290
55147W        W27495  37.466  26.152  10.922
55148W        W27496  37.473  14.766  14.979
55149W        W27497  21.240  35.520  10.426
55150W        W27498  37.859  22.529  12.074
55151W        W27499  37.832  39.524  12.093
55152W        W27500  27.547  22.148   2.861
55153W        W27501   7.853  30.038   3.243
55154W        W27502  44.473  26.630  14.792
55155W        W27503  13.809  11.669   1.374
55156W        W27504  36.016  17.125   1.737
55157W        W27505  15.173  44.840  13.394
55158W        W27506  11.203  25.067   0.416
55159W        W27507  29.949  27.589  13.505
55160W        W27508   7.745  44.978  10.460
55161W        W27509   8.247  41.417  11.906
55162W        W27510  31.408  33.948  12.407
55163W        W27511  33.596  10.230  13.899
55164W        W27512   0.829  27.501   3.228
55165W        W27513  16.584  12.769   3.337
55166W        W27514  36.956  14.716   2.286
55167W        W27515  13.306  35.583   0.869
55168W        W27516   9.679  24.678  14.919
55169W        W27517  40.816   2.395  10.546
55170W        W27518  14.268  28.552  13.518
55171W        W27519  36.047  14.658  14.960
55172W        W27520  25.599  39.947  14.440
55173W        W27521  35.101  17.763  12.497
55174W        W27522   6.795  11.770   4.291
55175W        W27523   6.809   0.926  11.971
55176W        W27524  19.634  35.052  12.576
55177W        W27525   5.429   4.835   2.279
55178W        W27526  17.721  32.980  14.908
55179W        W27527  21.148  43.878  14.484
55180W        W27528  12.663  33.412  12.910
55181W        W27529  11.229  23.044   3.666
55182W        W27530   7.384  31.465  11.994
55183W        W27531  17.193  44.448   3.323
55184W        W27532  41.520   4.433  13.378
55185W        W27533   4.837  39.455   4.619
55186W        W27534  23.164  10.233   5.321
55187W        W27535  22.137  37.839   4.234
55188W        W27536   9.357  33.623   3.253
55189W        W27537  26.118   8.306  13.911
55190W        W27538  43.871  10.741  12.526
55191W        W27539  31.992  37.348   3.677
55192W        W27540   9.865  35.528  10.609
55193W        W27541  37.028  36.996   3.850
55194W        W27542   7.355  40.020   0.827
55195W        W27543  39.895  32.114   3.228
55196W        W27544  35.395   7.773   2.338
55197W        W27545  40.939  20.597   1.804
55198W        W27546  36.425  12.721   0.887
55199W        W27547  36.950  27.006  10.541
55200W        W27548   5.279  40.991  11.080
55201W        W27549  41.349  25.090  10.597
55202W        W27550  18.180  25.023  14.955
55203W        W27551  13.203  11.750  11.393
55204W        W27552  33.613   8.835  13.376
55205W        W27553  14.643  20.551  13.433
55206W        W27554   8.775   0.409   2.883
55207W        W27555  44.947  25.135   2.286
55208W        W27556   4.923  27.688  13.040
55209W        W27557   3.817  16.244  14.871
55210W        W27558  14.182   0.856   4.834
55211W        W27559  38.967  43.453   3.310
55212W        W27560  25.968   3.414   0.826
55213W        W27561  35.952  29.995  12.365
55214W        W27562   9.668  22.714  11.977
55215W        W27563  36.473  34.934  14.989
55216W        W27564  13.295  24.058   0.482
55217W        W27565  31.984  29.494   0.397
55218W        W27566   6.884  18.735   1.887
55219W        W27567   7.367  39.827   4.777
55220W        W27568  18.774  16.735   3.837
55221W        W27569   4.429  11.761   1.379
55222W        W27570  41.308  11.850   4.793
55223W        W27571  43.334  11.200   9.969
55224W        W27572  26.656  41.355   0.479
55225W        W27573  14.590  20.615   4.114
55226W        W27574  18.747  43.403   2.325
55227W        W27575  20.213   1.247  11.114
55228W        W27576  31.523  30.982   3.146
55229W        W27577  32.446   5.228   4.252
55230W        W27578  25.060   9.757   9.942
55231W        W27579  14.175  25.014  13.019
55232W        W27580  25.117  34.917   3.377
55233W        W27581  36.999   3.340  14.461
55234W        W27582  24.560  27.131   3.343
55235W        W27583  15.784  18.086   1.721
55236W        W27584  43.989  24.539  11.448
55237W        W27585  35.914  24.174  14.294
55238W        W27586  41.884   9.872   2.677
55239W        W27587   5.903  39.947  10.526
55240W        W27588  35.424  33.464  11.506
55241W        W27589  42.280  44.955  12.357
55242W        W27590  11.805  43.969   0.940
55243W        W27591  23.008  12.798  13.998
55244W        W27592   9.856  14.222  12.407
55245W        W27593   0.969  32.430   2.404
55246W        W27594  15.183  14.799   0.459
55247W        W27595  24.997  36.979   4.795
55248W        W27596  17.738  38.031   2.388
55249W        W27597  23.535   3.363  11.113
55250W        W27598  42.446  13.246   1.237
55251W        W27599  44.327  12.720   2.777
55252W        W27600   2.317  21.554   0.816
55253W        W27601  28.119  29.503  13.322
55254W        W27602   5.338  10.372   3.759
55255W        W27603  10.796   6.722   1.898
55256W        W27604  34.954  35.417  13.024
55257W        W27605   1.741  36.541  14.913
55258W        W27606  44.399  20.249   3.306
55259W        W27607   2.914  29.966  12.510
55260W        W27608   8.346  37.930   4.226
55261W        W27609  33.508  36.847  11.033
55262W        W27610   8.770  32.034  12.572
55263W        W27611  41.909  42.293  11.475
55264W        W27612   3.445  21.040   0.727
55265W        W27613  31.413   5.239  12.984
55266W        W27614  24.547  19.224   0.893
55267W        W27615  27.468  42.783  11.375
55268W        W27616  29.054  11.732  11.038
55269W        W27617  17.561  25.602   4.185
55270W        W27618  20.124  30.483   1.376
55271W        W27619  37.380   1.337  14.399
55272W        W27620   6.711  18.759  14.349
55273W        W27621   9.689  39.408   3.799
55274W        W27622  16.600  34.469   3.665
55275W        W27623  35.018  12.695  11.595
55276W        W27624  12.627  15.619  11.030
55277W        W27625   7.366  11.858   0.845
55278W        W27626  31.115  35.058   4.286
55279W        W27627  19.645  16.723   3.657
55280W        W27628  42.286   8.884  13.972
55281W        W27629  23.230   0.884   1.915
55282W        W27630  39.482  27.484   0.856
55283W        W27631  27.046  25.988   0.956
55284W        W27632  37.435   2.318  13.025
55285W        W27633  44.309   0.959  13.309
55286W        W27634  32.470  22.705  13.422
55287W        W27635  27.673   6.254   4.196
55288W        W27636  36.557  35.405  12.866
55289W        W27637  32.546  21.088   1.414
55290W        W27638  39.902  40.976   3.234
55291W        W27639  41.425   5.383   2.804
55292W        W27640  33.977   5.755   4.640
55293W        W27641   6.858  23.229  14.396
55294W        W27642  44.849  24.485  13.343
55295W        W27643  24.567  39.459   3.631
55296W        W27644   1.320  21.633   0.271
55297W        W27645  13.328  19.152  14.496
55298W        W27646  43.764  12.723   4.606
55299W        W27647  22.189  35.854   2.764
55300W        W27648  10.265  43.410  12.975
55301W        W27649  33.107  11.666  13.377
55302W        W27650  33.556  44.301  14.876
55303W        W27651  39.954   4.338  10.525
55304W        W27652   8.279  40.025   1.251
55305W        W27653  14.171  24.068  13.507
55306W        W27654  42.399  28.124  13.939
55307W        W27655  12.206   4.223   1.703
55308W        W27656  41.297  30.034   0.778
55309W        W27657  30.623   8.339   5.158
55310W        W27658  17.307  13.752   9.944
55311W        W27659  35.446  33.543   4.619
55312W        W27660   9.876   1.889  13.867
55313W        W27661  37.924  37.062  11.009
55314W        W27662   3.249  29.541   5.309
55315W        W27663   2.778   0.965   1.891
55316W        W27664  35.081  11.306  11.097
55317W        W27665  31.558  38.493  11.013
55318W        W27666  41.533   9.862  14.987
55319W        W27667   6.259  37.398  14.974
55320W        W27668  40.978   8.255  13.836
55321W        W27669  44.303   0.934  14.927
55322W        W27670   6.194  35.067   1.247
55323W        W27671  17.165  27.129  11.462
55324W        W27672  24.212  30.519   4.662
55325W        W27673  27.654  15.793   2.812
55326W        W27674  38.384  23.219  13.935
55327W        W27675  19.096  22.694  12.467
55328W        W27676  24.674  13.182   4.646
55329W        W27677  18.288  39.952  11.121
55330W        W27678   7.206  35.087   2.786
55331W        W27679  19.566  41.794  11.375
55332W        W27680  42.015  27.971  11.884
55333W        W27681  40.915  17.140   4.276
55334W        W27682  44.893  29.443   4.785
55335W        W27683   5.863   8.365  12.536
55336W        W27684  10.346  43.338   4.349
55337W        W27685  24.680  16.185  14.965
55338W        W27686  17.272  27.631   3.853
55339W        W27687  35.005  39.889   2.231
55340W        W27688  24.677   6.902   2.793
55341W        W27689   6.692   9.835   3.845
55342W        W27690  10.246  31.494  12.902
55343W        W27691  31.931  17.088   2.199
55344W        W27692   0.917  16.579   3.710
55345W        W27693  42.976  23.105  14.954
55346W        W27694  26.575  33.571   4.732
55347W        W27695  11.655  37.843   1.795
55348W        W27696  36.953   0.827   4.162
55349W        W27697  15.614  29.513  14.010
55350W        W27698   9.877   9.884   2.681
55351W        W27699   1.289   5.247  13.871
55352W        W27700  13.293  16.720  10.422
55353W        W27701   3.457  21.223   1.448
55354W        W27702   2.810  39.814  11.515
55355W        W27703  10.240   2.457   0.833
55356W        W27704  42.434  22.721  11.518
55357W        W27705  10.312   0.947  14.994
55358W        W27706   7.192   3.431  12.878
55359W        W27707  37.562   3.857   2.188
55360W        W27708  39.029  27.009  14.300
55361W        W27709  10.149  12.280  11.111
55362W        W27710  44.279  21.058  11.987
55363W        W27711  26.014  41.966  14.946
55364W        W27712  23.706  26.043   4.779
55365W        W27713   0.881  38.963  12.549
55366W        W27714  37.579  19.205  11.074
55367W        W27715  38.497  40.492   1.294
55368W        W27716  22.615  28.108   3.762
55369W        W27717  28.032  24.192   1.384
55370W        W27718   4.861  10.803  13.850
55371W        W27719   2.450  29.006   1.911
55372W        W27720  29.079  10.241   2.762
55373W        W27721  22.525  38.878  13.809
55374W        W27722   6.238  44.392   3.250
55375W        W27723  44.288  17.109  13.438
55376W        W27724   0.408  28.104   3.698
55377W        W27725  35.411   8.775  13.405
55378W        W27726   0.815  44.914  13.824
55379W        W27727  12.767  18.290   1.699
55380W        W27728  23.145  31.605   2.705
55381W        W27729  22.214  19.664   1.793
55382W        W27730  24.169  11.314  10.455
55383W        W27731  36.852  17.720   2.884
55384W        W27732   4.444  33.041  10.917
55385W        W27733   7.221  18.193   4.830
55386W        W27734  13.296  37.042  11.057
55387W        W27735  37.045  38.340  11.082
55388W        W27736  41.343  24.988   3.198
55389W        W27737  41.002  43.445   1.284
55390W        W27738  30.104  37.379   1.694
55391W        W27739  32.570  33.552   4.649
55392W        W27740  39.014  16.740   0.821
55393W        W27741  33.564   9.754  11.899
55394W        W27742  23.589  44.848  12.524
55395W        W27743  24.611   6.297   2.270
55396W        W27744   2.886   3.234   1.320
55397W        W27745  12.302  12.684   4.208
55398W        W27746  27.595  15.259  13.969
55399W        W27747   2.925   8.681  13.968
55400W        W27748   7.210   0.860   2.666
55401W        W27749  38.853  36.863   3.336
55402W        W27750  14.806  34.547   2.365
55403W        W27751  13.345   2.942  11.454
55404W        W27752  26.964  29.469   4.722
55405W        W27753  31.505  34.108  13.358
55406W        W27754  42.473  37.361  14.936
55407W        W27755  42.896  36.421   3.799
55408W        W27756  36.946   8.735   1.875
55409W        W27757  34.533  25.201  12.962
55410W        W27758   4.814   1.924   4.138
55411W        W27759   5.287  10.753  10.991
55412W        W27760  18.171  19.767  12.023
55413W        W27761  35.499  42.486   2.217
55414W        W27762  16.186  20.057  11.521
55415W        W27763  40.980  21.177  12.854
55416W        W27764   7.194   9.340   4.603
55417W        W27765   0.255   1.473   1.799
55418W        W27766  18.281   3.298  13.318
55419W        W27767  31.966  20.232  12.497
55420W        W27768  37.576   8.348   1.328
55421W        W27769   3.244  10.824   1.410
55422W        W27770   2.783  25.682  12.863
55423W        W27771  11.250   0.954   3.202
55424W        W27772  39.012  10.837   2.767
55425W        W27773   9.346  42.926   1.776
55426W        W27774  44.414  11.351  10.414
55427W        W27775  18.547  22.725   5.313
55428W        W27776  42.814   0.258   3.191
55429W        W27777  10.760  25.045  12.051
55430W        W27778   0.424   7.380  14.391
55431W        W27779   6.237  10.690  13.941
55432W        W27780  22.657  39.504   3.699
55433W        W27781  35.897   0.420  10.946
55434W        W27782  26.109  33.983  12.978
55435W        W27783  22.122  23.135  11.434
55436W        W27784  35.554   2.243  11.469
55437W        W27785   9.884  33.473   3.844
55438W        W27786  15.820  25.054   0.454
55439W        W27787  38.510  25.103  13.025
55440W        W27788  20.114  20.273  11.565
55441W        W27789  40.355   2.377  13.425
55442W        W27790  20.679   0.481   4.662
55443W        W27791   6.884  31.965   1.305
55444W        W27792  32.941   2.937   1.822
55445W        W27793   9.719  33.411  10.092
55446W        W27794  19.273  15.753  10.906
55447W        W27795  35.001  17.771  11.376
55448W        W27796  27.682  37.950   4.351
55449W        W27797  20.633  30.610   1.698
55450W        W27798  12.767  13.180   0.328
55451W        W27799  17.170  14.280   4.791
55452W        W27800   4.735  11.696   3.152
55453W        W27801   3.361  13.312  13.061
55454W        W27802  34.034  32.417   2.862
55455W        W27803  28.931  10.298  13.821
55456W        W27804  41.830  12.819   3.357
55457W        W27805  23.588  20.047   4.710
55458W        W27806   3.405  38.550  11.452
55459W        W27807   9.678  42.850   3.693
55460W        W27808  43.330  39.364   2.195
55461W        W27809  33.380  34.434   1.847
55462W        W27810  33.959  36.412   5.259
55463W        W27811   7.325  29.530   2.417
55464W        W27812   4.808  37.052   4.322
55465W        W27813   1.477  18.155  12.036
55466W        W27814  27.670  35.943  10.957
55467W        W27815  38.494  17.749  10.641
55468W        W27816  35.482   8.792   4.122
55469W        W27817  36.986  23.205  10.908
55470W        W27818  19.565  26.011   3.846
55471W        W27819   2.812  35.591   0.824
55472W        W27820   1.426  39.860  14.971
55473W        W27821  23.161  15.682  11.550
55474W        W27822  29.485  14.779   2.305
55475W        W27823  23.142   7.189   4.700
55476W        W27824  44.945   1.352  14.841
55477W        W27825  12.163  18.201   1.329
55478W        W27826   6.711   3.754   2.307
55479W        W27827  24.621  15.328  10.439
55480W        W27828  25.547   1.946   0.793
55481W        W27829  12.685   3.796   5.186
55482W        W27830  36.956   4.268  12.382
55483W        W27831   3.324   7.825   3.221
55484W        W27832  28.087  13.317  13.514
55485W        W27833  40.474  41.954   0.842
55486W        W27834  18.581  39.967  10.485
55487W        W27835  31.618   0.776  12.068
55488W        W27836   6.793  18.675  10.526
55489W        W27837  25.487  27.069   4.727
55490W        W27838   5.855   6.764  11.022
55491W        W27839  14.282  44.928  11.046
55492W        W27840  24.680  24.122  10.988
55493W        W27841  41.908  18.664  13.966
55494W        W27842  38.904  22.080  10.970
55495W        W27843  39.896  28.941   3.782
55496W        W27844  41.468  34.379   0.819
55497W        W27845  28.931   0.810   1.419
55498W        W27846  21.608   4.907  10.050
55499W        W27847  28.492  10.336   0.946
55500W        W27848  37.843  23.134  13.814
55501W        W27849  34.055  33.001   1.412
55502W        W27850  13.229  42.923   1.417
55503W        W27851  26.626  15.088   3.256
55504W        W27852  18.601  23.154  13.527
55505W        W27853   0.910  11.309   2.224
55506W        W27854  41.883   0.864   3.645
55507W        W27855  30.481   0.347   3.213
55508W        W27856  40.476  10.366   3.332
55509W        W27857  26.525  22.520  11.032
55510W        W27858  42.403   7.352   4.827
55511W        W27859  35.004  24.106  11.118
55512W        W27860   6.387  20.076   0.909
55513W        W27861  42.933  12.184   1.364
55514W        W27862  13.319  35.477   4.640
55515W        W27863  11.641   6.224  12.949
55516W        W27864  44.842  26.039  13.477
55517W        W27865  18.066  16.581  11.597
55518W        W27866  18.630  25.988   4.339
55519W        W27867  28.438  26.120  14.385
55520W        W27868  42.444  43.957   4.319
55521W        W27869  34.086  32.010   9.948
55522W        W27870  27.584  33.008  11.914
55523W        W27871  39.385  12.791   3.313
55524W        W27872   2.395   2.882  12.075
55525W        W27873  20.697  27.992   2.221
55526W        W27874  35.569  39.530   1.726
55527W        W27875  32.461   4.883   3.384
55528W        W27876  26.984  26.005   2.809
55529W        W27877   4.804  19.047   3.698
55530W        W27878  20.099  29.591  12.985
55531W        W27879  31.637  10.274   0.839
55532W        W27880  25.005   2.268  14.022
55533W        W27881  23.035  22.135   1.877
55534W        W27882  36.965  10.269   0.257
55535W        W27883  18.669  14.806   3.848
55536W        W27884  44.862  22.013   1.791
55537W        W27885  11.303  23.634  11.893
55538W        W27886  38.451  15.580  13.892
55539W        W27887   6.921  42.790   4.745
55540W        W27888  43.860  24.664   0.732
55541W        W27889  32.435  33.610   1.436
55542W        W27890  12.758  19.720  13.464
55543W        W27891  17.732  22.694  12.357
55544W        W27892  17.150  19.580  11.900
55545W        W27893   9.190  30.633   0.320
55546W        W27894  16.133  14.803   0.327
55547W        W27895  42.025  14.601   3.173
55548W        W27896  32.941   6.327  13.041
55549W        W27897  22.998   8.252   4.730
55550W        W27898  32.104  26.694   2.333
55551W        W27899  21.093  27.982  11.610
55552W        W27900   5.930   3.871  10.546
55553W        W27901  12.772  33.906   0.475
55554W        W27902  40.518  10.183   2.798
55555W        W27903   8.290  33.963   4.686
55556W        W27904   5.230  12.194  14.439
55557W        W27905   2.434  10.192   5.298
55558W        W27906  42.920  13.141  10.615
55559W        W27907  23.165   1.824   1.380
55560W        W27908  30.154  15.125   3.166
55561W        W27909  39.495  10.692   1.217
55562W        W27910   9.269   6.360   4.191
55563W        W27911   6.753  16.168  13.329
55564W        W27912  35.372  37.936  14.378
55565W        W27913  20.581  38.969  12.947
55566W        W27914  16.222  13.745  13.921
55567W        W27915  34.888  32.410  12.944
55568W        W27916   2.313  28.630   1.845
55569W        W27917  10.312  27.468   3.859
55570W        W27918  31.635  41.303  13.350
55571W        W27919  35.452  23.652  13.350
55572W        W27920  23.627  21.075   1.308
55573W        W27921  41.817  20.538   0.302
55574W        W27922  42.004  12.173  10.558
55575W        W27923  17.726   5.884   2.676
55576W        W27924  14.269  28.056   4.188
55577W        W27925  38.965  44.388  10.942
55578W        W27926   3.946   4.427   3.851
55579W        W27927  27.526   0.438   3.387
55580W        W27928  38.378  22.738   3.333
55581W        W27929  18.633  44.399  14.442
55582W        W27930   1.370  32.566  11.404
55583W        W27931  30.989   2.418   1.320
55584W        W27932  16.596   9.710   0.289
55585W        W27933  13.775  31.615  14.767
55586W        W27934  35.010   8.840  13.980
55587W        W27935   5.834  25.027  12.962
55588W        W27936  12.738  41.390  14.968
55589W        W27937  16.207  29.146  13.827
55590W        W27938  10.174  14.772  10.981
55591W        W27939  38.420  22.147   4.692
55592W        W27940  23.984   1.319   1.253
55593W        W27941  11.741  42.400   0.898
55594W        W27942   8.205  39.039   0.441
55595W        W27943  44.759  10.800  12.094
55596W        W27944  44.007  12.211   2.734
55597W        W27945  37.890   5.319   3.649
55598W        W27946  14.623  39.452   2.870
55599W        W27947  21.720  36.430  13.543
55600W        W27948  41.298  37.015  13.472
55601W        W27949  19.185  44.842  14.865
55602W        W27950   1.310  36.346  14.358
55603W        W27951  44.798  28.056   4.719
55604W        W27952  21.539   7.892   0.769
55605W        W27953  39.836   5.908  12.421
55606W        W27954  37.405  24.710  12.389
55607W        W27955  25.684  28.183   3.175
55608W        W27956   2.457  42.392  11.607
55609W        W27957  18.776   6.207   2.351
55610W        W27958  38.364  39.444   4.152
55611W        W27959  36.548   8.871  12.493
55612W        W27960  13.707   3.807   0.360
55613W        W27961  11.836  36.521  11.978
55614W        W27962   3.845   6.750   4.155
55615W        W27963  21.138  20.269   1.905
55616W        W27964  19.591  22.684  11.039
55617W        W27965   7.229  15.218  14.307
55618W        W27966  29.154  40.871   0.390
55619W        W27967   8.882   1.407   0.454
55620W        W27968  31.573  12.279   0.409
55621W        W27969  31.993  24.657   2.689
55622W        W27970  27.159  15.329   4.710
55623W        W27971  11.291  35.892  13.437
55624W        W27972  23.604  26.999  12.899
55625W        W27973   3.388  15.679   0.373
55626W        W27974  23.124  22.207  13.881
55627W        W27975   3.894  16.601   3.752
55628W        W27976   2.844  14.141  10.954
55629W        W27977   8.738   9.689   2.900
55630W        W27978  31.512  10.717  13.826
55631W        W27979  18.170  30.484   3.726
55632W        W27980  40.331  23.509   0.480
55633W        W27981  17.565  14.239   5.240
55634W        W27982  44.418   0.747  12.539
55635W        W27983  13.335  42.964  10.496
55636W        W27984  12.805   3.930   1.333
55637W        W27985  10.836  31.541  13.971
55638W        W27986  11.215  32.522   3.233
55639W        W27987  33.570  18.060  12.972
55640W        W27988  16.231  43.813   0.321
55641W        W27989  44.431  21.076  13.357
55642W        W27990  21.712   8.771  10.017
55643W        W27991  20.736   0.888  14.915
55644W        W27992  32.955  16.232  13.903
55645W        W27993  37.366   5.771  14.006
55646W        W27994  19.675  33.505   3.802
55647W        W27995   1.421  16.809   4.324
55648W        W27996  27.003   2.465   3.264
55649W        W27997  16.587  30.657   0.880
55650W        W27998  37.554  30.943   3.277
55651W        W27999  22.157  24.564   3.864
55652W        W28000  14.242  25.999   1.380
55653W        W28001  10.341  20.537  10.489
55654W        W28002  30.494  20.267  13.017
55655W        W28003  34.537  23.607  14.380
55656W        W28004  20.634  14.327   3.744
55657W        W28005   4.385  12.230  12.920
55658W        W28006  30.976   6.860  11.907
55659W        W28007  27.638   5.799   1.921
55660W        W28008  40.426   0.303  12.003
55661W        W28009  13.264   3.432   0.426
55662W        W28010  33.105   0.331   2.265
55663W        W28011  25.643  23.111   0.765
55664W        W28012  17.148  23.617  12.524
55665W        W28013  20.086  24.621   1.400
55666W        W28014   8.221  39.545  12.454
55667W        W28015   3.221  44.998   4.333
55668W        W28016  26.597  11.144  14.823
55669W        W28017  20.044  40.395   3.731
55670W        W28018  34.031  39.367  14.775
55671W        W28019   0.405  44.473  12.419
55672W        W28020  12.264  15.684  12.845
55673W        W28021  12.618   3.750  11.594
55674W        W28022  41.880  14.801   2.785
55675W        W28023  11.758   2.382  10.460
55676W        W28024   0.494  20.728  10.523
55677W        W28025   9.177  20.702   3.323
55678W        W28026   9.385   9.782  14.347
55679W        W28027  12.302  39.440  12.449
55680W        W28028   0.844   7.396  10.023
55681W        W28029  44.333   5.744  10.894
55682W        W28030  27.609  34.890   1.367
55683W        W28031  14.634  41.405  13.906
55684W        W28032  19.264  31.609   3.650
55685W        W28033  28.532  38.956  13.486
55686W        W28034  21.017  27.131  12.049
55687W        W28035  25.586  30.455  12.871
55688W        W28036  44.993  30.659   2.227
55689W        W28037  20.100  41.971   1.784
55690W        W28038   4.402   2.886  14.390
55691W        W28039  19.164  44.368  12.564
55692W        W28040   6.278  41.910  10.634
55693W        W28041  43.846  16.604  14.806
55694W        W28042  37.989  16.192   4.254
55695W        W28043  21.142  41.397  11.575
55696W        W28044  22.550  26.130   3.181
55697W        W28045   9.237  23.000  12.979
55698W        W28046  36.573  21.691  12.455
55699W        W28047  24.508  28.098  11.612
55700W        W28048  19.048   6.805   3.846
55701W        W28049  24.152  16.093   3.153
55702W        W28050  42.780   6.753   1.420
55703W        W28051  14.296   4.281  13.846
55704W        W28052  32.439   0.880   2.255
55705W        W28053   7.901  15.179   1.914
55706W        W28054  26.203  19.762  13.923
55707W        W28055   7.911  35.875   5.285
55708W        W28056  20.223  44.870   1.755
55709W        W28057  30.958  16.609  10.407
55710W        W28058   4.250  31.014  10.999
55711W        W28059  22.622   9.205  12.061
55712W        W28060  34.084  37.461  10.542
55713W        W28061  42.513  35.075  11.010
55714W        W28062  41.293  38.074  13.445
55715W        W28063   1.329  23.598   1.397
55716W        W28064  16.209  43.300  13.963
55717W        W28065  30.025  12.751   3.374
55718W        W28066  41.996   5.801  14.283
55719W        W28067  42.424  22.052   2.858
55720W        W28068  32.627   2.452  14.491
55721W        W28069  26.144  17.213   0.967
55722W        W28070  38.889  26.088  14.958
55723W        W28071  14.243  34.982  10.444
55724W        W28072  27.608  22.625  14.865
55725W        W28073  42.849  44.812   2.418
55726W        W28074  17.206  31.516   1.757
55727W        W28075  38.439  18.732   3.382
55728W        W28076  11.727  19.625  14.500
55729W        W28077   8.755  36.999  13.911
55730W        W28078  26.548  25.214  10.037
55731W        W28079  41.424  33.921  10.458
55732W        W28080  43.867  12.854   0.863
55733W        W28081  36.416  10.297   9.997
55734W        W28082  35.079   3.286  10.895
55735W        W28083  36.942  37.959  14.840
55736W        W28084   2.889  15.254  11.429
55737W        W28085  37.380  39.941  10.953
55738W        W28086  28.584  22.116  14.317
55739W        W28087   2.378  14.742   1.297
55740W        W28088  25.124  11.321   0.339
55741W        W28089  31.538  29.175   1.431
55742W        W28090  36.537  27.607  11.393
55743W        W28091  34.991  17.784  13.063
55744W        W28092  17.693   0.431  11.957
55745W        W28093  12.850  12.667   3.813
55746W        W28094   6.395   6.839  14.879
55747W        W28095  43.826   3.255  13.455
55748W        W28096  22.650  10.299   1.705
55749W        W28097   1.245  31.970  11.015
55750W        W28098  12.662  43.320  11.982
55751W        W28099  25.066  43.771   2.891
55752W        W28100   6.844  32.422   1.320
55753W        W28101  34.972  38.975   1.403
55754W        W28102  36.842  42.869   1.761
55755W        W28103  15.577   8.875   4.114
55756W        W28104  34.388  37.881   3.748
55757W        W28105  28.567   4.712  13.027
55758W        W28106  32.886  30.636   2.386
55759W        W28107  31.646  35.982  14.822
55760W        W28108  35.538  10.853  13.540
55761W        W28109  24.555  37.355  12.876
55762W        W28110  43.811  11.285   3.762
55763W        W28111  23.010  16.172  11.611
55764W        W28112  32.522  38.040  14.896
55765W        W28113  43.332  41.485  11.958
55766W        W28114   4.419  36.007  13.398
55767W        W28115   2.913   2.801   4.687
55768W        W28116  41.422  30.448   4.802
55769W        W28117  34.482  29.933  11.863
55770W        W28118   2.834  10.224   2.736
55771W        W28119  17.769   8.669   3.383
55772W        W28120   7.752  22.592  11.885
55773W        W28121  33.115  37.429   5.686
55774W        W28122  31.509  24.185  14.934
55775W        W28123  16.200   2.866  12.419
55776W        W28124  40.390  32.580   3.376
55777W        W28125  24.150  41.316   3.214
55778W        W28126   9.792  33.623   1.705
55779W        W28127  41.358  31.596   1.815
55780W        W28128  31.939  21.112   5.318
55781W        W28129   0.930  33.906   0.842
55782W        W28130  37.463  19.116  11.538
55783W        W28131  37.399  32.118  11.073
55784W        W28132  36.518   6.335  14.404
55785W        W28133   8.890  35.005  12.380
55786W        W28134  17.147  23.021   1.379
55787W        W28135  40.351  29.669  11.447
55788W        W28136  32.030   6.183  10.013
55789W        W28137  41.882  11.836   4.311
55790W        W28138   8.326  37.370   2.401
55791W        W28139  43.376  27.092   1.885
55792W        W28140  21.602  16.741  11.605
55793W        W28141  39.934  42.987  13.532
55794W        W28142   6.271   7.178  14.810
55795W        W28143  12.226  30.583   2.720
55796W        W28144  29.521  20.714   3.369
55797W        W28145  28.507   1.976  11.384
55798W        W28146  44.462  25.532  14.454
55799W        W28147  12.230  38.474   3.650
55800W        W28148  26.464  28.988   2.415
55801W        W28149  11.162  36.395   1.213
55802W        W28150  17.603  39.395  12.025
55803W        W28151  18.663   3.895   1.387
55804W        W28152   6.423  42.864   3.166
55805W        W28153  40.985  34.041   0.955
55806W        W28154   7.235   7.247   2.243
55807W        W28155  20.114  20.651  12.341
55808W        W28156   3.813  38.902  10.592
55809W        W28157  12.738  24.974  12.504
55810W        W28158   0.426   4.222  11.975
55811W        W28159  20.715  32.456  14.933
55812W        W28160  14.752  41.532   2.253
55813W        W28161  16.750  23.176  10.909
55814W        W28162  18.724  33.928  11.408
55815W        W28163  44.402  33.565   0.476
55816W        W28164  11.338  26.995  13.326
55817W        W28165  24.578  22.218   2.415
55818W        W28166   9.165  35.602  14.863
55819W        W28167   4.222  24.542   0.732
55820W        W28168  38.042  24.031   3.262
55821W        W28169  44.305   9.874   4.681
55822W        W28170  38.425   2.752  11.949
55823W        W28171  19.173   2.890   1.300
55824W        W28172  36.092  26.703  12.034
55825W        W28173  27.657  44.997  13.908
55826W        W28174  23.025  29.043  12.994
55827W        W28175  39.001  18.256  11.470
55828W        W28176  30.565  37.532   1.916
55829W        W28177  24.016  11.841   1.421
55830W        W28178  31.965  11.127   0.416
55831W        W28179  18.749  18.672  10.475
55832W        W28180   3.894  11.835  11.999
55833W        W28181  27.146  43.281  12.023
55834W        W28182  29.514  27.001  13.512
55835W        W28183  43.852   8.347   2.360
55836W        W28184  38.909  13.289  10.977
55837W        W28185  43.915  15.323  11.394
55838W        W28186   3.790   8.706  11.449
55839W        W28187  44.784   6.380  11.859
55840W        W28188   4.271  14.204  12.840
55841W        W28189  18.622  18.587   3.331
55842W        W28190   4.329  34.063   3.313
55843W        W28191   4.398  40.045   4.336
55844W        W28192  24.621  40.043  10.514
55845W        W28193  15.136   4.919   2.719
55846W        W28194  23.999  13.737   0.284
55847W        W28195  22.130  27.639   3.638
55848W        W28196  21.594  17.214   1.306
55849W        W28197   0.838  11.803   1.722
55850W        W28198  27.575   9.213  12.455
55851W        W28199  37.886  23.009   3.272
55852W        W28200  34.581  36.411  14.480
55853W        W28201  14.321  23.578   0.918
55854W        W28202  37.853  27.518   0.833
55855W        W28203  32.419  16.630   1.305
55856W        W28204  21.564  10.240  14.370
55857W        W28205  41.041  18.063   1.714
55858W        W28206  16.641  22.548  11.128
55859W        W28207  13.266  21.205   4.150
55860W        W28208   5.722  38.457  12.516
55861W        W28209  15.686  25.468   3.699
55862W        W28210  12.330  15.772   3.827
55863W        W28211   7.355  30.545  13.355
55864W        W28212  18.071  37.447   1.282
55865W        W28213  38.422  17.290   3.858
55866W        W28214  17.563  39.904   3.636
55867W        W28215  41.481  15.089   0.816
55868W        W28216  42.980  16.162   4.139
55869W        W28217  40.333  41.508  13.345
55870W        W28218  14.313  30.995   1.326
55871W        W28219  22.504  38.547   1.880
55872W        W28220  25.477  34.027   4.676
55873W        W28221  32.120   3.244   3.666
55874W        W28222   2.284   4.769  13.389
55875W        W28223  34.467   6.912  14.961
55876W        W28224  35.879  43.325  14.506
55877W        W28225  15.322  10.701  13.828
55878W        W28226  14.315  39.849   4.341
55879W        W28227  38.908   2.903   5.179
55880W        W28228  23.226  38.844  11.969
55881W        W28229  21.567  23.674  13.915
55882W        W28230   9.777  13.294  12.824
55883W        W28231  12.181  29.466   3.248
55884W        W28232  28.999  44.878  13.041
55885W        W28233  17.652  32.905   4.188
55886W        W28234  29.964  40.379  12.417
55887W        W28235  42.918  36.896   3.296
55888W        W28236  22.116   6.735   3.869
55889W        W28237  41.478   9.281  11.022
55890W        W28238  25.648  15.156   4.208
55891W        W28239  38.386  24.029  12.008
55892W        W28240  34.419  28.651  13.531
55893W        W28241  19.754  41.955   0.420
55894W        W28242  12.761   3.241  14.406
55895W        W28243  20.033  23.158   4.681
55896W        W28244  19.103  14.727   3.667
55897W        W28245  26.622   8.194  14.328
55898W        W28246  19.184   1.891  14.439
55899W        W28247  29.957  14.143  14.336
55900W        W28248  43.339  16.756  13.807
55901W        W28249  35.447  21.520   0.844
55902W        W28250  25.611   9.756   9.964
55903W        W28251   4.862   9.315   2.413
55904W        W28252  14.253   1.273   2.228
55905W        W28253  33.506  30.120  12.466
55906W        W28254  31.975  31.035  13.874
55907W        W28255  21.243  44.988   0.416
55908W        W28256  35.417  42.778  12.578
55909W        W28257  31.434  44.492  11.974
55910W        W28258  40.917  30.587   2.720
55911W        W28259   7.334  38.869   0.769
55912W        W28260   5.811   0.895   4.838
55913W        W28261  17.759  35.439   2.826
55914W        W28262   5.737  36.443  12.977
55915W        W28263   2.428   9.200   4.351
55916W        W28264  34.027   1.331  12.454
55917W        W28265  23.237   2.269   2.399
55918W        W28266  10.863  32.126   4.118
55919W        W28267  29.464  44.807   0.827
55920W        W28268  22.007  23.504   3.331
55921W        W28269  29.442  37.398  12.352
55922W        W28270   6.306  21.114   1.429
55923W        W28271  35.974  29.962  11.570
55924W        W28272  22.069   5.868  13.500
55925W        W28273  14.168  21.658  12.523
55926W        W28274  43.504  20.742   1.330
55927W        W28275   5.744  10.868   1.292
55928W        W28276   8.183  38.521   4.182
55929W        W28277  38.484  41.889   4.195
55930W        W28278  32.586  19.614   1.425
55931W        W28279  37.888   7.772   1.793
55932W        W28280  39.826   1.748  14.337
55933W        W28281  27.653   1.791  13.884
55934W        W28282   1.860   6.290   3.634
55935W        W28283  39.974  40.489  11.100
55936W        W28284  43.005  14.199  11.129
55937W        W28285  37.568  43.789   3.678
55938W        W28286  31.936  27.683  12.378
55939W        W28287  34.948   1.750  14.954
55940W        W28288  14.783  40.922  14.798
55941W        W28289  25.692  32.494   3.708
55942W        W28290  41.412  40.894   4.598
55943W        W28291  27.969  42.488   3.740
55944W        W28292  41.020  20.665  14.948
55945W        W28293   1.838  24.066  13.433
55946W        W28294   5.266  15.248   3.183
55947W        W28295  38.881  27.014   3.697
55948W        W28296  13.821  22.658  13.351
55949W        W28297  43.845   4.321   3.265
55950W        W28298  31.643  22.731  11.409
55951W        W28299  42.934   6.866  10.474
55952W        W28300   4.752  39.353  13.967
55953W        W28301  38.452  32.579  13.809
55954W        W28302  27.005  22.062  11.075
55955W        W28303  21.710  29.035   5.292
55956W        W28304  22.243   9.719  10.997
55957W        W28305  37.394  40.479   2.836
55958W        W28306   2.342  32.564  14.809
55959W        W28307  23.636  17.638   1.931
55960W        W28308  21.079  33.442   4.612
55961W        W28309  20.156  24.691   1.917
55962W        W28310  35.861  43.277  14.822
55963W        W28311  13.334   4.883   0.959
55964W        W28312  21.717   2.333  11.575
55965W        W28313  34.390   2.269  11.438
55966W        W28314  21.536  33.408  12.375
55967W        W28315  10.648   6.367   1.347
55968W        W28316   2.812  37.985  14.463
55969W        W28317   5.281  15.816  11.858
55970W        W28318  10.150  21.083   0.355
55971W        W28319  27.480  10.836  13.357
55972W        W28320  26.990  32.464   4.809
55973W        W28321   4.278  26.974   0.763
55974W        W28322  15.717  18.191  14.930
55975W        W28323  34.505   4.336   4.806
55976W        W28324   2.958  25.981  11.029
55977W        W28325   4.927  10.201   3.654
55978W        W28326  32.499  10.273   2.271
55979W        W28327  15.137  12.703   3.660
55980W        W28328  28.124   1.748  12.342
55981W        W28329  13.763  28.124   4.657
55982W        W28330  39.439  44.882   3.632
55983W        W28331   4.780   2.288  14.402
55984W        W28332  12.737   4.717  12.994
55985W        W28333   8.341  25.607   1.789
55986W        W28334  10.148   2.897  11.046
55987W        W28335  23.549  36.978   1.871
55988W        W28336  29.669   1.788   0.261
55989W        W28337  10.140  31.532  14.915
55990W        W28338  35.488  23.148   9.568
55991W        W28339  10.236   9.304   3.772
55992W        W28340  32.416  22.700  12.432
55993W        W28341  27.502   3.952  11.578
55994W        W28342  11.247  33.404   9.966
55995W        W28343  32.099  23.053   3.712
55996W        W28344  39.488  11.215   2.276
55997W        W28345  38.435  40.808  10.583
55998W        W28346   5.422  20.117   1.833
55999W        W28347   9.730  21.636   0.430
56000W        W28348  15.718  43.929   4.211
56001W        W28349  12.694   5.820   4.738
56002W        W28350  27.948  13.222   0.375
56003W        W28351  21.110  36.588   0.786
56004W        W28352  14.741  30.976  12.410
56005W        W28353  40.505  37.894   1.307
56006W        W28354  44.400   2.277  11.128
56007W        W28355  34.581  39.517   3.370
56008W        W28356   6.895  24.586   1.794
56009W        W28357  38.535  25.037   1.380
56010W        W28358  40.819   3.824   0.339
56011W        W28359   5.431  16.108   3.292
56012W        W28360  19.780  11.301   2.748
56013W        W28361  29.629   7.299   0.871
56014W        W28362   2.373  30.953   3.700
56015W        W28363  33.936  36.464   3.204
56016W        W28364  23.557  15.132   0.918
56017W        W28365  20.731  34.938  12.909
56018W        W28366  32.580  35.409  13.963
56019W        W28367  26.136  29.060   4.656
56020W        W28368  26.503  44.432   3.722
56021W        W28369  24.117  44.347  12.045
56022W        W28370  13.767   8.161  11.577
56023W        W28371  38.423  31.076  11.030
56024W        W28372   5.835  17.665  14.876
56025W        W28373  24.535  43.853   1.832
56026W        W28374  13.194   3.826   1.798
56027W        W28375   4.912  42.977   2.304
56028W        W28376   1.947  19.627  11.013
56029W        W28377  36.892  11.814  10.644
56030W        W28378   5.780  35.996  13.061
56031W        W28379  16.689  23.173  14.916
56032W        W28380  42.833   7.880   3.308
56033W        W28381   4.258   9.669   4.266
56034W        W28382  40.931  36.351  13.804
56035W        W28383  14.162  28.160   0.749
56036W        W28384  13.196  31.462  12.564
56037W        W28385   9.758  11.778  11.920
56038W        W28386   1.792  12.642  13.426
56039W        W28387  24.188  35.915  12.882
56040W        W28388  22.641  10.700   3.819
56041W        W28389  20.067  36.877   1.726
56042W        W28390  35.062  16.796   0.861
56043W        W28391   1.388  37.338  14.387
56044W        W28392   0.897   9.178   3.377
56045W        W28393  11.237   4.404   4.313
56046W        W28394   4.225  30.936   4.831
56047W        W28395   0.434  16.726   3.353
56048W        W28396  14.674  12.739  13.320
56049W        W28397  27.688  28.160   2.721
56050W        W28398  24.626  42.991   4.733
56051W        W28399  32.533  40.353  11.498
56052W        W28400  34.398  39.484  14.965
56053W        W28401   2.433  38.496   0.332
56054W        W28402   9.812  42.012   0.305
56055W        W28403  32.904  27.184  12.487
56056W        W28404   0.808  31.468  12.426
56057W        W28405  31.561  12.752   2.727
56058W        W28406  37.401  34.873   4.325
56059W        W28407  19.680   5.318  11.380
56060W        W28408  10.232  26.032   0.772
56061W        W28409  20.175  36.475  12.377
56062W        W28410  43.846   5.313  13.412
56063W        W28411   2.400  21.729  14.785
56064W        W28412  41.911  43.780   1.330
56065W        W28413   0.863  16.292  10.956
56066W        W28414  36.913   3.257  11.602
56067W        W28415  18.586   8.261   2.887
56068W        W28416  40.886  31.543   2.722
56069W        W28417   6.912   9.272   4.820
56070W        W28418  10.184  27.980  10.564
56071W        W28419  35.537  32.912  12.090
56072W        W28420  21.192  31.086  12.488
56073W        W28421  39.362  15.292  13.356
56074W        W28422  22.534  13.200   0.328
56075W        W28423  17.642   1.367   4.116
56076W        W28424  32.024  33.452   0.837
56077W        W28425  10.254  23.221  14.027
56078W        W28426   2.768  42.028  14.785
56079W        W28427  12.207   5.911  13.856
56080W        W28428  44.306  33.934  11.076
56081W        W28429   7.204  29.140  12.536
56082W        W28430   8.820  33.059   1.725
56083W        W28431  27.116  39.883   2.340
56084W        W28432  36.473  22.716   3.383
56085W        W28433  36.388  36.563   3.696
56086W        W28434  35.932  15.176   2.879
56087W        W28435   5.789  15.191  10.632
56088W        W28436  19.622   6.736   4.227
56089W        W28437  12.788  43.917  14.839
56090W        W28438  36.427  15.784   4.312
56091W        W28439  37.055  36.575   0.925
56092W        W28440  25.628  35.509   0.316
56093W        W28441   9.210  10.252   4.121
56094W        W28442  20.696  36.926   3.279
56095W        W28443  10.711   6.885   1.370
56096W        W28444  43.376  33.476  11.886
56097W        W28445  20.637  16.681  11.898
56098W        W28446  31.075  19.235  12.001
56099W        W28447  38.929  19.741   3.244
56100W        W28448  15.615  34.416  11.555
56101W        W28449  15.788   1.733  13.941
56102W        W28450  31.961  21.710  12.003
56103W        W28451  32.498  41.885  12.082
56104W        W28452   5.766  27.003   0.409
56105W        W28453  18.554  30.156   0.863
56106W        W28454   7.289  43.892  12.052
56107W        W28455  10.212  15.777   3.220
56108W        W28456   8.719  20.186  11.559
56109W        W28457  22.190  23.190   1.392
56110W        W28458  25.709  20.197   4.735
56111W        W28459  11.332   5.254   1.255
56112W        W28460  36.532  34.892   1.311
56113W        W28461  33.558  38.329   2.362
56114W        W28462   7.295   3.408  12.481
56115W        W28463  29.002  17.714  14.382
56116W        W28464  16.240  27.035   3.839
56117W        W28465   5.927  32.588  12.837
56118W        W28466  40.871  36.360   2.724
56119W        W28467  41.841  25.530  11.390
56120W        W28468  12.312  30.125   2.833
56121W        W28469   8.269  10.200  12.471
56122W        W28470  15.120  14.619  14.867
56123W        W28471  35.382  23.147   3.639
56124W        W28472  29.484  10.822   4.174
56125W        W28473   9.328  42.834  12.463
56126W        W28474  12.262  21.035  14.814
56127W        W28475   0.308  43.879  12.992
56128W        W28476  44.840   5.904   3.773
56129W        W28477  12.779  20.087  11.917
56130W        W28478  19.160  39.421  14.433
56131W        W28479  20.737  24.715   1.410
56132W        W28480   6.358   3.713  11.536
56133W        W28481  16.802  29.563   0.252
56134W        W28482  20.135  16.286  13.813
56135W        W28483  26.964  33.462   2.734
56136W        W28484  39.024   2.836   1.840
56137W        W28485  27.665  15.287   4.813
56138W        W28486  11.216  38.845  11.433
56139W        W28487  12.276  20.604  10.532
56140W        W28488   9.832   3.823  11.932
56141W        W28489  36.445   9.350  12.024
56142W        W28490  43.820  10.142   0.893
56143W        W28491  31.013  34.464   2.743
56144W        W28492  24.571  29.488   0.468
56145W        W28493  19.689  32.591   3.385
56146W        W28494   2.738  28.643  13.398
56147W        W28495  21.682  14.713   2.705
56148W        W28496  25.676  15.196   3.380
56149W        W28497  16.202  40.407  12.849
56150W        W28498  41.963   1.962   0.726
56151W        W28499  36.075  31.905  10.009
56152W        W28500   4.372  41.015   4.180
56153W        W28501   2.414  28.132   5.144
56154W        W28502  41.335   0.432  10.976
56155W        W28503   7.790   8.766  13.512
56156W        W28504  17.111  26.982  13.013
56157W        W28505  28.077  33.460   0.873
56158W        W28506  17.208   7.225   1.354
56159W        W28507  17.264  13.342  14.841
56160W        W28508  30.481  43.425  11.911
56161W        W28509   9.871  28.613  12.491
56162W        W28510   4.886  26.128   3.291
56163W        W28511  35.007  20.599   1.865
56164W        W28512  25.661  14.793  10.618
56165W        W28513  12.238  11.768  14.848
56166W        W28514   8.380  22.025  14.907
56167W        W28515  41.396  13.310  13.335
56168W        W28516   2.817   6.286   0.323
56169W        W28517  40.524   8.297   0.843
56170W        W28518  25.639  17.571  12.407
56171W        W28519  22.093  12.334   4.629
56172W        W28520  40.870   3.872   4.260
56173W        W28521   6.415  40.972   2.833
56174W        W28522   8.893  20.166   5.585
56175W        W28523  22.628  19.146   3.846
56176W        W28524   1.435   1.253  12.834
56177W        W28525  12.855  16.654  11.522
56178W        W28526  43.513  41.339   4.621
56179W        W28527  35.436  35.853  13.018
56180W        W28528  11.358  32.021   5.098
56181W        W28529  41.396  38.977   4.738
56182W        W28530  11.778  29.923   2.217
56183W        W28531  34.079  35.581   0.455
56184W        W28532  16.128  35.577   4.808
56185W        W28533  12.329  39.966  12.400
56186W        W28534  36.414  19.101  10.595
56187W        W28535   2.402  41.341  12.351
56188W        W28536  10.877  17.148  14.893
56189W        W28537   1.294  31.432   3.229
56190W        W28538  14.661  30.555   1.777
56191W        W28539  34.001  29.658   3.851
56192W        W28540  18.622  32.092   5.570
56193W        W28541  19.723  21.031  10.482
56194W        W28542  42.933  34.078  12.879
56195W        W28543  38.478  36.013   4.257
56196W        W28544  32.534  43.837   3.239
56197W        W28545   4.369   4.913   1.430
56198W        W28546   2.835  15.792  11.905
56199W        W28547  42.497  12.634   0.751
56200W        W28548  26.010  35.033  11.866
56201W        W28549  15.280  17.782  12.041
56202W        W28550  33.524  20.112  12.451
56203W        W28551  41.394  24.479  14.908
56204W        W28552  33.502  30.074  13.044
56205W        W28553   5.884  23.614  14.328
56206W        W28554  35.563  40.878   1.748
56207W        W28555   7.417  13.819  14.968
56208W        W28556   8.840  23.567   1.378
56209W        W28557  12.116   9.817  10.449
56210W        W28558  29.564  32.946   2.416
56211W        W28559  32.550   6.799   1.786
56212W        W28560  13.234  26.535  11.440
56213W        W28561  25.998  12.748   0.811
56214W        W28562  39.529  19.572   4.117
56215W        W28563  44.756   9.657  14.293
56216W        W28564  36.362  17.557   0.881
56217W        W28565  33.453  18.119   9.961
56218W        W28566  43.806  26.507   0.330
56219W        W28567   0.479  14.167  11.046
56220W        W28568   2.236  35.523  11.576
56221W        W28569  40.924  11.682  13.467
56222W        W28570  16.141  27.013   0.859
56223W        W28571  15.788  17.718   0.737
56224W        W28572   6.239   3.391   0.262
56225W        W28573   3.238  32.581  10.460
56226W        W28574  17.731  29.502   3.796
56227W        W28575  31.152   4.354   1.718
56228W        W28576  40.338  36.992   1.821
56229W        W28577  11.660  40.951   2.215
56230W        W28578  39.437   0.893  12.346
56231W        W28579  37.576  18.242  14.507
56232W        W28580  37.037   3.235   2.843
56233W        W28581  14.645   8.837   0.733
56234W        W28582  10.785  19.644  10.144
56235W        W28583  10.838  28.172   0.348
56236W        W28584  16.106  39.961   2.244
56237W        W28585  36.464  20.581   2.703
56238W        W28586   9.393  16.267   4.664
56239W        W28587   6.804  20.662   0.401
56240W        W28588  23.510  44.273   4.823
56241W        W28589  30.992   5.844  11.995
56242W        W28590  22.095  37.488   4.705
56243W        W28591  18.708  22.068   1.710
56244W        W28592   3.944  38.034  11.901
56245W        W28593   5.303  25.659   4.205
56246W        W28594  10.788  41.453   1.239
56247W        W28595   7.232  25.644   4.799
56248W        W28596  26.049  39.929   4.319
56249W        W28597   9.721  44.812   4.168
56250W        W28598   7.871  22.112   9.637
56251W        W28599   9.206  38.476  13.978
56252W        W28600  19.717  25.137  13.981
56253W        W28601  21.692  29.161  12.942
56254W        W28602   0.416  11.688   0.365
56255W        W28603  14.624  10.352   4.791
56256W        W28604  10.188  27.107  12.080
56257W        W28605  25.965  37.418   2.254
56258W        W28606  29.424  29.545   3.730
56259W        W28607  39.055  17.621   2.851
56260W        W28608  35.032  41.903  13.890
56261W        W28609   4.221  24.554  11.969
56262W        W28610  32.464   9.879  10.420
56263W        W28611  15.276   3.906  11.118
56264W        W28612  15.262  37.550   1.294
56265W        W28613  33.014   1.756   0.834
56266W        W28614   5.209  18.265  10.973
56267W        W28615  42.426  25.603  12.406
56268W        W28616  24.618   5.329   1.379
56269W        W28617  37.432  39.883  10.445
56270W        W28618   4.844  16.283   0.803
56271W        W28619  33.110   8.811   0.868
56272W        W28620   3.798  29.063   1.827
56273W        W28621  13.609  41.485   4.127
56274W        W28622  17.292  43.416   4.733
56275W        W28623   6.291  32.511   2.278
56276W        W28624  33.520  40.327  11.485
56277W        W28625  44.990  27.595  12.521
56278W        W28626   9.737  11.291  12.351
56279W        W28627  35.953   7.850  14.275
56280W        W28628  44.275   8.291  13.983
56281W        W28629   2.808  34.453  11.869
56282W        W28630  43.397  22.101  14.302
56283W        W28631  23.718  37.944   0.834
56284W        W28632  32.068   5.392  13.313
56285W        W28633  22.196   7.351   4.352
56286W        W28634  28.004   6.366   0.764
56287W        W28635  22.713  35.380   1.415
56288W        W28636   1.763  29.486  13.792
56289W        W28637  17.125  21.654  13.989
56290W        W28638   6.289   8.342  11.590
56291W        W28639  40.914  19.768  13.950
56292W        W28640   7.729  19.581   3.229
56293W        W28641   2.892  34.594  10.437
56294W        W28642  19.128  44.000   2.282
56295W        W28643  17.290  41.987   1.731
56296W        W28644  33.426  19.726   4.627
56297W        W28645  28.611   3.391   4.714
56298W        W28646  21.690   2.406  14.933
56299W        W28647  19.193  37.492  11.905
56300W        W28648  44.949  35.921   3.830
56301W        W28649  11.308  24.692  14.020
56302W        W28650   2.929  19.080  13.898
56303W        W28651  14.218  34.497  10.515
56304W        W28652   0.281   8.823  10.572
56305W        W28653  12.678   8.676  14.324
56306W        W28654  16.075  27.037   1.240
56307W        W28655   5.329   0.871   1.708
56308W        W28656  37.464  22.133  12.038
56309W        W28657  34.062  36.353   1.814
56310W        W28658  29.471  31.967  13.374
56311W        W28659  14.830  36.874  13.398
56312W        W28660  23.086  11.848   3.726
56313W        W28661  43.935  35.485  14.835
56314W        W28662  20.057  17.086   2.232
56315W        W28663  21.256  30.548  13.442
56316W        W28664  13.809  43.885   1.709
56317W        W28665  25.547  42.026   3.198
56318W        W28666   4.738  29.443  10.949
56319W        W28667  22.600  14.255  10.001
56320W        W28668   1.893  16.679   4.202
56321W        W28669  27.537   8.773   0.899
56322W        W28670   1.411  15.811  10.528
56323W        W28671  35.082   1.294   3.333
56324W        W28672  19.583  12.807  10.411
56325W        W28673  20.209   9.880   3.729
56326W        W28674  34.573  36.974   2.287
56327W        W28675  19.747  37.441  13.858
56328W        W28676   5.755  27.495  10.471
56329W        W28677  14.797  36.453  10.551
56330W        W28678  12.709  38.333   4.769
56331W        W28679  19.763  27.988  14.822
56332W        W28680   4.285   2.313   0.305
56333W        W28681  16.708   9.715  10.978
56334W        W28682  22.060  39.516  14.332
56335W        W28683  38.828  13.635  13.954
56336W        W28684  39.918  26.683   4.134
56337W        W28685  38.419  38.405   0.799
56338W        W28686  11.836   0.796   5.309
56339W        W28687  41.957  31.965  14.511
56340W        W28688  27.570  32.546   0.818
56341W        W28689   3.410  38.051  12.506
56342W        W28690   2.727  11.291  10.556
56343W        W28691  41.932  18.127  10.609
56344W        W28692  39.060  42.284   1.749
56345W        W28693  39.818  14.758   1.383
56346W        W28694   7.868  22.569  10.969
56347W        W28695  16.177  43.388   3.773
56348W        W28696  37.025  29.523  13.460
56349W        W28697   6.746  15.741  13.490
56350W        W28698   4.305  33.920  12.866
56351W        W28699  42.472  32.130  14.490
56352W        W28700  44.369  18.652  10.635
56353W        W28701  41.411  37.489   1.925
56354W        W28702  20.110  12.669   3.368
56355W        W28703  32.612  14.742   3.179
56356W        W28704  26.033  38.507   3.809
56357W        W28705   6.804  25.200  12.869
56358W        W28706   9.696  35.957   2.777
56359W        W28707  32.139  31.616   3.341
56360W        W28708  26.982   1.427  12.523
56361W        W28709  13.670   1.971   0.836
56362W        W28710  32.026   9.755   1.830
56363W        W28711  34.541  10.228   1.398
56364W        W28712   4.908  38.568  14.316
56365W        W28713  37.538   3.719  10.596
56366W        W28714   7.387  44.262   2.699
56367W        W28715  19.286  28.504  12.968
56368W        W28716  24.187  41.339  13.448
56369W        W28717  10.754   6.401   0.284
56370W        W28718   3.375  43.327   1.835
56371W        W28719  26.567   4.403  14.445
56372W        W28720  14.157  39.450   1.694
56373W        W28721  23.593  44.462   2.300
56374W        W28722  33.101   5.338   3.384
56375W        W28723  40.420   0.475  12.505
56376W        W28724  22.052  32.454   1.333
56377W        W28725  14.266  26.690  11.531
56378W        W28726  41.912  20.595   2.403
56379W        W28727  41.815  32.437  10.532
56380W        W28728  43.907  27.036  14.030
56381W        W28729  26.490  41.326  12.916
56382W        W28730   4.275   4.326  11.586
56383W        W28731  41.957  21.102  12.352
56384W        W28732  28.479  22.132   4.309
56385W        W28733   2.235   8.773  14.328
56386W        W28734   6.749   9.854   1.925
56387W        W28735  32.917  17.220   2.695
56388W        W28736  30.495  26.209  13.519
56389W        W28737  13.815  40.874  13.920
56390W        W28738   1.796  11.265   2.890
56391W        W28739  31.404  23.673  12.016
56392W        W28740  39.983   7.892  13.482
56393W        W28741  25.536   3.219  11.477
56394W        W28742  12.835  23.690   4.679
56395W        W28743  22.179   1.421  13.063
56396W        W28744  16.189  13.734   5.113
56397W        W28745  24.624  27.625  10.897
56398W        W28746  18.291   9.677  12.883
56399W        W28747  11.632  14.241   3.783
56400W        W28748  10.297  35.417  13.482
56401W        W28749   1.747  21.201   2.811
56402W        W28750  17.685  23.662   4.752
56403W        W28751   7.313   9.797  10.903
56404W        W28752  16.763  16.748   3.843
56405W        W28753  22.725  18.061   4.616
56406W        W28754  33.574  13.304   0.374
56407W        W28755  36.854  19.148  13.863
56408W        W28756  24.648   0.925  12.973
56409W        W28757  27.976  42.951  10.087
56410W        W28758  13.161  20.093  13.388
56411W        W28759  22.110  44.340   1.782
56412W        W28760  11.304  24.113   4.168
56413W        W28761  21.107  15.225   0.961
56414W        W28762   5.274  42.403  11.002
56415W        W28763  25.709  32.423   1.213
56416W        W28764  31.607   8.844   2.885
56417W        W28765  15.666  18.629   5.240
56418W        W28766  19.659  24.571   0.848
56419W        W28767   0.804   5.745  14.788
56420W        W28768   3.346  12.227   4.815
56421W        W28769  31.974  31.021  12.947
56422W        W28770  43.790   1.241  10.589
56423W        W28771  18.111   2.835  10.451
56424W        W28772  15.235  18.716  13.951
56425W        W28773  10.213  41.364  14.790
56426W        W28774   3.825  16.660   4.650
56427W        W28775   9.711  18.612   2.325
56428W        W28776  26.191   5.766  12.048
56429W        W28777  37.950  35.056  10.898
56430W        W28778  30.514  34.951  11.953
56431W        W28779   3.249  29.159  14.376
56432W        W28780  15.249  31.527   4.774
56433W        W28781   9.823  25.123   2.815
56434W        W28782  29.137  30.103  12.549
56435W        W28783  36.038  27.510  13.339
56436W        W28784   6.197  35.006   5.122
56437W        W28785   4.804   4.207   4.628
56438W        W28786   3.400  15.694   4.246
56439W        W28787  25.514  33.903   3.783
56440W        W28788  26.521   7.274   4.764
56441W        W28789  21.257   8.757   4.644
56442W        W28790  13.241  16.149  12.360
56443W        W28791  18.231   2.307  13.486
56444W        W28792  28.182  37.005   2.256
56445W        W28793  43.361  18.167   4.315
56446W        W28794  43.850  19.068  12.019
56447W        W28795  11.248   6.921  11.096
56448W        W28796  39.314   5.864  10.036
56449W        W28797  38.372  26.079   2.392
56450W        W28798  42.516  25.664   2.391
56451W        W28799   8.308   8.166   1.297
56452W        W28800  27.590  28.517  14.315
56453W        W28801   4.920  19.210   0.742
56454W        W28802  39.922   7.900   1.863
56455W        W28803  27.114  30.036   3.631
56456W        W28804  13.219  31.520   2.284
56457W        W28805  11.795  42.820  13.903
56458W        W28806   8.689  18.560  13.023
56459W        W28807  26.679  21.082   2.721
56460W        W28808  14.662   7.267  14.276
56461W        W28809   6.200  24.715  12.457
56462W        W28810  29.572  19.753   2.719
56463W        W28811  37.566  39.402  11.108
56464W        W28812  38.370  30.593   1.384
56465W        W28813  25.560  10.347  11.521
56466W        W28814  38.542  23.075   4.837
56467W        W28815  44.407  11.316  10.914
56468W        W28816  29.064  17.138  10.601
56469W        W28817  21.661  40.529   9.921
56470W        W28818  13.724  43.427  12.933
56471W        W28819  39.444  40.537  11.579
56472W        W28820  33.105   4.852  10.468
56473W        W28821   7.276  13.722  10.893
56474W        W28822  17.113  30.000   1.724
56475W        W28823  30.612   6.264   4.598
56476W        W28824  18.592  18.662  13.968
56477W        W28825  22.745  11.662  10.497
56478W        W28826  26.990  30.913   0.802
56479W        W28827  10.163  25.148   2.903
56480W        W28828  28.071  33.880   5.106
56481W        W28829   6.345   1.322  11.523
56482W        W28830  35.867  40.503  12.955
56483W        W28831  35.066   8.261   3.799
56484W        W28832   2.765  43.325  14.380
56485W        W28833  37.498  15.688   2.848
56486W        W28834  35.481  26.534   0.472
56487W        W28835  17.799  14.831  14.934
56488W        W28836  30.063  14.776   4.725
56489W        W28837  21.547  42.282   0.253
56490W        W28838  11.318   3.755  13.043
56491W        W28839  33.454   3.850   3.336
56492W        W28840  33.487   4.899  12.484
56493W        W28841  13.128  30.972  14.965
56494W        W28842   2.825  33.896  14.900
56495W        W28843  12.356  21.562   4.804
56496W        W28844  28.003  37.468   1.325
56497W        W28845  25.170   6.317   4.186
56498W        W28846  14.313  27.079  13.791
56499W        W28847  37.900  15.578   3.728
56500W        W28848   8.848  10.833  12.873
56501W        W28849   7.312  38.355  11.609
56502W        W28850  26.951   9.256   4.644
56503W        W28851  28.526  27.668   0.920
56504W        W28852  17.289  22.554   3.672
56505W        W28853  15.774  25.060   2.894
56506W        W28854  36.587  14.235  13.368
56507W        W28855   2.900   1.379   0.444
56508W        W28856   5.354  12.699  14.921
56509W        W28857  42.314  12.186   0.772
56510W        W28858   9.753   0.902   2.312
56511W        W28859  12.849  18.268   2.414
56512W        W28860  34.523  22.181  12.900
56513W        W28861  39.940  29.130  10.598
56514W        W28862  38.345   2.304  10.624
56515W        W28863  10.718  20.136   3.765
56516W        W28864   4.816  39.013  10.590
56517W        W28865  15.614  32.998  12.036
56518W        W28866  19.694  22.158  10.959
56519W        W28867  16.574  20.232  13.370
56520W        W28868  27.181   8.383   4.757
56521W        W28869  26.552   0.866   3.840
56522W        W28870  11.362   6.766   5.284
56523W        W28871  18.775   1.298  11.501
56524W        W28872  30.568   3.917  11.579
56525W        W28873  17.223   6.915   4.766
56526W        W28874   3.326  30.962   0.324
56527W        W28875   8.804  33.537  13.319
56528W        W28876  23.625  20.674   3.857
56529W        W28877   6.364  28.447  11.987
56530W        W28878  13.182  29.076  11.004
56531W        W28879   2.918  43.792   0.742
56532W        W28880  15.306  11.807   4.260
56533W        W28881  18.289  38.970  11.001
56534W        W28882  28.524  12.132   1.868
56535W        W28883  24.631  12.659   3.817
56536W        W28884  24.121  26.513  12.373
56537W        W28885  25.688  19.659   2.360
56538W        W28886  32.040   7.901  11.379
56539W        W28887  26.020  25.560   2.867
56540W        W28888  21.567   4.749   4.146
56541W        W28889  32.562   6.383  10.945
56542W        W28890  13.658  43.450  14.025
56543W        W28891  32.099  21.664   1.394
56544W        W28892  41.948  43.500  11.603
56545W        W28893  40.369  13.228   0.855
56546W        W28894   9.184  15.121  11.015
56547W        W28895  33.462   9.817  10.409
56548W        W28896  22.009  21.145  14.013
56549W        W28897  23.189  41.294  11.441
56550W        W28898  34.529   4.715  11.459
56551W        W28899  11.260  43.906   3.247
56552W        W28900   1.956  26.166   0.841
56553W        W28901  37.017   1.386  14.503
56554W        W28902  35.524  18.156  13.015
56555W        W28903  38.889  28.945   3.838
56556W        W28904   7.887  40.935  11.896
56557W        W28905  42.995   4.706  13.873
56558W        W28906  21.236  15.798  10.930
56559W        W28907  19.049  31.582  11.000
56560W        W28908  22.069  17.224  14.011
56561W        W28909  29.125   5.195   1.835
56562W        W28910   3.890   7.704   4.316
56563W        W28911  21.657  42.007   2.875
56564W        W28912  41.477   6.415  12.019
56565W        W28913  22.046  28.934  13.326
56566W        W28914   5.264  19.763   3.755
56567W        W28915  38.873  19.168  12.520
56568W        W28916  23.711  22.010   3.349
56569W        W28917  36.378  13.686   2.892
56570W        W28918  41.535   9.755  13.447
56571W        W28919   0.467   5.843  13.380
56572W        W28920  29.931  28.942  11.121
56573W        W28921   2.469  31.023  12.473
56574W        W28922  18.652  19.129   4.264
56575W        W28923  26.617  38.342  14.465
56576W        W28924  15.759   3.871  13.356
56577W        W28925  20.077  44.011  11.057
56578W        W28926  15.721   0.386   0.833
56579W        W28927  30.923  20.223   0.809
56580W        W28928   0.400  39.511   3.852
56581W        W28929   5.706  44.799   1.706
56582W        W28930  24.023  40.466  12.011
56583W        W28931   1.291   7.701   1.696
56584W        W28932  34.597  34.575  13.459
56585W        W28933  33.543   5.235   0.856
56586W        W28934   4.362  38.835  12.860
56587W        W28935  28.961  40.974  11.065
56588W        W28936  24.615  37.963  12.435
56589W        W28937  23.656  22.028   4.251
56590W        W28938  29.461  18.626  12.355
56591W        W28939   1.306  44.410   2.845
56592W        W28940  27.669  38.981   1.854
56593W        W28941  23.122   5.753   2.686
56594W        W28942  11.168   1.428  12.457
56595W        W28943  43.435  36.391  12.402
56596W        W28944  16.713  11.254   0.831
56597W        W28945   2.391  13.765  14.891
56598W        W28946  22.722  42.453  12.543
56599W        W28947   1.300  33.480  12.399
56600W        W28948   2.748  22.501  11.518
56601W        W28949   1.848  44.487  12.539
56602W        W28950  28.021  20.080  12.051
56603W        W28951  30.119  37.504  11.924
56604W        W28952   7.848  21.042   2.243
56605W        W28953   6.728  37.503   1.894
56606W        W28954   6.226  13.199  12.900
56607W        W28955   1.741  11.345  12.838
56608W        W28956  19.634   2.766  11.970
56609W        W28957  33.091  35.945  14.331
56610W        W28958  23.682   9.846  14.397
56611W        W28959  43.979  16.158  14.490
56612W        W28960  24.166  31.563  11.588
56613W        W28961  36.554  13.797   3.700
56614W        W28962  22.622  43.325   1.406
56615W        W28963  18.686  41.944  12.574
56616W        W28964  38.842  18.619  12.999
56617W        W28965  20.180  11.176  14.297
56618W        W28966  15.214  41.439   2.677
56619W        W28967  27.035   6.909  12.404
56620W        W28968  26.493  17.077  14.435
56621W        W28969  42.367   0.361   1.920
56622W        W28970  38.473  21.522  14.984
56623W        W28971  13.713  22.528   2.883
56624W        W28972  26.571  15.812   5.305
56625W        W28973  21.024  41.037   1.696
56626W        W28974  42.444  43.505   0.424
56627W        W28975  24.086  38.887  10.959
56628W        W28976  43.431   4.356  12.858
56629W        W28977  31.418  38.512  13.819
56630W        W28978  13.239  22.522  11.395
56631W        W28979  16.594  44.494   0.357
56632W        W28980   2.913  22.742   2.413
56633W        W28981  13.255  15.321   0.781
56634W        W28982  12.344  39.041  13.526
56635W        W28983  28.455  14.266   0.369
56636W        W28984  43.984   6.751  13.791
56637W        W28985  40.420  22.546   0.774
56638W        W28986  18.588  41.978   3.365
56639W        W28987   3.227  20.038   2.876
56640W        W28988  39.011  25.552  10.622
56641W        W28989   2.345  22.500   0.968
56642W        W28990  11.833  18.729   2.831
56643W        W28991  33.415  11.200  14.850
56644W        W28992  12.741  41.464  11.540
56645W        W28993  22.007  17.096  11.484
56646W        W28994   5.338   9.328   2.783
56647W        W28995  42.988  14.138   2.896
56648W        W28996  44.817  33.111   4.229
56649W        W28997  42.520  40.030  12.035
56650W        W28998   9.872  16.762   2.773
56651W        W28999  10.718  11.263  13.831
56652W        W29000   9.812  12.775   4.749
56653W        W29001  14.270  26.073   3.783
56654W        W29002  41.928  34.940  14.942
56655W        W29003   9.362  17.173   2.799
56656W        W29004  26.525  25.568  13.470
56657W        W29005  42.448  36.461  13.340
56658W        W29006  18.093   6.807  14.946
56659W        W29007  44.430  19.137  14.391
56660W        W29008   8.321  38.483  14.446
56661W        W29009   4.942  20.067   4.799
56662W        W29010  32.602  43.855   2.670
56663W        W29011  17.561  38.860  12.895
56664W        W29012  22.074  19.716   0.894
56665W        W29013  33.926   3.240   1.394
56666W        W29014  29.589  12.692  12.422
56667W        W29015  29.514  35.432   0.754
56668W        W29016  22.654  35.379   0.805
56669W        W29017  12.241  16.242  12.564
56670W        W29018  15.299   5.870  13.962
56671W        W29019   4.817  16.631   3.380
56672W        W29020  36.414   0.279  13.432
56673W        W29021   0.304  40.308  12.419
56674W        W29022   2.895   4.776  14.995
56675W        W29023  26.079  31.906   0.372
56676W        W29024  43.016  24.489   2.273
56677W        W29025  27.594  10.276   2.366
56678W        W29026   4.941   6.270  12.048
56679W        W29027   7.393  21.560   2.700
56680W        W29028  20.184  32.627  13.525
56681W        W29029  13.179   4.318   1.388
56682W        W29030  19.140  31.133   2.845
56683W        W29031  20.648  26.640   1.880
56684W        W29032  36.003  28.519  11.047
56685W        W29033   7.767  18.597   2.874
56686W        W29034  28.588  16.787  11.513
56687W        W29035  11.302  34.036  13.345
56688W        W29036  21.634  25.049   4.141
56689W        W29037  43.278  10.642   0.907
56690W        W29038   8.867   4.325  14.892
56691W        W29039  17.633  30.596  11.993
56692W        W29040  36.866  27.627  13.500
56693W        W29041   8.677  11.696   0.420
56694W        W29042   8.247   4.376  13.390
56695W        W29043  15.240   0.344  10.455
56696W        W29044  32.989   4.368   2.730
56697W        W29045  38.443   2.421  11.575
56698W        W29046   4.832  15.179  14.828
56699W        W29047  23.137  25.608   0.753
56700W        W29048  43.865  42.018   1.797
56701W        W29049  40.449  34.925   4.697
56702W        W29050  41.972   8.340   2.880
56703W        W29051   8.200  23.532  11.970
56704W        W29052   8.747  18.710   3.308
56705W        W29053   7.259  31.618   0.244
56706W        W29054   9.229   1.432  12.410
56707W        W29055  24.123   5.219  14.896
56708W        W29056  27.663  30.146  12.009
56709W        W29057  16.293  20.733  12.455
56710W        W29058  20.042  42.901  10.594
56711W        W29059  10.875  29.622  13.333
56712W        W29060  41.032  28.603   1.350
56713W        W29061  31.135  22.647  11.528
56714W        W29062  43.018  38.553   1.432
56715W        W29063  14.825  43.865   1.857
56716W        W29064  30.918  21.204   1.260
56717W        W29065  44.874  22.520   3.763
56718W        W29066   3.304  30.990  10.996
56719W        W29067  10.838  26.082   3.267
56720W        W29068  24.103  10.248   4.656
56721W        W29069  28.641  41.006   3.653
56722W        W29070  31.116  35.581   0.898
56723W        W29071  26.199   2.325  10.482
56724W        W29072  26.174  24.691   3.246
56725W        W29073  40.857   5.415   4.607
56726W        W29074  18.725  44.794  10.570
56727W        W29075  33.901  19.636  12.374
56728W        W29076   8.342  15.268   1.296
56729W        W29077   9.216   0.784  13.823
56730W        W29078  38.837  25.121   4.122
56731W        W29079  16.222  40.910  13.528
56732W        W29080   4.284   3.882   3.867
56733W        W29081  31.025  11.854   4.313
56734W        W29082  19.068  27.011  13.901
56735W        W29083   6.741  33.568  11.866
56736W        W29084   4.242  17.066  14.795
56737W        W29085   3.722  36.845  12.940
56738W        W29086   7.398  32.998   1.400
56739W        W29087   2.453  39.028   0.270
56740W        W29088  37.336  40.935   0.817
56741W        W29089   0.839  37.462   4.272
56742W        W29090  24.026  34.006  11.380
56743W        W29091  41.892  26.661  11.952
56744W        W29092  31.552  44.865  11.476
56745W        W29093  20.053  24.704   4.631
56746W        W29094  22.198  15.155  12.008
56747W        W29095  16.569  40.304   1.739
56748W        W29096  16.805   2.818   2.896
56749W        W29097   6.364  21.233   3.189
56750W        W29098  10.691   5.196   0.777
56751W        W29099  34.562  18.055   4.813
56752W        W29100   5.370   0.454   0.764
56753W        W29101   3.724  42.423   2.411
56754W        W29102  37.973  31.115  13.414
56755W        W29103  16.100  29.663   4.231
56756W        W29104  11.755   6.719  12.077
56757W        W29105  32.033  24.662  14.498
56758W        W29106   9.195   5.371  12.861
56759W        W29107  15.158   6.282  10.574
56760W        W29108  13.641  42.440   4.743
56761W        W29109  15.196  18.687  10.998
56762W        W29110  25.983   4.335   3.206
56763W        W29111  24.591   9.268   2.361
56764W        W29112  11.177   5.311  11.093
56765W        W29113  23.721   1.747   4.165
56766W        W29114   0.372  33.992  10.957
56767W        W29115  18.066  18.286  12.053
56768W        W29116   5.795  19.250   2.414
56769W        W29117   7.408  44.399   4.657
56770W        W29118  12.688  42.388  10.605
56771W        W29119  27.690   9.749  13.819
56772W        W29120  39.534  23.550   3.862
56773W        W29121  25.691   1.339   0.876
56774W        W29122  24.548  17.251   3.769
56775W        W29123  41.979   7.244  11.113
56776W        W29124  20.694  18.552  14.494
56777W        W29125  35.457  40.412  11.113
56778W        W29126  43.938  39.889  11.447
56779W        W29127  21.123  14.684   2.791
56780W        W29128  35.515  23.499   4.698
56781W        W29129  12.169  30.135  12.510
56782W        W29130   1.823  29.477  14.378
56783W        W29131   2.441  34.484  14.891
56784W        W29132  21.261  42.419   0.858
56785W        W29133  10.371  44.338  12.555
56786W        W29134  26.560  28.550   0.389
56787W        W29135  21.111   7.284   2.714
56788W        W29136  36.538  21.048  14.018
56789W        W29137  39.474  10.640  14.845
56790W        W29138   0.268  23.203  11.613
56791W        W29139  27.681  18.222  12.545
56792W        W29140  42.917  41.378  11.496
56793W        W29141  37.468   7.220   0.330
56794W        W29142  39.555  10.345   3.679
56795W        W29143  31.088  40.497   0.393
56796W        W29144  44.818  15.227  14.882
56797W        W29145  25.548  40.491   1.818
56798W        W29146  33.603  36.453  10.036
56799W        W29147  15.692  20.558  11.918
56800W        W29148  33.020   3.292   2.402
56801W        W29149  19.271   3.830  14.902
56802W        W29150  14.768  42.377  12.841
56803W        W29151  41.476  42.405  12.844
56804W        W29152  24.080   7.194  14.812
56805W        W29153  17.177  21.513  12.402
56806W        W29154   6.687  33.049   9.621
56807W        W29155  43.986   4.386  11.088
56808W        W29156  40.885  27.548   1.222
56809W        W29157   1.276  43.819  13.506
56810W        W29158  41.418  44.359  14.317
56811W        W29159  23.017  27.638   3.364
56812W        W29160   1.803  18.138  10.999
56813W        W29161  14.774  36.028  10.508
56814W        W29162   6.293  42.914  10.133
56815W        W29163   7.350  15.584  11.020
56816W        W29164   7.706  26.194  10.596
56817W        W29165  19.079  25.061  11.383
56818W        W29166  21.634  30.044   1.775
56819W        W29167  22.737  27.513   2.392
56820W        W29168  34.078  30.530  14.366
56821W        W29169   8.828  24.176   5.106
56822W        W29170   3.844  23.562  11.612
56823W        W29171   6.231  39.532   9.963
56824W        W29172   1.870  12.270   1.901
56825W        W29173  33.429  27.650  12.425
56826W        W29174  16.160  31.025   1.420
56827W        W29175  35.959   7.673  13.494
56828W        W29176  33.606   9.362   0.456
56829W        W29177  21.747   4.878  13.409
56830W        W29178  44.353  13.349   2.272
56831W        W29179  21.597   1.348  10.574
56832W        W29180   9.365  36.910   0.292
56833W        W29181  29.503  15.661  12.879
56834W        W29182   0.767  24.719   4.710
56835W        W29183  37.085  32.595  14.476
56836W        W29184  23.591   9.172  10.524
56837W        W29185  25.554  25.066   1.863
56838W        W29186  43.792  11.849   1.255
56839W        W29187  36.090  23.492   0.791
56840W        W29188  36.905  14.270   4.278
56841W        W29189  40.946   5.198  10.988
56842W        W29190   8.856   5.422   4.284
56843W        W29191  34.995  10.156   2.849
56844W        W29192  36.589  17.175  13.344
56845W        W29193   1.460   8.704  12.895
56846W        W29194  41.526  28.576  13.890
56847W        W29195  35.925  42.494  13.014
56848W        W29196  16.264  17.697   0.379
56849W        W29197  40.520  41.822   1.451
56850W        W29198  13.203  28.982  12.571
56851W        W29199  27.657  37.437  13.850
56852W        W29200  36.463   7.295   0.468
56853W        W29201  27.979  16.140   4.306
56854W        W29202  44.788   1.413  14.003
56855W        W29203  19.126  20.635   0.448
56856W        W29204  14.222  10.308   5.270
56857W        W29205  27.124  32.605  14.345
56858W        W29206  11.846  25.159  11.997
56859W        W29207   0.956   0.437  12.557
56860W        W29208   0.887   7.181   0.890
56861W        W29209  20.070  13.347  13.495
56862W        W29210  15.764  27.188  11.098
56863W        W29211  30.068  43.428   3.370
56864W        W29212  20.201  31.061  12.562
56865W        W29213  11.846  39.418   1.781
56866W        W29214  24.653  24.183   0.263
56867W        W29215   8.178   6.254   1.332
56868W        W29216  29.546  36.887   1.309
56869W        W29217  39.556  26.960  13.460
56870W        W29218   5.438  22.137   2.673
56871W        W29219  33.547  29.450  13.432
56872W        W29220  37.073  27.960  14.958
56873W        W29221  17.567  35.063   3.336
56874W        W29222   9.766  19.588  13.983
56875W        W29223  12.163  19.285  14.904
56876W        W29224  44.503  34.509   2.792
56877W        W29225   3.884   1.276   3.244
56878W        W29226  26.633  24.588   4.321
56879W        W29227  42.881  33.036   2.244
56880W        W29228  33.508   1.922   1.761
56881W        W29229  42.291  18.598   0.788
56882W        W29230  23.663  28.946  12.076
56883W        W29231   2.891   1.934  13.045
56884W        W29232  23.701   7.766   9.476
56885W        W29233  13.700  34.434  12.346
56886W        W29234  26.042  23.695   0.797
56887W        W29235  10.188  34.901   2.690
56888W        W29236  22.998  35.603  11.460
56889W        W29237   9.205   3.448  10.505
56890W        W29238  30.151  31.956   1.806
56891W        W29239  18.615   7.912   0.742
56892W        W29240  17.139  35.920   2.701
56893W        W29241  17.245  14.703   0.818
56894W        W29242  15.184  38.069   2.823
56895W        W29243  10.371  39.998  10.444
56896W        W29244   0.332  42.838   2.366
56897W        W29245  23.214  23.508  10.431
56898W        W29246  12.739  10.863   2.184
56899W        W29247   5.314  36.865   2.250
56900W        W29248  36.564   4.841   3.798
56901W        W29249  42.440  22.998  14.387
56902W        W29250  10.830   1.332  10.587
56903W        W29251  11.284  18.179   4.281
56904W        W29252  28.544   6.875   0.460
56905W        W29253  36.852  22.736   3.239
56906W        W29254  28.562  17.755  14.354
56907W        W29255  21.230   0.434   4.224
56908W        W29256  44.400  24.478   2.733
56909W        W29257   3.315  38.823   1.354
56910W        W29258  12.147  41.969  12.360
56911W        W29259  39.809  40.515  14.893
56912W        W29260  30.140  14.137   2.249
56913W        W29261  42.350  41.402  12.382
56914W        W29262  28.604  20.069  11.894
56915W        W29263  40.909  43.947  12.985
56916W        W29264  30.981   6.920   0.344
56917W        W29265   1.255  40.488  12.576
56918W        W29266  34.017  18.685  11.868
56919W        W29267  30.089   6.709   5.203
56920W        W29268   9.661  40.884   2.901
56921W        W29269  28.487  26.165  10.889
56922W        W29270  23.043  25.180  10.958
56923W        W29271  26.059  34.609  13.020
56924W        W29272   6.380  25.147  13.818
56925W        W29273  19.770  26.148  10.486
56926W        W29274  37.445  42.817   2.265
56927W        W29275  32.595  17.697   3.783
56928W        W29276  28.537  10.350   2.884
56929W        W29277  29.491  21.662   2.692
56930W        W29278  43.270  38.445  12.538
56931W        W29279  43.994   9.790   4.301
56932W        W29280  14.212  35.011  13.944
56933W        W29281  41.307   0.482  14.292
56934W        W29282  17.782  42.866   4.243
56935W        W29283  29.665  31.093  12.373
56936W        W29284   5.285   2.294  11.437
56937W        W29285   2.735  29.045  13.864
56938W        W29286   5.423  21.604  12.370
56939W        W29287   1.745  11.633  13.826
56940W        W29288  21.597   4.919  12.954
56941W        W29289  12.121  37.849  13.320
56942W        W29290  35.545   5.385   0.316
56943W        W29291  13.240  35.970  11.506
56944W        W29292  43.435  39.890  11.514
56945W        W29293  35.415  19.756  10.934
56946W        W29294   2.929  40.937  11.384
56947W        W29295   2.837  30.564   2.727
56948W        W29296   2.345  23.226   0.415
56949W        W29297   3.372  17.691  13.545
56950W        W29298  42.992   7.317   2.700
56951W        W29299  26.955  24.038  12.352
56952W        W29300  42.944  42.837  10.419
56953W        W29301  29.614  15.217   4.261
56954W        W29302   2.336  34.556   0.952
56955W        W29303  36.472  16.799  11.590
56956W        W29304  13.298  10.157  10.121
56957W        W29305  33.445  16.613  11.048
56958W        W29306  27.006  36.549   2.314
56959W        W29307  15.680   8.353   3.733
56960W        W29308   2.436  22.204   2.881
56961W        W29309  20.138  14.227   3.339
56962W        W29310  36.023  30.984  14.500
56963W        W29311  41.480  20.720  12.094
56964W        W29312  37.063  42.288   4.644
56965W        W29313  23.015  44.822  12.983
56966W        W29314  18.070  15.750   0.250
56967W        W29315   0.385  26.495  11.381
56968W        W29316  25.547  10.348   1.727
56969W        W29317   7.373  22.134   2.267
56970W        W29318  23.183  37.879   2.687
56971W        W29319  14.249   2.300  11.085
56972W        W29320  25.172  32.944   1.443
56973W        W29321  21.608   5.426  14.985
56974W        W29322  23.631  31.137  11.103
56975W        W29323  15.662  30.637  13.015
56976W        W29324   8.229   0.429  10.558
56977W        W29325   9.390  37.836  14.761
56978W        W29326  20.688  32.540  10.437
56979W        W29327   6.362  14.764   1.876
56980W        W29328  30.538   0.317   1.749
56981W        W29329  25.600  27.948  13.896
56982W        W29330  15.194   8.260   0.415
56983W        W29331  43.457  34.961   2.680
56984W        W29332  16.312  13.806  12.475
56985W        W29333  15.800  10.302  10.964
56986W        W29334   7.802  32.885  14.019
56987W        W29335   5.359  38.993  12.501
56988W        W29336  35.870   5.234   3.384
56989W        W29337   3.313  44.432   3.185
56990W        W29338  10.195  43.316  11.879
56991W        W29339  29.153  39.386   0.755
56992W        W29340  33.046   1.469   4.745
56993W        W29341  40.505  22.621   0.353
56994W        W29342  24.604  40.547  10.437
56995W        W29343  20.186  35.603   1.850
56996W        W29344  42.883  19.745  11.947
56997W        W29345  28.963  35.376   2.196
56998W        W29346  23.119  34.480   4.212
56999W        W29347  42.499  40.803  14.357
57000W        W29348  25.473  30.118   3.816
57001W        W29349  36.896  36.874  11.409
57002W        W29350   1.392  41.474  13.935
57003W        W29351   0.288  30.644   1.741
57004W        W29352  26.617  19.758   4.229
57005W        W29353   1.477  30.048  12.063
57006W        W29354   7.721  34.483  12.924
57007W        W29355   7.250  22.637   2.363
57008W        W29356   0.796  42.887   2.831
57009W        W29357  35.864  29.126   1.372
57010W        W29358  39.809   5.242  13.814
57011W        W29359  12.773  39.351  10.927
57012W        W29360  44.429  36.885  14.952
57013W        W29361  17.149  38.949  14.021
57014W        W29362  21.719  18.277  11.995
57015W        W29363  42.823  22.727   5.260
57016W        W29364  33.514  22.174  14.874
57017W        W29365  20.579  15.717  11.945
57018W        W29366  14.809  34.962   3.755
57019W        W29367  24.123  41.813  11.081
57020W        W29368  15.764  40.324  14.478
57021W        W29369  37.432  15.600  11.126
57022W        W29370  12.666   3.853  14.785
57023W        W29371  11.734   9.846   3.715
57024W        W29372   8.806  41.842   4.700
57025W        W29373  19.725  22.697   4.128
57026W        W29374  12.126  26.001  13.324
57027W        W29375   7.700  27.086   4.729
57028W        W29376  17.305  33.592  10.612
57029W        W29377   0.913  17.681  13.910
57030W        W29378   1.930  27.986   2.700
57031W        W29379  17.286  22.072  12.518
57032W        W29380  14.781  16.203   0.746
57033W        W29381  28.169  26.992  13.478
57034W        W29382  23.514  36.844  10.913
57035W        W29383  39.543  29.032  13.542
57036W        W29384  31.609  33.895   1.758
57037W        W29385  39.826   1.403  12.421
57038W        W29386  42.281   6.387  13.329
57039W        W29387  17.281  28.954   0.955
57040W        W29388   7.308  11.827  13.059
57041W        W29389  23.673   6.865   9.577
57042W        W29390  29.058  21.039  14.458
57043W        W29391   0.424   2.817   0.918
57044W        W29392  11.175   5.436   4.669
57045W        W29393  17.091  12.683  11.917
57046W        W29394  40.913   1.925   3.695
57047W        W29395   4.297  38.956  12.044
57048W        W29396  22.590  25.573  12.375
57049W        W29397   1.869  19.148  13.532
57050W        W29398  12.147  28.465   3.327
57051W        W29399  27.008  42.820  12.030
57052W        W29400  38.541  35.387   0.265
57053W        W29401  16.640  11.137   3.789
57054W        W29402  12.749  22.128  13.359
57055W        W29403  20.058   1.969   3.667
57056W        W29404  30.637   6.397  11.381
57057W        W29405  20.159  20.121   2.740
57058W        W29406  29.030  17.696   2.345
57059W        W29407   5.393   0.361  14.385
57060W        W29408   4.405  42.441  12.525
57061W        W29409   1.315  17.667   3.314
57062W        W29410  13.172   7.766  11.483
57063W        W29411  32.051  43.375   2.893
57064W        W29412  28.457   5.403  13.006
57065W        W29413   1.412  40.016   3.723
57066W        W29414  39.983   7.902  13.874
57067W        W29415  33.077  29.623  11.532
57068W        W29416  11.262  27.471  10.413
57069W        W29417   4.361   1.938   2.824
57070W        W29418  23.995   6.891   4.735
57071W        W29419  34.080  34.408  10.027
57072W        W29420  42.524  34.912   3.316
57073W        W29421  27.045  12.660   3.748
57074W        W29422  26.164   1.780  11.612
57075W        W29423  40.816  42.410  13.922
57076W        W29424   1.973  27.013  11.860
57077W        W29425  38.909   7.236  11.865
57078W        W29426   5.833  32.092   0.306
57079W        W29427  43.940   5.376   4.117
57080W        W29428  18.238  18.744  10.903
57081W        W29429  37.871  24.494   2.391
57082W        W29430  30.959  44.288  11.593
57083W        W29431  40.844  36.076  14.461
57084W        W29432  22.538  38.995   1.252
57085W        W29433   8.306  43.018   3.797
57086W        W29434  23.602  42.519   0.365
57087W        W29435  12.182  42.780   5.084
57088W        W29436   6.906   1.928  12.965
57089W        W29437  31.526  39.835   4.263
57090W        W29438   6.720   5.737  12.345
57091W        W29439  19.118  24.666  12.996
57092W        W29440   6.364   4.443   4.776
57093W        W29441  42.032   5.718  11.053
57094W        W29442  31.051   0.983  14.809
57095W        W29443  33.998  25.550   4.160
57096W        W29444   7.239  32.587  10.123
57097W        W29445  15.179  34.873  11.407
57098W        W29446  11.676  25.673   2.186
57099W        W29447  14.257  12.255  10.917
57100W        W29448  16.592  30.004  14.858
57101W        W29449   2.406  40.840  14.922
57102W        W29450  23.032   7.693  12.437
57103W        W29451  17.568  13.832  11.043
57104W        W29452  39.390  38.327   2.679
57105W        W29453  27.105  24.147  12.036
57106W        W29454  26.576  35.090  10.621
57107W        W29455  24.494  32.415   1.414
57108W        W29456  30.430   5.374  14.343
57109W        W29457  37.572  40.898  12.078
57110W        W29458  21.154  22.626   3.330
57111W        W29459  13.763  13.272   1.257
57112W        W29460   4.737   2.431   4.216
57113W        W29461  37.064  10.724  12.565
57114W        W29462  30.432  31.464  13.054
57115W        W29463  18.616  41.965   1.327
57116W        W29464  32.935   4.375  12.073
57117W        W29465  29.170  35.579   1.730
57118W        W29466  19.091  22.526   3.770
57119W        W29467  28.936  32.890  11.401
57120W        W29468   4.858  31.898   3.375
57121W        W29469  24.675   9.879   3.792
57122W        W29470  32.597   5.877   0.308
57123W        W29471  17.783  31.486  12.382
57124W        W29472  16.087  25.119   4.629
57125W        W29473  21.081  20.745   0.764
57126W        W29474  18.106  20.239  14.480
57127W        W29475  34.485  18.165  12.019
57128W        W29476   3.357   7.238   4.183
57129W        W29477   4.777  37.064   1.386
57130W        W29478  37.950  26.120  10.437
57131W        W29479  25.474  13.806   3.830
57132W        W29480  44.861   5.315   0.857
57133W        W29481  33.102  11.769   0.791
57134W        W29482  34.966  15.756   1.866
57135W        W29483   0.920   2.913   4.817
57136W        W29484  44.279  21.041   4.818
57137W        W29485  34.060   5.790  11.986
57138W        W29486  29.598   0.333   3.859
57139W        W29487   6.727  37.467  12.453
57140W        W29488   7.302   8.799  11.069
57141W        W29489   4.740  21.063   1.930
57142W        W29490  22.085  34.555   2.758
57143W        W29491  36.362  42.854  14.877
57144W        W29492  23.623  43.395  11.128
57145W        W29493  36.427  36.890  12.022
57146W        W29494  19.113  24.148  11.424
57147W        W29495  21.171  37.898   0.390
57148W        W29496  17.665  26.146   4.815
57149W        W29497  14.207  28.086   1.402
57150W        W29498  29.622   4.900   2.298
57151W        W29499  26.988  39.055  10.994
57152W        W29500  28.033  31.504   2.860
57153W        W29501  28.608  30.079  10.405
57154W        W29502  37.489  22.537   0.830
57155W        W29503  34.954  26.999   4.191
57156W        W29504  36.052  28.634  12.853
57157W        W29505  20.257  11.645  11.464
57158W        W29506   4.737  44.902   0.323
57159W        W29507  33.569   0.846  13.464
57160W        W29508  34.471   8.836   4.657
57161W        W29509  12.630  38.938  10.896
57162W        W29510  26.581  23.711   3.702
57163W        W29511  28.482  11.355  12.465
57164W        W29512  40.817   1.300   2.273
57165W        W29513   2.375  39.511   4.628
57166W        W29514  12.832   4.723  14.762
57167W        W29515  21.204  40.493   1.829
57168W        W29516  32.528   2.906   2.391
57169W        W29517  14.659  32.583   2.682
57170W        W29518   8.195  18.198  13.444
57171W        W29519  43.767   2.305  11.559
57172W        W29520  39.038  41.405   3.337
57173W        W29521  20.737  25.999  12.968
57174W        W29522  15.286  16.761   2.195
57175W        W29523  33.551  29.962   4.606
57176W        W29524  16.690  28.490   2.874
57177W        W29525  16.691  40.860  12.522
57178W        W29526  35.435   8.211   0.743
57179W        W29527  36.407   2.410   3.363
57180W        W29528  10.342  36.012   3.853
57181W        W29529  39.981  11.231  10.627
57182W        W29530   5.693   3.262  13.513
57183W        W29531  25.587  33.405   0.394
57184W        W29532   8.319  10.301  12.034
57185W        W29533  43.361   4.861   1.267
57186W        W29534  17.134   1.353   1.448
57187W        W29535  32.064   0.457   1.819
57188W        W29536  44.495  23.728  12.848
57189W        W29537  41.314  11.240  12.344
57190W        W29538  30.022  10.377  12.849
57191W        W29539  23.010  16.100   2.785
57192W        W29540  39.375   2.403  10.455
57193W        W29541  12.185   3.359   0.898
57194W        W29542  21.703  43.510  12.483
57195W        W29543  14.591  32.527  11.513
57196W        W29544   0.458   8.878   3.233
57197W        W29545   7.692   1.435   4.154
57198W        W29546  37.841  16.630   2.287
57199W        W29547  24.988  17.205  13.822
57200W        W29548  13.337  24.209   2.358
57201W        W29549  42.418   0.743   3.298
57202W        W29550  41.401  18.250   4.685
57203W        W29551   3.410   9.191  13.060
57204W        W29552  44.424  13.639   1.859
57205W        W29553  27.120  24.662   0.311
57206W        W29554  41.420  14.115  10.587
57207W        W29555  16.217  12.624  14.440
57208W        W29556  42.970   3.920  13.377
57209W        W29557  43.977  40.546  12.828
57210W        W29558  33.599  38.897  10.531
57211W        W29559   8.237  17.594  13.347
57212W        W29560  25.596  26.680   2.782
57213W        W29561   9.162   9.846   3.659
57214W        W29562  21.538  26.630   3.718
57215W        W29563  10.316  34.956   4.285
57216W        W29564   5.362  23.144  14.774
57217W        W29565  30.149  32.629  13.411
57218W        W29566  16.169  19.694  12.860
57219W        W29567  33.040  18.661  11.004
57220W        W29568  10.779  18.716   4.804
57221W        W29569   2.885  28.008  12.354
57222W        W29570  28.008   8.287  14.941
57223W        W29571  34.370   8.271  12.498
57224W        W29572  13.109  18.202   4.236
57225W        W29573  11.183  20.550  13.347
57226W        W29574  41.941  16.121  13.469
57227W        W29575   9.243  14.111  13.910
57228W        W29576   3.258  28.986  12.355
57229W        W29577  22.578  12.648   1.214
57230W        W29578   5.757  36.872  14.945
57231W        W29579  43.771  15.682  11.533
57232W        W29580  38.397   7.825  12.966
57233W        W29581  35.921   4.212   0.484
57234W        W29582   0.872  27.596   0.273
57235W        W29583  28.105   0.767   0.349
57236W        W29584   1.403  18.665  10.477
57237W        W29585  36.445  32.608   3.382
57238W        W29586  28.028  24.215   3.229
57239W        W29587  43.389  36.399   1.724
57240W        W29588  28.581  28.581   1.293
57241W        W29589  10.342  32.571  13.988
57242W        W29590   3.725  32.066   4.228
57243W        W29591  29.570   6.202   5.193
57244W        W29592   0.785  33.928  14.336
57245W        W29593  30.954   5.376   2.902
57246W        W29594   2.362  35.008  13.023
57247W        W29595  13.202  31.473  14.920
57248W        W29596   4.849  41.471   4.294
57249W        W29597   1.258  10.312   0.445
57250W        W29598   9.880  30.516  12.498
57251W        W29599  40.983  15.593   4.661
57252W        W29600  27.143  40.963   4.826
57253W        W29601  18.570  20.203   1.808
57254W        W29602  41.408  17.590   0.449
57255W        W29603  35.942  16.124  11.981
57256W        W29604  40.513   7.394  13.922
57257W        W29605  44.964  25.544  12.578
57258W        W29606  10.253  27.537  10.946
57259W        W29607  15.673  27.645   2.314
57260W        W29608  31.472   7.716   1.418
57261W        W29609   1.390  17.259   3.765
57262W        W29610  39.000   9.744   1.418
57263W        W29611  34.960   4.373   0.954
57264W        W29612   0.919  22.503  14.934
57265W        W29613  19.633   3.431  13.946
57266W        W29614  29.148   7.759   4.143
57267W        W29615  15.792  25.468   2.260
57268W        W29616  17.571  28.046  12.901
57269W        W29617  22.537  31.091   4.753
57270W        W29618  33.954  42.310   0.863
57271W        W29619  30.542  32.481   4.196
57272W        W29620   6.844  43.968   4.182
57273W        W29621  34.086  21.639   1.734
57274W        W29622  28.077  11.259  13.903
57275W        W29623  10.331  17.238   3.303
57276W        W29624  34.995  23.599   2.746
57277W        W29625  30.997   0.951   2.712
57278W        W29626  32.942  22.030  12.056
57279W        W29627  42.354  24.725  12.086
57280W        W29628  30.999  14.693   2.402
57281W        W29629   8.775  35.981  13.923
57282W        W29630  23.584  18.702   0.882
57283W        W29631  10.753   3.754  10.611
57284W        W29632   1.934  26.534  12.971
57285W        W29633  12.630   3.886  12.978
57286W        W29634  27.476  20.221  13.394
57287W        W29635  35.880  32.066   4.236
57288W        W29636  32.538   8.164  14.326
57289W        W29637  19.203  10.138  14.883
57290W        W29638  16.308   1.964  13.510
57291W        W29639  21.581  15.794   4.609
57292W        W29640  15.769  44.821  13.935
57293W        W29641  28.930  14.244   2.767
57294W        W29642   1.835  14.762  11.981
57295W        W29643  16.306   1.805   2.194
57296W        W29644  20.718  14.824   1.833
57297W        W29645  42.340  26.657   1.239
57298W        W29646  38.030   9.886  12.497
57299W        W29647  44.874  31.645  12.399
57300W        W29648   3.724  23.014   1.403
57301W        W29649   4.740   0.488  10.935
57302W        W29650  35.857   0.273   0.376
57303W        W29651  32.580  13.695   0.788
57304W        W29652   3.803  14.595   0.378
57305W        W29653  14.647  37.461   5.188
57306W        W29654  19.669  28.675   4.820
57307W        W29655  30.578  23.521  12.373
57308W        W29656  22.734  14.101   1.430
57309W        W29657  23.574   3.863  10.969
57310W        W29658  41.397  41.364   1.365
57311W        W29659  38.891  28.957   5.252
57312W        W29660  33.062  17.700   3.269
57313W        W29661   2.889  23.645   0.448
57314W        W29662  33.926   1.798   0.446
57315W        W29663   6.850  15.328  10.626
57316W        W29664  27.673  38.434   1.240
57317W        W29665  32.565  10.276   4.195
57318W        W29666  26.079  22.684  14.444
57319W        W29667  33.582  36.863   4.711
57320W        W29668  20.698  29.541   2.700
57321W        W29669  14.324  16.239   1.223
57322W        W29670  25.206  30.421   4.281
57323W        W29671  32.983  39.437  11.580
57324W        W29672  32.572  34.863   0.925
57325W        W29673  21.116   0.919   2.226
57326W        W29674  44.797  31.016   0.742
57327W        W29675  43.325  44.365  10.889
57328W        W29676  25.103  36.494  10.589
57329W        W29677  42.000  43.787   1.711
57330W        W29678   8.290  21.723  13.966
57331W        W29679  30.481  37.526   2.799
57332W        W29680  14.830  35.852  14.998
57333W        W29681  10.766   6.863  12.567
57334W        W29682  25.619  42.905  10.139
57335W        W29683   3.954  38.066   3.755
57336W        W29684   2.775  41.442   2.317
57337W        W29685   4.765  14.321  12.012
57338W        W29686  34.529  35.899  12.859
57339W        W29687  20.030  34.526  12.474
57340W        W29688  38.423  30.503   1.860
57341W        W29689  27.014  11.701   1.710
57342W        W29690  20.068   3.436   1.748
57343W        W29691  20.533  26.014  13.817
57344W        W29692  32.091   5.412  10.052
57345W        W29693  10.170   9.179  12.436
57346W        W29694   7.752   6.772   1.442
57347W        W29695   3.398   6.226   4.190
57348W        W29696  23.615  44.783   1.364
57349W        W29697   6.877   0.285  14.437
57350W        W29698  15.169   4.209   1.330
57351W        W29699  39.964  10.703  14.514
57352W        W29700  12.730   2.343  11.079
57353W        W29701  41.842   9.367  14.976
57354W        W29702  22.247   0.947   0.433
57355W        W29703  21.681   7.334  11.013
57356W        W29704  15.165   1.376   3.831
57357W        W29705  26.505  24.024  14.446
57358W        W29706  38.908  13.116   9.966
57359W        W29707  23.131   6.838  11.040
57360W        W29708  35.014  28.488   2.720
57361W        W29709  26.562   8.378   1.728
57362W        W29710  39.990   6.852   0.390
57363W        W29711  36.047  23.711   2.783
57364W        W29712  36.397   0.383  14.857
57365W        W29713   8.387  22.637  10.613
57366W        W29714  23.706  24.068  13.354
57367W        W29715  17.299  34.394  12.567
57368W        W29716   6.682   7.830   3.260
57369W        W29717   3.359  17.583   2.833
57370W        W29718  14.782  31.145   3.284
57371W        W29719  28.055   2.848  12.563
57372W        W29720   2.471   4.842  10.100
57373W        W29721  31.005   5.251   5.295
57374W        W29722   1.805  21.101   0.254
57375W        W29723   3.447  39.947  10.505
57376W        W29724  29.160   2.305  12.555
57377W        W29725   7.804  13.810  12.569
57378W        W29726  12.242   5.334   1.844
57379W        W29727  28.661  18.183   3.223
57380W        W29728  14.134  39.352   4.774
57381W        W29729  16.148   9.299  13.027
57382W        W29730   9.383  10.340   2.187
57383W        W29731  30.079  33.605  13.054
57384W        W29732  13.311  14.711   0.840
57385W        W29733  17.711   7.843   2.720
57386W        W29734  20.041   4.756   1.316
57387W        W29735  37.019  32.028  11.945
57388W        W29736  21.618  31.552   1.824
57389W        W29737   2.739  23.510  13.874
57390W        W29738  33.486  22.667   3.287
57391W        W29739  16.096   8.238   1.237
57392W        W29740  34.381  41.844   1.706
57393W        W29741   7.346  16.797   0.279
57394W        W29742  31.540  34.544  12.837
57395W        W29743  28.989  22.014   4.236
57396W        W29744  42.979  30.922   2.225
57397W        W29745  28.068  25.541   2.786
57398W        W29746  37.405  23.239  11.451
57399W        W29747   6.878  16.602   3.846
57400W        W29748  32.029  41.372   0.777
57401W        W29749  43.770   0.298  14.824
57402W        W29750  14.291  20.226  13.482
57403W        W29751  37.925  29.517   3.658
57404W        W29752   0.406  30.029  10.430
57405W        W29753  28.176   6.731   0.411
57406W        W29754   8.690  43.463   2.253
57407W        W29755  20.130  16.100  11.079
57408W        W29756   9.214  40.020  14.505
57409W        W29757   8.295  28.640   0.260
57410W        W29758   1.968  41.328  12.354
57411W        W29759  29.164   0.874  14.414
57412W        W29760  24.129  21.643   4.320
57413W        W29761  36.544  35.589  13.505
57414W        W29762  33.933  44.304  11.884
57415W        W29763  18.692   9.668   2.276
57416W        W29764  25.211  21.649  14.402
57417W        W29765  42.998  16.142  11.985
57418W        W29766  18.194  37.843   3.702
57419W        W29767  33.572  16.599  13.011
57420W        W29768  10.193  33.914  12.474
57421W        W29769  16.079  30.507  13.830
57422W        W29770  14.185  26.082   4.660
57423W        W29771   5.202  14.096  13.826
57424W        W29772  35.504   3.884  14.504
57425W        W29773  27.640  17.572   4.736
57426W        W29774  33.605  34.109   3.834
57427W        W29775  22.559  43.849  12.421
57428W        W29776  23.687  11.853   4.602
57429W        W29777  22.503  22.733   5.261
57430W        W29778  31.126  11.861   2.230
57431W        W29779  22.019  43.490  13.533
57432W        W29780   7.266  28.529   2.272
57433W        W29781  34.075  11.253  13.358
57434W        W29782  37.335   4.918   4.637
57435W        W29783  19.612  37.884   2.232
57436W        W29784  34.043   3.444  11.597
57437W        W29785  30.528  38.347  13.963
57438W        W29786   0.829   8.394  13.457
57439W        W29787  42.025  44.373   1.439
57440W        W29788  13.710   6.711  12.924
57441W        W29789   6.913   1.868  10.970
57442W        W29790  13.180  39.528  10.927
57443W        W29791  27.620  37.935  11.898
57444W        W29792  39.897  28.170   4.204
57445W        W29793  33.471  41.928   4.639
57446W        W29794  29.998  14.181   2.683
57447W        W29795  33.120  27.682   3.159
57448W        W29796  44.272  22.096  11.591
57449W        W29797   9.151  35.512  11.427
57450W        W29798   3.756  34.516   2.191
57451W        W29799   0.390  40.956  12.959
57452W        W29800  11.826  13.664   0.923
57453W        W29801  38.003  41.479  13.484
57454W        W29802  35.096  10.799  12.851
57455W        W29803  32.927  11.169   1.212
57456W        W29804  17.199  25.582   2.296
57457W        W29805  22.076  31.488  10.535
57458W        W29806   8.237  24.216   0.281
57459W        W29807  23.207   5.930   1.894
57460W        W29808  24.098  11.134   4.821
57461W        W29809  16.310  39.323  14.873
57462W        W29810   2.242  39.451  14.511
57463W        W29811  26.960   2.720  13.316
57464W        W29812  30.947  15.686  10.152
57465W        W29813  32.112  38.480   2.735
57466W        W29814  24.721  30.930   3.697
57467W        W29815  39.334  18.684  12.389
57468W        W29816  25.182  14.327   1.764
57469W        W29817  38.826   9.810   3.695
57470W        W29818  42.422  16.613   2.298
57471W        W29819  29.015   4.425  10.592
57472W        W29820  33.593  18.052   3.650
57473W        W29821  10.651  12.800   3.312
57474W        W29822  13.832  29.150  14.883
57475W        W29823   1.942  35.521   0.802
57476W        W29824  21.176  12.854   2.770
57477W        W29825  36.929  42.404   2.891
57478W        W29826  34.553  17.573   1.310
57479W        W29827  30.104  32.599  14.877
57480W        W29828  37.343  14.244  14.822
57481W        W29829  22.531   6.377  10.484
57482W        W29830  31.962   0.883   3.269
57483W        W29831  20.654  21.028   3.293
57484W        W29832   0.380   7.671   4.203
57485W        W29833  31.100  10.185  12.431
57486W        W29834   2.841   1.351   2.308
57487W        W29835  24.147   2.342   2.310
57488W        W29836  43.828  30.658   4.159
57489W        W29837   3.304  22.657   1.882
57490W        W29838  18.084   6.262   4.751
57491W        W29839  26.616  42.025   4.836
57492W        W29840  22.193  41.904   4.207
57493W        W29841  38.884  11.777  10.614
57494W        W29842  16.586  23.580   4.277
57495W        W29843  18.080  39.034   4.700
57496W        W29844  37.567   8.896  14.437
57497W        W29845   1.481  43.510   2.331
57498W        W29846  16.138   2.883   1.835
57499W        W29847  41.001   4.835  13.934
57500W        W29848   1.739   4.882   3.352
57501W        W29849  35.960  35.921   4.712
57502W        W29850  31.477  10.874   3.658
57503W        W29851  27.004  22.546   4.669
57504W        W29852  32.114  15.807  14.858
57505W        W29853   2.756   1.962   1.233
57506W        W29854  35.104  37.052  10.553
57507W        W29855  30.127  24.150  13.880
57508W        W29856  38.560  21.254  11.123
57509W        W29857  31.046  43.808   4.755
57510W        W29858   1.870   1.794  10.948
57511W        W29859   4.323  15.737  14.498
57512W        W29860  42.871  13.754  13.023
57513W        W29861   9.229  32.949  12.831
57514W        W29862  13.602  13.794   3.204
57515W        W29863  12.721  16.684   3.312
57516W        W29864  28.138  42.286   0.244
57517W        W29865  34.583   7.886   4.686
57518W        W29866  43.307  35.041  14.308
57519W        W29867  21.259   9.383  13.492
57520W        W29868  22.018  12.611   3.785
57521W        W29869  38.923   0.454   2.814
57522W        W29870  34.447  28.554  11.514
57523W        W29871  38.842  24.153   5.219
57524W        W29872  33.407   7.677  14.275
57525W        W29873  38.070  17.699  12.367
57526W        W29874  15.258   9.797   0.279
57527W        W29875  24.167  44.864  14.882
57528W        W29876   1.795  26.158   1.260
57529W        W29877  36.989  39.057   0.927
57530W        W29878  26.463  18.694  14.276
57531W        W29879  36.571  29.124  13.403
57532W        W29880  32.982   5.777  13.543
57533W        W29881  23.033  10.228  10.039
57534W        W29882  18.746  17.689   1.330
57535W        W29883   9.866  20.542   4.643
57536W        W29884  38.423  34.468  11.032
57537W        W29885  31.114  21.070   4.339
57538W        W29886  25.022  32.504  12.535
57539W        W29887  13.734  21.195   1.746
57540W        W29888  10.374  39.920   1.442
57541W        W29889  15.629  13.294  12.880
57542W        W29890  42.853  18.677   4.113
57543W        W29891  24.001  19.689  14.906
57544W        W29892  24.046  12.156   1.287
57545W        W29893  15.247   0.840  12.964
57546W        W29894   0.929  42.871   4.663
57547W        W29895  20.036  13.183  11.092
57548W        W29896   2.943  29.503  13.520
57549W        W29897  17.629   2.832  11.381
57550W        W29898  32.449  15.661   2.314
57551W        W29899   9.346  36.859   4.244
57552W        W29900  23.571  34.394  13.000
57553W        W29901  41.377   9.235  11.561
57554W        W29902  38.891  35.955   1.289
57555W        W29903  20.212   0.987  12.041
57556W        W29904  10.693  23.565  12.435
57557W        W29905  14.789  11.790   1.778
57558W        W29906  43.418   0.318  11.890
57559W        W29907  41.918  22.170  12.527
57560W        W29908   4.738  30.923  11.382
57561W        W29909  21.751  18.566  14.360
57562W        W29910   0.848  25.980  14.411
57563W        W29911  19.160  37.974   3.840
57564W        W29912   8.292  10.858   3.698
57565W        W29913   1.854   3.767   1.726
57566W        W29914  27.961  19.212   3.791
57567W        W29915  25.561  25.481  11.588
57568W        W29916  44.295  18.785  12.925
57569W        W29917  32.066  44.447   4.166
57570W        W29918  42.814  22.156   3.836
57571W        W29919  27.458  20.036  12.043
57572W        W29920  33.072  26.070   3.237
57573W        W29921  17.091  13.814   0.879
57574W        W29922  13.614  23.187   4.229
57575W        W29923  35.457  19.654  14.378
57576W        W29924  37.450   2.798  11.491
57577W        W29925  11.740  44.996   0.466
57578W        W29926  12.126   4.206   0.908
57579W        W29927  31.095  42.786  11.465
57580W        W29928  20.590  18.267  11.088
57581W        W29929  12.288   1.971   1.318
57582W        W29930  39.475   5.369   5.608
57583W        W29931  23.528  32.418   2.213
57584W        W29932  27.446  34.086  13.903
57585W        W29933  40.469  20.574   4.675
57586W        W29934   6.895  30.949   0.318
57587W        W29935  34.516  24.492  12.076
57588W        W29936  27.091  21.061  13.466
57589W        W29937  38.537   8.837  13.000
57590W        W29938  22.608  40.452   1.787
57591W        W29939   5.432  41.034   3.225
57592W        W29940   8.809  43.812  12.065
57593W        W29941  23.555   5.403  14.429
57594W        W29942  22.120  36.014  11.466
57595W        W29943   9.164  14.715   2.387
57596W        W29944  10.752  35.594   2.687
57597W        W29945  40.486  10.804  10.580
57598W        W29946   0.439  28.562  14.459
57599W        W29947  32.407  28.970  14.827
57600W        W29948  20.650  27.009  13.907
57601W        W29949   2.438  30.573   0.794
57602W        W29950  13.738  10.805  14.340
57603W        W29951   0.879  17.263   1.869
57604W        W29952  32.517  36.500   1.726
57605W        W29953  40.874   3.809  12.423
57606W        W29954   2.854   7.780  14.345
57607W        W29955  10.672  14.620   2.808
57608W        W29956  10.283  44.351   1.370
57609W        W29957  30.911  15.615   5.213
57610W        W29958  25.082  39.877  13.018
57611W        W29959  10.667   3.834  14.408
57612W        W29960  42.886  36.391   3.350
57613W        W29961  40.358  21.166   5.245
57614W        W29962   2.861  42.291   4.808
57615W        W29963  28.532  42.285   3.810
57616W        W29964  21.176  27.489  11.859
57617W        W29965   5.325  40.471  11.896
57618W        W29966  39.548  18.291   1.251
57619W        W29967  11.655  31.962   3.237
57620W        W29968  22.233  37.847  14.933
57621W        W29969  12.718  21.659   3.336
57622W        W29970  17.284  40.865  10.421
57623W        W29971  39.046  31.587   3.253
57624W        W29972  36.417  39.965   0.736
57625W        W29973  12.612  24.516   1.825
57626W        W29974   5.412  27.532   3.314
57627W        W29975  19.255  41.479  13.387
57628W        W29976  36.442   3.790  13.973
57629W        W29977   5.225  20.180   2.257
57630W        W29978  32.505  34.501  14.354
57631W        W29979  17.076  10.657   2.413
57632W        W29980  16.686   8.881   0.860
57633W        W29981  19.153  28.486  10.590
57634W        W29982  20.083   9.284   3.862
57635W        W29983  25.113  41.917   3.816
57636W        W29984  26.498  18.287  14.762
57637W        W29985   2.408  28.560  11.127
57638W        W29986  44.956   2.898  14.388
57639W        W29987  26.079  42.972  10.125
57640W        W29988  41.912  18.109  12.985
57641W        W29989   8.791  11.717   2.751
57642W        W29990  22.619  36.845   2.257
57643W        W29991   1.357  16.637  13.943
57644W        W29992  19.547   3.295   4.807
57645W        W29993  37.496  11.805   0.289
57646W        W29994  14.250  41.443   1.892
57647W        W29995  17.295  27.633   4.745
57648W        W29996   1.360  42.423   0.795
57649W        W29997   0.809  21.597   0.453
57650W        W29998  26.167  23.991  12.983
57651W        W29999   0.456   8.809   4.251
57652W        W30000  21.695  32.891   2.873
57653W        W30001  37.039  10.783  12.871
57654W        W30002  40.946  30.136  11.964
57655W        W30003  38.902  41.971  11.386
57656W        W30004  43.938  43.291   0.738
57657W        W30005  32.450  12.224   4.206
57658W        W30006  40.475  27.952  12.480
57659W        W30007  17.675   5.793  10.529
57660W        W30008  36.580  38.939   9.950
57661W        W30009  34.044  36.348  13.992
57662W        W30010  19.648  40.811   2.850
57663W        W30011  24.049  14.270  14.848
57664W        W30012  33.946   2.326  14.510
57665W        W30013  34.466  41.843   0.308
57666W        W30014  18.716  16.656  12.551
57667W        W30015   4.772  28.107  14.011
57668W        W30016  16.145  10.698   3.214
57669W        W30017  19.742  23.040  14.480
57670W        W30018  27.600   7.724  11.521
57671W        W30019   7.826  17.200   4.826
57672W        W30020  18.262  33.579   3.642
57673W        W30021  37.440  25.613  13.485
57674W        W30022  38.992  22.527  12.047
57675W        W30023  25.688  41.829   3.786
57676W        W30024  38.348  38.564   3.204
57677W        W30025  12.175  31.596  13.874
57678W        W30026  18.139  42.368  13.990
57679W        W30027  36.417  35.516   4.784
57680W        W30028  43.373  41.955  11.040
57681W        W30029   8.747  31.563  14.514
57682W        W30030  40.818   3.932   2.797
57683W        W30031  25.099   2.807  11.981
57684W        W30032  37.014   9.788   0.469
57685W        W30033   5.279  17.163   1.882
57686W        W30034  27.130   7.237  11.128
57687W        W30035  32.984  17.662  11.121
57688W        W30036  33.559  43.843  14.902
57689W        W30037  22.073  20.237  12.508
57690W        W30038  21.194  29.461   0.898
57691W        W30039   2.894  30.150  10.445
57692W        W30040   1.845  34.501  10.929
57693W        W30041   9.329  14.315  10.497
57694W        W30042  31.002  17.653   2.833
57695W        W30043  21.093  35.938  12.512
57696W        W30044  34.926  31.061   3.821
57697W        W30045   4.306  36.055   4.316
57698W        W30046  41.435  37.909   2.418
57699W        W30047  12.714   8.301  10.461
57700W        W30048  34.022  31.958   2.349
57701W        W30049   7.243   9.670  12.503
57702W        W30050  10.832  22.658  10.979
57703W        W30051  43.922   4.711  14.499
57704W        W30052  41.440  20.219   2.228
57705W        W30053  14.124  32.522   0.313
57706W        W30054  14.708   2.773   0.844
57707W        W30055   8.872  25.479   4.332
57708W        W30056   1.819  20.649   4.268
57709W        W30057  18.132  14.784   3.739
57710W        W30058  15.202   2.448  10.495
57711W        W30059  18.091  38.943  12.892
57712W        W30060  18.782  38.842  14.344
57713W        W30061  18.722  27.471  10.624
57714W        W30062   1.798  17.132  11.901
57715W        W30063  41.920  36.356  13.984
57716W        W30064  40.356  19.194   4.348
57717W        W30065  10.644  17.071   3.354
57718W        W30066   7.727  27.192   2.272
57719W        W30067   9.657  37.000   3.770
57720W        W30068  28.479   4.776   1.857
57721W        W30069  34.374  25.006   3.260
57722W        W30070  29.108   1.737   2.268
57723W        W30071  44.463  33.502  12.397
57724W        W30072   3.439  32.085   1.396
57725W        W30073   3.323  38.416   4.337
57726W        W30074  13.782  18.206   3.349
57727W        W30075  15.640  32.572  13.492
57728W        W30076  15.108  29.447  10.626
57729W        W30077  21.018  34.455  13.353
57730W        W30078   4.293  20.088  13.026
57731W        W30079   5.242  42.922  11.094
57732W        W30080   4.836   3.948   0.408
57733W        W30081  37.844  17.297  14.376
57734W        W30082  37.991  32.089   1.839
57735W        W30083  11.857  31.975   3.723
57736W        W30084  19.554  40.988  14.994
57737W        W30085  27.986  32.509  13.391
57738W        W30086  40.027  24.025   4.340
57739W        W30087   6.747  39.829   2.847
57740W        W30088  19.188  33.874  11.496
57741W        W30089  36.385  19.584   9.958
57742W        W30090   6.772  20.523  13.922
57743W        W30091   1.327  44.499  13.379
57744W        W30092  18.638  17.241  13.434
57745W        W30093   3.362  44.812  11.908
57746W        W30094  36.980  22.736  13.399
57747W        W30095  44.870  44.004  14.784
57748W        W30096  21.246  11.203  14.973
57749W        W30097  18.581   2.366  14.381
57750W        W30098  33.441  40.512  14.866
57751W        W30099  23.099  38.429  11.596
57752W        W30100   7.874   0.744   3.675
57753W        W30101   3.859  12.795  13.885
57754W        W30102  12.359  33.496   1.915
57755W        W30103  12.360  33.123   0.354
57756W        W30104  42.412  12.300  11.077
57757W        W30105  31.503  17.081  12.033
57758W        W30106  21.657   2.759  13.380
57759W        W30107  22.704   7.728  14.986
57760W        W30108   9.781   8.168  13.993
57761W        W30109   3.303  23.675   3.178
57762W        W30110  19.226   6.838  13.867
57763W        W30111  24.173  34.466   3.756
57764W        W30112  26.959  43.409  11.559
57765W        W30113   2.360  25.705   3.699
57766W        W30114  12.855  16.182   4.683
57767W        W30115  24.708  35.015  12.088
57768W        W30116  38.846  31.926   4.782
57769W        W30117  18.202  39.322  14.466
57770W        W30118  24.162  41.448  10.432
57771W        W30119  42.934  21.259   4.740
57772W        W30120  42.327  16.770  13.870
57773W        W30121  22.667  34.077  14.032
57774W        W30122   4.842  30.465   3.830
57775W        W30123  41.923  15.798   2.249
57776W        W30124  13.228  11.862   0.759
57777W        W30125  10.788  13.270   2.882
57778W        W30126  27.133  40.977  14.783
57779W        W30127  15.759  33.415   3.847
57780W        W30128  38.434  43.390  13.493
57781W        W30129  30.642  34.527  11.111
57782W        W30130  10.283  18.638   1.374
57783W        W30131   7.769  30.567   2.864
57784W        W30132   1.334   2.368   3.652
57785W        W30133  15.817  34.490  14.497
57786W        W30134  16.662  39.441   2.369
57787W        W30135  30.023  10.310   0.353
57788W        W30136  20.146   0.363   1.844
57789W        W30137  15.145   0.438   1.379
57790W        W30138   7.878  41.961   0.775
57791W        W30139  23.530  20.241   1.767
57792W        W30140   3.796  32.982   3.664
57793W        W30141  21.603  23.652  10.560
57794W        W30142   9.166  27.451   1.925
57795W        W30143  28.538  38.912  12.528
57796W        W30144  31.580  10.759  11.067
57797W        W30145  30.491  21.201   4.675
57798W        W30146  17.188   9.728  14.383
57799W        W30147  12.628  29.044  13.025
57800W        W30148   7.848  26.999   2.741
57801W        W30149  25.982  39.060  14.868
57802W        W30150  26.600  21.663   1.414
57803W        W30151  12.176  17.779   4.831
57804W        W30152  32.459  29.657  10.569
57805W        W30153   3.376  37.836   0.415
57806W        W30154  35.937  41.350   4.273
57807W        W30155  37.931  23.142   2.801
57808W        W30156  31.929  33.435   3.845
57809W        W30157  15.159  33.461  12.031
57810W        W30158  33.129  33.399  10.958
57811W        W30159  44.407   2.843  13.909
57812W        W30160  42.507  20.057   0.482
57813W        W30161  16.806  10.719  11.043
57814W        W30162  24.574  31.609   3.769
57815W        W30163  18.606  13.151  14.439
57816W        W30164  28.499  17.200  12.425
57817W        W30165   9.246  42.413  14.392
57818W        W30166  12.698  25.030   3.318
57819W        W30167  27.064  20.638   3.363
57820W        W30168  19.232  21.731   3.704
57821W        W30169  15.588  13.727  10.518
57822W        W30170  43.364  25.597   3.310
57823W        W30171   6.285   5.392  10.572
57824W        W30172  36.539  23.150   1.770
57825W        W30173   9.653  33.002   3.165
57826W        W30174  38.559  33.447  10.968
57827W        W30175  25.655  20.131   1.234
57828W        W30176  25.009  16.691  13.979
57829W        W30177  16.568   2.279  13.900
57830W        W30178  38.041  33.615   3.373
57831W        W30179  31.504   0.331  11.463
57832W        W30180  13.192  24.510   2.192
57833W        W30181   3.295  12.723  13.857
57834W        W30182  30.582   4.757   1.883
57835W        W30183  15.748  13.233  11.081
57836W        W30184  31.619  38.921   0.949
57837W        W30185   0.351  14.307  11.428
57838W        W30186  29.141  21.187   0.789
57839W        W30187  26.021  35.950  12.445
57840W        W30188  37.509  38.432   1.262
57841W        W30189  32.084  26.459  13.309
57842W        W30190   6.244  27.613   2.232
57843W        W30191   6.426   1.829   2.730
57844W        W30192   9.336  33.974   3.210
57845W        W30193  35.596   0.962  12.396
57846W        W30194  42.490  33.533   4.332
57847W        W30195  21.675   3.221   1.265
57848W        W30196   6.878  29.006   2.279
57849W        W30197  34.943   6.787  10.945
57850W        W30198   1.457  22.664   1.213
57851W        W30199  32.473  15.653   4.178
57852W        W30200  32.971   1.750  12.403
57853W        W30201  31.544  33.546  13.384
57854W        W30202  38.360  36.908   2.701
57855W        W30203  28.011  44.786   2.192
57856W        W30204   8.223  40.864  14.803
57857W        W30205  41.379   5.906   0.279
57858W        W30206  35.414  40.942   3.326
57859W        W30207  35.929   8.281   3.171
57860W        W30208  41.309   2.396   1.358
57861W        W30209  27.647  31.550  13.371
57862W        W30210  13.780   8.752   3.688
57863W        W30211   7.742  23.624  11.890
57864W        W30212  28.488  29.068   1.820
57865W        W30213  25.634  23.663  10.404
57866W        W30214  11.272  31.110   1.805
57867W        W30215  44.441  26.082  11.103
57868W        W30216  17.101  15.653   1.313
57869W        W30217  35.077  31.419  10.491
57870W        W30218   0.423  36.491  12.384
57871W        W30219  14.624  29.992   1.329
57872W        W30220   0.415  31.102   2.217
57873W        W30221  21.643   6.753  13.964
57874W        W30222   9.338  42.862   0.916
57875W        W30223   0.925  28.453  14.945
57876W        W30224  33.529  40.984  10.086
57877W        W30225  18.728  15.657   2.418
57878W        W30226  18.291  10.376   0.831
57879W        W30227  44.961  13.193   1.215
57880W        W30228   2.389   9.154   1.428
57881W        W30229  40.533  12.191   0.757
57882W        W30230  16.679  40.481  14.883
57883W        W30231   4.325  35.586  14.421
57884W        W30232  39.509  13.776  13.054
57885W        W30233   0.960   9.784   1.911
57886W        W30234   0.324   1.327  14.473
57887W        W30235  35.495  17.571  14.287
57888W        W30236  20.539  13.183  14.961
57889W        W30237   6.910   4.852   3.762
57890W        W30238   6.376  27.625   2.885
57891W        W30239  23.039  12.130   2.704
57892W        W30240  36.960  23.709   2.220
57893W        W30241  20.576   5.744   1.920
57894W        W30242  30.651   6.915   1.920
57895W        W30243  30.467  27.575   2.895
57896W        W30244  16.773  44.327  13.003
57897W        W30245  15.282  44.303   2.854
57898W        W30246   1.745  18.551   0.758
57899W        W30247  24.183  32.065  11.902
57900W        W30248  10.768  37.061  10.933
57901W        W30249   1.277   8.360  13.337
57902W        W30250  44.006   7.389   1.309
57903W        W30251  23.621  36.515  11.544
57904W        W30252  15.727  31.949  12.082
57905W        W30253  24.698  39.874  11.042
57906W        W30254  22.687  40.927   2.258
57907W        W30255  37.031  37.578   2.236
57908W        W30256  28.598  41.954  11.374
57909W        W30257  36.406  27.124   1.318
57910W        W30258  20.726  27.621   3.218
57911W        W30259  22.511  22.642   3.675
57912W        W30260   7.668  16.599   3.856
57913W        W30261  36.365  30.610   2.388
57914W        W30262  34.452  43.936   4.631
57915W        W30263  14.303   9.232   3.352
57916W        W30264  29.088  22.071   0.307
57917W        W30265  37.566   4.907   9.620
57918W        W30266  21.170  19.543   2.390
57919W        W30267   0.750   7.875   2.253
57920W        W30268  26.026   2.791  10.500
57921W        W30269  40.876  39.432  14.433
57922W        W30270  26.056  27.573  12.433
57923W        W30271  42.934  40.384   1.730
57924W        W30272  15.677   2.417   3.202
57925W        W30273  27.138  26.693  14.326
57926W        W30274  28.604  35.396  11.414
57927W        W30275   9.202  19.742  11.919
57928W        W30276  10.287  12.710   3.146
57929W        W30277  26.973  26.178  13.806
57930W        W30278  39.906  32.604   0.401
57931W        W30279  30.136   1.363   0.922
57932W        W30280   0.856  21.179   2.404
57933W        W30281  38.391  20.219   2.758
57934W        W30282  13.312  39.319  14.443
57935W        W30283  42.870   6.786  12.854
57936W        W30284  10.307  13.280  11.916
57937W        W30285  29.469  21.716  14.326
57938W        W30286  33.522  44.272  11.124
57939W        W30287  16.276   6.769   0.411
57940W        W30288  10.754  21.571  11.919
57941W        W30289   0.315  16.084  11.426
57942W        W30290   7.696  28.490  13.913
57943W        W30291   3.713   5.279  10.603
57944W        W30292  25.694  11.167   4.670
57945W        W30293  38.418  28.511   2.798
57946W        W30294  10.648  41.302   2.290
57947W        W30295  33.618  35.420   3.664
57948W        W30296   7.248   6.391   2.405
57949W        W30297  37.965  14.276  13.963
57950W        W30298  24.665   7.861  11.509
57951W        W30299  41.467  10.193   0.447
57952W        W30300   7.203  33.463  14.790
57953W        W30301   1.337   1.902  10.980
57954W        W30302  31.952  22.661   1.761
57955W        W30303  33.016  35.958  13.319
57956W        W30304  40.803  24.189   2.376
57957W        W30305  33.468  29.155  14.930
57958W        W30306  19.113  26.522   1.746
57959W        W30307  29.532   0.859  13.793
57960W        W30308  21.126  13.679   4.724
57961W        W30309   8.305   9.791   0.336
57962W        W30310  30.528  19.161   4.682
57963W        W30311  25.012  26.054  13.456
57964W        W30312   5.815   9.211   1.925
57965W        W30313  29.994  19.043   1.272
57966W        W30314  43.841  27.460  12.467
57967W        W30315  41.894  34.518   4.128
57968W        W30316   2.861  27.113  13.833
57969W        W30317  35.381  27.451   0.388
57970W        W30318  38.507  41.872   3.367
57971W        W30319  40.016  19.045  13.823
57972W        W30320  15.782  36.436   1.304
57973W        W30321  44.819  22.164   4.310
57974W        W30322  32.017   5.342   4.727
57975W        W30323  32.099  39.374   3.189
57976W        W30324  28.438  39.433  13.028
57977W        W30325  23.608  43.411  12.383
57978W        W30326  14.832  42.434  14.365
57979W        W30327   4.230  43.854  11.860
57980W        W30328  17.239  35.005  12.978
57981W        W30329   4.771  33.005   3.174
57982W        W30330   4.366  11.332  11.497
57983W        W30331  11.750  34.999   5.251
57984W        W30332  35.400  14.297  11.909
57985W        W30333  44.891  21.086   4.675
57986W        W30334  32.602   1.947   2.893
57987W        W30335  32.927  12.228   1.297
57988W        W30336  29.066  36.849  11.507
57989W        W30337   5.922  10.803  13.837
57990W        W30338  41.433  23.063  12.842
57991W        W30339  20.524  24.022   2.294
57992W        W30340   3.836   7.331  11.037
57993W        W30341  37.564  12.789  13.956
57994W        W30342  13.326  40.800  12.949
57995W        W30343   2.841  15.682   2.321
57996W        W30344  35.396  21.034  14.896
57997W        W30345  22.129   8.395  12.388
57998W        W30346  36.942  37.856  11.942
57999W        W30347  38.512  40.348  13.529
58000W        W30348   5.323  30.437   5.299
58001W        W30349  29.035  35.919   0.245
58002W        W30350  22.565  10.811   4.636
58003W        W30351  31.551  12.223   4.791
58004W        W30352   9.262  35.868  13.793
58005W        W30353  18.271  12.731  10.408
58006W        W30354  19.549  21.069   4.353
58007W        W30355  11.806  44.426  11.101
58008W        W30356  29.455   4.744  13.351
58009W        W30357  35.551  31.006  10.463
58010W        W30358  26.675   2.276  13.385
58011W        W30359  38.420  33.569  12.932
58012W        W30360  41.833  32.470   2.691
58013W        W30361  29.461  31.984  14.973
58014W        W30362  17.760  37.364   1.739
58015W        W30363   8.190  17.599  14.279
58016W        W30364   1.847  13.819  12.851
58017W        W30365   7.196  21.523   4.282
58018W        W30366  13.182  20.685  11.570
58019W        W30367  28.578  21.246  14.336
58020W        W30368   3.381  33.937   2.204
58021W        W30369   9.198  13.701   3.709
58022W        W30370  28.549  19.753  12.920
58023W        W30371  42.029   5.931  13.053
58024W        W30372  25.614  12.302   4.236
58025W        W30373  14.341  13.328  13.362
58026W        W30374  15.629  33.912   4.733
58027W        W30375  22.710  26.654   0.901
58028W        W30376  24.163  20.157   1.845
58029W        W30377   9.872  33.613   2.403
58030W        W30378  39.030  27.552  13.955
58031W        W30379   5.851  22.631   1.222
58032W        W30380  17.557  42.419  13.954
58033W        W30381   5.203  13.340  13.993
58034W        W30382   3.768   7.715   1.912
58035W        W30383  16.077  17.626  12.440
58036W        W30384  16.696   8.669  14.775
58037W        W30385  12.194   9.756  14.444
58038W        W30386  40.507  43.788  11.099
58039W        W30387  35.457  11.325   1.235
58040W        W30388  16.766  37.525   4.779
58041W        W30389  18.232  15.152   4.625
58042W        W30390  44.010  31.418   2.360
58043W        W30391   1.771  40.441   2.783
58044W        W30392   3.237  21.615   1.900
58045W        W30393   0.435  41.421  10.993
58046W        W30394  36.423  31.986  12.490
58047W        W30395  20.144  43.801  13.436
58048W        W30396  32.616   1.777  12.429
58049W        W30397  24.652  30.557   3.195
58050W        W30398  28.039  37.041   3.690
58051W        W30399   2.318  34.051  12.925
58052W        W30400  12.744   2.755   2.264
58053W        W30401  36.579  29.101  14.010
58054W        W30402   6.686   1.799   4.158
58055W        W30403  40.545   7.319  13.040
58056W        W30404   2.239  26.489  10.044
58057W        W30405  19.242  21.224   4.813
58058W        W30406  18.628  23.160   4.766
58059W        W30407  41.375   1.779  13.050
58060W        W30408  43.437  17.244  10.468
58061W        W30409  17.126   5.364  12.542
58062W        W30410  21.672  24.597  10.630
58063W        W30411  13.327  21.723  11.880
58064W        W30412  39.418  16.692  12.006
58065W        W30413  22.051  31.561  11.128
58066W        W30414  31.137  14.620   0.925
58067W        W30415  12.286  24.225   0.867
58068W        W30416  39.509  26.976   2.301
58069W        W30417  26.604  43.954   4.275
58070W        W30418  13.346  44.268  12.425
58071W        W30419  41.014  13.207  13.945
58072W        W30420  44.783  22.236   0.352
58073W        W30421  12.639   1.845   2.829
58074W        W30422  31.062  42.339   4.192
58075W        W30423  42.022  13.313  11.397
58076W        W30424  40.844   1.909   0.957
58077W        W30425  22.605  34.481  11.973
58078W        W30426  17.278  20.247   2.316
58079W        W30427  39.339   7.704   0.801
58080W        W30428  42.356  26.196  13.524
58081W        W30429  31.422  18.103   4.221
58082W        W30430  20.259  44.944  12.914
58083W        W30431  43.795   2.250   4.226
58084W        W30432  33.030  33.429   0.282
58085W        W30433   3.750   6.420  13.870
58086W        W30434  41.430  42.015   4.202
58087W        W30435  38.961  39.995   3.312
58088W        W30436   9.722  12.172   1.349
58089W        W30437  15.728  42.398   4.320
58090W        W30438  18.056  40.453   0.882
58091W        W30439   1.788  16.181   3.758
58092W        W30440  38.488  35.476  11.384
58093W        W30441  25.190  26.592  13.945
58094W        W30442  17.274  12.707  10.889
58095W        W30443   2.311  28.469  12.911
58096W        W30444  31.476  34.398   3.285
58097W        W30445  43.943  14.291   1.451
58098W        W30446  29.122   9.152  11.063
58099W        W30447   0.422   8.878  14.886
58100W        W30448  30.044  40.943  14.778
58101W        W30449  41.817  24.994   3.676
58102W        W30450  30.954  24.019  14.817
58103W        W30451  31.064  41.426   3.362
58104W        W30452   0.420  14.618  12.496
58105W        W30453   7.671  10.810   3.767
58106W        W30454  30.105  30.418  13.360
58107W        W30455  16.632  17.061   0.756
58108W        W30456  16.099  11.260   9.581
58109W        W30457  22.646  10.323  10.464
58110W        W30458  13.803   5.412  14.385
58111W        W30459  18.663  34.998   1.813
58112W        W30460  34.001  27.022   4.205
58113W        W30461  27.079  18.750  14.924
58114W        W30462  34.559   0.412  13.803
58115W        W30463  32.542  31.430   1.896
58116W        W30464  23.999  44.408   4.615
58117W        W30465  14.320  17.216  13.922
58118W        W30466   2.464  21.033   4.227
58119W        W30467  29.979  12.124  13.823
58120W        W30468  16.133  15.205  12.886
58121W        W30469   4.226  32.531   0.830
58122W        W30470  13.308  17.220   2.255
58123W        W30471  23.046  19.205   3.852
58124W        W30472  18.126  12.823  12.988
58125W        W30473  36.557  37.401  10.514
58126W        W30474   8.278  20.267   9.489
58127W        W30475  24.055  34.389   0.922
58128W        W30476  17.219   2.256   2.263
58129W        W30477  11.295  41.465  14.497
58130W        W30478  25.982   2.334   4.720
58131W        W30479   8.399  11.814  11.418
58132W        W30480  34.607  17.291   3.668
58133W        W30481  26.058   2.908  14.878
58134W        W30482   2.954  40.307   0.893
58135W        W30483  42.452  31.408  10.587
58136W        W30484  33.417  27.049   4.235
58137W        W30485   3.857  10.777  10.542
58138W        W30486  31.524  26.593   4.278
58139W        W30487  32.454  41.375   2.338
58140W        W30488  10.675  13.344   4.137
58141W        W30489  23.692  37.524   3.168
58142W        W30490  31.638  27.994  14.933
58143W        W30491  26.597   5.752  11.124
58144W        W30492  27.662  37.433  11.517
58145W        W30493  26.663  23.060   3.713
58146W        W30494  30.089  34.441  12.482
58147W        W30495  13.717   5.230   0.353
58148W        W30496   7.905  15.649   2.813
58149W        W30497  18.744  15.720  10.999
58150W        W30498  36.885  22.070   0.743
58151W        W30499  25.686  26.068   0.285
58152W        W30500  37.900  41.873  11.908
58153W        W30501  34.004  14.621  13.868
58154W        W30502  36.547  39.466  14.359
58155W        W30503   5.435  35.973   3.185
58156W        W30504  37.345  33.506  11.025
58157W        W30505  29.975  22.575   1.336
58158W        W30506  27.035  18.084   3.799
58159W        W30507  32.029  35.941   5.145
58160W        W30508  17.063  31.564  10.500
58161W        W30509   9.385  12.852  11.004
58162W        W30510  35.410   7.390   1.425
58163W        W30511  43.860  24.125  13.336
58164W        W30512  30.074   8.773  14.786
58165W        W30513  15.644  31.463  11.555
58166W        W30514  29.530  30.496  11.003
58167W        W30515   2.391  44.431   1.449
58168W        W30516  13.716  29.011  12.970
58169W        W30517  22.723  24.148  14.336
58170W        W30518   3.295  40.417  14.801
58171W        W30519   6.204   7.765  12.899
58172W        W30520  27.565  30.541  12.054
58173W        W30521   8.341  42.984   1.709
58174W        W30522  35.587  29.023  14.768
58175W        W30523   8.192  16.209  12.989
58176W        W30524  14.811  12.218  14.837
58177W        W30525  32.929  27.045   0.293
58178W        W30526  34.370  29.527  11.877
58179W        W30527  12.269   8.830  11.029
58180W        W30528  35.950  12.156  12.833
58181W        W30529   2.448  35.900  12.931
58182W        W30530  42.320  24.591   1.220
58183W        W30531  21.555   4.836   0.427
58184W        W30532  27.025  34.583  13.927
58185W        W30533  30.578  38.925   1.823
58186W        W30534  41.515   7.845   5.238
58187W        W30535  31.433  15.209   2.372
58188W        W30536  32.064  40.868   0.916
58189W        W30537   4.229  41.916   1.271
58190W        W30538  43.809   6.815  10.434
58191W        W30539  30.096   0.817   3.241
58192W        W30540  18.075  29.509   0.799
58193W        W30541   8.765  31.016   1.895
58194W        W30542  28.639  12.356  14.294
58195W        W30543  38.359  32.916  10.570
58196W        W30544  35.361  21.193  10.114
58197W        W30545  39.997   8.391   0.735
58198W        W30546  44.268  21.261   3.179
58199W        W30547   6.195  26.545   0.933
58200W        W30548  11.215  29.964  11.376
58201W        W30549  14.643  31.484   4.343
58202W        W30550  15.782  42.333  13.374
58203W        W30551  29.919  14.184   4.198
58204W        W30552   3.367  34.983   1.291
58205W        W30553  42.952  22.642  14.467
58206W        W30554   8.678  12.205   2.679
58207W        W30555   7.240  28.937  14.937
58208W        W30556  43.022  28.131  12.856
58209W        W30557  29.479   3.375  11.935
58210W        W30558  34.393  11.793   4.690
58211W        W30559   9.367  35.021   4.182
58212W        W30560  39.421  18.098   2.359
58213W        W30561  15.661  19.742  12.457
58214W        W30562  17.719  31.425  14.288
58215W        W30563  35.068  39.548  11.497
58216W        W30564  12.644  38.555  14.929
58217W        W30565  20.085  13.843  13.545
58218W        W30566   8.785  41.957  11.548
58219W        W30567  26.465  17.287   5.118
58220W        W30568  40.008  17.585   0.812
58221W        W30569  21.633  18.194   0.324
58222W        W30570  21.622  25.710  14.443
58223W        W30571  41.866  44.452  13.384
58224W        W30572  37.834  22.186   5.213
58225W        W30573  24.040  29.094  11.000
58226W        W30574   6.696  25.702  14.836
58227W        W30575  26.120  41.902  11.929
58228W        W30576   4.728   1.797  12.396
58229W        W30577  21.197  41.791  14.400
58230W        W30578  37.516   6.240   3.665
58231W        W30579  34.418  14.187  10.420
58232W        W30580  43.933  31.480   0.425
58233W        W30581  18.287   4.223   1.843
58234W        W30582  21.548  21.171  14.945
58235W        W30583  29.159   6.414   3.861
58236W        W30584  32.429  31.574   3.272
58237W        W30585  12.212  10.363   3.752
58238W        W30586  39.859  23.115  13.448
58239W        W30587  37.021  19.068   0.434
58240W        W30588   8.223  17.578   0.275
58241W        W30589   7.262  15.803  14.760
58242W        W30590  12.616  32.397   0.394
58243W        W30591   1.273  10.146  11.568
58244W        W30592  32.404  14.646   0.285
58245W        W30593  22.015  27.991   2.390
58246W        W30594  19.146  35.032  11.421
58247W        W30595   8.361  34.600  14.759
58248W        W30596  26.554  39.518   4.162
58249W        W30597  20.071  29.052   3.255
58250W        W30598  36.385   2.383  11.973
58251W        W30599   5.288   4.265  10.523
58252W        W30600  40.396  38.938   5.200
58253W        W30601  42.795   6.833  14.343
58254W        W30602  24.123  21.652   3.841
58255W        W30603  23.499  28.503   2.852
58256W        W30604   7.725  14.748  12.531
58257W        W30605  12.814  38.354   1.765
58258W        W30606  22.661  20.119   3.181
58259W        W30607   7.214   9.719  11.875
58260W        W30608  34.981   3.951  11.860
58261W        W30609  10.666  43.325  11.127
58262W        W30610  11.854  10.336  10.970
58263W        W30611   2.226   1.890   5.090
58264W        W30612  27.594   2.894  11.112
58265W        W30613  13.794  30.637   1.756
58266W        W30614  14.827  36.553  11.866
58267W        W30615  13.626  44.918   3.656
58268W        W30616   7.180  25.514   3.688
58269W        W30617   8.362  23.001  12.000
58270W        W30618   2.392  34.939   4.219
58271W        W30619  33.016   1.767   3.307
58272W        W30620  19.121  14.590  12.844
58273W        W30621  20.147  24.104   2.744
58274W        W30622   6.305  31.555  11.115
58275W        W30623  24.665   7.860   1.760
58276W        W30624  16.158   7.342   0.450
58277W        W30625  42.865   3.810  10.455
58278W        W30626  26.188   1.241   3.379
58279W        W30627  19.041  14.219   1.242
58280W        W30628  11.862  36.005  12.453
58281W        W30629   4.847  17.304  13.982
58282W        W30630  31.083   0.336   3.166
58283W        W30631  14.254   9.240   4.182
58284W        W30632  37.922   5.900  11.384
58285W        W30633   9.234   4.837  13.058
58286W        W30634   5.835  19.731   0.272
58287W        W30635  35.080  41.469   2.283
58288W        W30636   0.860   2.382   1.308
58289W        W30637  19.728  40.354  10.931
58290W        W30638  39.344  18.548  10.956
58291W        W30639  39.493  18.669   3.186
58292W        W30640  33.905  34.458   0.862
58293W        W30641   5.887  16.167   4.795
58294W        W30642  27.182  21.611  11.028
58295W        W30643  18.262   2.432   4.129
58296W        W30644  24.487  33.509  13.859
58297W        W30645  26.035  44.759   4.292
58298W        W30646  19.670  30.446   1.708
58299W        W30647  10.825  36.378   2.900
58300W        W30648  44.791  42.868   4.597
58301W        W30649   5.245  37.015   0.793
58302W        W30650   5.371  11.312   4.186
58303W        W30651  12.644  20.065  11.063
58304W        W30652  29.650  11.717   1.421
58305W        W30653  12.339   2.850   1.384
58306W        W30654  33.582  38.383   0.790
58307W        W30655   2.349  28.084   4.347
58308W        W30656  38.539  35.550  12.367
58309W        W30657  23.505   4.232  13.521
58310W        W30658  41.367  43.384  14.511
58311W        W30659  28.175   0.313  11.096
58312W        W30660  39.865   5.257  11.432
58313W        W30661  20.092  21.664   0.912
58314W        W30662   9.703  28.437   4.140
58315W        W30663   7.759  18.779   0.396
58316W        W30664   9.195  21.717   3.382
58317W        W30665  34.082  44.309   4.175
58318W        W30666  40.938  27.554   0.965
58319W        W30667   6.865  18.163  11.578
58320W        W30668  10.290  29.525  13.465
58321W        W30669  16.697  32.042  14.983
58322W        W30670  35.003  12.809  10.543
58323W        W30671   0.818  30.607  12.901
58324W        W30672  20.553   6.228   2.668
58325W        W30673  12.806  40.469   0.279
58326W        W30674  16.177   1.336   4.814
58327W        W30675  13.303   6.705  12.957
58328W        W30676  34.511  43.494  11.868
58329W        W30677  44.871   8.685   0.815
58330W        W30678  43.959  37.515  12.383
58331W        W30679   2.956  40.003  14.367
58332W        W30680   3.914  13.330   3.253
58333W        W30681  26.113  37.342   1.435
58334W        W30682   3.241   4.772  14.824
58335W        W30683  29.587  41.903  12.918
58336W        W30684   6.788  31.405   2.856
58337W        W30685  30.028  24.692  12.969
58338W        W30686   6.331   9.159  13.814
58339W        W30687   9.786  29.141  13.481
58340W        W30688  13.617  12.635   4.257
58341W        W30689  33.599  38.335  12.853
58342W        W30690  28.586  35.381   1.257
58343W        W30691  12.359  35.069  12.456
58344W        W30692   0.291   3.770  10.525
58345W        W30693  23.038  30.019  10.931
58346W        W30694  35.911   3.938   2.282
58347W        W30695  32.081  29.936  14.029
58348W        W30696  14.614  36.950  10.641
58349W        W30697  18.788  33.587   2.720
58350W        W30698  40.975  15.241   1.276
58351W        W30699   6.277  41.462   5.188
58352W        W30700  25.969  38.858  11.485
58353W        W30701  22.243  11.190   3.802
58354W        W30702  15.631  40.038  11.867
58355W        W30703  19.585  15.611  12.926
58356W        W30704   4.391  16.783  12.960
58357W        W30705  26.677  10.870  12.966
58358W        W30706  34.904  22.511  11.902
58359W        W30707   5.771  11.280  13.820
58360W        W30708  29.962  25.564  14.922
58361W        W30709   8.826  40.438   1.789
58362W        W30710  10.335   0.260  10.125
58363W        W30711  39.467  15.127  14.806
58364W        W30712  35.928  11.134  14.983
58365W        W30713  37.085  32.413   3.175
58366W        W30714   6.339  25.632  13.539
58367W        W30715  15.148  38.909   0.865
58368W        W30716  37.431  30.027  11.970
58369W        W30717   8.341  19.721  11.419
58370W        W30718  19.706  15.732   3.243
58371W        W30719   0.298  35.455  13.854
58372W        W30720  20.130  43.297   1.759
58373W        W30721   1.360  22.190   1.864
58374W        W30722   4.779  35.405  12.883
58375W        W30723  41.483  19.615   2.854
58376W        W30724  11.251   8.881   2.376
58377W        W30725  14.141  30.452   4.335
58378W        W30726   9.792   2.381  11.945
58379W        W30727  38.821  11.294   2.418
58380W        W30728  27.992   5.798  10.564
58381W        W30729  36.969  20.038  10.582
58382W        W30730   2.739   6.795   1.934
58383W        W30731  22.188  14.683  13.496
58384W        W30732  33.461   5.839  10.589
58385W        W30733  12.736   9.235  14.984
58386W        W30734  30.482  35.453   1.392
58387W        W30735  21.614  15.720   0.482
58388W        W30736  35.534  26.519  14.785
58389W        W30737  30.563   5.763   0.787
58390W        W30738  29.666  39.448  10.916
58391W        W30739   5.291   7.369  10.423
58392W        W30740   8.753   1.364  11.534
58393W        W30741  23.614  14.211  13.405
58394W        W30742  23.129  30.916  11.866
58395W        W30743  43.341  30.524  12.019
58396W        W30744  40.047   8.706   4.712
58397W        W30745  27.572   3.298  11.453
58398W        W30746  20.656  16.106  11.005
58399W        W30747  10.357  28.581   3.239
58400W        W30748  10.168  42.885   2.826
58401W        W30749  15.196  27.950   4.784
58402W        W30750  18.772  18.788  14.834
58403W        W30751  38.056  18.203   4.144
58404W        W30752   4.266  24.673  14.283
58405W        W30753   5.372  24.574   4.140
58406W        W30754  16.186  31.607  12.830
58407W        W30755  33.547  43.945  13.056
58408W        W30756  43.415   8.772   3.757
58409W        W30757   2.397  36.888   0.275
58410W        W30758   2.370   1.452  13.899
58411W        W30759  25.215   1.811   3.353
58412W        W30760  41.956  21.100  11.962
58413W        W30761  29.607  10.834  12.081
58414W        W30762  39.506  15.635   0.853
58415W        W30763  22.237  20.615  11.965
58416W        W30764   3.819  10.663   2.781
58417W        W30765   3.416   6.724  11.478
58418W        W30766  22.597  42.987  10.904
58419W        W30767  23.691  30.638  12.057
58420W        W30768  23.998   1.861   0.296
58421W        W30769  19.267  11.806  10.628
58422W        W30770  20.547   3.434  13.010
58423W        W30771  17.695   7.192   4.343
58424W        W30772  41.338  14.179   2.356
58425W        W30773  10.326  38.916   3.784
58426W        W30774  11.158  43.444  11.049
58427W        W30775  20.220  12.162  10.598
58428W        W30776  41.459  22.583  14.814
58429W        W30777   8.160  39.509  10.516
58430W        W30778  42.393  32.434  12.496
58431W        W30779  18.550  42.867  13.441
58432W        W30780   4.874  41.380  12.440
58433W        W30781  34.567  42.902   4.797
58434W        W30782  22.597  34.895  11.090
58435W        W30783  19.278  37.397   0.934
58436W        W30784  41.409  40.538   5.264
58437W        W30785   2.371  38.051  11.447
58438W        W30786  39.511  38.017   3.643
58439W        W30787  28.670  38.540  12.368
58440W        W30788  17.065  36.946   3.220
58441W        W30789  16.616  10.821  10.546
58442W        W30790   4.940  16.193  14.312
58443W        W30791  35.436   3.877  11.446
58444W        W30792   5.729  39.894  13.906
58445W        W30793  12.850  43.791  14.004
58446W        W30794   1.457  20.751   3.373
58447W        W30795  20.251  28.662   2.298
58448W        W30796  23.548   2.893  14.302
58449W        W30797  14.820  44.387   2.293
58450W        W30798  39.541   0.873   2.891
58451W        W30799   9.385  12.617   2.734
58452W        W30800  12.326  16.265   4.758
58453W        W30801  16.592   9.279  12.394
58454W        W30802   1.735  35.062  13.424
58455W        W30803  39.424  12.183   2.785
58456W        W30804  18.786   3.844   2.404
58457W        W30805  38.340  13.279  11.511
58458W        W30806  38.425  36.475   2.796
58459W        W30807   1.879   4.324  13.046
58460W        W30808  32.935  38.336   3.332
58461W        W30809  18.651  27.029   3.809
58462W        W30810  23.191  11.783  14.998
58463W        W30811  16.764  11.853  12.440
58464W        W30812   1.854  43.911   3.787
58465W        W30813   5.855  10.641  12.492
58466W        W30814  15.319  25.640  11.402
58467W        W30815  26.550  16.130  14.871
58468W        W30816   3.720  26.195   3.803
58469W        W30817  38.027  15.175  12.464
58470W        W30818  38.871  30.974   5.144
58471W        W30819  44.790   9.890  12.476
58472W        W30820  22.249   3.266   4.248
58473W        W30821  31.438  35.012  10.451
58474W        W30822  23.538  26.174   4.198
58475W        W30823  36.481  44.879   0.890
58476W        W30824  29.605  36.959   2.220
58477W        W30825  11.671  14.231   5.271
58478W        W30826  32.510  21.099   4.622
58479W        W30827  24.025   8.880   3.863
58480W        W30828  25.977  36.909   2.819
58481W        W30829  36.365  20.733  10.624
58482W        W30830  42.888   1.257  13.545
58483W        W30831  25.489  24.705  11.600
58484W        W30832   6.202  36.965   2.311
58485W        W30833  22.029  34.065   0.243
58486W        W30834  32.466   8.874  12.885
58487W        W30835  25.983  25.588   2.296
58488W        W30836  44.961  30.044   1.785
58489W        W30837   7.183  41.818  12.925
58490W        W30838  11.344  35.520   1.222
58491W        W30839  12.631  35.515  11.378
58492W        W30840  25.503  42.314   3.386
58493W        W30841  20.190  30.031   1.363
58494W        W30842  41.945  23.673  13.938
58495W        W30843  35.059  26.548   1.424
58496W        W30844  38.860  28.172  11.887
58497W        W30845  32.503  38.983  14.339
58498W        W30846   1.944  25.002  10.994
58499W        W30847  29.127  22.501  13.876
58500W        W30848  20.083  27.101  14.832
58501W        W30849  24.638   5.378   1.855
58502W        W30850  24.143  23.569  10.615
58503W        W30851  37.897  10.767   0.902
58504W        W30852   6.789   7.806  10.582
58505W        W30853  32.130   3.401  13.466
58506W        W30854  43.903  22.061  12.052
58507W        W30855   4.246  36.468   4.239
58508W        W30856   0.849  26.621   2.808
58509W        W30857  22.144  25.962  13.346
58510W        W30858  43.431   7.415   3.752
58511W        W30859  18.579   1.962  12.081
58512W        W30860   1.802   9.750  13.057
58513W        W30861  39.534   2.231  12.407
58514W        W30862  21.071  24.060  13.417
58515W        W30863  22.658  20.528   4.697
58516W        W30864  30.091  39.838   4.796
58517W        W30865   6.186  28.070  13.939
58518W        W30866   3.351   5.690   2.783
58519W        W30867  26.110   5.886   1.426
58520W        W30868  26.501  43.411   1.931
58521W        W30869  29.071  39.509  14.392
58522W        W30870  24.105   0.923   3.268
58523W        W30871   2.285  16.610  14.488
58524W        W30872   4.886  31.923   2.900
58525W        W30873   0.834  23.071   1.793
58526W        W30874  27.140  44.817   3.217
58527W        W30875   7.725   7.402   9.947
58528W        W30876  34.069  28.602  13.038
58529W        W30877  28.981  27.150  12.844
58530W        W30878  17.711  33.494  14.313
58531W        W30879   0.282   6.308  12.042
58532W        W30880  21.562  28.168   3.221
58533W        W30881  39.901  42.479  11.030
58534W        W30882  38.501  39.552  14.825
58535W        W30883  41.859  33.387  10.583
58536W        W30884  28.139  11.677   4.714
58537W        W30885  44.355   2.752   4.750
58538W        W30886  14.189  43.838  12.349
58539W        W30887  37.984   1.732   3.701
58540W        W30888   5.775  26.979  14.856
58541W        W30889  11.271  28.175  10.952
58542W        W30890  25.654  14.298  10.604
58543W        W30891  43.955   6.851   1.847
58544W        W30892  42.487  20.707   1.704
58545W        W30893  41.473  22.222  14.816
58546W        W30894   2.882  22.138   1.891
58547W        W30895  28.106  38.381   0.922
58548W        W30896  38.951  28.082  12.432
58549W        W30897   6.800  10.224   1.910
58550W        W30898   2.732   0.789   0.337
58551W        W30899  20.067   9.166   0.385
58552W        W30900   0.895  12.331  11.591
58553W        W30901  36.491  12.628  11.917
58554W        W30902   0.848   2.460   3.163
58555W        W30903  38.049  43.929   2.759
58556W        W30904  16.673  34.969   2.820
58557W        W30905   8.676  43.365  14.006
58558W        W30906  10.323  33.511   3.291
58559W        W30907  22.200  15.306   4.694
58560W        W30908  37.836  19.566   1.824
58561W        W30909  29.533  26.626  12.570
58562W        W30910  34.500  31.113   1.849
58563W        W30911  12.216  29.594  12.855
58564W        W30912  11.744  24.095  11.376
58565W        W30913  33.554  16.279   1.777
58566W        W30914  39.399  17.663   3.386
58567W        W30915   6.208  36.054   2.205
58568W        W30916  38.461  14.307   1.808
58569W        W30917   0.282  39.440  12.825
58570W        W30918   6.721  33.536   0.840
58571W        W30919  22.099  16.178   4.131
58572W        W30920  27.559  30.985  12.959
58573W        W30921  43.900  44.870  12.988
58574W        W30922  28.972  17.596  11.882
58575W        W30923  19.728  15.713  10.440
58576W        W30924  12.223  21.533  14.425
58577W        W30925  14.183  40.950  11.541
58578W        W30926  44.468   3.412   3.799
58579W        W30927  14.205  42.958   0.377
58580W        W30928  32.459  15.277   1.235
58581W        W30929  18.180  39.433  12.355
58582W        W30930  33.488  12.811  12.490
58583W        W30931   9.805  15.690   3.238
58584W        W30932   5.908  23.652   2.686
58585W        W30933   5.258  14.254  13.016
58586W        W30934   3.267  24.026   3.309
58587W        W30935  12.820  17.774  10.410
58588W        W30936  40.479  27.051   0.748
58589W        W30937  18.255  18.571   4.664
58590W        W30938   9.357  10.659  14.992
58591W        W30939   9.776   5.374  10.150
58592W        W30940  30.617  15.717   3.322
58593W        W30941   3.358  44.353   4.121
58594W        W30942   9.829  27.085   1.350
58595W        W30943  12.323  17.783  13.983
58596W        W30944  33.009  34.534  14.492
58597W        W30945  32.104   4.425  14.354
58598W        W30946   8.396  11.372   0.865
58599W        W30947  14.126   2.301   4.778
58600W        W30948  42.296  35.524   3.246
58601W        W30949  40.348  30.065   0.776
58602W        W30950   6.891  34.384  11.914
58603W        W30951  33.917  38.919  12.440
58604W        W30952  28.629  36.064  12.365
58605W        W30953   0.273   2.730   2.285
58606W        W30954   4.768  32.967  12.517
58607W        W30955   7.779   5.759   2.330
58608W        W30956  19.670  25.043  14.793
58609W        W30957  15.174  12.355   4.683
58610W        W30958   9.872   7.798   4.623
58611W        W30959  14.635  21.247   3.217
58612W        W30960  40.325  36.075  10.140
58613W        W30961   9.687  43.923   3.736
58614W        W30962  21.032   5.782  14.830
58615W        W30963   8.752  24.180  10.610
58616W        W30964   5.304  29.474  12.841
58617W        W30965  41.531  19.655  10.470
58618W        W30966  17.794  37.078  14.784
58619W        W30967   3.227   0.450  14.426
58620W        W30968  35.908   2.742   1.324
58621W        W30969  32.935  23.638   3.856
58622W        W30970  41.948  30.919  13.463
58623W        W30971  23.685  28.624  10.468
58624W        W30972  12.818  35.583  12.937
58625W        W30973  22.140  24.211   1.732
58626W        W30974  20.702  31.627   0.745
58627W        W30975  35.087   1.769  14.424
58628W        W30976  37.993   3.364  14.022
58629W        W30977  37.013  33.452  12.557
58630W        W30978  42.315  32.037  12.952
58631W        W30979  22.533  25.980  14.857
58632W        W30980  10.651  21.218  11.056
58633W        W30981  32.516  35.895   3.730
58634W        W30982   8.897  33.466   0.440
58635W        W30983  42.912  26.039  10.530
58636W        W30984  38.832   7.871  12.059
58637W        W30985   4.354  19.700  12.008
58638W        W30986  32.964  44.404   1.403
58639W        W30987  38.356  14.755   2.371
58640W        W30988  33.901  11.265  11.965
58641W        W30989  43.822  38.347   0.912
58642W        W30990  10.263   3.864  13.942
58643W        W30991  40.375  33.415  14.311
58644W        W30992   5.381   6.861   2.408
58645W        W30993  36.949   6.376   5.104
58646W        W30994  30.076  38.860  11.001
58647W        W30995   4.292  14.140   3.790
58648W        W30996  21.640   8.364   3.634
58649W        W30997  33.394  17.210  12.347
58650W        W30998   6.856  32.448   5.697
58651W        W30999  36.524  29.663   1.749
58652W        W31000  39.983  32.448  10.618
58653W        W31001  11.265  17.679   1.393
58654W        W31002   4.421  30.996  12.890
58655W        W31003  16.296   3.766  13.343
58656W        W31004   0.925  41.012   1.301
58657W        W31005   3.779  13.788  12.411
58658W        W31006   0.747   7.249   3.870
58659W        W31007  23.086  34.981   2.813
58660W        W31008   5.264  43.487  14.499
58661W        W31009   0.343  23.607  11.007
58662W        W31010  13.728  31.444  14.479
58663W        W31011  34.906   2.316  14.994
58664W        W31012  12.655   3.825   0.367
58665W        W31013   6.429  28.975   9.989
58666W        W31014  41.963  33.599  11.858
58667W        W31015  14.138  34.029  14.361
58668W        W31016  43.959  37.470   2.204
58669W        W31017   3.868   0.971   3.177
58670W        W31018  15.615  25.063  13.317
58671W        W31019   9.278  21.107   2.314
58672W        W31020  44.010   2.832   4.630
58673W        W31021   3.740  20.658   1.852
58674W        W31022   4.915  36.559  11.992
58675W        W31023   8.709  43.938  13.388
58676W        W31024   6.696  28.541   3.149
58677W        W31025  32.392  26.607  14.947
58678W        W31026  20.682  10.867   0.335
58679W        W31027  20.115   0.901  11.478
58680W        W31028   3.220  35.874   2.388
58681W        W31029  18.612  35.498  10.615
58682W        W31030  34.089  16.191   3.356
58683W        W31031  20.758  14.149  11.928
58684W        W31032   4.354   2.776  12.371
58685W        W31033   6.745  41.450   4.231
58686W        W31034   1.892  24.103  10.991
58687W        W31035  12.693  23.089  10.934
58688W        W31036  20.588  10.720  13.831
58689W        W31037  23.716  21.025   4.658
58690W        W31038   0.850   8.189   4.340
58691W        W31039  33.931  20.578   0.358
58692W        W31040  24.080  22.160   1.225
58693W        W31041  22.024  18.050  10.635
58694W        W31042  44.839  31.001   0.280
58695W        W31043  24.490  22.538   1.724
58696W        W31044   8.225   1.342  12.068
58697W        W31045  26.490   7.295  13.854
58698W        W31046   3.902   0.903   2.796
58699W        W31047  27.047  12.822  12.872
58700W        W31048  29.668  33.945  11.017
58701W        W31049  26.517  23.565  12.951
58702W        W31050  20.737  37.415  12.910
58703W        W31051  26.586   8.883   3.792
58704W        W31052  23.229  12.289  14.025
58705W        W31053  32.405  37.541   4.608
58706W        W31054  12.767  13.713  13.904
58707W        W31055  43.333  20.213   0.461
58708W        W31056  18.755  18.113  13.314
58709W        W31057  36.841   0.460  12.033
58710W        W31058  13.725  14.231   1.340
58711W        W31059  15.595   8.238   2.311
58712W        W31060  32.951   7.229  10.533
58713W        W31061  33.117  31.495  13.818
58714W        W31062  34.951   5.737   3.849
58715W        W31063  21.080   7.368   1.275
58716W        W31064   5.359  39.044  10.556
58717W        W31065   2.235  42.811   0.849
58718W        W31066   2.330  39.493   2.900
58719W        W31067  30.617  15.787   0.347
58720W        W31068  37.017   0.801   0.423
58721W        W31069  23.168  40.425   4.315
58722W        W31070  17.736  14.183  10.065
58723W        W31071  36.953  41.481   1.842
58724W        W31072   4.739  41.003   3.817
58725W        W31073  36.842  26.118   4.807
58726W        W31074  24.609  13.332   0.808
58727W        W31075  27.971  16.785  13.924
58728W        W31076  12.190  19.624   2.400
58729W        W31077   6.869  23.155   2.761
58730W        W31078  17.581   4.382  12.996
58731W        W31079  22.551  42.483  13.047
58732W        W31080  37.556  32.131   1.404
58733W        W31081   0.383  33.542   1.252
58734W        W31082  28.046  13.295   2.179
58735W        W31083  24.570   7.214   0.323
58736W        W31084  25.064  31.562  14.949
58737W        W31085  31.445  38.382   4.706
58738W        W31086  41.451  11.867   1.709
58739W        W31087  32.971  16.157  12.469
58740W        W31088  24.478  20.184  12.932
58741W        W31089  39.320  31.986  13.797
58742W        W31090   9.356  33.066   9.609
58743W        W31091  39.950  32.392  11.876
58744W        W31092  36.349  35.084   4.747
58745W        W31093  43.004  44.395   3.862
58746W        W31094  38.417  39.963  13.919
58747W        W31095  17.699   6.699   4.150
58748W        W31096  10.798  32.598  13.867
58749W        W31097   0.273   1.428   3.740
58750W        W31098  42.878  17.695   1.393
58751W        W31099  15.182  17.137   0.249
58752W        W31100  11.225  31.147   2.703
58753W        W31101  43.846  28.525  10.487
58754W        W31102  35.511  29.524  14.788
58755W        W31103   5.423  15.153   4.257
58756W        W31104  13.273   7.749  10.938
58757W        W31105  37.428  15.309  12.357
58758W        W31106   9.805  17.672   1.747
58759W        W31107  32.539  40.890   1.764
58760W        W31108  15.823  15.759   1.929
58761W        W31109  36.027  25.156  10.950
58762W        W31110  17.192  25.990   2.410
58763W        W31111  36.563  20.272   5.609
58764W        W31112  12.216   9.344  11.003
58765W        W31113  24.218  34.046  11.869
58766W        W31114  33.074  36.909  12.477
58767W        W31115  36.964  41.869  10.410
58768W        W31116  13.778  43.422   4.790
58769W        W31117   4.329  38.523   2.902
58770W        W31118  36.468  16.270  13.013
58771W        W31119  30.940  37.378  10.024
58772W        W31120  19.167   6.386   1.308
58773W        W31121   0.356   2.936  13.433
58774W        W31122  11.203   9.186   0.422
58775W        W31123  13.724  39.405  14.335
58776W        W31124  16.255  34.431   0.938
58777W        W31125   0.494  17.169  13.490
58778W        W31126  43.872   0.437   0.943
58779W        W31127   9.672  29.011   2.849
58780W        W31128  34.012  29.668   4.804
58781W        W31129  26.974   5.915   4.607
58782W        W31130  41.864  31.925   0.874
58783W        W31131  39.346   8.242   2.267
58784W        W31132  26.059  24.169   0.260
58785W        W31133  36.002   8.823  10.614
58786W        W31134  26.572  28.163   3.773
58787W        W31135  41.499  32.502  12.981
58788W        W31136  23.207  22.594   1.799
58789W        W31137  18.106  27.186   1.249
58790W        W31138   7.174  32.092   3.263
58791W        W31139  12.229   9.255  14.806
58792W        W31140   6.392  25.969   0.902
58793W        W31141  26.110  21.621   4.830
58794W        W31142  11.322  15.721   4.767
58795W        W31143  38.823  18.065   1.764
58796W        W31144  38.565  22.072   9.572
58797W        W31145  38.834  41.502   1.741
58798W        W31146  22.186  32.560   2.239
58799W        W31147  25.120  12.725   2.274
58800W        W31148  31.955  39.347   2.859
58801W        W31149  30.998  17.083  11.470
58802W        W31150   6.742  20.078  14.967
58803W        W31151   2.382  42.941   3.327
58804W        W31152  36.511  14.655  11.869
58805W        W31153  25.193  12.162   2.310
58806W        W31154  39.884  37.068   4.654
58807W        W31155   5.399  12.749   4.125
58808W        W31156  40.918  31.438   3.382
58809W        W31157  18.235  20.618  11.026
58810W        W31158   5.689  30.032  10.968
58811W        W31159  21.062  31.962  13.841
58812W        W31160  40.894  44.406  10.057
58813W        W31161  14.289  13.291   1.330
58814W        W31162   0.308  26.465   2.199
58815W        W31163   8.745  20.187   4.206
58816W        W31164  24.651  21.574   1.878
58817W        W31165  24.531  31.411   0.295
58818W        W31166  32.572   8.383  12.025
58819W        W31167   8.341  42.460   2.703
58820W        W31168  20.078  36.357  13.027
58821W        W31169  33.557  29.595   4.113
58822W        W31170  10.685  16.651  11.927
58823W        W31171  17.161  26.622  12.570
58824W        W31172  26.137  36.562  14.438
58825W        W31173  42.789  15.767   0.854
58826W        W31174  27.585  24.140  14.387
58827W        W31175  25.067  26.162  10.569
58828W        W31176  40.899  35.362  11.880
58829W        W31177  41.301  30.136  10.979
58830W        W31178  23.177  21.563   4.660
58831W        W31179   2.812   2.288   0.773
58832W        W31180  16.143   8.300  11.948
58833W        W31181  30.566  14.719  14.931
58834W        W31182  10.147  22.535  13.028
58835W        W31183   6.899  24.225   4.144
58836W        W31184   5.239  16.807   4.172
58837W        W31185   5.319   4.723   3.213
58838W        W31186   6.191  18.776  13.950
58839W        W31187  15.611  32.939   3.634
58840W        W31188   4.436  30.563  14.846
58841W        W31189   8.744  19.720  10.956
58842W        W31190  10.298  18.295  11.509
58843W        W31191  27.601  28.083   4.734
58844W        W31192  30.986  23.013   3.846
58845W        W31193   4.291  34.053   0.850
58846W        W31194   9.783  19.175   4.810
58847W        W31195  28.026  41.472  14.856
58848W        W31196   4.401  17.256   1.694
58849W        W31197  23.000  23.075   0.955
58850W        W31198  44.991  22.170  13.921
58851W        W31199  30.576  28.470  13.869
58852W        W31200   0.945  36.097  10.582
58853W        W31201  32.545  41.821   3.699
58854W        W31202  39.874  38.571   2.396
58855W        W31203   7.786   5.259  14.402
58856W        W31204  15.821   1.446  14.339
58857W        W31205  41.348  44.322   4.737
58858W        W31206  35.912  42.380   4.349
58859W        W31207  16.755  32.044  14.311
58860W        W31208   1.270  15.605   3.719
58861W        W31209  24.571  37.883   3.376
58862W        W31210  44.282  35.947   1.927
58863W        W31211  35.493  10.232   0.461
58864W        W31212  40.897  13.112  13.019
58865W        W31213  25.711  35.016   0.347
58866W        W31214   6.320  18.575   4.616
58867W        W31215  17.111  36.368  12.058
58868W        W31216   6.241  29.985  14.398
58869W        W31217  20.597   4.803  13.981
58870W        W31218   3.349  13.604  10.499
58871W        W31219  28.530  11.357  10.967
58872W        W31220  11.129   7.764  10.554
58873W        W31221  38.549   8.813   4.683
58874W        W31222  27.471   3.847   0.881
58875W        W31223   5.889  28.641   1.722
58876W        W31224  25.584  42.376  11.030
58877W        W31225  31.493  12.255  14.292
58878W        W31226   6.770  39.366  14.354
58879W        W31227  11.302   4.729   3.316
58880W        W31228  24.722  39.441  11.935
58881W        W31229  16.234  20.205   3.733
58882W        W31230  17.147  12.788   3.681
58883W        W31231  20.547  39.920  14.952
58884W        W31232  25.510  25.105   0.364
58885W        W31233  26.965  34.466  12.032
58886W        W31234  18.084  28.952   0.481
58887W        W31235  35.972  23.577  13.938
58888W        W31236  26.130  16.624  14.009
58889W        W31237  13.161  42.408   2.726
58890W        W31238   5.818  43.437   4.351
58891W        W31239  27.033  20.760  11.386
58892W        W31240  20.628  20.124  11.083
58893W        W31241  24.551  20.666  10.585
58894W        W31242  12.174  22.126  13.977
58895W        W31243  12.147  22.594   3.188
58896W        W31244  35.901  13.698   1.850
58897W        W31245  16.804  33.917   3.369
58898W        W31246  31.447   4.774   0.245
58899W        W31247  26.204  40.874   1.369
58900W        W31248  35.475  34.512  11.886
58901W        W31249  20.240  18.617   3.749
58902W        W31250   7.717  24.109   4.696
58903W        W31251   5.204  29.050   1.286
58904W        W31252   2.811  23.036   2.365
58905W        W31253   6.205  31.646   5.127
58906W        W31254  38.386   1.936   3.794
58907W        W31255  36.029  28.181  14.835
58908W        W31256   5.884  40.543  10.542
58909W        W31257  37.436  38.030  10.979
58910W        W31258  34.492  16.702   3.261
58911W        W31259  42.978   2.358   3.764
58912W        W31260  18.236  25.083   4.223
58913W        W31261  44.992  24.612   4.695
58914W        W31262  24.509  13.665  10.550
58915W        W31263  44.868  34.989  11.471
58916W        W31264   9.653   5.388   1.862
58917W        W31265  39.371   8.236  12.931
58918W        W31266  21.035  25.009   5.110
58919W        W31267  24.573  43.474  11.494
58920W        W31268  17.209   2.336  11.372
58921W        W31269  14.589   4.449  14.509
58922W        W31270  43.397  21.580  14.492
58923W        W31271  42.440  29.060   4.614
58924W        W31272  23.527  17.575  10.624
58925W        W31273   8.830  34.432  14.503
58926W        W31274   6.184   2.802   2.825
58927W        W31275   3.266  25.969   2.694
58928W        W31276  16.795  41.952  12.072
58929W        W31277  44.944  17.711  13.360
58930W        W31278  27.983  18.293   0.477
58931W        W31279  31.056  18.094   4.762
58932W        W31280  36.493   0.372   1.335
58933W        W31281  44.815  42.385  13.533
58934W        W31282   8.224   8.264  12.049
58935W        W31283  31.603  41.361   4.181
58936W        W31284  18.577  21.703  13.509
58937W        W31285  42.998  35.428  14.924
58938W        W31286  40.895  25.545   1.347
58939W        W31287   5.239  20.654  12.364
58940W        W31288  15.624  10.345  11.861
58941W        W31289  24.143  43.837  13.013
58942W        W31290  17.718  12.692   5.084
58943W        W31291  12.777   0.358  12.438
58944W        W31292  33.922   0.420  13.971
58945W        W31293  37.938  37.454   3.297
58946W        W31294  10.740  30.005  11.371
58947W        W31295  15.201  34.502  12.490
58948W        W31296   9.326  39.329   0.245
58949W        W31297   3.717   4.224  14.491
58950W        W31298  16.754  42.794  14.790
58951W        W31299   0.422  24.068   0.846
58952W        W31300  32.011  32.984  11.122
58953W        W31301  13.148  27.001  13.982
58954W        W31302  31.124  19.774   2.685
58955W        W31303  14.251  17.284   2.309
58956W        W31304  22.207  24.600   1.391
58957W        W31305  24.090   6.874   3.785
58958W        W31306  10.329  28.043  14.390
58959W        W31307  12.638  12.243   1.421
58960W        W31308  20.206  26.037  11.914
58961W        W31309  16.112  44.326  12.562
58962W        W31310   6.313  11.758  14.002
58963W        W31311   9.731   7.376   2.261
58964W        W31312  14.673  30.002  10.454
58965W        W31313  35.031  37.833  12.897
58966W        W31314  44.002  13.118  10.958
58967W        W31315  23.997   6.311   4.329
58968W        W31316   6.380   2.811   4.671
58969W        W31317  38.334  36.359  11.988
58970W        W31318   2.790  25.496  11.081
58971W        W31319   7.705  19.067   4.347
58972W        W31320  11.776  34.487   4.186
58973W        W31321  37.564  27.487   1.814
58974W        W31322  24.503  25.201  12.828
58975W        W31323  27.045   4.384   1.435
58976W        W31324  28.941   3.231   0.896
58977W        W31325  14.664  20.263   0.319
58978W        W31326  14.320  41.302  14.995
58979W        W31327  30.050  24.688   2.679
58980W        W31328  21.603  26.128   3.708
58981W        W31329   8.266   7.196   4.139
58982W        W31330  42.409  20.669   3.651
58983W        W31331   2.244  40.970   0.919
58984W        W31332  30.913  32.946  12.460
58985W        W31333  23.678  32.995  11.977
58986W        W31334   8.797  23.203  12.358
58987W        W31335  20.152  31.642   4.813
58988W        W31336  29.635  42.788  12.925
58989W        W31337   7.402  13.683  12.054
58990W        W31338  35.050  22.561  11.374
58991W        W31339  30.503   0.756   3.182
58992W        W31340   2.948  20.628   1.893
58993W        W31341  31.425  16.630   3.256
58994W        W31342  29.576  34.006  10.475
58995W        W31343   4.822  32.445  14.881
58996W        W31344   9.183  19.699  14.385
58997W        W31345  25.599  14.165   2.867
58998W        W31346  14.144   1.969   4.754
58999W        W31347  38.896  41.537   2.777
59000W        W31348  32.582  29.613  10.096
59001W        W31349  14.798  16.317  13.397
59002W        W31350   4.843  41.445  10.132
59003W        W31351  24.000   8.811   0.282
59004W        W31352   4.206  35.450   0.382
59005W        W31353  23.543   1.800   3.656
59006W        W31354   3.247  33.961   0.451
59007W        W31355   4.707   2.416   0.343
59008W        W31356  25.140   1.358   4.617
59009W        W31357   5.789  35.879  12.055
59010W        W31358   7.908  33.012  12.550
59011W        W31359  13.143  40.431  11.571
59012W        W31360   9.788  11.283  13.801
59013W        W31361  15.654  23.112   1.719
59014W        W31362  26.703   3.714  11.978
59015W        W31363   1.273  39.965   0.354
59016W        W31364  27.567  36.366   0.434
59017W        W31365  13.659  11.631  14.913
59018W        W31366   4.821  29.018  10.535
59019W        W31367  25.628  31.049   4.619
59020W        W31368  34.604   5.301  13.924
59021W        W31369  30.643   3.839   2.824
59022W        W31370  32.471  34.966   5.223
59023W        W31371  26.640  17.775  13.837
59024W        W31372  23.062  10.175   1.394
59025W        W31373   4.350  38.874  14.777
59026W        W31374  12.316  21.579   2.346
59027W        W31375  22.136  12.267   1.320
59028W        W31376  36.376   3.809   1.415
59029W        W31377  32.972  41.404  14.868
59030W        W31378  30.132  40.501  13.838
59031W        W31379  11.858  15.758  11.129
59032W        W31380  15.175  38.345   2.774
59033W        W31381  14.251  24.611  11.545
59034W        W31382  35.533  39.474  12.078
59035W        W31383  22.217  36.887   2.677
59036W        W31384   6.881  12.152  10.543
59037W        W31385  24.114  33.465  13.935
59038W        W31386   7.808  23.704  11.372
59039W        W31387  28.132  19.104   0.318
59040W        W31388  26.577  34.491   4.150
59041W        W31389   6.754  44.900  14.394
59042W        W31390   5.743  39.397   1.839
59043W        W31391  10.676  34.919  10.931
59044W        W31392  25.537  42.856  14.848
59045W        W31393  34.427  26.501   1.862
59046W        W31394  34.877  22.018  11.076
59047W        W31395   1.839   3.913   3.248
59048W        W31396  17.101  17.237  12.862
59049W        W31397   0.440   0.488  14.856
59050W        W31398  21.720  15.771  10.429
59051W        W31399  39.933  21.643   2.416
59052W        W31400   4.822   7.273   2.373
59053W        W31401  24.033  24.493  13.033
59054W        W31402   2.920  27.644  14.477
59055W        W31403  30.078  30.595   0.297
59056W        W31404  36.047  16.139  13.446
59057W        W31405  22.501  38.950  11.455
59058W        W31406  33.997  19.748  11.970
59059W        W31407  11.626  28.079  13.354
59060W        W31408  10.240  38.413   2.215
59061W        W31409  17.280  15.658  14.031
59062W        W31410  38.333  21.122  13.038
59063W        W31411   8.739  18.122  11.599
59064W        W31412  12.750  24.574  12.459
59065W        W31413  23.605  23.124   0.270
59066W        W31414   7.839  33.590   1.404
59067W        W31415  40.814  15.277  14.995
59068W        W31416  24.004  11.335  14.473
59069W        W31417   9.790   4.815  10.602
59070W        W31418  17.297  37.393   2.680
59071W        W31419   7.316  16.117  14.313
59072W        W31420  29.023  26.200  13.000
59073W        W31421  39.395  31.546  14.768
59074W        W31422  28.186  43.457   3.674
59075W        W31423  27.976  12.856  12.014
59076W        W31424   5.706  38.557  12.864
59077W        W31425  12.758  39.424  13.492
59078W        W31426  10.698   3.247  12.365
59079W        W31427  21.149  19.674  13.800
59080W        W31428  44.331  10.647   2.349
59081W        W31429  37.927   4.388   5.611
59082W        W31430  40.356  19.727   0.303
59083W        W31431   2.853   9.844   2.767
59084W        W31432  17.742   6.355   3.637
59085W        W31433  10.776   3.718  12.869
59086W        W31434  37.390  40.863   3.634
59087W        W31435  15.309  33.048   4.648
59088W        W31436   5.781  15.152   2.375
59089W        W31437  26.187  15.688   2.795
59090W        W31438  15.240  32.138   0.250
59091W        W31439   0.780  18.258  10.567
59092W        W31440   4.907  25.112  12.895
59093W        W31441  24.118  30.926   0.287
59094W        W31442  44.776  40.916  14.761
59095W        W31443  13.658  43.275  14.456
59096W        W31444  20.549  27.141   2.324
59097W        W31445  36.931  23.726  14.992
59098W        W31446  30.112  29.992  12.001
59099W        W31447  16.284  14.121  13.032
59100W        W31448  39.319  13.215   4.344
59101W        W31449  21.664  43.879  10.467
59102W        W31450  32.554  39.028  10.029
59103W        W31451  29.617  31.108   1.769
59104W        W31452  14.213  43.487   3.383
59105W        W31453  20.737  35.510   2.796
59106W        W31454  40.489  44.946   3.273
59107W        W31455  32.515  28.073  12.496
59108W        W31456   7.814   8.167  12.038
59109W        W31457   7.735  34.439   1.918
59110W        W31458  27.016  11.307   4.334
59111W        W31459  39.502  36.469  14.337
59112W        W31460   0.930  31.917   2.812
59113W        W31461  22.517   5.249  13.489
59114W        W31462  42.315  13.342   1.701
59115W        W31463   7.233  16.258   1.372
59116W        W31464  35.419   0.769  11.409
59117W        W31465   7.300   2.739   3.777
59118W        W31466  25.041  22.073  14.387
59119W        W31467  21.128  26.145   4.342
59120W        W31468  11.349  20.677   5.311
59121W        W31469  43.961  25.631  10.940
59122W        W31470   0.440  12.809   1.802
59123W        W31471  30.013  11.288   1.356
59124W        W31472   9.361  39.384  14.905
59125W        W31473   2.930   4.307   4.807
59126W        W31474  19.557  42.879  11.862
59127W        W31475  29.628  31.032  13.480
59128W        W31476   1.269  26.540   1.210
59129W        W31477  21.684   3.404  13.018
59130W        W31478  11.358  41.302  12.825
59131W        W31479  21.560   2.822   3.361
59132W        W31480   0.760  21.033  12.095
59133W        W31481  29.462  27.544  12.390
59134W        W31482  33.573  15.200  14.333
59135W        W31483  23.577  39.474  11.522
59136W        W31484  36.375  22.137  12.454
59137W        W31485  27.089  43.499   4.830
59138W        W31486  12.771  33.399   0.849
59139W        W31487  10.353  13.619   0.848
59140W        W31488  43.454  34.879  14.799
59141W        W31489   6.339  30.625   1.330
59142W        W31490  20.142   1.951  12.960
59143W        W31491  43.491  34.002   3.749
59144W        W31492   3.952  25.496   0.810
59145W        W31493  22.157   0.452   0.481
59146W        W31494  43.920  36.525   3.843
59147W        W31495   4.444  15.214   2.298
59148W        W31496  29.154   4.914   4.606
59149W        W31497  34.002  28.465   2.894
59150W        W31498  13.110  14.270  12.027
59151W        W31499  38.366  32.978  12.969
59152W        W31500   8.376   8.270  11.521
59153W        W31501  12.256  42.470  10.633
59154W        W31502  23.675  27.010   1.704
59155W        W31503   2.951   3.287   3.793
59156W        W31504  44.001  14.763   2.358
59157W        W31505   0.982  39.488  11.048
59158W        W31506  41.362  23.696  14.336
59159W        W31507  32.035  28.158   0.435
59160W        W31508  26.493   2.894  10.428
59161W        W31509   6.734  32.432   0.263
59162W        W31510  40.817  12.302  12.094
59163W        W31511  23.731   0.962  13.478
59164W        W31512  34.907  26.012   3.654
59165W        W31513   8.228  21.106   2.768
59166W        W31514  26.036   7.682   2.212
59167W        W31515   7.738  14.761  14.384
59168W        W31516  21.250  22.599  11.379
59169W        W31517  23.645  33.598   3.380
59170W        W31518   4.410  29.085  11.492
59171W        W31519  21.198  30.001  11.041
59172W        W31520  37.454   9.339  12.491
59173W        W31521   6.888  31.010   5.662
59174W        W31522  30.627  26.028   0.258
59175W        W31523   6.348  10.176   4.736
59176W        W31524   0.250  15.304   2.266
59177W        W31525  17.659   4.247  13.987
59178W        W31526  21.134  13.280  11.483
59179W        W31527  43.870  20.691  13.475
59180W        W31528  21.057  28.042  11.932
59181W        W31529  26.631  36.536   5.137
59182W        W31530  17.206  25.065  11.882
59183W        W31531  15.225  12.848   5.311
59184W        W31532  20.057  34.090  11.955
59185W        W31533  43.954  11.194  12.932
59186W        W31534  27.675  17.295  12.975
59187W        W31535  10.642  15.819   2.852
59188W        W31536  27.467  19.055  13.385
59189W        W31537   3.941  37.353  14.373
59190W        W31538  11.227  21.245  12.526
59191W        W31539  39.319  39.540  14.776
59192W        W31540  33.531  15.698  10.930
59193W        W31541  29.024  35.357   1.338
59194W        W31542  40.476   8.894   0.906
59195W        W31543  27.954  35.360  13.505
59196W        W31544   0.983  17.104  11.554
59197W        W31545  33.003  17.110  11.116
59198W        W31546   1.337  29.007  12.912
59199W        W31547  18.174   5.857   2.215
59200W        W31548  19.564   4.738  12.407
59201W        W31549  42.913  21.588   2.839
59202W        W31550  14.618  16.164  11.046
59203W        W31551  23.191  29.619  13.058
59204W        W31552  38.923  38.847   3.661
59205W        W31553   2.251  38.382  13.327
59206W        W31554  35.583  36.961  13.017
59207W        W31555   6.205  37.975   4.605
59208W        W31556  44.320   1.882   4.248
59209W        W31557  21.513  23.107  13.530
59210W        W31558  31.100   3.224  12.568
59211W        W31559  41.332  32.518   2.367
59212W        W31560  27.495  15.133   0.252
59213W        W31561   0.820  12.703   0.767
59214W        W31562  19.084   5.726   2.809
59215W        W31563  12.336  27.563   2.359
59216W        W31564  30.640  17.076   4.687
59217W        W31565  37.388  39.506   1.894
59218W        W31566  30.618  19.148  10.559
59219W        W31567  22.073  27.475   2.235
59220W        W31568   7.694  20.563   5.219
59221W        W31569   1.907  22.611  11.919
59222W        W31570   0.926  31.153   1.704
59223W        W31571  44.323  39.405   2.398
59224W        W31572   1.884  33.995  10.619
59225W        W31573  30.020  32.496  13.030
59226W        W31574  23.677   4.716  14.499
59227W        W31575   7.803  43.795  14.980
59228W        W31576  30.165  25.120  12.548
59229W        W31577  41.526  27.072   1.849
59230W        W31578  33.933  31.115   3.713
59231W        W31579   9.282  27.681   2.378
59232W        W31580   1.874   2.862   0.869
59233W        W31581  11.687   1.905  10.535
59234W        W31582   6.697  22.720   3.220
59235W        W31583  13.680   4.932   4.838
59236W        W31584   5.358   0.310  13.330
59237W        W31585  40.953  44.988   1.441
59238W        W31586  18.075  30.974   1.259
59239W        W31587  19.725  22.738  10.442
59240W        W31588  30.910  13.192  11.997
59241W        W31589  35.533  34.035   0.807
59242W        W31590  25.211  24.074   2.217
59243W        W31591   4.864  43.870  14.785
59244W        W31592  23.642  43.002  11.059
59245W        W31593  43.390   7.316   4.233
59246W        W31594  13.700  38.446  13.350
59247W        W31595  16.610  42.345  11.398
59248W        W31596  37.500   8.254   3.225
59249W        W31597  14.738  29.929  14.963
59250W        W31598  38.339   7.701   9.472
59251W        W31599  42.776   7.702  13.395
59252W        W31600  28.967  31.073  12.847
59253W        W31601  42.007   5.714   1.845
59254W        W31602  22.735  32.494  14.459
59255W        W31603  35.595  36.878   4.664
59256W        W31604   7.801  25.987   4.834
59257W        W31605  25.590  31.105   2.256
59258W        W31606  29.621  41.940  11.450
59259W        W31607  40.917   7.811   3.778
59260W        W31608  14.696   9.685   3.868
59261W        W31609  17.167  35.959  12.549
59262W        W31610  22.524  33.558  12.877
59263W        W31611  41.393   5.845  13.894
59264W        W31612  15.705  22.594   4.200
59265W        W31613  15.116  44.342  11.860
59266W        W31614  29.955   1.853  12.958
59267W        W31615  37.054  10.687   0.796
59268W        W31616  38.397  27.961   3.262
59269W        W31617   1.259   5.265   1.851
59270W        W31618  31.105  24.668   1.316
59271W        W31619  11.651  18.100   4.265
59272W        W31620  40.499  42.805   4.803
59273W        W31621   1.825  28.558  11.922
59274W        W31622  43.512  30.948   1.230
59275W        W31623   7.301  29.001   4.264
59276W        W31624  35.035  13.663   2.409
59277W        W31625  10.753  17.126  10.006
59278W        W31626  26.561  18.633   1.288
59279W        W31627  14.765  31.432  13.486
59280W        W31628  42.901  39.364   2.749
59281W        W31629   2.940  40.985   3.307
59282W        W31630  27.001  14.712   2.885
59283W        W31631  18.285  34.066   1.779
59284W        W31632  24.664  16.793  13.330
59285W        W31633   2.737  17.283  13.499
59286W        W31634  43.776  36.967  12.935
59287W        W31635  13.151  33.552  12.927
59288W        W31636  34.513  35.087  14.433
59289W        W31637  21.752   5.863  11.115
59290W        W31638  24.217  26.026  13.542
59291W        W31639   3.806  44.379  10.417
59292W        W31640   1.263   2.832  10.962
59293W        W31641  13.322   6.737   0.812
59294W        W31642  33.129  38.025  13.462
59295W        W31643  29.445  44.949  12.095
59296W        W31644  37.402   7.188   2.357
59297W        W31645   9.166  38.938  11.446
59298W        W31646  42.315  11.740  14.896
59299W        W31647  35.596  22.736   0.299
59300W        W31648  35.376  36.537   4.149
59301W        W31649  16.083  23.621   2.291
59302W        W31650  41.428   0.446  14.983
59303W        W31651  26.972   2.312  13.389
59304W        W31652  42.798  38.498   3.299
59305W        W31653  19.213  41.943  11.500
59306W        W31654  11.623   7.720   5.155
59307W        W31655  37.003  11.630   4.187
59308W        W31656  11.247  30.068  13.512
59309W        W31657   5.420  16.647  13.395
59310W        W31658   8.728  25.024   0.852
59311W        W31659  31.920  41.340  10.439
59312W        W31660  35.426  43.412  12.454
59313W        W31661  27.045  37.524   4.777
59314W        W31662  41.826  41.354   3.727
59315W        W31663  41.787   4.411   3.162
59316W        W31664  30.645  39.912  13.372
59317W        W31665   1.349  32.577   0.439
59318W        W31666  41.504  43.958  12.828
59319W        W31667  29.116   2.930   2.350
59320W        W31668   5.298  22.224   4.281
59321W        W31669  33.979  31.404  13.965
59322W        W31670  35.505  24.152   2.857
59323W        W31671  31.099  35.524   1.330
59324W        W31672  14.628  12.681   4.115
59325W        W31673  43.375  30.617   2.833
59326W        W31674   9.332  37.507   4.308
59327W        W31675  28.600  31.420  12.045
59328W        W31676  24.038  16.812   3.832
59329W        W31677  37.999  31.485  13.809
59330W        W31678  30.971  34.930   3.685
59331W        W31679  12.275  43.859   0.873
59332W        W31680   1.325  37.876   3.248
59333W        W31681  19.719  23.065  14.979
59334W        W31682  43.488  15.817   3.359
59335W        W31683   0.853  21.665   2.820
59336W        W31684  10.874   6.887  11.445
59337W        W31685  39.443  40.304  14.387
59338W        W31686  42.877  40.966  10.536
59339W        W31687  26.606  31.429   4.685
59340W        W31688  40.468  30.972  12.391
59341W        W31689  21.517  11.187   2.408
59342W        W31690  33.566   5.273  10.600
59343W        W31691  17.747  15.207   3.661
59344W        W31692  40.405  12.845   4.777
59345W        W31693   9.882  44.753  11.918
59346W        W31694  13.633  12.778   0.367
59347W        W31695  10.635  27.467   4.836
59348W        W31696  15.091  14.136  10.570
59349W        W31697  21.592   0.800  14.339
59350W        W31698  18.156  28.660   0.289
59351W        W31699  23.095  35.473  12.472
59352W        W31700  14.276   2.780   1.890
59353W        W31701   4.884  38.986   5.218
59354W        W31702  27.483   0.481  13.869
59355W        W31703   2.963  37.524   2.693
59356W        W31704   4.417  10.248   4.731
59357W        W31705  13.116  20.662  13.467
59358W        W31706  33.446  17.084  10.503
59359W        W31707  44.802   5.282  14.850
59360W        W31708  11.828  29.097  10.058
59361W        W31709   2.786  36.430   0.464
59362W        W31710  39.542  20.268   4.602
59363W        W31711   6.865  19.098  14.294
59364W        W31712   1.384  33.968   3.274
59365W        W31713  16.732  31.148   4.774
59366W        W31714  28.539  40.807  13.458
59367W        W31715  25.072  11.175   1.854
59368W        W31716  22.146  44.409   0.376
59369W        W31717   1.307  27.561  12.363
59370W        W31718  24.043   0.982  11.004
59371W        W31719  34.400  28.947  12.382
59372W        W31720   4.860  39.503  14.377
59373W        W31721   9.227  38.048  11.004
59374W        W31722   8.315  41.007   4.748
59375W        W31723  35.870  22.240  14.409
59376W        W31724  13.610  39.912   2.341
59377W        W31725  20.217  23.612   3.759
59378W        W31726  22.517  28.139   2.809
59379W        W31727   7.840  40.938   2.755
59380W        W31728  36.534  13.817   0.423
59381W        W31729  31.024  20.072   2.207
59382W        W31730   3.924  26.512   4.600
59383W        W31731  36.558  10.198  12.935
59384W        W31732  14.816  20.161  11.904
59385W        W31733   1.291   0.961   4.781
59386W        W31734  18.284  40.531   2.716
59387W        W31735  41.496  40.032   0.732
59388W        W31736   2.864  44.350  10.964
59389W        W31737  26.491   9.273   4.246
59390W        W31738  41.533   9.784  12.845
59391W        W31739  22.056  28.954   3.340
59392W        W31740  19.124  15.751   1.798
59393W        W31741  24.182  25.495  14.356
59394W        W31742  31.073  19.727  13.797
59395W        W31743  24.667  25.001   2.709
59396W        W31744  32.571  16.276  14.307
59397W        W31745   1.249  37.026   0.426
59398W        W31746  40.310  20.642  10.971
59399W        W31747   0.746   5.749  10.902
59400W        W31748  40.010  21.555  13.434
59401W        W31749  29.480  29.656  12.040
59402W        W31750  15.245  19.132   4.225
59403W        W31751  12.646   9.244  14.025
59404W        W31752   5.270  32.046   1.738
59405W        W31753  37.878  36.385  14.338
59406W        W31754   6.210  36.519   0.748
59407W        W31755  26.031  23.495  13.061
59408W        W31756  33.556  16.162  14.493
59409W        W31757  19.177  44.947   0.872
59410W        W31758  39.491  32.142   0.797
59411W        W31759  17.298  10.645   2.847
59412W        W31760   6.221   2.899  11.117
59413W        W31761   4.205  14.796   0.257
59414W        W31762  35.596  20.583  14.835
59415W        W31763  39.343  34.010  10.570
59416W        W31764  25.166  34.978   2.195
59417W        W31765   0.323  42.999   1.698
59418W        W31766  11.683  32.564  14.794
59419W        W31767   6.372   9.293  11.545
59420W        W31768  18.162   2.369  11.075
59421W        W31769   3.458   7.826   2.813
59422W        W31770  24.668   6.267   4.748
59423W        W31771  18.683  14.834  13.513
59424W        W31772  33.607  36.545  12.843
59425W        W31773  29.546  12.200   1.815
59426W        W31774  41.409  44.763   3.173
59427W        W31775   9.682  33.102  13.542
59428W        W31776  36.902  29.575   3.355
59429W        W31777  22.150  42.932  13.318
59430W        W31778  15.660   7.689  10.407
59431W        W31779  17.252  25.158  14.969
59432W        W31780   0.341  15.725   1.267
59433W        W31781  40.416  25.504  11.580
59434W        W31782  32.572  40.359  13.322
59435W        W31783  30.651  10.384  14.391
59436W        W31784  33.615  37.004   1.788
59437W        W31785  24.179  26.594  10.157
59438W        W31786   2.912  13.189   0.363
59439W        W31787  34.991  23.038   3.855
59440W        W31788  14.264  20.259  13.847
59441W        W31789  38.413   2.431   3.244
59442W        W31790  27.040  22.080  14.988
59443W        W31791   9.750  29.094  12.420
59444W        W31792  43.913  10.862  14.894
59445W        W31793   9.737  38.568   4.256
59446W        W31794  30.155  11.194   0.383
59447W        W31795  29.166  41.030  10.644
59448W        W31796  40.933  31.982  14.964
59449W        W31797  40.318  16.703  12.054
59450W        W31798  12.682   1.389   0.770
59451W        W31799   8.383  20.652  10.945
59452W        W31800   2.378  16.244   0.952
59453W        W31801  17.561   2.318  11.109
59454W        W31802  11.826  17.660  11.970
59455W        W31803  12.759  29.107   0.358
59456W        W31804  26.621   1.840  13.421
59457W        W31805  33.383  31.068  11.503
59458W        W31806  44.315  28.560  12.359
59459W        W31807  24.685  25.032  10.899
59460W        W31808   4.811   7.252  13.848
59461W        W31809   3.952  11.340  14.030
59462W        W31810  37.394  43.426   3.816
59463W        W31811  20.274  27.947   9.996
59464W        W31812  17.761  35.864   4.184
59465W        W31813  26.587  13.740   2.696
59466W        W31814   1.296  25.994  12.000
59467W        W31815  35.363  30.644  11.382
59468W        W31816  37.963   8.235   0.866
59469W        W31817  36.523  21.566  11.923
59470W        W31818  38.062  32.924   1.381
59471W        W31819  30.153   1.375  12.844
59472W        W31820  32.950  11.286   1.718
59473W        W31821  35.452  40.477  10.551
59474W        W31822  35.492  36.468  13.386
59475W        W31823  23.037   1.259  14.430
59476W        W31824  34.925   6.390  12.543
59477W        W31825   2.276  20.071   3.258
59478W        W31826   7.350  24.081  13.938
59479W        W31827  25.484  26.003  11.379
59480W        W31828   2.315   9.278   3.732
59481W        W31829  34.950  38.522  11.949
59482W        W31830  17.690  41.409   2.325
59483W        W31831  21.611   6.359   0.376
59484W        W31832  36.980   6.838   5.774
59485W        W31833  33.910   8.815  14.987
59486W        W31834  42.474  14.679   3.330
59487W        W31835   7.295  25.655   1.381
59488W        W31836  10.247   5.222   4.256
59489W        W31837   1.803  11.833  10.593
59490W        W31838  40.845   4.801   0.467
59491W        W31839  10.260  44.832  11.115
59492W        W31840   3.460  33.944  13.062
59493W        W31841  26.511  16.813  10.160
59494W        W31842  26.135   7.722   3.320
59495W        W31843  17.226  42.785   1.779
59496W        W31844  38.844   0.920   4.720
59497W        W31845  33.407  17.712   4.769
59498W        W31846  23.071   8.352   3.221
59499W        W31847  37.861  24.623  12.842
59500W        W31848  24.175  10.808  12.404
59501W        W31849   7.383  28.970  11.612
59502W        W31850  19.539  21.057  14.822
59503W        W31851  19.553  29.052  12.910
59504W        W31852  19.091   3.931  14.327
59505W        W31853  44.270   1.262  10.536
59506W        W31854  13.837  16.740  14.484
59507W        W31855  24.059   4.366   2.687
59508W        W31856  44.765  38.933  13.897
59509W        W31857  17.724   0.414  10.969
59510W        W31858  26.111  26.701  13.818
59511W        W31859  18.648   9.280  10.555
59512W        W31860   6.898  19.698   3.634
59513W        W31861  35.560  20.205   3.278
59514W        W31862  23.546  11.243  12.933
59515W        W31863  26.487   6.778   1.793
59516W        W31864   4.352  20.167  14.450
59517W        W31865  44.459  42.011   1.919
59518W        W31866  34.533   0.406  14.380
59519W        W31867  35.524  20.105  13.343
59520W        W31868  27.602  39.395   2.897
59521W        W31869  16.088  30.979  10.940
59522W        W31870  31.906  36.439   2.837
59523W        W31871  38.400  37.883  13.497
59524W        W31872  22.145   2.469  14.841
59525W        W31873  40.865  15.256   2.376
59526W        W31874  23.730   0.353   0.910
59527W        W31875  17.102  39.847   2.364
59528W        W31876   5.795   6.839  12.887
59529W        W31877  43.445  36.851   0.447
59530W        W31878   6.740  37.939   3.186
59531W        W31879   2.910  39.344  13.869
59532W        W31880  13.780  13.789  14.480
59533W        W31881  11.698   9.204  11.901
59534W        W31882  14.297   8.386  11.104
59535W        W31883  40.399  40.335  12.491
59536W        W31884  36.507  41.379   1.781
59537W        W31885   4.715  16.130   2.822
59538W        W31886  11.179   9.170  14.428
59539W        W31887   2.237  28.168  13.533
59540W        W31888  41.800  30.937  14.438
59541W        W31889  14.682  12.762   3.706
59542W        W31890   6.206  42.510  12.500
59543W        W31891  11.695  29.134   0.757
59544W        W31892  25.549  23.544   0.901
59545W        W31893  29.636  37.411  13.935
59546W        W31894  14.187  29.936   2.780
59547W        W31895  31.913  16.766   0.275
59548W        W31896  19.078  26.534  13.883
59549W        W31897  39.936  23.603  12.962
59550W        W31898  31.963  29.621  14.949
59551W        W31899  34.432  43.769  11.897
59552W        W31900  12.359  38.044   2.318
59553W        W31901  27.466  38.545   3.863
59554W        W31902   3.803  10.758   3.265
59555W        W31903  28.583  43.343  14.948
59556W        W31904  21.640  44.895   2.281
59557W        W31905  17.291  31.134   1.212
59558W        W31906  26.117  10.705  14.866
59559W        W31907   7.831  34.868  14.982
59560W        W31908  34.981  33.023   3.328
59561W        W31909  33.885   4.765  12.039
59562W        W31910  38.024  43.888  13.491
59563W        W31911  32.584  42.361  10.549
59564W        W31912  18.167   8.404   4.234
59565W        W31913  36.508  22.252  13.538
59566W        W31914  24.679  44.814   1.807
59567W        W31915  17.204   1.444   0.778
59568W        W31916  33.456  29.066   3.821
59569W        W31917   5.798  17.681   3.323
59570W        W31918   7.840   3.712  10.914
59571W        W31919  37.022  25.525   1.736
59572W        W31920  36.464  28.146  13.477
59573W        W31921  17.295   5.220  11.115
59574W        W31922  39.467   7.391  13.498
59575W        W31923  29.962  28.158  11.075
59576W        W31924  36.024  10.841   0.839
59577W        W31925  26.551  31.982   0.894
59578W        W31926  28.517  14.810  13.806
59579W        W31927   1.959  21.077   1.282
59580W        W31928  18.714  19.568   4.270
59581W        W31929  23.673   1.342   2.269
59582W        W31930   4.298  34.547  13.014
59583W        W31931   0.428   1.742   2.270
59584W        W31932  13.635  37.936  13.510
59585W        W31933  11.650  14.713  14.361
59586W        W31934  19.552  22.515   3.150
59587W        W31935   8.377  34.465   0.799
59588W        W31936  44.463  36.923   0.452
59589W        W31937  16.793  42.916  13.024
59590W        W31938  10.262  24.001   9.924
59591W        W31939  15.178  40.528   0.281
59592W        W31940  37.483  44.504   4.751
59593W        W31941   6.756  44.760   3.704
59594W        W31942  23.663   3.823  13.944
59595W        W31943  29.076  25.115   3.294
59596W        W31944  30.977  25.133  14.832
59597W        W31945  39.468  44.920   4.730
59598W        W31946   7.678   6.213   3.725
59599W        W31947  13.759  10.265  10.529
59600W        W31948  39.494   7.682   3.277
59601W        W31949  28.971  11.861  13.991
59602W        W31950   6.248  38.894   3.646
59603W        W31951  25.130  35.872   4.324
59604W        W31952   6.268  33.405   1.901
59605W        W31953  24.710   5.417  12.081
59606W        W31954  30.152   3.357  10.644
59607W        W31955  15.105  23.730  11.378
59608W        W31956  38.534  32.428  11.880
59609W        W31957  12.259  10.809  11.912
59610W        W31958  22.701   7.220   2.712
59611W        W31959  23.019   9.890   1.293
59612W        W31960   7.269  15.138   1.870
59613W        W31961  33.043  20.162   1.796
59614W        W31962   5.361  21.528   2.225
59615W        W31963   2.930  17.607   4.343
59616W        W31964  24.659  16.318   3.227
59617W        W31965   1.455  39.505  11.563
59618W        W31966   5.291  32.584  13.852
59619W        W31967  32.477  12.682   4.798
59620W        W31968  27.106  21.711   0.727
59621W        W31969   3.832  27.086   4.295
59622W        W31970   0.427  36.554   0.312
59623W        W31971  39.901  22.996   0.372
59624W        W31972  14.779  19.658  11.559
59625W        W31973  22.111  13.214  13.020
59626W        W31974  29.002   2.405   0.353
59627W        W31975  10.649  20.179  11.409
59628W        W31976  43.991  30.583  14.445
59629W        W31977  21.751  13.190   3.808
59630W        W31978  19.068  23.708  10.529
59631W        W31979  28.063  11.196  14.347
59632W        W31980  30.527   2.306  13.833
59633W        W31981  42.980  13.734  11.015
59634W        W31982  25.040   9.335   3.804
59635W        W31983  27.169   6.754   2.668
59636W        W31984  24.117   8.390   3.829
59637W        W31985  36.417   6.390   4.320
59638W        W31986   4.822  26.029  11.598
59639W        W31987  42.488  29.505  12.381
59640W        W31988  24.025  39.536   0.334
59641W        W31989  41.300   6.745   4.354
59642W        W31990  24.716  23.128  12.082
59643W        W31991   6.708  16.651   3.293
59644W        W31992   5.756  19.712   1.427
59645W        W31993  27.690  36.907  10.498
59646W        W31994  37.431  29.518  14.868
59647W        W31995  37.972  37.456   9.999
59648W        W31996   6.768  35.031  13.533
59649W        W31997  10.318  30.419   4.311
59650W        W31998  39.959  21.075  12.562
59651W        W31999   6.731  11.725  14.315
59652W        W32000  29.919   0.418  10.462
59653W        W32001  35.558   5.368  12.393
59654W        W32002  17.255  33.469   0.451
59655W        W32003  19.164   7.232  12.519
59656W        W32004  15.800  27.551  11.952
59657W        W32005  36.026   5.879  10.112
59658W        W32006  37.984  10.173   0.850
59659W        W32007  34.570  16.301  11.912
59660W        W32008  28.498  21.516   1.868
59661W        W32009   1.299  23.723  14.421
59662W        W32010  41.822  25.511   4.669
59663W        W32011  20.631   5.297  12.997
59664W        W32012  33.984   9.186  13.352
59665W        W32013   2.242  39.337   0.885
59666W        W32014  35.485  37.532   3.158
59667W        W32015  37.536  20.570  12.571
59668W        W32016  37.554  37.007   0.766
59669W        W32017   8.162  17.109  11.901
59670W        W32018  16.577   3.418  13.029
59671W        W32019  20.114   1.457  10.444
59672W        W32020   8.780  18.057   4.626
59673W        W32021  10.162   6.800  14.346
59674W        W32022  39.331  14.131  10.416
59675W        W32023  11.701  39.516   4.343
59676W        W32024  33.013  38.357  10.524
59677W        W32025  28.132  42.778   4.240
59678W        W32026   5.839  21.149  11.889
59679W        W32027   6.759  38.395  12.447
59680W        W32028  21.073  13.249   2.277
59681W        W32029  13.261  36.569  10.496
59682W        W32030   5.411  39.497   1.717
59683W        W32031  37.955   7.392  10.457
59684W        W32032  29.514  15.290  10.613
59685W        W32033  35.923  29.137   0.937
59686W        W32034   8.708  10.850   4.282
59687W        W32035  12.739  19.644   0.915
59688W        W32036   9.677  13.652  10.562
59689W        W32037   1.929  43.396   1.739
59690W        W32038  12.280  28.017  11.502
59691W        W32039   7.763   1.811  12.420
59692W        W32040  38.488  43.926  13.002
59693W        W32041  40.447   5.390  10.556
59694W        W32042  16.632  26.957   4.329
59695W        W32043  38.979  17.140   0.280
59696W        W32044  15.137  17.652   4.251
59697W        W32045  33.000  43.384   0.426
59698W        W32046  28.677  27.058   4.764
59699W        W32047  38.527  32.129  13.823
59700W        W32048  18.588  30.034  14.962
59701W        W32049  12.706  43.910   4.219
59702W        W32050   2.946  35.030   1.426
59703W        W32051  14.679  28.942  10.965
59704W        W32052  44.803  14.305   0.403
59705W        W32053  16.166   1.854  14.810
59706W        W32054  37.346  38.571   2.243
59707W        W32055  35.522  21.622  12.482
59708W        W32056  41.419  15.168   4.126
59709W        W32057  34.424  16.667   2.216
59710W        W32058   6.344   3.290  12.417
59711W        W32059  31.635  44.761   1.320
59712W        W32060  44.797  32.469   4.719
59713W        W32061  34.490  38.908   2.350
59714W        W32062  39.381   2.461  10.976
59715W        W32063  16.109  16.108   1.741
59716W        W32064   4.879  22.228  12.855
59717W        W32065   7.347  25.072  12.024
59718W        W32066   7.213   5.803   0.869
59719W        W32067  20.044  23.195   2.882
59720W        W32068  30.952  23.198   1.786
59721W        W32069  20.100  38.829   4.667
59722W        W32070  28.454   6.719  12.358
59723W        W32071  29.480  40.839  10.501
59724W        W32072  15.823  14.713   4.656
59725W        W32073   5.736  29.512  14.883
59726W        W32074   5.800  33.922   4.276
59727W        W32075  25.620  32.102  13.496
59728W        W32076  24.487   2.771  12.979
59729W        W32077  29.579  17.085   1.845
59730W        W32078  40.851  34.498   3.772
59731W        W32079   8.724  16.228  12.422
59732W        W32080   4.853  41.862   4.234
59733W        W32081  30.598  11.148   0.353
59734W        W32082   4.320  18.733   1.754
59735W        W32083  22.114  20.266  13.964
59736W        W32084  27.648  42.814  11.044
59737W        W32085  18.107   8.697  13.481
59738W        W32086  39.523  41.415  14.990
59739W        W32087  43.460  18.732  13.907
59740W        W32088  42.319  20.198  13.926
59741W        W32089  34.958  10.312  14.001
59742W        W32090  41.368  11.366   4.676
59743W        W32091   8.392  33.503   4.286
59744W        W32092  42.004  39.430   1.243
59745W        W32093   0.418  18.082  14.452
59746W        W32094  12.151  30.037   1.310
59747W        W32095  16.099  40.502  11.570
59748W        W32096  19.775  17.132  12.071
59749W        W32097  41.951   0.960  10.921
59750W        W32098  13.745  27.068   4.602
59751W        W32099  44.779  38.995  10.948
59752W        W32100   3.430  25.688  14.384
59753W        W32101  31.607   9.823   4.630
59754W        W32102   9.702  13.298   0.309
59755W        W32103  20.585  22.191  11.922
59756W        W32104  29.171  30.600  12.017
59757W        W32105  39.509  33.615  12.947
59758W        W32106   4.786  27.055   3.326
59759W        W32107  28.632  18.753   2.801
59760W        W32108   7.389  36.521  10.568
59761W        W32109  27.659  34.068   0.772
59762W        W32110   4.416  35.432   2.361
59763W        W32111  11.704  32.398   0.373
59764W        W32112  17.196  36.580   1.733
59765W        W32113  39.549  15.819  10.588
59766W        W32114  19.698  29.126   3.307
59767W        W32115  44.943  16.725   2.389
59768W        W32116  35.911  15.778   1.882
59769W        W32117  25.545  31.098   3.688
59770W        W32118  17.634  44.783   0.896
59771W        W32119  17.619  27.133  14.342
59772W        W32120  40.951  13.329   1.908
59773W        W32121  38.825  31.640   0.767
59774W        W32122  17.628  29.549  14.987
59775W        W32123  39.027   6.318  12.006
59776W        W32124  15.702  11.689   5.230
59777W        W32125  18.290  44.800   2.195
59778W        W32126   4.706   8.899  11.096
59779W        W32127  13.250  10.363   0.786
59780W        W32128   1.842  39.884  14.331
59781W        W32129  26.621  40.989   0.801
59782W        W32130   3.787  34.940   4.340
59783W        W32131  27.079   8.359   0.451
59784W        W32132  16.095   5.216   3.690
59785W        W32133  18.170  22.093  13.308
59786W        W32134   6.230   5.775   3.297
59787W        W32135  32.543  26.616  14.386
59788W        W32136  43.021  37.964   0.385
59789W        W32137  33.622   7.701   2.842
59790W        W32138  29.963   0.835  12.917
59791W        W32139  27.986   1.882  12.991
59792W        W32140  26.525  40.519  13.950
59793W        W32141  12.270  16.806   2.386
59794W        W32142  19.605   2.804   4.763
59795W        W32143  13.695  12.351   4.133
59796W        W32144  32.892  25.654   0.418
59797W        W32145  13.119  37.571  10.482
59798W        W32146  26.626  10.869  13.428
59799W        W32147  25.679  26.638  13.370
59800W        W32148  35.981   8.846   1.444
59801W        W32149   4.930   0.387   9.978
59802W        W32150  39.936  42.017   3.378
59803W        W32151  44.971  41.012  13.848
59804W        W32152  30.940  30.559  14.907
59805W        W32153   7.840   0.356   2.201
59806W        W32154  37.550  31.020   5.252
59807W        W32155  31.995   0.804   4.608
59808W        W32156  17.274  10.244  11.510
59809W        W32157  10.665  14.723   1.428
59810W        W32158   5.419  11.317   2.799
59811W        W32159  34.541  28.566   3.641
59812W        W32160   1.423   8.824  13.960
59813W        W32161   0.880  23.583  11.599
59814W        W32162  20.523  11.351  13.944
59815W        W32163   8.405  14.268   0.296
59816W        W32164  15.741  19.750  13.998
59817W        W32165  22.080   9.312   2.246
59818W        W32166  13.244  41.944   3.335
59819W        W32167  18.257  21.548  10.501
59820W        W32168  12.142  16.081   3.662
59821W        W32169  18.164  40.952  11.433
59822W        W32170   9.348  43.495  13.804
59823W        W32171   7.850  36.369   2.417
59824W        W32172  38.473  36.898  13.863
59825W        W32173  40.513  44.480   3.784
59826W        W32174  20.256  12.765   2.378
59827W        W32175  28.125   6.737  11.878
59828W        W32176  23.061  22.149  14.357
59829W        W32177  18.787  21.203   5.158
59830W        W32178  18.100  33.417   0.748
59831W        W32179  38.048  19.140  12.844
59832W        W32180  15.213   8.784  11.080
59833W        W32181  40.352  29.111  14.929
59834W        W32182  37.882  32.518   0.842
59835W        W32183  15.213  35.524  13.014
59836W        W32184  44.001  33.614   0.731
59837W        W32185  10.300  39.327  11.126
59838W        W32186   5.801   1.845  14.855
59839W        W32187   8.321  31.618   0.407
59840W        W32188  39.012   6.915  14.867
59841W        W32189  11.802  35.882  10.457
59842W        W32190  14.222  16.177  11.946
59843W        W32191  10.301  15.700  10.975
59844W        W32192  29.008  41.885  14.490
59845W        W32193  34.540  24.708  14.811
59846W        W32194   3.376  16.163   4.122
59847W        W32195  44.877  16.805  11.048
59848W        W32196  10.257  35.973  12.065
59849W        W32197  38.871  41.339  12.383
59850W        W32198  29.066  26.055  10.961
59851W        W32199  22.701   2.890   4.176
59852W        W32200  12.768   7.842   1.912
59853W        W32201  40.020   4.380   0.888
59854W        W32202  40.975   6.328  12.081
59855W        W32203   8.742  17.711   4.327
59856W        W32204  24.069  29.966  14.859
59857W        W32205  36.046  26.680   4.620
59858W        W32206  22.091  10.182  11.056
59859W        W32207  13.173  21.122  14.316
59860W        W32208  43.395  10.752   4.324
59861W        W32209  13.844   5.326  11.522
59862W        W32210   0.466  25.999   1.319
59863W        W32211  39.877  16.655   3.774
59864W        W32212   8.261  35.492  11.021
59865W        W32213   3.233  32.915   2.231
59866W        W32214  21.542  25.118  11.415
59867W        W32215  10.674  40.894   4.235
59868W        W32216  24.984   5.716  12.555
59869W        W32217  37.056  18.219   4.273
59870W        W32218   6.899  28.968   3.765
59871W        W32219  31.496  34.934   5.806
59872W        W32220  14.614  20.691  14.869
59873W        W32221  18.142  40.918   3.319
59874W        W32222  22.687   6.235   2.778
59875W        W32223  11.328  12.334  12.974
59876W        W32224  23.055  26.509  11.110
59877W        W32225  36.570   1.818   1.293
59878W        W32226  38.420  34.912  14.405
59879W        W32227  21.166  33.946  10.551
59880W        W32228  15.209   4.776  11.995
59881W        W32229  35.004  36.496   3.786
59882W        W32230  21.703  39.455   2.867
59883W        W32231  40.822  16.774  14.931
59884W        W32232  23.519  28.565  11.021
59885W        W32233  12.164  43.383  11.931
59886W        W32234  37.988  32.956  11.418
59887W        W32235   3.826  16.643  11.917
59888W        W32236  41.811  24.532   1.774
59889W        W32237  21.254   5.758  13.319
59890W        W32238  31.410  17.181   3.633
59891W        W32239  27.998  15.168   1.215
59892W        W32240  31.549   9.781   1.397
59893W        W32241   8.358  17.669  12.480
59894W        W32242  24.577  18.210   1.433
59895W        W32243   5.856  11.836  11.390
59896W        W32244  26.665  14.602  12.047
59897W        W32245  32.614  37.891   5.166
59898W        W32246  15.647   1.476  10.949
59899W        W32247   1.776   2.830  14.777
59900W        W32248  16.199  13.278   2.728
59901W        W32249   5.770  35.109  13.946
59902W        W32250   8.654  35.484  12.945
59903W        W32251  30.967  41.958  12.829
59904W        W32252  41.004  40.044  10.501
59905W        W32253   5.241  20.679  12.863
59906W        W32254  22.684  27.581  14.977
59907W        W32255  42.297  33.059  10.498
59908W        W32256   2.864  39.398  13.356
59909W        W32257  42.305   2.306   4.668
59910W        W32258  15.119  21.256  12.538
59911W        W32259  32.529  24.524  14.394
59912W        W32260  34.418  41.470  13.791
59913W        W32261  10.818  23.691  10.988
59914W        W32262  28.543  38.016   2.791
59915W        W32263  35.052  30.908   2.328
59916W        W32264   1.433  19.700  11.483
59917W        W32265  27.536  19.071   3.234
59918W        W32266  19.223  44.783  12.470
59919W        W32267  22.196  12.174  10.509
59920W        W32268  28.646  41.493  12.949
59921W        W32269   3.276  18.760   2.287
59922W        W32270  14.196  43.827   1.794
59923W        W32271  33.899  22.220   3.216
59924W        W32272  36.088  13.761   0.339
59925W        W32273  28.124   0.776  11.889
59926W        W32274  32.002  24.041  12.578
59927W        W32275  43.304  11.302   2.287
59928W        W32276  30.581  33.416   3.649
59929W        W32277  17.593  24.070  11.115
59930W        W32278  25.618  20.043  12.047
59931W        W32279  25.582  34.382   2.286
59932W        W32280  11.646  24.121  10.133
59933W        W32281  33.089  35.012  13.465
59934W        W32282  20.764  15.618  14.436
59935W        W32283   6.923  12.787  14.782
59936W        W32284  37.874  44.782  12.391
59937W        W32285  12.257  16.714  11.570
59938W        W32286  37.391  35.029   2.758
59939W        W32287  26.556   1.459  14.913
59940W        W32288  26.086  15.758   1.831
59941W        W32289  12.615  26.134   2.288
59942W        W32290  29.481  11.773   4.286
59943W        W32291   3.453  43.891   0.770
59944W        W32292  12.337  25.025   1.223
59945W        W32293   1.356   8.200  14.809
59946W        W32294  35.892   2.429   3.732
59947W        W32295  24.059  16.157   2.301
59948W        W32296  18.183  15.136  14.483
59949W        W32297  27.659   8.307  11.044
59950W        W32298  44.272   7.731  11.855
59951W        W32299  41.031  38.058   3.296
59952W        W32300  39.414  38.915  11.922
59953W        W32301  31.488  44.935   4.230
59954W        W32302  14.796  29.038   4.264
59955W        W32303  11.635  32.480   4.194
59956W        W32304  20.271   6.864   4.307
59957W        W32305  41.451   6.329  13.837
59958W        W32306  44.425  24.211  10.448
59959W        W32307  19.636   3.803   3.690
59960W        W32308  19.172   1.289  14.764
59961W        W32309   7.302  26.659   2.270
59962W        W32310  17.195  39.855   3.864
59963W        W32311  43.764  11.767   0.312
59964W        W32312   7.680  22.641   2.307
59965W        W32313   2.907  36.858  11.471
59966W        W32314  31.434  12.683  13.996
59967W        W32315  38.027  38.877  11.544
59968W        W32316   9.184   7.753   2.889
59969W        W32317  39.545  34.572  12.984
59970W        W32318  43.017  44.458  14.391
59971W        W32319  34.391  39.878   4.835
59972W        W32320  26.588  11.641   0.943
59973W        W32321  10.373   5.424   5.222
59974W        W32322  43.515  27.665  13.905
59975W        W32323  24.575  39.977   2.836
59976W        W32324   6.753  36.900  12.418
59977W        W32325  32.613  33.953   0.439
59978W        W32326  32.541  34.992   2.407
59979W        W32327  29.029  16.290  10.566
59980W        W32328   4.249  17.714   4.283
59981W        W32329   7.186  18.737  13.971
59982W        W32330   3.305  26.601  14.333
59983W        W32331  17.753  29.501  13.518
59984W        W32332   9.694  26.471  10.477
59985W        W32333  35.368  31.133  13.307
59986W        W32334   7.903  34.996   1.745
59987W        W32335  23.731  37.467   3.755
59988W        W32336  25.124   5.845   3.160
59989W        W32337   3.336  42.886  13.488
59990W        W32338   7.381   4.705  12.998
59991W        W32339  15.271  25.614   3.321
59992W        W32340  32.494  10.345  13.357
59993W        W32341  32.453  35.505   3.254
59994W        W32342  24.699   1.950   1.326
59995W        W32343   7.893  28.582  12.064
59996W        W32344  25.985   5.378  11.437
59997W        W32345  44.756  33.051  11.107
59998W        W32346   6.694   0.787  12.941
59999W        W32347  32.961  24.122  12.048
60000W        W32348   3.736   2.383  11.099
60001W        W32349  16.293  27.014  11.557
60002W        W32350  34.441  38.934  11.018
60003W        W32351   7.409  29.173   4.740
60004W        W32352  18.772   0.333  11.612
60005W        W32353  21.552  12.235   2.226
60006W        W32354  27.192  42.421   2.357
60007W        W32355  44.920  44.450  11.905
60008W        W32356  18.679  14.772   0.886
60009W        W32357   1.828   9.674   3.163
60010W        W32358  34.922  33.521   0.281
60011W        W32359  34.418  34.373  14.976
60012W        W32360  18.553  16.301  12.395
60013W        W32361  27.627  13.844   2.366
60014W        W32362  21.028  20.741  13.974
60015W        W32363  20.057  25.010   1.827
60016W        W32364  43.845  37.392   1.884
60017W        W32365  18.090  40.325   4.125
60018W        W32366   0.486   4.379   3.161
60019W        W32367  15.123  14.625  13.951
60020W        W32368   4.846  38.907   2.677
60021W        W32369  36.544   2.472  13.013
60022W        W32370   4.713  36.377  12.572
60023W        W32371  37.457  31.086  10.458
60024W        W32372  25.552  20.117  11.489
60025W        W32373  37.877   2.863   0.878
60026W        W32374  31.089  23.984  10.535
60027W        W32375   6.730  33.094   0.921
60028W        W32376  44.837  34.465   3.851
60029W        W32377  22.203   9.657   1.240
60030W        W32378  21.569  42.961  12.008
60031W        W32379  39.967  33.123   4.349
60032W        W32380  15.159   2.871  13.843
60033W        W32381  29.643   3.851   1.820
60034W        W32382  17.696  27.598  11.484
60035W        W32383  38.883   5.691  14.300
60036W        W32384  16.759  31.094  14.981
60037W        W32385  11.658  37.561   1.450
60038W        W32386   4.406  19.102   1.428
60039W        W32387  10.733  15.314   4.819
60040W        W32388  27.094  30.001   3.176
60041W        W32389   6.350  42.489  11.868
60042W        W32390   4.795  13.331   0.786
60043W        W32391   1.427   1.841  13.405
60044W        W32392   3.310  42.846   3.196
60045W        W32393  34.112  28.002  11.858
60046W        W32394  26.586   1.249  11.903
60047W        W32395  17.156  23.065  12.564
60048W        W32396  29.063  17.290   3.640
60049W        W32397  36.491  44.990   4.656
60050W        W32398  28.046   1.333  14.397
60051W        W32399  33.066  40.007  14.293
60052W        W32400  33.000  19.635  13.918
60053W        W32401   5.764   6.278   4.205
60054W        W32402  26.042   6.286  11.495
60055W        W32403  37.568  37.985  11.957
60056W        W32404  23.491  24.203  11.010
60057W        W32405   5.783  43.431  10.979
60058W        W32406   6.272  31.957  13.423
60059W        W32407   8.823  15.248   0.249
60060W        W32408  22.221  37.454  12.541
60061W        W32409  16.677  29.014  11.123
60062W        W32410  21.041  43.004   2.396
60063W        W32411   8.724  26.632  12.412
60064W        W32412  43.514  44.431  14.496
60065W        W32413  35.589   3.733  13.906
60066W        W32414  15.822  14.737  14.303
60067W        W32415  15.165  32.482   0.415
60068W        W32416  13.310  24.017  11.951
60069W        W32417  36.565  22.513   1.280
60070W        W32418  26.498  10.865   2.193
60071W        W32419  26.545  32.468  10.427
60072W        W32420   7.742  13.623   2.328
60073W        W32421  18.183   5.834  11.566
60074W        W32422  14.138  15.163  11.874
60075W        W32423   3.825  41.439  14.482
60076W        W32424  10.636  35.474  12.499
60077W        W32425  27.588  30.122  13.452
60078W        W32426  22.033  37.979  12.049
60079W        W32427  24.120   1.340   2.680
60080W        W32428  24.567   7.411   3.663
60081W        W32429  29.647  22.739  10.613
60082W        W32430  39.410  18.759  14.999
60083W        W32431  11.761  19.163   4.630
60084W        W32432   6.401   3.794   3.836
60085W        W32433  20.036  27.103   3.163
60086W        W32434  44.434  33.564   0.813
60087W        W32435  15.703  36.056  12.048
60088W        W32436  14.227  24.141   2.386
60089W        W32437  35.944  29.430   1.702
60090W        W32438  13.281   3.422   0.861
60091W        W32439   1.408   6.881  12.016
60092W        W32440  29.997   9.248   1.879
60093W        W32441  31.079  41.971  11.376
60094W        W32442  34.100  22.237   1.871
60095W        W32443   6.843  31.466   1.267
60096W        W32444  24.103  21.070   0.425
60097W        W32445  10.729  31.969   1.217
60098W        W32446  15.194   5.912  13.403
60099W        W32447  19.080  13.277   4.811
60100W        W32448  43.890  43.929  13.872
60101W        W32449   1.296  26.656   4.810
60102W        W32450  40.937   1.901   1.931
60103W        W32451  20.634  35.434  14.493
60104W        W32452  30.502  41.398  14.462
60105W        W32453  41.453  25.048   5.308
60106W        W32454  19.612   8.168  14.791
60107W        W32455  24.091  23.992  13.500
60108W        W32456  41.889   0.895  14.942
60109W        W32457  44.855  22.539  13.798
60110W        W32458  29.920   2.326  14.771
60111W        W32459  32.067  33.010  13.904
60112W        W32460  21.132   6.419  13.334
60113W        W32461  18.055  40.504   0.314
60114W        W32462  37.455  28.183   4.795
60115W        W32463   4.422  32.125   1.320
60116W        W32464   0.861  42.303  11.108
60117W        W32465  31.620  22.126   4.634
60118W        W32466   4.901  11.778   5.263
60119W        W32467  44.297   7.243  14.301
60120W        W32468  15.109  32.136   1.758
60121W        W32469  24.703  29.552   2.783
60122W        W32470  17.212  38.902  10.937
60123W        W32471  31.544  20.126   2.731
60124W        W32472  32.419   3.442  10.541
60125W        W32473   8.354  44.866   3.762
60126W        W32474  41.042  35.561  13.535
60127W        W32475  15.244  33.609  13.413
60128W        W32476  16.177  31.918   1.328
60129W        W32477  11.306  23.714  10.478
60130W        W32478  38.979  18.179  10.535
60131W        W32479  18.752  16.158   3.682
60132W        W32480  10.767   4.367   9.958
60133W        W32481  39.981  42.458   0.819
60134W        W32482  27.559  36.071   3.692
60135W        W32483  37.905   4.781  14.880
60136W        W32484  23.727   9.184  11.078
60137W        W32485   0.266  32.580   4.810
60138W        W32486  13.663   6.220  12.400
60139W        W32487  28.053  21.244   3.250
60140W        W32488  37.560   1.935   3.307
60141W        W32489  12.856  26.045  14.930
60142W        W32490  13.800  14.318  13.056
60143W        W32491   4.939   8.687  10.024
60144W        W32492  10.239  39.009   5.301
60145W        W32493   4.283  37.937  10.515
60146W        W32494   2.777  12.636   3.347
60147W        W32495  10.377  41.336   2.417
60148W        W32496  16.779  37.881   3.258
60149W        W32497  25.490   4.332   1.298
60150W        W32498   0.364  36.409  14.514
60151W        W32499  28.983  21.555   3.828
60152W        W32500   2.439   5.888   0.323
60153W        W32501  42.447  25.207   3.662
60154W        W32502  43.013  15.794  13.394
60155W        W32503  13.256  20.162  11.512
60156W        W32504   8.168  23.141  12.982
60157W        W32505  43.331  36.524  14.464
60158W        W32506  14.338  14.792   1.231
60159W        W32507   5.202  35.464   4.612
60160W        W32508  23.681  20.562   3.255
60161W        W32509  24.153  21.063   2.810
60162W        W32510  35.917  35.573  14.432
60163W        W32511  14.743  34.937   2.724
60164W        W32512   1.474  25.675  12.936
60165W        W32513  27.519  15.577  11.039
60166W        W32514   4.749  37.915   2.730
60167W        W32515  27.964  40.008   1.859
60168W        W32516  25.034  33.988  11.050
60169W        W32517  30.162   3.298   2.680
60170W        W32518  25.700   0.878   3.377
60171W        W32519  26.553  27.125   0.473
60172W        W32520  31.468  28.623  11.514
60173W        W32521  37.454  36.077  14.331
60174W        W32522  41.026  24.504   4.765
60175W        W32523   2.753  11.727  14.822
60176W        W32524  42.003  39.516   4.177
60177W        W32525  41.790   8.241  12.541
60178W        W32526  35.945  37.033  14.840
60179W        W32527  29.038  14.259  13.310
60180W        W32528   8.250  22.117   1.792
60181W        W32529  21.580  39.870   2.884
60182W        W32530  30.161  26.699  13.031
60183W        W32531   6.901  12.808  12.929
60184W        W32532  32.045  22.527  12.341
60185W        W32533  13.286  41.489   1.870
60186W        W32534  29.166  23.189  13.024
60187W        W32535  37.878  26.603   3.213
60188W        W32536  41.534  21.664   2.721
60189W        W32537  44.328  25.508  11.589
60190W        W32538  19.212  16.092  10.958
60191W        W32539  24.182  43.809  13.969
60192W        W32540  18.751  31.063  14.974
60193W        W32541   1.763   7.822   0.757
60194W        W32542  22.589  15.248   3.302
60195W        W32543  43.871  22.684   3.712
60196W        W32544  29.480   8.288  13.974
60197W        W32545  27.651  22.107  11.461
60198W        W32546  15.703  21.047  14.467
60199W        W32547   2.324  29.067  10.501
60200W        W32548  33.608  38.451  11.611
60201W        W32549  24.687  20.110   1.329
60202W        W32550  38.916  38.939  10.595
60203W        W32551  27.136  37.014   3.265
60204W        W32552   1.420  19.243   2.255
60205W        W32553  23.005  20.546  11.567
60206W        W32554  14.171  10.861   3.830
60207W        W32555  10.368  35.404  12.387
60208W        W32556  26.561  21.121   3.821
60209W        W32557  23.574  37.977   0.409
60210W        W32558  30.039   3.376  12.906
60211W        W32559  12.187   9.196   0.385
60212W        W32560  29.074  35.018  14.356
60213W        W32561  22.129  33.070   3.211
60214W        W32562   5.266  22.645  12.063
60215W        W32563  42.351  12.312  12.014
60216W        W32564  27.578  41.989   0.836
60217W        W32565   0.911  14.105  14.345
60218W        W32566  25.499   5.299  11.890
60219W        W32567  31.987   5.357  11.857
60220W        W32568  40.813  14.667   2.206
60221W        W32569   3.326   2.918  13.906
60222W        W32570   2.399  24.083  10.621
60223W        W32571  14.703   3.343   0.309
60224W        W32572  38.940  43.451  11.006
60225W        W32573  41.849  38.976  14.503
60226W        W32574  18.771  36.846  14.420
60227W        W32575  42.015  18.552   3.742
60228W        W32576  11.728  12.253  11.989
60229W        W32577   4.426  37.465  10.535
60230W        W32578  41.518   6.323  14.887
60231W        W32579   1.917  29.106  10.626
60232W        W32580  21.235   4.770   5.145
60233W        W32581  17.751  28.576   2.671
60234W        W32582   4.370  31.996   4.683
60235W        W32583  38.063  32.542  13.354
60236W        W32584   5.229  40.442  12.501
60237W        W32585  28.156  19.130   0.940
60238W        W32586  36.568  34.590   2.346
60239W        W32587  43.275  40.835  14.935
60240W        W32588  15.222   2.721  13.491
60241W        W32589  15.792  39.350   1.754
60242W        W32590   9.282   8.791  14.020
60243W        W32591  40.477  23.191   2.258
60244W        W32592  43.935  28.656   4.191
60245W        W32593  34.581   4.770   1.885
60246W        W32594  43.775  26.461  12.075
60247W        W32595  22.713  19.601  11.474
60248W        W32596  11.224  24.201   0.746
60249W        W32597  33.108  23.568  12.471
60250W        W32598  37.551  30.509  12.514
60251W        W32599  29.155  14.201   4.707
60252W        W32600  11.836  37.454   0.369
60253W        W32601  35.575  36.540  12.471
60254W        W32602  39.333  10.348   4.818
60255W        W32603  10.281  37.361   3.192
60256W        W32604  36.037  25.186   1.868
60257W        W32605   2.363  16.149  12.910
60258W        W32606  31.992   3.732   3.234
60259W        W32607   1.948  43.320  12.865
60260W        W32608  40.920  40.952   0.844
60261W        W32609  43.991  30.466   0.756
60262W        W32610  39.340  22.732   2.391
60263W        W32611  21.674  26.180  10.470
60264W        W32612  40.389   5.893   0.941
60265W        W32613  37.530  16.589   4.233
60266W        W32614  21.553  14.738  14.803
60267W        W32615  39.451  20.223  13.400
60268W        W32616   4.211  33.597   2.321
60269W        W32617   4.839  27.152  11.407
60270W        W32618  43.873   4.418  11.890
60271W        W32619  30.641  30.050  13.448
60272W        W32620  13.735  31.040  13.310
60273W        W32621  32.078  39.849   2.322
60274W        W32622   1.394   7.381   0.937
60275W        W32623  23.222   2.833   1.790
60276W        W32624   7.776  42.892  13.420
60277W        W32625  18.557  25.142  13.484
60278W        W32626  17.788  20.194  14.978
60279W        W32627   5.723   8.705   2.182
60280W        W32628   9.266  41.947  12.062
60281W        W32629  18.125  16.775   2.880
60282W        W32630  38.851   7.219   1.716
60283W        W32631   8.313  19.543   4.299
60284W        W32632  17.670  11.241  11.476
60285W        W32633  25.012  39.030   3.203
60286W        W32634  35.535  34.012   2.827
60287W        W32635  32.046   9.873   4.286
60288W        W32636   4.404   4.728  10.938
60289W        W32637  27.448   4.289  11.067
60290W        W32638   9.194  38.526   4.221
60291W        W32639  35.034  35.547   1.435
60292W        W32640   7.209  44.427   4.341
60293W        W32641   5.799  26.610  13.470
60294W        W32642  38.453   7.288  10.590
60295W        W32643  19.154  12.203   1.316
60296W        W32644  28.945  10.711   3.792
60297W        W32645   0.928   4.768   3.189
60298W        W32646   6.737  28.470   0.744
60299W        W32647  43.318  20.099   1.747
60300W        W32648   0.984   2.427  10.933
60301W        W32649  35.407   6.731  14.863
60302W        W32650  32.999   2.229  13.472
60303W        W32651  17.721  23.213   0.901
60304W        W32652   4.436  41.802  11.482
60305W        W32653  32.970  29.042  13.451
60306W        W32654  10.341  33.524   1.816
60307W        W32655  34.072  25.678  10.420
60308W        W32656   8.256  26.086   0.832
60309W        W32657   3.946   7.175  12.928
60310W        W32658  22.041  20.247   2.670
60311W        W32659  44.787  41.996   1.746
60312W        W32660  27.057  11.716  10.424
60313W        W32661  10.776  10.222  10.906
60314W        W32662  20.763  18.290  13.891
60315W        W32663  10.817   8.373  12.404
60316W        W32664  41.304  26.156   0.460
60317W        W32665   4.228  27.188   4.828
60318W        W32666  10.832  22.601  10.551
60319W        W32667  25.661  20.192  14.962
60320W        W32668   6.850  42.898   4.334
60321W        W32669  20.603  24.011  14.357
60322W        W32670  23.652   4.420  11.047
60323W        W32671  28.449   7.275   2.798
60324W        W32672  31.956   9.677  13.488
60325W        W32673   6.198  27.646   1.363
60326W        W32674  11.811  23.199  11.087
60327W        W32675  38.875   5.783   2.720
60328W        W32676  44.799  33.022   1.246
60329W        W32677  13.628  44.499   2.734
60330W        W32678  44.971  28.931  10.413
60331W        W32679   8.698  41.011   0.423
60332W        W32680  18.082   7.878   2.191
60333W        W32681  18.268  21.624  10.999
60334W        W32682  29.090  42.862   3.639
60335W        W32683  20.187  23.042   1.349
60336W        W32684  26.511  26.539   3.345
60337W        W32685  43.277  23.690   3.747
60338W        W32686   0.854  42.290   1.354
60339W        W32687  38.541  12.708   4.255
60340W        W32688  17.796  23.625   1.275
60341W        W32689  29.033  19.594  12.078
60342W        W32690  33.914  35.547   2.245
60343W        W32691  19.264   6.760   4.816
60344W        W32692  28.021  17.740  11.863
60345W        W32693  35.029  27.625  12.079
60346W        W32694  41.506   7.311   0.409
60347W        W32695   1.855  20.567   3.228
60348W        W32696  15.106  23.667   3.727
60349W        W32697  40.439  41.898   1.877
60350W        W32698  12.252   2.731   2.764
60351W        W32699  25.128  40.382   0.868
60352W        W32700  35.025  14.738  10.509
60353W        W32701  25.533   6.376  11.441
60354W        W32702  13.688  16.584   3.703
60355W        W32703  42.460  26.139   2.183
60356W        W32704  36.577  28.639   2.890
60357W        W32705   7.230   4.210  14.956
60358W        W32706   6.859   9.242  12.959
60359W        W32707   0.921  20.749  13.847
60360W        W32708  33.880  24.175   3.838
60361W        W32709   4.763  12.776   4.823
60362W        W32710  12.172  12.353   2.367
60363W        W32711   6.741   0.765  11.489
60364W        W32712   5.744  22.067   2.402
60365W        W32713   9.209   5.374  12.450
60366W        W32714  38.431  41.317  13.991
60367W        W32715   3.347  32.937  11.093
60368W        W32716  42.442  42.852  10.920
60369W        W32717  21.228   1.356  14.012
60370W        W32718   3.393  15.601  12.066
60371W        W32719   4.885  23.070   2.902
60372W        W32720  44.888  20.095  14.764
60373W        W32721  34.937  44.341   1.902
60374W        W32722  16.087  33.434  11.566
60375W        W32723  38.550  31.624   1.816
60376W        W32724   2.469  39.467  13.028
60377W        W32725  26.529  10.850  14.911
60378W        W32726  14.330  22.622   4.822
60379W        W32727  18.236   0.969   1.834
60380W        W32728   5.853  16.659  11.596
60381W        W32729  20.065  22.659   1.890
60382W        W32730  25.618  18.118  12.022
60383W        W32731   3.428  40.054   2.214
60384W        W32732  32.525  24.997   4.257
60385W        W32733   1.763  32.472  14.440
60386W        W32734  17.675  28.019  11.556
60387W        W32735   5.422  26.998  13.911
60388W        W32736  19.622  34.072  13.939
60389W        W32737   4.873   0.855   3.703
60390W        W32738   1.262  26.958  14.482
60391W        W32739  16.241  35.426  10.555
60392W        W32740   6.902  15.286  13.404
60393W        W32741  14.774  18.783  14.986
60394W        W32742  33.912  14.698   1.797
60395W        W32743   5.810  10.337   1.398
60396W        W32744   2.233  44.814   4.621
60397W        W32745  13.337   0.865  14.807
60398W        W32746   6.360  30.069   2.399
60399W        W32747  13.724   3.390  12.057
60400W        W32748  35.993  39.549  13.984
60401W        W32749  33.532  15.729  11.920
60402W        W32750  33.407  40.013  10.073
60403W        W32751  17.274   7.667   4.128
60404W        W32752   9.315   8.321  12.833
60405W        W32753   0.352  26.643   1.307
60406W        W32754  17.634  29.026  12.528
60407W        W32755   0.282  32.594  11.914
60408W        W32756   5.226  33.406   1.778
60409W        W32757  37.469  43.018   4.118
60410W        W32758  17.243  40.029  13.817
60411W        W32759   9.797  36.906   4.200
60412W        W32760   4.415  24.071  14.888
60413W        W32761  30.990  20.172  10.442
60414W        W32762   9.395  17.178   0.477
60415W        W32763  40.303  39.439   1.372
60416W        W32764   5.881   9.285  13.337
60417W        W32765  19.056   8.356   1.703
60418W        W32766  24.105   9.234  11.505
60419W        W32767  17.086  35.380   2.747
60420W        W32768   2.378  36.916  14.024
60421W        W32769  37.437  24.985  12.994
60422W        W32770  33.879  33.886  12.344
60423W        W32771  21.046  39.337   4.347
60424W        W32772  21.196  44.921   2.200
60425W        W32773  18.197  41.986   3.796
60426W        W32774  38.430  31.125   0.250
60427W        W32775  18.675  36.587  13.839
60428W        W32776  33.116  31.506  13.002
60429W        W32777  18.562  24.062  12.870
60430W        W32778  30.609  26.098  11.452
60431W        W32779  36.964  11.345   4.267
60432W        W32780  12.743  13.652  11.906
60433W        W32781  13.181  42.463  14.847
60434W        W32782   7.859  35.904   0.296
60435W        W32783  24.528  44.417   0.771
60436W        W32784  22.041   2.238  12.886
60437W        W32785  28.590  14.116   1.422
60438W        W32786  16.673   8.283  14.941
60439W        W32787  21.584  38.939  11.460
60440W        W32788  16.165  22.576   4.282
60441W        W32789   2.323  18.612  14.966
60442W        W32790   1.767  12.264   4.308
60443W        W32791  12.164  10.804   4.740
60444W        W32792  22.113  10.658   4.281
60445W        W32793  36.542  12.278  12.393
60446W        W32794   3.721  38.333   4.801
60447W        W32795  14.126  17.238   3.324
60448W        W32796  16.094  24.007  13.057
60449W        W32797  44.366  12.723  13.372
60450W        W32798  15.106   9.677   3.792
60451W        W32799   0.779  23.580   3.298
60452W        W32800   2.408  12.248   4.194
60453W        W32801   7.835  25.085   0.357
60454W        W32802  41.532  16.698   0.439
60455W        W32803  39.507  35.570   2.202
60456W        W32804   6.319  35.911  11.955
60457W        W32805  12.733  12.769   2.764
60458W        W32806  23.990  19.226  14.282
60459W        W32807   0.810  10.310   1.400
60460W        W32808  38.922  30.492  13.938
60461W        W32809  17.736  16.797  11.426
60462W        W32810  25.052  13.612   3.340
60463W        W32811  12.643  24.975   4.238
60464W        W32812   6.842  34.911  12.994
60465W        W32813  10.738   0.799   9.993
60466W        W32814  15.216  36.374   0.874
60467W        W32815  36.071  36.515  10.498
60468W        W32816  20.092  14.792  14.364
60469W        W32817   4.260   7.196   1.721
60470W        W32818  28.627   9.748  14.356
60471W        W32819  30.538  23.093  14.892
60472W        W32820  43.463  42.925   3.284
60473W        W32821   2.262   2.398   0.407
60474W        W32822  31.546   4.443  11.443
60475W        W32823  25.668   2.288   2.848
60476W        W32824   3.448  16.805  12.952
60477W        W32825  37.831  21.036   2.717
60478W        W32826  33.473  11.841   3.871
60479W        W32827   5.915  34.049  13.968
60480W        W32828  29.441   2.926  14.356
60481W        W32829  19.180  44.861  12.092
60482W        W32830   8.800  12.291  13.528
60483W        W32831  19.554  20.078   1.417
60484W        W32832   4.268   4.314  13.896
60485W        W32833  24.699  19.761  10.981
60486W        W32834  36.563   0.892   0.480
60487W        W32835   2.858  41.398   1.886
60488W        W32836  12.356   0.377  13.902
60489W        W32837   0.928   8.387  12.843
60490W        W32838  17.614  39.478   3.667
60491W        W32839  17.589  18.787   4.827
60492W        W32840  19.676   0.479   2.297
60493W        W32841  33.441  26.195  11.043
60494W        W32842  29.509  19.777   4.751
60495W        W32843   0.862   8.681   1.898
60496W        W32844  30.083  37.356   2.875
60497W        W32845  26.193   6.792   2.398
60498W        W32846  13.176   7.766  12.573
60499W        W32847  40.933  30.526   2.410
60500W        W32848   6.754  16.650  14.838
60501W        W32849   3.238  35.890   3.711
60502W        W32850  29.139  39.842  11.884
60503W        W32851   6.199  22.997   3.333
60504W        W32852  39.939  15.199  13.544
60505W        W32853  42.919  14.786  14.855
60506W        W32854  37.527  19.115   4.659
60507W        W32855  25.181  13.620   4.771
60508W        W32856  18.568  32.577  11.886
60509W        W32857  10.777  27.023   3.776
60510W        W32858  33.622  11.812  12.376
60511W        W32859   1.326  34.060   2.221
60512W        W32860  11.678  26.069  11.065
60513W        W32861  38.909   2.427   1.850
60514W        W32862  43.772  42.384  13.997
60515W        W32863  20.135   3.328  10.542
60516W        W32864  30.152  13.701   1.929
60517W        W32865  44.368  19.151  14.956
60518W        W32866   2.275  11.298  13.912
60519W        W32867  18.774  26.627   9.966
60520W        W32868  43.325  22.652   4.351
60521W        W32869  35.038  15.178   0.353
60522W        W32870  26.022   9.202  14.429
60523W        W32871  28.163   6.845   4.276
60524W        W32872  13.247  11.265   2.681
60525W        W32873  30.930   9.203  10.567
60526W        W32874  16.646  33.617   2.215
60527W        W32875  21.691  44.423  10.420
60528W        W32876  15.632   7.173  13.341
60529W        W32877  10.309  22.163   4.771
60530W        W32878   7.863   2.734   1.935
60531W        W32879  15.208  19.220   0.306
60532W        W32880  27.119  39.952  12.572
60533W        W32881  11.131   1.407  12.930
60534W        W32882  13.254   4.728  10.091
60535W        W32883  35.022  32.935  12.416
60536W        W32884  41.906  23.651   2.419
60537W        W32885  20.664  20.104  12.959
60538W        W32886  20.160   8.274  12.528
60539W        W32887  24.086   2.893  14.851
60540W        W32888  28.672   2.764  14.376
60541W        W32889  25.504   8.383  10.628
60542W        W32890   6.318  10.775  11.579
60543W        W32891  39.433  18.140  12.873
60544W        W32892   3.286   0.456   3.717
60545W        W32893  28.166   5.702   4.282
60546W        W32894  30.055  42.959  13.397
60547W        W32895  21.115  16.208   2.195
60548W        W32896  34.003  32.122  10.575
60549W        W32897   2.442  11.211  10.571
60550W        W32898  22.674  30.077   1.303
60551W        W32899  20.111  24.025  13.489
60552W        W32900  24.096  30.026   0.426
60553W        W32901  29.583   0.261  11.094
60554W        W32902  30.492   6.699   2.292
60555W        W32903   5.738  35.109   1.283
60556W        W32904  24.652  36.414   2.719
60557W        W32905  35.420  29.054  14.279
60558W        W32906  11.149  42.382  10.899
60559W        W32907  14.283  42.439  14.445
60560W        W32908  11.173  22.111   9.503
60561W        W32909  29.532  17.718   0.953
60562W        W32910  41.322   3.739   1.932
60563W        W32911  13.616  36.457   4.667
60564W        W32912  18.711  14.591   4.153
60565W        W32913  41.788  18.141   0.905
60566W        W32914   1.937   1.845  14.330
60567W        W32915   5.710  16.720   1.749
60568W        W32916  19.606  14.109   0.257
60569W        W32917  39.874  29.556  12.505
60570W        W32918  29.001  15.130   1.300
60571W        W32919  27.043  30.141   1.356
60572W        W32920  41.907  37.993  12.878
60573W        W32921  14.781   2.929  12.879
60574W        W32922  21.629  10.758  11.380
60575W        W32923  18.755  35.965  12.906
60576W        W32924  14.617  39.891   1.215
60577W        W32925  19.283  31.638   0.844
60578W        W32926  20.034  21.220  10.486
60579W        W32927  38.543   5.844   2.378
60580W        W32928  43.503  12.734   1.252
60581W        W32929  25.588  19.277  10.629
60582W        W32930  38.983  10.205   3.856
60583W        W32931  40.806  37.943   4.804
60584W        W32932   2.918   7.862   4.132
60585W        W32933  13.600  44.763  13.965
60586W        W32934   9.793  25.707   1.738
60587W        W32935  26.623  27.156   1.745
60588W        W32936  25.614  33.883   2.811
60589W        W32937  34.549  36.504  11.877
60590W        W32938  20.530  44.927   2.244
60591W        W32939  20.606  34.957   0.802
60592W        W32940   6.242  19.646   3.324
60593W        W32941  13.747  27.972  14.300
60594W        W32942  37.068  27.943   2.376
60595W        W32943  21.253  43.414   2.324
60596W        W32944  25.986  30.505   2.665
60597W        W32945   4.260  23.543   0.797
60598W        W32946  43.426  21.209   3.217
60599W        W32947  25.139  35.595   3.299
60600W        W32948  22.619  33.510   5.191
60601W        W32949  21.570  28.598  12.918
60602W        W32950  27.963   4.719  13.849
60603W        W32951   5.786  32.445  14.492
60604W        W32952   0.966  42.886  12.012
60605W        W32953  11.210  13.686  10.437
60606W        W32954   8.359  20.218   5.605
60607W        W32955  36.884  32.444  12.915
60608W        W32956  32.067   0.838  11.894
60609W        W32957  36.441  41.470   9.979
60610W        W32958  29.577   4.720   0.752
60611W        W32959  15.103  12.731   2.418
60612W        W32960  28.091  39.017  10.004
60613W        W32961  35.385   1.956   0.735
60614W        W32962  25.139  37.911  10.593
60615W        W32963  20.723   5.897  13.365
60616W        W32964   0.388  33.501  13.008
60617W        W32965  32.907  31.409  14.308
60618W        W32966  18.687  33.519  12.072
60619W        W32967  12.343  15.621  13.448
60620W        W32968   7.305  29.090   0.753
60621W        W32969   0.441   1.977  14.887
60622W        W32970  32.568   5.688  12.885
60623W        W32971  30.958  19.778  14.947
60624W        W32972  20.234  15.153  11.125
60625W        W32973  24.975   0.255   0.904
60626W        W32974  28.003  13.321   1.265
60627W        W32975  28.961  34.919   4.691
60628W        W32976  17.202   9.761   4.340
60629W        W32977   8.270  32.542   0.398
60630W        W32978  28.026  28.478  10.622
60631W        W32979  31.105  16.726   4.143
60632W        W32980  13.664  29.519   4.215
60633W        W32981   7.826  28.078   1.775
60634W        W32982  31.460  32.925   1.922
60635W        W32983  29.943   4.750   2.311
60636W        W32984  41.465  10.646  13.943
60637W        W32985  43.512  25.665  11.946
60638W        W32986  34.985   8.836   5.091
60639W        W32987  38.389   8.730   1.443
60640W        W32988   0.438  36.430   2.866
60641W        W32989  37.852  14.802  14.334
60642W        W32990  15.108  17.216  11.870
60643W        W32991   2.329  42.886   2.871
60644W        W32992  30.988  32.035  10.028
60645W        W32993  29.946  38.967  12.351
60646W        W32994  29.520   8.356  12.844
60647W        W32995  14.601   7.269   0.757
60648W        W32996  37.486  29.598  11.586
60649W        W32997  11.294  34.421   4.351
60650W        W32998  32.996  20.173  11.119
60651W        W32999  25.701  41.407  14.275
60652W        W33000   9.699  15.718   2.372
60653W        W33001  23.723   1.953   1.935
60654W        W33002  20.144   6.241   1.842
60655W        W33003  29.134  40.383   3.352
60656W        W33004  13.836  13.121  10.912
60657W        W33005  11.829  41.913  14.887
60658W        W33006   6.911  25.195   4.238
60659W        W33007  41.317   6.267   0.321
60660W        W33008   6.783   3.953   3.710
60661W        W33009  33.586   6.305   2.812
60662W        W33010  28.976  17.659  10.505
60663W        W33011  43.278   5.390  14.883
60664W        W33012  16.304   8.310   0.364
60665W        W33013  30.502  13.738   1.870
60666W        W33014  36.515  11.275   1.821
60667W        W33015  30.494  30.498   4.785
60668W        W33016  18.560   8.880  10.016
60669W        W33017  21.188  17.595   1.336
60670W        W33018  43.335  32.529  13.967
60671W        W33019  34.484   2.239   4.321
60672W        W33020  42.320  12.727  14.873
60673W        W33021  30.485  43.860  11.973
60674W        W33022  39.925  12.325  14.878
60675W        W33023  11.311   2.853  14.351
60676W        W33024  40.813  43.846   3.746
60677W        W33025  24.702  27.503   0.327
60678W        W33026  14.767  19.623  11.928
60679W        W33027  23.596  24.592  13.493
60680W        W33028  37.834  40.924  12.057
60681W        W33029  40.802   8.278  11.873
60682W        W33030  11.643  39.816  10.424
60683W        W33031  39.973  43.278   2.288
60684W        W33032   3.381   6.873  14.332
60685W        W33033  24.224  19.141  12.535
60686W        W33034  36.421  17.780   3.158
60687W        W33035  19.207  22.660  12.844
60688W        W33036  37.391   5.691   2.407
60689W        W33037  18.250  24.591  11.875
60690W        W33038  44.395  28.065   1.309
60691W        W33039  37.513  28.139   1.285
60692W        W33040  44.455  17.238   1.783
60693W        W33041  26.054   3.739   1.749
60694W        W33042  19.749  15.126   1.256
60695W        W33043   0.383  38.523  11.077
60696W        W33044  12.166   5.435  10.120
60697W        W33045  41.954  11.795   1.267
60698W        W33046  10.728   8.678   4.188
60699W        W33047  28.644  15.291  13.404
60700W        W33048   8.806  32.113   1.785
60701W        W33049   6.379   6.716  12.493
60702W        W33050   7.249  21.122  11.112
60703W        W33051   2.324  11.643  13.034
60704W        W33052  11.854  18.689  12.536
60705W        W33053  10.325  38.005  12.580
60706W        W33054  19.131  24.713  14.413
60707W        W33055  18.085  33.011   1.762
60708W        W33056  42.866  16.233  14.787
60709W        W33057  29.540  27.196   3.847
60710W        W33058  22.592  18.635   3.786
60711W        W33059  24.671  38.479  14.986
60712W        W33060  35.992   2.890   4.150
60713W        W33061  13.153  12.624   3.197
60714W        W33062  32.935  29.512   2.304
60715W        W33063  16.129  29.606   1.855
60716W        W33064  13.223  26.595  14.991
60717W        W33065  26.671   3.818  11.119
60718W        W33066   7.207  23.187  13.807
60719W        W33067   9.267  41.410  11.394
60720W        W33068  18.215  15.789   2.703
60721W        W33069  33.886  34.530  11.033
60722W        W33070  26.165   7.699   0.452
60723W        W33071   5.929   8.358   3.679
60724W        W33072  27.677  14.799  14.780
60725W        W33073  38.881  19.081  11.944
60726W        W33074  31.530  12.820  14.279
60727W        W33075   0.806  35.989   2.887
60728W        W33076  13.156  32.064   2.756
60729W        W33077  31.953  33.399   1.857
60730W        W33078  12.212  41.018  12.441
60731W        W33079  43.836   8.835   3.666
60732W        W33080  22.563  33.040   1.789
60733W        W33081  37.521  37.549  13.528
60734W        W33082  41.896   6.684   2.181
60735W        W33083  18.589   6.216  10.159
60736W        W33084  44.314  31.099  11.604
60737W        W33085  24.720  19.674  10.599
60738W        W33086  15.822  14.774   1.770
60739W        W33087  28.113  17.192   0.439
60740W        W33088  33.127  44.398  13.388
60741W        W33089   4.842   6.760   4.680
60742W        W33090  35.921  13.699  12.490
60743W        W33091   9.802  14.681   0.771
60744W        W33092  22.097  13.724   3.221
60745W        W33093  16.097   1.785  12.898
60746W        W33094   8.840  13.839  14.026
60747W        W33095   4.795  29.544   2.670
60748W        W33096  19.146   8.895   1.919
60749W        W33097  35.427  22.602  14.987
60750W        W33098  39.970  30.461  12.454
60751W        W33099  43.834   4.758   2.732
60752W        W33100  13.759   1.240  14.936
60753W        W33101  40.525  19.045   0.260
60754W        W33102   8.817  33.573  14.941
60755W        W33103  34.403  17.279   1.767
60756W        W33104  40.445  34.912  11.571
60757W        W33105  41.829   5.306   2.316
60758W        W33106  37.565   8.666  12.498
60759W        W33107  34.006  15.680   2.398
60760W        W33108   6.754  38.063   1.239
60761W        W33109  16.101  14.295  10.582
60762W        W33110   6.248  27.084   3.326
60763W        W33111  34.058  30.129  13.025
60764W        W33112  18.189  35.431  12.873
60765W        W33113  29.453  35.542  12.363
60766W        W33114  35.448   2.735  12.855
60767W        W33115  30.658  19.671   3.331
60768W        W33116  27.467   5.921  12.861
60769W        W33117  42.840  42.873  11.034
60770W        W33118   5.842  37.573  12.455
60771W        W33119   4.204  33.889  14.326
60772W        W33120  14.799  24.686  12.978
60773W        W33121  18.067  34.908  10.970
60774W        W33122  29.982  31.571  13.871
60775W        W33123  10.635  37.834  13.933
60776W        W33124  33.977  32.115  14.353
60777W        W33125  22.997  36.877  13.453
60778W        W33126  10.657   9.675  12.945
60779W        W33127  36.514  39.367   0.287
60780W        W33128  41.415   1.868   0.831
60781W        W33129  41.791   7.250  12.985
60782W        W33130  13.140  41.375   3.350
60783W        W33131  42.421   1.921  12.994
60784W        W33132  15.261  44.411  11.382
60785W        W33133  23.593  10.340  14.011
60786W        W33134   6.794  27.502  10.603
60787W        W33135  38.468  32.979   1.711
60788W        W33136   8.848  27.139   1.931
60789W        W33137  11.822  13.673  11.584
60790W        W33138  32.401  12.811   0.833
60791W        W33139  28.448  21.094   2.229
60792W        W33140  17.732   0.398  13.059
60793W        W33141  43.432   3.430  12.384
60794W        W33142  15.239  33.119   1.413
60795W        W33143  28.100  28.982  10.147
60796W        W33144   9.663  43.909  13.487
60797W        W33145  36.455  39.864  14.450
60798W        W33146  27.144   8.365   1.893
60799W        W33147  29.922  31.104  13.813
60800W        W33148   2.335  38.876   0.810
60801W        W33149   4.732  26.958  10.152
60802W        W33150  31.494  11.824  11.036
60803W        W33151  11.717   8.252   4.780
60804W        W33152   5.746   6.688  14.000
60805W        W33153  38.871  11.149  13.423
60806W        W33154  41.930  37.348   1.365
60807W        W33155  19.233  28.473   2.816
60808W        W33156  15.780  39.443   0.887
60809W        W33157   6.810  24.497   1.329
60810W        W33158  36.566  34.445   2.735
60811W        W33159   5.895  18.655   1.241
60812W        W33160  18.583  12.201  14.764
60813W        W33161  39.926   3.817  12.021
60814W        W33162   5.332  14.662   1.213
60815W        W33163  37.900   4.355  10.568
60816W        W33164  14.613  33.999  12.381
60817W        W33165  14.827  34.518  10.130
60818W        W33166  27.621   0.453   4.241
60819W        W33167  38.400  35.413   2.201
60820W        W33168  44.366  23.573   5.132
60821W        W33169   3.325  32.082   4.180
60822W        W33170  19.655  10.335   3.373
60823W        W33171  25.693   9.652  10.444
60824W        W33172  21.219  23.130  12.372
60825W        W33173  23.588  40.392   3.172
60826W        W33174  40.414  11.259  14.786
60827W        W33175  30.603  34.506  13.798
60828W        W33176  41.826  17.146   0.801
60829W        W33177  18.245   2.768   4.832
60830W        W33178  37.003  24.170  10.495
60831W        W33179  41.297  41.312   4.728
60832W        W33180  30.137   6.915   2.862
60833W        W33181  37.480  14.796  10.526
60834W        W33182  28.573   4.229  13.332
60835W        W33183  20.205  40.858   4.635
60836W        W33184  32.933  14.630  14.927
60837W        W33185  38.954  28.023  11.505
60838W        W33186  26.142  44.965   0.754
60839W        W33187  22.023  42.983  12.567
60840W        W33188  33.506  27.467  12.896
60841W        W33189  44.972  20.265   1.696
60842W        W33190  15.128  11.356   4.253
60843W        W33191  42.516  10.746  13.527
60844W        W33192  39.398  41.925  13.445
60845W        W33193  27.052  30.936  14.833
60846W        W33194   3.318  10.217  13.935
60847W        W33195  31.559   4.222   4.341
60848W        W33196  19.138  33.441   3.648
60849W        W33197   0.478  24.145   2.738
60850W        W33198  16.089  27.034  11.943
60851W        W33199  17.216   6.789  11.127
60852W        W33200  30.463   6.880  10.600
60853W        W33201  23.127  20.225  14.774
60854W        W33202   0.839  44.322   4.728
60855W        W33203  36.353  41.398  13.006
60856W        W33204   6.677  34.041   2.282
60857W        W33205   6.689   0.362  13.547
60858W        W33206  13.222  37.977  11.606
60859W        W33207  15.603  16.748  11.538
60860W        W33208  24.974  37.994  14.510
60861W        W33209  43.471  36.478   1.224
60862W        W33210  30.437  31.997   3.715
60863W        W33211   9.190   7.322  13.996
60864W        W33212  28.097  30.007  13.021
60865W        W33213  22.152   3.256  13.465
60866W        W33214  34.567  28.153   3.279
60867W        W33215   4.928  43.815  12.871
60868W        W33216  16.177  21.245   2.394
60869W        W33217  16.666  35.972   4.696
60870W        W33218  33.888  44.499  10.412
60871W        W33219  33.574  41.517   2.893
60872W        W33220   3.912  11.836  10.454
60873W        W33221  19.138  24.688   2.739
60874W        W33222  42.962  17.663   4.828
60875W        W33223  24.995  44.422  12.456
60876W        W33224   1.289  14.792  14.362
60877W        W33225  32.618   8.317   3.185
60878W        W33226  27.964  41.971   3.379
60879W        W33227  23.581  16.660   4.218
60880W        W33228  31.604  35.486  10.941
60881W        W33229  12.649  16.699  12.562
60882W        W33230   0.300   4.375  12.366
60883W        W33231  29.136  19.179  14.458
60884W        W33232  35.884  28.478   1.906
60885W        W33233  14.749  23.241   1.385
60886W        W33234   9.259  24.098   1.728
60887W        W33235  32.010   9.317  10.955
60888W        W33236  40.418  28.587  14.388
60889W        W33237   2.468  13.811   2.391
60890W        W33238   2.264  28.468   4.346
60891W        W33239  41.392  10.862  14.483
60892W        W33240  20.768  15.233   4.244
60893W        W33241   0.285   7.716   1.446
60894W        W33242  39.343   2.408  11.945
60895W        W33243  39.500  42.490   2.782
60896W        W33244  26.576   5.797   1.283
60897W        W33245  32.972  38.435  10.890
60898W        W33246   4.234  12.173   2.196
60899W        W33247  19.599  36.422   5.233
60900W        W33248  10.869  30.983   2.398
60901W        W33249  35.459  34.550  10.951
60902W        W33250  29.426  28.064   0.424
60903W        W33251  40.465   9.187   3.160
60904W        W33252  22.623  43.349  10.508
60905W        W33253  26.114  23.082  11.008
60906W        W33254   8.346  44.985  13.385
60907W        W33255  30.488  12.630  13.340
60908W        W33256   8.229  26.617  12.938
60909W        W33257  16.100   5.727   1.732
60910W        W33258  23.547  28.050  14.428
60911W        W33259  37.017  31.523   1.386
60912W        W33260  37.568   0.284   0.740
60913W        W33261  27.602  31.018  12.006
60914W        W33262  31.604   5.772   4.621
60915W        W33263  43.305  42.478   4.354
60916W        W33264  30.062   6.183   4.168
60917W        W33265  37.038  35.503  10.537
60918W        W33266  21.586  26.163  12.876
60919W        W33267  10.768  38.074  11.084
60920W        W33268  28.014   0.945  13.469
60921W        W33269  42.949  36.895   2.802
60922W        W33270  10.258  20.158   4.828
60923W        W33271  41.835  24.533  12.035
60924W        W33272  34.404  30.559   3.729
60925W        W33273   9.318  22.205   0.827
60926W        W33274  33.599  32.523   3.674
60927W        W33275  24.047  10.294  10.497
60928W        W33276  34.586  11.284   0.872
60929W        W33277  31.465  35.097  12.341
60930W        W33278  24.585  41.483  13.944
60931W        W33279  31.957  42.918  11.501
60932W        W33280  18.248  21.740   4.833
60933W        W33281  36.488  31.634  13.963
60934W        W33282   6.837  30.087   2.278
60935W        W33283  40.915  31.970  13.027
60936W        W33284   3.257  42.788   5.259
60937W        W33285  13.811  31.447   0.384
60938W        W33286  12.349  13.695   1.399
60939W        W33287  41.920  37.441   3.214
60940W        W33288   0.780  18.222  13.340
60941W        W33289   0.857  35.438  10.491
60942W        W33290  33.617  32.099  11.449
60943W        W33291  20.105  28.076  12.521
60944W        W33292  14.210  19.623   3.299
60945W        W33293   3.855  10.823  14.945
60946W        W33294   5.882   4.745   4.257
60947W        W33295   6.295  43.370   2.250
60948W        W33296  36.425  26.627   1.783
60949W        W33297  34.092  10.148   4.325
60950W        W33298  30.158   6.258   0.344
60951W        W33299  39.986  10.238   3.692
60952W        W33300   0.346  34.570  10.488
60953W        W33301  11.662  11.852  10.898
60954W        W33302  23.060  28.464  11.507
60955W        W33303  26.089  10.292   4.330
60956W        W33304  40.849   3.440   4.713
60957W        W33305  23.110   4.914  13.048
60958W        W33306  37.365  12.213  10.514
60959W        W33307   0.920  18.254   3.744
60960W        W33308  35.431  39.326   3.809
60961W        W33309  28.607   4.728   2.795
60962W        W33310  43.834  12.651  13.429
60963W        W33311   1.292  26.611  11.483
60964W        W33312  11.262  20.139  13.028
60965W        W33313  19.053  20.259  12.966
60966W        W33314  30.054   6.820  14.940
60967W        W33315  13.737  31.553  12.557
60968W        W33316   9.324  27.545   2.837
60969W        W33317   4.292  27.690  12.901
60970W        W33318   7.270  42.401   2.692
60971W        W33319  12.237  42.316   1.385
60972W        W33320  34.580   2.373   2.709
60973W        W33321  25.055  33.053  11.387
60974W        W33322   3.221  38.348  10.527
60975W        W33323  40.325  11.795   4.598
60976W        W33324  42.462  28.044   2.316
60977W        W33325  17.204  21.034   4.333
60978W        W33326  22.141  23.717  12.956
60979W        W33327  12.149  40.880   1.287
60980W        W33328  41.491  21.722  13.506
60981W        W33329  24.110  26.481  11.036
60982W        W33330  41.434  10.180   4.603
60983W        W33331  35.873  19.708  11.539
60984W        W33332  19.237  12.230  12.570
60985W        W33333  31.533  20.033   0.775
60986W        W33334  12.756  34.388   3.862
60987W        W33335  12.244  17.663   2.797
60988W        W33336  25.533  25.508  14.776
60989W        W33337  31.538  26.657  13.822
60990W        W33338   6.369  42.443   2.337
60991W        W33339   8.357  35.890   2.412
60992W        W33340  18.572  23.038  14.946
60993W        W33341  13.839   2.750   3.813
60994W        W33342  37.397  28.658   0.420
60995W        W33343  15.234  31.614   4.196
60996W        W33344  28.665  31.606   0.748
60997W        W33345  40.974  19.624  11.967
60998W        W33346   5.346   9.759  13.307
60999W        W33347   0.975  25.033   0.940
61000W        W33348  32.491  31.633  12.037
61001W        W33349  44.363   5.264  12.391
61002W        W33350  44.870   9.859  10.639
61003W        W33351  17.780   6.321  13.014
61004W        W33352  44.967  32.057  14.992
61005W        W33353  41.328  25.635  13.920
61006W        W33354  16.226  16.807  12.829
61007W        W33355  13.677  24.634   3.324
61008W        W33356   8.335  39.443   0.911
61009W        W33357   7.174   2.261  12.845
61010W        W33358  44.808  32.547  12.353
61011W        W33359  36.460  39.007   1.733
61012W        W33360  36.055  40.901   1.819
61013W        W33361  11.697  15.195  11.381
61014W        W33362   8.783   6.357   4.659
61015W        W33363  37.044  24.151  14.433
61016W        W33364  10.655  23.634  13.373
61017W        W33365  10.238   5.225   3.203
61018W        W33366  29.922  14.242  13.427
61019W        W33367  34.403  17.189   1.384
61020W        W33368  33.948   4.919  13.830
61021W        W33369   6.859  26.457  14.515
61022W        W33370   8.317  16.696   0.409
61023W        W33371  36.378  37.351   2.790
61024W        W33372   4.216  25.191   3.351
61025W        W33373  22.500  34.375   1.735
61026W        W33374  19.150  36.903  10.489
61027W        W33375  34.007  40.428   3.375
61028W        W33376  17.163  33.518   5.182
61029W        W33377   2.829  12.361   4.793
61030W        W33378   4.773  27.990   0.468
61031W        W33379  35.065   6.231  13.376
61032W        W33380  43.866   6.706  10.921
61033W        W33381  44.365  20.257  13.518
61034W        W33382  16.630  18.112   1.288
61035W        W33383  38.836  24.551   4.786
61036W        W33384   7.814  24.984   2.803
61037W        W33385  36.989  33.086   3.160
61038W        W33386  19.554   4.306   0.829
61039W        W33387  36.920  22.127   2.836
61040W        W33388  12.269   2.733   4.237
61041W        W33389  12.221  24.507   0.946
61042W        W33390  39.542   6.384   3.631
61043W        W33391  17.230  32.963  14.306
61044W        W33392  12.840   6.787  11.013
61045W        W33393  23.060  42.298  14.790
61046W        W33394  39.340  28.094  12.925
61047W        W33395  40.946  18.757   0.786
61048W        W33396  35.443  11.840  10.504
61049W        W33397  11.307  18.778   1.810
61050W        W33398  39.917  11.199  11.875
61051W        W33399  44.880  27.122  13.428
61052W        W33400  12.173  21.695  12.516
61053W        W33401  12.335  43.316  13.427
61054W        W33402  26.076   9.817   0.745
61055W        W33403  23.082  19.248   3.349
61056W        W33404   2.275  19.541  14.885
61057W        W33405  32.493   5.197   1.928
61058W        W33406  12.231  12.290   2.901
61059W        W33407   2.280  38.970  13.537
61060W        W33408  17.186  16.799   4.619
61061W        W33409  15.716  21.576   4.819
61062W        W33410  35.917  16.186  11.019
61063W        W33411  35.477  28.643   3.346
61064W        W33412  11.749  23.122   2.785
61065W        W33413  13.756  21.536   4.651
61066W        W33414   7.744  22.642  14.315
61067W        W33415   6.862  14.662   0.920
61068W        W33416   3.878  41.346  10.619
61069W        W33417  26.697  18.669  12.488
61070W        W33418  42.938   7.409  14.456
61071W        W33419  30.013  26.003   2.414
61072W        W33420   5.344  37.068  12.873
61073W        W33421  34.370  42.000   3.301
61074W        W33422  15.191  40.033   2.296
61075W        W33423  36.856  32.887   3.770
61076W        W33424  25.984  14.336   0.784
61077W        W33425  44.943   4.919  10.553
61078W        W33426  34.597  31.624  10.557
61079W        W33427   0.422  16.596  10.412
61080W        W33428   1.475   2.347   2.688
61081W        W33429  13.632  24.665  10.912
61082W        W33430  41.848   3.456   2.806
61083W        W33431  15.297   9.884   1.870
61084W        W33432   3.233  36.016  11.982
61085W        W33433  33.063  35.546  13.977
61086W        W33434  26.074  16.263   2.770
61087W        W33435  44.461  15.630  12.384
61088W        W33436  30.413   5.218  11.046
61089W        W33437  30.912   0.817  13.463
61090W        W33438   3.224  34.463  13.808
61091W        W33439  35.930  44.922  13.515
61092W        W33440   9.712  13.153   2.291
61093W        W33441  13.264   1.806  12.486
61094W        W33442  16.735   3.377  11.462
61095W        W33443  10.302  38.928  13.923
61096W        W33444   5.750  28.011  10.520
61097W        W33445  22.159  25.150   0.882
61098W        W33446  11.227  18.244  10.960
61099W        W33447  31.401   8.834   5.732
61100W        W33448  17.666  23.992   3.748
61101W        W33449  43.465   8.808  10.459
61102W        W33450   4.357  42.483   4.659
61103W        W33451  16.762  24.992   1.803
61104W        W33452  21.675  22.028  13.985
61105W        W33453  24.991  42.899   0.422
61106W        W33454   8.243  43.515  14.856
61107W        W33455  41.388   8.692  11.433
61108W        W33456  39.841  25.964  13.536
61109W        W33457  24.054   6.361  14.513
61110W        W33458  12.128  34.387   0.276
61111W        W33459  42.915  41.453  12.020
61112W        W33460  23.535  43.452   3.755
61113W        W33461   8.386  18.690  11.115
61114W        W33462  27.650  25.965   2.778
61115W        W33463   2.749  21.756  14.440
61116W        W33464  26.666   3.448  12.442
61117W        W33465  41.919  43.982   0.861
61118W        W33466   2.826  32.932   1.308
61119W        W33467  15.668  33.073  12.471
61120W        W33468  33.939  26.673  12.550
61121W        W33469  30.513  41.852   3.643
61122W        W33470  16.133  30.512  10.456
61123W        W33471  27.128  41.972   3.235
61124W        W33472  36.044  40.995  10.891
61125W        W33473  43.917  27.003   4.629
61126W        W33474  36.380  16.250   0.254
61127W        W33475  12.210  41.938   1.824
61128W        W33476  30.630  19.255  13.007
61129W        W33477  10.225  20.615   0.352
61130W        W33478  22.208   8.805   2.402
61131W        W33479  43.907  25.626   0.484
61132W        W33480  27.040   9.818   4.615
61133W        W33481   9.831   4.348   4.181
61134W        W33482  34.510  28.652   2.859
61135W        W33483  13.630  42.321   1.436
61136W        W33484  25.099  19.648  13.528
61137W        W33485  39.027   1.838   4.150
61138W        W33486  19.190   3.839   1.383
61139W        W33487   5.892  43.340   3.264
61140W        W33488  27.152  14.600  14.447
61141W        W33489  11.856  42.836   1.430
61142W        W33490  16.078  32.420   0.343
61143W        W33491  33.540  43.404  14.422
61144W        W33492   2.231   5.411  11.509
61145W        W33493  35.865  12.644   1.254
61146W        W33494  43.350  41.304   3.273
61147W        W33495  33.016  24.010   3.842
61148W        W33496  11.785  18.591  13.465
61149W        W33497  30.057  20.668   1.414
61150W        W33498   6.194  42.794   4.183
61151W        W33499  22.544  26.956  11.509
61152W        W33500  30.165  14.655   0.914
61153W        W33501  29.638  28.652   3.208
61154W        W33502  38.064  33.440   2.847
61155W        W33503  39.462  16.719   4.757
61156W        W33504  18.708  17.185  10.947
61157W        W33505   4.823   3.340   2.899
61158W        W33506  40.406  14.631  11.875
61159W        W33507  22.117  19.187   3.768
61160W        W33508   6.248   1.899  14.971
61161W        W33509  11.266  10.683   1.257
61162W        W33510  37.947  17.587  14.979
61163W        W33511  37.049  40.408   0.892
61164W        W33512  20.049  12.695  14.903
61165W        W33513   2.380  40.898   4.660
61166W        W33514  41.478  22.653   2.665
61167W        W33515  16.677   9.862   4.114
61168W        W33516  23.660  21.557  13.546
61169W        W33517  42.889  34.377  13.812
61170W        W33518  21.539  44.345  13.866
61171W        W33519  13.175  36.996   0.841
61172W        W33520   7.202  27.196  13.876
61173W        W33521  34.091  29.156  12.871
61174W        W33522  15.685  19.043   4.289
61175W        W33523  21.545  15.635   1.286
61176W        W33524  24.516   0.790   3.786
61177W        W33525  29.509  10.275  13.468
61178W        W33526  28.612  18.768  11.041
61179W        W33527  15.288  30.929  12.439
61180W        W33528  28.539   1.379   1.339
61181W        W33529  12.275  32.113  12.476
61182W        W33530  40.405  29.648  10.448
61183W        W33531  32.562  38.861  13.491
61184W        W33532  31.578  30.574  14.474
61185W        W33533  16.080  11.745  11.503
61186W        W33534  36.347  11.690   2.415
61187W        W33535  16.083  32.569   1.806
61188W        W33536  33.961  12.801   2.795
61189W        W33537  30.073   9.846   0.277
61190W        W33538  27.651   4.896   3.379
61191W        W33539   3.754  15.668  11.549
61192W        W33540  21.263  10.717  13.352
61193W        W33541  21.157  18.127   0.849
61194W        W33542  30.460  21.162   5.313
61195W        W33543  18.602  40.943  12.570
61196W        W33544  35.378   4.417   4.726
61197W        W33545  20.649   0.309   3.708
61198W        W33546  26.171  29.921   2.389
61199W        W33547  21.633  24.578   1.357
61200W        W33548  33.073   3.799   2.893
61201W        W33549   0.459  13.314   3.637
61202W        W33550  25.051   0.783   3.700
61203W        W33551   9.737  18.285  12.388
61204W        W33552  36.999  41.957   1.264
61205W        W33553  12.136   6.850  10.574
61206W        W33554  30.523  19.588   4.259
61207W        W33555  11.187   2.372   1.376
61208W        W33556  35.914  32.078  13.058
61209W        W33557  43.948  23.109   0.322
61210W        W33558  30.145  44.389   0.733
61211W        W33559   7.843   8.319   1.792
61212W        W33560  21.673  23.622  11.104
61213W        W33561  14.173  25.674  11.010
61214W        W33562  40.025  35.369   1.321
61215W        W33563  25.105  17.140   2.750
61216W        W33564  15.633  21.757  14.448
61217W        W33565  44.424   3.352  12.849
61218W        W33566  33.414  11.301   4.162
61219W        W33567   1.362  34.914   3.285
61220W        W33568   3.314  32.937  11.596
61221W        W33569  34.461  39.912   0.446
61222W        W33570  37.578  36.419   5.182
61223W        W33571   8.260  27.086   2.274
61224W        W33572  43.449  22.199  11.910
61225W        W33573  18.295  27.573  13.518
61226W        W33574  25.000  32.991  14.429
61227W        W33575  16.739   0.453  11.562
61228W        W33576  44.993  43.348   1.718
61229W        W33577  30.596  36.869  12.898
61230W        W33578   9.321  24.564  13.538
61231W        W33579   4.804  32.620  12.002
61232W        W33580   5.813  37.899  12.467
61233W        W33581  37.538  35.061  13.338
61234W        W33582   1.448  40.328  12.926
61235W        W33583  21.628  32.002   0.796
61236W        W33584   6.861   5.217  14.798
61237W        W33585  41.332  20.220   5.283
61238W        W33586   0.426  15.205  10.496
61239W        W33587  11.651  42.826  12.005
61240W        W33588  27.588  31.914  11.012
61241W        W33589  18.610  31.080   3.188
61242W        W33590  38.877  43.410   0.407
61243W        W33591  18.232   2.407  13.011
61244W        W33592  25.164  41.020   3.757
61245W        W33593  36.372  16.620   0.826
61246W        W33594  11.654  38.904   3.364
61247W        W33595  14.195   8.311   4.176
61248W        W33596  35.884   9.753   2.743
61249W        W33597   7.745   4.793   3.688
61250W        W33598   4.271  43.793  11.409
61251W        W33599  16.248   9.863  14.921
61252W        W33600  32.944  28.080  11.119
61253W        W33601  40.304  26.649   4.704
61254W        W33602  17.179  18.627   5.155
61255W        W33603  21.251  36.439   2.664
61256W        W33604  28.122   5.781   0.378
61257W        W33605  20.692  16.810   4.831
61258W        W33606  27.667   4.376   1.293
61259W        W33607  19.593  36.967  12.016
61260W        W33608  14.708  37.460   2.413
61261W        W33609  38.922  15.578   2.376
61262W        W33610  31.086  10.365  13.846
61263W        W33611  19.765   6.281   5.175
61264W        W33612  39.848  22.185   0.443
61265W        W33613   2.730  32.007  13.464
61266W        W33614  26.598   2.808   3.636
61267W        W33615  34.918  13.614  13.325
61268W        W33616  18.587   4.711   2.392
61269W        W33617  11.782  43.807  13.457
61270W        W33618  18.675  39.349   2.901
61271W        W33619   8.380  36.575   3.318
61272W        W33620  37.938  12.183  14.416
61273W        W33621  30.449  15.763  10.519
61274W        W33622   9.865  22.178   9.953
61275W        W33623  13.772   9.314  12.842
61276W        W33624   2.356  27.137  13.833
61277W        W33625   9.382  39.395   2.330
61278W        W33626  38.471   3.946   0.905
61279W        W33627   1.353  29.603  11.483
61280W        W33628   8.315  28.035   4.121
61281W        W33629  12.678   5.776  11.419
61282W        W33630   2.904   8.710   2.313
61283W        W33631  32.478  41.471   2.809
61284W        W33632  37.051  39.041  13.441
61285W        W33633  10.692   3.747   3.268
61286W        W33634  10.318   5.839   0.358
61287W        W33635  29.991  32.477  11.004
61288W        W33636  26.193  36.468  13.849
61289W        W33637   5.367  29.663   4.286
61290W        W33638   3.235   8.313   0.453
61291W        W33639  44.495   4.278   4.622
61292W        W33640  14.686   6.198   4.765
61293W        W33641  32.520  31.937  10.030
61294W        W33642  10.856   5.250   0.328
61295W        W33643  30.071  18.263   3.363
61296W        W33644  39.359  18.290  14.483
61297W        W33645  42.333  28.979   2.292
61298W        W33646  28.501   8.344   0.273
61299W        W33647  10.254  20.575   4.766
61300W        W33648  15.723  31.422   2.226
61301W        W33649  27.008  11.848  11.117
61302W        W33650   2.728  38.856  10.418
61303W        W33651  43.976   0.272   3.680
61304W        W33652  28.461  13.152  11.901
61305W        W33653  22.520  14.683   3.673
61306W        W33654  39.992  38.857   4.794
61307W        W33655  30.475  41.475  13.836
61308W        W33656   4.347  11.629  11.983
61309W        W33657  37.582   4.877   5.137
61310W        W33658  29.654  38.064   0.864
61311W        W33659  38.956  29.034   0.442
61312W        W33660   3.338  38.567  12.994
61313W        W33661   9.801  31.502  11.120
61314W        W33662  29.969   9.837   4.163
61315W        W33663   5.396   8.396   3.824
61316W        W33664  34.007  42.941   2.303
61317W        W33665  35.033  19.680  11.979
61318W        W33666  38.331  38.546  11.565
61319W        W33667  22.520  27.167   2.778
61320W        W33668   1.444  33.908  13.832
61321W        W33669   6.908  28.131  13.367
61322W        W33670  23.052  35.398   2.271
61323W        W33671   6.742  18.565   4.711
61324W        W33672   6.334  30.475   3.314
61325W        W33673  21.185   8.357   4.652
61326W        W33674  10.850  35.587  10.630
61327W        W33675   3.345  27.528   0.762
61328W        W33676   3.241  10.762  12.904
61329W        W33677  19.082  28.930  14.466
61330W        W33678  42.406  37.947  11.460
61331W        W33679   3.312  26.508  11.543
61332W        W33680  33.420  19.237   1.437
61333W        W33681  41.039  43.849   3.299
61334W        W33682   4.375  15.299  10.589
61335W        W33683   8.404   5.386   0.447
61336W        W33684  24.631  31.114   3.367
61337W        W33685   1.441   8.740   2.339
61338W        W33686  36.030   5.287   4.644
61339W        W33687  39.062  11.711   1.794
61340W        W33688  24.663  19.203  11.921
61341W        W33689  19.622   9.645   4.169
61342W        W33690  12.353   0.440  12.867
61343W        W33691  10.714  23.537   3.267
61344W        W33692  25.584  37.476  13.820
61345W        W33693   5.817   7.843   2.703
61346W        W33694   8.865  33.090   5.253
61347W        W33695  31.417  12.819   2.358
61348W        W33696  34.076  33.969   9.560
61349W        W33697  12.691   7.854   0.459
61350W        W33698   2.796  12.685  10.977
61351W        W33699  16.144  23.185   4.835
61352W        W33700  32.396  40.369  10.560
61353W        W33701  25.510  33.587   2.879
61354W        W33702  32.048  11.718   1.308
61355W        W33703  11.134  39.503  13.334
61356W        W33704   3.909  20.135   3.801
61357W        W33705   9.237  18.147   0.949
61358W        W33706  43.856  28.091  14.809
61359W        W33707  36.843   6.882   5.290
61360W        W33708   3.437  14.113  14.926
61361W        W33709   8.665  28.167  13.522
61362W        W33710  42.897  18.773  12.860
61363W        W33711   8.273   3.739  12.919
61364W        W33712  44.973  35.061   2.358
61365W        W33713  28.004   4.243  14.762
61366W        W33714  16.291   0.349  12.438
61367W        W33715  21.668  38.068  12.891
61368W        W33716  29.933  15.749  12.943
61369W        W33717   5.922  31.498  10.083
61370W        W33718  23.054   7.823  11.581
61371W        W33719  40.807   4.259   2.317
61372W        W33720  32.595  34.059  12.038
61373W        W33721  27.156   9.357   0.882
61374W        W33722  11.772  24.509  10.479
61375W        W33723  36.946   5.849  12.056
61376W        W33724   0.976  35.554   1.441
61377W        W33725  21.238  18.102   0.408
61378W        W33726  30.010  18.115   2.341
61379W        W33727   8.847  31.149   4.258
61380W        W33728  11.183   9.760   1.850
61381W        W33729  22.562   3.864   2.702
61382W        W33730  34.539  34.481   5.236
61383W        W33731  11.695  22.135   4.226
61384W        W33732  12.254   4.825   3.827
61385W        W33733   7.881   3.852   4.769
61386W        W33734  20.126  38.925   2.342
61387W        W33735  23.106  19.136  12.084
61388W        W33736  25.992  18.227  12.016
61389W        W33737  29.113  32.606  14.979
61390W        W33738   8.892  17.754   3.260
61391W        W33739  37.364  17.584  10.528
61392W        W33740  18.567  17.143   4.270
61393W        W33741   6.414  44.875  11.895
61394W        W33742  43.845  19.740  14.867
61395W        W33743   6.262  33.439   5.104
61396W        W33744  20.141  31.104  13.999
61397W        W33745  10.365  22.197  11.124
61398W        W33746  15.598  28.976   0.276
61399W        W33747  16.634  42.452   0.930
61400W        W33748   1.805   0.381   0.803
61401W        W33749  38.856   8.178  13.967
61402W        W33750  16.648  28.171  11.896
61403W        W33751  35.914  14.196  13.923
61404W        W33752  17.150  40.816   1.771
61405W        W33753  42.894  41.965  14.363
61406W        W33754  33.385  40.848  12.095
61407W        W33755  43.857   4.360  11.612
61408W        W33756  34.892  24.079   2.334
61409W        W33757  35.087  11.769   4.234
61410W        W33758  18.614  27.618  12.087
61411W        W33759   7.202  36.938   2.264
61412W        W33760  32.599  38.926  13.798
61413W        W33761   5.792   9.198  12.941
61414W        W33762   8.725  38.826   2.215
61415W        W33763  40.048  40.371   1.428
61416W        W33764  44.496  30.561   5.202
61417W        W33765   2.471  20.118  12.471
61418W        W33766  20.556  27.172  13.017
61419W        W33767   1.948   2.284   4.639
61420W        W33768  31.966  14.224   1.903
61421W        W33769   7.408  24.611   2.183
61422W        W33770  14.198  21.256   1.273
61423W        W33771   7.290   1.352   1.801
61424W        W33772  17.268  35.094   3.775
61425W        W33773  16.088   5.227   0.815
61426W        W33774  19.154  37.080   4.199
61427W        W33775  35.456  36.026  11.068
61428W        W33776  40.407  23.204   0.386
61429W        W33777  14.267  32.558  13.455
61430W        W33778  36.882   1.789  12.529
61431W        W33779   5.690  26.635  13.854
61432W        W33780   7.290   3.853  13.334
61433W        W33781  27.506  25.127   2.380
61434W        W33782   6.745  32.511  13.899
61435W        W33783  42.848  16.128   1.427
61436W        W33784   2.341  43.399   1.429
61437W        W33785   2.809  38.548  14.768
61438W        W33786   4.737  15.741   3.319
61439W        W33787  32.074   8.309   5.633
61440W        W33788  44.396  30.482   2.208
61441W        W33789   3.305  25.075   2.234
61442W        W33790  38.826  19.284  11.387
61443W        W33791  18.766  19.631   9.978
61444W        W33792   8.315  40.850   2.847
61445W        W33793  21.659  28.648   1.855
61446W        W33794  41.525  33.891   4.676
61447W        W33795  23.504  40.501   4.286
61448W        W33796   0.798   9.292   4.328
61449W        W33797  33.406  31.069   5.273
61450W        W33798   6.261  37.047   0.895
61451W        W33799  35.585  36.857   4.265
61452W        W33800  42.008  29.445  12.050
61453W        W33801  13.753  34.090   0.379
61454W        W33802   5.382  15.722  13.975
61455W        W33803  43.404   6.340   2.753
61456W        W33804  14.157  22.243  14.512
61457W        W33805   0.912  13.285   3.147
61458W        W33806   6.360  12.851   0.730
61459W        W33807   9.195  35.379   2.194
61460W        W33808  32.533  13.751   2.326
61461W        W33809  32.999  29.552   1.821
61462W        W33810  24.008  39.376  12.565
61463W        W33811   3.418  36.893  14.869
61464W        W33812   5.800  27.029  11.972
61465W        W33813   4.444  23.626  14.765
61466W        W33814  42.869  37.997  12.388
61467W        W33815  34.573  21.653  13.324
61468W        W33816  22.072  38.912  14.008
61469W        W33817  42.009  30.613   2.847
61470W        W33818  21.533  23.655   3.721
61471W        W33819  40.397  25.075   0.740
61472W        W33820  28.990  14.627  14.388
61473W        W33821   4.223  28.941   4.613
61474W        W33822  16.734  15.721  11.973
61475W        W33823  28.138  14.642   3.156
61476W        W33824  18.065  15.612   4.817
61477W        W33825  44.339   0.350  14.924
61478W        W33826  14.185  43.416  10.470
61479W        W33827  10.310  33.110   3.637
61480W        W33828  24.061  34.930  12.996
61481W        W33829  18.185  18.066  12.454
61482W        W33830   1.760  13.611   2.405
61483W        W33831  12.353   4.413  12.945
61484W        W33832   9.873  40.936  14.296
61485W        W33833  30.458  17.127   1.406
61486W        W33834  33.421  26.021  11.588
61487W        W33835  29.989  35.091   1.277
61488W        W33836  24.671  28.526   0.417
61489W        W33837  33.030  38.031   2.902
61490W        W33838  19.648  43.921   2.764
61491W        W33839  12.260  14.701   1.290
61492W        W33840   8.348  43.425   0.773
61493W        W33841  17.083  19.732  14.830
61494W        W33842  41.511  34.019   3.254
61495W        W33843  10.762   1.965   4.198
61496W        W33844  18.081  17.177   4.323
61497W        W33845  29.105  18.262   1.255
61498W        W33846  18.723  25.107   0.789
61499W        W33847  10.831  21.017  11.434
61500W        W33848  37.049  18.614   0.459
61501W        W33849  15.729  15.147  13.410
61502W        W33850  29.433   5.199   3.247
61503W        W33851  42.999  22.714  10.964
61504W        W33852   4.267  26.666  11.110
61505W        W33853  32.532  22.715   4.600
61506W        W33854  42.019  33.889   3.289
61507W        W33855  10.699  33.480   2.728
61508W        W33856  17.291  20.173  13.916
61509W        W33857  19.109  15.788  12.910
61510W        W33858  20.137   3.235  12.891
61511W        W33859  40.957  37.351   2.717
61512W        W33860  41.356  36.460  10.511
61513W        W33861   1.936   0.309   1.898
61514W        W33862  42.886  43.304  14.419
61515W        W33863   4.387  40.899  13.945
61516W        W33864  39.450  33.956   2.187
61517W        W33865  12.736  19.553  12.034
61518W        W33866  14.158   3.289   0.787
61519W        W33867  11.796  43.479   2.763
61520W        W33868  18.231  40.934  13.425
61521W        W33869  13.632  37.906   2.184
61522W        W33870  40.925  21.067   4.247
61523W        W33871  20.242  31.557   5.747
61524W        W33872   3.888  28.992  14.481
61525W        W33873  14.823  34.014   2.379
61526W        W33874  25.112  37.934  11.426
61527W        W33875  33.469  37.367  12.436
61528W        W33876  16.176   4.805   1.763
61529W        W33877  39.424  33.096  12.021
61530W        W33878   5.911   9.807  13.865
61531W        W33879  37.535  19.550  10.905
61532W        W33880  19.204  39.048   4.301
61533W        W33881   1.863  33.524  10.576
61534W        W33882  31.541  30.437  13.504
61535W        W33883  30.556  21.095  10.944
61536W        W33884  10.828  35.895   1.748
61537W        W33885  28.170  22.513  14.421
61538W        W33886   6.800   0.342  13.939
61539W        W33887  31.515  24.201  13.972
61540W        W33888  38.479  21.643   0.475
61541W        W33889  21.255  10.301   1.355
61542W        W33890  14.824   2.244   2.806
61543W        W33891  38.417  31.423  11.949
61544W        W33892   9.675  19.174   0.852
61545W        W33893  13.838  26.207  12.568
61546W        W33894  44.284  15.810   3.263
61547W        W33895  32.118  28.052  13.313
61548W        W33896  22.514  39.923  10.069
61549W        W33897  17.076  44.899   0.935
61550W        W33898  14.639  34.031  13.527
61551W        W33899   5.345  27.531   4.775
61552W        W33900   5.860  23.529   0.817
61553W        W33901  33.503  43.351  12.003
61554W        W33902  28.946  28.046   2.662
61555W        W33903  14.685  29.621   2.796
61556W        W33904   8.209  14.788  14.340
61557W        W33905  29.572  35.602   4.754
61558W        W33906   1.380   4.891  14.289
61559W        W33907  18.790  32.490  12.452
61560W        W33908  26.100  42.857   0.877
61561W        W33909  28.082   8.381  11.948
61562W        W33910  13.351  20.195  12.976
61563W        W33911  25.175  12.254  14.866
61564W        W33912  30.979  31.923   0.360
61565W        W33913   2.808  18.286  12.833
61566W        W33914  31.479   4.280  14.908
61567W        W33915  41.298  17.137   0.788
61568W        W33916  37.087  28.610   0.369
61569W        W33917  25.152  19.192   1.440
61570W        W33918  26.644  26.492  11.873
61571W        W33919  14.134  14.807   2.288
61572W        W33920   8.317  42.776  12.567
61573W        W33921  24.156  20.062   4.756
61574W        W33922  38.049   2.342   1.385
61575W        W33923  12.834   2.812   1.428
61576W        W33924  37.930  31.952  12.993
61577W        W33925   4.814  25.072   0.898
61578W        W33926  19.680  18.160   3.298
61579W        W33927  21.531   9.735  11.493
61580W        W33928  10.368   3.927  14.846
61581W        W33929  36.895  41.318  13.323
61582W        W33930  26.582  20.687   3.226
61583W        W33931  22.713   6.291  12.489
61584W        W33932   4.433  43.961   2.200
61585W        W33933  37.578   2.860   2.901
61586W        W33934  44.433  39.414  14.464
61587W        W33935   5.201   6.707  11.567
61588W        W33936  39.439   6.894   4.251
61589W        W33937   6.775   7.740  13.370
61590W        W33938  32.476  14.608  13.329
61591W        W33939  18.745  37.423   2.204
61592W        W33940  31.638  18.285  10.637
61593W        W33941  40.420  12.164   4.736
61594W        W33942  21.228  27.476   0.304
61595W        W33943  29.959  41.434   4.180
61596W        W33944  24.192  10.329   0.376
61597W        W33945  31.433  12.760   4.707
61598W        W33946   1.350  26.144   4.184
61599W        W33947  17.745  29.018   5.653
61600W        W33948  34.561  19.053  10.499
61601W        W33949  23.707  27.945  12.091
61602W        W33950  14.194  30.163  13.845
61603W        W33951   2.721   5.353  13.378
61604W        W33952  33.032  36.512   5.091
61605W        W33953  43.910  35.504   4.189
61606W        W33954  28.661  44.501  14.828
61607W        W33955  35.456   5.299  14.480
61608W        W33956  18.677  14.164   1.233
61609W        W33957  27.493  32.048  14.380
61610W        W33958  23.575  12.659   0.914
61611W        W33959  18.701  30.459  11.036
61612W        W33960  16.196   6.751   1.419
61613W        W33961  41.797  40.892  11.080
61614W        W33962  39.900  24.602  13.993
61615W        W33963  38.855   1.760   5.268
61616W        W33964   3.225   3.445   3.828
61617W        W33965  20.732  12.202   2.181
61618W        W33966  23.099  13.110  13.894
61619W        W33967  40.020  23.025  10.990
61620W        W33968   6.318  30.529   4.828
61621W        W33969   3.886  36.950   2.367
61622W        W33970  29.665  15.166   1.856
61623W        W33971  15.247  19.112  11.425
61624W        W33972  35.029  10.646  11.960
61625W        W33973  31.110  37.441   3.264
61626W        W33974   1.805  20.204   1.807
61627W        W33975  14.777  42.806  12.021
61628W        W33976   0.485   4.438  13.001
61629W        W33977  37.492  43.352  12.846
61630W        W33978   8.235  22.736   0.314
61631W        W33979  15.122  27.022  14.468
61632W        W33980  23.010  14.694   2.380
61633W        W33981   5.396  41.026  11.511
61634W        W33982  35.546  24.656   2.361
61635W        W33983  40.824  27.990  11.399
61636W        W33984  42.303   1.748  12.480
61637W        W33985   4.756  41.973   2.669
61638W        W33986  36.075  29.031  13.864
61639W        W33987  44.358  17.171   2.703
61640W        W33988  17.173   7.233  14.373
61641W        W33989  38.062  39.395  11.022
61642W        W33990  18.567   4.432   4.783
61643W        W33991   0.963  33.480   4.294
61644W        W33992  33.611  41.972  10.573
61645W        W33993   0.861   4.833  12.463
61646W        W33994  33.513   6.857   2.677
61647W        W33995   1.413  18.288  14.806
61648W        W33996  32.543   4.435  11.510
61649W        W33997   2.889  13.270   2.687
61650W        W33998  31.060  36.093  13.800
61651W        W33999  21.147   2.914   2.878
61652W        W34000  37.067  20.066  12.494
61653W        W34001  44.812  21.524  11.592
61654W        W34002  40.014  43.353  10.517
61655W        W34003  42.911  39.943  13.473
61656W        W34004  30.067  33.487   2.885
61657W        W34005  23.221  41.947  11.597
61658W        W34006  31.642   7.831  11.002
61659W        W34007  26.504  29.494  14.435
61660W        W34008  43.768   0.361   3.373
61661W        W34009  21.035  33.044   2.830
61662W        W34010  11.733  13.795  10.576
61663W        W34011  30.508   8.892   4.334
61664W        W34012   8.173  32.522   9.976
61665W        W34013  18.206  17.222  10.638
61666W        W34014  44.794  32.006   1.213
61667W        W34015   6.338   3.317  12.096
61668W        W34016  28.058   2.858  10.960
61669W        W34017   1.400  27.960   1.851
61670W        W34018   4.338  28.180  11.557
61671W        W34019   5.811  33.906  11.058
61672W        W34020  11.712  24.011  14.782
61673W        W34021  33.404   0.875   3.312
61674W        W34022   6.876  28.969  13.422
61675W        W34023  17.237  33.095  10.580
61676W        W34024  13.272  11.856  12.436
61677W        W34025  35.923  21.717  13.412
61678W        W34026   3.312  38.852   3.376
61679W        W34027  32.092  28.131   3.780
61680W        W34028  32.973  20.101   0.465
61681W        W34029  15.196  33.620  14.907
61682W        W34030  35.536   3.458   3.799
61683W        W34031   6.266  28.656   3.239
61684W        W34032  32.511  14.787   4.666
61685W        W34033  39.060  19.739   3.726
61686W        W34034   5.812  43.333  11.587
61687W        W34035  44.006  29.598  10.576
61688W        W34036  40.413   2.235   5.115
61689W        W34037  38.964  36.485   1.813
61690W        W34038  18.641  43.898   0.764
61691W        W34039  28.601  21.573  14.459
61692W        W34040   2.749   9.299  13.849
61693W        W34041   7.810   3.366   4.261
61694W        W34042  34.512  34.954   1.741
61695W        W34043   8.346  38.870   0.844
61696W        W34044  22.050   1.376  13.350
61697W        W34045  33.041  34.475   5.274
61698W        W34046  23.534   5.336  13.431
61699W        W34047  37.084   5.786   2.383
61700W        W34048  27.663   4.841   1.215
61701W        W34049  28.096   5.864  13.389
61702W        W34050  43.970  23.080   2.841
61703W        W34051   6.411   2.812   3.188
61704W        W34052  26.049  13.789  12.542
61705W        W34053  22.578   6.390  11.553
61706W        W34054  11.329  26.995   2.418
61707W        W34055  42.910  36.913   0.942
61708W        W34056  10.669  10.669  12.525
61709W        W34057  24.149  13.624   3.262
61710W        W34058   4.798   9.855   2.805
61711W        W34059  17.298  12.637  13.947
61712W        W34060  18.273  36.562  12.898
61713W        W34061  44.468   6.745   2.662
61714W        W34062   1.296  42.429  11.466
61715W        W34063  26.694  14.815   2.276
61716W        W34064  32.517  19.553   1.739
61717W        W34065  23.700  40.018   0.784
61718W        W34066   3.762  35.974   0.959
61719W        W34067   8.750  26.696   0.958
61720W        W34068  12.642   0.385  10.570
61721W        W34069  10.275  35.045   0.448
61722W        W34070  31.527  10.655  13.338
61723W        W34071   4.728  44.345   3.169
61724W        W34072  41.979  25.967   1.746
61725W        W34073  23.090  20.172   2.331
61726W        W34074  25.185   7.665  14.351
61727W        W34075  22.665  11.654  11.413
61728W        W34076  24.086  42.419   2.406
61729W        W34077   0.784  19.214  12.067
61730W        W34078  32.513   8.241  13.490
61731W        W34079   4.759  28.466   4.208
61732W        W34080  43.787   4.250  12.521
61733W        W34081  39.814  33.974  14.812
61734W        W34082  42.450  35.551  14.299
61735W        W34083   1.921  16.728  12.418
61736W        W34084  16.237   9.877  11.938
61737W        W34085  38.486  10.868  13.490
61738W        W34086   8.796  23.553   4.243
61739W        W34087  38.446  34.393  13.441
61740W        W34088  23.017  13.169  14.458
61741W        W34089  21.658  31.610   3.743
61742W        W34090  35.063  31.917   0.411
61743W        W34091  13.817  10.879  11.088
61744W        W34092  35.400  24.978   2.187
61745W        W34093  31.518  20.111  14.279
61746W        W34094  19.765  27.551   2.708
61747W        W34095  40.441  11.355   2.385
61748W        W34096  37.525  18.249   4.838
61749W        W34097  27.953  18.666   1.448
61750W        W34098  34.540  19.061   4.306
61751W        W34099   9.693   4.796  12.375
61752W        W34100  20.108  41.293   0.927
61753W        W34101  42.983  12.698  12.998
61754W        W34102  22.195   3.777   0.480
61755W        W34103  17.276  39.977   2.699
61756W        W34104  42.817  10.153   4.598
61757W        W34105   0.946   7.798   1.278
61758W        W34106  14.232  24.692  13.961
61759W        W34107  17.664  17.268  11.609
61760W        W34108  39.368  11.258  14.833
61761W        W34109  44.995  21.756   4.777
61762W        W34110  37.471  26.025  11.412
61763W        W34111  31.949  11.366   4.289
61764W        W34112  12.236  27.973  14.020
61765W        W34113  37.087  14.830   2.681
61766W        W34114   2.265  34.369  14.473
61767W        W34115  20.120  15.250   2.363
61768W        W34116  15.815   4.864   3.687
61769W        W34117  22.085  12.242   0.269
61770W        W34118  44.865   1.375  12.859
61771W        W34119   1.295   6.302   3.733
61772W        W34120  30.948   0.859  11.461
61773W        W34121  19.695   2.829   2.666
61774W        W34122  12.250  15.192   2.730
61775W        W34123  22.198  14.611  14.949
61776W        W34124  20.248  41.018  14.953
61777W        W34125  29.563  41.908   3.166
61778W        W34126  41.797  19.229  14.374
61779W        W34127   0.956  39.019   3.164
61780W        W34128  10.841  16.593  11.007
61781W        W34129  39.808  24.703   2.695
61782W        W34130  20.044  31.013  11.895
61783W        W34131  42.816   8.214   4.699
61784W        W34132   8.885  20.690  14.300
61785W        W34133  32.606  36.535   0.273
61786W        W34134  26.639  33.039   1.269
61787W        W34135  21.735  12.119   3.817
61788W        W34136  14.195  26.478  12.866
61789W        W34137  43.984   3.926   0.819
61790W        W34138  33.071  42.859   3.357
61791W        W34139  18.257   7.279   4.692
61792W        W34140  24.196  16.205  12.520
61793W        W34141  44.762  35.908  14.347
61794W        W34142  28.165   7.220   0.265
61795W        W34143   2.405  37.387  13.515
61796W        W34144  39.032  11.252   2.845
61797W        W34145  18.692   2.451  14.888
61798W        W34146  11.187   6.719   3.733
61799W        W34147  30.993  17.180   2.189
61800W        W34148  33.446  33.897   1.291
61801W        W34149  41.399  20.679   4.711
61802W        W34150  16.097  31.499   1.882
61803W        W34151  19.722  14.153  11.479
61804W        W34152  15.699  27.579  10.620
61805W        W34153  40.536  30.512   2.226
61806W        W34154  28.132   7.769   4.309
61807W        W34155  23.706  35.044  10.637
61808W        W34156   7.307   5.277  11.408
61809W        W34157  22.149  37.904   3.781
61810W        W34158  16.236  10.364  11.578
61811W        W34159   2.314  20.032   4.140
61812W        W34160   7.751  33.107   1.822
61813W        W34161  29.031  32.986  11.081
61814W        W34162  43.470  39.060  11.108
61815W        W34163  42.299   9.875   0.308
61816W        W34164  20.107   0.873   4.603
61817W        W34165  33.611  29.475  13.009
61818W        W34166  17.169  16.262   2.403
61819W        W34167  16.665   2.892  11.533
61820W        W34168  34.552  44.902   4.716
61821W        W34169  24.051  10.164  11.577
61822W        W34170  32.582   6.196   4.171
61823W        W34171   6.333  10.232  14.420
61824W        W34172  30.096  39.961   3.157
61825W        W34173  14.112  27.589  12.536
61826W        W34174  28.054  28.001   3.343
61827W        W34175  36.016  34.369  11.061
61828W        W34176   8.743  40.482   0.316
61829W        W34177  37.563  26.100   2.286
61830W        W34178   5.788  43.994  13.355
61831W        W34179   2.386  35.970  10.945
61832W        W34180  23.131   8.842   3.639
61833W        W34181  37.503  26.557  12.497
61834W        W34182  28.455  19.733   5.261
61835W        W34183   4.788  41.883  13.525
61836W        W34184  24.151  42.363  14.392
61837W        W34185  21.100  33.016   0.409
61838W        W34186  15.255  17.643  10.492
61839W        W34187  31.951  10.149  14.405
61840W        W34188  32.511  12.306  10.552
61841W        W34189  41.523  20.129  12.373
61842W        W34190  22.581   8.794  12.564
61843W        W34191  21.051  41.906  10.595
61844W        W34192   3.780  37.485   3.366
61845W        W34193  29.945  37.959   1.388
61846W        W34194  31.014  17.066  12.523
61847W        W34195  33.117  15.269  12.488
61848W        W34196  36.376  13.724   2.285
61849W        W34197   9.164  33.107  12.372
61850W        W34198  39.922  11.305   4.815
61851W        W34199  44.812   8.332  14.366
61852W        W34200  24.176  35.866  12.404
61853W        W34201  13.329   9.253  13.032
61854W        W34202  10.834   8.353   1.370
61855W        W34203  17.697  40.806  10.960
61856W        W34204  13.259  32.401  11.488
61857W        W34205   2.738  33.050  14.388
61858W        W34206  29.137  12.808  11.544
61859W        W34207  39.880  28.640   4.659
61860W        W34208  35.487  22.218   2.795
61861W        W34209  32.114   8.729  14.497
61862W        W34210   8.224   5.757   2.414
61863W        W34211  10.156  14.176   3.830
61864W        W34212   8.350  36.501   0.933
61865W        W34213  28.449   3.810  12.439
61866W        W34214  20.111   5.360   1.927
61867W        W34215   4.370  10.163  14.854
61868W        W34216  30.091  21.567   3.818
61869W        W34217   6.826  38.948  11.952
61870W        W34218  19.737   8.823  13.317
61871W        W34219   5.292  15.605   1.239
61872W        W34220  27.998  23.545   0.917
61873W        W34221  39.538  24.210   4.786
61874W        W34222  17.691  22.644   4.789
61875W        W34223  26.546  13.845   0.743
61876W        W34224  34.955  34.450   4.770
61877W        W34225  18.598  18.785   0.927
61878W        W34226  12.625  29.148   1.427
61879W        W34227   1.439  37.882  12.373
61880W        W34228  12.351  41.885  14.954
61881W        W34229  18.620  10.272   1.392
61882W        W34230  12.804  29.597   0.888
61883W        W34231   0.890  42.964  13.323
61884W        W34232   5.369  33.438  12.581
61885W        W34233  31.427  16.658   4.151
61886W        W34234   7.811  40.812   4.641
61887W        W34235  28.514  43.847   0.843
61888W        W34236  44.341  27.092  12.012
61889W        W34237  31.529  32.479  13.877
61890W        W34238   9.850  26.510  12.843
61891W        W34239  36.565  40.958  14.445
61892W        W34240  33.122  24.995   2.414
61893W        W34241  18.770   9.851  13.005
61894W        W34242  20.716   2.767  11.443
61895W        W34243   9.839  18.121   1.238
61896W        W34244  39.857  41.795  13.913
61897W        W34245  37.363  37.363  12.013
61898W        W34246   2.356   7.207  12.046
61899W        W34247  14.219  30.131   4.682
61900W        W34248  13.688  24.569  14.347
61901W        W34249  21.031  25.141  10.155
61902W        W34250  11.212  28.559  12.087
61903W        W34251   6.399   6.200   1.716
61904W        W34252  23.611  29.476   3.703
61905W        W34253  26.031  31.108   4.184
61906W        W34254  34.057  19.650   0.316
61907W        W34255  25.646  22.739   0.429
61908W        W34256  27.538  41.369   0.756
61909W        W34257  27.607  43.917  11.972
61910W        W34258  32.400  11.699  11.465
61911W        W34259  15.667  16.631   3.666
61912W        W34260   3.874  29.984   2.767
61913W        W34261  17.566  20.531   1.333
61914W        W34262  38.938  32.123  10.411
61915W        W34263   8.321  28.606   3.636
61916W        W34264   5.857  25.165  11.126
61917W        W34265  23.667   7.214  12.030
61918W        W34266  34.472  22.608   5.599
61919W        W34267  32.010  28.938   3.684
61920W        W34268  16.085   1.848   4.811
61921W        W34269  18.642  43.404  10.624
61922W        W34270  28.491  35.438   2.223
61923W        W34271   1.829   9.863   2.246
61924W        W34272  37.466  15.647   3.701
61925W        W34273  16.569  34.012  14.893
61926W        W34274  36.491  42.447  10.448
61927W        W34275  25.556  36.855  12.048
61928W        W34276  14.825  18.762   2.805
61929W        W34277  17.222  22.998  13.466
61930W        W34278  24.540  25.688   2.348
61931W        W34279  13.116  33.075  11.908
61932W        W34280  21.152   1.404   3.821
61933W        W34281  37.407  32.566   2.217
61934W        W34282   5.737  41.802   3.777
61935W        W34283  43.927   7.193   0.755
61936W        W34284  44.937  23.633   1.892
61937W        W34285  13.219   6.726  14.027
61938W        W34286   2.837  16.304  12.092
61939W        W34287  30.928  32.557   0.427
61940W        W34288   9.836  13.656   2.252
61941W        W34289  26.982  11.259   2.715
61942W        W34290  44.980   9.765   1.789
61943W        W34291  21.523  35.424  12.868
61944W        W34292   3.315   8.285  13.849
61945W        W34293  28.042  28.519  14.427
61946W        W34294  20.221  33.454   3.314
61947W        W34295  15.592   5.393   3.709
61948W        W34296   2.814  34.591   3.778
61949W        W34297   0.778  15.134  14.965
61950W        W34298  13.610  32.050   1.841
61951W        W34299  38.923  19.625   0.466
61952W        W34300  24.602  29.645   0.772
61953W        W34301  15.161   2.351  13.981
61954W        W34302  32.954   6.749  11.475
61955W        W34303  19.663  28.016  10.440
61956W        W34304  43.992   1.358   4.672
61957W        W34305  20.625  44.876   4.736
61958W        W34306  26.092  16.244  10.561
61959W        W34307  34.477  40.456   2.845
61960W        W34308  41.325  12.122   0.748
61961W        W34309  44.472  27.982  11.940
61962W        W34310   1.457  14.626  13.538
61963W        W34311  28.587  26.118  11.876
61964W        W34312  30.628  29.498   1.368
61965W        W34313  13.350  33.435  13.415
61966W        W34314  32.060  34.906  13.956
61967W        W34315  25.215  11.140   4.352
61968W        W34316  28.543  11.704   4.799
61969W        W34317  42.290  28.678  11.611
61970W        W34318  11.651   8.793   3.358
61971W        W34319  30.474  26.479  14.006
61972W        W34320   1.461   9.888  10.448
61973W        W34321   1.409  42.297   4.686
61974W        W34322  10.720  15.733   0.734
61975W        W34323  10.867   0.835   4.137
61976W        W34324   3.353   4.226   0.254
61977W        W34325  12.305  30.959   2.419
61978W        W34326  25.105  31.406   4.821
61979W        W34327  42.322  20.087   3.237
61980W        W34328   6.696   1.307  12.470
61981W        W34329  12.202   3.460  12.830
61982W        W34330  21.748  18.077  14.902
61983W        W34331  40.842  32.588  13.915
61984W        W34332  29.647  16.750  12.890
61985W        W34333   1.251  42.885   2.226
61986W        W34334  37.837  35.101   4.205
61987W        W34335  24.596  14.109  13.821
61988W        W34336  39.908  31.524  13.004
61989W        W34337  41.835  10.813  13.882
61990W        W34338  41.973   8.697   0.814
61991W        W34339  43.432   5.717   2.358
61992W        W34340  19.599   4.346  14.454
61993W        W34341   4.287  21.583  14.793
61994W        W34342   1.304  40.988   0.440
61995W        W34343  28.146  41.351  12.898
61996W        W34344   2.277   4.823   2.298
61997W        W34345  31.117   0.489  14.503
61998W        W34346  12.613   7.260   2.841
61999W        W34347  14.323  15.776   5.183
62000W        W34348   4.715  35.051   3.699
62001W        W34349  33.468   5.273   0.441
62002W        W34350  32.068  41.804  13.411
62003W        W34351  42.364  25.653  12.061
62004W        W34352  29.934   0.850  14.006
62005W        W34353   5.248  28.605  12.437
62006W        W34354  20.259  20.538   3.775
62007W        W34355  22.120  41.962  12.843
62008W        W34356  19.077  19.569   1.416
62009W        W34357  30.973  43.856  10.453
62010W        W34358  23.073  34.997  14.407
62011W        W34359  14.322  27.182  10.485
62012W        W34360  29.621  15.640  10.419
62013W        W34361  36.873   4.850  11.502
62014W        W34362  16.304  23.611   2.691
62015W        W34363   4.889  12.779  14.311
62016W        W34364  29.633  32.982   1.293
62017W        W34365  32.983  32.060  10.993
62018W        W34366  10.298   4.735   1.216
62019W        W34367   5.737  26.177  10.519
62020W        W34368  16.225  18.214   2.678
62021W        W34369   2.916   2.779  12.000
62022W        W34370   4.777   2.471  12.450
62023W        W34371  33.544  41.332  10.565
62024W        W34372   7.872  35.501   4.640
62025W        W34373  27.603   2.723  12.543
62026W        W34374   3.278  19.722   4.221
62027W        W34375  18.778  36.383   3.156
62028W        W34376   9.252  21.683  14.768
62029W        W34377  12.250  38.077  11.873
62030W        W34378   3.733  42.324   0.830
62031W        W34379  40.478  42.347  11.982
62032W        W34380  17.174  43.410  11.950
62033W        W34381  15.150   3.950   3.680
62034W        W34382  37.984  29.571   1.282
62035W        W34383  23.037  14.649   4.285
62036W        W34384  39.447  41.357   2.768
62037W        W34385   6.781  23.490   0.429
62038W        W34386  13.689  22.194   3.347
62039W        W34387  29.590  30.938  13.059
62040W        W34388  25.614   8.794   1.347
62041W        W34389  36.435  44.323   3.637
62042W        W34390  33.949  25.671  13.944
62043W        W34391  41.353  26.628  11.461
62044W        W34392  35.485  32.912  14.767
62045W        W34393  27.628  11.142  11.382
62046W        W34394   4.729  22.072  13.473
62047W        W34395  44.345   5.880   1.876
62048W        W34396  43.453   2.431  14.870
62049W        W34397  25.162   0.770  13.452
62050W        W34398  24.048  26.140  10.911
62051W        W34399  23.599  34.107  13.314
62052W        W34400  15.090  30.570  14.390
62053W        W34401   6.786  17.270  10.988
62054W        W34402   3.757  11.866  10.053
62055W        W34403   9.274  35.357   0.866
62056W        W34404  43.876  14.760  11.089
62057W        W34405   4.803  28.147   0.954
62058W        W34406   5.790   6.403   0.405
62059W        W34407  26.181   0.851  14.764
62060W        W34408  42.353  31.628  11.935
62061W        W34409  10.362  41.018   2.405
62062W        W34410  22.555  39.023   0.345
62063W        W34411  16.245  44.425   2.863
62064W        W34412  40.907  34.063   2.182
62065W        W34413  31.569   2.353   1.236
62066W        W34414  40.511  38.475  13.899
62067W        W34415   3.284  27.648   2.776
62068W        W34416  14.327  11.312   0.326
62069W        W34417  20.583  31.934   1.792
62070W        W34418  18.128  21.697  12.496
62071W        W34419  27.518  14.265   2.890
62072W        W34420  43.429   5.260   4.190
62073W        W34421  30.554  28.649   4.185
62074W        W34422  41.322   7.389  14.889
62075W        W34423  21.559  16.113  13.541
62076W        W34424  37.873  19.132   4.799
62077W        W34425  25.701  44.998  14.880
62078W        W34426   5.279  16.747   3.245
62079W        W34427  41.004  29.535  12.352
62080W        W34428  41.518  25.068  12.515
62081W        W34429  27.007  15.682  13.814
62082W        W34430  25.127  12.841   1.722
62083W        W34431  30.145  19.562  11.080
62084W        W34432  24.678  26.073  10.460
62085W        W34433  44.417  36.901  11.975
62086W        W34434   1.926  21.086  10.989
62087W        W34435  18.725  15.129  13.313
62088W        W34436  21.057  35.371  12.517
62089W        W34437  13.815  40.485   0.891
62090W        W34438  32.606  37.889   0.886
62091W        W34439   5.251  19.196   1.436
62092W        W34440  31.112  36.855   2.292
62093W        W34441  30.031   8.220  12.080
62094W        W34442   7.386  27.620   1.764
62095W        W34443  35.603  34.543   4.285
62096W        W34444   9.344  27.106  11.573
62097W        W34445  34.074  33.966   1.930
62098W        W34446  21.188  40.421  11.949
62099W        W34447  23.235  21.059  11.413
62100W        W34448  39.989  16.218   0.800
62101W        W34449  37.439  21.694  14.869
62102W        W34450  27.624  31.533  10.998
62103W        W34451  10.187  10.362   0.914
62104W        W34452   7.279  26.621  13.332
62105W        W34453  32.517   4.792   4.828
62106W        W34454  44.309  35.586   3.688
62107W        W34455  22.527   5.693   4.722
62108W        W34456   2.959  36.031  10.946
62109W        W34457  36.085  37.533  12.937
62110W        W34458  43.938  28.607   3.784
62111W        W34459  44.937  33.964   3.186
62112W        W34460   6.307  13.333  12.435
62113W        W34461  30.037  22.018   0.831
62114W        W34462  41.353  15.658  12.424
62115W        W34463  36.016  32.612  12.938
62116W        W34464   9.684  13.666  12.386
62117W        W34465  23.039  16.638  11.454
62118W        W34466  35.092  43.967  14.770
62119W        W34467  15.244   4.895  13.437
62120W        W34468   6.301  16.642   4.231
62121W        W34469  17.195  19.552  11.468
62122W        W34470   0.494  16.080   4.763
62123W        W34471  39.055  20.615  12.901
62124W        W34472   7.248   3.737  10.584
62125W        W34473  23.632  38.037   4.687
62126W        W34474  37.344  28.182  10.950
62127W        W34475  43.362  39.537  14.436
62128W        W34476  44.837  14.302   5.097
62129W        W34477  11.697  13.225  13.930
62130W        W34478  35.030   1.293  12.488
62131W        W34479   7.364  41.488  13.866
62132W        W34480  12.300  42.896   3.850
62133W        W34481   8.758  40.925   1.437
62134W        W34482  40.996  42.799   1.317
62135W        W34483  14.137  12.820  12.404
62136W        W34484  11.808  40.841  14.002
62137W        W34485  28.656  16.714  13.063
62138W        W34486  42.833  14.265   4.238
62139W        W34487  35.432  12.118   4.126
62140W        W34488  38.526  39.349  13.967
62141W        W34489  15.271  12.162   2.696
62142W        W34490   0.870  16.749   4.691
62143W        W34491   1.834  17.091   2.390
62144W        W34492   0.274  30.546  11.611
62145W        W34493   7.868  39.833   3.763
62146W        W34494  35.001  29.530   0.773
62147W        W34495  18.592  35.408   4.749
62148W        W34496  40.874  11.622  12.019
62149W        W34497  15.290   1.976   0.875
62150W        W34498  15.143  43.955   2.855
62151W        W34499   7.287  30.618  10.596
62152W        W34500  27.194  22.247  12.051
62153W        W34501  14.593  29.653   4.655
62154W        W34502   0.953  20.617   3.376
62155W        W34503  29.969  44.377  13.024
62156W        W34504  24.649   2.726   0.380
62157W        W34505  17.224  44.913   1.325
62158W        W34506   0.318   6.783  12.829
62159W        W34507  30.041  31.915   3.158
62160W        W34508  23.174  22.543   3.849
62161W        W34509  25.970  42.438   0.452
62162W        W34510  32.924   9.214   3.808
62163W        W34511  22.717  37.009  11.388
62164W        W34512  26.679  11.631   2.733
62165W        W34513  29.134  32.945  10.470
62166W        W34514  18.770  27.155   2.889
62167W        W34515  10.841  28.124  14.297
62168W        W34516  17.658  27.582   4.215
62169W        W34517  21.592  29.624  14.897
62170W        W34518  43.830  29.488   3.291
62171W        W34519  25.579  44.433  13.386
62172W        W34520  42.922   9.297   0.927
62173W        W34521  13.710  16.776   1.285
62174W        W34522   4.727  44.854   4.231
62175W        W34523   7.893  24.663  11.986
62176W        W34524  40.840  16.782   3.212
62177W        W34525  16.637  32.405   2.725
62178W        W34526  41.382  19.543   4.290
62179W        W34527  32.437  21.080   2.669
62180W        W34528  25.661  19.265  11.098
62181W        W34529  32.123  17.307  10.634
62182W        W34530  40.353   1.455  10.923
62183W        W34531  43.834   2.403   2.739
62184W        W34532   1.749  25.658  12.527
62185W        W34533  29.133   2.897  11.590
62186W        W34534   4.426  15.120   4.238
62187W        W34535  35.088  12.785  12.524
62188W        W34536  20.582  24.478  14.390
62189W        W34537  34.564  13.141   0.847
62190W        W34538  17.270   7.710   4.778
62191W        W34539  37.984  40.503   0.327
62192W        W34540  14.309   1.290  13.356
62193W        W34541   2.336  16.585  12.986
62194W        W34542  14.100  31.078   1.722
62195W        W34543  26.122  42.903  12.468
62196W        W34544  11.212   0.248  13.536
62197W        W34545  19.272  36.535   4.789
62198W        W34546  23.189   3.720  11.030
62199W        W34547  42.462  37.560   1.287
62200W        W34548  44.295   2.860  12.993
62201W        W34549  13.639  25.133   4.806
62202W        W34550  11.350  12.292   2.686
62203W        W34551  27.479  15.659  14.782
62204W        W34552  36.959   7.732  12.420
62205W        W34553   0.460  14.099   4.147
62206W        W34554   8.170  20.199  12.061
62207W        W34555  12.689  27.626  14.904
62208W        W34556   5.278  23.235   4.211
62209W        W34557  28.100  41.378   4.813
62210W        W34558  10.195  15.310  12.979
62211W        W34559  17.793  15.239  12.564
62212W        W34560  22.069  16.109  12.891
62213W        W34561   8.773  27.022  11.897
62214W        W34562  38.912   7.385   3.861
62215W        W34563  28.512  12.300   1.426
62216W        W34564   4.305  37.017  14.337
62217W        W34565  39.449   6.209  13.876
62218W        W34566  23.027  24.113   0.298
62219W        W34567  36.444  15.649  11.546
62220W        W34568  25.120  40.400   2.250
62221W        W34569  27.591  18.129   4.324
62222W        W34570  42.841  41.794  13.371
62223W        W34571  28.110  11.831  10.025
62224W        W34572  42.949   4.417  13.421
62225W        W34573  42.439  25.068   0.462
62226W        W34574  13.651  32.028  13.805
62227W        W34575  44.946  38.526   0.287
62228W        W34576   8.689  26.683  13.533
62229W        W34577   7.672  30.485   4.327
62230W        W34578  15.111  30.638  12.952
62231W        W34579  16.695   4.922  10.620
62232W        W34580   6.410   5.756   4.277
62233W        W34581  11.326  25.656  11.425
62234W        W34582  11.284   7.210   2.347
62235W        W34583   9.271  40.404  12.970
62236W        W34584  10.278  27.455  13.342
62237W        W34585  29.608  42.506  13.339
62238W        W34586  10.334   1.954  10.426
62239W        W34587  27.096  39.978  11.072
62240W        W34588   4.420  33.986  11.438
62241W        W34589  14.713   3.368  11.546
62242W        W34590  35.063  26.675  11.951
62243W        W34591  31.132  33.381   2.881
62244W        W34592  38.406   3.290  12.454
62245W        W34593  33.051  32.118  10.145
62246W        W34594  32.444  23.988  13.925
62247W        W34595  22.165   8.863  10.061
62248W        W34596   1.785  16.213  13.313
62249W        W34597   8.848   5.275  11.028
62250W        W34598  15.708   4.266   1.915
62251W        W34599  33.057  16.198  12.999
62252W        W34600  43.827  34.894   3.725
62253W        W34601  30.083   5.293   0.284
62254W        W34602   5.288  14.228   3.337
62255W        W34603  44.765  44.828  10.560
62256W        W34604  44.485  31.024  13.898
62257W        W34605   9.840  42.807  12.013
62258W        W34606  44.331  35.074  14.996
62259W        W34607  15.088   6.298  14.871
62260W        W34608  42.365  14.301  12.579
62261W        W34609   5.691   2.747   2.372
62262W        W34610   6.375  33.430  13.803
62263W        W34611  38.041   9.379  12.922
62264W        W34612  18.142  22.597  13.060
62265W        W34613  14.269  38.459   1.708
62266W        W34614  22.242   1.830   2.306
62267W        W34615  21.033  29.080  11.502
62268W        W34616   2.874  35.859  13.486
62269W        W34617   8.286  17.156  14.505
62270W        W34618  28.958   2.832   4.235
62271W        W34619  14.829  17.654   3.752
62272W        W34620  13.185  26.081  12.435
62273W        W34621  18.062  23.516  14.303
62274W        W34622  44.498  32.070   5.202
62275W        W34623  19.045  29.968   3.190
62276W        W34624  44.916  34.377  14.856
62277W        W34625  40.963   7.733  14.314
62278W        W34626  28.088   2.249  13.515
62279W        W34627  18.699  44.956  14.849
62280W        W34628  13.266  13.793  11.042
62281W        W34629  11.805  38.506  13.846
62282W        W34630  32.070  33.936  12.949
62283W        W34631   0.898   8.737  14.373
62284W        W34632  13.612   1.305  11.909
62285W        W34633  14.210  17.693   0.950
62286W        W34634  40.438  21.051  12.986
62287W        W34635   3.937  43.812  13.895
62288W        W34636   4.269  19.064   4.146
62289W        W34637  34.388  19.110   3.644
62290W        W34638   6.759  10.764   0.300
62291W        W34639  29.979  14.276   1.266
62292W        W34640  31.615  18.698  14.487
62293W        W34641  41.505  10.823  13.508
62294W        W34642  42.027  32.888   0.429
62295W        W34643  10.679  15.284  11.511
62296W        W34644  28.168  29.993   5.301
62297W        W34645  29.944  33.989   2.803
62298W        W34646   8.740  21.048   3.682
62299W        W34647  21.071  10.829   0.886
62300W        W34648  28.935  27.647   1.714
62301W        W34649  14.703  10.232  12.914
62302W        W34650  16.592   9.385   1.403
62303W        W34651   3.438  31.988   2.297
62304W        W34652  32.973   7.705  10.580
62305W        W34653  14.293  24.641   0.371
62306W        W34654  30.654  22.081   1.837
62307W        W34655  44.830  28.514   1.388
62308W        W34656   5.258  16.084  11.555
62309W        W34657  26.489  14.155  10.101
62310W        W34658   7.379  30.529  10.006
62311W        W34659  16.239  18.685  12.040
62312W        W34660  20.558  41.900  14.798
62313W        W34661  29.586   6.702   4.258
62314W        W34662   3.281  25.619   2.367
62315W        W34663  18.665  16.748  11.607
62316W        W34664   4.348  38.442  13.535
62317W        W34665  18.224  36.079   3.345
62318W        W34666   1.948  28.488  10.493
62319W        W34667  34.379  29.447  11.417
62320W        W34668  16.073  40.385   3.168
62321W        W34669  35.872  23.088   2.386
62322W        W34670  33.537  29.113  11.460
62323W        W34671   7.302  43.513   3.722
62324W        W34672  12.223   6.747   2.244
62325W        W34673  41.387  13.671  12.969
62326W        W34674  29.924  36.566   3.743
62327W        W34675  30.425   5.917   4.224
62328W        W34676   5.802  32.635   5.654
62329W        W34677   2.878  42.874  11.005
62330W        W34678   5.796  32.571   3.705
62331W        W34679   9.866   3.298  13.851
62332W        W34680  43.429  22.996  12.464
62333W        W34681  44.403  15.097   0.751
62334W        W34682  43.928   5.812  10.492
62335W        W34683   2.899  16.247  10.437
62336W        W34684  31.490  39.518  13.920
62337W        W34685  20.641  23.503  14.453
62338W        W34686   8.756  44.268  11.876
62339W        W34687  35.962   6.689   5.155
62340W        W34688  35.504   1.398   4.726
62341W        W34689  25.587  18.686   1.239
62342W        W34690  10.184   7.745  12.520
62343W        W34691  35.543  19.070   4.778
62344W        W34692   9.889  39.513  11.995
62345W        W34693  22.684  41.992  14.322
62346W        W34694   8.205  28.479   3.279
62347W        W34695  39.367  39.518  10.569
62348W        W34696  28.602  30.648  13.922
62349W        W34697   7.737  35.996  10.051
62350W        W34698  26.120  32.081   2.387
62351W        W34699  36.941  15.222   4.180
62352W        W34700  12.624  32.966  14.461
62353W        W34701  44.266   0.823  12.084
62354W        W34702  17.706  19.065   0.434
62355W        W34703  16.094  17.768   2.388
62356W        W34704  37.020  16.129  13.013
62357W        W34705  35.088  38.478  13.799
62358W        W34706  15.667   1.823   2.229
62359W        W34707  22.578  32.905  14.365
62360W        W34708  21.693  10.220  11.578
62361W        W34709   6.842  30.152  12.080
62362W        W34710  28.521  12.116  13.947
62363W        W34711  21.715  21.192  14.483
62364W        W34712  39.470  18.094   3.631
62365W        W34713  19.240  20.070   3.807
62366W        W34714  19.638   2.414   1.439
62367W        W34715  18.239   2.766   4.338
62368W        W34716  31.555  14.776   2.708
62369W        W34717  44.994  32.127  14.392
62370W        W34718   6.780  12.736   4.313
62371W        W34719  20.752   5.840  11.612
62372W        W34720  23.143   3.827   0.365
62373W        W34721  41.875  20.037   3.815
62374W        W34722   1.969   6.384  14.815
62375W        W34723  24.099  21.037   3.788
62376W        W34724  41.016  23.076   3.306
62377W        W34725  22.721   1.873  13.326
62378W        W34726  20.112  10.677  14.820
62379W        W34727  22.064  26.068  11.872
62380W        W34728  32.535  23.176  12.012
62381W        W34729  34.885   8.226  14.486
62382W        W34730  11.695   9.700  14.339
62383W        W34731   0.481  14.251  14.282
62384W        W34732   5.813  20.219   0.456
62385W        W34733  37.342  21.027   4.335
62386W        W34734   2.943  41.992   3.322
62387W        W34735  25.116  11.864   2.400
62388W        W34736  29.482  24.506  14.487
62389W        W34737  26.526  42.010   2.711
62390W        W34738  33.539  34.108  13.903
62391W        W34739  30.568  37.913  14.999
62392W        W34740  31.905  44.984  12.389
62393W        W34741  11.689  10.308  12.987
62394W        W34742  39.326  17.566   4.231
62395W        W34743  33.605   9.233  11.574
62396W        W34744  21.059  28.453  12.089
62397W        W34745  27.128  30.546   0.835
62398W        W34746  35.910  15.804  11.981
62399W        W34747  36.534  43.477  14.820
62400W        W34748  34.511  21.061  11.445
62401W        W34749  16.077  42.509  10.621
62402W        W34750  37.036  25.078  13.444
62403W        W34751  34.871   2.274  12.447
62404W        W34752  27.027   9.298   4.260
62405W        W34753  39.043  13.145  13.808
62406W        W34754  37.984   2.727  13.375
62407W        W34755   1.737  32.092   1.331
62408W        W34756   5.334   5.358   4.666
62409W        W34757  12.271  18.690  12.835
62410W        W34758   8.852   1.887   1.843
62411W        W34759  19.251   1.930   2.284
62412W        W34760   9.723  21.580   3.349
62413W        W34761  42.948  18.580  14.824
62414W        W34762  40.442  40.398   3.219
62415W        W34763  33.459   3.433   9.965
62416W        W34764  36.392  33.448  14.281
62417W        W34765  28.475   1.810  14.808
62418W        W34766  17.170   6.922  12.349
62419W        W34767   3.904   3.237  10.440
62420W        W34768  13.351  11.316   4.642
62421W        W34769  10.322  30.429  11.110
62422W        W34770  43.800  23.083   1.754
62423W        W34771  25.071  17.613   1.357
62424W        W34772  16.218  24.682   3.202
62425W        W34773   4.237  41.810  10.404
62426W        W34774  10.725  15.604  13.957
62427W        W34775  17.701  22.513   3.313
62428W        W34776  28.609  25.597  11.562
62429W        W34777   7.264  32.070   2.404
62430W        W34778  33.604  31.024   1.274
62431W        W34779  31.913  41.920  12.874
62432W        W34780  25.021   0.273  14.468
62433W        W34781  41.513  34.945   3.706
62434W        W34782  36.447  30.024  12.550
62435W        W34783   9.802  26.480  14.288
62436W        W34784  12.692  16.154  12.564
62437W        W34785   2.334  36.418   4.288
62438W        W34786   9.354  26.069   2.825
62439W        W34787  35.375  14.600  13.504
62440W        W34788   2.728  33.534   4.795
62441W        W34789  39.955  11.836  12.062
62442W        W34790  23.687  10.838  11.372
62443W        W34791   1.318  28.457   2.334
62444W        W34792  21.159   3.254  14.904
62445W        W34793  35.937  22.681  12.988
62446W        W34794   9.358   2.896  14.931
62447W        W34795  22.209  38.868  14.894
62448W        W34796  37.070   2.785   3.307
62449W        W34797  16.289  39.946   2.697
62450W        W34798  23.656  33.924   1.423
62451W        W34799  29.625   4.267   1.297
62452W        W34800   1.397  31.433   2.200
62453W        W34801  34.894  26.577  12.829
62454W        W34802  18.610   7.729   4.188
62455W        W34803  13.185   5.343  14.459
62456W        W34804  33.587  20.662  14.873
62457W        W34805  14.149  39.832   2.327
62458W        W34806  12.672  17.566  14.884
62459W        W34807  21.048   8.659  10.519
62460W        W34808   2.754   0.960   4.809
62461W        W34809  17.173  18.236   2.247
62462W        W34810   9.233  32.028   0.370
62463W        W34811  39.412  21.604  11.516
62464W        W34812   4.402  14.767   1.262
62465W        W34813   6.755  10.199  14.825
62466W        W34814  40.939  24.168  13.858
62467W        W34815  21.172   4.828   3.809
62468W        W34816  16.652  28.025  14.771
62469W        W34817  31.500  11.738   1.348
62470W        W34818  22.185  29.114  13.969
62471W        W34819  24.587  35.381  10.944
62472W        W34820  24.026  41.305  11.927
62473W        W34821  15.322  35.905   2.262
62474W        W34822   0.286  14.154   0.938
62475W        W34823  16.601  27.122  14.843
62476W        W34824  17.655   0.848   3.798
62477W        W34825  29.620   1.367   3.676
62478W        W34826  41.534  17.224   2.678
62479W        W34827  38.919  10.783  13.032
62480W        W34828  18.771  38.010   2.664
62481W        W34829  21.709  25.630   2.197
62482W        W34830  30.520  31.463   4.302
62483W        W34831  39.890  32.509  12.377
62484W        W34832  34.488   2.941   0.295
62485W        W34833  18.269  12.117  11.400
62486W        W34834  14.139  21.553   2.753
62487W        W34835   2.374   2.841   2.768
62488W        W34836  42.978   8.195   0.245
62489W        W34837  43.912  13.739   1.236
62490W        W34838   2.782   6.382  11.555
62491W        W34839  34.412  43.347  14.449
62492W        W34840  11.206  34.566   2.294
62493W        W34841  15.213   3.288  11.868
62494W        W34842   5.787   7.714   1.374
62495W        W34843   1.289  32.912  14.842
62496W        W34844   6.334  37.955  13.390
62497W        W34845  25.519  38.383  11.862
62498W        W34846  17.090  23.008  12.067
62499W        W34847  25.966  39.403   4.824
62500W        W34848  35.438  41.451   4.188
62501W        W34849  16.801  29.508  14.006
62502W        W34850  25.669  10.151  14.421
62503W        W34851  42.413  20.219   1.256
62504W        W34852  29.040  19.564  12.883
62505W        W34853  20.585  44.992  11.895
62506W        W34854  21.168  12.194   4.122
62507W        W34855  36.593  34.953   3.710
62508W        W34856  40.809  31.123  14.475
62509W        W34857  26.622  22.572  13.325
62510W        W34858   6.189  43.994  13.360
62511W        W34859  15.184  10.648  11.012
62512W        W34860  22.631  38.521   1.213
62513W        W34861  21.698  25.150  14.973
62514W        W34862  10.645  42.961  13.937
62515W        W34863  10.796  37.494   4.757
62516W        W34864  32.943  10.140   3.340
62517W        W34865  40.960  39.004   2.668
62518W        W34866  23.521  26.200   1.755
62519W        W34867  16.577  22.536  14.475
62520W        W34868  17.128   2.329  11.017
62521W        W34869   6.800  27.967  11.022
62522W        W34870  13.803   8.725  14.961
62523W        W34871  13.669   7.208   4.228
62524W        W34872  43.447  38.040  11.884
62525W        W34873   8.267   0.408  13.816
62526W        W34874  43.458  13.601   1.926
62527W        W34875  26.678  21.106   9.984
62528W        W34876  28.502  18.760   0.872
62529W        W34877  37.437  36.530  14.918
62530W        W34878  24.110  44.463   5.320
62531W        W34879  29.656  11.373  12.403
62532W        W34880  41.359  42.324   0.819
62533W        W34881  26.018  30.951   0.458
62534W        W34882  20.588  44.416   4.155
62535W        W34883  16.779   9.289   2.690
62536W        W34884  39.041  31.580   2.665
62537W        W34885  41.420  35.599   0.353
62538W        W34886  36.421  29.530  11.959
62539W        W34887  24.020  34.044  10.998
62540W        W34888   0.434  24.098  13.828
62541W        W34889   4.382  16.646  11.485
62542W        W34890  31.061   7.402   5.278
62543W        W34891  15.814  44.494   3.658
62544W        W34892   8.272  30.471   0.957
62545W        W34893  17.298  13.822   1.927
62546W        W34894  14.594   5.433  11.567
62547W        W34895  14.832  10.777  12.442
62548W        W34896  29.634  21.038   0.377
62549W        W34897   4.756  14.107  13.367
62550W        W34898   7.912   3.809  10.565
62551W        W34899   2.332  39.994   0.945
62552W        W34900  31.419   6.878  12.989
62553W        W34901  26.665  30.446  12.844
62554W        W34902   5.866  15.227   0.924
62555W        W34903  10.708  13.612  10.480
62556W        W34904  38.944  15.191  13.866
62557W        W34905  40.023  19.571   4.157
62558W        W34906  35.464  43.444  13.994
62559W        W34907  38.546  10.784   1.720
62560W        W34908  33.881   0.767   1.427
62561W        W34909   0.882   7.844  13.407
62562W        W34910  25.575  30.438  13.976
62563W        W34911  41.470  33.444  11.487
62564W        W34912   5.438   6.231  13.435
62565W        W34913  22.122  41.813   0.797
62566W        W34914  21.115  25.495   4.773
62567W        W34915  22.108  21.683   0.797
62568W        W34916   3.454  31.005  13.886
62569W        W34917   0.987  37.878   1.344
62570W        W34918  22.683  10.783  12.535
62571W        W34919  15.786  27.661   0.276
62572W        W34920   6.232  28.436   2.224
62573W        W34921  17.223  13.282   0.752
62574W        W34922  35.901  34.474  14.477
62575W        W34923  28.467  30.545   2.757
62576W        W34924  21.210  19.258   2.892
62577W        W34925  28.118  21.673  14.854
62578W        W34926   3.871  36.023   3.668
62579W        W34927  10.331  24.101  14.761
62580W        W34928  20.230  18.070  11.590
62581W        W34929  37.344  16.302   0.872
62582W        W34930   2.891  27.149  11.537
62583W        W34931  28.123  24.711   2.725
62584W        W34932  29.100  10.186  14.769
62585W        W34933  29.147  24.610   0.345
62586W        W34934  27.954  35.876  13.523
62587W        W34935  14.128  43.394  11.871
62588W        W34936   3.297  19.137  14.330
62589W        W34937   5.782   3.779  14.965
62590W        W34938   3.420  42.849  10.547
62591W        W34939   9.718  33.412   4.225
62592W        W34940  13.273   4.927  12.467
62593W        W34941   9.284   1.782  10.630
62594W        W34942  27.146  27.967  10.575
62595W        W34943  44.494   9.686   1.411
62596W        W34944  24.056  13.262  13.003
62597W        W34945  44.795   1.287   3.755
62598W        W34946  28.550  14.781   4.246
62599W        W34947  25.072   0.981  12.345
62600W        W34948  44.279   0.347   3.831
62601W        W34949  22.713  17.576   2.807
62602W        W34950  15.201  14.186  12.916
62603W        W34951  26.530  19.142   0.933
62604W        W34952  31.093   8.791   0.798
62605W        W34953   3.898   2.781   4.812
62606W        W34954  18.560  19.190  14.450
62607W        W34955  12.299  12.215   1.431
62608W        W34956  16.774   7.360  14.334
62609W        W34957  22.164   8.879   5.111
62610W        W34958  15.580   4.865   2.828
62611W        W34959  18.775  21.025  13.869
62612W        W34960  11.624  34.036  12.014
62613W        W34961  37.006  22.596   2.773
62614W        W34962  20.549  44.486   0.400
62615W        W34963  43.438  43.912  10.403
62616W        W34964  30.659  13.722  14.824
62617W        W34965  41.859  30.964   0.809
62618W        W34966  36.032  40.818  12.489
62619W        W34967   5.819   5.323   0.727
62620W        W34968  44.942   8.786  11.120
62621W        W34969   7.878  10.227   9.997
62622W        W34970  23.648  26.578  10.897
62623W        W34971  31.634  33.020   1.348
62624W        W34972   9.778  38.407  11.975
62625W        W34973  30.625  35.527  14.839
62626W        W34974  43.833  15.092   0.254
62627W        W34975  19.623   0.745   0.730
62628W        W34976  26.569   0.455  10.970
62629W        W34977  37.513  36.512  13.990
62630W        W34978   6.242   1.326   3.856
62631W        W34979  29.603  34.068  13.502
62632W        W34980   6.850   4.848   2.253
62633W        W34981  33.450  20.206  12.998
62634W        W34982  32.428   5.217  10.598
62635W        W34983  37.410  31.082  14.461
62636W        W34984  25.544   5.760   0.886
62637W        W34985  41.441  33.965  12.053
62638W        W34986  43.899  15.785   3.740
62639W        W34987  33.409  14.115  11.089
62640W        W34988  17.063  12.818   2.704
62641W        W34989  22.221   7.238   3.234
62642W        W34990  27.949   6.756  13.051
62643W        W34991   8.162   0.277  12.941
62644W        W34992  18.646  10.348  11.032
62645W        W34993  31.568  42.826   3.746
62646W        W34994  42.838  37.854   0.804
62647W        W34995  26.699  11.653   5.178
62648W        W34996  15.737  14.177   4.694
62649W        W34997  44.893  20.583   3.819
62650W        W34998  44.329  16.751  13.818
62651W        W34999  32.121  39.529   3.823
62652W        W35000  20.088   9.326  11.994
62653W        W35001  11.163  13.155   3.355
62654W        W35002  26.188  22.615   0.368
62655W        W35003  29.115  42.420   4.811
62656W        W35004  26.184  31.902  12.525
62657W        W35005  23.539  20.655  12.904
62658W        W35006  25.144  40.839   3.161
62659W        W35007  44.372  40.022  10.051
62660W        W35008   0.251  40.999   3.830
62661W        W35009  17.168  25.062   2.679
62662W        W35010  44.397   3.406   2.747
62663W        W35011   6.325  29.130  11.415
62664W        W35012  33.983  12.744  11.565
62665W        W35013   4.215  10.368   3.789
62666W        W35014  32.584   6.309   0.942
62667W        W35015  16.654  41.025  10.511
62668W        W35016  39.860  35.371   0.287
62669W        W35017   0.986  39.395   3.332
62670W        W35018  17.579  27.627  12.915
62671W        W35019   1.944   1.263   4.138
62672W        W35020  13.169  42.383   2.377
62673W        W35021   7.774  19.139  12.040
62674W        W35022  36.571  31.433   2.685
62675W        W35023   4.268  23.217  11.933
62676W        W35024   0.268   5.893  14.277
62677W        W35025  23.721  13.295   4.738
62678W        W35026  35.430  39.366  10.460
62679W        W35027  15.687  26.511  12.945
62680W        W35028  23.122  35.996   2.332
62681W        W35029   5.377  12.288   3.838
62682W        W35030  43.786  44.798  10.966
62683W        W35031  22.557  18.292   4.187
62684W        W35032  15.724  31.552   4.621
62685W        W35033   3.802  15.690   1.412
62686W        W35034   0.823   1.769   4.703
62687W        W35035  35.077  14.198  12.400
62688W        W35036  14.777  43.290   4.613
62689W        W35037   1.805  43.973  12.950
62690W        W35038  11.720  33.493   9.964
62691W        W35039  36.850  21.022   4.251
62692W        W35040  36.460  44.397  10.628
62693W        W35041  39.037   0.763   2.698
62694W        W35042  18.159  37.057  11.122
62695W        W35043  35.454  14.772  13.021
62696W        W35044  24.986  33.084   3.158
62697W        W35045   3.354  44.380   2.326
62698W        W35046  25.616  42.452   1.921
62699W        W35047  28.103  44.323  12.986
62700W        W35048  43.945   1.322   2.376
62701W        W35049  20.180  24.092  12.914
62702W        W35050   6.410  36.379   4.831
62703W        W35051  40.490  32.420  11.973
62704W        W35052  34.963  33.416  13.821
62705W        W35053  22.515  14.096   3.788
62706W        W35054  41.324  36.960  10.984
62707W        W35055  44.463  14.802   3.238
62708W        W35056  14.650  25.146  12.382
62709W        W35057   4.736  21.533  12.452
62710W        W35058  13.807   7.410  10.488
62711W        W35059  23.661  20.139  12.000
62712W        W35060   2.957  36.535   1.256
62713W        W35061  27.092  17.295   3.681
62714W        W35062  32.440   7.796   3.273
62715W        W35063  38.434   6.233   3.812
62716W        W35064   8.287  24.647   0.360
62717W        W35065  20.638  14.612  12.462
62718W        W35066  19.094   1.306   4.184
62719W        W35067  39.467  28.465   1.259
62720W        W35068  32.907  34.434   0.315
62721W        W35069  34.956  20.140  12.544
62722W        W35070   2.724  25.126   2.864
62723W        W35071   3.947   7.747   4.672
62724W        W35072  38.976  10.875   3.198
62725W        W35073  27.140  16.251  14.331
62726W        W35074  15.281  22.597  10.902
62727W        W35075  21.078  22.538  12.362
62728W        W35076  27.025   7.791   1.247
62729W        W35077  38.918  11.147  12.919
62730W        W35078  40.465  12.232   4.332
62731W        W35079  19.577   6.747  12.509
62732W        W35080  18.216   6.246   1.286
62733W        W35081  33.004  21.218   4.667
62734W        W35082  17.646  30.422  14.934
62735W        W35083  13.635  35.468  11.446
62736W        W35084  27.574  29.934   4.293
62737W        W35085  30.464  40.948   4.181
62738W        W35086  21.261  34.450  10.139
62739W        W35087   3.371  27.008  10.556
62740W        W35088  12.270  12.748  12.035
62741W        W35089  13.640  13.192   3.677
62742W        W35090  14.692  37.512   4.313
62743W        W35091   5.755   9.888  14.400
62744W        W35092  17.239   5.737   3.700
62745W        W35093  35.488  21.032   0.805
62746W        W35094  12.649  43.294   0.251
62747W        W35095  34.604  19.670   1.323
62748W        W35096  23.578  32.109   1.754
62749W        W35097  26.595   9.162  13.934
62750W        W35098   9.676   4.848   4.165
62751W        W35099   3.733  19.690  14.357
62752W        W35100  25.632  33.926   0.791
62753W        W35101  33.589  16.162  13.548
62754W        W35102  26.640  17.083   3.253
62755W        W35103  21.695  26.533  11.961
62756W        W35104  33.058  15.223   0.918
62757W        W35105  23.030   1.467   2.731
62758W        W35106  24.050  33.917   3.160
62759W        W35107  29.109  15.195   3.709
62760W        W35108  24.510   9.347  11.995
62761W        W35109  15.241   3.815   0.934
62762W        W35110  29.027   4.292   2.776
62763W        W35111  41.850  17.227  13.905
62764W        W35112  43.355  44.971  13.970
62765W        W35113  15.609  42.018  13.539
62766W        W35114  14.252  15.690  14.951
62767W        W35115  20.644   7.881  11.037
62768W        W35116  16.282  20.536   2.675
62769W        W35117   9.812  36.843   1.859
62770W        W35118  30.582  21.067  10.506
62771W        W35119  24.065   0.252  10.138
62772W        W35120  37.009  42.814   1.419
62773W        W35121  32.460  24.479  13.837
62774W        W35122  42.882  36.985   0.302
62775W        W35123   1.457   9.308  10.906
62776W        W35124  44.289  32.542  12.545
62777W        W35125  34.966  17.648   3.846
62778W        W35126   7.698  18.173  13.536
62779W        W35127   6.809  23.082  13.410
62780W        W35128   5.880  33.402   4.214
62781W        W35129   7.208   6.243   0.897
62782W        W35130  33.387  12.159  14.947
62783W        W35131  37.451  42.502   3.154
62784W        W35132  28.480  28.003   4.623
62785W        W35133  14.143   7.392  14.761
62786W        W35134  39.003  36.042  14.827
62787W        W35135  17.300   3.420   1.394
62788W        W35136  35.364  41.041   2.695
62789W        W35137  41.363  14.296   1.419
62790W        W35138   2.318   8.281  10.568
62791W        W35139  36.908   5.280  10.075
62792W        W35140  25.685  17.080   9.985
62793W        W35141  10.186  26.617   1.856
62794W        W35142  12.151  15.608  10.900
62795W        W35143  32.921  35.864  10.114
62796W        W35144  19.262  40.984  11.553
62797W        W35145   8.659  39.407  13.438
62798W        W35146  40.507  25.569  12.923
62799W        W35147  15.085   2.444  12.880
62800W        W35148  38.540  10.203  11.007
62801W        W35149   0.797  19.726  11.028
62802W        W35150  31.489  13.288   3.148
62803W        W35151  22.672  42.384   3.248
62804W        W35152  33.031   7.258   5.224
62805W        W35153  23.537  38.063   4.334
62806W        W35154  24.643  11.790   0.470
62807W        W35155   6.684   9.842   1.401
62808W        W35156  27.664  40.931  14.768
62809W        W35157  42.459  44.807   0.334
62810W        W35158  19.743  43.019  13.458
62811W        W35159  27.942  20.768  14.388
62812W        W35160   1.452   9.354   4.714
62813W        W35161  38.399  19.119  13.524
62814W        W35162  14.320  31.921  11.122
62815W        W35163  39.444  33.464   2.180
62816W        W35164  19.574  11.308   0.369
62817W        W35165  19.172   5.429  12.006
62818W        W35166   6.860  34.017  12.414
62819W        W35167  28.048   8.321   0.468
62820W        W35168  35.950  29.473  13.012
62821W        W35169   1.910  23.683  14.955
62822W        W35170  21.165   7.200  14.772
62823W        W35171  40.830  14.637   4.321
62824W        W35172  40.471  26.141  12.568
62825W        W35173  17.705  14.113  12.506
62826W        W35174  10.173   2.401   0.255
62827W        W35175  32.624  22.638  14.920
62828W        W35176   5.765  11.157   2.756
62829W        W35177   0.428  33.489   0.748
62830W        W35178  33.464   5.758  10.043
62831W        W35179  44.481  31.533  14.435
62832W        W35180  17.187  27.558  12.475
62833W        W35181  22.222  32.463  13.482
62834W        W35182  12.190  21.613   1.431
62835W        W35183   6.756  35.915   0.398
62836W        W35184  44.443  19.697   3.670
62837W        W35185  22.043  18.641  11.511
62838W        W35186   6.725  42.813   3.343
62839W        W35187  36.565   5.382   3.826
62840W        W35188   5.895  31.068   3.342
62841W        W35189   7.249   0.280   0.420
62842W        W35190  10.321  11.842   2.359
62843W        W35191  34.422  32.472  11.586
62844W        W35192   0.952  40.880  11.101
62845W        W35193  14.814  36.465  13.381
62846W        W35194  28.493  34.115   4.224
62847W        W35195  35.601  28.599   2.218
62848W        W35196  24.225   2.459   4.597
62849W        W35197  42.289  20.697  14.390
62850W        W35198  35.505  37.354   0.772
62851W        W35199  10.228  20.267  13.039
62852W        W35200  40.409  42.417   2.696
62853W        W35201  30.984   2.449   4.220
62854W        W35202   5.353   9.305   3.380
62855W        W35203   3.286   3.241   2.678
62856W        W35204  35.416  27.959   0.456
62857W        W35205  13.166   8.160  11.543
62858W        W35206  40.944  14.253  12.570
62859W        W35207  24.698  24.651  14.766
62860W        W35208  43.370   6.281  11.474
62861W        W35209  30.038  10.253  10.894
62862W        W35210   3.866  39.555   4.166
62863W        W35211   2.382   9.228   4.774
62864W        W35212  27.493  16.637   3.642
62865W        W35213   0.339   5.290  12.981
62866W        W35214  21.096  25.648  14.899
62867W        W35215  15.203  25.499  14.337
62868W        W35216  30.078  10.709   2.305
62869W        W35217  20.524  44.335   3.657
62870W        W35218  25.984  40.900   2.891
62871W        W35219  20.222  12.307  12.091
62872W        W35220  31.417  17.269  12.529
62873W        W35221  25.697  20.053   3.222
62874W        W35222  29.022   1.733  11.886
62875W        W35223  16.657  41.302   4.335
62876W        W35224  24.185   9.383   3.779
62877W        W35225  20.695   9.277   4.144
62878W        W35226  37.934  14.693   1.447
62879W        W35227  29.964  30.120   3.865
62880W        W35228  37.888  34.887  11.415
62881W        W35229   1.953  24.162   3.329
62882W        W35230  22.019  20.216   4.728
62883W        W35231  36.585  23.999  10.534
62884W        W35232  34.397   9.168   4.330
62885W        W35233  39.433   2.938   2.309
62886W        W35234  15.322   3.775  13.491
62887W        W35235  32.994   2.440  11.026
62888W        W35236  18.229  34.454  12.945
62889W        W35237  31.067  19.197   2.787
62890W        W35238   3.923  22.044   2.288
62891W        W35239  43.814  30.566   2.305
62892W        W35240  42.960  23.723   3.710
62893W        W35241   6.382  26.119  11.459
62894W        W35242  25.999  34.979   4.815
62895W        W35243  40.924  31.602  13.801
62896W        W35244  23.143  29.648  11.391
62897W        W35245  18.261  37.021  12.921
62898W        W35246  24.157  40.817   3.861
62899W        W35247   5.832   0.880   2.352
62900W        W35248  23.724   6.209  12.885
62901W        W35249  31.100  19.669   5.308
62902W        W35250  18.079  19.280   3.698
62903W        W35251  23.577  13.319  12.412
62904W        W35252  40.031  14.106   0.770
62905W        W35253   8.821  33.581   5.251
62906W        W35254  14.168  29.485   3.279
62907W        W35255  24.631  31.497  10.473
62908W        W35256  11.293   3.937  14.782
62909W        W35257  23.604  34.959  11.089
62910W        W35258   6.395  31.408   4.123
62911W        W35259  29.637  36.061   1.378
62912W        W35260  42.864  13.214   3.208
62913W        W35261  38.977  37.068   0.476
62914W        W35262   6.311   7.888   4.318
62915W        W35263   1.920  26.972   4.249
62916W        W35264  38.377  22.011   5.733
62917W        W35265  35.020  24.170   3.801
62918W        W35266  43.391   8.330   3.339
62919W        W35267  26.962  37.861  12.930
62920W        W35268   5.761  22.624   4.165
62921W        W35269   7.834  17.787   4.771
62922W        W35270   0.382  25.059   1.349
62923W        W35271  43.884   4.441   3.760
62924W        W35272   6.732  24.598  12.837
62925W        W35273  40.982  14.641   4.745
62926W        W35274   1.876  24.195   2.348
62927W        W35275   3.326  39.471  11.971
62928W        W35276  19.687  30.907   1.450
62929W        W35277   2.272   5.752  11.544
62930W        W35278  22.241  10.245   2.782
62931W        W35279  21.164   9.169  12.087
62932W        W35280  32.142   8.371   2.854
62933W        W35281  24.976  25.597   3.334
62934W        W35282  29.648  40.460  10.642
62935W        W35283  19.179  44.945   3.263
62936W        W35284  32.049   1.317   2.305
62937W        W35285  33.031  37.526  12.499
62938W        W35286  23.106  35.421   0.916
62939W        W35287  18.562   5.348   4.246
62940W        W35288  35.933  26.957   1.316
62941W        W35289   4.206   1.862  10.426
62942W        W35290  34.996  28.103  10.000
62943W        W35291  15.631  20.218  14.807
62944W        W35292  35.436  44.458   4.635
62945W        W35293  29.009  15.108   0.815
62946W        W35294   0.949  28.037  12.503
62947W        W35295  22.129   1.241  12.456
62948W        W35296  42.955  42.352   4.791
62949W        W35297  10.212  18.236   1.233
62950W        W35298  13.300  16.223   0.871
62951W        W35299  16.247  43.890   4.759
62952W        W35300  23.149  21.099   3.844
62953W        W35301  27.574  17.731  14.766
62954W        W35302   7.736  37.575  12.851
62955W        W35303  10.817  39.982   2.779
62956W        W35304   8.795  34.451   3.324
62957W        W35305  23.687  21.019  12.978
62958W        W35306  13.191  22.511  11.044
62959W        W35307  26.577  23.993  12.561
62960W        W35308   5.896  26.182   1.448
62961W        W35309  20.229   0.795  10.640
62962W        W35310  33.593  27.521   4.139
62963W        W35311  32.548   0.964  10.636
62964W        W35312   2.427  40.521  13.967
62965W        W35313  26.196  41.336  13.944
62966W        W35314  31.982  36.377  10.931
62967W        W35315  13.223  40.548   1.924
62968W        W35316  15.226  35.447   1.860
62969W        W35317  44.796  10.236  14.997
62970W        W35318  17.569  16.629  13.866
62971W        W35319   4.743  44.007   3.285
62972W        W35320  23.583  41.874   0.482
62973W        W35321  17.286  14.246   5.284
62974W        W35322  12.728  30.934   1.221
62975W        W35323  23.116  29.448   4.315
62976W        W35324   2.466  23.694  12.825
62977W        W35325   6.222  16.695  11.442
62978W        W35326  29.653  13.845  12.004
62979W        W35327  16.664   6.360   1.423
62980W        W35328   0.748  24.580   2.889
62981W        W35329  16.100  15.651  11.105
62982W        W35330  34.042  38.550   2.310
62983W        W35331   7.863   8.791   1.876
62984W        W35332  20.215  26.046   0.928
62985W        W35333   5.316  33.916   3.189
62986W        W35334  38.948   9.241  13.374
62987W        W35335  39.869  13.129  14.417
62988W        W35336  11.322  13.179   0.788
62989W        W35337   0.283  43.418   3.763
62990W        W35338  32.437  32.459  13.941
62991W        W35339  24.570  37.049  13.843
62992W        W35340  31.026   9.779   4.717
62993W        W35341  12.361  18.594   4.312
62994W        W35342  31.648  10.830   1.216
62995W        W35343  13.220  40.352   4.792
62996W        W35344  29.118   5.859   4.837
62997W        W35345  23.102  40.906  14.949
62998W        W35346  36.498  18.596  14.511
62999W        W35347   0.307  12.676  12.561
63000W        W35348  24.532  33.098   4.298
63001W        W35349   5.389   7.869  12.435
63002W        W35350   9.868  26.701   1.788
63003W        W35351   6.769  42.292  13.944
63004W        W35352  11.861  10.147   3.260
63005W        W35353  42.295  27.071  14.819
63006W        W35354  25.178  22.514  13.438
63007W        W35355  11.280  23.607  14.018
63008W        W35356  20.233  33.985  10.926
63009W        W35357   1.915  25.101   2.799
63010W        W35358  33.909   4.808  11.483
63011W        W35359  16.270   1.797  14.356
63012W        W35360  35.018  40.354  10.009
63013W        W35361   6.298  30.001   3.809
63014W        W35362  11.835  35.008  13.317
63015W        W35363  41.878   9.845  11.477
63016W        W35364  36.881   0.882  12.007
63017W        W35365   8.666  22.501   5.623
63018W        W35366   1.952  27.142   4.832
63019W        W35367  40.857  15.268  13.047
63020W        W35368  41.886   0.471   1.418
63021W        W35369  42.457  38.981   2.266
63022W        W35370   2.372  25.204  14.402
63023W        W35371  37.865  40.467   2.844
63024W        W35372  41.012  32.072  11.118
63025W        W35373  13.172   2.924   4.203
63026W        W35374  29.476  41.032   1.922
63027W        W35375  35.365  26.524   3.858
63028W        W35376  44.371   4.394   5.130
63029W        W35377  35.403  13.797   1.330
63030W        W35378  34.892  16.202   4.624
63031W        W35379  13.248  29.654  11.383
63032W        W35380  25.184  37.507  13.907
63033W        W35381   3.460   9.813  13.320
63034W        W35382   3.913  32.031  10.427
63035W        W35383   6.794   7.239  13.348
63036W        W35384  24.179  40.304   0.922
63037W        W35385  28.533  43.818   2.838
63038W        W35386  35.060  32.049   3.265
63039W        W35387   9.246  22.208  10.074
63040W        W35388  32.142  37.025  13.971
63041W        W35389   1.392  13.834  12.859
63042W        W35390  38.872   3.836   3.157
63043W        W35391  43.506  24.105   0.736
63044W        W35392  30.454  11.131   3.234
63045W        W35393  29.074   5.865  10.432
63046W        W35394  18.118   4.819   2.389
63047W        W35395  33.075  35.046  11.472
63048W        W35396   4.880  33.519   4.630
63049W        W35397  26.640  10.310  14.420
63050W        W35398  13.346  20.754  12.026
63051W        W35399  31.638  36.444   4.603
63052W        W35400  43.765  22.086   0.439
63053W        W35401  37.991  13.343   2.900
63054W        W35402  21.061   0.947  10.979
63055W        W35403   8.761  32.028  13.817
63056W        W35404  44.451  34.018  10.638
63057W        W35405  12.686  43.371  13.349
63058W        W35406   8.226   9.168   0.928
63059W        W35407   2.368  29.485  10.587
63060W        W35408   2.852  44.395   2.793
63061W        W35409  40.912  13.214   2.672
63062W        W35410  34.411  35.436  14.362
63063W        W35411  33.513  14.671   5.215
63064W        W35412   7.890  19.108  14.867
63065W        W35413  18.548   3.284  12.360
63066W        W35414  32.493  21.577   0.952
63067W        W35415  42.384  37.447  11.076
63068W        W35416  18.652  33.957   3.857
63069W        W35417  10.226  27.985   5.154
63070W        W35418  18.155  44.852   2.757
63071W        W35419   1.241  28.495   2.748
63072W        W35420  20.600   5.782  11.026
63073W        W35421  44.335  28.096  11.590
63074W        W35422  26.977  28.073   2.759
63075W        W35423  43.837  19.232   4.759
63076W        W35424  43.334  21.711   2.795
63077W        W35425  32.044  33.431   3.300
63078W        W35426  20.530  37.921  11.978
63079W        W35427  32.487  44.497  12.830
63080W        W35428  33.912   5.269   1.751
63081W        W35429  15.219  26.093  14.828
63082W        W35430  20.039   8.825   5.119
63083W        W35431  14.730   6.408  10.598
63084W        W35432  19.191  16.666   1.320
63085W        W35433  19.750  31.957   1.345
63086W        W35434  36.002  44.307  13.839
63087W        W35435  22.518   5.276  14.372
63088W        W35436  40.378   1.262   2.833
63089W        W35437  41.003   3.934  10.579
63090W        W35438   1.279  13.345  13.800
63091W        W35439  12.200  18.092   0.792
63092W        W35440   4.295  34.043  11.117
63093W        W35441   4.851  31.986  13.320
63094W        W35442   7.838  35.943  10.997
63095W        W35443  18.066  33.875  13.312
63096W        W35444   5.424  12.232  12.990
63097W        W35445  31.982  32.434  13.310
63098W        W35446  32.981  23.235  14.889
63099W        W35447   3.359  14.800   4.745
63100W        W35448  18.114  44.369   4.747
63101W        W35449   6.895  40.334   0.821
63102W        W35450  30.153  26.692  10.914
63103W        W35451  44.793  25.111  10.610
63104W        W35452  26.637   7.193   2.756
63105W        W35453   9.839  29.458   3.748
63106W        W35454   4.864   2.375   5.173
63107W        W35455   7.386  12.317   0.854
63108W        W35456  30.919  42.931   4.616
63109W        W35457   0.783  35.927   3.351
63110W        W35458  17.150  10.195   4.251
63111W        W35459  30.100  30.954  10.557
63112W        W35460   2.308   9.213  14.885
63113W        W35461  11.171  33.914   1.344
63114W        W35462  38.498  16.190  11.919
63115W        W35463   0.971  25.081   1.698
63116W        W35464  15.602   9.227   1.869
63117W        W35465  37.062   5.873   3.368
63118W        W35466  34.945  10.800   1.428
63119W        W35467  20.767  43.487   3.205
63120W        W35468  27.063  11.730   3.372
63121W        W35469  23.634  17.115   4.202
63122W        W35470  34.487  26.637   2.686
63123W        W35471  38.826  17.129   2.888
63124W        W35472  33.483  40.325   4.708
63125W        W35473  21.720   8.839   5.656
63126W        W35474  18.738  41.427   2.374
63127W        W35475  25.544   2.957   1.740
63128W        W35476   0.261  23.599   4.644
63129W        W35477  41.362  28.115   1.772
63130W        W35478  26.563  44.277   4.644
63131W        W35479  25.653  23.152  11.000
63132W        W35480  13.701  29.504  11.929
63133W        W35481  27.188   3.228   4.778
63134W        W35482   4.397  14.212   0.813
63135W        W35483  19.740  40.005   4.751
63136W        W35484  44.487  40.876   3.260
63137W        W35485  26.471  32.633  14.330
63138W        W35486  25.217  18.228   1.874
63139W        W35487  15.690  21.648   3.326
63140W        W35488  42.015  31.002   1.356
63141W        W35489  22.744   4.224  11.025
63142W        W35490   3.889  14.219   2.380
63143W        W35491  13.145  10.796   2.803
63144W        W35492  39.512  15.765   0.256
63145W        W35493  29.445  40.836  13.017
63146W        W35494   2.885  44.838   2.408
63147W        W35495  30.450  34.467   4.638
63148W        W35496   7.333   7.284   2.667
63149W        W35497  38.499  12.715   3.351
63150W        W35498  44.842  32.554   3.825
63151W        W35499  20.739  35.873  13.825
63152W        W35500   9.184  19.122  11.383
63153W        W35501  16.154   0.857  13.440
63154W        W35502  43.994   1.781  10.625
63155W        W35503  14.162  23.646   3.332
63156W        W35504   1.350  40.020   1.311
63157W        W35505  33.092  27.168  13.031
63158W        W35506  10.176  11.204  10.606
63159W        W35507  28.495   0.882  11.991
63160W        W35508  28.939  32.933   3.240
63161W        W35509   9.225  26.553  11.868
63162W        W35510  13.778   3.451   1.242
63163W        W35511  11.324   2.471  11.088
63164W        W35512  39.829   8.351  11.060
63165W        W35513   7.845  27.604   0.891
63166W        W35514  25.112  26.534   4.808
63167W        W35515  15.323  36.866  13.369
63168W        W35516  25.712  18.051   3.715
63169W        W35517  33.880  40.835  12.990
63170W        W35518  13.335   8.875   2.231
63171W        W35519  44.457  25.176   3.241
63172W        W35520  20.629   2.796  14.385
63173W        W35521  23.615  29.980   3.748
63174W        W35522   3.855  24.976  14.383
63175W        W35523  29.053  22.009   2.798
63176W        W35524  18.686  25.045  14.312
63177W        W35525   1.749  30.113  13.952
63178W        W35526  18.143  31.596   3.748
63179W        W35527   6.261  38.365   0.466
63180W        W35528   9.862   2.355   0.431
63181W        W35529  41.387  44.987  13.003
63182W        W35530   1.881  20.105   3.249
63183W        W35531  20.218  26.966  13.893
63184W        W35532   1.879  14.791  14.367
63185W        W35533  28.530   7.216  13.313
63186W        W35534  37.888   1.829   4.200
63187W        W35535  35.988   4.823  13.466
63188W        W35536   3.455  15.731  13.316
63189W        W35537  20.247  10.337  13.518
63190W        W35538  28.653  10.311  11.499
63191W        W35539  17.794   0.795  14.025
63192W        W35540   1.817  41.484  11.923
63193W        W35541  28.605  37.379   3.856
63194W        W35542  41.419  33.042  10.421
63195W        W35543  11.793  27.664  11.990
63196W        W35544   4.384  42.287  11.058
63197W        W35545  34.459  19.736   0.454
63198W        W35546  37.578  18.069   3.332
63199W        W35547  41.946  40.402  13.962
63200W        W35548  32.076  18.737   0.245
63201W        W35549  16.764  30.615   2.219
63202W        W35550   0.457  15.325   0.932
63203W        W35551  10.768  42.938  11.947
63204W        W35552   4.278  34.397   3.373
63205W        W35553  10.785  32.941  13.805
63206W        W35554  32.630   4.703   4.258
63207W        W35555   8.231   9.796  12.506
63208W        W35556  37.567  44.379   4.325
63209W        W35557  16.313  20.676  13.834
63210W        W35558  20.631  43.442   3.769
63211W        W35559   2.754  39.020  13.942
63212W        W35560   4.893   6.246   1.435
63213W        W35561  28.011   8.887  12.927
63214W        W35562  16.775   4.290   3.291
63215W        W35563   6.377  12.814  10.121
63216W        W35564  12.289  33.572   3.250
63217W        W35565  20.716  28.977   3.756
63218W        W35566  29.015   8.245   2.820
63219W        W35567  42.422   5.934   3.859
63220W        W35568  23.505  16.109   3.329
63221W        W35569  19.602   3.948   4.134
63222W        W35570  43.414   1.410   2.775
63223W        W35571  36.423  24.718  13.030
63224W        W35572  13.347  15.610  13.938
63225W        W35573  15.822  35.960   4.830
63226W        W35574  32.980  39.843   0.392
63227W        W35575  41.014  38.348   1.359
63228W        W35576  37.431   7.750  13.999
63229W        W35577  40.490  38.518   2.354
63230W        W35578  38.054  20.180   1.309
63231W        W35579  40.344  12.136   2.199
63232W        W35580  24.016  21.644  13.005
63233W        W35581  44.283  36.432  12.076
63234W        W35582   1.253  29.108   3.315
63235W        W35583   3.248  12.630   3.361
63236W        W35584  29.947  17.233   4.270
63237W        W35585  20.570   2.947  12.501
63238W        W35586  34.064   7.180   1.424
63239W        W35587   8.716  30.480   5.278
63240W        W35588  20.667   9.844  11.569
63241W        W35589  14.616   5.389   2.759
63242W        W35590  24.699  11.238   0.338
63243W        W35591  25.120  16.121  12.511
63244W        W35592  26.967   7.226  12.849
63245W        W35593  36.036   3.304  13.483
63246W        W35594   3.843  19.130  11.505
63247W        W35595  24.227   0.445   2.788
63248W        W35596   1.277   2.867   1.449
63249W        W35597  15.287  31.019  13.342
63250W        W35598   6.376  37.527  11.599
63251W        W35599   5.390   5.264  11.424
63252W        W35600  16.231  16.195   1.274
63253W        W35601  21.692  13.107   1.262
63254W        W35602  33.527  22.631  12.425
63255W        W35603  20.636  18.235   4.624
63256W        W35604   0.810  34.101   2.888
63257W        W35605   9.662  37.835  11.087
63258W        W35606   4.829  15.177  13.332
63259W        W35607  26.642  40.440   3.282
63260W        W35608  39.064   2.780  13.925
63261W        W35609  12.700  36.399  14.834
63262W        W35610  20.269  36.951   3.255
63263W        W35611  28.174  44.836   2.773
63264W        W35612  40.372  37.992  11.073
63265W        W35613  35.514  27.613  10.573
63266W        W35614  42.293  14.833  13.920
63267W        W35615  28.133  20.657   0.426
63268W        W35616  32.435  37.367  13.367
63269W        W35617   0.971  30.537   3.294
63270W        W35618  14.242  34.118   2.393
63271W        W35619  27.042  11.129  11.579
63272W        W35620  31.910  15.810   4.150
63273W        W35621  20.656  10.877   1.354
63274W        W35622  26.614  35.050   2.290
63275W        W35623  19.539  30.911   0.324
63276W        W35624  22.614  34.530   2.763
63277W        W35625  42.350  16.088   3.788
63278W        W35626  14.761  13.742   5.109
63279W        W35627   7.755   6.387  13.008
63280W        W35628  35.987  18.198  13.408
63281W        W35629  33.107  32.974  12.059
63282W        W35630  16.583   1.466   0.761
63283W        W35631  21.734   7.374  12.903
63284W        W35632  14.707  23.677  12.861
63285W        W35633  23.493  29.154   3.714
63286W        W35634  26.199  36.071   4.780
63287W        W35635  33.588  20.674   9.965
63288W        W35636  21.258  33.442   5.260
63289W        W35637  15.673  37.555  12.397
63290W        W35638  16.269  25.475   4.717
63291W        W35639  18.068  26.686  13.516
63292W        W35640   3.817  23.015   3.629
63293W        W35641   6.813   7.295   4.734
63294W        W35642   3.323  36.460   4.675
63295W        W35643  41.364  39.549  12.529
63296W        W35644   8.725   9.697   3.300
63297W        W35645  25.204  39.404  13.543
63298W        W35646  16.298  36.502  14.498
63299W        W35647  23.171  37.564  12.876
63300W        W35648  28.023  31.933  13.410
63301W        W35649  26.107  39.546  14.407
63302W        W35650  16.259  15.630  12.070
63303W        W35651  17.559  12.640  10.074
63304W        W35652  17.754   8.293  14.854
63305W        W35653  27.018  30.590  13.804
63306W        W35654  25.123   2.375  13.059
63307W        W35655  40.033  44.854  10.945
63308W        W35656  31.987  10.806   0.855
63309W        W35657  22.740  19.268   2.311
63310W        W35658  22.123  38.920   2.296
63311W        W35659  11.713   5.337  12.887
63312W        W35660   5.809  40.500   0.789
63313W        W35661  37.023  33.922   3.862
63314W        W35662  43.357  33.096  13.347
63315W        W35663  11.307  14.142   1.276
63316W        W35664   4.830   8.195  14.876
63317W        W35665   2.871  30.469  13.986
63318W        W35666  31.899   0.388  11.409
63319W        W35667  14.779  33.896  11.512
63320W        W35668  27.049  31.138  12.974
63321W        W35669   2.375  18.598   1.252
63322W        W35670  21.743   9.259   1.884
63323W        W35671  27.097  22.693  11.538
63324W        W35672  32.006   0.324   9.985
63325W        W35673  25.179  31.128  11.494
63326W        W35674  37.566  16.234  13.334
63327W        W35675  15.733   1.910   5.212
63328W        W35676   7.668  21.108   3.829
63329W        W35677  26.562  18.235  12.880
63330W        W35678  23.646  44.297  10.489
63331W        W35679   2.794   1.449   1.901
63332W        W35680  17.741  13.676  14.927
63333W        W35681  24.699  38.842  14.444
63334W        W35682   2.728  13.748  13.794
63335W        W35683  10.748  30.005   0.899
63336W        W35684  27.011  38.366   4.234
63337W        W35685  37.952  34.881   2.343
63338W        W35686  14.245  36.423   4.662
63339W        W35687  37.337  18.115  12.988
63340W        W35688  11.810  25.105   0.297
63341W        W35689  28.073  31.119   2.718
63342W        W35690  11.798  33.489  10.405
63343W        W35691  39.349  26.042   0.450
63344W        W35692  12.238  40.006  13.525
63345W        W35693   3.242  19.074   2.392
63346W        W35694  37.564  38.951   2.896
63347W        W35695  13.170  14.201   3.780
63348W        W35696  44.430  26.542   1.772
63349W        W35697   7.895  13.637   1.903
63350W        W35698  27.653  20.206  10.628
63351W        W35699  18.211   5.695  10.406
63352W        W35700  26.183   4.890   4.134
63353W        W35701  34.594   4.223   0.751
63354W        W35702  25.092   1.419   4.231
63355W        W35703   8.239  16.807   4.231
63356W        W35704   4.766  41.446   1.441
63357W        W35705   8.221  10.306  13.546
63358W        W35706  29.483  34.584  13.522
63359W        W35707  43.957   5.362   2.716
63360W        W35708   7.816  24.229  12.465
63361W        W35709  34.966  21.229   4.336
63362W        W35710  32.902  17.093  14.789
63363W        W35711  31.446  43.431   3.274
63364W        W35712  22.217   1.348  10.591
63365W        W35713   1.794  36.590   1.423
63366W        W35714  16.687  24.610  13.883
63367W        W35715   7.708  35.042  14.346
63368W        W35716   4.371   0.260  10.988
63369W        W35717  33.019   5.761   2.877
63370W        W35718  11.192  38.877  14.333
63371W        W35719   1.295  11.863   0.826
63372W        W35720  10.763  39.915  14.802
63373W        W35721  24.144  22.202  14.379
63374W        W35722  13.602  37.353   5.136
63375W        W35723   6.826  21.121   4.708
63376W        W35724  30.930  43.783  14.895
63377W        W35725  32.986  27.123  14.860
63378W        W35726   7.811  28.487   0.317
63379W        W35727  26.118  34.953   0.960
63380W        W35728  40.972  38.888  11.029
63381W        W35729   6.231   8.230  12.899
63382W        W35730  20.537   7.725  10.520
63383W        W35731  33.492  32.443   3.152
63384W        W35732  17.560  27.997  12.367
63385W        W35733  26.144  15.651   4.169
63386W        W35734  21.639  37.442  10.981
63387W        W35735   0.475  17.789   0.909
63388W        W35736  19.280   3.392   2.297
63389W        W35737   3.736  31.940   0.365
63390W        W35738  24.102   1.863  12.941
63391W        W35739  22.109   3.439   3.688
63392W        W35740  28.633  34.865  11.509
63393W        W35741  16.676  44.278   3.219
63394W        W35742  44.915  37.389  10.525
63395W        W35743  32.419  35.898   2.327
63396W        W35744  38.983  31.412  13.905
63397W        W35745   7.811   5.221   4.325
63398W        W35746   5.193  15.103  13.859
63399W        W35747  30.489  25.602   3.663
63400W        W35748   9.226  12.723  11.949
63401W        W35749  16.743  41.997   4.260
63402W        W35750  40.541  34.042  11.092
63403W        W35751  22.098  39.943  12.398
63404W        W35752  16.641  13.339  10.474
63405W        W35753  36.898  13.122  13.818
63406W        W35754  11.301  33.080   2.318
63407W        W35755   1.974  41.006   1.311
63408W        W35756  16.102   2.890  12.963
63409W        W35757  14.127  23.614   2.285
63410W        W35758  17.260  17.707  12.454
63411W        W35759   3.216  32.635  11.392
63412W        W35760  19.584  36.960  11.417
63413W        W35761  31.592  14.290   1.839
63414W        W35762  41.948   5.281   1.710
63415W        W35763  32.914  36.417   4.656
63416W        W35764  20.113   4.798  13.462
63417W        W35765  19.543  19.066  10.428
63418W        W35766  40.529  19.066   3.666
63419W        W35767  12.688  42.861  12.948
63420W        W35768  10.219  10.856  10.999
63421W        W35769   7.216  15.268  13.474
63422W        W35770   1.771  32.893  12.415
63423W        W35771  27.148  16.734  13.382
63424W        W35772  32.130  14.632   2.419
63425W        W35773  10.322  22.558   2.393
63426W        W35774  10.153  14.201  11.377
63427W        W35775  42.285  40.963   1.401
63428W        W35776  27.465  24.102  11.494
63429W        W35777  16.734  27.615  11.982
63430W        W35778  10.172  40.456   2.373
63431W        W35779  39.541  23.175  10.470
63432W        W35780  42.839  19.646   2.819
63433W        W35781  15.203  44.440  13.812
63434W        W35782  38.440  32.401  14.356
63435W        W35783   1.850  21.066  10.442
63436W        W35784   3.459  41.880  10.477
63437W        W35785   9.315  10.299  10.580
63438W        W35786   8.786  37.431  10.620
63439W        W35787   6.217  30.080  10.894
63440W        W35788  16.268  23.523   1.382
63441W        W35789  24.720  18.101  10.985
63442W        W35790  34.546  11.249  14.927
63443W        W35791  11.368  36.959  11.473
63444W        W35792   1.733  38.367   0.257
63445W        W35793   9.197  37.856  13.004
63446W        W35794  37.962  39.413  14.900
63447W        W35795  32.588  28.649  13.512
63448W        W35796   9.720  18.774  14.821
63449W        W35797  38.059   1.741   2.305
63450W        W35798  35.456  17.676   4.735
63451W        W35799  27.001  35.562  11.580
63452W        W35800  17.287  40.378   3.803
63453W        W35801  25.709  39.331  11.897
63454W        W35802  21.675   2.847  11.921
63455W        W35803   3.866  15.291  14.452
63456W        W35804   0.925  30.557  13.872
63457W        W35805   5.276   7.694   3.379
63458W        W35806  37.400  31.025  14.843
63459W        W35807  31.150  13.769   3.357
63460W        W35808  37.057   9.336   2.179
63461W        W35809  43.283  26.656  10.008
63462W        W35810   0.860  40.418  12.016
63463W        W35811  23.171   3.785   1.898
63464W        W35812  12.131  28.971   1.352
63465W        W35813  15.757  41.514  13.907
63466W        W35814  32.612   6.776  13.802
63467W        W35815  24.588  33.625   1.703
63468W        W35816  37.831  37.444   1.430
63469W        W35817  42.462  33.603  13.812
63470W        W35818  36.388  12.284   0.872
63471W        W35819  26.535  10.312   2.413
63472W        W35820  38.379  37.950  12.367
63473W        W35821   1.924  42.979   1.811
63474W        W35822  36.431  33.440   4.265
63475W        W35823  27.990  15.097   2.320
63476W        W35824  11.852  36.949   2.860
63477W        W35825  23.010  28.528  12.013
63478W        W35826  36.561  28.463   1.406
63479W        W35827  20.657   1.945  12.943
63480W        W35828  22.562  40.973  14.419
63481W        W35829  21.682   3.300  12.403
63482W        W35830  32.400   5.362  14.944
63483W        W35831  37.899  20.648   2.842
63484W        W35832  22.701  33.407   3.704
63485W        W35833  36.866  26.691   5.292
63486W        W35834   6.817   8.347   1.345
63487W        W35835   1.891  32.574   0.461
63488W        W35836  29.071  20.671  11.588
63489W        W35837  26.982  42.964  11.568
63490W        W35838   3.404  25.498  12.401
63491W        W35839  35.067  36.871   0.457
63492W        W35840  43.427  19.198   1.811
63493W        W35841  13.162   5.299   1.316
63494W        W35842   8.839  11.251  13.328
63495W        W35843  30.057  44.380   2.190
63496W        W35844   3.869  18.171   4.647
63497W        W35845  39.346  19.089   4.669
63498W        W35846   2.354  14.241  11.592
63499W        W35847  31.136  33.124  11.942
63500W        W35848  23.082  10.648   5.653
63501W        W35849   9.835  18.643  14.495
63502W        W35850  37.489  42.893  14.820
63503W        W35851   7.783   4.942  10.945
63504W        W35852  10.632   9.235  13.937
63505W        W35853   3.262   9.761   4.782
63506W        W35854   2.851  15.225  11.013
63507W        W35855   4.937  26.569   1.733
63508W        W35856  17.077  23.575   4.319
63509W        W35857  18.668  37.568  11.517
63510W        W35858  43.889  28.478  11.538
63511W        W35859   8.287  34.906   3.204
63512W        W35860  36.963  42.471  10.630
63513W        W35861  39.987   5.848  14.399
63514W        W35862   2.425   4.442   1.736
63515W        W35863  16.193  11.797   0.293
63516W        W35864  10.640  11.334   1.356
63517W        W35865  30.419   9.884  13.496
63518W        W35866  19.740  29.520   3.860
63519W        W35867  13.782   1.753  11.896
63520W        W35868  28.141  10.761   3.733
63521W        W35869   4.379  36.976   0.317
63522W        W35870  28.603  12.246  12.899
63523W        W35871   2.344  26.063  13.471
63524W        W35872  26.978  10.838  12.961
63525W        W35873  28.940  39.033   4.160
63526W        W35874  43.990  21.103  14.512
63527W        W35875  35.055  31.053   2.702
63528W        W35876  36.555  31.913  13.862
63529W        W35877   8.211  26.482  11.511
63530W        W35878  18.107  36.951  14.488
63531W        W35879  14.670   7.696   3.730
63532W        W35880  23.683  15.723  10.505
63533W        W35881   1.967   7.357  11.922
63534W        W35882  20.560  38.067   1.808
63535W        W35883  37.831  35.574  12.521
63536W        W35884  10.877  42.877   4.803
63537W        W35885   3.456  16.196   0.330
63538W        W35886  44.837  43.494  12.846
63539W        W35887   2.275  25.090   1.736
63540W        W35888   7.792  38.022  14.457
63541W        W35889   4.344   9.240   4.218
63542W        W35890  23.124  14.775   3.690
63543W        W35891   1.269  30.539   1.388
63544W        W35892  21.037  14.635   3.648
63545W        W35893  17.697  16.699  14.504
63546W        W35894  27.979  38.915  14.768
63547W        W35895  18.654  21.637   3.715
63548W        W35896   5.204   8.182  14.353
63549W        W35897  10.165  31.148  11.976
63550W        W35898   2.335  11.129   1.897
63551W        W35899   4.343  20.737   0.404
63552W        W35900   6.236  41.801  12.481
63553W        W35901  19.233   0.957  12.465
63554W        W35902  44.963  43.271  14.369
63555W        W35903   0.874  18.696   2.756
63556W        W35904   2.268  21.047   2.788
63557W        W35905  39.060   0.312   0.263
63558W        W35906  41.407   4.422  14.850
63559W        W35907  27.945  15.295   2.774
63560W        W35908  24.062  35.023  10.626
63561W        W35909  30.562  39.534   0.361
63562W        W35910  21.167  27.651   2.377
63563W        W35911  23.556  23.529   4.794
63564W        W35912   3.798  41.325  10.030
63565W        W35913  34.532  29.002   2.411
63566W        W35914   8.869  20.670  11.455
63567W        W35915   9.328  17.568   3.349
63568W        W35916   2.788   3.907  10.414
63569W        W35917  37.056  22.250  13.401
63570W        W35918  15.605  21.058   2.778
63571W        W35919  23.079  13.623   2.224
63572W        W35920  13.667   4.746  10.491
63573W        W35921  40.871  26.479   1.766
63574W        W35922   8.392   1.947  14.879
63575W        W35923  29.440  21.643  11.015
63576W        W35924   9.856   3.741   3.870
63577W        W35925  36.887  36.438  13.882
63578W        W35926  12.661  15.582  10.037
63579W        W35927  10.318  12.611   4.644
63580W        W35928  25.993  29.160   2.705
63581W        W35929   6.785  11.300  14.438
63582W        W35930  44.966  38.873  12.550
63583W        W35931   4.740  24.488   1.318
63584W        W35932  15.773  40.839   4.810
63585W        W35933  18.712  11.156  11.607
63586W        W35934  14.759  31.505   1.271
63587W        W35935  40.039  20.677   3.720
63588W        W35936  21.516  27.950  11.898
63589W        W35937  12.830  42.791  10.529
63590W        W35938  37.528  33.611   0.765
63591W        W35939  32.566  44.328   3.814
63592W        W35940  37.999  30.513  11.558
63593W        W35941  23.200  36.421   1.353
63594W        W35942   1.789   7.209   0.459
63595W        W35943   4.902  24.482   0.420
63596W        W35944  36.031  14.758   0.245
63597W        W35945  10.798  17.605   2.352
63598W        W35946  44.928   6.856  12.541
63599W        W35947   9.831  44.341  11.609
63600W        W35948   7.393   0.347   4.682
63601W        W35949   0.360  29.614   3.803
63602W        W35950  38.835  18.139  12.962
63603W        W35951  36.452  44.797  10.597
63604W        W35952   2.409   0.259  14.864
63605W        W35953  39.836  21.213   4.634
63606W        W35954   0.318  36.018  11.468
63607W        W35955  14.115  35.567   1.264
63608W        W35956  21.745  22.720  12.356
63609W        W35957  10.229  37.993   3.203
63610W        W35958  27.667  26.679   0.815
63611W        W35959   1.285  14.660  11.436
63612W        W35960  43.468  26.614  14.435
63613W        W35961  28.074  14.331   0.401
63614W        W35962   8.343  34.453   4.186
63615W        W35963  13.653  17.751  11.948
63616W        W35964  35.948  21.235   3.851
63617W        W35965  38.376  13.119   0.277
63618W        W35966   2.932  38.045   2.292
63619W        W35967  15.291  37.514  14.360
63620W        W35968  16.288  18.170  12.001
63621W        W35969  32.104  40.328   2.764
63622W        W35970  11.236   9.710   4.610
63623W        W35971  40.373  24.107   0.897
63624W        W35972  40.017  33.541  12.506
63625W        W35973  18.214   5.735   1.717
63626W        W35974   6.428  19.587   0.359
63627W        W35975  30.088  26.190  14.493
63628W        W35976  15.325  37.897  13.939
63629W        W35977  36.932   4.754   3.735
63630W        W35978  20.752  43.797   0.953
63631W        W35979  32.555  18.713   4.673
63632W        W35980   6.748  39.883   4.751
63633W        W35981  10.867  39.899   4.818
63634W        W35982  25.646   2.824   3.803
63635W        W35983   0.822   7.791   3.824
63636W        W35984  36.036  41.522   2.346
63637W        W35985  25.697   5.863  13.445
63638W        W35986  10.815   0.948  12.859
63639W        W35987  30.645   4.790   3.790
63640W        W35988   1.262  35.895  12.360
63641W        W35989   5.359  14.653   4.141
63642W        W35990  32.424  11.663   3.198
63643W        W35991  26.624  15.284  12.376
63644W        W35992  21.578  19.684   1.415
63645W        W35993   8.265  27.570   0.277
63646W        W35994  43.896  32.022  14.020
63647W        W35995  17.624   9.235   2.180
63648W        W35996  22.129  40.043  11.911
63649W        W35997  37.918  20.202  12.891
63650W        W35998  37.400  43.826  13.442
63651W        W35999  38.906  36.873  12.040
63652W        W36000  42.985  43.273   3.254
63653W        W36001  10.716   5.775   5.177
63654W        W36002  16.244  23.493   4.736
63655W        W36003  32.998  44.915  11.607
63656W        W36004  15.642  31.954  12.876
63657W        W36005  34.513  19.149  11.590
63658W        W36006  44.797  25.538  11.570
63659W        W36007  44.957   4.906  11.434
63660W        W36008   6.417  39.046   3.263
63661W        W36009  30.978  29.525   3.310
63662W        W36010  18.624  16.315   3.305
63663W        W36011  25.151  20.754  10.460
63664W        W36012  39.528  33.025   4.776
63665W        W36013  36.482  41.337  11.127
63666W        W36014  18.632  13.167  13.904
63667W        W36015  31.556  11.827  12.500
63668W        W36016  38.535  39.895  12.393
63669W        W36017  30.957   6.329   9.971
63670W        W36018  29.652  24.977   4.834
63671W        W36019   2.309  23.676  10.621
63672W        W36020  31.447  27.193   0.292
63673W        W36021  18.750   3.255   1.405
63674W        W36022  16.189  21.190  14.326
63675W        W36023  27.968  44.314  11.436
63676W        W36024  20.162   0.870  13.804
63677W        W36025  12.638  11.327  12.401
63678W        W36026  38.854  29.518   0.927
63679W        W36027  20.269  28.085   0.377
63680W        W36028  43.887  31.067  12.934
63681W        W36029  23.153   6.768   1.300
63682W        W36030   2.331  37.989   4.657
63683W        W36031  18.555  36.034   5.209
63684W        W36032  30.008  19.225  12.847
63685W        W36033  34.975  13.263   1.216
63686W        W36034  39.554   9.697   0.455
63687W        W36035  37.340   1.370  14.934
63688W        W36036   1.859  33.520   3.769
63689W        W36037  20.130  37.370  11.538
63690W        W36038  19.639  10.823  13.417
63691W        W36039  44.398  38.060  13.544
63692W        W36040  35.418  43.938   1.254
63693W        W36041  11.167  19.231  13.833
63694W        W36042  30.554  40.952   0.354
63695W        W36043  28.931  21.734  11.872
63696W        W36044  13.804  17.301   3.338
63697W        W36045  16.779   8.667  10.477
63698W        W36046  31.436  33.921   0.284
63699W        W36047   9.676   1.453  14.808
63700W        W36048  13.825  37.043   4.205
63701W        W36049  43.363  19.156  12.488
63702W        W36050  27.091   9.827   3.212
63703W        W36051  15.204  29.455   4.720
63704W        W36052  13.742  30.004   3.769
63705W        W36053   1.823  41.910   1.228
63706W        W36054  16.723  16.734   1.832
63707W        W36055  17.734  20.186  13.850
63708W        W36056  29.131  40.945  11.381
63709W        W36057  10.160  31.146  14.422
63710W        W36058  23.082  14.254  11.108
63711W        W36059  43.794  33.551   1.728
63712W        W36060  43.973   9.153  13.420
63713W        W36061  25.556  27.149   1.253
63714W        W36062   8.814  36.468   4.661
63715W        W36063   9.651   7.869   0.852
63716W        W36064  15.204   9.788  12.826
63717W        W36065  43.432  23.570  12.063
63718W        W36066  41.470  36.846  11.395
63719W        W36067   1.298  32.548   1.383
63720W        W36068  21.700  40.474  13.890
63721W        W36069  31.007  23.607   2.873
63722W        W36070  44.996  32.419   2.237
63723W        W36071  43.817  23.629  11.934
63724W        W36072  37.408  24.192   3.146
63725W        W36073  31.604  32.977   4.131
63726W        W36074  44.784  36.586  13.321
63727W        W36075  32.055  38.383   1.258
63728W        W36076   3.835  38.892  14.464
63729W        W36077  39.479  13.667   4.729
63730W        W36078  42.872  44.998  11.062
63731W        W36079   9.821  37.419  12.970
63732W        W36080  28.076  37.872   1.823
63733W        W36081   4.296  38.886   1.366
63734W        W36082  37.899  37.349   2.247
63735W        W36083  23.541  33.077  10.415
63736W        W36084   4.920  43.815   2.736
63737W        W36085   9.215  18.250  14.331
63738W        W36086  11.358   0.901   3.866
63739W        W36087  42.523  28.589  13.483
63740W        W36088  11.259  33.122  14.846
63741W        W36089  29.476  35.096  11.886
63742W        W36090  22.744  25.116   4.263
63743W        W36091  14.167  37.959  11.981
63744W        W36092  24.147   4.436  12.857
63745W        W36093   5.211  29.447  12.358
63746W        W36094  14.588  15.822   3.200
63747W        W36095  15.642  25.175   1.374
63748W        W36096  25.604  33.425  13.868
63749W        W36097   3.391  38.375   1.830
63750W        W36098  39.030   9.663  14.338
63751W        W36099  41.518  39.516   0.482
63752W        W36100  24.173   6.396  12.885
63753W        W36101  40.918  31.067   4.787
63754W        W36102  41.345  42.953  10.068
63755W        W36103  26.157  33.074  11.860
63756W        W36104  26.991  33.560   2.356
63757W        W36105  32.596  43.380   4.281
63758W        W36106  40.019   5.884  12.969
63759W        W36107  21.712  41.875   4.792
63760W        W36108  44.259  15.643   4.234
63761W        W36109   2.805  17.273   4.795
63762W        W36110   2.251  24.654   3.236
63763W        W36111  39.813  14.613   2.811
63764W        W36112   8.331  19.620   0.415
63765W        W36113  10.693   8.698  11.534
63766W        W36114  23.172  31.600   1.899
63767W        W36115  19.129  14.123   4.821
63768W        W36116  37.063  10.802   3.268
63769W        W36117  44.005  16.722  14.513
63770W        W36118  23.598  24.993  11.998
63771W        W36119   1.251   3.270  13.497
63772W        W36120  32.008  20.084   3.772
63773W        W36121  12.672   3.328  14.862
63774W        W36122  35.961  37.982   2.853
63775W        W36123  39.518  32.416   4.261
63776W        W36124  39.855  30.961   2.775
63777W        W36125  14.726  41.978   2.250
63778W        W36126  19.232  28.971   5.737
63779W        W36127  41.922  21.563   0.891
63780W        W36128  17.284  29.424   4.680
63781W        W36129   7.871  43.811  13.957
63782W        W36130  23.166  22.673  11.601
63783W        W36131  34.465  27.648  11.983
63784W        W36132  23.725   0.833   2.718
63785W        W36133   6.903  26.622   0.809
63786W        W36134  30.097  33.920   3.273
63787W        W36135   4.371  29.670   4.133
63788W        W36136  15.134  16.584   1.896
63789W        W36137   5.792   3.929   2.313
63790W        W36138  34.575  44.420   4.690
63791W        W36139  14.128  21.069  10.483
63792W        W36140  18.192  40.395  14.885
63793W        W36141  38.064  40.477   0.936
63794W        W36142  13.814  12.657  10.596
63795W        W36143  32.111  30.958  14.362
63796W        W36144  43.879  23.085  12.366
63797W        W36145  39.931  11.372   1.374
63798W        W36146  38.442   9.654  14.471
63799W        W36147  16.162  30.582   4.142
63800W        W36148  27.071  34.482   0.283
63801W        W36149  27.446  28.618   3.850
63802W        W36150   4.892  16.145  13.949
63803W        W36151  37.076  16.709   3.229
63804W        W36152  12.729  28.569   0.442
63805W        W36153  16.166   2.859  14.421
63806W        W36154  40.481  31.069   0.821
63807W        W36155  31.455  26.171   0.477
63808W        W36156  42.004   1.848  12.441
63809W        W36157  42.790  15.583   2.802
63810W        W36158  28.447  13.334   1.869
63811W        W36159  42.923  38.401   4.178
63812W        W36160  20.700  38.558  13.372
63813W        W36161  30.996  13.599  13.853
63814W        W36162  12.128  24.513   3.841
63815W        W36163  32.584  44.981   3.746
63816W        W36164  13.711  26.017   1.361
63817W        W36165   6.893  21.170   0.465
63818W        W36166  32.497   1.792   3.763
63819W        W36167  12.659  38.899   3.731
63820W        W36168  40.480  19.761   0.769
63821W        W36169  43.951  34.584   4.337
63822W        W36170  44.008  36.486  12.516
63823W        W36171  17.128  22.588  12.420
63824W        W36172  19.722  38.964   4.732
63825W        W36173   7.207   7.776  11.530
63826W        W36174   7.704  23.177  10.517
63827W        W36175  23.106  22.049  12.492
63828W        W36176   7.172  24.166  11.868
63829W        W36177  13.644  25.157   3.699
63830W        W36178   5.837  16.775  10.626
63831W        W36179   0.808  15.736   1.369
63832W        W36180   2.870  35.472  10.567
63833W        W36181  31.509  12.138  11.551
63834W        W36182  23.560   0.768   0.294
63835W        W36183  36.447  10.830   4.640
63836W        W36184  42.994  25.087   0.800
63837W        W36185  37.568  25.553   3.367
63838W        W36186  17.735  26.518  14.967
63839W        W36187  40.886  23.656   4.154
63840W        W36188  23.659  30.491  14.515
63841W        W36189  33.428  19.173  12.059
63842W        W36190   4.879   5.418  13.898
63843W        W36191  14.105  34.610  11.478
63844W        W36192  20.605  34.034   3.312
63845W        W36193  26.549  21.635  10.959
63846W        W36194  20.031  23.556  12.840
63847W        W36195  30.423   6.842   4.149
63848W        W36196  27.502   6.717   4.151
63849W        W36197  29.654  33.423  10.060
63850W        W36198  32.414  12.196  14.945
63851W        W36199  36.504  31.915   0.766
63852W        W36200   7.911  16.744  10.554
63853W        W36201   7.253  14.229  13.807
63854W        W36202  21.707  37.544   1.361
63855W        W36203  44.952  21.682  13.837
63856W        W36204   1.456  33.132   2.717
63857W        W36205  27.659  20.541   1.729
63858W        W36206  15.814  30.569   0.950
63859W        W36207   9.757  21.101  13.474
63860W        W36208  18.569  28.455   4.650
63861W        W36209  19.096  16.255  13.053
63862W        W36210  24.001  39.919  10.513
63863W        W36211  19.647  29.169  11.386
63864W        W36212  30.007   4.729  11.983
63865W        W36213   1.306  11.213  12.340
63866W        W36214  44.882   5.896   0.458
63867W        W36215  25.971  22.664   3.153
63868W        W36216  39.812   5.697   1.402
63869W        W36217  20.267  35.603   0.481
63870W        W36218  35.069  43.946  14.284
63871W        W36219  15.247   1.967  10.642
63872W        W36220  42.999  29.011  12.524
63873W        W36221   8.741   9.292   0.461
63874W        W36222   5.850  14.823   0.744
63875W        W36223  32.115   7.244  13.798
63876W        W36224  28.157  38.390   4.312
63877W        W36225  42.410  43.963   1.830
63878W        W36226  32.086  41.856  12.453
63879W        W36227  21.751  38.571   3.767
63880W        W36228   4.795  20.602   3.157
63881W        W36229  26.960  44.487   0.834
63882W        W36230  11.788  22.155   1.718
63883W        W36231  28.638  29.568  13.358
63884W        W36232  15.587   8.378  12.559
63885W        W36233  14.115  29.079  12.050
63886W        W36234  22.158   4.211  11.911
63887W        W36235  23.128   2.960  12.922
63888W        W36236  17.151   5.749   0.732
63889W        W36237  26.538  26.536   2.875
63890W        W36238  40.462  37.565   5.189
63891W        W36239   9.256  33.501   1.357
63892W        W36240  36.948  17.085   0.807
63893W        W36241  42.337  30.630  14.917
63894W        W36242  34.112  37.914  12.465
63895W        W36243   8.365  10.308  13.026
63896W        W36244  40.307  34.495   1.828
63897W        W36245  38.933   6.872   4.768
63898W        W36246  30.937  34.110  13.422
63899W        W36247  28.437   7.229   2.399
63900W        W36248  16.073   5.347  12.404
63901W        W36249  34.056  21.731   5.164
63902W        W36250  21.088   7.785  14.405
63903W        W36251  31.897   7.799  13.998
63904W        W36252  38.386  36.057  12.836
63905W        W36253  22.097  43.872   1.846
63906W        W36254   6.846  43.428   3.726
63907W        W36255  24.628  40.027   3.371
63908W        W36256  37.450  39.973   2.764
63909W        W36257  16.709  26.558   0.767
63910W        W36258  18.217   0.879   3.802
63911W        W36259   5.304   4.847  12.346
63912W        W36260  17.127  41.358   4.606
63913W        W36261   8.758  22.092  12.393
63914W        W36262  41.958  34.517  12.940
63915W        W36263  30.479  32.627   3.780
63916W        W36264  32.990  26.067  10.541
63917W        W36265  11.655  43.916   4.705
63918W        W36266  10.340  12.203   0.405
63919W        W36267  34.523   3.755  11.424
63920W        W36268  35.966  36.049  12.053
63921W        W36269   7.287  13.845  10.456
63922W        W36270  12.662  23.232   1.807
63923W        W36271  37.527  22.517  14.470
63924W        W36272  19.136  17.226   3.674
63925W        W36273  26.128  10.160   2.238
63926W        W36274  30.961  26.021   4.776
63927W        W36275  44.449  32.133  11.542
63928W        W36276  30.617   0.800   3.779
63929W        W36277   8.271  34.474  13.527
63930W        W36278  29.045  37.845   4.139
63931W        W36279  13.112  26.663   2.287
63932W        W36280  26.130   1.416  11.864
63933W        W36281  21.584  37.528  12.051
63934W        W36282  42.447  29.110  12.877
63935W        W36283  11.254  44.283   0.249
63936W        W36284  16.737  39.463  13.380
63937W        W36285  34.548  36.874   0.913
63938W        W36286   2.936  37.481  11.477
63939W        W36287  34.576  44.894   0.394
63940W        W36288  38.943  30.420   2.313
63941W        W36289   8.342  33.501   2.760
63942W        W36290  10.238  21.038   3.201
63943W        W36291  28.168  26.614  13.878
63944W        W36292  44.266  41.394  14.979
63945W        W36293   2.407  34.947   2.288
63946W        W36294  33.572   9.307   3.630
63947W        W36295   4.739   6.311  14.918
63948W        W36296   7.313   7.741  12.050
63949W        W36297  25.677   3.361  13.461
63950W        W36298   8.671  15.643   0.937
63951W        W36299  33.055  33.421   3.176
63952W        W36300  44.497  15.641  14.837
63953W        W36301  30.936  36.059   2.297
63954W        W36302   2.304  24.710   2.741
63955W        W36303  31.916  19.261  12.055
63956W        W36304  25.134  35.420  10.473
63957W        W36305  20.223  18.262  12.952
63958W        W36306   7.203   1.424   2.382
63959W        W36307  17.293  16.570  10.909
63960W        W36308  41.416  28.556   0.385
63961W        W36309  18.167  22.569  11.955
63962W        W36310   4.850  10.189   2.299
63963W        W36311  25.621  22.697  11.542
63964W        W36312  33.106  33.557   1.920
63965W        W36313  24.007  39.043   1.863
63966W        W36314   3.352  19.642  10.928
63967W        W36315   1.922  28.999   4.194
63968W        W36316  10.381  23.124  12.916
63969W        W36317  13.696  22.227   4.318
63970W        W36318  14.766  10.326   2.895
63971W        W36319  39.318  27.463  12.409
63972W        W36320  17.576  24.186  14.959
63973W        W36321  30.550  20.658  12.352
63974W        W36322   2.892   7.327   4.776
63975W        W36323  23.729  36.970  14.972
63976W        W36324  20.054  30.963  10.109
63977W        W36325  38.929  12.818   4.329
63978W        W36326  24.028  30.650   3.324
63979W        W36327   8.824   7.844   1.874
63980W        W36328  34.082  26.187  14.921
63981W        W36329  38.047  15.604  13.027
63982W        W36330  43.843  33.066  10.983
63983W        W36331  11.822  37.400  13.512
63984W        W36332   2.818   9.716   4.219
63985W        W36333   6.876  21.655   1.431
63986W        W36334   4.737  25.204  11.906
63987W        W36335  40.341  28.072   0.879
63988W        W36336   5.312  30.452  10.452
63989W        W36337   8.895  19.774  12.530
63990W        W36338  25.640  20.172  14.371
63991W        W36339   9.207   3.915  11.396
63992W        W36340   6.422  34.451   0.287
63993W        W36341  29.037  28.560   4.782
63994W        W36342  12.172  34.526  14.483
63995W        W36343   1.933  15.317  14.004
63996W        W36344  34.078  29.147   1.336
63997W        W36345  33.102  28.024  12.960
63998W        W36346   3.808   4.424   4.168
63999W        W36347  19.140   4.376  11.876
64000W        W36348  30.049  32.136  10.917
64001W        W36349   3.766  32.399  12.082
64002W        W36350   3.422   5.809   0.263
64003W        W36351  15.326   0.263  12.987
64004W        W36352  37.023  21.666  14.016
64005W        W36353  19.252  40.863  14.783
64006W        W36354  14.245  24.654  12.945
64007W        W36355   6.712  15.326  14.351
64008W        W36356  11.188  39.951   4.691
64009W        W36357  42.471  17.583   4.761
64010W        W36358  14.730  40.956   4.607
64011W        W36359  33.610  13.616   0.961
64012W        W36360  17.703  16.635  13.041
64013W        W36361  18.606   1.304   3.810
64014W        W36362  40.422   8.182  10.422
64015W        W36363   3.254  26.689  12.550
64016W        W36364  35.858   6.283  13.333
64017W        W36365  15.748  30.454   4.229
64018W        W36366   8.360  31.512  13.480
64019W        W36367  23.020  36.462  12.345
64020W        W36368  40.448  19.098  12.425
64021W        W36369  12.693  21.626  11.491
64022W        W36370  29.634  15.803   3.192
64023W        W36371  40.357   0.299  11.538
64024W        W36372   5.768  18.723  14.002
64025W        W36373  16.712  29.123   0.859
64026W        W36374  15.167  24.625   0.264
64027W        W36375  44.320  36.551  11.099
64028W        W36376  14.823   1.947   4.691
64029W        W36377   9.648  10.189  10.636
64030W        W36378  23.074   3.930  10.549
64031W        W36379  16.567   4.436   0.430
64032W        W36380  21.122   3.317   2.802
64033W        W36381  21.210   4.252   1.708
64034W        W36382   9.238  20.028   2.662
64035W        W36383   3.804  31.073   2.223
64036W        W36384  42.911  24.593  12.871
64037W        W36385  16.145   7.244  13.910
64038W        W36386  21.200  10.162   5.185
64039W        W36387  27.633   0.934  12.982
64040W        W36388  35.411  11.734  11.034
64041W        W36389  35.361  14.771   1.212
64042W        W36390  39.039  34.972   1.858
64043W        W36391  11.645  20.113   2.709
64044W        W36392  33.560  33.917  10.437
64045W        W36393  14.194  31.431   0.263
64046W        W36394  15.596  19.697  14.288
64047W        W36395  44.295   6.257  13.791
64048W        W36396   8.160   1.261  14.767
64049W        W36397  18.586  39.058  12.537
64050W        W36398  17.592  32.038   1.221
64051W        W36399  26.546  23.098  11.992
64052W        W36400  33.061  25.986   3.699
64053W        W36401  12.279  39.895   3.318
64054W        W36402   3.783  33.503   0.889
64055W        W36403  40.516  34.107   2.321
64056W        W36404  19.283  38.932  14.899
64057W        W36405  10.345  25.026   2.269
64058W        W36406  24.502  22.107  10.924
64059W        W36407   2.394   3.294  10.014
64060W        W36408  41.003  43.401  12.406
64061W        W36409   7.747  41.393  14.803
64062W        W36410  27.547  37.370  11.914
64063W        W36411  16.090  15.319   4.176
64064W        W36412  26.139  27.187   1.885
64065W        W36413  26.129  21.595  14.023
64066W        W36414  42.968  19.538  13.321
64067W        W36415  28.605   8.898   3.233
64068W        W36416  33.444   2.246   0.431
64069W        W36417  42.402   2.809   3.706
64070W        W36418  10.706  31.070   3.741
64071W        W36419   6.910  44.960  12.434
64072W        W36420  19.065  29.618   2.723
64073W        W36421  27.626   5.837  13.994
64074W        W36422  40.829  37.867  10.633
64075W        W36423  25.178  32.493   0.295
64076W        W36424  37.966  17.079  13.437
64077W        W36425  33.571  29.052  14.301
64078W        W36426  19.713  35.444  10.531
64079W        W36427   2.262  32.961   0.939
64080W        W36428  40.531  11.688  12.533
64081W        W36429  17.631  20.056   1.916
64082W        W36430   5.352   1.836  11.065
64083W        W36431  27.073   6.376  13.791
64084W        W36432  40.816   8.295   0.460
64085W        W36433   8.681  44.857   2.678
64086W        W36434  26.495  44.306  14.870
64087W        W36435   5.821  37.581  11.587
64088W        W36436  10.142  38.368  11.461
64089W        W36437  18.627  24.519   0.851
64090W        W36438  17.667  37.992  12.492
64091W        W36439   3.333  37.065  10.943
64092W        W36440  27.597  32.896   3.658
64093W        W36441  27.662  27.964  12.487
64094W        W36442   4.788   5.784  11.044
64095W        W36443  33.562  17.269  11.048
64096W        W36444  31.912   8.663   2.872
64097W        W36445  24.531  32.471   4.299
64098W        W36446  32.917  40.525  13.038
64099W        W36447  16.687  43.967  12.435
64100W        W36448  15.604  38.020   1.286
64101W        W36449  16.306  37.460   0.396
64102W        W36450   1.303   2.813   3.739
64103W        W36451   0.906  16.623   2.711
64104W        W36452  34.046  25.978  13.925
64105W        W36453   2.793   5.730  13.986
64106W        W36454  29.990  12.794   0.767
64107W        W36455  31.610  16.633  13.467
64108W        W36456  15.324  26.496  10.422
64109W        W36457  35.907   4.302  11.525
64110W        W36458  28.619  25.145  14.390
64111W        W36459  37.417   6.369   0.736
64112W        W36460  21.745  34.599   3.846
64113W        W36461  33.435  30.457  13.981
64114W        W36462  14.150  43.436   0.471
64115W        W36463  21.672  35.359   2.204
64116W        W36464   8.223  25.964  10.419
64117W        W36465  37.902  25.521  14.495
64118W        W36466  12.744   6.839  10.156
64119W        W36467  28.615   5.310   4.118
64120W        W36468   6.225  18.773   0.910
64121W        W36469  31.996   0.434   0.327
64122W        W36470   0.791  31.609  11.893
64123W        W36471  44.278  42.452  14.349
64124W        W36472  15.688  19.257   4.832
64125W        W36473  42.296  23.073   4.166
64126W        W36474  19.726  37.490  14.846
64127W        W36475  40.491  43.915   2.869
64128W        W36476  13.829   2.355  14.482
64129W        W36477  10.313  44.288   4.629
64130W        W36478  44.433  27.088   3.752
64131W        W36479  38.519  34.596  12.912
64132W        W36480  23.539  26.951  11.983
64133W        W36481   2.456   0.346  11.414
64134W        W36482   0.784   0.385  11.609
64135W        W36483   3.373  37.014  12.472
64136W        W36484  42.289  18.171  14.361
64137W        W36485  42.304  33.014  12.999
64138W        W36486  33.122  10.673  13.545
64139W        W36487  43.998   9.393  12.492
64140W        W36488  32.611  22.090   0.930
64141W        W36489  42.422  25.075   4.255
64142W        W36490  11.807  41.364  11.590
64143W        W36491   7.412  10.328  14.923
64144W        W36492  41.339  33.383  14.881
64145W        W36493   7.230   0.744   0.951
64146W        W36494  38.405  23.580  12.413
64147W        W36495  25.700   1.398   4.140
64148W        W36496  26.089  30.916   2.417
64149W        W36497  36.842   9.772  11.602
64150W        W36498  34.541  37.353   4.123
64151W        W36499   6.728  43.824  12.523
64152W        W36500  41.829  17.230   3.228
64153W        W36501  20.554   6.906   3.660
64154W        W36502  41.299  30.994  11.868
64155W        W36503  17.245  15.807  14.446
64156W        W36504  13.792   7.362  12.893
64157W        W36505  41.884  20.031   1.785
64158W        W36506  22.731  29.442   1.376
64159W        W36507  30.049  24.631   4.217
64160W        W36508  15.114   2.230  12.360
64161W        W36509  22.681   9.868  10.583
64162W        W36510  11.853   8.877  12.870
64163W        W36511  10.200  11.783  12.437
64164W        W36512  25.117  37.946   3.367
64165W        W36513  16.310  15.278   9.483
64166W        W36514  34.445  29.572   3.820
64167W        W36515  27.006   9.257  12.095
64168W        W36516  44.787  38.358   3.324
64169W        W36517  40.038  23.194  10.433
64170W        W36518  25.072  18.239   4.220
64171W        W36519   1.457  10.669   3.301
64172W        W36520  16.191  24.099  13.979
64173W        W36521  11.203  34.512   2.766
64174W        W36522  43.871  27.450  13.907
64175W        W36523  15.783  28.958  12.930
64176W        W36524   2.908  19.107  12.393
64177W        W36525  34.429  12.277   3.266
64178W        W36526  36.843  29.466  13.864
64179W        W36527   2.943   7.706  11.034
64180W        W36528  11.628  21.218   4.319
64181W        W36529  14.807  44.974  14.315
64182W        W36530  21.064  27.691   5.097
64183W        W36531  23.539  10.172  13.054
64184W        W36532   6.250   0.747   3.265
64185W        W36533  41.345  10.706  10.635
64186W        W36534  43.374   3.944   3.279
64187W        W36535   9.704   4.401  11.395
64188W        W36536  12.244  21.243  14.424
64189W        W36537  13.214  39.816   1.388
64190W        W36538  41.856  34.382   3.219
64191W        W36539   1.760  33.128  11.042
64192W        W36540  42.930  31.915  12.371
64193W        W36541  40.373  43.862  12.842
64194W        W36542  33.473   4.355  14.850
64195W        W36543  44.818  25.219  13.356
64196W        W36544  26.530  10.730  14.016
64197W        W36545  38.010   5.734   3.687
64198W        W36546  15.675   1.410   1.272
64199W        W36547  20.534  11.766   3.810
64200W        W36548  17.268  20.691  10.958
64201W        W36549  35.104   3.714   0.745
64202W        W36550  32.637  19.153   1.910
64203W        W36551  35.009   3.729  13.866
64204W        W36552  42.908  39.516   0.416
64205W        W36553   7.416   3.234   4.618
64206W        W36554  31.524  38.923   3.730
64207W        W36555  28.586  17.122   3.757
64208W        W36556  22.185   9.339  14.821
64209W        W36557  35.991   3.779  14.424
64210W        W36558  12.785   0.805   4.784
64211W        W36559   8.709   3.767   4.136
64212W        W36560  14.759  26.966   0.354
64213W        W36561  27.101  35.108  12.402
64214W        W36562  21.577  27.498   3.212
64215W        W36563  10.222  22.726   3.814
64216W        W36564  22.178  34.602   3.165
64217W        W36565  39.989  15.736  11.039
64218W        W36566  15.788   8.856   2.350
64219W        W36567  16.637  23.136   1.283
64220W        W36568   8.846  27.604   2.325
64221W        W36569  18.707   5.859  11.591
64222W        W36570  18.628   6.202   4.296
64223W        W36571  19.732  17.074  11.375
64224W        W36572  20.150  16.146   2.722
64225W        W36573  30.989  30.026  11.892
64226W        W36574  23.139  27.044   2.671
64227W        W36575  36.451  44.961  11.454
64228W        W36576  27.992   7.704   4.826
64229W        W36577  13.187  36.076   0.837
64230W        W36578  27.553  17.156  13.377
64231W        W36579  31.528  19.627  14.808
64232W        W36580   6.412  33.024   2.745
64233W        W36581  27.106  38.961  14.968
64234W        W36582  15.692  21.226  11.438
64235W        W36583  21.076  40.417  13.837
64236W        W36584  13.338  23.689  11.592
64237W        W36585  44.280  39.486   1.898
64238W        W36586   9.789  40.044  12.372
64239W        W36587   3.382   2.260   1.322
64240W        W36588  30.490  35.399  11.076
64241W        W36589  40.834   1.861   3.148
64242W        W36590   9.149  12.333  11.590
64243W        W36591  43.354   4.747  11.001
64244W        W36592  18.159  10.217   3.361
64245W        W36593   4.770  26.960   1.785
64246W        W36594  23.645  23.681  13.474
64247W        W36595   0.755  29.936  12.947
64248W        W36596  26.560   3.307  13.989
64249W        W36597   0.928  42.832  14.381
64250W        W36598   2.907  29.488  10.425
64251W        W36599  25.647  41.422   2.706
64252W        W36600  40.875   4.738  11.399
64253W        W36601   8.669  29.523  11.962
64254W        W36602  23.671  23.555   3.801
64255W        W36603  41.425  32.018   1.813
64256W        W36604  14.197  13.819   2.350
64257W        W36605  15.273  42.444  13.836
64258W        W36606  16.730  22.233   0.277
64259W        W36607  27.659  23.666  11.545
64260W        W36608  23.537  11.711   4.333
64261W        W36609   0.778  29.664  11.534
64262W        W36610   0.250  40.821  14.864
64263W        W36611   3.418   8.325   0.895
64264W        W36612  28.117  13.681  11.408
64265W        W36613  11.703  14.277   4.616
64266W        W36614  32.485  26.657   3.201
64267W        W36615  29.544  12.358   0.455
64268W        W36616  15.601  37.077  12.528
64269W        W36617  23.548  12.841  12.519
64270W        W36618  44.867   9.259   4.137
64271W        W36619  31.615  29.471   1.361
64272W        W36620  20.528  38.539  14.298
64273W        W36621  11.862  19.115   3.817
64274W        W36622  28.965  28.594   1.730
64275W        W36623   7.323   9.164   4.316
64276W        W36624   1.748  43.927  12.425
64277W        W36625  32.945  38.046   5.105
64278W        W36626  16.223  19.077  13.039
64279W        W36627   0.382  31.943  12.984
64280W        W36628  17.094   3.776  10.476
64281W        W36629  42.293  14.621   2.311
64282W        W36630  22.693   0.757   3.314
64283W        W36631  33.963   3.295   0.252
64284W        W36632  40.505  18.744  10.643
64285W        W36633  11.193  26.631   4.617
64286W        W36634   6.828  22.567  13.428
64287W        W36635  33.495   5.899  12.350
64288W        W36636  10.776  30.469  10.579
64289W        W36637  30.051  13.112  10.598
64290W        W36638  42.898  22.546   3.211
64291W        W36639   6.915  28.587  14.448
64292W        W36640  40.472  32.945  12.847
64293W        W36641  13.755  17.731  12.480
64294W        W36642  41.960   6.330   4.311
64295W        W36643  40.892   9.846  13.018
64296W        W36644  12.131  14.684  14.883
64297W        W36645  24.581  27.000   4.197
64298W        W36646  29.580  37.875  14.966
64299W        W36647  32.894  27.182   2.417
64300W        W36648   0.345   8.269  10.503
64301W        W36649  17.764  43.439   2.787
64302W        W36650  34.383   5.741   1.274
64303W        W36651   4.444  40.855   0.438
64304W        W36652  37.466   3.369   3.845
64305W        W36653  22.251   7.242  10.954
64306W        W36654   1.370  26.641  12.389
64307W        W36655  28.527  36.424  10.967
64308W        W36656  10.172  21.603   4.696
64309W        W36657  26.029  32.615   2.675
64310W        W36658  31.538  30.110   4.260
64311W        W36659   1.453  40.536  14.444
64312W        W36660  19.239  13.719   1.313
64313W        W36661  30.140  23.552  12.487
64314W        W36662  21.140  35.043  12.552
64315W        W36663  28.023  14.285   0.960
64316W        W36664  16.295  27.994   0.875
64317W        W36665  38.477   4.214  13.498
64318W        W36666  35.374  18.076   4.186
64319W        W36667  42.485   8.256  14.442
64320W        W36668  14.265  28.970   3.650
64321W        W36669  32.971   6.786  12.902
64322W        W36670  16.772  18.696   4.231
64323W        W36671  26.541  32.620  13.932
64324W        W36672   3.862  29.547   0.741
64325W        W36673  44.863  24.624   0.398
64326W        W36674  24.531  39.523  10.585
64327W        W36675  34.108  30.932   3.364
64328W        W36676  27.082  23.016  13.428
64329W        W36677   5.274  25.470  13.409
64330W        W36678  30.047  19.605   3.287
64331W        W36679  11.316  17.692   3.763
64332W        W36680  33.474  40.355   0.458
64333W        W36681  21.089  35.089   1.276
64334W        W36682  38.400  42.999  12.903
64335W        W36683  32.089   1.865  11.403
64336W        W36684  44.904  21.189  12.412
64337W        W36685  32.919   0.372   3.866
64338W        W36686   0.489   4.271   2.748
64339W        W36687  44.318  38.927  14.319
64340W        W36688  41.951  32.443  11.009
64341W        W36689  24.146  32.048  10.426
64342W        W36690  21.639  20.155  13.409
64343W        W36691  32.976  38.927  10.003
64344W        W36692  10.661  40.549  13.416
64345W        W36693  34.600  43.827  12.507
64346W        W36694  24.992  11.148  10.494
64347W        W36695   8.405  26.609   1.294
64348W        W36696   6.821  16.138   1.914
64349W        W36697  22.715   7.209  11.954
64350W        W36698  26.105   2.771   2.314
64351W        W36699  43.836  35.903  11.074
64352W        W36700  23.019  28.158  13.420
64353W        W36701  27.655  27.454   4.289
64354W        W36702  40.907  15.089  11.395
64355W        W36703  36.876  34.941  10.624
64356W        W36704  21.537   8.866   5.253
64357W        W36705  10.329  36.593  13.446
64358W        W36706   3.875   4.810   3.734
64359W        W36707   9.395  11.715  14.855
64360W        W36708  24.561  15.802  12.898
64361W        W36709  27.099   7.409   0.429
64362W        W36710   1.916  13.718   4.323
64363W        W36711   5.358  43.366  12.362
64364W        W36712   9.706  28.134   2.300
64365W        W36713  41.486  24.484  13.522
64366W        W36714  39.982  40.998  10.493
64367W        W36715  32.012  22.650  14.789
64368W        W36716  38.407  39.811   4.624
64369W        W36717  21.061  37.545  13.897
64370W        W36718  13.671  31.465  13.997
64371W        W36719   2.876   4.763   1.238
64372W        W36720  37.366  21.513   4.287
64373W        W36721   7.741  33.972  11.953
64374W        W36722  23.146  10.230  11.996
64375W        W36723   8.301  29.515  10.892
64376W        W36724   5.248  19.108  11.523
64377W        W36725  20.660  41.354  11.062
64378W        W36726  22.726   7.363   0.289
64379W        W36727   6.415  39.960   4.761
64380W        W36728  37.898  31.519   4.781
64381W        W36729   6.194  14.189  10.597
64382W        W36730   6.805   1.326  14.515
64383W        W36731  20.702  42.909  12.061
64384W        W36732  38.448  19.271  11.029
64385W        W36733  44.839  28.471  11.402
64386W        W36734  38.347  21.133   3.755
64387W        W36735   2.384  23.622   4.314
64388W        W36736   3.314  39.973  10.053
64389W        W36737  39.043  38.399  13.901
64390W        W36738  11.292  29.947   3.207
64391W        W36739  31.977  22.633  13.846
64392W        W36740   1.870  17.159  11.094
64393W        W36741  43.819   2.903  11.514
64394W        W36742   5.228  21.544  13.308
64395W        W36743  28.167  43.791   3.201
64396W        W36744  41.375   0.978  11.529
64397W        W36745   5.388  20.267  14.352
64398W        W36746  39.997  40.931  14.360
64399W        W36747  23.731  33.917  13.855
64400W        W36748  15.160  38.900   1.846
64401W        W36749   7.862  16.667  13.403
64402W        W36750  10.728  37.557   0.307
64403W        W36751  41.371  37.485  10.998
64404W        W36752  33.019  21.719   2.827
64405W        W36753   9.746  32.976  12.355
64406W        W36754  32.004  12.633   3.200
64407W        W36755   5.360   0.766   2.896
64408W        W36756  18.094   7.783   3.164
64409W        W36757   4.897  13.745  11.868
64410W        W36758  24.973   3.284   5.283
64411W        W36759  31.541   9.734  10.575
64412W        W36760  13.672  14.795   0.393
64413W        W36761   2.858  29.487   2.695
64414W        W36762   7.871  43.424   4.201
64415W        W36763  37.966   5.691  10.119
64416W        W36764  25.963  25.651   1.371
64417W        W36765  11.206  24.114  12.351
64418W        W36766  32.050  41.493  14.880
64419W        W36767  15.616  29.653   5.183
64420W        W36768  15.137   5.828  12.557
64421W        W36769   3.359  43.831  13.519
64422W        W36770  28.576  37.045  11.126
64423W        W36771   8.207  20.032  14.276
64424W        W36772  33.108  14.276  10.585
64425W        W36773  43.422  39.397  14.863
64426W        W36774  12.220   1.320  12.084
64427W        W36775   8.273   9.689  11.505
64428W        W36776   2.881  37.049   1.441
64429W        W36777  16.790  24.017   1.736
64430W        W36778   4.236  30.975   0.370
64431W        W36779  37.567  31.075  11.469
64432W        W36780  28.088   2.844  14.976
64433W        W36781   0.306   4.722  10.616
64434W        W36782  19.560  42.861  12.349
64435W        W36783   1.750  18.121  11.914
64436W        W36784  22.529  29.561   1.868
64437W        W36785  35.042   3.426  12.872
64438W        W36786   4.915  20.626   4.154
64439W        W36787  23.059  40.342  10.470
64440W        W36788  26.592  33.591   0.483
64441W        W36789  26.697   8.296  13.438
64442W        W36790  21.213  43.506   3.868
64443W        W36791  31.947  19.719  11.608
64444W        W36792  33.998  35.869   5.215
64445W        W36793  24.494   2.952   3.362
64446W        W36794  25.028   8.679   3.239
64447W        W36795  36.895   6.413   4.794
64448W        W36796   1.911   2.325   2.261
64449W        W36797   1.771  26.073  12.434
64450W        W36798   4.765  19.185   1.836
64451W        W36799  26.967  19.234  14.779
64452W        W36800  40.302  19.082   2.334
64453W        W36801   3.420   3.269  12.829
64454W        W36802  28.617  29.139  10.912
64455W        W36803  37.340   2.934  12.855
64456W        W36804  23.113   0.879   4.113
64457W        W36805  21.188  15.699  14.499
64458W        W36806  18.731  28.661  10.601
64459W        W36807  15.289  21.589  13.048
64460W        W36808  32.082  35.579   1.770
64461W        W36809  38.010  44.798  14.992
64462W        W36810  26.486  24.207   4.130
64463W        W36811  26.589   7.706   0.771
64464W        W36812  13.323  10.642   3.709
64465W        W36813   9.275  28.049  14.799
64466W        W36814  13.246  37.858   1.411
64467W        W36815  21.115   9.756   3.162
64468W        W36816  33.053  12.217  11.006
64469W        W36817  33.002  10.160  13.368
64470W        W36818  19.703   5.275   4.277
64471W        W36819  35.021  44.402   3.657
64472W        W36820  35.091  39.817   1.416
64473W        W36821  36.873   5.795  11.105
64474W        W36822  36.971  12.275  10.929
64475W        W36823  14.184  13.280   4.229
64476W        W36824  11.831  41.483   5.207
64477W        W36825  18.169  13.129   4.783
64478W        W36826   2.726  30.037  11.975
64479W        W36827  34.925  35.427  11.584
64480W        W36828   6.798  11.829  13.911
64481W        W36829  43.289  19.227   1.406
64482W        W36830  29.520  36.097  13.962
64483W        W36831  33.932  29.954  11.094
64484W        W36832   4.837  17.694   0.411
64485W        W36833   1.858  32.431   2.313
64486W        W36834  40.953  19.651   2.304
64487W        W36835  14.683  42.802   4.259
64488W        W36836  22.206  17.694  11.456
64489W        W36837  42.321  20.222   4.769
64490W        W36838  14.718  26.110  14.346
64491W        W36839  28.641   0.408   0.275
64492W        W36840  17.067  15.146   1.403
64493W        W36841  12.699   7.792  12.556
64494W        W36842  40.477  41.827  13.827
64495W        W36843  34.538  14.195  14.304
64496W        W36844  38.393  12.636   0.457
64497W        W36845  39.528  42.445  11.940
64498W        W36846   3.943   7.894  11.060
64499W        W36847  36.072  34.015  12.956
64500W        W36848  31.558  12.648  11.055
64501W        W36849  38.428  31.502   3.819
64502W        W36850  11.155   7.280   9.615
64503W        W36851  37.048  30.558   4.756
64504W        W36852  33.985   9.735   3.225
64505W        W36853  21.020   1.815  12.465
64506W        W36854  37.384   3.454  13.942
64507W        W36855  44.804   1.960  12.360
64508W        W36856  10.205  26.068  14.783
64509W        W36857  24.143  25.661  14.984
64510W        W36858  20.058   6.684   1.817
64511W        W36859   6.838   3.720  13.804
64512W        W36860  14.155  25.075  14.890
64513W        W36861   8.835   8.812  14.924
64514W        W36862   1.382   9.663  13.449
64515W        W36863  13.747  41.942  10.460
64516W        W36864  16.228   3.368  12.487
64517W        W36865  33.107  25.706  11.078
64518W        W36866  17.589  40.805   3.386
64519W        W36867  20.555  40.394  11.086
64520W        W36868  27.691  22.575  14.286
64521W        W36869  17.663  28.564  12.472
64522W        W36870  42.966  26.062   0.727
64523W        W36871  25.521  28.179  13.479
64524W        W36872  13.170  30.489  10.939
64525W        W36873  33.931  27.611   0.265
64526W        W36874  20.753   5.774   3.865
64527W        W36875   6.728  26.158   4.238
64528W        W36876  26.701   8.820   4.230
64529W        W36877  18.754  27.029  14.945
64530W        W36878  10.658  29.512   2.211
64531W        W36879  16.072  40.925  13.005
64532W        W36880  38.922  23.181  10.950
64533W        W36881  43.992  39.502  11.981
64534W        W36882  39.400   4.385   9.554
64535W        W36883  21.664   4.764  13.956
64536W        W36884  36.528   2.964   0.265
64537W        W36885  23.162  37.976   3.732
64538W        W36886  37.458  25.602   4.130
64539W        W36887  18.250  10.822   0.265
64540W        W36888  15.182  31.152  11.937
64541W        W36889  40.466  40.869   1.334
64542W        W36890  40.923  38.851  14.973
64543W        W36891  32.546   2.894  12.448
64544W        W36892  28.611  20.609   0.944
64545W        W36893  37.430  15.086   4.722
64546W        W36894  18.732  21.687   1.739
64547W        W36895  22.165  24.074   2.200
64548W        W36896  12.744  36.459  13.400
64549W        W36897  32.494  14.215  13.515
64550W        W36898  14.197  12.356   1.398
64551W        W36899  37.541  32.465   1.219
64552W        W36900   0.977  31.520  13.506
64553W        W36901  44.466  26.644  10.534
64554W        W36902  10.370  37.417  10.549
64555W        W36903   1.934  23.007  12.985
64556W        W36904  20.685   7.805  14.487
64557W        W36905  30.530  23.665   2.339
64558W        W36906  22.584  19.059  11.894
64559W        W36907  20.220  20.539  11.517
64560W        W36908  31.089  39.004   1.432
64561W        W36909  34.018  22.055  12.878
64562W        W36910  26.602  28.630   1.794
64563W        W36911  16.122  15.601   1.759
64564W        W36912  40.958  16.765  14.325
64565W        W36913  29.975  20.705   0.313
64566W        W36914  41.999  39.534  14.976
64567W        W36915   4.360  39.998   0.467
64568W        W36916  38.335  44.767  11.584
64569W        W36917  41.406  15.112  10.911
64570W        W36918  33.590  43.992   2.882
64571W        W36919  13.701   6.391   3.378
64572W        W36920  10.327  37.389  13.442
64573W        W36921   8.311  20.542   0.828
64574W        W36922  23.151  31.643  14.792
64575W        W36923   9.298  12.144   0.482
64576W        W36924  34.423  10.327  14.802
64577W        W36925  39.455  16.217  12.023
64578W        W36926  23.135  44.320   0.310
64579W        W36927  44.929  35.079   0.860
64580W        W36928   0.384  22.112  10.942
64581W        W36929  35.409  31.092   3.732
64582W        W36930   2.271  32.911  10.508
64583W        W36931  21.705  33.542  14.828
64584W        W36932  19.181  28.174  13.426
64585W        W36933  12.625   1.263  11.591
64586W        W36934  44.484  36.924   4.179
64587W        W36935  20.692  38.979  13.904
64588W        W36936  22.690  42.903  13.979
64589W        W36937  38.873  16.210   3.671
64590W        W36938  41.909  24.571  13.372
64591W        W36939  38.472  34.421   2.197
64592W        W36940  36.944   2.411   0.347
64593W        W36941  11.364  42.334  14.809
64594W        W36942  31.035  14.300   3.753
64595W        W36943  39.434   1.244   4.284
64596W        W36944  10.306  32.601   1.801
64597W        W36945  34.113  34.081   2.315
64598W        W36946  36.942  43.813  13.017
64599W        W36947  18.162  11.344   2.883
64600W        W36948   4.714  14.610  12.478
64601W        W36949  33.422  43.445   2.225
64602W        W36950  30.639  25.587  10.612
64603W        W36951  41.356  31.112   3.669
64604W        W36952   9.878   1.395   0.332
64605W        W36953   1.300   4.917  11.016
64606W        W36954  28.055  26.493   0.848
64607W        W36955  25.988  31.604  10.452
64608W        W36956   1.269  13.231  14.792
64609W        W36957  37.920   4.843   5.111
64610W        W36958  24.045  25.484  12.355
64611W        W36959  25.558  13.182  12.543
64612W        W36960  29.045  22.024  13.373
64613W        W36961  34.977  32.955  11.484
64614W        W36962   6.791   2.796   4.768
64615W        W36963  11.282  22.546   0.793
64616W        W36964   5.353  40.456  10.430
64617W        W36965  11.158   2.776   4.695
64618W        W36966  34.471  13.216  10.428
64619W        W36967   7.745  40.387  12.022
64620W        W36968  14.765   9.247  13.376
64621W        W36969  44.832  39.372  10.404
64622W        W36970   7.791   0.819   2.738
64623W        W36971  11.780  40.860   1.440
64624W        W36972  39.495   7.301   4.803
64625W        W36973  33.998  15.710   4.645
64626W        W36974  41.869   3.416   1.216
64627W        W36975  19.176  32.079  11.380
64628W        W36976   2.362   9.360  10.979
64629W        W36977  33.956  39.406  13.986
64630W        W36978  28.642  38.379  13.846
64631W        W36979  25.188  40.479  11.524
64632W        W36980  15.629  12.323  14.477
64633W        W36981  36.448  10.288  13.446
64634W        W36982  12.211  15.715   1.257
64635W        W36983  33.531  17.636   2.897
64636W        W36984  41.476  22.548  14.322
64637W        W36985  32.478  30.059   1.358
64638W        W36986  17.097  26.163   3.631
64639W        W36987  44.889  14.742   4.247
64640W        W36988  40.948   3.823  14.987
64641W        W36989  39.017   4.329  14.766
64642W        W36990  43.360  26.666  12.393
64643W        W36991  10.812  38.389  12.894
64644W        W36992  26.170  17.795  12.388
64645W        W36993  34.615  44.468  14.511
64646W        W36994  18.273  21.247  12.349
64647W        W36995  20.255   2.353   3.762
64648W        W36996  44.370  13.634  14.353
64649W        W36997  44.273  28.934   5.217
64650W        W36998  25.137   4.884   4.600
64651W        W36999  12.123  14.198   4.787
64652W        W37000  33.610  19.543   0.857
64653W        W37001  34.117   9.277   4.149
64654W        W37002  30.973  13.612  12.476
64655W        W37003  33.583   0.828  12.509
64656W        W37004  20.120  17.229  11.612
64657W        W37005  22.057  20.220   4.287
64658W        W37006  38.865  25.126   2.705
64659W        W37007  44.938  28.629   4.189
64660W        W37008   0.801  10.210  11.942
64661W        W37009  25.003  23.217   0.452
64662W        W37010  42.937  25.074  10.453
64663W        W37011  23.207  10.855  10.913
64664W        W37012  13.324  44.441  10.054
64665W        W37013  37.499  29.120  12.488
64666W        W37014   6.737  25.630   1.901
64667W        W37015  44.966  42.410  14.425
64668W        W37016  25.976  12.728   4.638
64669W        W37017  38.885  18.791   3.724
64670W        W37018  14.719  22.198  14.894
64671W        W37019   5.208  18.260  11.980
64672W        W37020  36.904  10.829  10.627
64673W        W37021  16.145   0.393  13.321
64674W        W37022   8.278   2.228   3.237
64675W        W37023  22.042   9.767   4.213
64676W        W37024   3.341  26.143   2.357
64677W        W37025  27.150  11.636   2.899
64678W        W37026  44.944  16.156  10.420
64679W        W37027  35.063  10.146  13.410
64680W        W37028   4.710  18.111   3.728
64681W        W37029  43.902  44.943  12.493
64682W        W37030  13.767  43.847  13.543
64683W        W37031   4.867  37.381  10.158
64684W        W37032  37.385  17.169   4.668
64685W        W37033  18.146  26.636   2.752
64686W        W37034  13.679   3.805   1.804
64687W        W37035  24.630   5.905  14.461
64688W        W37036   8.709   8.356  13.894
64689W        W37037  42.509  25.198   3.377
64690W        W37038  42.902  21.059  11.605
64691W        W37039  41.034   0.897  11.015
64692W        W37040  36.912  10.361   1.851
64693W        W37041  16.672  22.061  12.405
64694W        W37042  22.654  17.290   3.205
64695W        W37043  39.858  18.674  14.012
64696W        W37044  13.118  16.753  13.829
64697W        W37045  25.078  30.544  14.989
64698W        W37046  40.468  27.972  14.994
64699W        W37047  41.037  41.394  13.918
64700W        W37048   0.284  38.437   0.903
64701W        W37049  19.049   9.307  13.360
64702W        W37050  25.636  22.167  14.903
64703W        W37051  33.508  21.641   4.244
64704W        W37052  36.591  12.739  14.841
64705W        W37053  21.162  34.407   3.313
64706W        W37054   1.758  30.545   1.262
64707W        W37055  28.022   2.723   0.910
64708W        W37056  25.567  42.835  12.474
64709W        W37057   9.697  31.108  12.981
64710W        W37058  13.336   5.748  14.405
64711W        W37059  18.771  40.910  11.934
64712W        W37060  27.069  12.773   1.326
64713W        W37061   2.338  25.014   4.221
64714W        W37062  19.249  21.180   4.223
64715W        W37063  32.498  24.597   0.945
64716W        W37064  38.329   6.844  12.071
64717W        W37065  32.547  13.777  10.891
64718W        W37066   5.335  42.507   1.291
64719W        W37067   0.482  41.395  14.384
64720W        W37068  23.014  27.572  11.449
64721W        W37069  35.382  18.624   1.883
64722W        W37070  11.827  32.017  14.927
64723W        W37071   3.413   5.354  10.497
64724W        W37072  12.285  16.799  14.422
64725W        W37073  31.446   7.885  14.336
64726W        W37074  20.595   7.202   1.714
64727W        W37075   9.727  41.511   4.141
64728W        W37076   8.858  30.551   2.887
64729W        W37077   9.296  23.627  11.944
64730W        W37078   3.716   0.483   3.289
64731W        W37079  10.705  21.259  10.060
64732W        W37080  31.959   0.944   5.262
64733W        W37081  33.579  32.980   2.748
64734W        W37082  40.806   7.742  11.542
64735W        W37083  26.543  24.575   2.775
64736W        W37084  28.534  43.387  12.504
64737W        W37085  39.936  30.585   0.927
64738W        W37086  44.002  39.541  14.470
64739W        W37087   1.250  41.791  13.489
64740W        W37088   7.823  14.652  14.021
64741W        W37089  35.367  33.427   2.207
64742W        W37090  29.986  29.068  12.827
64743W        W37091  15.321  10.150  13.879
64744W        W37092  10.305  14.651   3.374
64745W        W37093   8.321   5.233   4.344
64746W        W37094  10.175   6.864   5.176
64747W        W37095  23.611  33.580   0.786
64748W        W37096  13.649  32.424  10.596
64749W        W37097  32.396  27.679  12.424
64750W        W37098  28.555   4.876  10.644
64751W        W37099   4.849  31.407  10.495
64752W        W37100  26.695  36.841   0.341
64753W        W37101  44.792  28.440   0.459
64754W        W37102  30.564  35.499  12.561
64755W        W37103  16.788   5.886   0.748
64756W        W37104   8.401   0.921   0.264
64757W        W37105  15.231  43.512  12.053
64758W        W37106  25.581   4.853  10.084
64759W        W37107  31.583  13.754  12.546
64760W        W37108   4.210  10.740  13.457
64761W        W37109  39.457  32.897  12.954
64762W        W37110  16.756  12.348   5.170
64763W        W37111  32.479  11.245  13.505
64764W        W37112   2.410  32.142   4.715
64765W        W37113  31.034  44.317  14.338
64766W        W37114  33.000  43.835   1.821
64767W        W37115  15.160  18.640   3.742
64768W        W37116  38.054  23.163   0.315
64769W        W37117   1.288  39.392  14.402
64770W        W37118  31.976  14.294   1.320
64771W        W37119  22.571  40.950  13.350
64772W        W37120   8.197  23.670   3.757
64773W        W37121   1.937   1.849   0.834
64774W        W37122  36.007  31.065   3.817
64775W        W37123  37.492  16.119   2.783
64776W        W37124  15.276  12.191   0.418
64777W        W37125  27.664  44.396  11.559
64778W        W37126  13.687   4.878   5.220
64779W        W37127  30.627  41.432   3.237
64780W        W37128  38.464  28.104   1.882
64781W        W37129   6.736  36.847   4.233
64782W        W37130  41.907   6.240  12.979
64783W        W37131  33.128  44.902   1.695
64784W        W37132  39.996   3.415  14.321
64785W        W37133  19.063  38.467  14.860
64786W        W37134   0.254   9.705  13.881
64787W        W37135  41.825  23.011   2.706
64788W        W37136  30.612   1.263  14.921
64789W        W37137  25.062  39.943   1.880
64790W        W37138  37.543   5.286   2.370
64791W        W37139  21.115  41.970   2.829
64792W        W37140   7.261  11.804   3.228
64793W        W37141   7.667  27.670   0.422
64794W        W37142  44.275   9.643   4.118
64795W        W37143  22.608  36.515  12.904
64796W        W37144   3.420   4.442   4.352
64797W        W37145  11.301  41.406  13.333
64798W        W37146  17.227  21.158  14.774
64799W        W37147  32.950   6.414   0.452
64800W        W37148  29.107  13.714   0.766
64801W        W37149  24.067  39.374   0.796
64802W        W37150  22.176  21.604  12.064
64803W        W37151   4.787  28.454   9.931
64804W        W37152  26.000  28.092   1.293
64805W        W37153  22.089  27.101   1.254
64806W        W37154  22.528  38.387   4.310
64807W        W37155  33.449   7.713  13.971
64808W        W37156  14.657  28.175  10.153
64809W        W37157  24.615  12.817  10.614
64810W        W37158  20.701   4.758   2.215
64811W        W37159  17.753  21.231  14.890
64812W        W37160  25.197   2.359   2.841
64813W        W37161  22.226  10.231  10.034
64814W        W37162  27.579  12.622   0.296
64815W        W37163   5.351  28.617  13.307
64816W        W37164  33.433   9.712  14.835
64817W        W37165   9.721  39.051  13.905
64818W        W37166   2.451  15.304   2.901
64819W        W37167  24.724  30.447  14.975
64820W        W37168  28.670  11.789   2.817
64821W        W37169  24.085  18.732   3.244
64822W        W37170  16.618   6.739  11.060
64823W        W37171  34.536  18.642   2.407
64824W        W37172  35.906  33.943   3.714
64825W        W37173  40.452   1.814   2.405
64826W        W37174  40.032  30.941   1.807
64827W        W37175  19.046  11.658   1.775
64828W        W37176  25.641  18.239   0.442
64829W        W37177  24.004  18.215   1.311
64830W        W37178   2.365  24.024   3.821
64831W        W37179  29.520  25.591  12.513
64832W        W37180  34.909  30.089  13.407
64833W        W37181  28.519  26.209   3.273
64834W        W37182  19.092  37.391  11.584
64835W        W37183  11.195  12.774  11.898
64836W        W37184  14.672  25.005  14.022
64837W        W37185  14.261  34.565   1.921
64838W        W37186   6.249  22.196   1.808
64839W        W37187  22.218  33.895   3.320
64840W        W37188  22.160  13.268  13.949
64841W        W37189  31.423  27.139   2.273
64842W        W37190  10.701   8.750   1.823
64843W        W37191  27.189  39.495   4.267
64844W        W37192  36.555  10.376   2.863
64845W        W37193  35.867  32.598   4.610
64846W        W37194   9.835  34.489   2.293
64847W        W37195  26.095   6.267  12.424
64848W        W37196  28.113  31.551   1.698
64849W        W37197   4.895   9.284  14.887
64850W        W37198   0.402   7.709   3.710
64851W        W37199  28.636  35.979  10.994
64852W        W37200  40.342  13.146   1.335
64853W        W37201  24.532  33.010   0.279
64854W        W37202  34.599  20.648  10.461
64855W        W37203  42.330  29.551  10.566
64856W        W37204  40.798  33.976  11.440
64857W        W37205  11.168  26.091  13.841
64858W        W37206   0.463   4.888   0.954
64859W        W37207  18.118   0.323  13.319
64860W        W37208  11.819  26.008   0.822
64861W        W37209  25.030  18.158  14.808
64862W        W37210  35.432   5.226   9.507
64863W        W37211  37.926  34.581  10.598
64864W        W37212   4.351   6.232   2.395
64865W        W37213  43.944  22.209   2.247
64866W        W37214   1.415   9.748   0.900
64867W        W37215  26.674  24.598  14.848
64868W        W37216  12.778  15.749   0.422
64869W        W37217  21.028  43.326   0.257
64870W        W37218  28.967  41.841   4.705
64871W        W37219  20.110  16.699  11.957
64872W        W37220  42.997   2.370   5.136
64873W        W37221  30.478   7.852   1.792
64874W        W37222  31.446   3.429   3.754
64875W        W37223   6.231   8.801  14.321
64876W        W37224  15.799   2.267   4.683
64877W        W37225  31.042   6.358  10.919
64878W        W37226  36.424  24.676   0.477
64879W        W37227  25.600  10.199   2.345
64880W        W37228  43.795  38.347   2.691
64881W        W37229  17.594  13.738   0.420
64882W        W37230  42.031  21.644   3.649
64883W        W37231   3.887  38.910   4.303
64884W        W37232  16.725  20.646   4.733
64885W        W37233  20.087  38.558  12.492
64886W        W37234  43.993  25.496   0.836
64887W        W37235  26.457  30.954   2.824
64888W        W37236  19.755   4.770   2.266
64889W        W37237   7.763   1.365   3.302
64890W        W37238   6.216   8.360   2.271
64891W        W37239  21.512  32.545  11.027
64892W        W37240  42.810  32.511   0.423
64893W        W37241  26.174  32.129  13.439
64894W        W37242  15.619  37.889   4.662
64895W        W37243  22.559  40.803   2.878
64896W        W37244   9.364  20.098   2.405
64897W        W37245  43.344  15.773   4.832
64898W        W37246  26.672  35.926   2.291
64899W        W37247  23.676  31.549   4.765
64900W        W37248  15.813  19.647   4.268
64901W        W37249  25.001   7.261   1.704
64902W        W37250  30.639  29.921  11.079
64903W        W37251  28.173  29.652   5.186
64904W        W37252  19.563  24.520  10.466
64905W        W37253  29.044  38.951   0.250
64906W        W37254   4.286  32.522   4.234
64907W        W37255  21.235  35.972   1.396
64908W        W37256   3.270  37.893   4.689
64909W        W37257  35.862  31.422  13.894
64910W        W37258  20.220  33.095   3.356
64911W        W37259   1.259  34.048  14.870
64912W        W37260  20.097  13.786   2.339
64913W        W37261  31.405  42.898   1.933
64914W        W37262   4.795  18.184   0.747
64915W        W37263  32.001  24.083  10.636
64916W        W37264  15.198  31.138   4.213
64917W        W37265  32.428   0.334  13.374
64918W        W37266  27.585  38.977   3.376
64919W        W37267   4.804  11.740   2.278
64920W        W37268  15.735  24.642   2.837
64921W        W37269   9.264  21.159   1.296
64922W        W37270  38.074  17.693  12.048
64923W        W37271  34.108  10.234   2.843
64924W        W37272  17.654  39.911   0.739
64925W        W37273  34.070  35.519  11.892
64926W        W37274  28.507  13.250   2.295
64927W        W37275  26.703   2.465  14.419
64928W        W37276  36.407  31.433  14.280
64929W        W37277  25.683  19.600  10.623
64930W        W37278  20.149  30.486  14.804
64931W        W37279  23.234   5.816   4.117
64932W        W37280  30.090  14.620   2.341
64933W        W37281  29.445  42.882  14.881
64934W        W37282   4.918  25.150   1.399
64935W        W37283   8.277  32.610  13.365
64936W        W37284  17.680   0.329   1.750
64937W        W37285  27.683  40.996  14.369
64938W        W37286   5.881  36.482  14.348
64939W        W37287   2.228  12.741   1.739
64940W        W37288   7.889  24.103   1.834
64941W        W37289  17.771  26.187   1.783
64942W        W37290  23.705  25.193  11.530
64943W        W37291  26.030  21.134   1.932
64944W        W37292   0.369  21.232   2.712
64945W        W37293  32.932  27.495   4.173
64946W        W37294  10.716  44.322   1.321
64947W        W37295   5.434   4.769  12.842
64948W        W37296   7.799  18.090  13.950
64949W        W37297  30.948  33.041  13.919
64950W        W37298  36.365   3.347  11.019
64951W        W37299  20.230  38.442  13.524
64952W        W37300  34.397   3.268  11.107
64953W        W37301  14.282  27.581  11.951
64954W        W37302   6.370   5.897   1.385
64955W        W37303   1.819  12.643  13.956
64956W        W37304  17.736   3.779  11.103
64957W        W37305  42.876   1.936   1.862
64958W        W37306  10.228  33.526  13.428
64959W        W37307   2.418  11.242  14.788
64960W        W37308  33.929  43.951   1.271
64961W        W37309   9.850  27.951  13.927
64962W        W37310  24.068  31.919   3.166
64963W        W37311  17.734  19.723  10.482
64964W        W37312  15.641  23.666   1.405
64965W        W37313  22.525  44.432  13.365
64966W        W37314  40.536  20.672   0.359
64967W        W37315  14.654  10.710  11.452
64968W        W37316   7.837  20.043  14.413
64969W        W37317   6.840  20.709   3.259
64970W        W37318  12.723   8.295   4.152
64971W        W37319  34.546   4.333  13.450
64972W        W37320   0.433   3.885  12.865
64973W        W37321   6.373  34.049  11.121
64974W        W37322  34.034   0.913   3.304
64975W        W37323  28.049  11.212  11.537
64976W        W37324  41.936  31.096  11.420
64977W        W37325   0.768  42.342   0.743
64978W        W37326   5.727   7.852   3.221
64979W        W37327  27.038  44.477  12.461
64980W        W37328  12.359  44.328   1.792
64981W        W37329  41.511  36.566  11.126
64982W        W37330  19.676  10.179   0.752
64983W        W37331  13.818  33.085  11.985
64984W        W37332  37.974  27.577  11.920
64985W        W37333  37.064  23.721  13.817
64986W        W37334  42.919  39.910  11.567
64987W        W37335  35.932  29.982  14.000
64988W        W37336  20.041  17.620   0.346
64989W        W37337  17.147   1.483   3.817
64990W        W37338  36.484  16.770   2.809
64991W        W37339   3.403  35.985  10.966
64992W        W37340  41.410  18.619   4.337
64993W        W37341  30.121   3.816  14.386
64994W        W37342  20.177   2.840  13.500
64995W        W37343  32.022  21.623  10.972
64996W        W37344  35.557   7.673   1.754
64997W        W37345  26.499  12.726  11.901
64998W        W37346  29.546  30.914   0.750
64999W        W37347  15.595  36.531  14.420
65000W        W37348  34.570   7.414   1.715
65001W        W37349  39.358  30.973   2.900
65002W        W37350  37.034  12.778   4.788
65003W        W37351  10.294  26.995  11.521
65004W        W37352  30.499  39.920   3.685
65005W        W37353  15.783  22.506  12.471
65006W        W37354  39.896  40.500   1.774
65007W        W37355  18.073  14.809  11.576
65008W        W37356  30.982  42.428  13.989
65009W        W37357  11.662  44.347   0.404
65010W        W37358  25.213  21.097   2.359
65011W        W37359  24.489   6.786   2.413
65012W        W37360  15.755   2.277   0.406
65013W        W37361  24.487  27.118   0.313
65014W        W37362  14.129   6.861   4.312
65015W        W37363  33.036  39.042  14.975
65016W        W37364  44.903   0.322  13.015
65017W        W37365  30.606  34.975   4.185
65018W        W37366  23.098  16.304   4.213
65019W        W37367  22.552  19.270  14.940
65020W        W37368  29.549  13.121  11.875
65021W        W37369   9.654  23.231  12.453
65022W        W37370   6.890  18.599   3.688
65023W        W37371  27.644  34.002   1.425
65024W        W37372  22.569  12.201   3.226
65025W        W37373  41.803  30.015  12.063
65026W        W37374   3.345  29.492  12.950
65027W        W37375  33.478  13.808   1.241
65028W        W37376  38.962  44.435   2.680
65029W        W37377  31.922   8.667   4.236
65030W        W37378  13.118   6.286  11.536
65031W        W37379  34.498   8.785   3.332
65032W        W37380   5.311  42.777   3.317
65033W        W37381   9.697  32.930  11.605
65034W        W37382   7.733  30.607   3.689
65035W        W37383  27.668  29.073   1.787
65036W        W37384  22.217  40.403  12.984
65037W        W37385  11.275  20.672   4.655
65038W        W37386   8.722  25.182  11.959
65039W        W37387  16.642  18.674   2.864
65040W        W37388  41.351  23.145   2.366
65041W        W37389  31.487  19.175   2.761
65042W        W37390   9.786   9.282  12.031
65043W        W37391  33.050  35.098   0.278
65044W        W37392  37.846  40.806   0.332
65045W        W37393  18.652  31.487  10.981
65046W        W37394  37.057  15.775   1.213
65047W        W37395  17.654  20.048  12.511
65048W        W37396   5.411  17.697  12.022
65049W        W37397  38.851  18.233   3.318
65050W        W37398   9.759  36.042  12.868
65051W        W37399   6.880  19.778   3.312
65052W        W37400  15.269  21.129  10.977
65053W        W37401  40.369  32.093   2.257
65054W        W37402  25.481  13.699   2.267
65055W        W37403  39.951  35.979  14.882
65056W        W37404   3.717  11.694  11.535
65057W        W37405  27.971  29.030  14.993
65058W        W37406  13.690  36.367  12.471
65059W        W37407  20.543  34.062  11.999
65060W        W37408  42.011  22.088  13.977
65061W        W37409  28.986  41.318   3.209
65062W        W37410  35.029  17.234   0.480
65063W        W37411  17.119  16.253   1.706
65064W        W37412   4.752  25.109  10.093
65065W        W37413  35.911   0.326   2.829
65066W        W37414  37.939  27.536   2.206
65067W        W37415  36.033  24.128  13.907
65068W        W37416  38.881  13.252   0.790
65069W        W37417  36.529  43.861  13.939
65070W        W37418  35.432  32.575   3.275
65071W        W37419   0.346  31.901   2.399
65072W        W37420   6.403  23.499   4.820
65073W        W37421  19.664  44.490  11.037
65074W        W37422  36.004  31.961   2.279
65075W        W37423   8.708   0.454  13.048
65076W        W37424  38.543  38.039   1.368
65077W        W37425  26.134  13.636  13.428
65078W        W37426  17.629  37.466   4.749
65079W        W37427   2.913  44.444  11.487
65080W        W37428  30.088  24.708   3.742
65081W        W37429  40.972  39.456  13.876
65082W        W37430  42.846  10.311   1.211
65083W        W37431  36.991  30.515  13.412
65084W        W37432  11.860   8.831   2.876
65085W        W37433  13.821  41.473   4.655
65086W        W37434  29.426   2.408   1.906
65087W        W37435  25.604  20.686  10.984
65088W        W37436  17.236   1.961  14.287
65089W        W37437   5.437  22.214  12.055
65090W        W37438  19.171   4.717  14.015
65091W        W37439  12.793   5.877  12.095
65092W        W37440  28.072   9.225   4.704
65093W        W37441  25.541  28.085   4.606
65094W        W37442  40.539   1.351   3.641
65095W        W37443   5.369   0.819   9.957
65096W        W37444  13.147  11.356  13.054
65097W        W37445  44.897  10.875   3.859
65098W        W37446  42.017  11.859  10.934
65099W        W37447  12.360  12.144  12.022
65100W        W37448   0.986   4.215   3.809
65101W        W37449   5.315  43.410  13.506
65102W        W37450  38.492  18.726  11.926
65103W        W37451   6.823  21.258  13.920
65104W        W37452   5.439  37.338   0.383
65105W        W37453  42.512  39.877  14.983
65106W        W37454  21.527   0.939  13.866
65107W        W37455  21.652   9.336   0.733
65108W        W37456  17.249   9.188  12.998
65109W        W37457  10.785  35.852  13.988
65110W        W37458  27.557  42.451   2.405
65111W        W37459   0.924  40.017  11.601
65112W        W37460  21.624  30.990   4.142
65113W        W37461   0.906  33.025  12.045
65114W        W37462  44.875  26.664  13.047
65115W        W37463  11.761  16.227  13.844
65116W        W37464  18.624  30.065  14.452
65117W        W37465  20.608   1.777  11.900
65118W        W37466  24.143  32.054   5.220
65119W        W37467  18.055  13.189   0.435
65120W        W37468  12.262  19.735  12.060
65121W        W37469  17.658  36.005  13.492
65122W        W37470  14.807  27.670  11.095
65123W        W37471   3.900  25.008  11.516
65124W        W37472   5.693  20.598   0.332
65125W        W37473   5.748  41.365  11.105
65126W        W37474  35.888  42.931   0.338
65127W        W37475  33.537   5.310  10.894
65128W        W37476  25.083  17.211  11.857
65129W        W37477  22.212  14.684   1.907
65130W        W37478   6.902  14.609   0.425
65131W        W37479  20.149   9.708  12.004
65132W        W37480  37.549  24.491  11.391
65133W        W37481  30.494   1.754  14.822
65134W        W37482   5.913  44.486   2.842
65135W        W37483  34.936   0.768  13.906
65136W        W37484  36.536  40.512   3.368
65137W        W37485  37.893  37.916  14.996
65138W        W37486  36.987  43.436  10.983
65139W        W37487  39.521   5.285   1.422
65140W        W37488   9.265  33.436  13.446
65141W        W37489  41.444  40.897   2.359
65142W        W37490  19.755   9.279   2.187
65143W        W37491  16.085  41.969   1.731
65144W        W37492  17.693  31.552  11.059
65145W        W37493  32.051  32.537   1.706
65146W        W37494  22.505  29.162  14.478
65147W        W37495  24.611  26.036  13.978
65148W        W37496  35.520  40.384   1.846
65149W        W37497  27.494  34.585   2.219
65150W        W37498   8.654  23.626   0.935
65151W        W37499  39.881  28.583  14.490
65152W        W37500  18.730  41.350   4.226
65153W        W37501   5.729  13.314  10.891
65154W        W37502  23.155  42.324   0.369
65155W        W37503  32.099  17.234  11.480
65156W        W37504  19.197  28.450   1.419
65157W        W37505  26.463  25.506   2.901
65158W        W37506  22.127   4.394   2.685
65159W        W37507  35.052  19.608   3.654
65160W        W37508   4.922   3.461  12.074
65161W        W37509  44.850  23.620   4.701
65162W        W37510  20.186  24.017   4.811
65163W        W37511  37.976  12.343  12.827
65164W        W37512  30.426  39.901  12.075
65165W        W37513  44.833  19.179   1.784
65166W        W37514  10.701  15.712   2.317
65167W        W37515   6.892  25.656   3.147
65168W        W37516  24.026  23.627  13.792
65169W        W37517  24.142  23.543  14.293
65170W        W37518   0.454  26.598   0.859
65171W        W37519  22.084  34.901  14.777
65172W        W37520   6.187  38.351   2.338
65173W        W37521  16.648  40.484  11.470
65174W        W37522  33.029   2.352  13.861
65175W        W37523  14.093   1.877   3.335
65176W        W37524  35.601   9.822   3.146
65177W        W37525  21.550  24.986  13.507
65178W        W37526  39.449  30.465  14.936
65179W        W37527  27.050  37.455   0.357
65180W        W37528  28.500  41.388   2.241
65181W        W37529  44.317  17.564  11.115
65182W        W37530  37.573  29.452   4.118
65183W        W37531   3.433   9.809  10.928
65184W        W37532   2.827  22.524   4.699
65185W        W37533   7.256  41.026  10.940
65186W        W37534  27.037  20.123  12.896
65187W        W37535  36.534  20.202   1.385
65188W        W37536  22.624  13.718  12.388
65189W        W37537   4.866  20.268  11.519
65190W        W37538  12.699  25.109  14.419
65191W        W37539   8.305  42.874   2.309
65192W        W37540  40.886  12.652  11.525
65193W        W37541  28.466  21.681  12.470
65194W        W37542  13.119  13.752  12.028
65195W        W37543  29.143  19.223   0.832
65196W        W37544   7.290   9.828   1.353
65197W        W37545  36.531  26.663   5.274
65198W        W37546  38.865  29.918  14.778
65199W        W37547   4.248  30.601  12.517
65200W        W37548  23.226  42.990  10.904
65201W        W37549  16.130  14.698  10.022
65202W        W37550  33.578  43.911   0.958
65203W        W37551  12.121  37.460   4.724
65204W        W37552  24.075   7.717  12.087
65205W        W37553  43.296  24.022   3.723
65206W        W37554  22.688  33.417   1.876
65207W        W37555  25.149   8.297   0.475
65208W        W37556  34.083  34.484   5.595
65209W        W37557  18.708  19.568   4.687
65210W        W37558  42.396  32.006   3.691
65211W        W37559  30.113  40.373  14.796
65212W        W37560  40.400  19.704   3.267
65213W        W37561  41.301  22.175   1.219
65214W        W37562  26.614  11.209  10.455
65215W        W37563  23.672   0.897   1.778
65216W        W37564  33.501  33.593   1.847
65217W        W37565  15.772  42.912   2.719
65218W        W37566  16.723  14.783   0.802
65219W        W37567  33.624  34.407  11.498
65220W        W37568  22.020  15.741  12.563
65221W        W37569  42.985  24.098  11.992
65222W        W37570  28.649  41.895  10.909
65223W        W37571  27.999  14.633   2.693
65224W        W37572  37.399   4.906  12.368
65225W        W37573  31.989  35.401  13.500
65226W        W37574   6.865  39.444  13.894
65227W        W37575  34.517  32.958  13.835
65228W        W37576   9.786  22.115   4.254
65229W        W37577  43.339   9.666  13.039
65230W        W37578  44.843   8.235  12.043
65231W        W37579  18.173   0.384  10.588
65232W        W37580  27.940  11.167  11.120
65233W        W37581   4.886  11.777  12.936
65234W        W37582   4.448  34.878   2.801
65235W        W37583  10.375  10.139  13.972
65236W        W37584  26.183   2.295  13.874
65237W        W37585   4.231  30.138  11.872
65238W        W37586  26.586  23.141  14.919
65239W        W37587  12.718  10.765   0.398
65240W        W37588   0.946  22.227  13.844
65241W        W37589  11.230   6.216   0.827
65242W        W37590   4.323   1.929  10.915
65243W        W37591  44.898  12.137  14.318
65244W        W37592  43.357  22.188  13.899
65245W        W37593  34.028  26.508  11.425
65246W        W37594  34.944  37.958   0.467
65247W        W37595  11.847   1.246  11.392
65248W        W37596  22.192   5.200  11.857
65249W        W37597  35.521  37.974  13.844
65250W        W37598  34.938  21.574   0.912
65251W        W37599   5.821  13.204   3.734
65252W        W37600   2.858  40.008   4.829
65253W        W37601   0.755  20.110   3.319
65254W        W37602  34.000   4.233  14.905
65255W        W37603  11.313  26.025   4.611
65256W        W37604   7.746  36.510   0.363
65257W        W37605  19.680  34.895   0.415
65258W        W37606  14.755  36.037   5.280
65259W        W37607  38.507  32.549  11.521
65260W        W37608  15.215  44.483   1.224
65261W        W37609  17.209  17.645  11.896
65262W        W37610  13.711  11.748  14.434
65263W        W37611   7.207   3.419  14.846
65264W        W37612   4.906  24.105  11.448
65265W        W37613  24.184  33.486  11.595
65266W        W37614  25.100  32.424   1.727
65267W        W37615  14.304  16.173   3.244
65268W        W37616  21.162  16.628  13.818
65269W        W37617  43.381  33.973   3.182
65270W        W37618  30.969   7.758   2.703
65271W        W37619  28.078  35.979  10.930
65272W        W37620   4.712  37.433  13.804
65273W        W37621   0.478  15.228   3.186
65274W        W37622  11.740  37.433  13.862
65275W        W37623  30.648  16.751   0.463
65276W        W37624  39.011  24.514   3.664
65277W        W37625  30.496   5.198  11.581
65278W        W37626  20.030  11.167   1.348
65279W        W37627  27.663  31.050  14.965
65280W        W37628  26.066  34.389  10.938
65281W        W37629  43.271  35.514   0.269
65282W        W37630  39.888  21.745  13.795
65283W        W37631  33.063  35.574  10.427
65284W        W37632  12.275   0.765   1.396
65285W        W37633  42.472  35.376  11.093
65286W        W37634  19.098  22.525  14.013
65287W        W37635   9.885   7.773   3.192
65288W        W37636  18.076  14.203  11.594
65289W        W37637   4.806  37.461  13.445
65290W        W37638  20.145  27.153  11.543
65291W        W37639  14.113   9.218  11.930
65292W        W37640  21.581  25.626  11.016
65293W        W37641  23.606  43.455  13.912
65294W        W37642  12.836  14.220   2.356
65295W        W37643  24.682  41.956   0.246
65296W        W37644  33.550  14.206   4.695
65297W        W37645   4.775  30.146  10.934
65298W        W37646   0.965  17.094  11.887
65299W        W37647  13.110  40.818   2.771
65300W        W37648   5.754  15.602   1.424
65301W        W37649  37.943  24.522   1.320
65302W        W37650   8.364   1.964  11.444
65303W        W37651   2.760  37.419  12.449
65304W        W37652  26.650  43.346   4.156
65305W        W37653  37.906  23.717  14.514
65306W        W37654  18.109  25.475  12.922
65307W        W37655  25.538  20.724   3.844
65308W        W37656  40.423  17.082   0.948
65309W        W37657   6.738  19.185   1.302
65310W        W37658   8.248  39.538   4.258
65311W        W37659  29.942  41.982   3.816
65312W        W37660  15.262  26.202   2.188
65313W        W37661  33.555  22.158   4.699
65314W        W37662  37.949  25.074   4.246
65315W        W37663  43.343  19.098  13.439
65316W        W37664  10.308  41.829   3.870
65317W        W37665  33.584   7.204   5.214
65318W        W37666  13.243  30.934  12.867
65319W        W37667   6.306  42.883   5.241
65320W        W37668  34.395  11.281   1.375
65321W        W37669   1.421   9.241  13.930
65322W        W37670  35.362  10.714   1.425
65323W        W37671  33.424  14.199  14.357
65324W        W37672  26.495  23.634  13.897
65325W        W37673  10.296  28.676  10.418
65326W        W37674  44.306  31.417  11.906
65327W        W37675  19.085  33.940  14.320
65328W        W37676  14.244  22.655   2.722
65329W        W37677  28.049   3.227  10.907
65330W        W37678  40.886  15.637  11.071
65331W        W37679  22.186  38.963   0.961
65332W        W37680  39.508  13.311   1.766
65333W        W37681   1.445  40.428  10.606
65334W        W37682  38.068   3.320  14.819
65335W        W37683   1.472  42.460   3.164
65336W        W37684  33.515  44.337  11.976
65337W        W37685  35.461  23.993   1.447
65338W        W37686   3.752  16.617   2.226
65339W        W37687   5.409  31.986   9.926
65340W        W37688   5.753   9.807   1.818
65341W        W37689  19.229  14.097  12.478
65342W        W37690  39.992   2.351  10.568
65343W        W37691   2.794  41.368   2.748
65344W        W37692  35.537   1.285  11.540
65345W        W37693  20.592  11.849  13.041
65346W        W37694  33.398   7.407   4.611
65347W        W37695  15.637  31.556   0.332
65348W        W37696  12.732  23.018   1.322
65349W        W37697  31.131  12.183   3.377
65350W        W37698  36.848  26.076   4.300
65351W        W37699   9.364  18.714   4.680
65352W        W37700   8.406  17.228   1.851
65353W        W37701  21.173  22.644  14.867
65354W        W37702  44.841  35.091  14.988
65355W        W37703  34.938  28.044  11.486
65356W        W37704   9.362   6.317  12.480
65357W        W37705   7.849  38.962   1.849
65358W        W37706   5.748  43.831  14.500
65359W        W37707  13.616  42.817  13.962
65360W        W37708  16.124   4.878   3.817
65361W        W37709   7.323  32.115   1.343
65362W        W37710  44.459   6.289  13.420
65363W        W37711   7.329  16.264  14.758
65364W        W37712  22.108   0.315   4.651
65365W        W37713   4.341  10.680   2.820
65366W        W37714  43.372  27.481  10.522
65367W        W37715   3.856  25.700   0.314
65368W        W37716  12.316  11.212   0.732
65369W        W37717  15.135  13.234   3.182
65370W        W37718  17.241  37.492  10.590
65371W        W37719  43.471  22.067   0.941
65372W        W37720   7.896  36.431  14.468
65373W        W37721  43.987  37.434   3.211
65374W        W37722   2.365   8.779  13.432
65375W        W37723  17.619  26.651  12.387
65376W        W37724  15.795  15.321  10.134
65377W        W37725   3.318  29.485   0.415
65378W        W37726  38.386  44.403   2.324
65379W        W37727  36.383   6.906   0.427
65380W        W37728  16.221  40.463   2.851
65381W        W37729  20.191  10.382  10.529
65382W        W37730  19.662  18.230   2.697
65383W        W37731  21.237  31.600  13.930
65384W        W37732  41.819  38.925  10.521
65385W        W37733   0.862   8.859   3.373
65386W        W37734  18.060  13.782  14.505
65387W        W37735  39.904  10.288  10.598
65388W        W37736  41.520  38.401   1.353
65389W        W37737  10.371  11.801   1.325
65390W        W37738  12.177  20.702   3.645
65391W        W37739   0.845  20.616  10.520
65392W        W37740  37.398  35.427  13.919
65393W        W37741  32.433  20.090  12.955
65394W        W37742  21.624  29.485   0.798
65395W        W37743  31.055  38.504   4.743
65396W        W37744  30.008  37.478  10.624
65397W        W37745  38.558   1.305  14.812
65398W        W37746  20.764  33.024  10.450
65399W        W37747  37.371  18.773   1.313
65400W        W37748  44.939  18.270  13.028
65401W        W37749  43.282   2.346  10.602
65402W        W37750  35.030  44.815   2.323
65403W        W37751   0.869   4.713  11.855
65404W        W37752  24.544  37.900   3.688
65405W        W37753  27.169   2.787  11.971
65406W        W37754  30.490  14.675  14.479
65407W        W37755  40.926  20.176  13.869
65408W        W37756  25.173  33.927   3.250
65409W        W37757  22.631  23.525  12.542
65410W        W37758  34.448  18.587  11.480
65411W        W37759  44.352   2.334  12.535
65412W        W37760  29.174  29.659   1.400
65413W        W37761   2.829  33.576   1.724
65414W        W37762  44.259   1.267   4.702
65415W        W37763  38.892  14.287   4.599
65416W        W37764   9.693   5.221  12.430
65417W        W37765  11.162  20.085  14.340
65418W        W37766  18.201  26.565   1.296
65419W        W37767  33.487  30.564   2.858
65420W        W37768  18.138   8.752   3.257
65421W        W37769  29.032  32.010  11.024
65422W        W37770  13.617  21.093   0.425
65423W        W37771  22.555   4.847  12.547
65424W        W37772  40.471  25.022   1.848
65425W        W37773  13.706   6.411   2.325
65426W        W37774  44.914  37.564   0.414
65427W        W37775  13.283  38.438   3.684
65428W        W37776  16.742   5.432  11.068
65429W        W37777   7.912  15.746   3.222
65430W        W37778   5.865  18.569  11.970
65431W        W37779  22.680  43.445  11.891
65432W        W37780  21.133   9.184  14.812
65433W        W37781  16.189  14.679  12.525
65434W        W37782  30.075   5.702  13.983
65435W        W37783  11.337  31.487   4.349
65436W        W37784  35.029  39.345   4.341
65437W        W37785  37.053  15.617  10.463
65438W        W37786  24.537  27.492  13.485
65439W        W37787  40.036   3.954  10.514
65440W        W37788  30.011   3.711  13.962
65441W        W37789  28.467   3.851  12.016
65442W        W37790  37.548  26.488  14.362
65443W        W37791   0.427  41.431  13.837
65444W        W37792   0.457  30.462   1.236
65445W        W37793  14.718  22.167   0.787
65446W        W37794  18.242  24.123   0.345
65447W        W37795   5.852   7.687  14.401
65448W        W37796  26.601  11.246   0.384
65449W        W37797  34.103  36.942   0.878
65450W        W37798  23.017  17.245   0.454
65451W        W37799  27.103   5.328  13.487
65452W        W37800  14.132   7.372   1.431
65453W        W37801   3.408  23.509   2.354
65454W        W37802  11.128   8.684   3.150
65455W        W37803  13.193  28.183   0.799
65456W        W37804  38.900  26.550   2.714
65457W        W37805  15.260  33.009   3.682
65458W        W37806   6.288  41.372  14.316
65459W        W37807  31.555  32.567  12.460
65460W        W37808  36.980  20.628   0.439
65461W        W37809  42.286  21.539  11.898
65462W        W37810  35.488   9.659  11.431
65463W        W37811  35.443  33.517   3.851
65464W        W37812   7.874  35.064   0.272
65465W        W37813  42.957   8.834  13.815
65466W        W37814  18.079  10.338  14.893
65467W        W37815  44.931  25.671   3.828
65468W        W37816   9.697  33.956   4.754
65469W        W37817  20.064  29.167   0.748
65470W        W37818   6.886  23.202  14.961
65471W        W37819   0.889  18.084  13.973
65472W        W37820  43.792  35.910  14.882
65473W        W37821  16.211   0.394  13.829
65474W        W37822  22.582  23.109   3.361
65475W        W37823  34.866  18.177   3.237
65476W        W37824  10.262  40.967  14.366
65477W        W37825  20.574  19.543   1.290
65478W        W37826  17.638  14.148  14.468
65479W        W37827  35.518  35.101   0.816
65480W        W37828  21.563   4.336   0.784
65481W        W37829  22.042  24.177  12.086
65482W        W37830  44.263  15.200  14.447
65483W        W37831  20.570   0.489  14.013
65484W        W37832   2.257   4.226  12.929
65485W        W37833  17.654  31.983   4.800
65486W        W37834  24.055  39.829   2.238
65487W        W37835  12.119   6.361   4.267
65488W        W37836  33.933  18.734  14.486
65489W        W37837  33.995  41.836   1.928
65490W        W37838  23.233  28.501   1.834
65491W        W37839  43.283  40.383  11.562
65492W        W37840  28.490  42.448  12.414
65493W        W37841   6.378  17.630  10.999
65494W        W37842   1.750  30.612  14.436
65495W        W37843  13.641  42.961   0.351
65496W        W37844  32.448  14.760  11.931
65497W        W37845  33.005  42.378   4.139
65498W        W37846   6.783  32.090   2.810
65499W        W37847  37.337  30.608   2.359
65500W        W37848  40.381  15.790  12.418
65501W        W37849  25.487  37.009  11.560
65502W        W37850  44.868  36.024   2.338
65503W        W37851  19.664   7.821  11.124
65504W        W37852   8.782  15.720  14.998
65505W        W37853  27.561   1.850  13.030
65506W        W37854  44.418  41.318   4.633
65507W        W37855  43.372  19.705  12.457
65508W        W37856  33.994  15.795   3.382
65509W        W37857  18.263  23.538   3.784
65510W        W37858  42.317  27.066   2.232
65511W        W37859  43.392  31.516  12.976
65512W        W37860  30.914  22.067   2.876
65513W        W37861  42.419  10.700  11.495
65514W        W37862  27.663  14.332   3.792
65515W        W37863  30.091  31.127   3.227
65516W        W37864  36.043  18.262   4.230
65517W        W37865  40.472  27.520  14.766
65518W        W37866  39.380  35.404  12.886
65519W        W37867  19.596  21.619  14.905
65520W        W37868  26.491  43.482  10.530
65521W        W37869  29.080  19.257  12.461
65522W        W37870  40.862  19.618  10.502
65523W        W37871  38.494   8.227   2.199
65524W        W37872   8.801  15.237   3.638
65525W        W37873   6.875   0.376   2.330
65526W        W37874  21.249  21.228  14.802
65527W        W37875  31.592  13.152   4.236
65528W        W37876  44.933  11.758   4.682
65529W        W37877  27.499   3.303  14.806
65530W        W37878  12.264  25.556  14.467
65531W        W37879  15.282  19.690   4.160
65532W        W37880  20.079  26.205   4.694
65533W        W37881  35.557  28.595  12.401
65534W        W37882  33.053  40.504  13.858
65535W        W37883  13.765   4.293  10.503
65536W        W37884  26.964  10.226   2.381
65537W        W37885  28.564  23.044   0.751
65538W        W37886  29.546  29.000   3.669
65539W        W37887   1.408   8.747   0.800
65540W        W37888  22.511  18.687  14.381
65541W        W37889  32.906   0.966  11.063
65542W        W37890  27.534  20.116   3.147
65543W        W37891  14.671  43.895   2.741
65544W        W37892  27.132  36.580  14.867
65545W        W37893  28.166   5.774   1.928
65546W        W37894  40.355  14.659  11.072
65547W        W37895  11.689   2.913  13.378
65548W        W37896  43.432  32.502  14.305
65549W        W37897  31.506  31.149   3.742
65550W        W37898  20.731  32.597   0.815
65551W        W37899   2.285   3.882  13.506
65552W        W37900  30.487  25.021  13.438
65553W        W37901  29.946  34.935   0.268
65554W        W37902  30.016  14.634   1.806
65555W        W37903  13.832  36.469   0.819
65556W        W37904  11.293  26.547  11.536
65557W        W37905  26.490  16.786  13.810
65558W        W37906  43.418   6.376   3.220
65559W        W37907  31.957  14.189  14.302
65560W        W37908  20.232  13.723  12.392
65561W        W37909  44.976  39.951   4.333
65562W        W37910   6.916   3.828   1.430
65563W        W37911  16.316  43.884  14.301
65564W        W37912   6.736  27.462   2.298
65565W        W37913  33.482   4.781   2.195
65566W        W37914   2.286  16.203  10.412
65567W        W37915  32.973  28.528   0.735
65568W        W37916  35.551   8.654   0.466
65569W        W37917  33.000   0.794   1.890
65570W        W37918  43.846   9.238  14.760
65571W        W37919  22.677  30.988  12.049
65572W        W37920  22.676  26.626  11.955
65573W        W37921  32.636  12.749   3.815
65574W        W37922  18.632  19.728  14.026
65575W        W37923   3.818  28.627  12.915
65576W        W37924   5.849   6.238   4.632
65577W        W37925  11.251  22.515   2.388
65578W        W37926  21.649  24.195   1.815
65579W        W37927  12.185  24.512   3.279
65580W        W37928  16.189  36.984   2.332
65581W        W37929  26.959   7.402   4.690
65582W        W37930  11.346  36.019   4.625
65583W        W37931  34.863  21.040  12.075
65584W        W37932  39.027  30.977  10.419
65585W        W37933   5.317  35.953   2.188
65586W        W37934   7.860  19.761  10.551
65587W        W37935  38.832  24.072   1.399
65588W        W37936  37.009  31.613  12.506
65589W        W37937   1.757  14.233   4.202
65590W        W37938  38.961  31.545  10.954
65591W        W37939  23.222  19.148  10.449
65592W        W37940  29.523  13.181  12.916
65593W        W37941  12.270  17.229   2.729
65594W        W37942  30.972  36.373  14.299
65595W        W37943  23.130  30.638  14.368
65596W        W37944  39.470   6.397  10.988
65597W        W37945  20.622  44.432  14.453
65598W        W37946   8.753   2.755  11.372
65599W        W37947  43.823  35.096  13.480
65600W        W37948  44.927  22.671   1.867
65601W        W37949  25.974  38.985   0.845
65602W        W37950  33.509   3.721   4.304
65603W        W37951  37.848  23.575   3.367
65604W        W37952   9.317  25.642   4.774
65605W        W37953   5.386  40.829   0.343
65606W        W37954  31.613   5.334  13.423
65607W        W37955   7.256  19.578  12.976
65608W        W37956  42.380  17.578   1.920
65609W        W37957  25.093  25.141  12.494
65610W        W37958  27.457  22.214   3.350
65611W        W37959  23.218  11.712  10.893
65612W        W37960  34.953  27.189   4.835
65613W        W37961  29.967   8.706  12.394
65614W        W37962  24.646  24.603  14.383
65615W        W37963  33.540  14.767  13.035
65616W        W37964  33.544  22.612   0.419
65617W        W37965   6.382  16.802  14.825
65618W        W37966  37.339  27.040   1.394
65619W        W37967   0.281  22.204  14.025
65620W        W37968   8.177  11.655  10.601
65621W        W37969  19.244  43.982  13.995
65622W        W37970  34.101   7.300  10.133
65623W        W37971   9.819  16.741  14.891
65624W        W37972   0.332  12.127  13.360
65625W        W37973  23.170  35.022   0.416
65626W        W37974  42.792   9.296  13.347
65627W        W37975  27.506  30.608  10.411
65628W        W37976  12.286  31.951   0.337
65629W        W37977  29.069  15.246  13.906
65630W        W37978  40.509  15.751  10.488
65631W        W37979  30.461  34.434  13.480
65632W        W37980  36.961  25.613  13.404
65633W        W37981   0.818  39.952  14.502
65634W        W37982  22.138  15.296  14.315
65635W        W37983  32.420  12.189  12.897
65636W        W37984  15.615  30.608   3.707
65637W        W37985  16.608  10.216  14.966
65638W        W37986  20.580  28.170   0.363
65639W        W37987   1.884   3.264  14.486
65640W        W37988  42.426  30.965   0.321
65641W        W37989  35.094  20.079  10.914
65642W        W37990  26.607  24.705  12.382
65643W        W37991  32.084   8.898   0.390
65644W        W37992  39.886  19.573   1.736
65645W        W37993  37.456   1.744  14.360
65646W        W37994  32.446  28.930   2.348
65647W        W37995  13.351  18.276  10.434
65648W        W37996  15.633  38.015  13.910
65649W        W37997   2.459  43.020  12.932
65650W        W37998  10.696  15.133  12.489
65651W        W37999  20.203   2.291  11.985
65652W        W38000  36.491  20.642   1.843
65653W        W38001  30.617  31.922  13.879
65654W        W38002  24.167  34.457   2.855
65655W        W38003  17.789  33.064  12.505
65656W        W38004  16.286  20.041  12.547
65657W        W38005   8.780   0.331  10.580
65658W        W38006  34.938  17.638   1.339
65659W        W38007  43.802  43.499  11.008
65660W        W38008  42.002  22.182  13.361
65661W        W38009  27.522   4.774   0.948
65662W        W38010  27.032  31.601   0.942
65663W        W38011   4.729  18.130   1.364
65664W        W38012  37.059  15.092   3.687
65665W        W38013  14.727  20.597  11.447
65666W        W38014  42.796   7.274   3.182
65667W        W38015  42.978  27.030  12.436
65668W        W38016   6.897  30.654  10.138
65669W        W38017  16.713  16.756  12.362
65670W        W38018  32.918  17.753  13.314
65671W        W38019  14.161   8.700  11.437
65672W        W38020  13.190   9.172   1.745
65673W        W38021  16.159  30.476   1.913
65674W        W38022   7.745   6.724  14.791
65675W        W38023  35.105   4.906  14.932
65676W        W38024  12.121  44.986  13.348
65677W        W38025  29.143   5.321   2.367
65678W        W38026  16.198  38.870  13.996
65679W        W38027   4.722  27.957  12.343
65680W        W38028   4.217  26.576  12.945
65681W        W38029  40.539  40.359   1.696
65682W        W38030  38.950  37.840   5.121
65683W        W38031  23.496  26.209  12.364
65684W        W38032   4.267  38.949   0.305
65685W        W38033  40.829  35.428  13.820
65686W        W38034   3.845  41.956   0.811
65687W        W38035  13.604  28.159  11.430
65688W        W38036   9.748  11.775  14.514
65689W        W38037   7.266  35.448  12.900
65690W        W38038  23.140  38.342   4.347
65691W        W38039  24.067  11.722  13.528
65692W        W38040   1.270  44.935   4.348
65693W        W38041  13.314  10.636  14.448
65694W        W38042  15.684   8.305   0.448
65695W        W38043  12.309  34.508   3.798
65696W        W38044  16.577   4.759  12.924
65697W        W38045  33.070  27.467  14.023
65698W        W38046  40.914  36.884   0.349
65699W        W38047   8.387  30.075   5.664
65700W        W38048  20.689   3.884   0.315
65701W        W38049  39.375  22.560   0.480
65702W        W38050   8.385  41.997   2.768
65703W        W38051  19.752   9.327  13.945
65704W        W38052  24.181  32.001   9.937
65705W        W38053  37.887  44.278   1.427
65706W        W38054  12.692   6.855  14.824
65707W        W38055  34.469  37.417  11.497
65708W        W38056  42.425  32.427  11.866
65709W        W38057  33.042   7.319  11.419
65710W        W38058  35.380  41.818   4.821
65711W        W38059   0.336  37.422  11.482
65712W        W38060  25.171  43.440   1.412
65713W        W38061  41.816  13.773   1.369
65714W        W38062   7.249  14.107   1.786
65715W        W38063   3.747  42.780   4.313
65716W        W38064  18.622  17.756  14.389
65717W        W38065  40.528   0.493  12.932
65718W        W38066  36.997  37.535  13.521
65719W        W38067  17.750   7.839   0.945
65720W        W38068  22.202  39.937  13.993
65721W        W38069   0.951  12.682   1.436
65722W        W38070  14.099  18.568  13.397
65723W        W38071  20.569  37.411  13.918
65724W        W38072  10.666  22.204   3.636
65725W        W38073  27.947  17.304  12.429
65726W        W38074  24.123   4.861  12.396
65727W        W38075   5.291  38.335  14.315
65728W        W38076  26.156  43.862  12.869
65729W        W38077  42.443  43.925  11.897
65730W        W38078   3.431  27.581   1.378
65731W        W38079   3.848  32.132  11.904
65732W        W38080  15.660   2.443   2.774
65733W        W38081   3.433  28.586   0.812
65734W        W38082  33.876  14.595  14.394
65735W        W38083  23.149  37.984  12.466
65736W        W38084  24.724  44.373  10.491
65737W        W38085  39.885  24.111  10.888
65738W        W38086   5.853  12.691  12.562
65739W        W38087  18.588  20.545   1.260
65740W        W38088   0.295  37.513  14.780
65741W        W38089  31.945   1.737  12.378
65742W        W38090   2.324  42.288  10.620
65743W        W38091  10.329  43.279   0.773
65744W        W38092   2.813  44.482  14.421
65745W        W38093  42.010  34.412   3.752
65746W        W38094  43.476  15.226  11.460
65747W        W38095  15.123  29.936  10.952
65748W        W38096  21.564  42.820   0.788
65749W        W38097  18.678  40.020   2.213
65750W        W38098  43.431  26.495   3.717
65751W        W38099   6.877  17.119   3.734
65752W        W38100  29.125  18.629  13.927
65753W        W38101   4.781  42.785   3.671
65754W        W38102  25.191  14.097  11.396
65755W        W38103  36.394   6.849   2.199
65756W        W38104  20.191  14.624   1.294
65757W        W38105  15.745  11.771   4.345
65758W        W38106  40.425  17.698  12.093
65759W        W38107  20.665  16.711  11.118
65760W        W38108  44.758  22.070   3.870
65761W        W38109  28.558   8.244  11.901
65762W        W38110  12.322  37.376   2.722
65763W        W38111   3.305   0.842  14.962
65764W        W38112  26.661  25.143   3.859
65765W        W38113  19.276   3.760  12.903
65766W        W38114  26.160  28.675  12.440
65767W        W38115  30.459  16.240  11.034
65768W        W38116  42.951  28.487   0.744
65769W        W38117  18.638  26.050  11.409
65770W        W38118   5.729  10.772   2.861
65771W        W38119  18.683  21.593  14.480
65772W        W38120  15.084  33.594  11.089
65773W        W38121  22.012  29.031  14.417
65774W        W38122  11.235  25.707   0.744
65775W        W38123  18.555  13.840   3.758
65776W        W38124   8.724   0.755  14.003
65777W        W38125  33.574  28.175  10.503
65778W        W38126  41.456   7.314  11.560
65779W        W38127  20.706  28.930  13.983
65780W        W38128  43.376  11.681  13.817
65781W        W38129  14.714  29.468  10.447
65782W        W38130   9.242  38.446   0.394
65783W        W38131   3.793  21.019  12.445
65784W        W38132  26.669  29.660   2.711
65785W        W38133  23.018  39.336  14.329
65786W        W38134  22.662   7.732  11.976
65787W        W38135  44.290  15.742  10.916
65788W        W38136   7.186  38.444   2.215
65789W        W38137  32.135  17.204  13.524
65790W        W38138   8.181  38.021   1.751
65791W        W38139  19.727  38.921  12.844
65792W        W38140  10.679  19.556   1.774
65793W        W38141  12.673  27.534  12.490
65794W        W38142   6.922  43.500  13.974
65795W        W38143  38.469  25.104  11.555
65796W        W38144  10.689  33.121   2.298
65797W        W38145  10.668  36.921   1.813
65798W        W38146  21.221  27.626  13.979
65799W        W38147  40.990   9.685  11.590
65800W        W38148  35.482  34.429  14.011
65801W        W38149  26.981  10.723   1.347
65802W        W38150   9.338  10.290  14.356
65803W        W38151  35.084  16.611  11.488
65804W        W38152  23.723  22.555   3.671
65805W        W38153  17.595  14.736  14.361
65806W        W38154  30.433  23.502  13.439
65807W        W38155  42.475  34.916  14.316
65808W        W38156  39.420  37.564  11.446
65809W        W38157  43.295  40.047   4.352
65810W        W38158   5.304  18.786  12.035
65811W        W38159   4.766  25.491  13.028
65812W        W38160  10.723   4.397   0.847
65813W        W38161   5.807  12.310  11.997
65814W        W38162   9.317  11.189  14.424
65815W        W38163   0.384  43.835   2.267
65816W        W38164  41.794  36.862  11.975
65817W        W38165  22.156  10.314  13.526
65818W        W38166  20.148  41.356   1.795
65819W        W38167  37.078  42.358   0.936
65820W        W38168  37.967  11.813  13.410
65821W        W38169  22.075  27.984   1.801
65822W        W38170   8.778  32.507  14.777
65823W        W38171   3.912  35.497  14.899
65824W        W38172  28.527  27.585  14.316
65825W        W38173  40.489  14.293   1.782
65826W        W38174  42.952  23.113   3.773
65827W        W38175  28.158  32.089  11.897
65828W        W38176  23.068  10.808  14.028
65829W        W38177  16.672  30.035   4.264
65830W        W38178  28.449   0.458   2.883
65831W        W38179   4.785  40.028  13.862
65832W        W38180  19.055  20.667   2.325
65833W        W38181   0.925  24.694  12.861
65834W        W38182  34.935  12.777   1.810
65835W        W38183  21.714  42.461  12.023
65836W        W38184  22.111  23.029   2.755
65837W        W38185  37.854  42.936   1.815
65838W        W38186  15.729  37.520  10.957
65839W        W38187  31.037  13.743   1.797
65840W        W38188  25.552  20.055   2.840
65841W        W38189  40.545  44.967  11.419
65842W        W38190  23.066  29.484   3.858
65843W        W38191  38.898   6.228   4.735
65844W        W38192   1.293  16.748  15.000
65845W        W38193  37.073  22.052  14.762
65846W        W38194  29.083  30.103   2.669
65847W        W38195  10.747  31.109  12.020
65848W        W38196   4.314   0.493   1.716
65849W        W38197  42.004  24.135  13.923
65850W        W38198   5.264  41.510   2.240
65851W        W38199   1.246   1.796  12.570
65852W        W38200  15.094  33.955  14.360
65853W        W38201  22.620  20.732   1.794
65854W        W38202   4.365  22.068   4.682
65855W        W38203  22.547   5.243   2.201
65856W        W38204   4.368  12.338  14.408
65857W        W38205  11.327  10.825  12.855
65858W        W38206   6.921  29.461   1.328
65859W        W38207  26.197  44.909   2.409
65860W        W38208  10.807  38.478   2.273
65861W        W38209  26.573  43.951  11.016
65862W        W38210  41.292   0.761  10.593
65863W        W38211   9.780  33.492   3.358
65864W        W38212  37.388   4.328   3.378
65865W        W38213   5.194  30.431  14.869
65866W        W38214  20.174  20.577  13.955
65867W        W38215  20.707  22.171  13.049
65868W        W38216   9.883   6.189   3.335
65869W        W38217  35.456   8.262   4.263
65870W        W38218  27.003  12.828  13.981
65871W        W38219  43.847  15.172   4.835
65872W        W38220  35.988  18.057   4.619
65873W        W38221  10.827  28.054  11.576
65874W        W38222  31.092  18.635   3.312
65875W        W38223   9.668  22.567  14.385
65876W        W38224  38.966  29.476   4.350
65877W        W38225   6.349   9.823  11.077
65878W        W38226  39.814  28.497   0.919
65879W        W38227  10.735  32.984   4.191
65880W        W38228  41.918  31.585   1.878
65881W        W38229  11.198  17.712  13.046
65882W        W38230  12.783   5.739   2.819
65883W        W38231   9.722  17.204  13.051
65884W        W38232   0.949   6.194  11.049
65885W        W38233   0.828   5.388  13.392
65886W        W38234   7.847   8.777   4.691
65887W        W38235  25.013   2.915  12.453
65888W        W38236  44.980   9.248  10.559
65889W        W38237  31.029  12.837   4.349
65890W        W38238  25.470  19.094  14.387
65891W        W38239  21.190  17.170  14.836
65892W        W38240  29.500  29.133  13.794
65893W        W38241  25.646  20.127   1.763
65894W        W38242  29.492  27.998  13.968
65895W        W38243   5.337   6.240   0.477
65896W        W38244  44.469   8.765   9.963
65897W        W38245  22.133   2.246  14.343
65898W        W38246  31.513  42.779  11.496
65899W        W38247   0.894  24.110   5.204
65900W        W38248  18.187  33.875  11.996
65901W        W38249  31.482  25.084  13.914
65902W        W38250  38.383   0.469  10.422
65903W        W38251  22.160  28.643  13.813
65904W        W38252  23.570  16.188  13.952
65905W        W38253  27.025   0.466   4.198
65906W        W38254   3.395   2.346  11.440
65907W        W38255  29.163  19.751   0.826
65908W        W38256  24.004  38.850   4.715
65909W        W38257  17.767  12.185  10.544
65910W        W38258  26.459   9.223  12.891
65911W        W38259  12.675  15.707  13.923
65912W        W38260  43.378   9.221  12.564
65913W        W38261  22.107   8.796  10.943
65914W        W38262   3.295  12.160   3.643
65915W        W38263  43.296   2.257   1.360
65916W        W38264  35.004  10.780  11.499
65917W        W38265  28.480   6.398   0.891
65918W        W38266   7.801  44.324  11.104
65919W        W38267  18.621  36.577   0.766
65920W        W38268  14.204  38.549  13.978
65921W        W38269   2.810  39.955  12.492
65922W        W38270  13.112  30.124  14.848
65923W        W38271  11.281  23.699   4.304
65924W        W38272  19.577  18.111  11.930
65925W        W38273  35.516  19.722  10.529
65926W        W38274  23.690   3.718   0.289
65927W        W38275  42.455  12.348   0.357
65928W        W38276  18.655  17.118  12.417
65929W        W38277  22.205   9.260  12.475
65930W        W38278  41.805  26.078  12.540
65931W        W38279  16.782  34.899  10.895
65932W        W38280  44.313  28.554   0.938
65933W        W38281   6.409  24.570  14.953
65934W        W38282   1.890  32.127  11.951
65935W        W38283  14.217  19.547   1.748
65936W        W38284  38.946  31.535   3.704
65937W        W38285  27.980  44.326   4.672
65938W        W38286   3.767  12.341   0.379
65939W        W38287  29.166  23.068   2.272
65940W        W38288  15.706  12.161  12.059
65941W        W38289  33.129  10.276   0.394
65942W        W38290  21.190  12.131   2.398
65943W        W38291   4.234   6.287   1.916
65944W        W38292  38.907  15.271   3.311
65945W        W38293  20.731   3.354  13.962
65946W        W38294  12.731  11.177  13.357
65947W        W38295   4.776  38.438  10.903
65948W        W38296  38.362   4.866  12.411
65949W        W38297  39.435  15.798  14.451
65950W        W38298  22.042  43.926   4.836
65951W        W38299  15.774  10.376  13.361
65952W        W38300  42.916  27.459   4.121
65953W        W38301  27.680   7.825  12.006
65954W        W38302  18.082  34.947  12.369
65955W        W38303  44.830  20.221   1.235
65956W        W38304  28.994  39.010   3.837
65957W        W38305  21.542  13.114  13.930
65958W        W38306   3.783  17.078  12.950
65959W        W38307   6.820  12.657   1.841
65960W        W38308  35.084  35.930  11.486
65961W        W38309   5.724  14.791   4.623
65962W        W38310  10.152  44.406  14.775
65963W        W38311  14.280  12.626   2.218
65964W        W38312   1.447  44.953   3.354
65965W        W38313  33.615  29.128  11.918
65966W        W38314   6.706  26.153   2.376
65967W        W38315   6.333   1.849  12.989
65968W        W38316  33.917  42.871   0.871
65969W        W38317  30.516  11.745   3.788
65970W        W38318  20.580  28.636  10.602
65971W        W38319  16.567  42.316  10.462
65972W        W38320  39.894   0.907   2.381
65973W        W38321  15.270  17.723   3.815
65974W        W38322  16.600  30.005  13.858
65975W        W38323  26.955  27.498  12.960
65976W        W38324   8.706  29.143  13.542
65977W        W38325  41.354  39.855  10.548
65978W        W38326  13.303  37.425   2.247
65979W        W38327  38.962  16.615   4.745
65980W        W38328  40.495  30.595   1.409
65981W        W38329  39.863  21.089  10.491
65982W        W38330   0.471  13.725   3.787
65983W        W38331  44.493  43.293   2.841
65984W        W38332  26.028  35.954   0.732
65985W        W38333   7.741  25.559  12.541
65986W        W38334   2.903  11.150  11.994
65987W        W38335  10.718   0.910  14.904
65988W        W38336  14.833   6.258  12.556
65989W        W38337  12.700   5.823   1.317
65990W        W38338  25.679  31.471  14.785
65991W        W38339  31.526  44.771   3.631
65992W        W38340  12.718  31.945   4.817
65993W        W38341   0.970  33.965   1.756
65994W        W38342  18.769  44.932  14.378
65995W        W38343   3.762  23.697  12.950
65996W        W38344  25.029  42.383  13.996
65997W        W38345   8.691  20.640   5.272
65998W        W38346  21.532   2.377   2.362
65999W        W38347   0.746  43.826  12.557
66000W        W38348  37.863  21.682   2.218
66001W        W38349  12.734  15.265   3.359
66002W        W38350  22.717   0.961   1.363
66003W        W38351   5.320  35.421  10.439
66004W        W38352  35.454  44.491  11.058
66005W        W38353  31.107  19.716  10.009
66006W        W38354  38.518  20.657  13.528
66007W        W38355  28.138   4.333  10.116
66008W        W38356  21.255  44.424   1.247
66009W        W38357  25.126  43.510   2.359
66010W        W38358  33.951   0.956   4.267
66011W        W38359  38.943  12.671  12.058
66012W        W38360   5.257  31.074   0.399
66013W        W38361   5.209  15.665   3.715
66014W        W38362   6.251  11.213   2.746
66015W        W38363  17.736   5.204  13.952
66016W        W38364   1.382   6.340   4.798
66017W        W38365  19.611  35.435   4.259
66018W        W38366  17.182  30.450  14.823
66019W        W38367   2.344   1.775   4.192
66020W        W38368   8.736  42.782  10.593
66021W        W38369   1.749   8.687   3.336
66022W        W38370  24.481   0.286   0.324
66023W        W38371   9.280  16.615  13.444
66024W        W38372  29.978  27.993   2.259
66025W        W38373  42.836  37.350  11.445
66026W        W38374  44.820  15.190   1.725
66027W        W38375  13.764  34.101   1.890
66028W        W38376  11.225  17.101  10.424
66029W        W38377   8.316  15.116  11.906
66030W        W38378  11.815  17.658  12.340
66031W        W38379  33.406   4.265  14.472
66032W        W38380  40.461  25.503   0.388
66033W        W38381  13.348  29.612   2.405
66034W        W38382   1.944  25.675  14.784
66035W        W38383  18.094  22.214   3.184
66036W        W38384  11.193  35.462   4.198
66037W        W38385  40.870  17.193   2.795
66038W        W38386   8.364  35.536  13.418
66039W        W38387  23.711   8.673   1.423
66040W        W38388  39.018  13.114  14.384
66041W        W38389  26.108  22.623  10.942
66042W        W38390  24.681  27.024  11.439
66043W        W38391  43.879  42.024  12.865
66044W        W38392  20.272  42.894  14.762
66045W        W38393  44.306   6.813  14.397
66046W        W38394  10.764  38.498   4.603
66047W        W38395  15.733  10.155   4.803
66048W        W38396  19.665  34.077   2.381
66049W        W38397   6.367  12.774   0.471
66050W        W38398  38.380   8.684  14.946
66051W        W38399  43.512  21.024  11.992
66052W        W38400  32.086  18.782   3.666
66053W        W38401  17.584  21.032   1.825
66054W        W38402  40.026   9.257  13.972
66055W        W38403  14.218   9.779  11.881
66056W        W38404  42.342  37.472  11.465
66057W        W38405  36.568  27.533   1.913
66058W        W38406  13.302  34.452  13.981
66059W        W38407   0.430  15.774   3.818
66060W        W38408  18.148   9.695  10.422
66061W        W38409  35.370  41.357   1.438
66062W        W38410  26.458  38.332   4.771
66063W        W38411  18.261   6.378  11.507
66064W        W38412  28.081   2.377  11.120
66065W        W38413  21.741  18.621  12.367
66066W        W38414  23.562  33.991   1.772
66067W        W38415  14.117  31.966   5.282
66068W        W38416  44.802  27.489   3.170
66069W        W38417   9.672  37.881   0.456
66070W        W38418  32.634  19.194   2.754
66071W        W38419  21.237  39.411  14.472
66072W        W38420  27.157  19.730  13.950
66073W        W38421   3.912  15.139   1.239
66074W        W38422  27.060  32.610  13.382
66075W        W38423   3.734  35.561  12.853
66076W        W38424   4.703  22.241  14.808
66077W        W38425  42.404  15.773  14.414
66078W        W38426  42.899  20.538   1.876
66079W        W38427   8.258  34.907  11.059
66080W        W38428  34.078  19.724  13.982
66081W        W38429  42.364  22.502   3.147
66082W        W38430  11.833  18.684   4.226
66083W        W38431  40.979  28.518   1.873
66084W        W38432  28.662  32.530   3.811
66085W        W38433  11.370  20.031  14.967
66086W        W38434   9.802  11.838  11.569
66087W        W38435  24.718  22.652   1.333
66088W        W38436  44.435  16.295   1.919
66089W        W38437  33.120  29.125  11.479
66090W        W38438  24.107  28.674  12.848
66091W        W38439  11.868  41.916   1.705
66092W        W38440  38.887  22.233  13.926
66093W        W38441  34.520   9.369  13.923
66094W        W38442  16.712  44.793   3.696
66095W        W38443   3.731   8.828  12.557
66096W        W38444   8.760  17.633   0.872
66097W        W38445  33.452  40.895   4.180
66098W        W38446  10.201  30.582  11.935
66099W        W38447  18.758   9.362  13.954
66100W        W38448   9.685   0.893  14.419
66101W        W38449   6.287  41.786  10.930
66102W        W38450  26.081  20.622  13.490
66103W        W38451   2.769  15.179  10.427
66104W        W38452  24.692  15.625   3.800
66105W        W38453  22.634  40.372   1.441
66106W        W38454  16.105  29.018  11.487
66107W        W38455  20.604  29.011   9.643
66108W        W38456  43.315  33.962   2.186
66109W        W38457  43.392  17.801  13.995
66110W        W38458  39.315   5.415  13.912
66111W        W38459  11.703   3.716  10.621
66112W        W38460  20.210  11.355   3.169
66113W        W38461  15.250  27.178   4.262
66114W        W38462  37.444  22.137   0.378
66115W        W38463   6.408  30.614   4.232
66116W        W38464  15.700  23.007   0.921
66117W        W38465  22.076  18.635  14.794
66118W        W38466   0.470  41.807  11.513
66119W        W38467  12.221  11.301  11.372
66120W        W38468  35.102   2.763  12.928
66121W        W38469  26.125   9.277   4.258
66122W        W38470   5.709  13.812   3.163
66123W        W38471  13.632  18.086   0.838
66124W        W38472  38.339   2.879  11.054
66125W        W38473  43.970  22.123   0.811
66126W        W38474  20.241  20.761   0.742
66127W        W38475  23.213  36.553   4.744
66128W        W38476  33.124   6.212  11.609
66129W        W38477   6.748   4.891  13.971
66130W        W38478  13.218  36.074  13.820
66131W        W38479  23.577  18.271   2.324
66132W        W38480   8.190  28.952  11.426
66133W        W38481  41.860  42.980  11.078
66134W        W38482  30.451   5.760  14.420
66135W        W38483  17.180  17.170   4.818
66136W        W38484   7.734  26.545  10.586
66137W        W38485  14.149   2.746  13.830
66138W        W38486  35.852  43.958  11.976
66139W        W38487  12.309  28.003   2.757
66140W        W38488  38.472  30.645  11.550
66141W        W38489  44.505   1.755  14.286
66142W        W38490   8.820  28.552  13.527
66143W        W38491   7.839  21.602  11.927
66144W        W38492  23.208   1.388  11.523
66145W        W38493  37.545  34.074  14.830
66146W        W38494  20.167  41.377  11.072
66147W        W38495  17.245  37.343  13.005
66148W        W38496  11.232  23.625   1.352
66149W        W38497   0.410  38.954   2.900
66150W        W38498  17.594  18.281   1.222
66151W        W38499  28.021  16.225   4.701
66152W        W38500   5.694  22.587   3.267
66153W        W38501   4.330  12.334  14.941
66154W        W38502  34.410  38.015   0.776
66155W        W38503   3.424  14.705   0.452
66156W        W38504  39.837  41.319   1.355
66157W        W38505  15.787   1.796   9.934
66158W        W38506   8.347  32.089  11.117
66159W        W38507   0.292  36.073   1.823
66160W        W38508  38.495   5.344  10.539
66161W        W38509  12.301   9.185  14.353
66162W        W38510  26.050   9.812  11.947
66163W        W38511  35.596  42.367  10.529
66164W        W38512  32.422  43.814   1.932
66165W        W38513  30.949   9.271   1.366
66166W        W38514  44.299  29.947   1.318
66167W        W38515  25.698  34.975  13.944
66168W        W38516  33.543  31.569  11.506
66169W        W38517   1.433  26.601   0.745
66170W        W38518  30.108  18.050   4.808
66171W        W38519  12.832  15.315  12.985
66172W        W38520  24.019  41.838  12.526
66173W        W38521  44.997  37.936   3.173
66174W        W38522   3.246   4.438  12.476
66175W        W38523  32.925  29.126   1.835
66176W        W38524  44.356   1.849   0.850
66177W        W38525   0.465  30.025  12.093
66178W        W38526  25.185   6.870  11.576
66179W        W38527   2.907  41.487  13.888
66180W        W38528   7.817   0.424  12.398
66181W        W38529   1.761  17.092   4.135
66182W        W38530   3.955   8.226   0.815
66183W        W38531   0.852  13.184   1.286
66184W        W38532  23.614   3.782   2.763
66185W        W38533  34.459  39.421   0.316
66186W        W38534   7.860  20.064   2.898
66187W        W38535  29.495  40.441   0.736
66188W        W38536  14.617   1.796   0.946
66189W        W38537  36.031   8.374  10.558
66190W        W38538  33.056  41.317   4.674
66191W        W38539  22.573  23.667  11.934
66192W        W38540  15.630  33.570   2.304
66193W        W38541   3.895   9.343   2.413
66194W        W38542   1.364   8.900  10.893
66195W        W38543  44.836  24.601   3.683
66196W        W38544  41.375   4.427   2.883
66197W        W38545  39.369  28.051   4.700
66198W        W38546   3.407  21.738   3.325
66199W        W38547  19.765  21.153   1.824
66200W        W38548  12.348  25.055  14.291
66201W        W38549  31.041  14.307  13.357
66202W        W38550   8.866  30.495  12.010
66203W        W38551  40.328   8.347   0.426
66204W        W38552  43.794  19.639  13.849
66205W        W38553  18.147  22.020  12.382
66206W        W38554  16.164  13.764   3.180
66207W        W38555  20.626  34.555  13.940
66208W        W38556  42.891   3.226   0.767
66209W        W38557  33.945   4.291   0.408
66210W        W38558   1.874  30.599   0.466
66211W        W38559  41.473   0.824   0.439
66212W        W38560  38.484  23.615   2.213
66213W        W38561  29.171  12.780  13.507
66214W        W38562  37.885   0.775  14.405
66215W        W38563  27.150  26.630   2.346
66216W        W38564   1.923   4.733  12.431
66217W        W38565   4.234  18.069   1.214
66218W        W38566   8.826  21.757   3.809
66219W        W38567  39.887  31.512  14.885
66220W        W38568  42.365  29.500   4.675
66221W        W38569  29.120  16.092   3.749
66222W        W38570  14.702  26.635   1.413
66223W        W38571   2.362  32.564   2.352
66224W        W38572  33.897  33.464  12.981
66225W        W38573  17.127  28.580   0.370
66226W        W38574  29.001  37.970   3.748
66227W        W38575  20.177   9.347   2.373
66228W        W38576  25.112  27.093   1.366
66229W        W38577  10.812   7.763   2.263
66230W        W38578  43.916  31.917   0.402
66231W        W38579  11.261  34.936  14.891
66232W        W38580  35.992  12.801  12.900
66233W        W38581  22.176  44.890   0.405
66234W        W38582  13.621  39.865   4.334
66235W        W38583  13.829  33.398  14.770
66236W        W38584  21.741  31.565   5.285
66237W        W38585  15.238  24.722   3.694
66238W        W38586   8.854   8.893   1.338
66239W        W38587  14.253  44.355  10.643
66240W        W38588   8.264  31.996   4.745
66241W        W38589  42.507  41.976  12.450
66242W        W38590  24.222  19.205  14.012
66243W        W38591  42.332  38.855   1.438
66244W        W38592  21.604  18.106   1.894
66245W        W38593  31.028  12.617   2.880
66246W        W38594  36.439   2.734   3.370
66247W        W38595   5.772  10.295  11.099
66248W        W38596   0.272  15.792  11.580
66249W        W38597  24.682  43.016  12.383
66250W        W38598  18.790  31.113  14.018
66251W        W38599  26.475   9.384   5.295
66252W        W38600  41.786  18.634  11.456
66253W        W38601  26.485  10.832  11.466
66254W        W38602  20.149   1.407  14.494
66255W        W38603  43.377  38.465  11.456
66256W        W38604   5.883  24.200   2.321
66257W        W38605   0.879  35.537   1.880
66258W        W38606  24.213  16.135   0.360
66259W        W38607  16.702  18.548   1.429
66260W        W38608  12.688  35.390  10.530
66261W        W38609  32.130  16.114  11.972
66262W        W38610  37.549  25.166   3.331
66263W        W38611  23.645  15.268  11.944
66264W        W38612   6.902   9.341   2.805
66265W        W38613  33.903  24.117   2.178
66266W        W38614   4.313  14.692  10.428
66267W        W38615  35.373  42.334  14.299
66268W        W38616  28.476  27.567   2.189
66269W        W38617  36.981  27.461  12.402
66270W        W38618  24.720  24.553   1.876
66271W        W38619   6.267  12.753   2.882
66272W        W38620  29.637  20.206   1.894
66273W        W38621  36.946  16.751   1.384
66274W        W38622  15.168  39.421  12.350
66275W        W38623  13.272  15.221   1.224
66276W        W38624  14.781   7.879  12.543
66277W        W38625   8.298   9.695  11.913
66278W        W38626  29.108  42.392   1.819
66279W        W38627   5.355  13.681  10.549
66280W        W38628  16.273  18.689  13.971
66281W        W38629  14.705   4.859   3.244
66282W        W38630  27.963  43.817   3.661
66283W        W38631   6.893  33.453   3.741
66284W        W38632  18.567  32.971  12.860
66285W        W38633  30.635  26.122   3.179
66286W        W38634   4.357  10.227   5.092
66287W        W38635   8.229  12.259  14.013
66288W        W38636   0.846  11.660  13.322
66289W        W38637  37.913  33.520  10.576
66290W        W38638  29.958  25.669  10.464
66291W        W38639  43.463  40.473   3.349
66292W        W38640  30.957   0.442  12.415
66293W        W38641  25.568   0.445  14.804
66294W        W38642  24.086  15.223  11.430
66295W        W38643  29.591  23.599   5.310
66296W        W38644   1.935  40.307   1.401
66297W        W38645   1.920  38.854   1.334
66298W        W38646  16.622  33.897  10.956
66299W        W38647  33.452  40.822  11.066
66300W        W38648  29.082  15.607   5.116
66301W        W38649   8.365   9.364   0.465
66302W        W38650  41.005  23.139  14.372
66303W        W38651  43.292   6.264  12.398
66304W        W38652   8.822  14.701   2.829
66305W        W38653  21.025   2.804  13.374
66306W        W38654  13.106   0.462  12.053
66307W        W38655  23.504  32.948  13.970
66308W        W38656  34.052  39.045  11.419
66309W        W38657  27.962   2.824  11.899
66310W        W38658   0.270   1.446   0.341
66311W        W38659   4.716   7.341   1.903
66312W        W38660  34.489  12.725  10.959
66313W        W38661  28.143  36.378  14.981
66314W        W38662   4.824  18.200   4.661
66315W        W38663  27.012  17.798  14.512
66316W        W38664  20.241  11.298  11.591
66317W        W38665  43.421  17.776  13.329
66318W        W38666  44.297   3.223  13.852
66319W        W38667   7.910   9.247   1.262
66320W        W38668  16.699  32.993   3.190
66321W        W38669   9.757  21.639   9.968
66322W        W38670  38.903  13.121  12.362
66323W        W38671  20.662   3.749   3.725
66324W        W38672   5.791  16.788   2.315
66325W        W38673   6.885  32.984   1.903
66326W        W38674  27.636   9.682  13.500
66327W        W38675   8.183  11.283  11.046
66328W        W38676  44.804   6.787   2.270
66329W        W38677  27.188   1.345   0.939
66330W        W38678  40.917  10.812   1.855
66331W        W38679  15.189  10.204   4.239
66332W        W38680  37.067   3.914   0.260
66333W        W38681  42.013  42.942   1.903
66334W        W38682  11.181   5.857  14.315
66335W        W38683  16.671  24.529   0.756
66336W        W38684   2.260  27.542  13.483
66337W        W38685  39.474  34.889  14.020
66338W        W38686  30.116  16.257   1.397
66339W        W38687  35.900   1.312   4.751
66340W        W38688  35.401  37.555  14.309
66341W        W38689  25.219  43.821  11.994
66342W        W38690  23.529  20.561  13.466
66343W        W38691  34.070  42.984  11.548
66344W        W38692  40.395  24.134  10.893
66345W        W38693  20.689   4.214  12.996
66346W        W38694  29.493  18.636  12.088
66347W        W38695   8.841  20.162   2.858
66348W        W38696  30.438  27.546   1.431
66349W        W38697  19.704  16.607   4.775
66350W        W38698  32.093  27.959  13.021
66351W        W38699  13.651   7.254  10.987
66352W        W38700  21.033  20.099  10.557
66353W        W38701  23.999  15.647  10.003
66354W        W38702  30.089   2.255  11.392
66355W        W38703  23.661  40.383  11.004
66356W        W38704   3.796  44.491   4.161
66357W        W38705  43.821  17.790   4.114
66358W        W38706  12.718  22.152   1.442
66359W        W38707  41.914  39.945   0.835
66360W        W38708  17.156   7.315   0.943
66361W        W38709  10.841  22.542   0.775
66362W        W38710   8.854  34.516  13.036
66363W        W38711  28.088  11.347   1.801
66364W        W38712  25.601  28.600   2.258
66365W        W38713   2.405   1.844   2.383
66366W        W38714   3.896  40.913   0.299
66367W        W38715   9.207  42.908  11.930
66368W        W38716  23.050   5.829  12.045
66369W        W38717  44.855  24.190   0.389
66370W        W38718  38.457   5.312  10.937
66371W        W38719  34.396   9.819  11.384
66372W        W38720   7.684  10.248  14.444
66373W        W38721  10.238   5.835  13.975
66374W        W38722  29.046  24.493   0.767
66375W        W38723   7.843  36.045   1.732
66376W        W38724  28.661  33.994   1.361
66377W        W38725  36.499  22.196   2.804
66378W        W38726  29.581  35.070   3.667
66379W        W38727  14.258   5.231   4.183
66380W        W38728  44.371  41.355   4.334
66381W        W38729  30.620  11.231   0.770
66382W        W38730  21.688  35.506   0.371
66383W        W38731  40.991   9.319  10.549
66384W        W38732   9.231  33.921  12.377
66385W        W38733  34.481  24.187   1.433
66386W        W38734  28.443  39.468  13.548
66387W        W38735   0.812   2.357  14.440
66388W        W38736   9.305  14.314  11.938
66389W        W38737  17.199  28.134  12.459
66390W        W38738   2.282  35.552   0.348
66391W        W38739   3.732  34.427  12.882
66392W        W38740  26.672  10.334  11.937
66393W        W38741  15.231  33.058  12.893
66394W        W38742  15.241  30.965   4.692
66395W        W38743  44.817  39.864  13.347
66396W        W38744   7.303  11.751   4.318
66397W        W38745  40.313  18.283   0.925
66398W        W38746  17.110  24.198  11.855
66399W        W38747  32.529  18.594   2.386
66400W        W38748  27.108  41.406   0.952
66401W        W38749  39.817  42.026   0.933
66402W        W38750  37.895  42.022   0.838
66403W        W38751  13.131  40.812   0.358
66404W        W38752  20.717  13.637  11.064
66405W        W38753  20.731  43.418  12.016
66406W        W38754  25.974   9.154   1.925
66407W        W38755   8.317  44.331  12.434
66408W        W38756   2.381  15.151  10.439
66409W        W38757  24.678  44.466  13.878
66410W        W38758   4.911  34.511   0.801
66411W        W38759  10.830  41.812   2.366
66412W        W38760   6.828  11.859  11.517
66413W        W38761  24.600  14.716  11.508
66414W        W38762  31.014  36.549   1.734
66415W        W38763   3.710  42.981   0.783
66416W        W38764  39.940  22.528  13.839
66417W        W38765  38.947   7.770  12.368
66418W        W38766   4.934   7.817   3.217
66419W        W38767  25.146  40.000  11.560
66420W        W38768  13.223  36.895   3.806
66421W        W38769  15.083  26.500   3.696
66422W        W38770  15.728   1.868   0.293
66423W        W38771  10.313  31.646   1.236
66424W        W38772   7.774  25.512  12.871
66425W        W38773  33.916  33.488  13.446
66426W        W38774  31.090  10.244  13.442
66427W        W38775  30.416  34.970   3.212
66428W        W38776  14.202   9.268   1.892
66429W        W38777  40.339   7.254  14.815
66430W        W38778  19.229  27.996   3.811
66431W        W38779  26.962  39.418  14.875
66432W        W38780  12.297  43.882   4.331
66433W        W38781   7.174  24.169   0.399
66434W        W38782  34.575   0.959  10.961
66435W        W38783   5.929  29.563   3.676
66436W        W38784  26.543  41.328   1.742
66437W        W38785  11.740  25.180   5.215
66438W        W38786  41.024  32.581  14.382
66439W        W38787  26.062   5.739   0.754
66440W        W38788  44.908   9.358   2.763
66441W        W38789  36.025   7.891   4.751
66442W        W38790  26.958  39.444   4.600
66443W        W38791  16.295   8.843  13.441
66444W        W38792  24.707  31.554  12.342
66445W        W38793  12.318  18.745   4.661
66446W        W38794   3.330   1.868   0.439
66447W        W38795   4.239   2.924   2.841
66448W        W38796  40.416  19.729  12.012
66449W        W38797  40.303   2.288  12.018
66450W        W38798  16.150  16.176   4.839
66451W        W38799  35.555  39.370  14.894
66452W        W38800   0.329  39.314   3.318
66453W        W38801  12.723  34.582  12.082
66454W        W38802  40.863  15.721  14.366
66455W        W38803  27.539  42.843   1.244
66456W        W38804  19.237  34.498   3.177
66457W        W38805  20.758  22.535   0.284
66458W        W38806   1.758  33.528  11.117
66459W        W38807  32.912  15.732   1.440
66460W        W38808  10.188  31.577  14.309
66461W        W38809   8.815   9.882   0.330
66462W        W38810  25.630  44.408  12.823
66463W        W38811  30.059  11.218   3.286
66464W        W38812  27.534   8.673   2.779
66465W        W38813   0.392  27.604  10.963
66466W        W38814  10.298  36.453  11.469
66467W        W38815  35.394  43.900   3.714
66468W        W38816  20.573  25.648  11.524
66469W        W38817  26.153  23.681   1.270
66470W        W38818  19.633  34.112   1.799
66471W        W38819   7.307   4.838  10.905
66472W        W38820  23.216  30.043   3.757
66473W        W38821   2.798   1.348   3.336
66474W        W38822  23.200  16.186  11.081
66475W        W38823  10.761   3.309  12.950
66476W        W38824  10.166  30.059   1.252
66477W        W38825  11.351  21.153   4.124
66478W        W38826  28.148  31.039  11.428
66479W        W38827  31.100  13.740   3.665
66480W        W38828  23.085  33.550   1.868
66481W        W38829  26.587  15.282  11.594
66482W        W38830  11.344   6.297  11.606
66483W        W38831   7.774  35.018   4.811
66484W        W38832  33.030  41.514  10.552
66485W        W38833  25.128  19.623   2.819
66486W        W38834   7.713  11.201   4.838
66487W        W38835   4.302  31.944  11.095
66488W        W38836  39.344  34.009  13.408
66489W        W38837  41.395  15.608   0.451
66490W        W38838  12.131  39.425  12.879
66491W        W38839  31.132  30.473   2.720
66492W        W38840  34.970  21.155   2.815
66493W        W38841   2.240   7.291   0.287
66494W        W38842  26.519  32.095  10.450
66495W        W38843   9.853  33.509  11.921
66496W        W38844  30.955   7.730   0.780
66497W        W38845  22.040  13.760   1.848
66498W        W38846   1.890  43.846   1.282
66499W        W38847  30.096  37.981  13.452
66500W        W38848  26.072   0.406  12.831
66501W        W38849  19.166  40.036   0.461
66502W        W38850  33.398  32.955  13.381
66503W        W38851  17.105  37.975   2.715
66504W        W38852   6.346  38.921   5.175
66505W        W38853  29.020  27.011   1.725
66506W        W38854  30.589  24.501   1.401
66507W        W38855  27.604  32.485   3.813
66508W        W38856  21.742  24.141  13.926
66509W        W38857   2.318  23.690   5.292
66510W        W38858  31.642  12.218   2.715
66511W        W38859  13.784  26.027   4.306
66512W        W38860  41.903   1.472   3.373
66513W        W38861  31.054  28.180   2.823
66514W        W38862  32.096   1.372  14.939
66515W        W38863  25.211  35.038  11.867
66516W        W38864   8.895  35.083   0.355
66517W        W38865  42.850  31.036  12.340
66518W        W38866   9.664   2.818   4.714
66519W        W38867  24.208  27.100  11.997
66520W        W38868  36.389  30.624  14.002
66521W        W38869  22.506  38.968  11.895
66522W        W38870  34.494   7.303   2.846
66523W        W38871  32.908  16.602   4.806
66524W        W38872   4.815  21.593   1.908
66525W        W38873   9.658   2.919   2.674
66526W        W38874  44.939   1.277  14.280
66527W        W38875  38.890   1.422   4.813
66528W        W38876  34.547  13.824  13.036
66529W        W38877  36.882  26.472   2.342
66530W        W38878  30.020   0.967   4.691
66531W        W38879  34.507  14.727   4.125
66532W        W38880  36.953  24.711  13.419
66533W        W38881   7.810   7.245  11.064
66534W        W38882  43.979   0.850  13.546
66535W        W38883  14.187  30.001  13.390
66536W        W38884  19.069  22.557  11.949
66537W        W38885  35.524  28.440   1.862
66538W        W38886   7.272   1.951   0.847
66539W        W38887  20.760  21.687   0.757
66540W        W38888  42.779  40.012  12.092
66541W        W38889  36.412  37.928  12.992
66542W        W38890   0.467  43.470   0.951
66543W        W38891   4.295  28.939   1.917
66544W        W38892  23.588  31.914   4.227
66545W        W38893  15.192  10.740   0.455
66546W        W38894  24.179  12.347   0.284
66547W        W38895  13.698   5.338   2.721
66548W        W38896  39.843  15.295  14.887
66549W        W38897  23.128  30.588  10.909
66550W        W38898  20.272  26.189  13.409
66551W        W38899   9.681  30.118  11.908
66552W        W38900  17.247  21.749   4.608
66553W        W38901   9.663  31.464   4.262
66554W        W38902  34.581   6.250   3.345
66555W        W38903   1.312  42.514   1.355
66556W        W38904  14.117  44.463  14.374
66557W        W38905  25.206  22.670  10.474
66558W        W38906  44.793  35.417   4.821
66559W        W38907  13.810  38.344  10.441
66560W        W38908  37.429   3.796   0.773
66561W        W38909  41.337  14.116  11.948
66562W        W38910  31.420   1.355   2.202
66563W        W38911  19.060  31.480  10.487
66564W        W38912  29.482  19.197   1.701
66565W        W38913   4.398  19.153   0.938
66566W        W38914  37.516  11.843   2.797
66567W        W38915   3.440  19.252   3.153
66568W        W38916  26.606  19.697  10.927
66569W        W38917  14.202  42.967   5.086
66570W        W38918  24.090  15.210   2.867
66571W        W38919  25.569  28.549   1.806
66572W        W38920  27.036  24.484  14.973
66573W        W38921  38.055  32.908  11.020
66574W        W38922   1.913  22.123   3.734
66575W        W38923  26.119   5.259  13.526
66576W        W38924  39.977  42.903  14.493
66577W        W38925  24.089   5.917  13.940
66578W        W38926  27.470  36.429   3.226
66579W        W38927  30.110  43.920   0.482
66580W        W38928  13.268  34.919   3.160
66581W        W38929  43.965   3.932   2.839
66582W        W38930  29.072  23.548   3.219
66583W        W38931  28.616  31.902   3.346
66584W        W38932  39.010  38.983  13.847
66585W        W38933  42.433   1.916  10.419
66586W        W38934  15.818   7.270  12.512
66587W        W38935  11.719  29.166  12.518
66588W        W38936  37.999   7.268  12.985
66589W        W38937  38.558   4.826  12.899
66590W        W38938   5.272  35.426  14.449
66591W        W38939  42.945  26.499   2.749
66592W        W38940  38.931  18.221   1.254
66593W        W38941  10.703  24.070  10.539
66594W        W38942  32.925  14.624  12.823
66595W        W38943   2.307  28.102  10.916
66596W        W38944  42.453  34.368   4.261
66597W        W38945  26.122  22.069   1.288
66598W        W38946  35.501   8.401  14.303
66599W        W38947  13.677  38.550   2.844
66600W        W38948  24.480  35.508  14.489
66601W        W38949  35.031  15.775  12.900
66602W        W38950  20.137  25.139  10.421
66603W        W38951  35.893  13.342   4.191
66604W        W38952  38.902   3.367  13.811
66605W        W38953  38.067  40.412  12.841
66606W        W38954  40.369  20.556  14.418
66607W        W38955  22.027  39.825   0.310
66608W        W38956  31.611  32.601   4.625
66609W        W38957   3.854  13.201   4.233
66610W        W38958  30.488  36.591   4.148
66611W        W38959   1.845  10.777   4.173
66612W        W38960  41.837  38.349  10.967
66613W        W38961  37.054  24.645   0.903
66614W        W38962  11.827  15.145  12.529
66615W        W38963  18.065  40.324   3.376
66616W        W38964  21.161  31.626  12.092
66617W        W38965  26.018  44.929  11.480
66618W        W38966   5.923  20.271  12.469
66619W        W38967  34.933  36.401   2.386
66620W        W38968  41.860  11.687  11.504
66621W        W38969  22.576  11.623   1.369
66622W        W38970  38.381   8.826   3.385
66623W        W38971   8.724   0.367   3.245
66624W        W38972  31.072  32.997   2.270
66625W        W38973  37.853  20.169   2.777
66626W        W38974  20.220   7.217   2.338
66627W        W38975  16.104  23.224   2.377
66628W        W38976  17.730  22.172  11.064
66629W        W38977   0.281  26.457  11.919
66630W        W38978   8.826  10.374   1.825
66631W        W38979   0.391  22.655  11.611
66632W        W38980  25.701  26.989  11.445
66633W        W38981  39.837  31.611   0.479
66634W        W38982  43.866  33.019  10.593
66635W        W38983  25.512  11.222   3.703
66636W        W38984  15.123  26.153   0.895
66637W        W38985  12.332  40.417   3.311
66638W        W38986  31.605   5.918   0.949
66639W        W38987   1.396  16.604  13.528
66640W        W38988  41.870   6.212  14.791
66641W        W38989   5.850   1.411  13.413
66642W        W38990  13.727  14.807   1.798
66643W        W38991  32.995  42.993  12.866
66644W        W38992  11.231  25.708   1.442
66645W        W38993  33.556  23.017  13.457
66646W        W38994  34.972  15.762   0.890
66647W        W38995  27.181  32.476   1.247
66648W        W38996   9.322   0.343   1.790
66649W        W38997  21.075  39.417   2.321
66650W        W38998  40.364  22.009  14.887
66651W        W38999   8.674  39.445  14.821
66652W        W39000  35.870  39.914  10.923
66653W        W39001  16.595  42.809   0.420
66654W        W39002  10.727  33.415   4.323
66655W        W39003  19.162  36.503   3.245
66656W        W39004  28.996  30.933   1.803
66657W        W39005  43.460  32.904   1.885
66658W        W39006  30.608   7.248  10.041
66659W        W39007  19.184  16.702   0.960
66660W        W39008  41.792  29.485   3.711
66661W        W39009  39.464   3.728  12.405
66662W        W39010  17.063  25.016   0.858
66663W        W39011  43.474  13.748   4.639
66664W        W39012  15.617  38.858   2.195
66665W        W39013  41.828  35.907  10.978
66666W        W39014   3.866  23.736   0.443
66667W        W39015  29.474  32.887  11.466
66668W        W39016  18.702  29.120   3.806
66669W        W39017  44.308  17.146  12.348
66670W        W39018  15.745  25.073  11.530
66671W        W39019   3.416  10.200  10.529
66672W        W39020  37.017  22.621   2.295
66673W        W39021  13.811  37.395  12.906
66674W        W39022   5.802  30.484   0.927
66675W        W39023  31.535   3.842  14.323
66676W        W39024  16.661  17.132  11.034
66677W        W39025   6.715   7.700  14.881
66678W        W39026  29.495  15.622   0.374
66679W        W39027  17.139  18.268   4.680
66680W        W39028  28.956   6.320   3.240
66681W        W39029  16.711  34.439  10.966
66682W        W39030  39.972   4.359  11.487
66683W        W39031   8.712  27.514   3.327
66684W        W39032  24.186  38.563   2.751
66685W        W39033  16.761  12.727   4.304
66686W        W39034  44.500  36.903  13.492
66687W        W39035  31.612  21.039   3.683
66688W        W39036  34.096   4.814   0.778
66689W        W39037  14.187  17.587  14.994
66690W        W39038  32.116   4.902  14.826
66691W        W39039   7.788  35.060   5.229
66692W        W39040   7.227  37.346  11.561
66693W        W39041  41.536  10.716  12.955
66694W        W39042  15.271  31.557   2.672
66695W        W39043  14.602   5.876  12.042
66696W        W39044  34.002  12.260  12.087
66697W        W39045   2.854   6.373  14.416
66698W        W39046  43.941   5.726  14.958
66699W        W39047  33.554  41.448  13.828
66700W        W39048  33.113  28.574  13.063
66701W        W39049  35.877  31.028   4.656
66702W        W39050  38.512  24.121  14.379
66703W        W39051  30.574  37.407  13.913
66704W        W39052  11.363  37.385  10.408
66705W        W39053   4.285  36.379   0.305
66706W        W39054  31.145   2.746  12.463
66707W        W39055  15.298  19.557   3.292
66708W        W39056  36.483  14.784   2.405
66709W        W39057  15.171  19.271  14.001
66710W        W39058  24.479   4.315   3.682
66711W        W39059  33.062  11.207  12.955
66712W        W39060   8.390  31.154   0.301
66713W        W39061  35.900  28.934  11.392
66714W        W39062  16.251   4.772  11.520
66715W        W39063   0.901  35.554  10.985
66716W        W39064  30.093   6.369  13.817
66717W        W39065  28.633  13.778   2.417
66718W        W39066   4.884  41.508   5.320
66719W        W39067  24.628  10.384  13.489
66720W        W39068   1.288  38.064   3.798
66721W        W39069  35.944  36.874  11.038
66722W        W39070  13.277  34.869   3.840
66723W        W39071   2.259  16.773   3.768
66724W        W39072  38.388  40.380   4.821
66725W        W39073  21.105  22.611   0.464
66726W        W39074  23.542  24.660  10.611
66727W        W39075  34.906  25.684   1.404
66728W        W39076  42.465  33.894   1.257
66729W        W39077   7.807   3.361  12.456
66730W        W39078  43.272  22.646  12.384
66731W        W39079  37.072  33.879  14.477
66732W        W39080  23.021   8.894   2.858
66733W        W39081  33.505  13.190  11.115
66734W        W39082  42.984   1.885  14.776
66735W        W39083  17.702  20.095   3.755
66736W        W39084  40.871  23.505  14.885
66737W        W39085  14.680  24.625  14.508
66738W        W39086  38.003   9.299  14.015
66739W        W39087  20.056  18.161   1.268
66740W        W39088  43.985  16.597   2.801
66741W        W39089  31.052   5.247   1.288
66742W        W39090  25.202   9.239  10.598
66743W        W39091   9.779   1.241   1.307
66744W        W39092  16.767   4.441   2.188
66745W        W39093  13.240  23.041  14.487
66746W        W39094  30.136   6.906  11.034
66747W        W39095  13.127  27.602  12.501
66748W        W39096   5.275   3.913  12.503
66749W        W39097  20.177  38.930   2.711
66750W        W39098  42.999  44.918  12.900
66751W        W39099  31.526  38.038   1.241
66752W        W39100  31.546  42.476  14.294
66753W        W39101  41.973  10.182   0.952
66754W        W39102  44.847  15.608  11.868
66755W        W39103  29.499  13.732   4.187
66756W        W39104   1.911   1.766   1.759
66757W        W39105  36.040   1.406   0.964
66758W        W39106   6.873  29.638  13.397
66759W        W39107  30.587  36.358   0.386
66760W        W39108  22.705  23.666  11.508
66761W        W39109  22.230   1.772  14.922
66762W        W39110   0.297  44.446   1.435
66763W        W39111  24.592  11.213   3.346
66764W        W39112  33.438   7.205   1.312
66765W        W39113   4.422  26.032   0.752
66766W        W39114  14.740  43.361  11.081
66767W        W39115  37.454  26.956   2.358
66768W        W39116   5.198  10.652   1.929
66769W        W39117  13.130  29.002  13.998
66770W        W39118  27.975  39.397  10.528
66771W        W39119  36.573  36.843  10.575
66772W        W39120  37.997  14.704  13.914
66773W        W39121  41.336   9.769  12.532
66774W        W39122  31.042  13.190   0.353
66775W        W39123  26.636  30.930  14.510
66776W        W39124  11.629  39.541   3.684
66777W        W39125  32.410  27.030   1.909
66778W        W39126  21.560  26.074  13.427
66779W        W39127  26.106  37.345  14.847
66780W        W39128  25.159  28.992   3.146
66781W        W39129  12.803  13.146  12.077
66782W        W39130  43.331  40.506   1.873
66783W        W39131  20.655  17.174   1.752
66784W        W39132  31.960   9.224   2.669
66785W        W39133  37.358  15.106   3.787
66786W        W39134   9.360  14.126   5.284
66787W        W39135  38.356  30.110  14.506
66788W        W39136   2.410   7.675   1.351
66789W        W39137   6.247  29.638  13.838
66790W        W39138  15.750  25.150  10.103
66791W        W39139  30.108   9.800   2.399
66792W        W39140   8.195  24.682   2.308
66793W        W39141  27.103  31.521  11.933
66794W        W39142  31.917  34.034   0.829
66795W        W39143  30.134  23.100   4.256
66796W        W39144  41.528  31.135  11.049
66797W        W39145  34.089   1.759   2.765
66798W        W39146  40.987  16.773   2.677
66799W        W39147  18.149  36.384   1.883
66800W        W39148   5.692  33.419  13.939
66801W        W39149  29.015  37.524  14.286
66802W        W39150   0.285  22.209  14.848
66803W        W39151  14.308   4.797   2.788
66804W        W39152  24.209  25.984   2.195
66805W        W39153  36.855  11.198  12.533
66806W        W39154  31.033   0.441  11.992
66807W        W39155  10.873  37.373   1.736
66808W        W39156  18.136  42.354  14.834
66809W        W39157  24.628  19.736  12.351
66810W        W39158   1.448   1.288  13.387
66811W        W39159  20.086   1.458   0.475
66812W        W39160   7.713  17.161   3.707
66813W        W39161   9.841  18.583  11.064
66814W        W39162   0.808  20.101  12.421
66815W        W39163   1.365  39.023   4.667
66816W        W39164  42.474  24.179  14.355
66817W        W39165  29.469  34.458   1.346
66818W        W39166  33.616  27.511  13.912
66819W        W39167   9.265  31.917   1.332
66820W        W39168   4.732  23.604  13.893
66821W        W39169  32.575  15.760   3.360
66822W        W39170  15.745  17.180   4.829
66823W        W39171  32.632  27.516  13.467
66824W        W39172  43.304  34.031   2.797
66825W        W39173  38.480  14.705  12.531
66826W        W39174  22.636   4.359  14.460
66827W        W39175  32.475   9.815   0.964
66828W        W39176  42.430  20.056  11.573
66829W        W39177  32.551   8.251   9.475
66830W        W39178  42.838  30.093  12.863
66831W        W39179  38.431  29.137  11.885
66832W        W39180  15.324   6.752  11.530
66833W        W39181  39.962   1.877   3.788
66834W        W39182  42.427  39.333   2.854
66835W        W39183  24.175  36.997  13.506
66836W        W39184  18.267  35.081   0.806
66837W        W39185  39.479  32.893   2.901
66838W        W39186   1.932  44.905   2.229
66839W        W39187  22.098  39.545  11.075
66840W        W39188  24.032  26.037   1.308
66841W        W39189  10.228   4.909   2.865
66842W        W39190  44.819  18.190  12.438
66843W        W39191  22.520  14.116   0.869
66844W        W39192  27.092   9.819  12.387
66845W        W39193   3.242   7.180  13.400
66846W        W39194  42.403   3.419  11.001
66847W        W39195  43.353  16.783   4.674
66848W        W39196  27.540  41.533  10.559
66849W        W39197   5.285  42.286  11.986
66850W        W39198   3.811  14.695  12.432
66851W        W39199   6.695   8.854  10.418
66852W        W39200  12.843  23.015  11.997
66853W        W39201  10.364  36.390   3.801
66854W        W39202  19.244  10.756  11.416
66855W        W39203  31.951  10.823  14.966
66856W        W39204  34.003  27.600   4.682
66857W        W39205  36.495  17.686  12.430
66858W        W39206   9.285  44.811  11.099
66859W        W39207  21.695  11.867   4.265
66860W        W39208   3.267  11.779  13.041
66861W        W39209  14.225   9.874   1.809
66862W        W39210  14.235  15.751   2.389
66863W        W39211  10.184  13.830  12.556
66864W        W39212  25.044   7.402  12.399
66865W        W39213  15.684  40.344   2.192
66866W        W39214  18.197  31.437   4.290
66867W        W39215   9.185  26.158  13.796
66868W        W39216  39.908   0.415   3.244
66869W        W39217  11.227   0.924   0.301
66870W        W39218  17.282  44.337  13.526
66871W        W39219  16.208  40.350  13.406
66872W        W39220  14.327  34.527  12.956
66873W        W39221  29.663   9.352  10.417
66874W        W39222  34.592  34.916   5.694
66875W        W39223  24.587  27.683  12.538
66876W        W39224   0.758  15.628  12.913
66877W        W39225  24.663  14.695   1.881
66878W        W39226  35.420  40.952   0.787
66879W        W39227   3.862  44.358  13.378
66880W        W39228   6.415   1.821  10.028
66881W        W39229  10.348  40.469   5.210
66882W        W39230  33.942  44.276  14.879
66883W        W39231  20.565  31.040   2.244
66884W        W39232  14.252  32.493   4.158
66885W        W39233   6.721  16.281   2.233
66886W        W39234  40.966  33.096   3.237
66887W        W39235   1.264  31.481   4.351
66888W        W39236  24.619  26.081   3.166
66889W        W39237  20.164  19.125  13.480
66890W        W39238   8.867   6.766   2.306
66891W        W39239  29.574  15.185  11.101
66892W        W39240  31.625  21.648  13.835
66893W        W39241  44.769   6.261   2.769
66894W        W39242  28.046  37.347   0.832
66895W        W39243  10.832  12.261  14.906
66896W        W39244  12.676   5.860   3.641
66897W        W39245  35.375   3.444  12.080
66898W        W39246  36.876  33.126   4.250
66899W        W39247  13.620  11.277  11.557
66900W        W39248  37.928  16.216  11.554
66901W        W39249  14.189  21.145   2.743
66902W        W39250  19.279   3.721  14.011
66903W        W39251  16.751  32.423   1.289
66904W        W39252   7.281   9.333  13.938
66905W        W39253  37.335  19.752   4.718
66906W        W39254  18.615   4.216  11.499
66907W        W39255  26.657  13.186  12.953
66908W        W39256  26.480  32.898  11.967
66909W        W39257  14.689  26.993  13.912
66910W        W39258  11.794  27.674  12.903
66911W        W39259  18.110  10.312   4.687
66912W        W39260  20.731   7.385   0.735
66913W        W39261   1.308  27.071  12.883
66914W        W39262  21.103  22.210   4.808
66915W        W39263  44.360  24.146   2.418
66916W        W39264   7.669  24.028   5.163
66917W        W39265  34.922  26.668   3.790
66918W        W39266  12.792  20.240  13.996
66919W        W39267   2.782  33.007   3.238
66920W        W39268  22.513  21.686   1.811
66921W        W39269  23.106  44.483   4.169
66922W        W39270  17.270   3.316   4.290
66923W        W39271  22.102  10.867  13.459
66924W        W39272  14.328  23.237   0.473
66925W        W39273  44.812   0.953  10.419
66926W        W39274  16.759  41.489  11.421
66927W        W39275  11.833   4.290  14.953
66928W        W39276  28.992  37.539   3.306
66929W        W39277  34.444  13.840  10.562
66930W        W39278   2.735  32.636  14.495
66931W        W39279  28.034  21.165   4.730
66932W        W39280  24.605  14.592  13.823
66933W        W39281  41.297  44.782  12.545
66934W        W39282  20.544  14.767   0.752
66935W        W39283  21.107  36.587   4.223
66936W        W39284  22.223  44.867   1.343
66937W        W39285   1.479  20.713   3.791
66938W        W39286  17.751  40.868   1.244
66939W        W39287  30.039  39.831   2.360
66940W        W39288  42.288   9.813   4.782
66941W        W39289   7.234  16.705  12.476
66942W        W39290  23.204  17.574  12.082
66943W        W39291  12.693  30.012   2.713
66944W        W39292   7.213   2.466   4.803
66945W        W39293  19.069  41.422   3.356
66946W        W39294   1.315  24.644  11.959
66947W        W39295   6.422  28.968   2.865
66948W        W39296  41.940   5.793  10.414
66949W        W39297   3.350  25.965  10.641
66950W        W39298   2.293   8.893   1.419
66951W        W39299  42.892  27.505  11.404
66952W        W39300  27.568  24.191  11.962
66953W        W39301  26.660   2.880   4.634
66954W        W39302  44.858  34.414   1.777
66955W        W39303  27.100  38.880   4.339
66956W        W39304  23.695  31.593  11.056
66957W        W39305   6.251  44.311  11.861
66958W        W39306  38.021  20.603   2.324
66959W        W39307   2.231  20.764   3.791
66960W        W39308  36.017   0.492   2.190
66961W        W39309  34.019  11.359  10.429
66962W        W39310  11.653  19.702   3.800
66963W        W39311  41.395   0.962   3.859
66964W        W39312   1.424  28.122   3.784
66965W        W39313  35.487   5.253   3.636
66966W        W39314  30.052  36.430   4.676
66967W        W39315  30.525  17.270  14.379
66968W        W39316  15.585   0.446   1.792
66969W        W39317  13.142  10.349  10.572
66970W        W39318  12.662   1.927  11.395
66971W        W39319  28.641  31.959   4.120
66972W        W39320  17.672  37.390   3.790
66973W        W39321  24.670  42.361  10.610
66974W        W39322  10.693   9.308   1.247
66975W        W39323  38.557  34.399  13.956
66976W        W39324  33.483   0.314   4.125
66977W        W39325  40.802  42.916  10.130
66978W        W39326   9.743  12.849  10.927
66979W        W39327  40.010  23.611  14.004
66980W        W39328  14.595  19.594   2.798
66981W        W39329  31.122  11.184   1.263
66982W        W39330  23.057  27.458   3.668
66983W        W39331  43.448   0.771   4.186
66984W        W39332  42.493  37.988  14.469
66985W        W39333   7.280  22.160   1.405
66986W        W39334   0.955  41.475   1.352
66987W        W39335  43.366  11.750  11.957
66988W        W39336  33.564  20.604  11.034
66989W        W39337  29.144  19.260   1.336
66990W        W39338   1.475  18.707   3.716
66991W        W39339   5.335  10.187   0.385
66992W        W39340  33.024   6.873   1.285
66993W        W39341  17.767  42.828   2.245
66994W        W39342   7.727  44.318   1.899
66995W        W39343  30.132  28.498   0.316
66996W        W39344  34.520  18.209  14.783
66997W        W39345   3.787   0.329  12.974
66998W        W39346  29.939  28.962   0.392
66999W        W39347   1.315  24.695  11.547
67000W        W39348  20.680  39.910  12.518
67001W        W39349  25.513   6.768   4.704
67002W        W39350  36.074   4.755  14.016
67003W        W39351  19.537  14.820   3.683
67004W        W39352  28.070  25.152   4.687
67005W        W39353  13.823  43.858   3.638
67006W        W39354   4.904  24.641   4.697
67007W        W39355   2.449  30.464  14.798
67008W        W39356  34.473   1.285  14.469
67009W        W39357   2.255  36.949  10.888
67010W        W39358  36.429  25.002   4.266
67011W        W39359  32.908  12.739  11.013
67012W        W39360  38.354  30.986   3.673
67013W        W39361  42.371  40.388   0.825
67014W        W39362   0.349   8.359   2.870
67015W        W39363   5.825   1.876   2.182
67016W        W39364  23.713  13.698   2.787
67017W        W39365  17.778   2.723  13.991
67018W        W39366   6.299  43.466   3.635
67019W        W39367   1.317  41.384   3.854
67020W        W39368   0.941  37.948  13.496
67021W        W39369   6.185   8.356   4.221
67022W        W39370   1.900  27.999   3.743
67023W        W39371  18.607  38.555   2.364
67024W        W39372  23.229  27.461   2.293
67025W        W39373  37.347  30.093   0.811
67026W        W39374  44.883  40.933  12.854
67027W        W39375  42.302  17.182   4.338
67028W        W39376  10.858  38.458  12.407
67029W        W39377  12.755  23.569  11.035
67030W        W39378  43.357  15.744  12.946
67031W        W39379  36.895  19.597  10.014
67032W        W39380  18.724  33.526   0.924
67033W        W39381  16.219  40.347  10.621
67034W        W39382  23.028  32.912   2.736
67035W        W39383  41.000  26.108   0.260
67036W        W39384  27.993   4.424   4.616
67037W        W39385   9.153  34.374  10.431
67038W        W39386  39.892  23.711   3.839
67039W        W39387  24.610  12.328   2.775
67040W        W39388  17.091  10.258  10.542
67041W        W39389  29.630  39.340  13.526
67042W        W39390   4.336  35.365   4.755
67043W        W39391  39.315  36.855  14.888
67044W        W39392  14.218  30.549  12.407
67045W        W39393  23.040  44.958  12.527
67046W        W39394  38.006   0.353  13.469
67047W        W39395  17.620  44.306   2.286
67048W        W39396   4.418  33.458   0.272
67049W        W39397   5.887  15.642   2.215
67050W        W39398  14.231   1.891   1.766
67051W        W39399  42.449   5.724   0.415
67052W        W39400  20.578  41.041  14.437
67053W        W39401   3.456  44.401  14.516
67054W        W39402   7.415  39.396   3.805
67055W        W39403  39.930  13.223   2.419
67056W        W39404  22.244   6.756  12.916
67057W        W39405   4.796  30.974   5.210
67058W        W39406  19.283  21.081   3.305
67059W        W39407  15.784   1.458   4.130
67060W        W39408  38.048  15.313  11.950
67061W        W39409  21.675  23.641   4.307
67062W        W39410  39.950  18.738  10.554
67063W        W39411  32.907   2.946   2.304
67064W        W39412  34.973   7.693   3.799
67065W        W39413  22.252  31.901   2.756
67066W        W39414   6.873  35.477  13.534
67067W        W39415   1.297   9.257   3.751
67068W        W39416  28.115  14.150  12.435
67069W        W39417  18.144  23.197  11.548
67070W        W39418  31.629  16.615  14.473
67071W        W39419  11.770  13.700   3.806
67072W        W39420   3.291  20.655  10.613
67073W        W39421  27.140   8.266  13.037
67074W        W39422  43.957  18.127  13.855
67075W        W39423   9.162  32.510   4.748
67076W        W39424   8.663  10.658   2.249
67077W        W39425   9.762  16.238   1.245
67078W        W39426  39.430  14.288   2.244
67079W        W39427   6.837  11.737  12.094
67080W        W39428   6.777  11.150   0.415
67081W        W39429   6.902  13.288  13.880
67082W        W39430  25.196   9.662   0.785
67083W        W39431  41.815   4.768   1.224
67084W        W39432  13.214  28.991  14.445
67085W        W39433   0.843  19.779   1.242
67086W        W39434  37.410  41.922  12.982
67087W        W39435  44.966  11.264   2.237
67088W        W39436  33.992  20.092  12.924
67089W        W39437  32.563  24.523  12.834
67090W        W39438   5.932   3.372   3.199
67091W        W39439  43.839  30.527   1.323
67092W        W39440  11.852  17.621  11.106
67093W        W39441  33.903  12.782  14.384
67094W        W39442  38.022  23.237   5.100
67095W        W39443  12.767  27.024   0.942
67096W        W39444  11.745  23.528   0.836
67097W        W39445  37.501  25.664  13.986
67098W        W39446   0.811  11.622   0.272
67099W        W39447   9.322  38.477  11.448
67100W        W39448   2.909  11.249  11.450
67101W        W39449  23.148   8.855  12.999
67102W        W39450  41.463   3.381   3.724
67103W        W39451  38.953  42.286  12.048
67104W        W39452  28.035  29.991   1.770
67105W        W39453  30.434   2.953  13.532
67106W        W39454   4.923  23.993  12.513
67107W        W39455  13.621  23.643   2.673
67108W        W39456  36.057   7.710  12.432
67109W        W39457  27.026  33.129   3.765
67110W        W39458  36.072  26.699  13.325
67111W        W39459  35.904  14.158   4.733
67112W        W39460  12.158  38.854   1.832
67113W        W39461  41.866   0.423   1.919
67114W        W39462  42.009   2.420   3.151
67115W        W39463  15.655   6.388   3.203
67116W        W39464  21.730  35.389   1.449
67117W        W39465   9.816  16.316  13.387
67118W        W39466  22.239  12.245  14.405
67119W        W39467   0.808   4.252   3.262
67120W        W39468  23.659  34.056  10.943
67121W        W39469  29.473  31.013   4.131
67122W        W39470  29.176  41.410  14.407
67123W        W39471  12.152  41.308   0.757
67124W        W39472   9.831  10.143  14.338
67125W        W39473  32.960  36.508   3.699
67126W        W39474   9.372   0.291   0.936
67127W        W39475   3.711  38.382   1.214
67128W        W39476  38.957  26.959   2.282
67129W        W39477  21.239  34.043   0.484
67130W        W39478   2.776  25.177  13.957
67131W        W39479  26.461  14.703  13.961
67132W        W39480  40.823  16.134  14.786
67133W        W39481  31.063  14.664   0.290
67134W        W39482   5.767   0.790   2.903
67135W        W39483  36.055  25.006  11.865
67136W        W39484  18.661  28.997   3.358
67137W        W39485   2.763  15.797   1.910
67138W        W39486  34.585  11.222  10.598
67139W        W39487   9.721  14.292  11.470
67140W        W39488  12.707  26.194  10.952
67141W        W39489  37.970  32.532   3.343
67142W        W39490   1.269  27.078  12.417
67143W        W39491  21.122  38.526   4.288
67144W        W39492  34.571  39.902  11.493
67145W        W39493  17.745  42.786  14.849
67146W        W39494  28.638  30.614   0.870
67147W        W39495  42.872   4.330  10.511
67148W        W39496  37.503  41.427  13.334
67149W        W39497  36.930  30.602  11.540
67150W        W39498  34.966   1.943   3.706
67151W        W39499  29.637  38.560   3.235
67152W        W39500  14.780  30.922   2.841
67153W        W39501  31.106  41.419  10.499
67154W        W39502  18.761  29.483   1.793
67155W        W39503  43.429  11.745  12.566
67156W        W39504  27.649   1.788  11.572
67157W        W39505  33.437  16.154   1.405
67158W        W39506  11.632  24.037  11.082
67159W        W39507  36.501  41.983   0.886
67160W        W39508   8.196  27.147  14.759
67161W        W39509   7.404   7.329  14.432
67162W        W39510  28.981  43.848   3.639
67163W        W39511  32.911  29.456  14.323
67164W        W39512  20.706  24.575   0.917
67165W        W39513   5.398  43.820  11.986
67166W        W39514  36.583  42.492   0.885
67167W        W39515  30.040   1.251  10.645
67168W        W39516  21.615  41.858   1.378
67169W        W39517  19.602  14.262  14.843
67170W        W39518  22.183  33.101   1.298
67171W        W39519   9.646  10.164  14.832
67172W        W39520  28.975  25.705   4.278
67173W        W39521   5.216   1.457  12.391
67174W        W39522  39.372   9.267   2.797
67175W        W39523  17.758  18.678  12.451
67176W        W39524   3.258  37.875   4.154
67177W        W39525   8.682  28.589   1.214
67178W        W39526  35.491  21.052  14.004
67179W        W39527  12.300  38.461  10.623
67180W        W39528  12.234  13.621   2.264
67181W        W39529  16.204  35.015   3.378
67182W        W39530  21.186  18.286  11.065
67183W        W39531  44.940  20.037   0.307
67184W        W39532  34.481  23.200   2.231
67185W        W39533  15.215  37.040  11.856
67186W        W39534  35.468  24.578  13.469
67187W        W39535  14.284  30.088  14.283
67188W        W39536  33.466  15.230   4.603
67189W        W39537   1.356   5.855   2.663
67190W        W39538  19.212  39.540   4.324
67191W        W39539  13.218  29.659   1.398
67192W        W39540  20.067  43.019   2.771
67193W        W39541  12.830  41.914   4.227
67194W        W39542  40.538  23.146  10.564
67195W        W39543  13.812  20.052  10.630
67196W        W39544   2.837   8.784  11.599
67197W        W39545   7.772   5.831   3.335
67198W        W39546   2.906  14.771  14.878
67199W        W39547  19.624  15.261  11.398
67200W        W39548  29.065  32.567  11.386
67201W        W39549  18.230  42.971   3.211
67202W        W39550  17.268  32.047   0.305
67203W        W39551  14.120   9.675   0.775
67204W        W39552  13.160  12.222   0.874
67205W        W39553   6.689  22.139  14.405
67206W        W39554  23.736  32.083  11.411
67207W        W39555  27.519  20.728  13.942
67208W        W39556  43.352   9.760  11.062
67209W        W39557  38.938  10.276  11.586
67210W        W39558  11.130  17.598   0.332
67211W        W39559   2.248  19.196  12.341
67212W        W39560  37.863  13.647   4.666
67213W        W39561  20.632  42.889  11.482
67214W        W39562  24.096  29.462  14.974
67215W        W39563   8.740  38.542  10.643
67216W        W39564  31.031   4.767  13.817
67217W        W39565  17.709  21.687  12.070
67218W        W39566  31.535  23.116   4.187
67219W        W39567  12.211  21.245  10.915
67220W        W39568   3.757  14.693   2.858
67221W        W39569   3.357  23.025  13.966
67222W        W39570   3.820  14.141   1.450
67223W        W39571  29.477   0.810   0.257
67224W        W39572  21.621  41.028  13.876
67225W        W39573  40.478  12.263  11.017
67226W        W39574  43.324  26.171   2.247
67227W        W39575  17.737  28.095   3.774
67228W        W39576  41.392  24.008   5.093
67229W        W39577  39.553  37.047   4.213
67230W        W39578  22.593  14.105  12.073
67231W        W39579   5.928  25.639  11.909
67232W        W39580  36.994  43.272  13.946
67233W        W39581   7.709   8.802   0.937
67234W        W39582  21.600  43.489  13.542
67235W        W39583  38.567   9.177  11.071
67236W        W39584   1.888  12.306   2.854
67237W        W39585  28.001  10.343   0.741
67238W        W39586  43.818  22.220   4.341
67239W        W39587  25.490   6.773  11.877
67240W        W39588  37.484  41.469  13.014
67241W        W39589  14.325  42.915   2.879
67242W        W39590  34.063   8.405   1.255
67243W        W39591  30.032  32.518   1.218
67244W        W39592   3.904  17.068  13.344
67245W        W39593  30.037   2.807  14.434
67246W        W39594  37.025   2.346  12.880
67247W        W39595  13.133  15.298   3.836
67248W        W39596   6.412  28.111   4.124
67249W        W39597  28.160  18.285  13.433
67250W        W39598   4.919  29.545  12.826
67251W        W39599  20.680  22.720  12.406
67252W        W39600   7.852   7.843   2.666
67253W        W39601  44.458  31.408  13.544
67254W        W39602  20.225   2.798  10.598
67255W        W39603   4.304  37.972  13.849
67256W        W39604  31.911  27.189   5.228
67257W        W39605  20.188  14.247   3.752
67258W        W39606  26.654   9.827  13.827
67259W        W39607  43.362  44.933   4.827
67260W        W39608  40.368   6.210   4.635
67261W        W39609  17.787  38.975   2.709
67262W        W39610  36.020  32.494   1.723
67263W        W39611  10.866   7.257  11.443
67264W        W39612  17.696  34.102   4.653
67265W        W39613  41.787  25.472  12.414
67266W        W39614  11.687  33.047   4.133
67267W        W39615  21.675  27.577  10.944
67268W        W39616  26.960  25.656  12.860
67269W        W39617  20.062   9.308   4.752
67270W        W39618  30.452  10.241   2.837
67271W        W39619  20.632  25.076   1.349
67272W        W39620  43.360  28.652   1.319
67273W        W39621  12.281  41.929   4.321
67274W        W39622  33.398  34.927  13.337
67275W        W39623   5.916  36.061   3.677
67276W        W39624  28.181  20.726   0.755
67277W        W39625  10.643  18.675  10.917
67278W        W39626  25.517  40.341  14.880
67279W        W39627  44.855   4.357   3.867
67280W        W39628  27.001  31.016  11.053
67281W        W39629   0.906  34.924   3.269
67282W        W39630  40.515  43.370  14.880
67283W        W39631  10.259  14.769   2.697
67284W        W39632  31.112  12.799   5.156
67285W        W39633  37.428  31.976   4.298
67286W        W39634  22.547  25.509   0.478
67287W        W39635  10.283   9.718  11.421
67288W        W39636  11.705   4.341  12.400
67289W        W39637  15.772   0.903   1.274
67290W        W39638  21.642  17.195  14.483
67291W        W39639  44.279   4.792  13.526
67292W        W39640   7.315  34.870  14.346
67293W        W39641   9.783  31.471  14.837
67294W        W39642  23.109  12.680   2.395
67295W        W39643  23.609  29.501   0.817
67296W        W39644  17.137  44.495   5.155
67297W        W39645  33.414   0.830   4.338
67298W        W39646   7.875  26.165   1.289
67299W        W39647  33.106  23.000  10.972
67300W        W39648  42.300  42.311   4.238
67301W        W39649  15.212  10.775  12.526
67302W        W39650  31.902  13.842  14.029
67303W        W39651  23.200   4.397  12.066
67304W        W39652  22.681  11.349  12.001
67305W        W39653  44.280  17.077   3.247
67306W        W39654  11.202  13.328  14.811
67307W        W39655  39.458  39.969   4.657
67308W        W39656   3.330  28.626   4.681
67309W        W39657  23.055  22.081  11.862
67310W        W39658   8.166  29.481   1.810
67311W        W39659  38.540  41.466   4.307
67312W        W39660   0.971  43.905  13.342
67313W        W39661  39.360  30.514   3.380
67314W        W39662  21.162  44.302  10.613
67315W        W39663   2.283   2.722   0.255
67316W        W39664   4.747   0.829  10.892
67317W        W39665  38.512  23.531   4.816
67318W        W39666   8.281  14.182  11.034
67319W        W39667   1.474  27.681   1.245
67320W        W39668   5.428   1.466   1.899
67321W        W39669  34.596  15.177  14.992
67322W        W39670  24.078  23.539  13.372
67323W        W39671   3.862  17.099   1.263
67324W        W39672  38.365  11.334  12.950
67325W        W39673  29.553  37.863  11.040
67326W        W39674   6.808  38.884  12.415
67327W        W39675   3.323   3.291  11.445
67328W        W39676  23.585  36.944  13.021
67329W        W39677  30.951  19.769   1.265
67330W        W39678   3.219  14.640  13.518
67331W        W39679  42.488  36.388   4.293
67332W        W39680  16.694  37.985   4.777
67333W        W39681  26.095  39.411   2.888
67334W        W39682  15.216  22.650  14.502
67335W        W39683   4.892   2.927  12.395
67336W        W39684  20.589  12.837  13.985
67337W        W39685  28.574  10.798   4.608
67338W        W39686  31.114   7.392  12.461
67339W        W39687  33.568  16.692   3.796
67340W        W39688  20.670  28.105  14.980
67341W        W39689  22.233  22.660   0.857
67342W        W39690  31.971  27.448   3.859
67343W        W39691  40.010  43.778   2.249
67344W        W39692  31.042  15.793   4.132
67345W        W39693  24.654  32.014   3.248
67346W        W39694  26.581  26.490   3.773
67347W        W39695   1.295  29.034   2.246
67348W        W39696  27.672  19.055   3.679
67349W        W39697  29.555  39.888   0.365
67350W        W39698  35.362  41.037  12.875
67351W        W39699   6.816  43.436  11.447
67352W        W39700  22.716  10.672   2.885
67353W        W39701  37.955  29.598   0.255
67354W        W39702  44.983  32.062  11.513
67355W        W39703  35.010  16.800  10.916
67356W        W39704  39.828  32.570  13.867
67357W        W39705  35.446  26.652   4.719
67358W        W39706  32.593   5.770   3.843
67359W        W39707  41.012   4.916  14.390
67360W        W39708  35.985  14.690   1.448
67361W        W39709  27.579  14.139   0.878
67362W        W39710  28.957  29.082   1.379
67363W        W39711  23.535  29.668  14.329
67364W        W39712  43.852   8.247  12.534
67365W        W39713   6.208   3.282   5.170
67366W        W39714  38.041  43.410   3.853
67367W        W39715  38.867  19.633  13.809
67368W        W39716   4.379  25.611   3.258
67369W        W39717  30.974  32.417   2.403
67370W        W39718   8.775   4.839  11.526
67371W        W39719  31.944  39.879  14.471
67372W        W39720  22.998  44.943  14.413
67373W        W39721  27.658  17.187  12.554
67374W        W39722  24.183  15.259  12.090
67375W        W39723  18.153  40.403  13.955
67376W        W39724  27.143  34.871   1.354
67377W        W39725  19.245  26.634   0.350
67378W        W39726  38.951  35.458  13.440
67379W        W39727  37.396   3.330  14.324
67380W        W39728  41.969  34.386   0.383
67381W        W39729  23.238  25.033   3.332
67382W        W39730  12.204  39.356  10.404
67383W        W39731  16.153  30.659  14.485
67384W        W39732  12.834  11.757  11.457
67385W        W39733  28.965   1.370  13.999
67386W        W39734  41.801  18.153  10.014
67387W        W39735  40.018   1.423  10.948
67388W        W39736  21.627  12.705   3.823
67389W        W39737  23.528  34.466  13.436
67390W        W39738  17.689   3.383   3.841
67391W        W39739  28.493  11.298  10.424
67392W        W39740  41.340  36.998   3.229
67393W        W39741  40.982  21.666  14.416
67394W        W39742  10.277  36.967   4.615
67395W        W39743  17.575  21.143  10.404
67396W        W39744   4.893  11.249   0.459
67397W        W39745  44.440  11.783  12.981
67398W        W39746  34.489   6.290   3.641
67399W        W39747  28.112  20.053   2.343
67400W        W39748  11.628  39.995  13.487
67401W        W39749   0.489  19.140   4.289
67402W        W39750  17.197   7.753  12.079
67403W        W39751  16.655   0.290  12.478
67404W        W39752  38.431   7.324  12.513
67405W        W39753  10.660  39.959  12.369
67406W        W39754  42.288  14.184   4.674
67407W        W39755  14.835  24.604   4.689
67408W        W39756  27.150  15.606   0.907
67409W        W39757  41.426   8.857  14.443
67410W        W39758   9.663  20.179   5.691
67411W        W39759  25.593   4.873   4.132
67412W        W39760  27.028   2.748   0.463
67413W        W39761   3.743  40.910   0.795
67414W        W39762  14.599   6.783   1.833
67415W        W39763  29.473  40.848   2.788
67416W        W39764  18.072  24.095  11.019
67417W        W39765   3.726  18.257  10.630
67418W        W39766  28.992  24.716   4.813
67419W        W39767  10.736  10.632   0.899
67420W        W39768   5.322  17.713  12.544
67421W        W39769  11.642  23.033   3.669
67422W        W39770  25.963  16.643  14.896
67423W        W39771  29.517  37.354  10.599
67424W        W39772  44.926  44.790   1.437
67425W        W39773   5.738  26.997   2.192
67426W        W39774  27.989  16.180   0.830
67427W        W39775  19.754  34.582  10.600
67428W        W39776   7.401  22.236  11.880
67429W        W39777  20.577  12.793  14.787
67430W        W39778  19.247  26.576  14.913
67431W        W39779  34.541   6.913  11.565
67432W        W39780   0.324  30.907   4.303
67433W        W39781  12.240   0.872  13.468
67434W        W39782  26.653  27.974  11.933
67435W        W39783  30.061  31.598   2.273
67436W        W39784  26.172  18.576   2.313
67437W        W39785  41.417  25.636  14.387
67438W        W39786  35.865   1.309  12.027
67439W        W39787  29.080  15.268   3.316
67440W        W39788   2.934  26.653   2.878
67441W        W39789  41.490  36.938   3.732
67442W        W39790  36.365  21.206   2.736
67443W        W39791  21.670  44.469   4.333
67444W        W39792   6.908  40.008   1.403
67445W        W39793  34.529   0.845   4.830
67446W        W39794   2.752  15.743  13.355
67447W        W39795   6.736  14.763  13.480
67448W        W39796  23.644  22.017   1.247
67449W        W39797  40.960  31.561  13.377
67450W        W39798   4.333  36.547   2.366
67451W        W39799   3.738  27.985  10.593
67452W        W39800  23.662  38.924  11.549
67453W        W39801  25.595  21.647   0.266
67454W        W39802  40.955   9.747  14.943
67455W        W39803  42.491   3.887  14.983
67456W        W39804  17.723   4.756  11.086
67457W        W39805  21.528   2.776  14.978
67458W        W39806  10.193  16.685   3.333
67459W        W39807   1.741  16.770   4.821
67460W        W39808  36.008  44.309  12.463
67461W        W39809  42.306  12.251  14.964
67462W        W39810   1.361  44.762  12.036
67463W        W39811  22.211  34.493  12.507
67464W        W39812  10.797  37.832  11.915
67465W        W39813  38.879  35.401   9.944
67466W        W39814  17.689  22.514   4.165
67467W        W39815  15.670  20.263  12.831
67468W        W39816  31.558  18.788   1.317
67469W        W39817  32.063  37.037   5.571
67470W        W39818  12.281   2.317  13.450
67471W        W39819  38.948  35.015   2.720
67472W        W39820  20.255  32.117   2.744
67473W        W39821   0.378  37.494   9.980
67474W        W39822   5.692  16.591  11.855
67475W        W39823  41.909  14.107   3.350
67476W        W39824  31.954  14.276   2.798
67477W        W39825  37.457  29.938  14.311
67478W        W39826   0.809   6.268   2.283
67479W        W39827  27.195   1.441  13.792
67480W        W39828  39.548  44.362   3.243
67481W        W39829  33.434  44.828  13.911
67482W        W39830  38.437  28.655   2.409
67483W        W39831  27.107   4.870  11.948
67484W        W39832  15.252  37.873  14.342
67485W        W39833  10.330  28.475  12.954
67486W        W39834  10.288  18.162  13.811
67487W        W39835  35.472  35.526   1.366
67488W        W39836  39.546   1.325  10.919
67489W        W39837  21.055  40.518   2.336
67490W        W39838  37.344   8.226   3.784
67491W        W39839  15.183   3.438  11.564
67492W        W39840   5.423  41.522  13.351
67493W        W39841  43.962  13.768  13.995
67494W        W39842  27.042  16.598   1.711
67495W        W39843  30.947   5.760  12.481
67496W        W39844   2.374  22.682   4.207
67497W        W39845   0.745   8.764   2.302
67498W        W39846  28.580   8.812   0.396
67499W        W39847  38.328  17.776   4.296
67500W        W39848   0.293   8.676  10.895
67501W        W39849  19.675  11.706  10.588
67502W        W39850  19.134  39.808   3.182
67503W        W39851  36.454  37.351  14.474
67504W        W39852  40.342  21.564  14.772
67505W        W39853  17.731  27.169   1.899
67506W        W39854  20.109  42.949   4.321
67507W        W39855  39.354  14.132   4.273
67508W        W39856   6.368  24.073   4.218
67509W        W39857  28.447   3.806  10.490
67510W        W39858   5.432   5.327   3.789
67511W        W39859  30.973  38.337   3.823
67512W        W39860  29.503  29.580  13.056
67513W        W39861  17.228  22.083  13.489
67514W        W39862  32.013  26.993   0.956
67515W        W39863  16.665  37.517   0.775
67516W        W39864   1.330  32.634  13.385
67517W        W39865   2.389   7.205  13.855
67518W        W39866   8.873  28.597   3.654
67519W        W39867  16.241   8.711   2.662
67520W        W39868   3.227  33.517   4.159
67521W        W39869   8.356   5.214   0.749
67522W        W39870   9.206  39.815  10.514
67523W        W39871  20.584  38.917   1.413
67524W        W39872   4.775  43.993   0.915
67525W        W39873  12.199  13.758  11.921
67526W        W39874   3.718  19.216   2.706
67527W        W39875  15.794  42.498  14.329
67528W        W39876   4.378  22.087   1.810
67529W        W39877  20.126   1.263  11.384
67530W        W39878   3.945  21.593  14.499
67531W        W39879   2.922  22.500  14.904
67532W        W39880  11.790   1.425  12.909
67533W        W39881  29.955  34.009  11.489
67534W        W39882   8.218  27.669  14.887
67535W        W39883  36.861  20.037   0.923
67536W        W39884  31.432  15.672  14.402
67537W        W39885  29.946   9.765  14.345
67538W        W39886  22.727  35.948   0.864
67539W        W39887  16.239  32.967  14.470
67540W        W39888  42.812  16.580  14.397
67541W        W39889   5.361  41.810  14.952
67542W        W39890  30.645  42.476   4.656
67543W        W39891  26.662  43.874   4.785
67544W        W39892   5.195   8.348  13.814
67545W        W39893   6.224  23.100  14.367
67546W        W39894  14.781   6.813   0.445
67547W        W39895  36.586  24.631   3.654
67548W        W39896  20.103  25.047  11.862
67549W        W39897  23.720   6.910  10.611
67550W        W39898  14.189   0.944   2.224
67551W        W39899  12.355   2.831   3.235
67552W        W39900  22.574  42.313   2.321
67553W        W39901  23.646  13.704  11.560
67554W        W39902  37.055   4.722  11.870
67555W        W39903   3.358  34.443   4.209
67556W        W39904  39.512  32.972  13.356
67557W        W39905   9.689   9.284   0.335
67558W        W39906  38.935  21.037  13.503
67559W        W39907  21.245   8.747  10.943
67560W        W39908  28.934  44.933   1.694
67561W        W39909   6.268  20.260  13.026
67562W        W39910  23.115  21.687   2.360
67563W        W39911  25.993   6.901  12.008
67564W        W39912   4.212  38.356  12.954
67565W        W39913  16.743  12.805  12.952
67566W        W39914  39.820  27.613   2.687
67567W        W39915  14.336  27.621  11.039
67568W        W39916   2.944  29.599  12.544
67569W        W39917  30.465   5.227   1.726
67570W        W39918  23.183  44.931   0.272
67571W        W39919   1.861  26.188   0.442
67572W        W39920  24.159  22.530   3.836
67573W        W39921  26.159  27.594   3.772
67574W        W39922  35.389  34.614  14.926
67575W        W39923  32.430  38.833   1.880
67576W        W39924  42.822   5.796   0.873
67577W        W39925  36.047   0.421  13.821
67578W        W39926  37.068  13.121  13.379
67579W        W39927  23.638  10.836  14.823
67580W        W39928   8.740  43.882  10.946
67581W        W39929  21.220  17.608  10.941
67582W        W39930  39.886  26.699  10.952
67583W        W39931  39.997  22.625  14.937
67584W        W39932  22.023  36.996  10.570
67585W        W39933  38.995   5.377  13.433
67586W        W39934  32.546  36.429   3.364
67587W        W39935  28.048  31.621   0.342
67588W        W39936  13.817  23.007  13.318
67589W        W39937  37.996  41.803   2.677
67590W        W39938  38.500  32.390  12.402
67591W        W39939   3.728  16.275   1.816
67592W        W39940  27.018  28.600  14.929
67593W        W39941  25.592  16.811  12.029
67594W        W39942   2.382  12.733   2.826
67595W        W39943  39.991  10.299   1.755
67596W        W39944  11.290   3.295  14.840
67597W        W39945  24.183  17.590  14.888
67598W        W39946  34.097  21.044   2.180
67599W        W39947  32.002  34.571   2.874
67600W        W39948  31.553  11.146  14.996
67601W        W39949   0.865   7.279  12.832
67602W        W39950  10.660  40.360   0.404
67603W        W39951  25.067  44.963   0.412
67604W        W39952  23.196  30.564   0.478
67605W        W39953  21.166   5.835   0.736
67606W        W39954  28.598  23.522   1.728
67607W        W39955   6.185  35.908  14.779
67608W        W39956  21.076  18.783   1.342
67609W        W39957  37.456  41.528   3.855
67610W        W39958  44.961   8.392   4.734
67611W        W39959   0.872   5.365  14.469
67612W        W39960   8.218  20.767   5.122
67613W        W39961  30.480  36.001   4.317
67614W        W39962  38.970   9.861  12.855
67615W        W39963  21.101  22.150   0.334
67616W        W39964   9.839   4.864   2.326
67617W        W39965  36.864  35.443  13.982
67618W        W39966  11.260   4.796  13.983
67619W        W39967   8.843   2.340  11.379
67620W        W39968  32.955  25.689   4.755
67621W        W39969  29.062   6.412   0.752
67622W        W39970   1.932   8.684  14.887
67623W        W39971  36.870  36.356  10.413
67624W        W39972  15.791  10.166  10.623
67625W        W39973  28.607  24.493  14.998
67626W        W39974   7.834  36.355   3.308
67627W        W39975   9.274  43.325  12.948
67628W        W39976  26.608  34.877   1.720
67629W        W39977  27.113  41.317   4.210
67630W        W39978  32.050   8.852  13.334
67631W        W39979  41.356  30.039  14.393
67632W        W39980  38.945  40.522   3.743
67633W        W39981  29.541  17.564  14.888
67634W        W39982  44.487   6.410   4.250
67635W        W39983  42.913  31.541  14.839
67636W        W39984   4.291  17.645   2.248
67637W        W39985  29.075  40.377  11.441
67638W        W39986   5.779  31.098   1.710
67639W        W39987  31.028  18.202  13.502
67640W        W39988  44.847  11.729  14.301
67641W        W39989  40.447  22.195  13.023
67642W        W39990  44.888  30.433  10.897
67643W        W39991  28.620  13.719   3.164
67644W        W39992  31.617  31.105  11.474
67645W        W39993  39.933  13.760  14.934
67646W        W39994  14.257  36.905   3.209
67647W        W39995  33.551   0.831   0.760
67648W        W39996   4.810  32.057  10.894
67649W        W39997  38.423  22.077  10.115
67650W        W39998  20.112  17.579   0.893
67651W        W39999   6.282  44.773   3.757
67652W        W40000  28.485  15.297   4.744
67653W        W40001  25.182  10.637   0.765
67654W        W40002  11.350   1.947  13.814
67655W        W40003  24.078  35.513   2.322
67656W        W40004  31.130   7.731  12.000
67657W        W40005  25.579  33.086  12.899
67658W        W40006  38.061  34.370   4.756
67659W        W40007   3.428  44.791   0.896
67660W        W40008  37.371   1.824  14.961
67661W        W40009   0.779  38.896  13.037
67662W        W40010  36.516  18.154   2.303
67663W        W40011  29.076  11.222  12.580
67664W        W40012   8.221   6.309  14.448
67665W        W40013  15.775  22.602   3.345
67666W        W40014  14.715  24.012   2.292
67667W        W40015  39.820  20.714  14.423
67668W        W40016  21.050  33.925  14.933
67669W        W40017  16.168  39.549  13.062
67670W        W40018  36.552   4.393   1.896
67671W        W40019  20.724  36.478   2.320
67672W        W40020  16.143   3.241   1.218
67673W        W40021  18.788  12.256  11.028
67674W        W40022  10.872  35.912  14.883
67675W        W40023  21.698  39.957   4.754
67676W        W40024   1.476  16.236  10.902
67677W        W40025  15.204  40.386  10.429
67678W        W40026  14.712  32.464  12.534
67679W        W40027  24.140   9.339   4.600
67680W        W40028  41.359  41.326   0.415
67681W        W40029   1.301  18.721  11.060
67682W        W40030   1.275   9.682   3.307
67683W        W40031   5.862   3.302  14.825
67684W        W40032  25.988  20.160   1.244
67685W        W40033  17.749   4.284  14.803
67686W        W40034  38.330  15.716   3.677
67687W        W40035  44.367  21.690  13.002
67688W        W40036  44.456  31.608  14.804
67689W        W40037  36.415  10.720  11.071
67690W        W40038  14.832  43.894  14.322
67691W        W40039  25.608   9.181  14.304
67692W        W40040  28.139  17.680  13.457
67693W        W40041   6.783  44.822  12.836
67694W        W40042  30.940  38.831   0.410
67695W        W40043  11.336  24.203  13.830
67696W        W40044  19.539  12.167   1.435
67697W        W40045  14.138   0.790   3.172
67698W        W40046  19.712   1.238   0.845
67699W        W40047   0.848  42.856  13.902
67700W        W40048   2.382  25.999   1.859
67701W        W40049  26.964  41.392   1.352
67702W        W40050  41.338  43.490  12.394
67703W        W40051   3.722   1.442  13.429
67704W        W40052  17.730  20.075  11.531
67705W        W40053  36.902  22.167   3.271
67706W        W40054  36.505   7.235  12.392
67707W        W40055   5.350  18.164  12.851
67708W        W40056  37.836   5.368  11.053
67709W        W40057   3.461  25.999   0.774
67710W        W40058  33.983  18.699  12.882
67711W        W40059  13.127   4.935  11.564
67712W        W40060  12.302  39.014   0.428
67713W        W40061   2.446  36.941   4.290
67714W        W40062  10.842  20.531   0.268
67715W        W40063  36.049  14.800   2.365
67716W        W40064  36.438  13.814  13.489
67717W        W40065  28.018  25.187   1.791
67718W        W40066  19.192  43.840  10.447
67719W        W40067  36.922   4.308   4.172
67720W        W40068  21.037  36.536  14.778
67721W        W40069  43.467  16.240   2.682
67722W        W40070   5.904   4.837  13.897
67723W        W40071  15.662  14.694   9.924
67724W        W40072   2.296  41.878  12.496
67725W        W40073   7.724  25.692  11.961
67726W        W40074  21.185  20.736  11.862
67727W        W40075  31.536  33.388  13.061
67728W        W40076   3.271  14.748  12.853
67729W        W40077  30.657  39.538   3.822
67730W        W40078  12.715  26.547  13.915
67731W        W40079  20.599   7.902   0.940
67732W        W40080  42.778  16.198   2.204
67733W        W40081  43.764   6.362   3.193
67734W        W40082  38.072  44.862   4.282
67735W        W40083   5.369  29.541   1.696
67736W        W40084  11.325   2.848  10.607
67737W        W40085  16.713  25.533   0.959
67738W        W40086  36.572   9.842   0.465
67739W        W40087  32.431  24.203  11.128
67740W        W40088  29.610  40.974  13.819
67741W        W40089  20.083  16.309  13.026
67742W        W40090  34.935  26.077   4.343
67743W        W40091  34.869   5.929  13.027
67744W        W40092  37.898  43.877   0.389
67745W        W40093  17.617   4.905   1.885
67746W        W40094   7.223  18.700   3.847
67747W        W40095  17.764   6.899   1.216
67748W        W40096   7.735  23.542  12.966
67749W        W40097  10.312  38.505  10.027
67750W        W40098   1.336  14.332  14.965
67751W        W40099  14.228  13.232   3.762
67752W        W40100  18.772  27.188   2.186
67753W        W40101  39.016  18.735  10.536
67754W        W40102  39.868  22.151  14.835
67755W        W40103  13.665  11.710  12.876
67756W        W40104  13.636  32.119   4.155
67757W        W40105  14.186   2.740  12.475
67758W        W40106  23.156   7.866   3.703
67759W        W40107  34.508   5.282   2.324
67760W        W40108   7.699  22.530  11.542
67761W        W40109  11.671  27.121   3.301
67762W        W40110   1.857  19.628   1.850
67763W        W40111  38.940  10.232   0.352
67764W        W40112  34.418  21.529  10.421
67765W        W40113   1.304  23.501  12.096
67766W        W40114   8.202  38.931   2.720
67767W        W40115  34.512  39.911  10.929
67768W        W40116  31.001  24.659   1.768
67769W        W40117  18.704   3.926   4.833
67770W        W40118   0.891  28.165  11.078
67771W        W40119  41.310  37.564   2.886
67772W        W40120  44.768   1.273  10.600
67773W        W40121  27.554  32.934  11.481
67774W        W40122  22.640  20.763  12.830
67775W        W40123  37.835  26.989   1.865
67776W        W40124  25.656  24.084  12.889
67777W        W40125  28.045  21.566   1.933
67778W        W40126   4.389  16.248  13.460
67779W        W40127  33.415   4.904  11.074
67780W        W40128  38.899   2.402  10.543
67781W        W40129  13.125  20.261  14.312
67782W        W40130  18.657   6.854   1.798
67783W        W40131  35.421  16.309  14.421
67784W        W40132  38.960  39.022  13.380
67785W        W40133  15.317  18.186  14.972
67786W        W40134   0.421  38.428  14.860
67787W        W40135   0.789  22.139   4.615
67788W        W40136   8.783  36.093   1.875
67789W        W40137   0.829  17.640  12.397
67790W        W40138  42.509  37.041   1.284
67791W        W40139   7.208  43.892   0.946
67792W        W40140  15.665  20.135   4.280
67793W        W40141  23.020  39.966   3.678
67794W        W40142  28.557  33.540  14.001
67795W        W40143  21.188  29.473   1.849
67796W        W40144  14.095   2.727   3.300
67797W        W40145  13.625  10.242  12.500
67798W        W40146  31.914   2.777  11.426
67799W        W40147  30.454   0.487  14.869
67800W        W40148  15.229  36.417  14.986
67801W        W40149  34.908   8.869   3.841
67802W        W40150   5.276  14.620  14.965
67803W        W40151  31.027  22.070  13.314
67804W        W40152  29.427  10.371   1.752
67805W        W40153  17.726  11.799   2.888
67806W        W40154  23.666   5.711   4.286
67807W        W40155  34.984  32.024  10.059
67808W        W40156  10.798  34.030   0.902
67809W        W40157  10.680  25.593   2.898
67810W        W40158   1.749  37.043   0.950
67811W        W40159  19.767  20.577   0.932
67812W        W40160  18.108  17.107  11.100
67813W        W40161  11.864   5.418   5.317
67814W        W40162  40.534   1.834   2.724
67815W        W40163  37.491  43.013  11.985
67816W        W40164   6.327  21.580  11.912
67817W        W40165  41.391  38.859   2.761
67818W        W40166  13.205   7.737  13.051
67819W        W40167   2.399  29.548  14.857
67820W        W40168   9.277  15.709   1.849
67821W        W40169   3.311  28.462   1.244
67822W        W40170  12.854  30.476   1.239
67823W        W40171   9.859  10.766  11.540
67824W        W40172  22.144  39.821   1.783
67825W        W40173  18.640  14.155   4.724
67826W        W40174   2.751  33.093  11.962
67827W        W40175  37.903  25.673   0.380
67828W        W40176  28.181  27.584   2.686
67829W        W40177  32.525  31.041  13.850
67830W        W40178  38.020  18.078  12.063
67831W        W40179   5.358  44.863   4.621
67832W        W40180  35.472  13.330   4.136
67833W        W40181  29.006   6.289  14.777
67834W        W40182  44.906  30.444   1.793
67835W        W40183   4.378  38.374   4.272
67836W        W40184  31.456  37.510   2.375
67837W        W40185  40.806  23.710  10.425
67838W        W40186  36.910   8.332   4.188
67839W        W40187   7.415  21.616   1.354
67840W        W40188  16.135  18.074  11.007
67841W        W40189  18.297  18.156  12.922
67842W        W40190  19.085  44.957   2.306
67843W        W40191  25.070  37.556   2.259
67844W        W40192  40.850  14.231   3.172
67845W        W40193  39.390  24.201   3.264
67846W        W40194  33.399   6.186   5.186
67847W        W40195  32.590  24.078   4.316
67848W        W40196  39.816  43.938   4.124
67849W        W40197   6.209  13.728   2.688
67850W        W40198  41.823  12.318   1.890
67851W        W40199  19.198  25.160   0.399
67852W        W40200  36.841  24.561  11.099
67853W        W40201  14.339  31.097   4.227
67854W        W40202   6.409  38.424  13.483
67855W        W40203  35.579  32.447  12.455
67856W        W40204   5.927  37.018   3.247
67857W        W40205  15.680  18.696  13.444
67858W        W40206  38.901   1.392  12.419
67859W        W40207  15.795  13.707   4.763
67860W        W40208   9.683  16.318  14.516
67861W        W40209  26.637  29.539   2.268
67862W        W40210  27.628  14.718  14.278
67863W        W40211   3.368   1.339   1.817
67864W        W40212  12.708  29.083   2.663
67865W        W40213   5.772  29.513  12.855
67866W        W40214  44.452   8.876  13.968
67867W        W40215  43.434   4.813   2.855
67868W        W40216  15.606  20.664   0.342
67869W        W40217  11.371  38.522  11.392
67870W        W40218  37.525  17.176   3.698
67871W        W40219  35.880  42.449   3.730
67872W        W40220  20.048  24.076   1.911
67873W        W40221  13.201   0.983   0.730
67874W        W40222   7.279  18.091  14.422
67875W        W40223  32.973  35.368  12.852
67876W        W40224  34.110  30.541   0.391
67877W        W40225  36.547  21.561  11.608
67878W        W40226  29.441   8.260   2.205
67879W        W40227  27.043  12.173  14.507
67880W        W40228  20.176  42.843   1.299
67881W        W40229  17.097  23.125   3.678
67882W        W40230  16.606  14.834   4.315
67883W        W40231  40.393  32.555   2.738
67884W        W40232  27.652  11.295  13.802
67885W        W40233  33.548   1.793  10.957
67886W        W40234  41.867  39.846  13.956
67887W        W40235  27.632  14.831  12.890
67888W        W40236  41.028  24.677  13.420
67889W        W40237  27.178  23.619   0.833
67890W        W40238  41.947  33.094  11.450
67891W        W40239   3.452  25.147   4.198
67892W        W40240  27.592  34.395  14.339
67893W        W40241  37.570   3.765   1.226
67894W        W40242  27.540  15.249  14.866
67895W        W40243  25.490  43.462  13.376
67896W        W40244  31.042  10.784   0.786
67897W        W40245  23.636  37.447  11.534
67898W        W40246   0.279  40.052   2.786
67899W        W40247  32.982  20.632   1.296
67900W        W40248  24.064  40.906   0.796
67901W        W40249  42.804  27.992  10.908
67902W        W40250  44.292  36.591   4.763
67903W        W40251  35.388   6.271  12.867
67904W        W40252  35.869  30.033  13.443
67905W        W40253  19.212   8.680   2.311
67906W        W40254  33.966  19.257   2.384
67907W        W40255  23.529  33.064   4.310
67908W        W40256  17.097  15.577  10.953
67909W        W40257  38.440  38.467  12.535
67910W        W40258  21.139  10.147   2.395
67911W        W40259  40.920  26.531  12.886
67912W        W40260  32.456   3.421   0.758
67913W        W40261  29.171  31.946   2.416
67914W        W40262  19.246  11.222  11.404
67915W        W40263  44.797   6.270  14.793
67916W        W40264  29.034   0.397  10.518
67917W        W40265  19.141  40.313   4.274
67918W        W40266   9.671  27.029   3.183
67919W        W40267  18.117  16.590   4.135
67920W        W40268  15.312  28.503  12.831
67921W        W40269  38.483  36.567  11.450
67922W        W40270  42.871  37.379   0.897
67923W        W40271  11.800  30.919   0.864
67924W        W40272  33.592  32.965  11.887
67925W        W40273  11.146  32.916  13.353
67926W        W40274  42.477  39.053  11.864
67927W        W40275  29.519   5.876  13.403
67928W        W40276   3.302  44.974   1.707
67929W        W40277  41.902  32.956  14.031
67930W        W40278  35.547  33.541  14.292
67931W        W40279  27.660  33.983  11.979
67932W        W40280  34.106  16.176   4.129
67933W        W40281   7.371  14.670  14.484
67934W        W40282  32.081  11.744   2.836
67935W        W40283  35.863  30.476   2.710
67936W        W40284  30.045   5.293  13.895
67937W        W40285  18.166  16.665  13.388
67938W        W40286  32.088   1.731  11.967
67939W        W40287  28.143  12.308   4.740
67940W        W40288  19.679   3.926  12.864
67941W        W40289   9.231  44.838  13.807
67942W        W40290  36.967  18.585   0.923
67943W        W40291  34.106  31.123  13.397
67944W        W40292  39.399  24.606   2.898
67945W        W40293  23.088  35.992   3.824
67946W        W40294  23.086  23.057  14.936
67947W        W40295  16.808  20.625  13.384
67948W        W40296  12.708   2.452  14.315
67949W        W40297  35.908  35.535   1.220
67950W        W40298  24.002   9.716  11.525
67951W        W40299  33.908  28.670  11.960
67952W        W40300  42.963  44.426  12.534
67953W        W40301   0.864  11.628  14.444
67954W        W40302  20.191  35.365  12.508
67955W        W40303  15.203   6.363   2.902
67956W        W40304   9.347   0.313  14.953
67957W        W40305  44.001  11.229  10.518
67958W        W40306  18.198  39.319  14.877
67959W        W40307  31.013  38.530   2.695
67960W        W40308  43.433  38.480   0.958
67961W        W40309  40.367  32.490  14.971
67962W        W40310  39.507  41.835   4.273
67963W        W40311  40.401  33.963  12.547
67964W        W40312  10.191  13.823  10.550
67965W        W40313   2.315   9.176  14.477
67966W        W40314   5.921  24.210   4.120
67967W        W40315   4.284  24.205  12.390
67968W        W40316  18.777  30.998  11.115
67969W        W40317  35.884  23.621   0.451
67970W        W40318  22.217  31.447   2.676
67971W        W40319  12.303  20.080  13.485
67972W        W40320   8.286  26.608  14.927
67973W        W40321   6.400  26.983  14.417
67974W        W40322  14.722  26.643  10.435
67975W        W40323  32.045   9.726  14.462
67976W        W40324  29.456  10.653   2.256
67977W        W40325  22.526   3.270  12.914
67978W        W40326   2.355  32.039   4.247
67979W        W40327  18.125  21.103   3.760
67980W        W40328   2.415  24.054   2.786
67981W        W40329  10.352  37.916  11.384
67982W        W40330  15.629   3.348   3.326
67983W        W40331  22.245  33.498   2.333
67984W        W40332  38.496   7.288   3.294
67985W        W40333  32.946  41.422   0.277
67986W        W40334  41.917   7.861   4.227
67987W        W40335   2.946  20.550  13.025
67988W        W40336   9.350  37.406  12.858
67989W        W40337  13.236  23.649   2.210
67990W        W40338  19.227  18.780   4.778
67991W        W40339   4.315  16.311  11.376
67992W        W40340   8.345   3.360   5.110
67993W        W40341  24.516  29.128  12.938
67994W        W40342  32.888  36.572  13.011
67995W        W40343  15.229  31.515   1.744
67996W        W40344   8.848   5.373   1.322
67997W        W40345  32.983  14.306   4.232
67998W        W40346  17.062  30.084  14.815
67999W        W40347  27.137  12.287   4.780
68000W        W40348   3.841  16.072   2.754
68001W        W40349  26.097  43.451  11.489
68002W        W40350   1.898  26.014  12.905
68003W        W40351   8.817  43.890   3.757
68004W        W40352  31.620  39.422   4.190
68005W        W40353  27.566   2.959   2.892
68006W        W40354   9.888   7.706   0.472
68007W        W40355  21.647   8.362  11.517
68008W        W40356  13.640  24.064  14.793
68009W        W40357  35.101   3.431   4.653
68010W        W40358   3.291  20.673   2.359
68011W        W40359  14.238  25.145   3.346
68012W        W40360  16.217  28.077   3.288
68013W        W40361   7.778  26.077   0.810
68014W        W40362  26.515  23.205   4.331
68015W        W40363  18.094   3.865   2.295
68016W        W40364  27.023  31.143  13.390
68017W        W40365  39.485  29.074  14.920
68018W        W40366  16.087  12.319  14.987
68019W        W40367  44.338   9.814  10.530
68020W        W40368  31.627  26.033  13.050
68021W        W40369  24.503  14.229   1.879
68022W        W40370  28.497  29.033  13.852
68023W        W40371  10.334  35.444  13.966
68024W        W40372  15.592  24.644  11.014
68025W        W40373  12.325  36.460   3.347
68026W        W40374  13.177  35.509   1.392
68027W        W40375  24.725  27.099   3.684
68028W        W40376  27.691  10.349  10.627
68029W        W40377  21.719  21.216  12.409
68030W        W40378  44.384  22.512  10.919
68031W        W40379  18.220  29.509   9.513
68032W        W40380  39.324  12.247   1.855
68033W        W40381   3.424  15.099  14.280
68034W        W40382  25.484  11.372   2.856
68035W        W40383  32.610  33.981   2.191
68036W        W40384  28.033   6.398   1.224
68037W        W40385  13.700  18.724  12.365
68038W        W40386   7.182  41.394   3.375
68039W        W40387  39.558   7.391   3.723
68040W        W40388  27.093  28.046   3.636
68041W        W40389  11.188  41.490  12.052
68042W        W40390   3.352  29.953  13.827
68043W        W40391  13.171  15.586   0.248
68044W        W40392   6.317  38.376   4.822
68045W        W40393  32.502  26.630  11.003
68046W        W40394   6.278  21.238   1.930
68047W        W40395  23.200  23.991   1.295
68048W        W40396  29.427   1.277  13.478
68049W        W40397  30.635  29.991   2.717
68050W        W40398  38.852  30.124   3.796
68051W        W40399   3.750  43.918   0.760
68052W        W40400   2.239  31.085   1.900
68053W        W40401  31.444   5.338   4.815
68054W        W40402  40.007  14.273   3.374
68055W        W40403  14.763   3.767  14.862
68056W        W40404  37.913  12.198   1.710
68057W        W40405  21.616   9.697   0.803
68058W        W40406  15.286  16.210   4.834
68059W        W40407  22.122  37.003  13.907
68060W        W40408  14.290  16.296  14.020
68061W        W40409  12.784  33.008  11.456
68062W        W40410  12.253  18.557  10.514
68063W        W40411  29.972  28.641   3.654
68064W        W40412  31.932  36.085  10.888
68065W        W40413  35.907   8.326   0.883
68066W        W40414   8.277  36.009  14.287
68067W        W40415  10.754   2.371  12.940
68068W        W40416  32.014  34.399   5.646
68069W        W40417   1.818   6.293  13.318
68070W        W40418  15.168   2.436  14.899
68071W        W40419   2.436  18.068  13.960
68072W        W40420  16.142  41.384  11.063
68073W        W40421   1.455  43.866   0.253
68074W        W40422   5.806  30.545   2.734
68075W        W40423  30.561  13.722  11.083
68076W        W40424  44.444  30.087   4.300
68077W        W40425  10.838  23.508   1.244
68078W        W40426  38.981   6.215  14.347
68079W        W40427  30.914  22.243  10.957
68080W        W40428  42.400   7.669  10.563
68081W        W40429  22.705  16.155  13.388
68082W        W40430   7.666   5.866  10.443
68083W        W40431   7.731   4.812   1.377
68084W        W40432  40.912   8.303   4.834
68085W        W40433   0.329  43.473  12.369
68086W        W40434   3.228   9.208  12.045
68087W        W40435  25.178  20.199  13.404
68088W        W40436  23.531  17.106  14.965
68089W        W40437  35.871   9.793   0.400
68090W        W40438  37.058   3.898   1.440
68091W        W40439  30.943  40.045  11.423
68092W        W40440   2.908  17.563   3.860
68093W        W40441   8.867   7.797   5.315
68094W        W40442   7.181   8.327   2.745
68095W        W40443  30.932  39.361  14.881
68096W        W40444  28.034  30.587   0.756
68097W        W40445   1.237  35.465   3.657
68098W        W40446  21.077  21.723   4.682
68099W        W40447  36.961  21.147   0.379
68100W        W40448  22.204  31.142   3.776
68101W        W40449  17.079   9.293   2.858
68102W        W40450  12.206  15.820  13.873
68103W        W40451  44.840  19.114   3.855
68104W        W40452  16.098   2.415  11.479
68105W        W40453  17.751  34.433  13.904
68106W        W40454   3.383  33.993  13.315
68107W        W40455  44.356   8.704  13.352
68108W        W40456  15.656   4.822  14.846
68109W        W40457  43.819  26.578  13.918
68110W        W40458   6.284  23.676  11.448
68111W        W40459  39.815  15.313   3.667
68112W        W40460  38.535  43.968   1.299
68113W        W40461  26.521  40.850  11.924
68114W        W40462  13.673  32.019   3.757
68115W        W40463   8.793  13.809  12.852
68116W        W40464  20.546  31.440   1.790
68117W        W40465   4.441  29.152  13.486
68118W        W40466   7.766  10.766  14.386
68119W        W40467  25.670  15.719  14.374
68120W        W40468   5.894  31.004  13.445
68121W        W40469  27.494  29.052  13.005
68122W        W40470  33.066  33.380  13.466
68123W        W40471  28.468  25.155  11.941
68124W        W40472  41.851  19.640   5.222
68125W        W40473   3.788  43.889  11.976
68126W        W40474  17.253  39.319   1.771
68127W        W40475  44.842   5.376   3.332
68128W        W40476  24.708  33.480  14.903
68129W        W40477  40.041  21.248   1.741
68130W        W40478   2.887   1.470   2.819
68131W        W40479  43.839  38.874   1.414
68132W        W40480   9.669   6.889   1.771
68133W        W40481  14.176  37.038   1.336
68134W        W40482   9.320   7.832   4.324
68135W        W40483  34.059  14.197   1.382
68136W        W40484  26.666  41.518  14.801
68137W        W40485   9.722   3.405   3.364
68138W        W40486  25.063  26.510  13.313
68139W        W40487  38.472   3.796  14.828
68140W        W40488  23.150  23.220  10.471
68141W        W40489  44.303  36.348   0.843
68142W        W40490   8.888  40.952  11.549
68143W        W40491  17.212  25.068  14.011
68144W        W40492  29.969   5.720   2.701
68145W        W40493  42.902  39.994   3.287
68146W        W40494  23.493  43.497   4.228
68147W        W40495  25.538   8.213  11.432
68148W        W40496  37.404  11.369  14.792
68149W        W40497  14.247  12.230   4.690
68150W        W40498   6.719   4.803   4.219
68151W        W40499  43.798  38.872  14.282
68152W        W40500  10.864  36.081   4.643
68153W        W40501   8.245   0.337  13.356
68154W        W40502  33.508  13.106  12.087
68155W        W40503  18.152  32.459  10.892
68156W        W40504  20.060  37.375  10.914
68157W        W40505   2.799  14.197  12.040
68158W        W40506  36.570  15.696   3.721
68159W        W40507  36.474  27.954  14.818
68160W        W40508  27.157  32.462  10.418
68161W        W40509  36.390  20.256   4.177
68162W        W40510   6.373  29.585  12.407
68163W        W40511   8.312  22.187  11.002
68164W        W40512  34.972  16.207   1.316
68165W        W40513  28.125   5.739  12.579
68166W        W40514   5.898  13.182   3.166
68167W        W40515  10.662  22.704   3.231
68168W        W40516   2.435  19.639   1.704
68169W        W40517  11.806  27.551   1.716
68170W        W40518  29.150  10.806   3.198
68171W        W40519  33.131   0.915   1.293
68172W        W40520  35.493  18.141  11.474
68173W        W40521  37.428  39.435  14.974
68174W        W40522  35.917  36.550   1.749
68175W        W40523  27.974  25.170   2.860
68176W        W40524  35.406  13.700   0.368
68177W        W40525  36.451  33.905  10.622
68178W        W40526  23.234   0.773  13.315
68179W        W40527  37.980  25.489  10.448
68180W        W40528  29.478  34.427  10.989
68181W        W40529  29.536  10.688  11.543
68182W        W40530  24.672  38.071   1.841
68183W        W40531  32.889  13.284   4.199
68184W        W40532   2.430  23.650  14.369
68185W        W40533   9.266  26.155   1.236
68186W        W40534   6.417  17.574  12.087
68187W        W40535   0.432  15.645  11.027
68188W        W40536  34.611  14.695  10.431
68189W        W40537  15.705  43.489   2.230
68190W        W40538  29.138   8.301  12.534
68191W        W40539  37.963  26.496   1.437
68192W        W40540  30.632  35.989   0.352
68193W        W40541  23.649   5.309   2.842
68194W        W40542  39.981  20.720  11.395
68195W        W40543  42.511   0.420   1.444
68196W        W40544  28.597  31.589  14.357
68197W        W40545  21.123  34.979  12.054
68198W        W40546   8.353  41.318   1.775
68199W        W40547   2.343  23.095  11.115
68200W        W40548  16.628  40.803   4.790
68201W        W40549  24.593   8.834   4.716
68202W        W40550  44.268  11.147   4.615
68203W        W40551  18.188  19.072   4.253
68204W        W40552   3.889  18.284   3.167
68205W        W40553  24.576  38.523  11.033
68206W        W40554  10.633  36.989  13.855
68207W        W40555   8.802  29.518   3.151
68208W        W40556  24.213  11.673  12.978
68209W        W40557  14.207  24.202  10.625
68210W        W40558   8.823  13.249  11.065
68211W        W40559  13.685   3.832   1.219
68212W        W40560   9.318  28.532  13.319
68213W        W40561  31.517  39.924   0.349
68214W        W40562  36.853  37.978   3.170
68215W        W40563  10.364   0.743   0.935
68216W        W40564  44.328  16.117   4.788
68217W        W40565  21.153  12.797   3.852
68218W        W40566   1.930  17.180  13.028
68219W        W40567  28.129  25.683  14.405
68220W        W40568  42.323  27.665  11.001
68221W        W40569  41.990  37.068  11.569
68222W        W40570   7.221  42.822   2.312
68223W        W40571   0.797   3.762  14.882
68224W        W40572  36.925  20.116   1.391
68225W        W40573  31.563  30.552   2.191
68226W        W40574  40.376  16.649  11.008
68227W        W40575  21.099  33.060  11.495
68228W        W40576  15.233  15.650  12.010
68229W        W40577  39.833  43.983   3.209
68230W        W40578  11.861  38.835  13.535
68231W        W40579  36.530  37.924   1.216
68232W        W40580  16.728  19.176   1.825
68233W        W40581  15.188  31.082  14.293
68234W        W40582  37.421  18.097   4.200
68235W        W40583   5.791  25.035   0.882
68236W        W40584  12.162  25.649  13.974
68237W        W40585  35.434  12.147  12.369
68238W        W40586   1.869   0.870  12.371
68239W        W40587  32.617  24.036   2.181
68240W        W40588   6.227  17.249   0.738
68241W        W40589  35.541   6.836  11.482
68242W        W40590   5.719  24.134  13.976
68243W        W40591  33.583  12.300   2.255
68244W        W40592  36.062  18.655   4.164
68245W        W40593  25.140  44.375  11.037
68246W        W40594  22.590  41.796  11.049
68247W        W40595   4.332  22.111  14.996
68248W        W40596  31.079  24.662  14.503
68249W        W40597   5.717   7.235   2.774
68250W        W40598  30.000  27.086   0.464
68251W        W40599  15.786  36.484   2.807
68252W        W40600  35.873  17.777  13.852
68253W        W40601  28.171  29.530  10.890
68254W        W40602  27.130  40.386   1.398
68255W        W40603   7.749  12.334   0.849
68256W        W40604  25.569  40.052   0.908
68257W        W40605  18.712  10.285   0.269
68258W        W40606  42.493  41.797   4.159
68259W        W40607  40.998  39.894   2.345
68260W        W40608  16.731   2.958   4.241
68261W        W40609  35.898  15.705   3.672
68262W        W40610  15.134   9.324  13.505
68263W        W40611  26.495  39.873   3.770
68264W        W40612  33.437  27.074   0.897
68265W        W40613  37.375  32.495   5.091
68266W        W40614  16.652  17.662  13.951
68267W        W40615   3.262  11.685  14.011
68268W        W40616  17.767  41.440   2.735
68269W        W40617  20.628  20.115  10.619
68270W        W40618  20.088  19.104  14.021
68271W        W40619  30.455   8.827   1.808
68272W        W40620  11.855  16.279  13.521
68273W        W40621   4.247  26.164   2.379
68274W        W40622  10.330   2.795   0.775
68275W        W40623  31.453  31.503  11.044
68276W        W40624   9.368  10.322   0.838
68277W        W40625  38.356   5.746   5.246
68278W        W40626   4.819  32.901   2.195
68279W        W40627  34.043  16.236  12.422
68280W        W40628  37.337   9.262   3.259
68281W        W40629   3.901  15.143   3.164
68282W        W40630  14.793   6.716   3.701
68283W        W40631  42.467  15.606  12.027
68284W        W40632  26.198   7.262   1.797
68285W        W40633   5.773  11.331  11.417
68286W        W40634  30.413  39.911  14.838
68287W        W40635  34.949  19.085   0.755
68288W        W40636   5.904  26.562   2.835
68289W        W40637  13.314  26.203   0.301
68290W        W40638  39.487   4.339  14.405
68291W        W40639  28.059  23.569   3.690
68292W        W40640   5.791   0.478  10.988
68293W        W40641  12.630  28.619  11.082
68294W        W40642  16.086  41.934  11.999
68295W        W40643  40.431  31.567   3.727
68296W        W40644  12.283  29.995  14.016
68297W        W40645   6.413  30.527   1.759
68298W        W40646  41.362   3.403   4.677
68299W        W40647   1.779  20.238  14.282
68300W        W40648   3.435   1.752   2.875
68301W        W40649  39.993  25.644  11.003
68302W        W40650   7.748  41.917  11.071
68303W        W40651  18.176  26.959   3.858
68304W        W40652  42.375  40.958  12.417
68305W        W40653   9.655   5.361  14.818
68306W        W40654  39.867  38.875  11.021
68307W        W40655  37.509  13.265   4.601
68308W        W40656  32.400  10.837  10.533
68309W        W40657  38.898  35.955  12.361
68310W        W40658   2.877  13.755   3.659
68311W        W40659  13.695   9.644  10.590
68312W        W40660   0.447  40.537  10.970
68313W        W40661  26.038  36.445   2.291
68314W        W40662  39.326  41.494   1.244
68315W        W40663   5.356  26.497  13.999
68316W        W40664  42.820   0.792   2.381
68317W        W40665  11.241  15.305   2.788
68318W        W40666  30.051  44.373   3.272
68319W        W40667   1.968  41.962  14.839
68320W        W40668  12.312  31.630   4.195
68321W        W40669   8.738  40.918   2.405
68322W        W40670  20.701  26.563   3.182
68323W        W40671  37.458   1.751   0.430
68324W        W40672   0.276  13.111   1.844
68325W        W40673  20.639  17.679  12.371
68326W        W40674  33.899  38.965   3.819
68327W        W40675  10.324  40.351   0.483
68328W        W40676  19.044   2.460   2.696
68329W        W40677  32.006  14.327  10.413
68330W        W40678   4.308  19.110  11.488
68331W        W40679   1.765  42.406   2.247
68332W        W40680  14.731   0.372  11.960
68333W        W40681  23.004  15.123   4.266
68334W        W40682   9.280  27.107  14.336
68335W        W40683  32.972  11.242   2.210
68336W        W40684  36.968  10.207  10.951
68337W        W40685  38.045  43.335  14.815
68338W        W40686  12.626  18.143   4.680
68339W        W40687  10.660  37.071   0.393
68340W        W40688  20.118  16.259   4.655
68341W        W40689  19.238  29.605  12.947
68342W        W40690  13.651  38.980  13.498
68343W        W40691  18.217  14.200   1.863
68344W        W40692  19.616  10.379   9.926
68345W        W40693   2.318  29.085   1.214
68346W        W40694  30.106  27.074   0.949
68347W        W40695  43.284  28.962   1.334
68348W        W40696  16.779  40.005  10.931
68349W        W40697   7.355  13.738  13.824
68350W        W40698  20.044  12.320  12.341
68351W        W40699  26.486  42.514  12.027
68352W        W40700   4.838  23.117   1.744
68353W        W40701  41.842  12.798  13.795
68354W        W40702  28.635  29.953   4.241
68355W        W40703  18.168  30.940   2.888
68356W        W40704  12.693  20.143   0.842
68357W        W40705  21.137  19.541   4.155
68358W        W40706   0.810   6.213  12.536
68359W        W40707  14.211  12.315  13.896
68360W        W40708   0.353  22.604   4.822
68361W        W40709  30.483  31.646   2.812
68362W        W40710  32.564  17.204  14.865
68363W        W40711  31.462   4.447   1.248
68364W        W40712  17.101  16.709  14.385
68365W        W40713  20.070  43.877   4.722
68366W        W40714  30.653  26.127  14.956
68367W        W40715  39.064  27.087  11.595
68368W        W40716  16.790  23.028   1.769
68369W        W40717  17.758  21.523   0.343
68370W        W40718  26.667  10.871   4.336
68371W        W40719   3.861   1.882  14.432
68372W        W40720  14.823  18.152   3.717
68373W        W40721   6.858  17.664  11.020
68374W        W40722   4.385  25.209  12.055
68375W        W40723   4.874  41.818   3.229
68376W        W40724   6.343  19.627   1.779
68377W        W40725   9.787  34.614   4.232
68378W        W40726  28.990  23.109  14.949
68379W        W40727  10.780   7.345  12.506
68380W        W40728   2.444  21.716   2.720
68381W        W40729  12.300  41.957   0.450
68382W        W40730   3.293  12.192  14.485
68383W        W40731  30.527  25.572   0.812
68384W        W40732  30.452  31.131   0.828
68385W        W40733  33.503  29.163   3.186
68386W        W40734  23.542  33.911   3.250
68387W        W40735  44.997  27.108  10.477
68388W        W40736  10.347  26.010  11.413
68389W        W40737  32.466  39.055   4.835
68390W        W40738  37.008   6.766   9.454
68391W        W40739  14.150  36.908   0.295
68392W        W40740  10.143   1.873  14.760
68393W        W40741  22.650   0.778  11.070
68394W        W40742   9.317  37.515  12.437
68395W        W40743   8.162  22.113   3.784
68396W        W40744   8.654   2.866   1.387
68397W        W40745  16.078  43.796  11.599
68398W        W40746  34.426  42.464   3.651
68399W        W40747   6.915  40.401   1.440
68400W        W40748  31.495  13.308  14.910
68401W        W40749  40.950  34.610  11.440
68402W        W40750  36.872  41.325   1.298
68403W        W40751  11.700   2.277  11.477
68404W        W40752  26.182  31.111   2.727
68405W        W40753  19.688  28.624   1.732
68406W        W40754   0.386  17.178   0.965
68407W        W40755  43.774   3.268   2.278
68408W        W40756  25.683   1.742  14.514
68409W        W40757  17.071  28.526  11.939
68410W        W40758   3.440  42.975   0.818
68411W        W40759   8.893  44.897   0.465
68412W        W40760  19.541   3.721  14.327
68413W        W40761   7.277   7.212   3.273
68414W        W40762   4.896  44.005   1.294
68415W        W40763   7.796  18.651  10.536
68416W        W40764  25.086  36.927   1.813
68417W        W40765  10.272  17.090  10.889
68418W        W40766   0.478  39.502   2.257
68419W        W40767  30.615  34.427  12.063
68420W        W40768  35.404  10.215  11.079
68421W        W40769  41.920  30.013   3.698
68422W        W40770  22.099   5.775   3.680
68423W        W40771  10.683  41.977   2.754
68424W        W40772  26.126   2.431   4.344
68425W        W40773  32.962  10.158  12.958
68426W        W40774  14.678  32.397   3.270
68427W        W40775  15.129  11.740  10.926
68428W        W40776  12.793  40.519  14.439
68429W        W40777   6.909  42.960   2.189
68430W        W40778  40.344  22.590  13.482
68431W        W40779  14.590  32.507  12.013
68432W        W40780  10.166  29.612   3.379
68433W        W40781  26.607  35.552  14.012
68434W        W40782  25.158  10.715  14.952
68435W        W40783  35.470  31.603  13.835
68436W        W40784  16.299   0.879   4.659
68437W        W40785   4.279  38.891  14.478
68438W        W40786  29.918  35.570  14.001
68439W        W40787  15.756  14.672   2.766
68440W        W40788  24.582  21.657   3.749
68441W        W40789  18.640  30.413  11.533
68442W        W40790   3.329  44.010   3.348
68443W        W40791   2.246  30.634  10.972
68444W        W40792  28.632  39.872  13.822
68445W        W40793  29.449  31.527   3.749
68446W        W40794  10.192  40.540  11.586
68447W        W40795  31.464  31.144  12.981
68448W        W40796   4.223   5.322   4.829
68449W        W40797  18.238  37.014   1.341
68450W        W40798  40.931   2.306  11.942
68451W        W40799  23.512  21.691   0.759
68452W        W40800   8.681  16.798  12.492
68453W        W40801  19.748  20.650  10.428
68454W        W40802  23.134  40.851   0.278
68455W        W40803  11.740  28.628   4.669
68456W        W40804  38.939  14.687  10.422
68457W        W40805  44.860   0.277  12.473
68458W        W40806   1.859  39.437   1.859
68459W        W40807  11.683  20.052   0.790
68460W        W40808  10.334  24.637   1.372
68461W        W40809  29.985  32.108  14.475
68462W        W40810  16.136  23.201   0.312
68463W        W40811   7.785  30.045  13.475
68464W        W40812  21.742   4.219   3.834
68465W        W40813   1.312  33.396   1.312
68466W        W40814   6.737  15.174   0.862
68467W        W40815  15.151  22.696   0.439
68468W        W40816  31.439   7.766   9.665
68469W        W40817  22.558  37.507  13.366
68470W        W40818  32.605  18.271   2.321
68471W        W40819  22.039  43.821  13.908
68472W        W40820  40.856  27.115  13.452
68473W        W40821  38.368   4.394  14.008
68474W        W40822   8.210  44.301  13.327
68475W        W40823  40.460  38.419   2.726
68476W        W40824   9.199  29.934  12.443
68477W        W40825  24.008   9.334  11.900
68478W        W40826  11.137  30.641   0.397
68479W        W40827   8.743  38.863  14.787
68480W        W40828   0.877   3.823  14.009
68481W        W40829  41.894  28.474   4.619
68482W        W40830  11.669  30.599   0.473
68483W        W40831  37.543  15.818   0.854
68484W        W40832   8.329  41.505   2.406
68485W        W40833  27.537  37.396   4.152
68486W        W40834  29.594   4.854  11.516
68487W        W40835  23.705  23.089   0.851
68488W        W40836  35.426   4.753  12.881
68489W        W40837  17.286  35.031   3.166
68490W        W40838   1.288  41.859  10.982
68491W        W40839  42.346   5.392  10.505
68492W        W40840  28.673   3.327   2.891
68493W        W40841  17.696  10.651   1.790
68494W        W40842  24.605   5.747  11.001
68495W        W40843  40.992  20.734   2.357
68496W        W40844   0.389  10.176  10.997
68497W        W40845  30.435  44.400   2.806
68498W        W40846   4.878  42.442  14.973
68499W        W40847  18.662  42.022   0.481
68500W        W40848   7.298  25.550   0.447
68501W        W40849  32.928  31.152   2.666
68502W        W40850  14.711   0.448  13.951
68503W        W40851  29.465  42.409  14.359
68504W        W40852  20.604  34.406  11.558
68505W        W40853  34.450  15.211   2.668
68506W        W40854  43.993  41.470  11.382
68507W        W40855  31.985  39.417   0.933
68508W        W40856  41.955   9.299   4.632
68509W        W40857  26.673  35.077  14.500
68510W        W40858  43.310  44.489  12.825
68511W        W40859   9.725  11.687  12.563
68512W        W40860  26.570  40.838   1.835
68513W        W40861   2.304  26.541   4.685
68514W        W40862   2.423   1.789   3.742
68515W        W40863  37.963   4.870   0.434
68516W        W40864  33.507  35.548  14.787
68517W        W40865  11.649  36.475  12.874
68518W        W40866  31.916  13.133   0.904
68519W        W40867   4.765  41.847   4.666
68520W        W40868  31.427  13.604  13.522
68521W        W40869  21.602  43.427   4.789
68522W        W40870  25.710  37.932   3.161
68523W        W40871  38.013  22.688   1.722
68524W        W40872  35.565  21.717   3.320
68525W        W40873   2.413  26.498   1.814
68526W        W40874  27.559   6.307  12.886
68527W        W40875  33.886  11.663   1.439
68528W        W40876   6.426  37.074  11.570
68529W        W40877  40.499  14.096   5.134
68530W        W40878  32.999  12.770  13.814
68531W        W40879  43.365  19.072   2.762
68532W        W40880  37.457  38.331  10.946
68533W        W40881   2.752  43.435  14.930
68534W        W40882   3.230  39.423  12.914
68535W        W40883  34.057  26.608  11.001
68536W        W40884  30.079  15.722  10.416
68537W        W40885  13.735  20.543   2.250
68538W        W40886  24.568  28.597   2.867
68539W        W40887  44.763  34.390   3.313
68540W        W40888  22.718  22.187  13.470
68541W        W40889   9.687  23.656  12.532
68542W        W40890  35.584  37.410  12.032
68543W        W40891  36.893  31.018  12.550
68544W        W40892   7.292   8.765   2.416
68545W        W40893   6.883   5.827   4.659
68546W        W40894   0.870  16.146   0.482
68547W        W40895  41.457   7.801  11.596
68548W        W40896   8.258  12.302  10.445
68549W        W40897  40.505  14.632   2.290
68550W        W40898   5.205  28.067   1.280
68551W        W40899  10.748  21.654  10.156
68552W        W40900  14.283  33.546  12.849
68553W        W40901  19.205  20.748   3.787
68554W        W40902  36.465   2.325   1.873
68555W        W40903  16.779  30.160  10.090
68556W        W40904  11.244  33.098   1.720
68557W        W40905  39.450   8.227  13.906
68558W        W40906  17.110   2.820   3.156
68559W        W40907  43.999  32.479  13.533
68560W        W40908  42.406  34.935   2.678
68561W        W40909  38.922  44.314   1.396
68562W        W40910  32.429  39.048   0.902
68563W        W40911  43.292  39.808  13.800
68564W        W40912  22.695  17.238  10.550
68565W        W40913  35.381  21.672  13.843
68566W        W40914  22.586  41.993   2.365
68567W        W40915  20.554   5.887   0.748
68568W        W40916  25.079  41.924   4.734
68569W        W40917   2.822  10.857  14.995
68570W        W40918  13.350   4.356  10.584
68571W        W40919  15.235  43.910   3.202
68572W        W40920   4.889  22.216  11.122
68573W        W40921  17.140  10.190   4.651
68574W        W40922  25.519   4.295   2.310
68575W        W40923  40.412   4.852   2.260
68576W        W40924  18.192  28.144  11.553
68577W        W40925  36.899   2.865  14.495
68578W        W40926  31.454  24.194   2.779
68579W        W40927  12.163  41.404  13.400
68580W        W40928  44.821  20.078   0.867
68581W        W40929  11.681  19.105   3.376
68582W        W40930  41.380   2.354   3.252
68583W        W40931  44.997   8.194   3.777
68584W        W40932  33.484  17.285   3.810
68585W        W40933   3.224   1.450   0.372
68586W        W40934  29.104  41.818  12.981
68587W        W40935   5.350  38.934   4.297
68588W        W40936  25.614  35.468   2.415
68589W        W40937  28.458  44.850   3.357
68590W        W40938   1.440  17.062  12.084
68591W        W40939   7.788   3.744   2.226
68592W        W40940  19.072  32.108   3.693
68593W        W40941   7.254   4.727   0.730
68594W        W40942   5.437  28.167   3.747
68595W        W40943  38.494  20.547   0.896
68596W        W40944  36.963   6.391   1.303
68597W        W40945  36.482   0.285   5.136
68598W        W40946  32.081  21.158  11.023
68599W        W40947  14.199  41.824   1.406
68600W        W40948  42.018  43.842   2.338
68601W        W40949  16.710  20.256  14.400
68602W        W40950  43.988  33.963  10.519
68603W        W40951  26.015  13.343   3.349
68604W        W40952  26.206  11.767   2.239
68605W        W40953  37.403  23.602   0.788
68606W        W40954  21.078   9.698  14.298
68607W        W40955  23.188   3.453  14.846
68608W        W40956  44.499  30.561  14.944
68609W        W40957  38.392   1.928   0.926
68610W        W40958  32.580  34.881   1.328
68611W        W40959  33.507  22.713  14.764
68612W        W40960   6.829  32.547   3.658
68613W        W40961  43.489  13.748  13.323
68614W        W40962  17.794  12.719  13.938
68615W        W40963  41.811  39.394   2.765
68616W        W40964   0.743   2.386  13.498
68617W        W40965  11.700   2.927  12.042
68618W        W40966  28.638   3.728   1.217
68619W        W40967  38.451  35.899   1.779
68620W        W40968  36.925   5.889  11.502
68621W        W40969  24.507  39.435  13.931
68622W        W40970  22.015  12.722  10.571
68623W        W40971   9.691  19.778   0.469
68624W        W40972   7.417  22.677   3.263
68625W        W40973   4.302   0.845   0.798
68626W        W40974   4.414   8.283  13.907
68627W        W40975  16.812   8.241  11.059
68628W        W40976  33.408   6.882  11.856
68629W        W40977  35.896  10.318  11.428
68630W        W40978  13.220  30.061  13.875
68631W        W40979  35.519  14.597  13.799
68632W        W40980  25.607  37.867   4.836
68633W        W40981  33.099  44.468  12.393
68634W        W40982  27.149   8.881  11.447
68635W        W40983  32.984  28.035  13.908
68636W        W40984  44.815   4.713   3.697
68637W        W40985  42.467  11.355   4.292
68638W        W40986  25.560  40.958  11.000
68639W        W40987   1.929  19.128  11.471
68640W        W40988  41.921  19.737  14.416
68641W        W40989   0.342  19.736   1.931
68642W        W40990  37.038  14.204  10.465
68643W        W40991   7.351  35.457   2.293
68644W        W40992  38.007  39.318  11.602
68645W        W40993  22.596   0.801  14.409
68646W        W40994  43.364  38.487  14.978
68647W        W40995   1.275  37.381   2.199
68648W        W40996  12.829  34.977   1.751
68649W        W40997  23.553   4.360   1.794
68650W        W40998  28.170  29.635  11.451
68651W        W40999  34.903  29.060   0.291
68652W        W41000  19.622  19.706  11.954
68653W        W41001  38.498  24.638   0.804
68654W        W41002   8.362  35.889  11.114
68655W        W41003  17.613  18.079   2.213
68656W        W41004   7.339  14.619   3.854
68657W        W41005  16.782  30.056   0.389
68658W        W41006   4.748  33.436  11.988
68659W        W41007  43.792   4.374   2.183
68660W        W41008  10.137  25.482  14.293
68661W        W41009  33.982   2.383   4.177
68662W        W41010   1.813  37.065   2.241
68663W        W41011  26.013  22.534   2.237
68664W        W41012  24.691   4.350   1.844
68665W        W41013  23.707  37.394   2.255
68666W        W41014  32.015  20.166   0.481
68667W        W41015  10.648  16.698   1.704
68668W        W41016  44.485  12.309  10.413
68669W        W41017  44.384  16.254   0.731
68670W        W41018  40.835  12.165  11.092
68671W        W41019  36.393  41.931   1.415
68672W        W41020  18.643   5.429  11.873
68673W        W41021   4.788   4.403   0.259
68674W        W41022   6.792  37.930   2.824
68675W        W41023  10.370   6.737   0.893
68676W        W41024  20.675  10.151   3.180
68677W        W41025  12.192  44.969   3.350
68678W        W41026  44.006  32.463   3.673
68679W        W41027   9.737   5.710   9.460
68680W        W41028   5.924  43.001   2.360
68681W        W41029  43.918  35.853   4.775
68682W        W41030   9.791  10.155   4.774
68683W        W41031   5.360  20.174   4.326
68684W        W41032  16.247  35.852   2.776
68685W        W41033  18.617  13.704   4.211
68686W        W41034   6.232   2.388   3.275
68687W        W41035  32.962  31.977   3.807
68688W        W41036  16.122  35.538  12.513
68689W        W41037  34.970   6.807   3.718
68690W        W41038   0.262  21.728   3.638
68691W        W41039  37.853  17.594   1.217
68692W        W41040  12.629  39.338   2.672
68693W        W41041  23.006  27.510  14.481
68694W        W41042  19.170  11.359   3.763
68695W        W41043  18.572  28.492   2.242
68696W        W41044  28.987  28.509  11.905
68697W        W41045  12.202  43.485  14.414
68698W        W41046  19.169   8.287   0.851
68699W        W41047   1.889   4.903   4.787
68700W        W41048  17.152  24.190  13.970
68701W        W41049   5.799  32.481   1.847
68702W        W41050   2.937   6.264   3.705
68703W        W41051  44.819  19.068  13.879
68704W        W41052  10.278  37.382   0.951
68705W        W41053  38.956  31.959   2.702
68706W        W41054  31.641   8.342  13.447
68707W        W41055  17.693  27.165  10.892
68708W        W41056  28.182  21.253  14.367
68709W        W41057  38.845  39.398   4.215
68710W        W41058  40.394   4.744  11.442
68711W        W41059  16.121  38.464  10.445
68712W        W41060  11.766  29.664   4.237
68713W        W41061  39.896  27.595  10.467
68714W        W41062  20.047  11.779  12.354
68715W        W41063  12.128  32.399   4.324
68716W        W41064   8.757  38.056  13.491
68717W        W41065   1.379  18.219  10.435
68718W        W41066   4.233  40.965  10.487
68719W        W41067  31.099  30.075   3.312
68720W        W41068  18.558  22.039  14.996
68721W        W41069   4.337  15.160  14.423
68722W        W41070  36.910  34.465  14.874
68723W        W41071   4.407   5.269   0.837
68724W        W41072   5.894  35.962   4.115
68725W        W41073  41.413  32.505   3.321
68726W        W41074  15.772  27.996  12.419
68727W        W41075   9.685  35.547   1.295
68728W        W41076  25.154  21.022   2.713
68729W        W41077  32.940  37.884   0.808
68730W        W41078  32.032   0.427  14.783
68731W        W41079  43.891  11.210   0.483
68732W        W41080  15.143  26.192  10.453
68733W        W41081  31.620   3.350  12.035
68734W        W41082  10.216  22.008  11.411
68735W        W41083  20.536  27.580  11.436
68736W        W41084   3.763   7.345   2.382
68737W        W41085  13.209  31.514   4.792
68738W        W41086  16.209  24.586  13.830
68739W        W41087  38.556   9.393   3.219
68740W        W41088  29.549   7.341  10.614
68741W        W41089  37.483  37.983  13.923
68742W        W41090  21.590   2.235   4.123
68743W        W41091   5.347  16.280   0.843
68744W        W41092  30.998  39.809  10.114
68745W        W41093  25.063  34.531  12.921
68746W        W41094   6.367  17.662   2.683
68747W        W41095  19.159  40.415   4.624
68748W        W41096  11.184  35.945   1.831
68749W        W41097  23.189  27.971  11.117
68750W        W41098   6.347  14.764  12.892
68751W        W41099   5.276  42.984   3.649
68752W        W41100  31.472  21.076  12.071
68753W        W41101  23.654   0.960   0.847
68754W        W41102  41.934   9.179  13.034
68755W        W41103   3.823  29.051  12.878
68756W        W41104  32.901   9.800  12.829
68757W        W41105   6.288  10.868   1.714
68758W        W41106  24.710  14.787   4.223
68759W        W41107  20.660   6.365   3.825
68760W        W41108   2.844  38.353   3.747
68761W        W41109  43.958   5.246  13.906
68762W        W41110  14.708  40.372   2.706
68763W        W41111   7.849   2.364   1.357
68764W        W41112  32.987  36.452   3.229
68765W        W41113  41.411  28.459   4.251
68766W        W41114  14.818   5.893  13.996
68767W        W41115  27.005   2.958  14.816
68768W        W41116  44.788  28.154   2.754
68769W        W41117  12.655  40.961  13.330
68770W        W41118  30.426  28.571  11.094
68771W        W41119  34.919   1.968  11.067
68772W        W41120   8.361  11.177  13.512
68773W        W41121  17.685  24.166   2.778
68774W        W41122  31.583  24.208   4.685
68775W        W41123  27.015  37.023   1.707
68776W        W41124  33.611  33.942   0.749
68777W        W41125  25.490   2.847  14.863
68778W        W41126   8.235   4.790   2.319
68779W        W41127   1.773  36.413  12.030
68780W        W41128  43.018  35.083  12.491
68781W        W41129  12.762   7.175   4.610
68782W        W41130   3.380   4.395   0.782
68783W        W41131  15.799  27.036   0.828
68784W        W41132  26.079  33.441   0.782
68785W        W41133  36.959  33.382   3.329
68786W        W41134  29.954  41.430   0.734
68787W        W41135  39.931   8.210   0.309
68788W        W41136  24.086   4.901  13.799
68789W        W41137  23.091  30.949   2.385
68790W        W41138  43.355  19.555   3.679
68791W        W41139  42.444   0.900  11.428
68792W        W41140  39.460  37.357  13.408
68793W        W41141   9.705  23.007   3.218
68794W        W41142  26.980  16.081  11.944
68795W        W41143  31.541  18.092   3.834
68796W        W41144  42.825  24.627  10.583
68797W        W41145  26.575  10.196  12.377
68798W        W41146   1.265   7.750   0.860
68799W        W41147   4.293  42.303  14.864
68800W        W41148  26.638  19.572   1.284
68801W        W41149  16.583  24.594   4.162
68802W        W41150  38.530  25.210  11.909
68803W        W41151  26.685   7.284  13.363
68804W        W41152   7.304  40.050   3.669
68805W        W41153  20.129  25.058   0.803
68806W        W41154  29.593  36.367  13.486
68807W        W41155   0.445  38.357  13.358
68808W        W41156  35.547  35.598  13.902
68809W        W41157  35.009   1.322  14.334
68810W        W41158  15.731  25.563   1.872
68811W        W41159  41.820  16.572  14.907
68812W        W41160  37.840  21.122   9.471
68813W        W41161   1.901  37.909  14.325
68814W        W41162   2.332  41.846  11.515
68815W        W41163   7.680  13.174   0.357
68816W        W41164  13.247  32.004   0.753
68817W        W41165  27.556  40.382  14.315
68818W        W41166  31.571   9.224   0.884
68819W        W41167  31.601   7.270   3.178
68820W        W41168  29.987  27.528  10.970
68821W        W41169   1.280  36.474  11.044
68822W        W41170  30.994   5.361  14.479
68823W        W41171   9.650   9.265   2.828
68824W        W41172  34.569  41.021   1.921
68825W        W41173   7.753  17.306  14.002
68826W        W41174  22.607  30.111   3.157
68827W        W41175  22.172  42.410   0.834
68828W        W41176   4.356   0.462  13.377
68829W        W41177  33.479  34.592   0.443
68830W        W41178  17.596  36.017   2.793
68831W        W41179   3.824  16.199  12.962
68832W        W41180  16.810  27.067  10.443
68833W        W41181   5.296  29.622  14.867
68834W        W41182  26.486  11.140  11.993
68835W        W41183  39.549  15.253  11.900
68836W        W41184   4.436  43.930   1.760
68837W        W41185  36.931  43.381   3.652
68838W        W41186  23.171  24.162  13.842
68839W        W41187  30.477  16.150  14.319
68840W        W41188   2.266  12.228  12.834
68841W        W41189   4.836  18.112  11.036
68842W        W41190  29.978  43.497  14.395
68843W        W41191   9.376  27.538   0.421
68844W        W41192   1.330   1.767   0.929
68845W        W41193  27.012   0.335   1.240
68846W        W41194  36.999  22.593  14.377
68847W        W41195  24.072  13.333  13.973
68848W        W41196  12.125  24.704   0.265
68849W        W41197  37.023  28.109   3.774
68850W        W41198   5.899   7.288   3.186
68851W        W41199  38.328  12.629  13.344
68852W        W41200  25.112  29.021  13.063
68853W        W41201  17.208   3.371  14.509
68854W        W41202   5.218  22.127  14.314
68855W        W41203  24.585  20.630  14.350
68856W        W41204  42.877   3.242   4.230
68857W        W41205  15.087  14.597   3.269
68858W        W41206  43.493  42.376  13.395
68859W        W41207  23.164  25.697   3.704
68860W        W41208  39.821   6.731   4.654
68861W        W41209  40.418  11.130   0.420
68862W        W41210  22.104   2.741   4.778
68863W        W41211   8.341  26.530   3.268
68864W        W41212  38.433   9.316   1.371
68865W        W41213  20.252  36.033  11.870
68866W        W41214  32.621   4.829  13.848
68867W        W41215  27.456  10.300   3.261
68868W        W41216  20.124  17.720   4.158
68869W        W41217   3.784  25.508   4.336
68870W        W41218   2.285  36.410  11.527
68871W        W41219  38.044   5.891   4.630
68872W        W41220   6.426  43.873  14.332
68873W        W41221  12.344  19.208  10.476
68874W        W41222  30.973  12.704   2.285
68875W        W41223  22.130  31.468  13.944
68876W        W41224   6.823  36.988  10.595
68877W        W41225  27.042  39.394   3.654
68878W        W41226  22.725  43.444  14.947
68879W        W41227  11.244  38.405  14.001
68880W        W41228  41.998  21.674   1.812
68881W        W41229  21.608  35.974  11.530
68882W        W41230  21.727  43.307  12.069
68883W        W41231   8.863  22.243   3.721
68884W        W41232  33.131  33.626  11.552
68885W        W41233  26.111   5.894   0.440
68886W        W41234  35.941  39.977  14.821
68887W        W41235  12.196  10.660   3.190
68888W        W41236  14.811  15.314   0.855
68889W        W41237  18.670  34.463  11.599
68890W        W41238   2.819  43.473   2.878
68891W        W41239  22.668  41.522   3.822
68892W        W41240  44.826  18.560  14.831
68893W        W41241  20.617  24.175  13.370
68894W        W41242   4.289  28.658  12.454
68895W        W41243   8.221   1.934   1.903
68896W        W41244   0.830  17.208  10.912
68897W        W41245   4.241   4.943   0.951
68898W        W41246  35.431  19.195  11.082
68899W        W41247  27.025  37.464  12.050
68900W        W41248   4.763  27.022  12.860
68901W        W41249  16.175  42.448   3.658
68902W        W41250   0.250  30.957   0.872
68903W        W41251   0.471   3.278  14.800
68904W        W41252   2.330  40.819  13.454
68905W        W41253  29.951  34.871   3.360
68906W        W41254   6.863  24.531   3.356
68907W        W41255  27.523  21.067  12.553
68908W        W41256   8.178  11.153   3.735
68909W        W41257  14.673  42.913   1.233
68910W        W41258   1.820  22.573   0.331
68911W        W41259  40.909  11.865   1.779
68912W        W41260  21.257  24.658  10.494
68913W        W41261  37.881  42.317  11.521
68914W        W41262  11.674  40.924   3.714
68915W        W41263  37.470  26.694   1.323
68916W        W41264   2.458  20.645   0.374
68917W        W41265  38.061   2.887   1.327
68918W        W41266   7.211   7.752  13.867
68919W        W41267   5.392  36.350  10.624
68920W        W41268  37.892  28.047   3.206
68921W        W41269  24.609   0.333   0.878
68922W        W41270  16.161  26.610  11.521
68923W        W41271   1.755  12.617  10.574
68924W        W41272  20.038  13.303  13.960
68925W        W41273   2.945  12.619   4.200
68926W        W41274  10.360  40.811   0.869
68927W        W41275  41.324  21.035  12.873
68928W        W41276  39.367  36.049  12.086
68929W        W41277  42.985  13.791   4.133
68930W        W41278  17.590  25.534  11.396
68931W        W41279  30.954  21.039  12.953
68932W        W41280  39.374  24.593   4.643
68933W        W41281   9.303  35.387   3.788
68934W        W41282  30.538  17.139   5.197
68935W        W41283  16.088  36.425   4.166
68936W        W41284  30.957  36.989  12.402
68937W        W41285   7.871  15.770  10.629
68938W        W41286  44.931  28.638  13.394
68939W        W41287  12.809  40.323   2.893
68940W        W41288  28.639  19.156   0.934
68941W        W41289  42.328  15.604  13.041
68942W        W41290  22.998   4.441  14.971
68943W        W41291  35.015   7.864   1.330
68944W        W41292  42.382   6.320  12.480
68945W        W41293  23.549   1.330  10.513
68946W        W41294  26.573  36.516   0.336
68947W        W41295   0.853   9.782  14.422
68948W        W41296  34.518  22.180  14.018
68949W        W41297   5.750  20.227  10.493
68950W        W41298  39.367  11.638  14.510
68951W        W41299  20.198   9.883  14.867
68952W        W41300  36.445   9.745  11.579
68953W        W41301   8.818  28.011   1.213
68954W        W41302  25.612  33.390  10.142
68955W        W41303  10.800   7.851   4.278
68956W        W41304  26.040   3.802   0.468
68957W        W41305  37.362  21.756   3.715
68958W        W41306  33.419  29.560  10.500
68959W        W41307  38.915  32.952  14.910
68960W        W41308  44.325   1.429   0.260
68961W        W41309  38.395  36.914   4.813
68962W        W41310  38.392  35.604  13.995
68963W        W41311  23.711  23.509  14.877
68964W        W41312  21.724  30.619   2.373
68965W        W41313  16.119  22.549  14.362
68966W        W41314  20.152  41.893   3.720
68967W        W41315  24.495  10.343  14.879
68968W        W41316  19.230  25.565  14.302
68969W        W41317  20.128  15.267   4.830
68970W        W41318  38.995  10.786  14.507
68971W        W41319  25.128  11.288  12.517
68972W        W41320  33.960   5.921   1.321
68973W        W41321  29.513  10.796   1.826
68974W        W41322  39.909   4.211  14.434
68975W        W41323  41.503  17.750  13.898
68976W        W41324  25.692  35.978   4.617
68977W        W41325  41.798   9.383  12.454
68978W        W41326  22.710  40.533  12.385
68979W        W41327   0.448  31.063   0.279
68980W        W41328  35.030   4.442  10.528
68981W        W41329   6.876   9.702   4.307
68982W        W41330  28.000  44.954  14.487
68983W        W41331   7.371  43.374  11.461
68984W        W41332  26.968   4.363   4.797
68985W        W41333  16.171  14.834  11.920
68986W        W41334  31.458   7.229   2.797
68987W        W41335  11.622   5.358  11.124
68988W        W41336  14.625  41.514  13.441
68989W        W41337   4.364  16.287  14.922
68990W        W41338  34.059  11.778  12.420
68991W        W41339  25.069  42.999  14.919
68992W        W41340  27.628  33.892   2.191
68993W        W41341  23.658  24.072   3.808
68994W        W41342  38.387  38.838   0.345
68995W        W41343  23.504  18.233  10.925
68996W        W41344  32.082   6.884  11.588
68997W        W41345  29.155  21.062   2.223
68998W        W41346   2.333  36.088   2.410
68999W        W41347  13.166  29.128  10.483
69000W        W41348  20.738  22.551  11.100
69001W        W41349   0.252  21.250  11.114
69002W        W41350  22.587   4.856  11.428
69003W        W41351   4.721  31.459  11.416
69004W        W41352   7.841  33.398   1.898
69005W        W41353  18.239   9.174   2.853
69006W        W41354   6.883  34.378   2.879
69007W        W41355   6.864  35.582   3.155
69008W        W41356  29.541  25.525   3.709
69009W        W41357  21.180   2.471  13.427
69010W        W41358  42.305  22.701  14.966
69011W        W41359  16.608  38.878  13.393
69012W        W41360  32.890  24.978  13.311
69013W        W41361  29.989   8.751  13.864
69014W        W41362   4.722  18.711  14.462
69015W        W41363  11.669  24.579   4.182
69016W        W41364  36.979  34.434   1.708
69017W        W41365  35.467  41.889  13.326
69018W        W41366  30.622   4.417   3.654
69019W        W41367  36.091  12.311  11.564
69020W        W41368  18.758   8.765   4.685
69021W        W41369  37.362  36.570  12.837
69022W        W41370  13.599  18.218  13.432
69023W        W41371  33.562  33.104  14.014
69024W        W41372  35.565   1.860   0.361
69025W        W41373  17.762  29.062   3.361
69026W        W41374  17.750  26.131  14.881
69027W        W41375  34.604  21.040   2.856
69028W        W41376   8.844  10.379  14.404
69029W        W41377   4.321  18.573   4.758
69030W        W41378  21.642  37.950  13.496
69031W        W41379  22.023  20.063  12.076
69032W        W41380   5.851   7.193  14.871
69033W        W41381  27.111   2.420  12.547
69034W        W41382  25.087   5.204  12.013
69035W        W41383  25.162   3.842  12.043
69036W        W41384  17.149  12.764   4.128
69037W        W41385  21.031  10.744  11.937
69038W        W41386  35.566  18.103   4.793
69039W        W41387  16.600  30.100  12.026
69040W        W41388  43.819  24.984  10.529
69041W        W41389  28.530  15.117  10.458
69042W        W41390  36.355  33.108  14.488
69043W        W41391  44.958  18.199   2.796
69044W        W41392  33.404   1.237   4.260
69045W        W41393   1.354   1.755   2.665
69046W        W41394  33.874  33.615  13.903
69047W        W41395  15.107  23.690  13.312
69048W        W41396   2.736  15.188  14.302
69049W        W41397  12.742  19.230   1.868
69050W        W41398  41.899  22.556  11.371
69051W        W41399  12.709  19.254  10.900
69052W        W41400  41.852   9.361  14.336
69053W        W41401  28.576  41.436   1.797
69054W        W41402  18.199  22.736   0.822
69055W        W41403  35.589  15.294  14.907
69056W        W41404  23.645  19.145   2.211
69057W        W41405  34.567  31.077   4.205
69058W        W41406  35.104   6.891   4.268
69059W        W41407  18.744  32.077   2.205
69060W        W41408  20.261  37.918   1.926
69061W        W41409  22.206  38.401  10.429
69062W        W41410  11.804  27.602  10.586
69063W        W41411  30.135   0.427  10.887
69064W        W41412  16.777  44.794   4.775
69065W        W41413  17.113  44.345   2.777
69066W        W41414  21.746  43.278  13.010
69067W        W41415  40.447  37.942  10.466
69068W        W41416  44.793  10.696  12.929
69069W        W41417   7.780  20.676   4.248
69070W        W41418  19.196  12.805   4.289
69071W        W41419  16.229  24.095  11.530
69072W        W41420   4.238  15.594   4.321
69073W        W41421  22.704   5.770   2.892
69074W        W41422  41.428  27.491  13.820
69075W        W41423  26.547  10.193  11.434
69076W        W41424  42.797  11.132   0.281
69077W        W41425  38.353  23.712   1.887
69078W        W41426  13.225   3.876   3.370
69079W        W41427  18.276  36.857  11.404
69080W        W41428  17.582   6.406   3.188
69081W        W41429  26.179   7.862   1.287
69082W        W41430   9.219  33.972  10.962
69083W        W41431   0.392   6.739  11.376
69084W        W41432  22.551  23.568  14.935
69085W        W41433   5.865  30.423  10.520
69086W        W41434  34.061  32.994  12.896
69087W        W41435  43.481  22.581   2.287
69088W        W41436  21.191  35.020   1.732
69089W        W41437  34.493  44.793  10.433
69090W        W41438  41.442  15.316   0.367
69091W        W41439  23.618  39.535   4.175
69092W        W41440  37.086  26.578  10.613
69093W        W41441  18.549  37.546  12.017
69094W        W41442  29.075  22.190  10.933
69095W        W41443  35.482  42.978   3.719
69096W        W41444  24.033  24.109   1.337
69097W        W41445  25.079  20.185   2.365
69098W        W41446  38.840   4.718  11.020
69099W        W41447  14.617  32.580   2.255
69100W        W41448  14.262  21.254   4.689
69101W        W41449  17.615  18.675  11.899
69102W        W41450  35.004   0.773   0.797
69103W        W41451  22.691   5.313   1.210
69104W        W41452  12.243  12.827  13.504
69105W        W41453  13.685  30.931  12.863
69106W        W41454  15.784  15.631   2.212
69107W        W41455  29.525  41.888  10.466
69108W        W41456   3.775   8.199   2.325
69109W        W41457  21.681  11.280   3.787
69110W        W41458  35.946  41.324   1.708
69111W        W41459  44.757  16.740   2.767
69112W        W41460  10.281  11.145  12.509
69113W        W41461  11.258  37.575  10.988
69114W        W41462  15.750  24.053   0.798
69115W        W41463  28.453   2.802   1.250
69116W        W41464   5.934  39.919   0.432
69117W        W41465  15.096  39.872  11.072
69118W        W41466  29.119  43.777  14.417
69119W        W41467  16.710  28.608   3.325
69120W        W41468  27.543   0.256   1.834
69121W        W41469  35.015  12.187  12.426
69122W        W41470  43.404  14.652  10.452
69123W        W41471  18.187  44.319   2.361
69124W        W41472  11.196  37.866  14.500
69125W        W41473   7.763  34.054   2.703
69126W        W41474  38.052  25.031  11.509
69127W        W41475  13.161  15.599  10.939
69128W        W41476  13.313   6.809  13.397
69129W        W41477  11.304   0.441   1.811
69130W        W41478  36.534  19.540  11.570
69131W        W41479  27.178  44.499  14.014
69132W        W41480   7.230  30.082   4.224
69133W        W41481   1.290  29.957  13.521
69134W        W41482  19.691  40.455  12.394
69135W        W41483  40.480  21.577  13.381
69136W        W41484  16.629  19.080  14.841
69137W        W41485   9.654  23.068   4.767
69138W        W41486  21.151  16.585   3.705
69139W        W41487  37.428   7.845   4.809
69140W        W41488  36.352  42.936  13.995
69141W        W41489  13.735  37.396   0.913
69142W        W41490  14.225  15.135   2.225
69143W        W41491  13.721  38.072   0.795
69144W        W41492  21.085   3.915  12.828
69145W        W41493  20.649  21.202   0.394
69146W        W41494   2.752   2.459   1.759
69147W        W41495  27.099  27.671   4.806
69148W        W41496  24.635  13.781   2.881
69149W        W41497  25.976  34.556  10.533
69150W        W41498  13.646  14.688   4.606
69151W        W41499  22.195  41.849  14.809
69152W        W41500  43.845  41.391   0.421
69153W        W41501  37.996  15.690  10.889
69154W        W41502  27.024   4.297  12.916
69155W        W41503  14.206  19.695  13.858
69156W        W41504   6.238  18.268   0.389
69157W        W41505   7.298  12.157  10.572
69158W        W41506  42.837  31.092  13.500
69159W        W41507  11.199   6.719   2.690
69160W        W41508  39.427  23.171   0.266
69161W        W41509  26.102  19.671  14.855
69162W        W41510  27.122   3.366  12.840
69163W        W41511  33.087  33.613  12.914
69164W        W41512  31.615  28.042  10.586
69165W        W41513  42.399  18.791   3.321
69166W        W41514  10.188   5.922   1.774
69167W        W41515  28.942  25.511   2.834
69168W        W41516  21.697   9.880   3.714
69169W        W41517   9.252  30.459   1.366
69170W        W41518  30.604  34.503  12.453
69171W        W41519  30.110   5.740  11.898
69172W        W41520  22.649  38.431   3.707
69173W        W41521   1.409   5.241   0.387
69174W        W41522  36.413  22.091  10.161
69175W        W41523  41.518   9.880  11.073
69176W        W41524  37.912  24.662  14.863
69177W        W41525  14.327  11.791   1.249
69178W        W41526  42.938  36.076  11.572
69179W        W41527  25.528  22.522   4.810
69180W        W41528  19.594  29.655   1.694
69181W        W41529  35.859  35.964  10.917
69182W        W41530   5.722  44.289   1.291
69183W        W41531  29.918  44.877   1.910
69184W        W41532  18.695  38.996   1.403
69185W        W41533   1.777   4.750  14.436
69186W        W41534   9.842  44.909  10.950
69187W        W41535  42.927  33.470   0.414
69188W        W41536   5.245  37.921  11.565
69189W        W41537  43.497   9.772   1.756
69190W        W41538  30.097   1.861  10.546
69191W        W41539  10.318  21.697   0.475
69192W        W41540  16.641  27.471   2.295
69193W        W41541   9.197  43.337  13.516
69194W        W41542  29.467  38.466   0.942
69195W        W41543   0.873  22.682   3.204
69196W        W41544   1.839  40.520   0.743
69197W        W41545  33.602  30.579   0.444
69198W        W41546  40.866  40.497   3.279
69199W        W41547   7.780  34.463  11.396
69200W        W41548   3.375  41.454   3.190
69201W        W41549  37.379  15.764  12.856
69202W        W41550  12.763  33.076   0.292
69203W        W41551  39.509   1.819  11.433
69204W        W41552   2.330  20.240  13.914
69205W        W41553  41.490  43.971  13.791
69206W        W41554  36.013  25.701  13.512
69207W        W41555  29.558   2.226   0.952
69208W        W41556   9.686  41.374   3.752
69209W        W41557   9.242  33.603  13.830
69210W        W41558  10.334  31.639  13.808
69211W        W41559  13.683  21.060   0.777
69212W        W41560   6.259  12.719   4.174
69213W        W41561  44.386  14.293   3.177
69214W        W41562  11.196  24.024  14.473
69215W        W41563   1.947  29.978  13.377
69216W        W41564  23.039   3.801   0.815
69217W        W41565  29.125  20.688  12.994
69218W        W41566  44.493  28.135   5.295
69219W        W41567  21.613  26.531  14.413
69220W        W41568  35.433  23.023   1.352
69221W        W41569  34.074  15.208  12.894
69222W        W41570   9.654  43.989   1.406
69223W        W41571  36.449  40.536  12.049
69224W        W41572   3.288  12.285  14.813
69225W        W41573  14.599  39.902  10.126
69226W        W41574  41.465  32.413  14.773
69227W        W41575  13.156  35.989   3.368
69228W        W41576   4.389   0.872  11.076
69229W        W41577  15.712  11.361   5.285
69230W        W41578   9.280  10.742   3.759
69231W        W41579  23.223  25.494  11.891
69232W        W41580  20.757  13.740  11.968
69233W        W41581   3.804  12.248  14.335
69234W        W41582  39.812   5.888   1.841
69235W        W41583   6.863  39.824  10.429
69236W        W41584   5.857  37.421   2.357
69237W        W41585   8.396  44.492  14.386
69238W        W41586   3.784  30.023   3.225
69239W        W41587  26.478   3.276   3.796
69240W        W41588  18.218   5.212  12.976
69241W        W41589  33.439  10.739   2.323
69242W        W41590  20.751  31.508   3.857
69243W        W41591  21.019   3.278  14.309
69244W        W41592  29.959   8.715  11.015
69245W        W41593  15.215  13.808   5.256
69246W        W41594  14.234   0.378  10.545
69247W        W41595  23.094  26.466   0.739
69248W        W41596  16.250  43.916  12.515
69249W        W41597  23.693  21.668  11.023
69250W        W41598  11.280  32.980  12.037
69251W        W41599  20.120  23.660   2.204
69252W        W41600  17.143  33.505  10.010
69253W        W41601  34.592  44.923   4.319
69254W        W41602  33.896  26.647   0.938
69255W        W41603  22.203   5.747   4.153
69256W        W41604  27.041   9.388   1.416
69257W        W41605  10.207  41.511  13.061
69258W        W41606  29.061  36.072  14.801
69259W        W41607   1.423  24.144   4.292
69260W        W41608  28.543  28.680  12.472
69261W        W41609   1.915  15.589   2.231
69262W        W41610  19.108  18.784   3.729
69263W        W41611  33.876   5.219   2.375
69264W        W41612   0.907  21.031   0.785
69265W        W41613  32.094  44.852  14.468
69266W        W41614  32.894  33.127   4.206
69267W        W41615   2.235  28.030   0.407
69268W        W41616  12.706  42.848  13.364
69269W        W41617   8.835   2.905  14.944
69270W        W41618   3.910  19.625  13.343
69271W        W41619  11.270   3.737   1.809
69272W        W41620  11.847  32.510  12.573
69273W        W41621  10.842  20.569   2.689
69274W        W41622  31.525  24.019  14.500
69275W        W41623  36.413   1.783  12.477
69276W        W41624   9.345   4.275   4.193
69277W        W41625  14.159  33.412  14.452
69278W        W41626   0.452  15.135   3.756
69279W        W41627  40.054  24.701   4.155
69280W        W41628  15.302   7.720  12.077
69281W        W41629  22.043  10.284  14.342
69282W        W41630  17.233   8.861  12.978
69283W        W41631   2.930  20.171   2.701
69284W        W41632  12.730   9.186   1.329
69285W        W41633  36.532   5.712  10.023
69286W        W41634   4.730  17.082  12.005
69287W        W41635  44.894  20.132  13.914
69288W        W41636  39.039  11.679  13.868
69289W        W41637   8.839  40.527  12.897
69290W        W41638   7.792   1.960  11.546
69291W        W41639  35.599  30.633  13.024
69292W        W41640  37.078  24.101   1.382
69293W        W41641  28.457  23.684  14.002
69294W        W41642  38.548   3.222   0.887
69295W        W41643  14.630  38.331   0.372
69296W        W41644  21.758  23.041   2.862
69297W        W41645  16.208  44.440  13.428
69298W        W41646  44.970  14.788  11.936
69299W        W41647  28.544  43.415  14.498
69300W        W41648  11.760  33.476   1.732
69301W        W41649   9.209  12.736   3.797
69302W        W41650   7.837  33.519  12.019
69303W        W41651  37.441  34.465  12.562
69304W        W41652  20.245  35.864  12.874
69305W        W41653  16.716  25.109   1.383
69306W        W41654   8.398  29.638   4.138
69307W        W41655  14.826  32.408  10.480
69308W        W41656  21.523  13.255   1.791
69309W        W41657  31.024   6.420   5.303
69310W        W41658  30.129  44.944   0.890
69311W        W41659  36.349   6.698   3.664
69312W        W41660   9.775  42.371  14.803
69313W        W41661  43.819  37.841  11.480
69314W        W41662  42.355  27.964   4.243
69315W        W41663   0.479  42.420   3.221
69316W        W41664  14.626  44.429   1.780
69317W        W41665  18.629  16.229   4.811
69318W        W41666  11.756  30.645  10.545
69319W        W41667  31.047  38.834  10.121
69320W        W41668  20.117  32.938   3.795
69321W        W41669   6.813   0.782   4.835
69322W        W41670  24.576  34.495  14.998
69323W        W41671  20.548   0.259  10.443
69324W        W41672  26.681  16.163  10.904
69325W        W41673  44.430  10.714   4.326
69326W        W41674  44.968  31.532   4.124
69327W        W41675  10.739   1.281   2.766
69328W        W41676   8.850   3.716  14.408
69329W        W41677  15.603   5.260   4.259
69330W        W41678  11.307   1.332  10.596
69331W        W41679  40.861  33.422   2.384
69332W        W41680  13.807   7.702  10.972
69333W        W41681  31.108  16.197  11.124
69334W        W41682  42.477   6.816  13.830
69335W        W41683  21.708  13.778  14.430
69336W        W41684  33.383  24.597  11.566
69337W        W41685  18.071  26.180   3.205
69338W        W41686  29.644  39.816   4.806
69339W        W41687  40.513  14.194   3.696
69340W        W41688  33.515  19.681  11.885
69341W        W41689   7.778  42.301  12.566
69342W        W41690  11.848   4.409   3.754
69343W        W41691  23.732  13.660  10.892
69344W        W41692  36.494  36.097  14.367
69345W        W41693  14.301  42.297  14.863
69346W        W41694  40.838  34.485  13.438
69347W        W41695  44.961  12.763   4.307
69348W        W41696  42.479  20.607   2.289
69349W        W41697   0.743  29.654  10.946
69350W        W41698  14.172  40.934  10.990
69351W        W41699   4.752   2.472   4.659
69352W        W41700  33.983  14.746  14.993
69353W        W41701   5.356   7.855  12.993
69354W        W41702  30.080   0.489   3.750
69355W        W41703  13.171  30.472   2.790
69356W        W41704   4.756  29.985   4.603
69357W        W41705   6.769  12.181   1.725
69358W        W41706  38.832  20.238  12.346
69359W        W41707   9.249   7.259   1.423
69360W        W41708   1.391  33.064  10.580
69361W        W41709   1.273  19.577   4.156
69362W        W41710  20.743  10.352   2.816
69363W        W41711  39.961  14.610  11.402
69364W        W41712  35.391  38.469   1.238
69365W        W41713  19.670  25.540   2.178
69366W        W41714   0.927  22.541  10.498
69367W        W41715   5.248   3.786   2.848
69368W        W41716  11.224  19.053   2.882
69369W        W41717  20.171  28.056  11.107
69370W        W41718  10.261  44.302  10.931
69371W        W41719  10.147  23.499  13.038
69372W        W41720  39.411  16.707   2.243
69373W        W41721   1.749  29.583   1.285
69374W        W41722  40.866  20.571   1.435
69375W        W41723  34.482  15.206  10.952
69376W        W41724  19.077  10.192  11.573
69377W        W41725  10.654  36.463   0.349
69378W        W41726  29.590  39.012   5.119
69379W        W41727  22.025  28.135   4.265
69380W        W41728   6.214  12.853  12.004
69381W        W41729  24.540  44.779   2.736
69382W        W41730  44.809  13.276   4.791
69383W        W41731  33.577   3.369  11.022
69384W        W41732  38.965   6.359   0.895
69385W        W41733  11.196   7.228  14.849
69386W        W41734  24.680  24.656   3.315
69387W        W41735   6.323  32.043   3.739
69388W        W41736  40.380  14.809   3.286
69389W        W41737  21.240  26.684   0.442
69390W        W41738  22.508  17.592   0.927
69391W        W41739  25.586  20.151  12.925
69392W        W41740   4.434  25.098  11.386
69393W        W41741  15.290  30.981   1.250
69394W        W41742   3.897  28.575  12.504
69395W        W41743  42.366   9.877   2.284
69396W        W41744  37.936  16.810  14.986
69397W        W41745  11.151  22.602   3.213
69398W        W41746  19.281   8.194   0.403
69399W        W41747  21.146  37.987   5.246
69400W        W41748  13.696  14.809  14.834
69401W        W41749  40.942  27.999  11.049
69402W        W41750  34.871  36.010   0.967
69403W        W41751   6.227   1.794  10.415
69404W        W41752   9.750   1.743  13.451
69405W        W41753  15.760  24.614  10.641
69406W        W41754  21.594  18.764  13.330
69407W        W41755  38.360  13.753  13.395
69408W        W41756   0.918  34.963  13.410
69409W        W41757  38.556   5.435   1.868
69410W        W41758  13.149  38.831  10.156
69411W        W41759  40.982  25.129  11.950
69412W        W41760   8.350   1.332  12.566
69413W        W41761  29.033   6.317  11.117
69414W        W41762   9.375   6.372  12.969
69415W        W41763  33.883  24.648  14.279
69416W        W41764  34.045  16.724  10.624
69417W        W41765  29.017   3.343   1.408
69418W        W41766   6.724  14.183  10.970
69419W        W41767   7.311  14.717   0.938
69420W        W41768  35.439  16.641  14.343
69421W        W41769  33.007  22.737  11.985
69422W        W41770   4.285  17.645   3.677
69423W        W41771  42.373   3.944  12.082
69424W        W41772   0.383  39.022  14.480
69425W        W41773   8.251   4.358  12.911
69426W        W41774  24.151  24.093   4.765
69427W        W41775  33.087  15.602  12.994
69428W        W41776  32.970  24.093   2.242
69429W        W41777  18.703  10.294  12.054
69430W        W41778  31.917  37.958   4.631
69431W        W41779  33.956  39.492  11.020
69432W        W41780  22.620   4.826  12.851
69433W        W41781  14.316  41.453  13.977
69434W        W41782  29.982  38.071   3.744
69435W        W41783  17.242   2.251  13.016
69436W        W41784  26.568  34.483   0.482
69437W        W41785   2.234  37.523   3.702
69438W        W41786  21.229   9.156   0.257
69439W        W41787  38.528  34.047  14.356
69440W        W41788  18.609  32.949   1.718
69441W        W41789  15.820  17.658   4.195
69442W        W41790  41.948  14.325  13.393
69443W        W41791  19.171   1.964  13.472
69444W        W41792  22.071  17.744   2.697
69445W        W41793  28.446  16.299  14.857
69446W        W41794  23.148  40.471  14.912
69447W        W41795  29.962  27.634   2.698
69448W        W41796  31.970   1.844   5.184
69449W        W41797  20.705  10.852  13.334
69450W        W41798  12.232  42.987   0.871
69451W        W41799  44.900  13.347  12.573
69452W        W41800  17.590  29.945  11.096
69453W        W41801  22.655  10.323   9.982
69454W        W41802  38.426  26.986   2.416
69455W        W41803  19.158  36.084   4.173
69456W        W41804   9.889  16.570   3.191
69457W        W41805  20.710  18.134   1.889
69458W        W41806  33.425  44.408   1.354
69459W        W41807  38.467  44.458  11.980
69460W        W41808  32.444  10.273  12.516
69461W        W41809  29.608  34.527   4.166
69462W        W41810   2.780  31.519  12.858
69463W        W41811  42.835  29.669   1.373
69464W        W41812  21.578  25.043   0.953
69465W        W41813   7.866  20.239   3.771
69466W        W41814   1.738  12.242  14.497
69467W        W41815  42.445  23.148  10.423
69468W        W41816  31.403   8.798  13.937
69469W        W41817  29.064  44.791   3.347
69470W        W41818  40.833   0.249  13.468
69471W        W41819  16.121  37.393  11.997
69472W        W41820   3.432  44.889   3.347
69473W        W41821  28.175  43.882  12.542
69474W        W41822  28.559  17.680   3.272
69475W        W41823  23.042  30.598   2.839
69476W        W41824  13.174  30.142   2.776
69477W        W41825  42.522  33.984  11.523
69478W        W41826  32.553  34.863  14.945
69479W        W41827  38.995   6.847   2.760
69480W        W41828  19.221  41.356  12.363
69481W        W41829  16.640  13.830   2.268
69482W        W41830  38.035   9.302  11.009
69483W        W41831  11.638  12.227   4.145
69484W        W41832   7.666  28.558  12.472
69485W        W41833  18.578  17.113   0.438
69486W        W41834  32.526  14.597   4.173
69487W        W41835  44.283  24.523   3.158
69488W        W41836  43.359   3.302   3.237
69489W        W41837  43.841  43.379  12.486
69490W        W41838   1.856   8.201  14.302
69491W        W41839  23.496  41.918  11.011
69492W        W41840   2.430  26.064  14.854
69493W        W41841  15.615  31.067  14.845
69494W        W41842  18.244  34.468  14.868
69495W        W41843  30.953  16.183  14.365
69496W        W41844  25.705  13.686  12.471
69497W        W41845  42.297  39.972  10.586
69498W        W41846  31.472  11.743  10.505
69499W        W41847  19.721  14.635   0.831
69500W        W41848  15.286  40.810   1.296
69501W        W41849  31.153  37.445  11.550
69502W        W41850   2.776  27.680  10.910
69503W        W41851  26.002  36.413  11.885
69504W        W41852  37.942  33.005   4.648
69505W        W41853  13.199  44.341  12.902
69506W        W41854   6.716  36.070  13.793
69507W        W41855  18.645  12.737   0.815
69508W        W41856   0.388  29.647  11.867
69509W        W41857  18.664   8.346   1.322
69510W        W41858  41.951  22.189  13.029
69511W        W41859  32.467  20.585  14.984
69512W        W41860  26.579  28.150  14.307
69513W        W41861  31.519   5.736  14.774
69514W        W41862  13.784  13.773   3.720
69515W        W41863  21.606  36.074  13.456
69516W        W41864   3.257  27.953   0.864
69517W        W41865  41.487  16.135   2.267
69518W        W41866   2.310  33.380   3.190
69519W        W41867   9.649  32.971  10.634
69520W        W41868   4.402   9.654  12.068
69521W        W41869  14.212  27.110   3.325
69522W        W41870  42.346  33.951   0.899
69523W        W41871  20.672   4.236  12.578
69524W        W41872   2.285  25.152   4.642
69525W        W41873  25.199  13.309   2.807
69526W        W41874  37.922  10.820   1.228
69527W        W41875   6.913  16.317  12.433
69528W        W41876  22.723   9.762   1.810
69529W        W41877  24.193  13.208   1.702
69530W        W41878  43.493  29.123   0.911
69531W        W41879  38.551  18.209  12.060
69532W        W41880   8.667  12.264  12.962
69533W        W41881   9.887   8.764   0.779
69534W        W41882  36.446  14.683  13.331
69535W        W41883  44.484  11.746   1.695
69536W        W41884  33.497  13.175  14.876
69537W        W41885  26.099  27.152  11.064
69538W        W41886   1.856   7.331  13.544
69539W        W41887  13.833  24.630   1.242
69540W        W41888  14.743   1.792   5.208
69541W        W41889  36.933  17.140   1.264
69542W        W41890  31.066  10.170   1.386
69543W        W41891  34.375   3.283   1.757
69544W        W41892  18.704   9.174  11.378
69545W        W41893  32.009  15.236  12.341
69546W        W41894   1.300   5.835  12.850
69547W        W41895  43.016  16.782  13.932
69548W        W41896   8.695  38.963  11.416
69549W        W41897  30.418  23.602  14.484
69550W        W41898  44.399  20.712  12.059
69551W        W41899   9.299  10.327  12.038
69552W        W41900   5.326  43.291   1.390
69553W        W41901  15.692  29.065  13.382
69554W        W41902  12.229  32.976   4.677
69555W        W41903   1.959   4.919   1.398
69556W        W41904  25.530  44.839  12.935
69557W        W41905  15.789  20.166  12.405
69558W        W41906   7.232  39.340  14.015
69559W        W41907  44.343  15.209  13.392
69560W        W41908   2.319  44.358   2.757
69561W        W41909   7.394   6.919  12.432
69562W        W41910  43.462   3.392  10.151
69563W        W41911  27.965  34.867   1.737
69564W        W41912  22.028  19.242  14.398
69565W        W41913  35.467  27.043  12.550
69566W        W41914  14.237  20.732  12.935
69567W        W41915  36.426  42.816  14.329
69568W        W41916   5.313  35.014  14.425
69569W        W41917  31.153  26.975   0.861
69570W        W41918   7.862   3.939  13.053
69571W        W41919  38.432  25.596   3.329
69572W        W41920  28.662  38.918   3.355
69573W        W41921  38.347  35.859   0.470
69574W        W41922  43.378  22.174   4.731
69575W        W41923   1.767  34.495  14.926
69576W        W41924  40.361  39.051   4.714
69577W        W41925   7.866   5.345  12.457
69578W        W41926  36.556  39.900   9.962
69579W        W41927   6.310  12.708   3.645
69580W        W41928  33.475  25.489  10.437
69581W        W41929  43.278  23.143   2.378
69582W        W41930  13.294  20.642  14.912
69583W        W41931  43.005  24.653   0.307
69584W        W41932  20.541  12.159   4.313
69585W        W41933   2.301  11.740  10.587
69586W        W41934  43.294   7.298   1.850
69587W        W41935  42.377  39.386  13.386
69588W        W41936  43.854  39.450   4.348
69589W        W41937  37.043  32.041  14.386
69590W        W41938  29.984  44.840   1.265
69591W        W41939  28.129  12.721  11.378
69592W        W41940  18.220  25.195   4.750
69593W        W41941   0.930  35.511   3.770
69594W        W41942  34.421  35.050   2.222
69595W        W41943  19.169  19.108   0.908
69596W        W41944  25.509  28.161   1.445
69597W        W41945  27.081   7.235   3.206
69598W        W41946  18.635  18.274   0.727
69599W        W41947  37.050   1.734   3.761
69600W        W41948  34.082   6.805   2.866
69601W        W41949  18.592   6.386  10.526
69602W        W41950  19.679  25.559   1.247
69603W        W41951  40.968  33.476   0.248
69604W        W41952   3.445   0.452   4.693
69605W        W41953  25.481  44.295  13.894
69606W        W41954  13.287   1.425  10.947
69607W        W41955  34.003   0.393   4.354
69608W        W41956   1.837  36.553  11.461
69609W        W41957   1.406  21.079   1.374
69610W        W41958   9.369   4.243   1.387
69611W        W41959  37.538  14.156  12.911
69612W        W41960   7.889  15.256   3.200
69613W        W41961  39.422  43.812   2.416
69614W        W41962  14.201  26.674  11.086
69615W        W41963  24.224  10.807   4.296
69616W        W41964  10.856  11.644  12.947
69617W        W41965   9.259  14.742  11.596
69618W        W41966  25.012  19.179  14.879
69619W        W41967  26.667  34.613  13.936
69620W        W41968   5.827  10.638   2.270
69621W        W41969  19.577  11.343  13.962
69622W        W41970  37.908  11.279   1.820
69623W        W41971  31.498  43.344   0.944
69624W        W41972   9.760  21.173  13.864
69625W        W41973  18.546  36.562   2.760
69626W        W41974  12.624  25.677  13.500
69627W        W41975   2.785  39.475   2.764
69628W        W41976  12.839   2.784  11.006
69629W        W41977  32.030  28.599   0.873
69630W        W41978  29.669  39.024  13.512
69631W        W41979  41.795  33.041   3.700
69632W        W41980   7.275   2.810  10.547
69633W        W41981   7.266  20.733   3.375
69634W        W41982  44.336  34.979  11.908
69635W        W41983  25.062  42.808   3.868
69636W        W41984  25.561  23.115  11.534
69637W        W41985  39.478  12.654  11.927
69638W        W41986  31.616   6.888   3.852
69639W        W41987  17.085  16.146  14.890
69640W        W41988   6.327  28.144  10.619
69641W        W41989   5.911  31.482  10.478
69642W        W41990  39.063  16.176  10.930
69643W        W41991   5.753  19.086  11.004
69644W        W41992  17.241   1.780   4.194
69645W        W41993  11.160  31.533   2.875
69646W        W41994  20.235   6.216  14.416
69647W        W41995  14.234  39.517   0.324
69648W        W41996  30.137   9.309   3.228
69649W        W41997  43.928   2.930   1.373
69650W        W41998  21.183   7.758   2.818
69651W        W41999  22.124   5.720  12.492
69652W        W42000  42.901  22.711   3.636
69653W        W42001   8.351  35.907  14.030
69654W        W42002  15.602  42.813  12.541
69655W        W42003  43.357  38.954   4.828
69656W        W42004  32.993   0.324   3.298
69657W        W42005  37.573   4.398   9.564
69658W        W42006  15.238  38.405   2.402
69659W        W42007  28.611   8.392  12.579
69660W        W42008  19.154  44.926  11.002
69661W        W42009  11.191  37.561   0.780
69662W        W42010   0.920  25.152   3.856
69663W        W42011  11.755   2.350  14.957
69664W        W42012  25.656  29.446  10.082
69665W        W42013   5.836   1.766   4.232
69666W        W42014  27.545   8.731   0.360
69667W        W42015  38.442  12.292  11.522
69668W        W42016  23.242   3.340  13.532
69669W        W42017  44.332   4.407   3.154
69670W        W42018  41.416   8.270  10.473
69671W        W42019  30.145  30.993  14.457
69672W        W42020   3.289  41.910  12.994
69673W        W42021   1.950   2.756  13.855
69674W        W42022  37.868   9.820  10.957
69675W        W42023  32.963   8.166  11.936
69676W        W42024  43.805  40.423   3.725
69677W        W42025   4.344   2.232  13.947
69678W        W42026  35.558  19.096  13.014
69679W        W42027  16.786  30.127  11.505
69680W        W42028  25.046  21.674   2.814
69681W        W42029  29.062  12.745   1.344
69682W        W42030   5.773  29.037   0.263
69683W        W42031  12.234  21.207   4.796
69684W        W42032  17.131   3.886  14.280
69685W        W42033  13.658  32.041   3.312
69686W        W42034  39.940  42.418  14.953
69687W        W42035   0.389  26.702  10.471
69688W        W42036  10.718  32.995   1.432
69689W        W42037  28.606  33.909  11.940
69690W        W42038  44.464  27.526   3.280
69691W        W42039  34.414   1.364   1.360
69692W        W42040  10.347  39.471  11.873
69693W        W42041  31.410  28.019  14.296
69694W        W42042  41.309   7.400  12.089
69695W        W42043  10.358  39.945   9.976
69696W        W42044  32.435  16.085  13.955
69697W        W42045  41.998  36.010   1.728
69698W        W42046  32.452  31.580   1.371
69699W        W42047  28.073   1.905  11.080
69700W        W42048  24.498  33.111  12.407
69701W        W42049  37.077  33.530  12.977
69702W        W42050   9.768  34.870  12.920
69703W        W42051   0.275  28.444  10.912
69704W        W42052  17.176  42.346  13.354
69705W        W42053  19.192   0.350   0.292
69706W        W42054  13.828  29.599   2.414
69707W        W42055   9.236  39.001   0.440
69708W        W42056  16.137  12.181  12.833
69709W        W42057  35.539  22.156  10.440
69710W        W42058  43.018   1.947   3.678
69711W        W42059  13.737  36.916   2.208
69712W        W42060  20.765  28.655  14.933
69713W        W42061  35.958  33.415   2.668
69714W        W42062  44.943  34.010  14.447
69715W        W42063  22.051  29.026  11.019
69716W        W42064  12.180   4.316  13.511
69717W        W42065  42.499  32.597   2.811
69718W        W42066  34.099  34.045   4.627
69719W        W42067  29.973  24.567   4.787
69720W        W42068  23.610  42.325   2.365
69721W        W42069   3.401  38.894   4.340
69722W        W42070  11.865   4.250   0.336
69723W        W42071  16.624  30.637   1.400
69724W        W42072  36.553  19.255  12.964
69725W        W42073   7.178  32.903  14.443
69726W        W42074   4.895   4.833   3.316
69727W        W42075  35.932  41.837   1.342
69728W        W42076  13.655  25.700  14.873
69729W        W42077  20.070   7.375   0.811
69730W        W42078  15.608  29.430   4.654
69731W        W42079  25.092  16.806   2.840
69732W        W42080  21.569   5.702  11.371
69733W        W42081  20.566   5.375   0.320
69734W        W42082  11.857  25.548  14.827
69735W        W42083   9.275   1.296   0.819
69736W        W42084  18.223  11.241   4.258
69737W        W42085  24.490  11.212   2.790
69738W        W42086  27.554  24.075   0.754
69739W        W42087  40.953  36.926   1.887
69740W        W42088   5.366   5.375   3.271
69741W        W42089   6.390  15.692  10.523
69742W        W42090  11.678  37.390  11.885
69743W        W42091  25.547  34.412   1.731
69744W        W42092   6.194  17.713  10.099
69745W        W42093  28.473  12.619   4.602
69746W        W42094  14.228  43.782  10.892
69747W        W42095  34.511  30.035  12.524
69748W        W42096  26.539  29.453   0.344
69749W        W42097  12.842  14.236  14.877
69750W        W42098  17.732  12.239  13.994
69751W        W42099   1.244  14.641   4.224
69752W        W42100  25.118  44.843  14.332
69753W        W42101  40.859  42.816  14.860
69754W        W42102  20.239   0.278   0.320
69755W        W42103  23.594   4.349  13.989
69756W        W42104  25.491  24.660  12.902
69757W        W42105  40.332   2.267   1.806
69758W        W42106  19.286  19.568   4.834
69759W        W42107  31.433  31.928  12.437
69760W        W42108  10.332   9.807   2.791
69761W        W42109  34.903  41.954  12.021
69762W        W42110  34.574  36.451  13.946
69763W        W42111  44.755  37.845   4.624
69764W        W42112  36.914  36.520   4.226
69765W        W42113  23.024  10.865  11.411
69766W        W42114   1.804   3.412  12.982
69767W        W42115  38.400  26.665   0.379
69768W        W42116  12.849   6.684   5.318
69769W        W42117  25.136   4.818   1.792
69770W        W42118  40.036  15.660   9.978
69771W        W42119  28.128  38.383  14.450
69772W        W42120  11.781  41.394   3.852
69773W        W42121  14.741  35.478  13.516
69774W        W42122  26.975  43.903   4.629
69775W        W42123  42.294  21.748   1.366
69776W        W42124   3.392  12.238  10.949
69777W        W42125  22.231  25.684  11.070
69778W        W42126  11.291   7.874   0.790
69779W        W42127  37.003  22.588  12.060
69780W        W42128  14.588  34.404   1.262
69781W        W42129   9.645  10.831   4.190
69782W        W42130   2.882  29.475   3.738
69783W        W42131  41.385  21.684  10.602
69784W        W42132   5.898   9.203   0.321
69785W        W42133  25.518  38.365   4.801
69786W        W42134  35.965  20.136   0.312
69787W        W42135  17.657  38.495   2.389
69788W        W42136  35.440  30.069  11.380
69789W        W42137  20.264   1.269   0.895
69790W        W42138  19.140  35.466  14.785
69791W        W42139   3.903  17.602  10.999
69792W        W42140  11.147  39.045   3.353
69793W        W42141  30.542  40.323  14.911
69794W        W42142  28.059  43.435  11.520
69795W        W42143  34.398  17.783   1.729
69796W        W42144  42.818  28.547   2.229
69797W        W42145  30.915  23.648   2.335
69798W        W42146  29.022  40.389  12.934
69799W        W42147  10.265  37.429   4.268
69800W        W42148  25.996  19.053   1.836
69801W        W42149   7.205  19.756   2.800
69802W        W42150  35.097  34.381  12.426
69803W        W42151  43.429   4.281  11.589
69804W        W42152  24.203  42.990   2.237
69805W        W42153  29.504  29.474  14.390
69806W        W42154   7.883  35.367  14.479
69807W        W42155  17.152  30.965  12.390
69808W        W42156  25.538  16.808  13.837
69809W        W42157  15.752  10.676   4.240
69810W        W42158  12.137  28.179  14.370
69811W        W42159  38.408  34.061   0.384
69812W        W42160  15.151  20.598   1.335
69813W        W42161  26.531  31.512  14.875
69814W        W42162   6.889   9.724  14.358
69815W        W42163  36.496  36.439  10.490
69816W        W42164  23.577  30.989  12.362
69817W        W42165  27.113  42.990  14.480
69818W        W42166  10.676  21.103  10.522
69819W        W42167  34.553  32.061   0.750
69820W        W42168  10.272   5.928   9.508
69821W        W42169  13.779  16.157   2.837
69822W        W42170  12.734  38.552  11.913
69823W        W42171   2.236   9.748   3.261
69824W        W42172   2.740  11.650   1.726
69825W        W42173  29.112   9.323   3.322
69826W        W42174  28.453  29.465   0.958
69827W        W42175   5.893  30.460  14.316
69828W        W42176  17.254  32.093   1.881
69829W        W42177  27.620   5.300  14.299
69830W        W42178  18.097  21.092  11.387
69831W        W42179  37.517  15.178   1.775
69832W        W42180  27.544  40.327  11.592
69833W        W42181  42.426  20.122   0.917
69834W        W42182  10.779  29.568  13.018
69835W        W42183  19.663  38.345  13.060
69836W        W42184  10.720  19.175  12.837
69837W        W42185  15.804  20.251  13.458
69838W        W42186  21.701  24.688  14.869
69839W        W42187  41.459  36.041  13.900
69840W        W42188  27.031  43.789  14.375
69841W        W42189  40.949  40.941  14.497
69842W        W42190  36.014  38.557   3.328
69843W        W42191  43.832  13.113  14.878
69844W        W42192  27.060   1.278   0.461
69845W        W42193  43.919  37.029  11.015
69846W        W42194  31.152  40.895   0.392
69847W        W42195   3.273  36.881   1.754
69848W        W42196  37.455  10.713   2.405
69849W        W42197  17.691  12.202   2.241
69850W        W42198   0.492   2.277  14.826
69851W        W42199  36.503  32.595   1.922
69852W        W42200   6.361   4.262   0.357
69853W        W42201  24.134   0.373   1.709
69854W        W42202  30.976  28.006  10.917
69855W        W42203   4.924  43.477   4.801
69856W        W42204  29.130   7.298   1.752
69857W        W42205  40.508  30.421   3.355
69858W        W42206  41.531  14.613   4.293
69859W        W42207  20.614  34.894   4.245
69860W        W42208   0.321  22.604  13.455
69861W        W42209  19.068   2.274  13.338
69862W        W42210  39.410  19.249   0.306
69863W        W42211  11.314  43.835  12.071
69864W        W42212  44.351   5.789   3.270
69865W        W42213   6.259  38.912  14.888
69866W        W42214  29.104   1.394  14.363
69867W        W42215  41.001  23.647   0.311
69868W        W42216  22.501  19.670   0.430
69869W        W42217  27.648  21.736  14.765
69870W        W42218  40.860  43.903   0.932
69871W        W42219  18.711  41.326  12.875
69872W        W42220  29.137  27.982  11.397
69873W        W42221  26.184  33.453   1.931
69874W        W42222  39.318  21.651   2.836
69875W        W42223  23.593   9.722  11.035
69876W        W42224   3.454   3.937   2.242
69877W        W42225  10.737  35.403   0.782
69878W        W42226  25.024   4.211   2.401
69879W        W42227  22.165  18.753  12.881
69880W        W42228  43.321  27.468  13.046
69881W        W42229  32.612  41.978  11.485
69882W        W42230   6.822  37.350  11.949
69883W        W42231   1.791   2.386   0.761
69884W        W42232   5.747  24.530   2.204
69885W        W42233  26.525  37.345   3.257
69886W        W42234  16.790  31.434   0.825
69887W        W42235  41.429  23.083   2.783
69888W        W42236  17.185  17.590   3.806
69889W        W42237  38.049  33.922   1.846
69890W        W42238  11.195  24.228   2.746
69891W        W42239  13.843  23.695  13.473
69892W        W42240   6.746  17.218  12.021
69893W        W42241  40.851  16.238   0.367
69894W        W42242  20.029  21.654   3.203
69895W        W42243  26.144  12.796  11.999
69896W        W42244  35.557  36.000  13.913
69897W        W42245  41.416  40.394   0.397
69898W        W42246  12.328  36.547  11.048
69899W        W42247  39.031  16.216   2.326
69900W        W42248  25.641  41.443  12.447
69901W        W42249  25.002  17.072   0.381
69902W        W42250  26.142  12.814   4.215
69903W        W42251  29.631  21.136  14.361
69904W        W42252  36.002  44.970   2.234
69905W        W42253  43.820  13.186   1.438
69906W        W42254   1.955  39.326  13.427
69907W        W42255  39.525   0.846  14.343
69908W        W42256  43.872  34.872   3.165
69909W        W42257   8.401  41.344  11.566
69910W        W42258  20.152  32.555   3.796
69911W        W42259  44.783  26.972   3.192
69912W        W42260   0.433   8.315   0.400
69913W        W42261  16.804  12.285   1.859
69914W        W42262  39.418  22.710   3.306
69915W        W42263  22.124  11.769  11.451
69916W        W42264  22.218   4.417  14.283
69917W        W42265  37.039  15.195   2.891
69918W        W42266  14.331  11.736  14.458
69919W        W42267   7.171  33.396  11.048
69920W        W42268  20.754   8.324   3.257
69921W        W42269  29.156  35.595  10.610
69922W        W42270  27.083  28.979   1.740
69923W        W42271  30.584  14.273  12.092
69924W        W42272  16.702   6.300  14.907
69925W        W42273  28.103  39.984   2.776
69926W        W42274   6.243   4.342  11.505
69927W        W42275  10.142  29.952  13.969
69928W        W42276  19.630  40.873  11.398
69929W        W42277   1.384   2.756  11.517
69930W        W42278   3.365  29.983   2.197
69931W        W42279  18.278   2.417   4.723
69932W        W42280  39.342  19.069   4.249
69933W        W42281  16.802  14.604  14.341
69934W        W42282  18.641   2.775   4.636
69935W        W42283  27.661   5.301   0.439
69936W        W42284   8.198  22.589   3.308
69937W        W42285  33.127  37.898  11.507
69938W        W42286   9.762  13.284   4.200
69939W        W42287  30.942  34.497  10.569
69940W        W42288  31.462  18.242   3.377
69941W        W42289  21.741  39.368  11.446
69942W        W42290  19.539  23.690   2.301
69943W        W42291   3.439  29.933   2.678
69944W        W42292  23.003  23.089  10.931
69945W        W42293   9.392  16.269   0.836
69946W        W42294   8.855  34.528  12.424
69947W        W42295  14.794   3.388   1.230
69948W        W42296  20.035  23.722   3.248
69949W        W42297  25.007  35.432   2.692
69950W        W42298  12.265  17.285   4.767
69951W        W42299  36.084  35.929   3.832
69952W        W42300  10.777  40.807  13.485
69953W        W42301   0.331   4.350   4.120
69954W        W42302  31.109  15.638   2.247
69955W        W42303  32.991  44.870  13.993
69956W        W42304  12.120  38.499   1.872
69957W        W42305  21.153  39.449   4.801
69958W        W42306  33.020  13.620   3.712
69959W        W42307  34.868   4.309   4.238
69960W        W42308  12.344   6.746  12.025
69961W        W42309  28.969  12.653   4.314
69962W        W42310  28.051  23.650  13.892
69963W        W42311  34.470  14.594   1.240
69964W        W42312   4.789  38.985   0.427
69965W        W42313  40.972  23.672   2.211
69966W        W42314   1.756  22.732  13.543
69967W        W42315  20.559  18.722  11.067
69968W        W42316   3.719   8.190   2.686
69969W        W42317   7.842  26.699  11.415
69970W        W42318   4.945  17.228   3.635
69971W        W42319  21.527  44.904  12.428
69972W        W42320  42.431   3.818   4.787
69973W        W42321  17.159  18.123  10.078
69974W        W42322  40.012  18.087  11.410
69975W        W42323  39.937  37.339   3.322
69976W        W42324  35.963   5.766   1.849
69977W        W42325  33.880  17.225   0.275
69978W        W42326  10.292   5.335   0.309
69979W        W42327  15.642  33.554   5.096
69980W        W42328  29.001  26.589  13.021
69981W        W42329  29.963  22.591   3.226
69982W        W42330  30.637   2.928   4.204
69983W        W42331  44.763  17.232   3.742
69984W        W42332  20.200  12.300  12.835
69985W        W42333  35.946  43.783  14.453
69986W        W42334  26.609  24.205  10.492
69987W        W42335  10.326   5.791  12.843
69988W        W42336  28.124  11.171  13.018
69989W        W42337   1.871  39.995  12.367
69990W        W42338  18.558  22.014  12.011
69991W        W42339   6.728  37.549   2.409
69992W        W42340  34.907  35.569  14.908
69993W        W42341  22.739  14.711   1.736
69994W        W42342  25.581   9.721  14.290
69995W        W42343  37.004  23.050   1.791
69996W        W42344  27.050  36.064  10.595
69997W        W42345  39.924  18.294  13.320
69998W        W42346  43.779  12.804  11.565
69999W        W42347   9.807  17.586  14.303
70000W        W42348  17.748  31.005  12.535
70001W        W42349   5.882  41.925   0.273
70002W        W42350  19.765  27.595   2.313
70003W        W42351  21.039   3.220   0.322
70004W        W42352  15.647  28.172   5.117
70005W        W42353  32.048  38.367  10.605
70006W        W42354  31.631   2.276  11.940
70007W        W42355   6.695  21.681  13.327
70008W        W42356  10.368  31.920   5.299
70009W        W42357  41.024  28.137  12.387
70010W        W42358  28.455  21.549  12.984
70011W        W42359  30.635   6.845  14.999
70012W        W42360  30.523  37.972   0.945
70013W        W42361  42.313  20.730   4.334
70014W        W42362  24.175   9.774   3.357
70015W        W42363  31.021  37.372   0.837
70016W        W42364  16.595  37.992   0.372
70017W        W42365  12.733  20.241   2.847
70018W        W42366  21.103  13.798   3.370
70019W        W42367  17.222  35.073  12.496
70020W        W42368   4.777  20.070   2.371
70021W        W42369  41.447  17.616  10.517
70022W        W42370  17.719  10.656  14.972
70023W        W42371  12.785   4.860  11.887
70024W        W42372  40.309  10.767   3.183
70025W        W42373  14.640  28.625   3.366
70026W        W42374  13.767  24.104   2.677
70027W        W42375  25.621  12.645  14.017
70028W        W42376   3.796  23.990  12.531
70029W        W42377   4.882  38.523   1.334
70030W        W42378  23.574  26.589  12.028
70031W        W42379  41.309  38.889   1.717
70032W        W42380  11.780   5.815   4.655
70033W        W42381  27.108  34.087  12.483
70034W        W42382  23.028  37.970   1.283
70035W        W42383  42.493   2.901  10.553
70036W        W42384  20.734  42.990   0.901
70037W        W42385  33.893  39.036  12.850
70038W        W42386  33.476   7.876  11.895
70039W        W42387  35.898  37.564  11.101
70040W        W42388  20.639  27.040  14.479
70041W        W42389   4.920  39.377  12.552
70042W        W42390  23.118   1.953   0.475
70043W        W42391   1.734  29.538   1.872
70044W        W42392  40.905  40.371   0.479
70045W        W42393  29.578  33.389   2.219
70046W        W42394  28.531  41.379   2.870
70047W        W42395  30.103   1.363   1.240
70048W        W42396  32.981  41.511   0.733
70049W        W42397  21.678  43.873  10.914
70050W        W42398  38.918   1.423  14.908
70051W        W42399  32.483  27.645  10.913
70052W        W42400  20.537  32.580  10.949
70053W        W42401  31.015  15.224   2.396
70054W        W42402  15.654  24.191  11.028
70055W        W42403  27.063  29.644   0.352
70056W        W42404  33.986  18.260   3.649
70057W        W42405  25.697  14.299  12.878
70058W        W42406   7.250  15.100   4.254
70059W        W42407   6.408  17.572  12.952
70060W        W42408  40.834  38.061  12.987
70061W        W42409  41.916  36.942  12.367
70062W        W42410  27.533   5.802  14.365
70063W        W42411  20.698  16.639   0.341
70064W        W42412  16.124  37.954   0.297
70065W        W42413  24.573  38.887   3.646
70066W        W42414  38.892   8.198   0.363
70067W        W42415   5.785  32.134  10.916
70068W        W42416  10.186  30.520  12.888
70069W        W42417   6.829   3.771  14.759
70070W        W42418  37.365   5.421   3.792
70071W        W42419  13.646  42.467  14.820
70072W        W42420   1.406  14.692   3.157
70073W        W42421  33.042  30.568   3.153
70074W        W42422  11.758   6.787  14.423
70075W        W42423  38.388   6.910  14.761
70076W        W42424   4.411   9.807  10.561
70077W        W42425  11.729  32.519   3.330
70078W        W42426  40.426  16.746  10.542
70079W        W42427  28.099  32.438  14.290
70080W        W42428  44.435   7.380   4.678
70081W        W42429  34.953  43.807  12.936
70082W        W42430  12.271  23.682  14.499
70083W        W42431  28.939  35.431  14.895
70084W        W42432  15.677  21.221   4.795
70085W        W42433  38.939  34.108  13.390
70086W        W42434  17.202  34.485   2.751
70087W        W42435  42.888  19.596  13.945
70088W        W42436  20.737  35.042  12.464
70089W        W42437  30.605  18.736   0.963
70090W        W42438  19.671   2.375  13.937
70091W        W42439   7.293  36.368  10.942
70092W        W42440  18.203  40.479  14.386
70093W        W42441  26.188  25.604   0.862
70094W        W42442  30.655  40.037   0.476
70095W        W42443  36.369  11.130   4.629
70096W        W42444  20.562  43.823  11.903
70097W        W42445  41.384  22.607   1.933
70098W        W42446  42.884  38.381  13.847
70099W        W42447  37.450  19.679  11.908
70100W        W42448  11.341  29.002  11.918
70101W        W42449  12.718  24.188  11.889
70102W        W42450  40.974  14.688  13.795
70103W        W42451  27.116   9.277   3.659
70104W        W42452  20.132  41.358   5.082
70105W        W42453  31.472  39.966   1.243
70106W        W42454  21.152  17.741   4.774
70107W        W42455  39.502  29.473   1.777
70108W        W42456  42.425  32.477   1.347
70109W        W42457   0.779  18.069  11.938
70110W        W42458  41.039   6.206  10.479
70111W        W42459  10.697  40.520  14.490
70112W        W42460  27.589  19.084   2.331
70113W        W42461  22.703  36.468  13.446
70114W        W42462   6.337  16.154  14.342
70115W        W42463  36.441  21.722   2.711
70116W        W42464  14.598  31.406  11.397
70117W        W42465  21.580  19.647   3.861
70118W        W42466  29.007  39.557  11.982
70119W        W42467   9.301  15.708   2.202
70120W        W42468   8.331  20.154  11.009
70121W        W42469  29.512  11.324   4.811
70122W        W42470  16.788  13.620   3.703
70123W        W42471   6.338  31.083  13.413
70124W        W42472  12.748  26.463  12.894
70125W        W42473   3.436  15.114   0.327
70126W        W42474   3.844   6.881   1.292
70127W        W42475  40.807  10.327   2.894
70128W        W42476  31.500  13.146   2.401
70129W        W42477  25.147  13.311  10.946
70130W        W42478  39.525  41.986  10.642
70131W        W42479  17.114   5.437   2.182
70132W        W42480  36.501  15.592  10.415
70133W        W42481  36.064  11.309   0.430
70134W        W42482   6.182  28.064   1.361
70135W        W42483  14.123   4.835   5.294
70136W        W42484   0.829  37.951  10.599
70137W        W42485  24.094  43.458  10.580
70138W        W42486  44.003  35.969   2.294
70139W        W42487  34.880  39.495  11.953
70140W        W42488  32.911  39.050  12.969
70141W        W42489  17.771  23.682   0.746
70142W        W42490  37.857  14.105  11.571
70143W        W42491  26.591  38.039   0.394
70144W        W42492  30.001  19.177  12.485
70145W        W42493  33.548  21.534  11.856
70146W        W42494  35.415  28.517   3.715
70147W        W42495  35.416  30.533   3.148
70148W        W42496  31.922  18.606  13.417
70149W        W42497   6.790  15.745   2.260
70150W        W42498  20.579  43.444   1.754
70151W        W42499  42.363  13.766  10.642
70152W        W42500  34.027  35.033  12.343
70153W        W42501  33.384  18.754   4.146
70154W        W42502  44.378  13.304   2.838
70155W        W42503  26.976  16.600  12.929
70156W        W42504   5.821   8.892   3.759
70157W        W42505  37.922  36.991  12.992
70158W        W42506   2.453  29.080  13.853
70159W        W42507  33.607  21.083  14.334
70160W        W42508  38.397   9.673   2.294
70161W        W42509  36.898  33.421  13.458
70162W        W42510  18.555  27.975  12.424
70163W        W42511  25.100  15.709  13.329
70164W        W42512  38.891  33.392   4.115
70165W        W42513   4.312  41.908   1.840
70166W        W42514  42.399  11.186  13.473
70167W        W42515   3.247  26.048  14.499
70168W        W42516  10.827  34.991  10.509
70169W        W42517  35.016  23.688  14.949
70170W        W42518   5.286  18.667  11.080
70171W        W42519   8.222  20.567  14.994
70172W        W42520   9.736   8.688  13.983
70173W        W42521  37.542  28.673   3.788
70174W        W42522   1.859  44.313   3.771
70175W        W42523  42.013  18.593  11.993
70176W        W42524  10.244  42.920   3.699
70177W        W42525  39.001  28.565   0.805
70178W        W42526  20.094  20.117   4.189
70179W        W42527  22.552   2.273  11.008
70180W        W42528  25.656  37.370   3.784
70181W        W42529  36.521  41.825   3.214
70182W        W42530  39.819  23.094   4.675
70183W        W42531   9.827   7.695  14.289
70184W        W42532   2.943  40.543   3.829
70185W        W42533   1.341   0.434  14.337
70186W        W42534  11.741   8.307  11.087
70187W        W42535  38.388  35.945   0.789
70188W        W42536  29.430  22.070   1.251
70189W        W42537  15.646   6.740  14.380
70190W        W42538   7.827  14.789   1.390
70191W        W42539  32.434   3.820   1.413
70192W        W42540   1.315   0.903   1.773
70193W        W42541  21.577  26.187   2.775
70194W        W42542  44.437  35.100  12.563
70195W        W42543  32.478  26.073   0.811
70196W        W42544  34.603  17.214  11.611
70197W        W42545  21.736  22.736  11.119
70198W        W42546   4.237  22.584   4.199
70199W        W42547  30.070   3.755   3.248
70200W        W42548  18.294  42.785   3.692
70201W        W42549  22.183  43.895   0.397
70202W        W42550  42.408   5.818   3.291
70203W        W42551  24.647  21.026  10.970
70204W        W42552  18.772   4.256   2.300
70205W        W42553   5.255  25.969   2.733
70206W        W42554  16.619   2.794  10.454
70207W        W42555  26.594  44.927   4.729
70208W        W42556  12.252  23.563  10.483
70209W        W42557  19.113  14.103   0.420
70210W        W42558  42.028  34.944  10.919
70211W        W42559   7.305  30.594   5.152
70212W        W42560  22.168  42.917  14.957
70213W        W42561  32.902   8.862  13.308
70214W        W42562  35.959  26.647  10.052
70215W        W42563  35.517  17.637   3.382
70216W        W42564  42.783  39.344   1.254
70217W        W42565  21.180   1.772   0.755
70218W        W42566  32.026  42.830  13.546
70219W        W42567   3.457  12.126  12.394
70220W        W42568  31.601  30.568  13.921
70221W        W42569  23.571  15.218   1.273
70222W        W42570  24.123   6.401   2.227
70223W        W42571  32.479   8.769   4.663
70224W        W42572  28.624  27.082  13.912
70225W        W42573  21.032   3.738  13.383
70226W        W42574  20.611  27.634   0.951
70227W        W42575  32.469  39.984  11.968
70228W        W42576  22.083   5.395   0.745
70229W        W42577  30.437  41.334  11.983
70230W        W42578  19.126   9.728  13.379
70231W        W42579   3.414  28.628   4.135
70232W        W42580  43.446  36.934  10.913
70233W        W42581  31.612  31.546   2.811
70234W        W42582  12.829   7.252   0.260
70235W        W42583  41.481  12.667   1.723
70236W        W42584  34.402  26.572  12.007
70237W        W42585  10.723  23.201  13.976
70238W        W42586   5.739  15.094  12.574
70239W        W42587  11.691  39.905   1.425
70240W        W42588  44.489  42.890   2.759
70241W        W42589  17.078  41.997   0.964
70242W        W42590  10.693  17.757   4.818
70243W        W42591  23.223  32.893   3.183
70244W        W42592   9.826  42.295   0.729
70245W        W42593  34.608  12.726   4.667
70246W        W42594  23.577  27.024   2.416
70247W        W42595  17.802  13.740  11.574
70248W        W42596  27.568  17.089   4.225
70249W        W42597  43.858   8.225   4.153
70250W        W42598   1.916  39.907  10.563
70251W        W42599  10.792  29.570   3.156
70252W        W42600  40.917  44.799  11.531
70253W        W42601  24.080  27.082   0.326
70254W        W42602  11.792  25.617   4.675
70255W        W42603   4.231  28.124  14.391
70256W        W42604  18.732  29.522   0.388
70257W        W42605  34.482  41.295  13.377
70258W        W42606  26.600   3.721   1.416
70259W        W42607  24.083   3.242  11.560
70260W        W42608   6.872  33.412   1.435
70261W        W42609  20.577  33.021  12.056
70262W        W42610  18.547  20.572  14.785
70263W        W42611  17.587  28.064  13.528
70264W        W42612   8.206  21.633   3.244
70265W        W42613  24.057  19.745   0.289
70266W        W42614  10.339  10.260   3.256
70267W        W42615  20.609  42.449  14.499
70268W        W42616  11.132  27.545  13.367
70269W        W42617   8.703  33.580  10.470
70270W        W42618  14.743  42.513  12.068
70271W        W42619  39.553  33.469  11.560
70272W        W42620  29.055  42.480  11.423
70273W        W42621   4.706   0.355   1.759
70274W        W42622   5.363   0.284   1.769
70275W        W42623  41.399   2.381  12.823
70276W        W42624  18.129   2.874  14.341
70277W        W42625   7.713   8.756   2.303
70278W        W42626   8.254  22.574  13.983
70279W        W42627  29.979  25.199  11.384
70280W        W42628  27.965  18.207  14.794
70281W        W42629  21.161  19.190  13.460
70282W        W42630  18.183  10.379  13.932
70283W        W42631   0.359  40.353   1.771
70284W        W42632  28.635  26.044   4.189
70285W        W42633  23.565  19.686   2.830
70286W        W42634  37.368   8.379   2.274
70287W        W42635   2.947  17.222  11.120
70288W        W42636  31.625   5.235  14.349
70289W        W42637  16.772  24.491  14.871
70290W        W42638  38.910   4.281  14.372
70291W        W42639  33.471   6.728   0.411
70292W        W42640  15.812  19.613  10.989
70293W        W42641  33.044   4.407  13.472
70294W        W42642  20.272  24.534   3.159
70295W        W42643   9.226  39.814   4.659
70296W        W42644   0.393  31.451   4.791
70297W        W42645  42.798  11.191   3.646
70298W        W42646  26.630  14.121   3.339
70299W        W42647  16.648   1.765   4.711
70300W        W42648  43.802  26.979   3.764
70301W        W42649  11.819  15.745  12.061
70302W        W42650  42.283  21.171   4.757
70303W        W42651  32.924   6.283   0.873
70304W        W42652  40.444   5.882  12.866
70305W        W42653   9.296   0.804   2.208
70306W        W42654  44.995  32.087  13.463
70307W        W42655  12.712   5.695   3.365
70308W        W42656  28.480  13.832   4.344
70309W        W42657  42.419  44.924   1.858
70310W        W42658  26.488  16.670   4.224
70311W        W42659   7.784  12.161  13.973
70312W        W42660  28.074  32.554   0.455
70313W        W42661  36.078  17.780  13.418
70314W        W42662  38.508  26.068   3.245
70315W        W42663  34.429  19.232   0.466
70316W        W42664  31.901  39.964  10.487
70317W        W42665  26.994   3.316  11.941
70318W        W42666  38.494  20.557  14.783
70319W        W42667  35.537  38.886   2.400
70320W        W42668   8.307  31.077   3.166
70321W        W42669  36.981   3.848  13.900
70322W        W42670   4.399  40.501  12.362
70323W        W42671  19.603  33.985   3.376
70324W        W42672  30.061  42.884   2.833
70325W        W42673  18.787  23.135   2.345
70326W        W42674  28.643  27.563   3.704
70327W        W42675   8.682  10.347  11.900
70328W        W42676   1.406   8.896  11.577
70329W        W42677  15.577  19.670   1.923
70330W        W42678   9.776   8.160   0.846
70331W        W42679   4.258   4.403   2.302
70332W        W42680  37.045  24.650  10.627
70333W        W42681  36.001  38.017  13.003
70334W        W42682  40.399  44.005  13.911
70335W        W42683   1.374  18.075  13.409
70336W        W42684  12.129  43.499  13.912
70337W        W42685  19.133  26.140   1.325
70338W        W42686  31.446   2.802  12.064
70339W        W42687  15.150   0.805   1.429
70340W        W42688   7.780  21.568   2.360
70341W        W42689  30.465  25.986  14.431
70342W        W42690  29.169   8.249  14.806
70343W        W42691  23.102   3.376   4.122
70344W        W42692  17.730   8.200   0.321
70345W        W42693  22.078   9.226   4.685
70346W        W42694  17.093  11.207  11.376
70347W        W42695  30.446  31.903   3.301
70348W        W42696  26.107   5.428   1.891
70349W        W42697  44.338   7.682  11.036
70350W        W42698   2.942  35.458  11.047
70351W        W42699  35.024   1.868   1.825
70352W        W42700  30.433  17.649   2.196
70353W        W42701   9.690   0.804   1.284
70354W        W42702  14.238  17.713   1.259
70355W        W42703  33.409  14.132   0.771
70356W        W42704  24.056  22.540  14.888
70357W        W42705  41.823  20.034  13.036
70358W        W42706  20.737   1.263  11.416
70359W        W42707  44.813  37.511   5.195
70360W        W42708  18.195   7.893   1.825
70361W        W42709  38.014   6.785   9.531
70362W        W42710  39.369  18.101   3.368
70363W        W42711  15.090  15.735   1.356
70364W        W42712  18.740  36.912  11.948
70365W        W42713  13.791  42.508   4.307
70366W        W42714  15.236  22.156  13.855
70367W        W42715   7.676  20.602  11.954
70368W        W42716  25.124  22.178  10.412
70369W        W42717  39.812   4.389   0.424
70370W        W42718  32.412  37.861  10.040
70371W        W42719   3.846  33.407  11.581
70372W        W42720  20.620  23.705   0.470
70373W        W42721  26.670  17.770  12.844
70374W        W42722  38.870  34.013  11.895
70375W        W42723  23.625  31.500  12.550
70376W        W42724  19.059  38.505   4.343
70377W        W42725  23.735  17.206   4.674
70378W        W42726  29.627  25.997  12.483
70379W        W42727  36.930  41.356   0.382
70380W        W42728   7.202  35.102  10.423
70381W        W42729  40.454  26.079  14.929
70382W        W42730  24.074  24.110   2.300
70383W        W42731  30.599  26.967   0.771
70384W        W42732  25.595  42.399  14.892
70385W        W42733  30.655  34.590  10.060
70386W        W42734  43.837  26.686   0.741
70387W        W42735  15.602  13.613   0.448
70388W        W42736   5.429  20.691   1.933
70389W        W42737  14.102   7.175  12.980
70390W        W42738   8.350  12.669  14.433
70391W        W42739  10.852  44.391  12.012
70392W        W42740  44.885   6.918   3.323
70393W        W42741  29.959  24.512  12.415
70394W        W42742  15.780  16.726  14.844
70395W        W42743  15.627  35.909  13.001
70396W        W42744  36.556  33.031  14.902
70397W        W42745  30.123  28.554  10.976
70398W        W42746   6.896  24.140   0.415
70399W        W42747  10.816  15.087  11.879
70400W        W42748  33.439  28.020   3.826
70401W        W42749  29.140  16.080   1.267
70402W        W42750  26.958  28.038   4.337
70403W        W42751  16.641  19.749  12.503
70404W        W42752  20.198  20.545   3.246
70405W        W42753  37.389  34.059  11.025
70406W        W42754  23.533   6.814   1.270
70407W        W42755  37.366   3.350  12.864
70408W        W42756  15.628   9.696  13.407
70409W        W42757  30.598  41.395   2.739
70410W        W42758  21.569   0.779   1.356
70411W        W42759  16.744  14.195   5.679
70412W        W42760  21.186   4.284  10.975
70413W        W42761  25.544  24.539   0.304
70414W        W42762  14.829  42.016  12.477
70415W        W42763   7.286   2.882   0.792
70416W        W42764   4.851  41.296  13.531
70417W        W42765  40.517  44.384  12.038
70418W        W42766  35.030   2.412   0.939
70419W        W42767   2.722  23.176   0.414
70420W        W42768  26.062  11.187  10.466
70421W        W42769  37.348  20.161  13.444
70422W        W42770  13.657  37.369   3.749
70423W        W42771  10.683  24.587   0.814
70424W        W42772  34.602  33.047  11.948
70425W        W42773  26.492  39.546  13.803
70426W        W42774   0.881   9.346  11.407
70427W        W42775  29.583  21.035  10.519
70428W        W42776  42.308  33.513   0.355
70429W        W42777  35.420  22.174  11.089
70430W        W42778   2.895  33.517   1.309
70431W        W42779  31.424  43.809   0.733
70432W        W42780  20.612  35.500   0.811
70433W        W42781  26.585  13.188   1.852
70434W        W42782   8.827  32.889  12.826
70435W        W42783  31.087   1.877   3.385
70436W        W42784  41.946  23.667  10.534
70437W        W42785   1.471  32.583   0.731
70438W        W42786   7.678  27.106  11.512
70439W        W42787  16.699   0.945  11.578
70440W        W42788   5.343  20.128  13.536
70441W        W42789  42.513  40.499   4.632
70442W        W42790  13.345  11.269   2.355
70443W        W42791  17.305   7.194  10.900
70444W        W42792  27.520  23.604   3.635
70445W        W42793   5.206  44.387   0.367
70446W        W42794  24.697  44.943  14.420
70447W        W42795   0.250   5.865   2.699
70448W        W42796  22.027   6.913  11.517
70449W        W42797  11.165  28.002   2.686
70450W        W42798  21.569  16.180   4.232
70451W        W42799  12.795  25.486  10.640
70452W        W42800   7.373   6.182   3.150
70453W        W42801  28.642   7.703  10.490
70454W        W42802  43.969  33.495  13.017
70455W        W42803  30.019   3.735   4.327
70456W        W42804  37.953  38.416  14.335
70457W        W42805  41.988  42.491  11.863
70458W        W42806   8.691  32.625   0.926
70459W        W42807  32.601  18.092   3.174
70460W        W42808  23.717   9.789   1.215
70461W        W42809  37.550   4.265  10.463
70462W        W42810  12.853  10.185   3.642
70463W        W42811   6.803  32.090   3.698
70464W        W42812  39.452   4.822  14.428
70465W        W42813   8.708  42.409  13.814
70466W        W42814  18.260  35.431   4.738
70467W        W42815  33.385  38.044   2.753
70468W        W42816  12.146  38.968   3.265
70469W        W42817   7.714  36.430  11.438
70470W        W42818   9.670  36.351   3.690
70471W        W42819  41.395  42.783  13.895
70472W        W42820  36.488   4.868  11.977
70473W        W42821  23.546  10.844   0.358
70474W        W42822   4.816   4.251   3.253
70475W        W42823  10.314  22.028   5.641
70476W        W42824   3.887   0.933   3.693
70477W        W42825  12.279   5.276   1.418
70478W        W42826  22.014   8.279   5.201
70479W        W42827  21.140   8.289  11.865
70480W        W42828  22.162  28.987   0.922
70481W        W42829  35.996  19.639  12.885
70482W        W42830   0.941   7.306  11.473
70483W        W42831  18.247  39.481   0.389
70484W        W42832   3.726  21.132  11.425
70485W        W42833  28.641   2.253   3.281
70486W        W42834  38.957  14.615  14.813
70487W        W42835  40.952  43.513  11.969
70488W        W42836  42.808  25.690   1.726
70489W        W42837   7.321   4.854   0.429
70490W        W42838   9.332  41.908  13.875
70491W        W42839   8.189   3.814  14.351
70492W        W42840  19.749  10.757  11.561
70493W        W42841  41.324   8.388  14.955
70494W        W42842  25.048  22.706  10.996
70495W        W42843  16.595  29.995  14.332
70496W        W42844  12.679  18.564  11.481
70497W        W42845  21.609  17.060   0.408
70498W        W42846  40.896  35.968  11.465
70499W        W42847   9.805  31.092  10.590
70500W        W42848   3.716  39.023  14.010
70501W        W42849  29.018  22.090  12.886
70502W        W42850  16.720   3.330   0.842
70503W        W42851  17.062  28.436  12.999
70504W        W42852   5.416  34.927  10.906
70505W        W42853  37.480  25.086   1.768
70506W        W42854  14.130  17.234   0.437
70507W        W42855   7.230  12.646   3.204
70508W        W42856  29.438   1.861   0.799
70509W        W42857  42.505  19.109  11.073
70510W        W42858   3.913  11.186   4.349
70511W        W42859  17.123   0.883   4.628
70512W        W42860  16.790  36.910   4.752
70513W        W42861  27.065  23.729   2.277
70514W        W42862  21.530  29.464  10.997
70515W        W42863  34.405  39.449   0.928
70516W        W42864  32.069   2.418  13.054
70517W        W42865  32.556  36.090  10.933
70518W        W42866  40.852  43.928   2.871
70519W        W42867  43.781   3.740   2.238
70520W        W42868   8.201   0.404   4.786
70521W        W42869  34.906  21.615   3.835
70522W        W42870  38.439  28.093  12.899
70523W        W42871   6.709  37.073  12.032
70524W        W42872  31.505   4.206  10.607
70525W        W42873   6.918  17.676  13.995
70526W        W42874  25.139  41.874   3.177
70527W        W42875  16.717  15.140   4.708
70528W        W42876  31.067  40.408  12.456
70529W        W42877  43.821  31.109   4.301
70530W        W42878   7.384  28.585   1.246
70531W        W42879   2.795   8.199  14.514
70532W        W42880  25.198   1.445   2.187
70533W        W42881  25.654  29.154  11.868
70534W        W42882  11.797  29.156   2.184
70535W        W42883  44.391  43.765  11.911
70536W        W42884   6.737  34.591  10.932
70537W        W42885  17.777  19.747   4.220
70538W        W42886   5.364  19.178   4.215
70539W        W42887  24.538   7.801   3.319
70540W        W42888   0.869  43.426  12.053
70541W        W42889  18.052  30.532  13.811
70542W        W42890  12.805  31.126  14.288
70543W        W42891  33.917  27.132  12.398
70544W        W42892  39.000  15.106  10.612
70545W        W42893  15.145   9.743  13.893
70546W        W42894   3.766  24.028   3.313
70547W        W42895  10.787  27.033   0.398
70548W        W42896   9.652  39.056   1.791
70549W        W42897  17.189  24.536   1.429
70550W        W42898  33.019  32.582   1.415
70551W        W42899   6.732   8.728  12.074
70552W        W42900  13.148   3.772  11.858
70553W        W42901  24.136  19.281  10.436
70554W        W42902  40.834   1.383  14.278
70555W        W42903  35.977   6.850  11.416
70556W        W42904  26.096  29.948  10.518
70557W        W42905  36.023   3.361  14.924
70558W        W42906  19.167  14.109   1.811
70559W        W42907  44.437   8.239   5.265
70560W        W42908  30.431  30.090   0.872
70561W        W42909  20.625  11.157  14.967
70562W        W42910   8.665  17.216   0.809
70563W        W42911  17.655  42.489   1.272
70564W        W42912  32.140  38.396   0.805
70565W        W42913  21.111   4.302  12.029
70566W        W42914   5.215  17.656  14.913
70567W        W42915  41.028  41.394   0.475
70568W        W42916  11.214  28.441   2.682
70569W        W42917  13.340   2.227  13.332
70570W        W42918  37.050  43.412   4.144
70571W        W42919  12.215  28.537  10.947
70572W        W42920  15.777  12.706  11.109
70573W        W42921  11.667  34.874   3.824
70574W        W42922   9.276  37.379  11.524
70575W        W42923  29.527  33.057  13.493
70576W        W42924  29.925   4.407   1.835
70577W        W42925  40.306  27.599  11.460
70578W        W42926  39.955  22.563   4.805
70579W        W42927  44.453  32.025  12.057
70580W        W42928   3.709  39.317   3.771
70581W        W42929  23.679   6.225   2.807
70582W        W42930  25.079  16.766   4.806
70583W        W42931  29.544  25.507   4.298
70584W        W42932  20.766  14.146  12.416
70585W        W42933  36.553  38.414   3.727
70586W        W42934  32.028  41.997   3.639
70587W        W42935  32.422   3.714   1.695
70588W        W42936  44.939   8.177  13.889
70589W        W42937   7.379   6.374   1.216
70590W        W42938  10.665   6.186   2.701
70591W        W42939  16.150  26.050  12.342
70592W        W42940  28.665   9.770  11.919
70593W        W42941  38.018   8.331  12.060
70594W        W42942  34.971  33.443  12.460
70595W        W42943  35.869   5.831   3.660
70596W        W42944  44.323  31.467  12.353
70597W        W42945  41.387   7.803   3.843
70598W        W42946   4.819   6.382   1.858
70599W        W42947   2.228  40.877  10.913
70600W        W42948  37.992  43.861  10.432
70601W        W42949   9.170  34.523  14.892
70602W        W42950  13.169  37.363   0.813
70603W        W42951  21.178  33.122  11.080
70604W        W42952  40.345  17.106  14.314
70605W        W42953   2.295  24.035   2.240
70606W        W42954  26.993  33.104  12.354
70607W        W42955  28.076  38.446   0.401
70608W        W42956   4.388  10.875   0.897
70609W        W42957   8.877   8.729  13.816
70610W        W42958   4.945  15.275   4.153
70611W        W42959  32.501  29.525   3.702
70612W        W42960  15.757   6.358   2.337
70613W        W42961  21.648  12.141  13.987
70614W        W42962  31.522   3.457   1.281
70615W        W42963  30.499  33.485  12.080
70616W        W42964  16.112   1.335  12.403
70617W        W42965  19.750  13.112   3.379
70618W        W42966   8.678  40.962  10.467
70619W        W42967  22.702  19.053  11.045
70620W        W42968  19.724   0.826  13.845
70621W        W42969  26.676  18.075   2.759
70622W        W42970  37.360  36.060  10.592
70623W        W42971  20.767   8.699  13.397
70624W        W42972  37.574   4.447   2.875
70625W        W42973   8.899  28.938  14.487
70626W        W42974  26.621   7.907   4.648
70627W        W42975  12.146  20.059  14.312
70628W        W42976  18.589   7.180   0.266
70629W        W42977   2.391  14.236  14.936
70630W        W42978   7.696   6.331   2.835
70631W        W42979  23.594   4.303  14.994
70632W        W42980  15.217  39.035  14.928
70633W        W42981  42.479  43.335   0.820
70634W        W42982   9.737  12.835  14.467
70635W        W42983  11.365   9.246  10.485
70636W        W42984  25.189  37.567  11.970
70637W        W42985  11.159  26.657  13.453
70638W        W42986  35.577  37.074   1.770
70639W        W42987  20.179  17.289   0.886
70640W        W42988  14.710  41.942  14.410
70641W        W42989  23.619  42.939   3.227
70642W        W42990  36.022   7.305  11.075
70643W        W42991  28.638  37.348   5.184
70644W        W42992  30.951   8.395   1.425
70645W        W42993  40.480  32.894  10.991
70646W        W42994  33.021  12.813  12.553
70647W        W42995  43.981  22.724  10.623
70648W        W42996  13.618  11.235  11.075
70649W        W42997  41.025  24.496   3.311
70650W        W42998   5.413  11.654   0.462
70651W        W42999   7.413  21.609  11.911
70652W        W43000   5.775  29.621  10.910
70653W        W43001  39.362   5.292  11.489
70654W        W43002  22.241  41.417   2.848
70655W        W43003  24.033  32.457  10.920
70656W        W43004   6.783  42.508  13.062
70657W        W43005  39.402  33.028   2.382
70658W        W43006  27.970  30.016  11.098
70659W        W43007   1.782  22.640  13.005
70660W        W43008  16.140  29.431  14.364
70661W        W43009  16.607  25.487   4.271
70662W        W43010  10.383  40.541   3.835
70663W        W43011  26.083  24.559  14.321
70664W        W43012  31.940  15.655  12.579
70665W        W43013  42.967  34.505   2.200
70666W        W43014  27.969  41.333   3.714
70667W        W43015   1.955   3.252   2.235
70668W        W43016  14.214  13.307   5.613
70669W        W43017  19.255   3.427   4.734
70670W        W43018  34.018  18.175  12.850
70671W        W43019  28.178  22.117   0.843
70672W        W43020  30.638  15.323  12.841
70673W        W43021   3.883  14.321  10.483
70674W        W43022  41.855  43.300   4.247
70675W        W43023   7.911  31.601  13.869
70676W        W43024  42.975  22.593  14.855
70677W        W43025  15.144  36.486   3.779
70678W        W43026  41.900   5.312  10.920
70679W        W43027  25.512  27.193  14.350
70680W        W43028  34.391  19.726   2.883
70681W        W43029  23.004  41.329  10.905
70682W        W43030  28.470   2.906   3.659
70683W        W43031  30.585  16.598   3.295
70684W        W43032  16.755  23.621  14.477
70685W        W43033  32.449  23.157  10.522
70686W        W43034  42.896  17.179   2.224
70687W        W43035  28.933  34.959   2.710
70688W        W43036  37.482  32.488   4.721
70689W        W43037  42.850  18.058   3.654
70690W        W43038  27.050  29.146  13.027
70691W        W43039   4.387  15.805   2.212
70692W        W43040  24.184  26.036  12.879
70693W        W43041   3.256  23.998  12.400
70694W        W43042  42.388   2.768  14.344
70695W        W43043  24.715  10.863   3.756
70696W        W43044  37.866   4.208  12.407
70697W        W43045   9.875  28.655  12.048
70698W        W43046  42.428  22.998   1.241
70699W        W43047  38.876  42.480   2.731
70700W        W43048  39.875  41.457   3.645
70701W        W43049  15.703  38.838  12.543
70702W        W43050  44.858  17.690  12.065
70703W        W43051  15.228  33.106  14.883
70704W        W43052  24.644  24.669   4.752
70705W        W43053   8.285  21.103  14.361
70706W        W43054  24.162  29.069   1.774
70707W        W43055  18.294   8.229  14.877
70708W        W43056  24.597  36.049  11.121
70709W        W43057  12.231  27.142   4.656
70710W        W43058   9.878  12.724  13.398
70711W        W43059  23.688  16.703   2.862
70712W        W43060  26.518  42.316   5.220
70713W        W43061  44.335  32.973   0.758
70714W        W43062  15.643  16.630   5.165
70715W        W43063  40.933  17.194  13.307
70716W        W43064  16.215  17.077  12.097
70717W        W43065   5.316  29.922   2.726
70718W        W43066  23.077  17.256  11.036
70719W        W43067  23.695  12.644  12.957
70720W        W43068  37.514  12.730   1.439
70721W        W43069  32.622   8.350   5.586
70722W        W43070   3.373  10.722  14.421
70723W        W43071   0.839  22.661  12.425
70724W        W43072  19.077  20.588   3.210
70725W        W43073  16.196  40.492  14.470
70726W        W43074  22.120   6.270  12.847
70727W        W43075   5.305   2.298   1.365
70728W        W43076  14.187  20.765   4.298
70729W        W43077  16.781  37.432   1.366
70730W        W43078  15.173  21.619   4.211
70731W        W43079  43.005   0.807   0.425
70732W        W43080  35.947  41.357   3.675
70733W        W43081   2.418  35.367   4.178
70734W        W43082   0.938  25.167  13.987
70735W        W43083  10.240  29.559  12.846
70736W        W43084  38.968  25.152  12.346
70737W        W43085  43.961  10.235   3.162
70738W        W43086  10.375  10.785  12.453
70739W        W43087  19.557  44.290  14.379
70740W        W43088  41.308  31.445  11.539
70741W        W43089  27.547   3.298  13.024
70742W        W43090   8.335  14.722  12.085
70743W        W43091  44.283  44.779  11.880
70744W        W43092  33.004  15.180   1.378
70745W        W43093  34.884   5.373   4.284
70746W        W43094  40.050  14.721  14.415
70747W        W43095  40.052  43.471  11.878
70748W        W43096  19.713  44.858   2.271
70749W        W43097  11.767   7.907   1.710
70750W        W43098  34.017   1.878   2.225
70751W        W43099  21.604  16.292   0.315
70752W        W43100   7.336  19.751  11.551
70753W        W43101  18.254   1.282   2.879
70754W        W43102  42.021  18.217  11.375
70755W        W43103  29.574  19.277  14.806
70756W        W43104  29.146   7.872  12.917
70757W        W43105  22.571  30.088   1.821
70758W        W43106   7.263  22.017  11.486
70759W        W43107   6.228  19.267  12.454
70760W        W43108  36.910  39.407  13.963
70761W        W43109  14.207  12.708  13.470
70762W        W43110  32.547  26.026   0.473
70763W        W43111  37.355  32.475  12.022
70764W        W43112   3.439  44.953  14.302
70765W        W43113  19.233  43.806   4.637
70766W        W43114  26.178   0.901   0.326
70767W        W43115  22.137  27.626  11.414
70768W        W43116   7.843  12.812  11.029
70769W        W43117  33.551  37.507   0.862
70770W        W43118   0.361  22.543  14.978
70771W        W43119  30.429  11.259  10.528
70772W        W43120  32.993  38.500   0.731
70773W        W43121  27.677  44.385   1.319
70774W        W43122   9.678  27.513  12.949
70775W        W43123  25.146  10.326  14.329
70776W        W43124  10.345  34.401  13.856
70777W        W43125  43.897  44.398   2.181
70778W        W43126  44.481  34.507  10.548
70779W        W43127   4.934  11.735   0.845
70780W        W43128  11.664   4.722  13.988
70781W        W43129   3.341  13.196   2.724
70782W        W43130   0.481   4.937  14.881
70783W        W43131   2.373  13.175   4.328
70784W        W43132  31.606  37.887   4.627
70785W        W43133   8.339   6.272  14.938
70786W        W43134  20.042  18.555   1.263
70787W        W43135  36.367   0.315  13.791
70788W        W43136  28.628   2.312  15.000
70789W        W43137  18.595   0.928  14.516
70790W        W43138  43.327  39.401   1.791
70791W        W43139  34.019  34.587  11.540
70792W        W43140  13.611   0.290  13.525
70793W        W43141  28.574   2.385   2.288
70794W        W43142   8.331  21.712   1.240
70795W        W43143  10.171  21.528  13.061
70796W        W43144   5.334  23.041  14.498
70797W        W43145  18.785   5.272   2.812
70798W        W43146  36.566   5.775  13.000
70799W        W43147  19.596  43.930   0.773
70800W        W43148  31.949  33.975   2.899
70801W        W43149  29.015  15.232  13.362
70802W        W43150  44.756  13.314   2.412
70803W        W43151  31.943  27.490   2.190
70804W        W43152  25.118  22.159   4.192
70805W        W43153  35.420   9.351   3.212
70806W        W43154  44.460  27.989   3.663
70807W        W43155  44.344  26.983  10.936
70808W        W43156  20.044   6.856   0.433
70809W        W43157  34.930  33.443   5.300
70810W        W43158  37.923  38.941  14.962
70811W        W43159   0.935  21.102  11.552
70812W        W43160  29.593  30.462  13.402
70813W        W43161  38.856   1.443   2.316
70814W        W43162  26.477  34.964   3.715
70815W        W43163  43.415   0.852   1.221
70816W        W43164   0.453  43.329   2.283
70817W        W43165  13.157  25.541   1.812
70818W        W43166  30.985  15.122  13.818
70819W        W43167  25.998  24.024  12.520
70820W        W43168  27.127  29.015  14.388
70821W        W43169   1.750  34.040   1.729
70822W        W43170  35.444  10.173  14.904
70823W        W43171   6.218   2.397   1.823
70824W        W43172  23.070  24.097   9.923
70825W        W43173  42.986  43.830   3.868
70826W        W43174  40.482  16.727   3.700
70827W        W43175   7.175  13.138   3.829
70828W        W43176  37.072  26.661  14.873
70829W        W43177  15.129  21.078  14.276
70830W        W43178  42.417   7.695  13.446
70831W        W43179  37.837  31.101   2.370
70832W        W43180  22.669  11.801  11.974
70833W        W43181  30.910  38.043   1.760
70834W        W43182  28.085  38.960  11.407
70835W        W43183  16.098   3.863   2.199
70836W        W43184  36.073  44.368  13.485
70837W        W43185  22.673   1.250   3.746
70838W        W43186  26.077  43.468   3.293
70839W        W43187  16.102  44.409  12.037
70840W        W43188  28.972  42.373  14.351
70841W        W43189  26.459  41.835   1.439
70842W        W43190   5.912  11.367  14.770
70843W        W43191   8.839  23.171   5.588
70844W        W43192   7.252  39.997   2.338
70845W        W43193  17.757   3.883   2.751
70846W        W43194  26.032   6.406   4.242
70847W        W43195   5.697  23.064   3.744
70848W        W43196  21.581  11.655   3.259
70849W        W43197  40.443  22.633  11.947
70850W        W43198  20.095   6.259  12.068
70851W        W43199  11.720  29.140   1.446
70852W        W43200  21.204  26.197  11.391
70853W        W43201  17.067  29.606  10.985
70854W        W43202  11.310  36.371  11.550
70855W        W43203  27.978  28.950   4.838
70856W        W43204   3.253  30.989  14.849
70857W        W43205  33.419  38.463   1.788
70858W        W43206  30.425  35.892   5.225
70859W        W43207  22.505  22.511  12.008
70860W        W43208  40.402  10.660  12.568
70861W        W43209   5.932   6.830   0.966
70862W        W43210  40.521  24.180   4.136
70863W        W43211  20.099   2.821   3.636
70864W        W43212  15.578  33.592  11.440
70865W        W43213  20.059  18.246   0.822
70866W        W43214  11.657  15.164  10.953
70867W        W43215  30.473  12.789  14.866
70868W        W43216  20.553  19.616   3.167
70869W        W43217   8.280   2.752  10.890
70870W        W43218   9.166  42.300   4.626
70871W        W43219  23.167  10.657   1.241
70872W        W43220  21.194  29.926  11.561
70873W        W43221  14.119  35.581  12.374
70874W        W43222  23.607  34.416   2.838
70875W        W43223  26.085  28.496   3.166
70876W        W43224  17.751   3.339  14.313
70877W        W43225  16.669  20.548  12.477
70878W        W43226  10.737  34.491   1.265
70879W        W43227  23.208  42.981  13.538
70880W        W43228  23.517  17.610  11.954
70881W        W43229  24.675  19.639   0.453
70882W        W43230   9.739  17.579  12.557
70883W        W43231  38.074  43.418   0.257
70884W        W43232  20.689  38.898   4.796
70885W        W43233  15.702  30.136  11.980
70886W        W43234  41.527  29.533  13.966
70887W        W43235  17.703  43.921  11.486
70888W        W43236  28.565  13.660  12.050
70889W        W43237  13.258  35.544   3.805
70890W        W43238  15.798   2.467   1.366
70891W        W43239  43.366   4.857  14.869
70892W        W43240   7.189  21.560  11.576
70893W        W43241  26.683  44.841  14.342
70894W        W43242  18.650   5.354  13.962
70895W        W43243  10.332   0.390  12.049
70896W        W43244   4.315   2.781  14.016
70897W        W43245  37.898  44.838  12.968
70898W        W43246  33.598  23.723  11.505
70899W        W43247  30.970  20.149  13.400
70900W        W43248  20.183  41.354   2.783
70901W        W43249   6.843  11.198  13.965
70902W        W43250  39.318   3.819  13.794
70903W        W43251   4.291  32.485  14.826
70904W        W43252  14.314  43.946  10.497
70905W        W43253  38.844  23.075  12.936
70906W        W43254  39.369  32.519  10.500
70907W        W43255  36.359  18.725  10.107
70908W        W43256   5.716   4.781   1.448
70909W        W43257  38.904  15.157  10.944
70910W        W43258  12.689  40.324  11.085
70911W        W43259  11.275   6.861   4.746
70912W        W43260  17.065  17.656   0.466
70913W        W43261  12.350  22.059  13.457
70914W        W43262  23.689  16.663  10.608
70915W        W43263   8.177  33.514  10.446
70916W        W43264  39.973  36.929  12.425
70917W        W43265  25.705  41.797  12.909
70918W        W43266  21.078  29.533  11.855
70919W        W43267  24.565   5.836  11.938
70920W        W43268  24.487   9.810   2.211
70921W        W43269  43.797  41.292  13.479
70922W        W43270  31.624  37.965  10.639
70923W        W43271  36.941   6.294  13.403
70924W        W43272  17.787   1.767  11.453
70925W        W43273  29.662  24.035   0.341
70926W        W43274  35.513  18.614   2.731
70927W        W43275   2.853  31.005   2.402
70928W        W43276  26.699  43.273  12.969
70929W        W43277  33.107   6.803  13.914
70930W        W43278  10.169  18.248  10.597
70931W        W43279  32.115  42.436   2.700
70932W        W43280  22.696  42.892   5.212
70933W        W43281  26.150   6.780   2.887
70934W        W43282  28.566   2.331  14.026
70935W        W43283   3.403  34.964   1.916
70936W        W43284  44.368  28.083  11.081
70937W        W43285   0.796   1.445  14.811
70938W        W43286  33.093  44.766   4.191
70939W        W43287  18.652  24.227   1.266
70940W        W43288  35.546  43.454  14.904
70941W        W43289  43.369  21.051   1.820
70942W        W43290   4.898  38.373  13.428
70943W        W43291  30.653  42.994  13.310
70944W        W43292  27.508  17.565   3.721
70945W        W43293  40.014  27.683  13.433
70946W        W43294  30.622  41.435   0.726
70947W        W43295  13.320  13.773   4.673
70948W        W43296   8.331  37.422   3.744
70949W        W43297  35.562  32.619  13.507
70950W        W43298  43.478  42.860   2.338
70951W        W43299  27.977  18.614   1.767
70952W        W43300   7.853   3.407   4.673
70953W        W43301  14.746  25.512   0.384
70954W        W43302  18.220  13.341  11.966
70955W        W43303  21.758  11.675  11.439
70956W        W43304   4.205  30.595   1.363
70957W        W43305  25.018   6.340   3.336
70958W        W43306  29.954   8.163   3.712
70959W        W43307  37.404  41.403   1.898
70960W        W43308  21.160  42.484  14.295
70961W        W43309  25.592  15.773  12.889
70962W        W43310  41.977  16.717   1.216
70963W        W43311  15.812  13.783  12.534
70964W        W43312  22.587  16.781  13.464
70965W        W43313   3.391  33.439  14.794
70966W        W43314   5.868  31.478  12.543
70967W        W43315  38.055   5.287  13.900
70968W        W43316   4.429  34.944  10.905
70969W        W43317   1.820  42.943  13.052
70970W        W43318  33.057  27.980   4.792
70971W        W43319   6.905  28.052  10.492
70972W        W43320  20.045  37.835   4.796
70973W        W43321  14.713  29.465  14.366
70974W        W43322  14.302  16.163  14.304
70975W        W43323  11.756  20.556   1.224
70976W        W43324   6.363  19.682   2.852
70977W        W43325  12.316  41.798  11.591
70978W        W43326  44.452  13.775  12.071
70979W        W43327  23.658  21.741   1.385
70980W        W43328   7.762  34.442   1.419
70981W        W43329  21.109  10.241  14.879
70982W        W43330  26.993   5.753  14.981
70983W        W43331  14.655  41.367  10.611
70984W        W43332  35.027  38.845  11.379
70985W        W43333  37.375   7.360  14.391
70986W        W43334  44.979  21.117   0.330
70987W        W43335  29.616   1.946  12.029
70988W        W43336   9.848  34.927  13.521
70989W        W43337   9.314  36.841   1.817
70990W        W43338  13.141   9.308   3.361
70991W        W43339  11.708  26.556  10.547
70992W        W43340  14.317  24.503  13.398
70993W        W43341  41.441   8.864  10.977
70994W        W43342  28.467  26.473   4.225
70995W        W43343  33.433  10.238  12.882
70996W        W43344  25.990  28.940   0.762
70997W        W43345   6.207  26.503   0.249
70998W        W43346   1.797  44.936  11.940
70999W        W43347  43.903  28.467  13.308
71000W        W43348  26.124  14.750   3.669
71001W        W43349  22.150  40.400   1.706
71002W        W43350  24.155  19.115  11.978
71003W        W43351  43.813   0.871   2.258
71004W        W43352  16.784  19.630   0.297
71005W        W43353  25.515  25.977  12.911
71006W        W43354   9.846  26.474   4.124
71007W        W43355  28.470  32.623   2.320
71008W        W43356  29.527   1.382  12.084
71009W        W43357  24.192  33.396   2.814
71010W        W43358  41.321  26.503  10.961
71011W        W43359   9.383  35.028   1.718
71012W        W43360  23.625  41.457  10.893
71013W        W43361  17.266  44.960   3.165
71014W        W43362   4.248  20.213   4.700
71015W        W43363  38.459  33.449   2.354
71016W        W43364  33.406  40.425   1.829
71017W        W43365  34.573  22.162  11.371
71018W        W43366  25.996  44.382  13.971
71019W        W43367   0.768  41.913   1.854
71020W        W43368  21.663  41.861  12.029
71021W        W43369  20.684  31.051  13.311
71022W        W43370  18.719   2.290   0.805
71023W        W43371  40.019  11.309  13.399
71024W        W43372   2.272  26.952  12.068
71025W        W43373  32.135   0.446   1.399
71026W        W43374  28.153  36.993  11.957
71027W        W43375   5.777   2.417  10.412
71028W        W43376  19.583  26.060   0.290
71029W        W43377  25.679  17.790   4.663
71030W        W43378  28.562  39.469   0.274
71031W        W43379  12.233  35.369  11.053
71032W        W43380  42.973  10.791   1.430
71033W        W43381  27.982   3.236   5.215
71034W        W43382  11.200  12.291   1.711
71035W        W43383  10.708   2.843  10.622
71036W        W43384  34.897  12.318  13.382
71037W        W43385   9.788  30.501  11.373
71038W        W43386   8.850  13.128  14.806
71039W        W43387   0.924  44.418  11.425
71040W        W43388  43.833   8.388   1.766
71041W        W43389  28.004  17.196  11.978
71042W        W43390   6.881   7.837   3.656
71043W        W43391  32.433   7.909   5.168
71044W        W43392   9.813   2.275  14.511
71045W        W43393   2.798  10.262  10.427
71046W        W43394   7.299  10.802  14.278
71047W        W43395  14.339  42.920   3.803
71048W        W43396  29.140  30.004  11.502
71049W        W43397  14.276  22.114   0.888
71050W        W43398  10.649  42.319  14.825
71051W        W43399  19.578  12.345  12.499
71052W        W43400   1.266  35.577   0.313
71053W        W43401   6.851  21.715   4.631
71054W        W43402  17.139  44.886  12.842
71055W        W43403  29.569  13.695   3.665
71056W        W43404  35.554  28.032   2.381
71057W        W43405   9.786  14.715   2.802
71058W        W43406  30.577   7.404  12.461
71059W        W43407   6.319  22.614   4.230
71060W        W43408  13.769  37.574  14.330
71061W        W43409  43.808  34.427  11.573
71062W        W43410  37.371  23.087  14.012
71063W        W43411   9.187  25.575   4.349
71064W        W43412  42.951  34.612  12.553
71065W        W43413  15.142  41.500  10.924
71066W        W43414  18.193   4.431  13.886
71067W        W43415   9.767  37.344  11.569
71068W        W43416  42.426  36.096   1.352
71069W        W43417  15.275   6.267   3.315
71070W        W43418  40.972   9.753  13.448
71071W        W43419  11.668  15.324  14.321
71072W        W43420  18.791  16.740  12.859
71073W        W43421  14.714  25.507  11.434
71074W        W43422   2.752  22.651   0.445
71075W        W43423  29.069  30.118  14.763
71076W        W43424  28.168  31.511   3.704
71077W        W43425   7.281   3.216   0.944
71078W        W43426  20.269  25.114  11.508
71079W        W43427  31.606  43.861  14.439
71080W        W43428  36.989  44.482   4.606
71081W        W43429  34.534  40.422   1.343
71082W        W43430  39.910  20.079   2.285
71083W        W43431   0.438  31.056  13.994
71084W        W43432  27.679   4.714   2.292
71085W        W43433  40.875  20.036  14.987
71086W        W43434  35.896  31.006  10.962
71087W        W43435  30.579  34.965   0.403
71088W        W43436   7.843  33.037   5.257
71089W        W43437  28.606  38.430   2.764
71090W        W43438  24.563  42.812   1.214
71091W        W43439  34.034   0.340   1.729
71092W        W43440  22.737  16.696   1.300
71093W        W43441   4.349   0.935   4.249
71094W        W43442  25.558  31.563   4.655
71095W        W43443  34.111  23.526   1.294
71096W        W43444  26.588  39.902   1.917
71097W        W43445   7.214  42.869  11.037
71098W        W43446   1.267   7.857   2.804
71099W        W43447  16.190  25.205   3.324
71100W        W43448  27.545   2.355   2.805
71101W        W43449  21.724  42.789  12.431
71102W        W43450  34.018  16.280   3.868
71103W        W43451  28.461  17.169   4.208
71104W        W43452  25.474  11.256   4.125
71105W        W43453   1.777  41.969   4.736
71106W        W43454  41.465  31.590  10.472
71107W        W43455   8.766  34.106   2.308
71108W        W43456  30.093  33.961   2.270
71109W        W43457  42.303  12.804   2.310
71110W        W43458  36.019  23.232  13.449
71111W        W43459  31.002  19.686  11.030
71112W        W43460  44.455  25.145  12.535
71113W        W43461  23.647  14.751  12.916
71114W        W43462  12.654  37.523  11.434
71115W        W43463  28.120  31.950   4.813
71116W        W43464   1.931  28.101  14.970
71117W        W43465  39.385  35.909  14.769
71118W        W43466  18.693  12.708  12.088
71119W        W43467  36.940  23.209  14.025
71120W        W43468   5.281  10.182   4.787
71121W        W43469  17.070  30.144   4.191
71122W        W43470  22.999  24.141  11.613
71123W        W43471  33.502  43.475  13.802
71124W        W43472  23.516  12.298   2.835
71125W        W43473  14.758  29.093  14.905
71126W        W43474  29.930  32.585   2.335
71127W        W43475   1.808  12.852   3.843
71128W        W43476   9.229  33.474   0.798
71129W        W43477  44.823  43.316   0.316
71130W        W43478  29.623   9.869   2.712
71131W        W43479  30.047  27.185   1.256
71132W        W43480  40.809  18.726  11.051
71133W        W43481   9.666   5.689  10.607
71134W        W43482   9.701   2.749   1.237
71135W        W43483  18.144  42.417   1.219
71136W        W43484  37.513  22.619   4.740
71137W        W43485  36.928   3.877  10.440
71138W        W43486  44.419  27.110  11.604
71139W        W43487   2.761  43.338  12.364
71140W        W43488  34.599  21.705   3.691
71141W        W43489  44.429  35.418   4.637
71142W        W43490  14.816   3.941   1.409
71143W        W43491   9.733  35.884   4.602
71144W        W43492  26.179  17.292   1.929
71145W        W43493   5.870  30.461  13.976
71146W        W43494  23.215  40.504   1.820
71147W        W43495   1.382  26.974   0.389
71148W        W43496  40.537   3.785  13.931
71149W        W43497   6.231  11.214   4.308
71150W        W43498  18.070  12.823  13.453
71151W        W43499  12.855  13.729   4.127
71152W        W43500  14.781  43.332  11.937
71153W        W43501  33.547  39.503  14.882
71154W        W43502  35.536   8.670   1.749
71155W        W43503   9.252  25.678   1.869
71156W        W43504  39.365   2.832   3.743
71157W        W43505  21.758   9.194  14.461
71158W        W43506  15.280  15.658   0.841
71159W        W43507  41.993  37.554   0.281
71160W        W43508  29.005  10.737   1.774
71161W        W43509  25.709  41.017   4.740
71162W        W43510  44.839   7.399   1.358
71163W        W43511  24.511   4.698   4.651
71164W        W43512   6.709   1.385  14.909
71165W        W43513  44.973  14.313   0.923
71166W        W43514  25.482  22.547  10.506
71167W        W43515  21.176  10.304   3.199
71168W        W43516  13.118   6.266   5.234
71169W        W43517  34.605   7.847  13.825
71170W        W43518  10.636   7.670  13.915
71171W        W43519   2.811   2.349  13.022
71172W        W43520  10.668  42.324   0.376
71173W        W43521  29.480   2.290  14.330
71174W        W43522  13.808  42.958   1.702
71175W        W43523   7.665  14.221  14.927
71176W        W43524  17.741  12.328  10.994
71177W        W43525   5.925  23.007   2.188
71178W        W43526  15.630  25.572   1.268
71179W        W43527   6.275   4.757  14.904
71180W        W43528  38.471  29.615  14.873
71181W        W43529  36.007  16.135   0.872
71182W        W43530  11.683  26.151   2.246
71183W        W43531  18.194   7.909   4.835
71184W        W43532  24.152  28.020   2.816
71185W        W43533  44.500  40.494  14.396
71186W        W43534  12.354  16.204   3.267
71187W        W43535  22.589   0.401  12.042
71188W        W43536  19.589  33.914   4.296
71189W        W43537   8.654   0.372  14.998
71190W        W43538  22.730   4.867   0.761
71191W        W43539  14.693   9.315   0.948
71192W        W43540   4.830   9.722   1.747
71193W        W43541  40.897  36.348  14.929
71194W        W43542  28.650  17.577  13.371
71195W        W43543  30.549  36.065  10.093
71196W        W43544  22.229  10.178   4.757
71197W        W43545  40.895  30.641  14.925
71198W        W43546  27.944  30.614  10.020
71199W        W43547   2.742   1.808   3.263
71200W        W43548  43.482  31.028  10.476
71201W        W43549  44.775  19.636  13.488
71202W        W43550  40.995  36.971   2.772
71203W        W43551  20.718  43.897   4.707
71204W        W43552  11.362  43.362   1.814
71205W        W43553  31.959  39.313  13.509
71206W        W43554  19.772  16.695   0.334
71207W        W43555  38.965   9.832   2.830
71208W        W43556  20.523  21.689   1.289
71209W        W43557   0.822  39.349  14.491
71210W        W43558  15.280  22.620  11.872
71211W        W43559  39.038  42.511   2.360
71212W        W43560  11.795  31.940  14.452
71213W        W43561  10.242  41.988  11.410
71214W        W43562  33.106  30.145  10.461
71215W        W43563   4.205   2.723  13.459
71216W        W43564  31.510  24.658   0.282
71217W        W43565  25.101  40.346   5.204
71218W        W43566  15.132  18.081   4.121
71219W        W43567  26.599  23.491   0.918
71220W        W43568  36.534   9.858  13.315
71221W        W43569   2.323  36.866  10.613
71222W        W43570  37.415   8.350  12.411
71223W        W43571  23.174   4.739   3.224
71224W        W43572  35.600  20.664  13.319
71225W        W43573  24.507  12.615  12.997
71226W        W43574  17.110   7.375   4.693
71227W        W43575  27.120  20.661   0.876
71228W        W43576  10.334  12.155  13.475
71229W        W43577  44.298   5.203   4.782
71230W        W43578  30.087   0.859   2.272
71231W        W43579  36.091  32.589   4.146
71232W        W43580  25.066   9.218  14.998
71233W        W43581  16.602   4.732   0.261
71234W        W43582  36.863   2.722  13.982
71235W        W43583  23.724  25.672   4.288
71236W        W43584  27.478  39.037  13.041
71237W        W43585  37.555  38.551   4.697
71238W        W43586  17.788   5.892  13.539
71239W        W43587  29.089  42.959   4.618
71240W        W43588  14.178  28.509  14.873
71241W        W43589  11.703  21.600  10.101
71242W        W43590  13.106  44.349  11.607
71243W        W43591  42.917  25.488  13.839
71244W        W43592  28.167  10.373   3.685
71245W        W43593  44.962  39.539  12.521
71246W        W43594  38.937  29.465   4.836
71247W        W43595  43.810  32.106  13.482
71248W        W43596  23.573  28.672  11.460
71249W        W43597  11.135  31.979  10.900
71250W        W43598  35.598  28.453   0.939
71251W        W43599  36.030  42.980   0.858
71252W        W43600  30.598  25.042   3.783
71253W        W43601  28.676  43.975  14.867
71254W        W43602   5.356  33.063   0.465
71255W        W43603   1.796  32.939   2.340
71256W        W43604  23.227  13.771   0.757
71257W        W43605  20.144  28.971  14.781
71258W        W43606  43.471  38.405  14.510
71259W        W43607   0.891  15.586   9.977
71260W        W43608  17.297  26.636   1.935
71261W        W43609   3.780  14.705  14.352
71262W        W43610  30.913  42.461   0.744
71263W        W43611  28.466  42.851  10.037
71264W        W43612  17.238  14.220  12.503
71265W        W43613  40.413   4.438   4.687
71266W        W43614  43.910  24.212  14.288
71267W        W43615  17.672  24.624   2.373
71268W        W43616  31.994  12.230   3.198
71269W        W43617  38.441  22.107   0.871
71270W        W43618   0.469  18.201  11.111
71271W        W43619  36.493  28.977  14.469
71272W        W43620  25.147  30.162  13.459
71273W        W43621   4.237  16.274  13.936
71274W        W43622  39.558  21.216  12.970
71275W        W43623  43.446  28.996  10.965
71276W        W43624  30.617  20.191   2.307
71277W        W43625  33.608  14.699  11.960
71278W        W43626  31.404  22.589  14.917
71279W        W43627  23.039   9.211  12.840
71280W        W43628   6.324   2.231   4.725
71281W        W43629  12.139  44.433  13.489
71282W        W43630  10.729  21.692   5.749
71283W        W43631  30.911  22.695   2.238
71284W        W43632  37.842  17.782  11.020
71285W        W43633  13.260  12.843   2.679
71286W        W43634  36.576  30.917  11.962
71287W        W43635  17.668  39.436  12.929
71288W        W43636   6.282  43.804  11.533
71289W        W43637  43.948  23.211  12.060
71290W        W43638  32.982  33.115  13.469
71291W        W43639  38.340  19.556   3.320
71292W        W43640  35.899   5.697  11.951
71293W        W43641  17.731  20.587  12.032
71294W        W43642  19.619  39.048  14.403
71295W        W43643  30.535  39.408  13.512
71296W        W43644  37.873   2.411  14.943
71297W        W43645   7.780  31.626  11.000
71298W        W43646  42.878  25.177   3.333
71299W        W43647   5.405  43.321  13.980
71300W        W43648  38.857  43.373  10.568
71301W        W43649   8.867  22.591  10.467
71302W        W43650  23.092  31.101   0.434
71303W        W43651  24.700  40.460   4.690
71304W        W43652  23.606  32.593   1.709
71305W        W43653  16.106  15.213   0.364
71306W        W43654  32.599   2.775   4.694
71307W        W43655  27.637  37.999  12.490
71308W        W43656  11.246  16.736   3.821
71309W        W43657  41.406   7.708  10.491
71310W        W43658  15.746  10.205   0.394
71311W        W43659  20.593  43.792   1.794
71312W        W43660  29.007  31.120   1.332
71313W        W43661  29.527  29.646   5.186
71314W        W43662  31.403  25.611  11.581
71315W        W43663  39.846  15.821   2.867
71316W        W43664  27.637  19.220  11.884
71317W        W43665  22.109  42.394  10.413
71318W        W43666  35.056   8.797  10.578
71319W        W43667   2.423  26.579  11.471
71320W        W43668  36.864  12.815  10.460
71321W        W43669  28.964  12.252  12.023
71322W        W43670  16.181  17.584   0.953
71323W        W43671  18.647  37.506  12.580
71324W        W43672   0.272  42.021  12.042
71325W        W43673  30.019  31.128  11.504
71326W        W43674  42.371  13.180   0.348
71327W        W43675   9.218   5.271  13.940
71328W        W43676   1.307  19.272  13.007
71329W        W43677   8.181  38.068   1.223
71330W        W43678   7.851  30.520  12.429
71331W        W43679  41.872  20.206  10.436
71332W        W43680  37.910  10.720   3.631
71333W        W43681  40.014  36.356   0.880
71334W        W43682  31.929  24.633  12.580
71335W        W43683   6.900  34.868   1.869
71336W        W43684  41.890   9.870  13.421
71337W        W43685  32.609  19.602   4.241
71338W        W43686  33.617  18.085  14.379
71339W        W43687   1.475  15.803   4.314
71340W        W43688  20.560  21.089   3.716
71341W        W43689  25.983  31.586  10.888
71342W        W43690   1.785  24.984  13.331
71343W        W43691  12.855   8.780  12.882
71344W        W43692  18.171   7.794  10.608
71345W        W43693   1.891  39.391  10.967
71346W        W43694  36.092   6.706  11.912
71347W        W43695  35.500  18.578   1.376
71348W        W43696  28.048  13.168  10.025
71349W        W43697  30.597  13.219   4.809
71350W        W43698   0.440  42.950  12.896
71351W        W43699  17.112  20.119  11.464
71352W        W43700  12.313  30.577  11.587
71353W        W43701  13.143  37.955   2.409
71354W        W43702  32.436  39.840  13.410
71355W        W43703  38.839  42.372   1.264
71356W        W43704  29.544  18.090  13.863
71357W        W43705  13.292  17.748   1.887
71358W        W43706  10.181  35.873   0.303
71359W        W43707  17.703  40.508   4.209
71360W        W43708  18.101   7.267   0.749
71361W        W43709   4.939  21.750   3.294
71362W        W43710   8.194  24.170  13.051
71363W        W43711  14.338  33.479   3.709
71364W        W43712   1.752  11.724   1.340
71365W        W43713  18.592   9.805  10.550
71366W        W43714  37.006  44.917  11.930
71367W        W43715   0.862  44.934   2.332
71368W        W43716   7.284  10.672   1.334
71369W        W43717  12.275   3.883  13.381
71370W        W43718  17.657  42.925  11.123
71371W        W43719   3.806  22.235   1.428
71372W        W43720  24.650  39.353  12.350
71373W        W43721  25.119  27.538  12.998
71374W        W43722  18.123  38.823   3.771
71375W        W43723  19.209  14.757   2.700
71376W        W43724   4.817  34.525  11.461
71377W        W43725  40.807  17.062   3.804
71378W        W43726  17.159  39.982  14.347
71379W        W43727  24.079  33.113  10.978
71380W        W43728  25.485   5.280   3.641
71381W        W43729  42.370  10.776  10.611
71382W        W43730  11.152  15.600   5.270
71383W        W43731  37.074  13.222  14.295
71384W        W43732  36.576   3.431  10.526
71385W        W43733  26.558   0.399   0.878
71386W        W43734  18.259  42.468  11.426
71387W        W43735  38.457  21.163  13.855
71388W        W43736  43.939  37.996   0.934
71389W        W43737  24.141   8.812   3.297
71390W        W43738  16.220  30.153  14.884
71391W        W43739  26.685  25.660   4.664
71392W        W43740  36.029   6.347   5.085
71393W        W43741  21.085  19.064   0.900
71394W        W43742  16.139   0.277   4.675
71395W        W43743  17.557  22.632  14.981
71396W        W43744  18.609  41.475   3.186
71397W        W43745  30.608   6.186  10.084
71398W        W43746  24.624  39.522   1.352
71399W        W43747  18.750  18.117   2.333
71400W        W43748   3.827  39.406   2.717
71401W        W43749   9.659  21.711  14.487
71402W        W43750  34.877   6.297  14.339
71403W        W43751  26.497   3.410  14.404
71404W        W43752  10.842  16.719   4.679
71405W        W43753  22.585  21.593  13.426
71406W        W43754   7.718   1.847  11.004
71407W        W43755  13.840   2.394   0.461
71408W        W43756  14.788  30.625  10.947
71409W        W43757  24.145  38.018   4.169
71410W        W43758  39.414  31.032  14.388
71411W        W43759  16.642   3.259  12.347
71412W        W43760   7.867   0.489   1.444
71413W        W43761  31.090   1.274   2.329
71414W        W43762  36.060  32.053   4.790
71415W        W43763  15.147  17.606   1.246
71416W        W43764  44.424  22.712   0.811
71417W        W43765  44.900   7.190  14.829
71418W        W43766  27.646   5.770  11.963
71419W        W43767  36.473  43.902  13.357
71420W        W43768   2.355  31.434  11.085
71421W        W43769  43.940   2.328  10.547
71422W        W43770  37.933   6.424  12.345
71423W        W43771   7.704  16.083   2.240
71424W        W43772   2.823  41.344   3.339
71425W        W43773  31.933  18.689   2.824
71426W        W43774   4.730   6.729   2.328
71427W        W43775  36.058   1.971  10.978
71428W        W43776   5.863  37.549   3.286
71429W        W43777   4.800   9.713  11.583
71430W        W43778  35.094  18.228  13.325
71431W        W43779  25.055  40.380  14.965
71432W        W43780   0.391  41.484   4.316
71433W        W43781  31.438   2.947   3.802
71434W        W43782  17.215  34.025  14.293
71435W        W43783  21.028   0.794  14.836
71436W        W43784   1.857  26.054   3.716
71437W        W43785  39.543   8.753  11.489
71438W        W43786   8.399  43.783  10.466
71439W        W43787  21.166  43.390  12.462
71440W        W43788  17.626  39.496  10.518
71441W        W43789  35.962  21.249   1.446
71442W        W43790  14.688  14.613  14.919
71443W        W43791  12.840  38.398  10.467
71444W        W43792  16.703   5.886   4.203
71445W        W43793   3.925  11.837   2.268
71446W        W43794  43.822  25.672  12.483
71447W        W43795  14.126  44.925  14.828
71448W        W43796  26.605  17.629   4.722
71449W        W43797  39.963   8.734  12.388
71450W        W43798  31.079  16.772  13.881
71451W        W43799  36.843   3.281  10.024
71452W        W43800  28.932  35.105  13.016
71453W        W43801  17.121   8.405   1.929
71454W        W43802  36.516  42.369   2.901
71455W        W43803   5.214  30.016  11.106
71456W        W43804  42.456  14.749   3.630
71457W        W43805  37.564  19.073  14.839
71458W        W43806   9.761  26.668  11.547
71459W        W43807  21.726  13.288  13.365
71460W        W43808   8.885   4.351  12.942
71461W        W43809   9.672  25.150   0.779
71462W        W43810  24.088  38.410  11.026
71463W        W43811   4.931  15.761  13.869
71464W        W43812   7.224  23.630  13.963
71465W        W43813   0.333   5.892   1.710
71466W        W43814  22.650  24.560  14.349
71467W        W43815  36.470  42.336   4.181
71468W        W43816  27.081  29.150  11.048
71469W        W43817   3.916  22.572  14.453
71470W        W43818  44.335  26.037  10.124
71471W        W43819  36.866   4.344   0.313
71472W        W43820   1.785   5.303  13.480
71473W        W43821  19.140  41.532  13.809
71474W        W43822   1.862  31.138   3.379
71475W        W43823  10.283  36.488   2.764
71476W        W43824  21.746   5.215   4.701
71477W        W43825  28.988  13.174  10.890
71478W        W43826  44.438  36.929  12.405
71479W        W43827  13.657  12.116   4.792
71480W        W43828  22.650  28.939  13.823
71481W        W43829   9.355  18.159   2.210
71482W        W43830   7.349  40.917  14.923
71483W        W43831   6.820  26.208   0.479
71484W        W43832  15.274  14.823   2.211
71485W        W43833  15.789  13.740   1.705
71486W        W43834  25.143   8.291  13.326
71487W        W43835   4.450   6.919  11.995
71488W        W43836  36.020  41.411  14.808
71489W        W43837  13.638  30.425   3.694
71490W        W43838  36.975   6.252  10.952
71491W        W43839  29.158  35.398  13.917
71492W        W43840  26.644  20.179  13.988
71493W        W43841  21.262  36.865  14.767
71494W        W43842  11.697  17.598   4.611
71495W        W43843  16.712   9.370   0.346
71496W        W43844  14.284  17.740  11.484
71497W        W43845  34.082  36.379   9.495
71498W        W43846   2.450   4.389   4.804
71499W        W43847  17.715  32.087  11.070
71500W        W43848   3.262  31.505   2.723
71501W        W43849  14.145  20.166  10.632
71502W        W43850  19.678   9.852   4.795
71503W        W43851  15.758  29.999  14.827
71504W        W43852  25.992  15.099  11.010
71505W        W43853  17.585  40.353  13.826
71506W        W43854   5.405   7.784   2.322
71507W        W43855   1.872  31.451   0.423
71508W        W43856   7.405  39.915  11.092
71509W        W43857   4.901  41.831  10.569
71510W        W43858  41.849  34.958  12.020
71511W        W43859   3.304  13.830   3.715
71512W        W43860  25.534   9.762   3.843
71513W        W43861   0.793  12.632  14.367
71514W        W43862  13.254  31.431  10.571
71515W        W43863  14.104  12.274  13.481
71516W        W43864   9.333  30.064  12.963
71517W        W43865  28.975  10.305   2.268
71518W        W43866  40.324  28.444  13.907
71519W        W43867  18.192  38.074  12.528
71520W        W43868  13.683   4.435  14.890
71521W        W43869  43.514  26.649   2.875
71522W        W43870  12.847   6.419   5.776
71523W        W43871  26.520  17.083  14.835
71524W        W43872  31.963  10.299   3.180
71525W        W43873  41.402  19.078  14.911
71526W        W43874   7.176  14.784   2.338
71527W        W43875  14.319  27.613  11.476
71528W        W43876  24.192   1.851  12.420
71529W        W43877   1.857  24.526   4.652
71530W        W43878  21.657   8.242   0.801
71531W        W43879  31.474  26.154  10.598
71532W        W43880   9.366  42.912   3.367
71533W        W43881  20.070  14.100  14.869
71534W        W43882  37.831  33.010  14.811
71535W        W43883  33.436  32.400  10.980
71536W        W43884  14.743  15.800   9.990
71537W        W43885  15.303  40.957  12.016
71538W        W43886  21.126  22.650   4.610
71539W        W43887   6.352  37.404   2.726
71540W        W43888  39.047   2.322  12.580
71541W        W43889  24.189  37.995   2.744
71542W        W43890  22.040  28.088  12.048
71543W        W43891  31.486  29.542  11.580
71544W        W43892  16.224   6.272   3.800
71545W        W43893  20.720  41.301  10.630
71546W        W43894  27.682  13.844   0.407
71547W        W43895  29.002  30.413   1.808
71548W        W43896  26.087  42.375   4.698
71549W        W43897  26.575   9.704  11.492
71550W        W43898  23.048  30.454   3.811
71551W        W43899  19.281  12.848  14.977
71552W        W43900  16.804   0.303   2.236
71553W        W43901  13.298  27.011   1.872
71554W        W43902   9.810   7.743   3.850
71555W        W43903   6.707  29.533   2.808
71556W        W43904  15.802  17.191   3.175
71557W        W43905  32.445   2.472  13.795
71558W        W43906   7.253  34.481  13.354
71559W        W43907   6.352  33.968   2.756
71560W        W43908  41.387  15.640  14.854
71561W        W43909  14.160  19.249  10.425
71562W        W43910  25.174   3.733   4.126
71563W        W43911  41.376   6.276  11.442
71564W        W43912  34.531  17.657   2.240
71565W        W43913  17.201  15.170  14.805
71566W        W43914   7.711  17.596  11.416
71567W        W43915  31.957  29.547   3.768
71568W        W43916  30.148  17.293   4.657
71569W        W43917  18.094  29.935   1.761
71570W        W43918  32.955  16.759  12.932
71571W        W43919  20.650  21.221   1.225
71572W        W43920  37.833  41.296  11.876
71573W        W43921   2.405  18.070   4.707
71574W        W43922  13.150   9.287  14.876
71575W        W43923  38.864  42.334  14.471
71576W        W43924   4.418   5.206   1.747
71577W        W43925  13.630  29.604  11.052
71578W        W43926  12.229  19.686  12.422
71579W        W43927  37.851   9.859  13.365
71580W        W43928  22.094  38.569  11.561
71581W        W43929  37.879  27.005  14.294
71582W        W43930  16.657  42.511   1.778
71583W        W43931   5.802  28.975  13.445
71584W        W43932  13.756  21.115  14.031
71585W        W43933  14.176   7.665   1.915
71586W        W43934  14.309  42.910   3.233
71587W        W43935   8.667  18.589   2.272
71588W        W43936   1.474  24.059  14.454
71589W        W43937  34.109  22.142   4.183
71590W        W43938  33.953  34.558  14.460
71591W        W43939  27.455   5.291  12.343
71592W        W43940  17.177  11.348  13.984
71593W        W43941  20.726   1.259   2.181
71594W        W43942   2.385  37.066   2.802
71595W        W43943  37.468  10.213  11.592
71596W        W43944  15.740  15.596  12.447
71597W        W43945  13.234   2.342   4.643
71598W        W43946  25.533   7.259  11.464
71599W        W43947  36.944  20.712   5.713
71600W        W43948  30.929   8.810  10.925
71601W        W43949  36.857   1.239   0.873
71602W        W43950  23.651  24.984   1.816
71603W        W43951  22.630  26.104   3.853
71604W        W43952   8.228  11.289  10.612
71605W        W43953  27.680  21.075   3.679
71606W        W43954  27.460  11.178   2.366
71607W        W43955  20.212  15.660   2.411
71608W        W43956   1.342  19.262  11.413
71609W        W43957  29.569   0.890  14.887
71610W        W43958  10.694  19.627   4.224
71611W        W43959   4.383  44.907   2.666
71612W        W43960  10.730  23.546   2.345
71613W        W43961  17.292  40.977   0.343
71614W        W43962   6.916  25.514   4.643
71615W        W43963  33.489   5.390   9.977
71616W        W43964  18.052  28.598  11.029
71617W        W43965  25.516  23.989  14.369
71618W        W43966   2.795  12.644  13.336
71619W        W43967  18.700  20.696   4.817
71620W        W43968   7.199  26.089  13.450
71621W        W43969  26.539  25.108   0.346
71622W        W43970  18.624  11.211   3.684
71623W        W43971  11.261  13.615  13.398
71624W        W43972   2.463  14.320  10.526
71625W        W43973  18.630  29.092   4.726
71626W        W43974   6.306  29.094  11.862
71627W        W43975  11.364  32.929  14.423
71628W        W43976   1.883  40.820  13.873
71629W        W43977   3.310  34.584   2.898
71630W        W43978  14.778  44.429  12.979
71631W        W43979  11.755  24.976   4.214
71632W        W43980  41.807  42.915  13.477
71633W        W43981  22.248   7.214   1.439
71634W        W43982   8.795  22.225   0.354
71635W        W43983  15.323  38.009  11.374
71636W        W43984  32.106   8.345   4.631
71637W        W43985   4.287  13.716  12.485
71638W        W43986   4.251   9.865  12.953
71639W        W43987  21.586  38.852  14.792
71640W        W43988  32.591  37.426  14.454
71641W        W43989  35.011  34.091  14.330
71642W        W43990  19.625  44.958  14.446
71643W        W43991  37.382   7.672   0.353
71644W        W43992   7.345  11.771  10.601
71645W        W43993   1.244  41.532   1.749
71646W        W43994  34.873  28.971   1.223
71647W        W43995  39.848   9.684  12.348
71648W        W43996  11.212  43.782   1.220
71649W        W43997   4.880  15.600   4.760
71650W        W43998  40.818   0.764  12.980
71651W        W43999   0.815  26.606   0.919
71652W        W44000  17.770  25.113   0.867
71653W        W44001  24.048  40.481   2.207
71654W        W44002   5.204  39.507  10.981
71655W        W44003  44.296  35.592  11.403
71656W        W44004   5.879  13.217  12.084
71657W        W44005  28.079  25.711   3.330
71658W        W44006  17.077  38.948   1.369
71659W        W44007   9.677  19.151   1.240
71660W        W44008  32.049  23.506  14.030
71661W        W44009  23.660   3.286   0.748
71662W        W44010  31.615  32.023  14.946
71663W        W44011  42.948  35.416   1.845
71664W        W44012  21.543  16.267   2.714
71665W        W44013   1.267  38.957  14.968
71666W        W44014  26.474  15.597   0.398
71667W        W44015  21.046  13.801  11.515
71668W        W44016  29.488  40.475   5.222
71669W        W44017  12.351  36.917  11.930
71670W        W44018  34.874   5.730   1.872
71671W        W44019  26.962  29.058   4.622
71672W        W44020  22.730  30.090   2.274
71673W        W44021  13.153  18.081  14.788
71674W        W44022   0.301  25.687  11.053
71675W        W44023  31.508  30.496  10.468
71676W        W44024  18.763  25.206   2.212
71677W        W44025  34.542  36.952  11.500
71678W        W44026  34.509  42.384  11.089
71679W        W44027  37.385  16.740  13.456
71680W        W44028   5.896  30.101   3.804
71681W        W44029  25.655  26.464  10.939
71682W        W44030  43.830  38.030  12.433
71683W        W44031  39.379  40.465   1.906
71684W        W44032  43.959  31.460   0.889
71685W        W44033  11.176  44.805  13.896
71686W        W44034   6.680   6.253   3.147
71687W        W44035   7.704  37.926  13.541
71688W        W44036  19.263   8.179  11.076
71689W        W44037  28.457  16.208   3.194
71690W        W44038  22.114   5.715  13.017
71691W        W44039  25.529  14.135   9.958
71692W        W44040  24.994  28.552   0.958
71693W        W44041   8.337  30.647   0.392
71694W        W44042  37.074  11.253   1.429
71695W        W44043  11.853   6.901  14.955
71696W        W44044  33.024  29.577   1.315
71697W        W44045  31.133  28.631  11.990
71698W        W44046  43.380   6.691  10.468
71699W        W44047  30.083   6.291   2.733
71700W        W44048   4.277  35.036   1.935
71701W        W44049  15.301  31.548  13.536
71702W        W44050  23.157  10.633   4.777
71703W        W44051   3.361  37.932   0.962
71704W        W44052  27.124  38.066   3.834
71705W        W44053  40.370  14.112  11.992
71706W        W44054  40.968  20.644  12.853
71707W        W44055  15.629  41.028  12.930
71708W        W44056   5.226  18.597   4.772
71709W        W44057   2.736  11.638   3.664
71710W        W44058   0.916  38.518  10.407
71711W        W44059   6.804  12.834   1.241
71712W        W44060  12.198  30.075  11.073
71713W        W44061  27.149  19.088   1.775
71714W        W44062  28.984   2.774   2.821
71715W        W44063  35.443  36.877  14.838
71716W        W44064  24.999  26.504  12.404
71717W        W44065  12.250  12.193  14.405
71718W        W44066  43.919  31.619  14.850
71719W        W44067   7.815  22.120  14.862
71720W        W44068  27.179   4.851  10.944
71721W        W44069  42.835  19.583  10.469
71722W        W44070   4.430  27.054   1.752
71723W        W44071  32.495  14.197  12.462
71724W        W44072   7.905   4.822   1.857
71725W        W44073  18.593   9.333   2.811
71726W        W44074  18.152  14.774  13.908
71727W        W44075  19.610  22.734   1.886
71728W        W44076   7.197  36.035  12.855
71729W        W44077  19.143   3.353   4.161
71730W        W44078  25.007  34.977  10.945
71731W        W44079  43.316  12.625   3.240
71732W        W44080  10.341  44.500  12.965
71733W        W44081  44.985   3.262  11.076
71734W        W44082  26.151  10.298  11.005
71735W        W44083  28.176  41.385  10.945
71736W        W44084  26.128  17.100   2.231
71737W        W44085  16.247   5.741   0.279
71738W        W44086  17.306  27.100   1.338
71739W        W44087  22.182  32.116   1.780
71740W        W44088  40.533  12.336   1.338
71741W        W44089  11.813  16.276   3.810
71742W        W44090   7.393  19.709   1.318
71743W        W44091  26.652  20.180   0.250
71744W        W44092  33.975   7.748  13.413
71745W        W44093  10.786  12.785  12.839
71746W        W44094  37.959  36.394   2.893
71747W        W44095  14.769  31.468  10.937
71748W        W44096   2.393  25.611   4.731
71749W        W44097  18.127   2.352  11.472
71750W        W44098  42.797  34.561  13.514
71751W        W44099  13.186  39.873  14.452
71752W        W44100  39.469  30.052   3.727
71753W        W44101   7.704  24.629   3.348
71754W        W44102  27.198  14.237   4.146
71755W        W44103  15.157  27.562   3.754
71756W        W44104  30.530  32.475  11.880
71757W        W44105   9.294   8.163  10.981
71758W        W44106  15.317  17.795  13.535
71759W        W44107  34.955  40.870  13.891
71760W        W44108  27.993  41.815   1.820
71761W        W44109  38.339   7.319   4.722
71762W        W44110   5.825  26.534   4.616
71763W        W44111  17.779  22.644  11.516
71764W        W44112  23.170   6.300   0.272
71765W        W44113  27.025  16.627  13.906
71766W        W44114  12.277  39.876  14.459
71767W        W44115  39.955  19.187  14.951
71768W        W44116   5.371  26.073   3.336
71769W        W44117  22.204   3.403   0.743
71770W        W44118  30.546   0.773   0.292
71771W        W44119  37.447  35.936   2.413
71772W        W44120  44.397  10.253   2.834
71773W        W44121  26.674  33.970  13.829
71774W        W44122  41.839  44.454   3.846
71775W        W44123  40.324  26.639   5.206
71776W        W44124   1.316  40.052  12.960
71777W        W44125  21.612   5.301  11.946
71778W        W44126   0.483  31.440   2.256
71779W        W44127  42.465  22.552   3.853
71780W        W44128  12.225   8.787   3.717
71781W        W44129  34.913  44.954  14.017
71782W        W44130  35.423  13.646  10.955
71783W        W44131  43.869   9.707   4.634
71784W        W44132  31.557  34.513  12.071
71785W        W44133  11.824  22.605   1.239
71786W        W44134  27.111   2.734   0.818
71787W        W44135  24.630  39.421   4.780
71788W        W44136  10.654  18.557   0.312
71789W        W44137   1.466  36.996   1.312
71790W        W44138  19.181  43.967   4.322
71791W        W44139   1.736  27.636   1.312
71792W        W44140  40.807  16.115  12.970
71793W        W44141  18.660  43.447  13.833
71794W        W44142  25.094  24.058  13.798
71795W        W44143  43.865  40.961  11.470
71796W        W44144  14.109  29.926  10.933
71797W        W44145  13.692  20.099   1.422
71798W        W44146   6.690  41.029   0.916
71799W        W44147  17.595  19.160  12.552
71800W        W44148  19.104  29.501   9.576
71801W        W44149  18.574  44.822   0.423
71802W        W44150  33.953  31.503   3.641
71803W        W44151   1.300  22.736  10.984
71804W        W44152  25.700  35.601  11.537
71805W        W44153   9.857   8.708   1.732
71806W        W44154   0.276   5.776  11.089
71807W        W44155  28.996   1.415   0.399
71808W        W44156  29.140  13.303  13.473
71809W        W44157  21.631  38.940  14.510
71810W        W44158  22.567   5.727  11.534
71811W        W44159  16.666  33.083   0.822
71812W        W44160  23.555  17.237   0.861
71813W        W44161  18.690  27.950  10.091
71814W        W44162  12.182   0.448   1.697
71815W        W44163   6.804  22.602   2.896
71816W        W44164  17.290  20.070  10.537
71817W        W44165  30.018  31.492   0.440
71818W        W44166  28.128   9.299  14.799
71819W        W44167  37.370  17.593  14.279
71820W        W44168   3.884  15.138   2.395
71821W        W44169  12.699  44.926   4.785
71822W        W44170   4.238   3.775  12.996
71823W        W44171  14.126  33.985  12.551
71824W        W44172  25.199  16.117  13.906
71825W        W44173  42.913  17.232  12.830
71826W        W44174  19.080  32.483  10.590
71827W        W44175  15.704  40.483   4.637
71828W        W44176  22.162   2.392  11.459
71829W        W44177  35.908  33.047  11.406
71830W        W44178  18.149  13.351   3.759
71831W        W44179  40.055  16.579  10.590
71832W        W44180   9.844  31.592  13.325
71833W        W44181  29.988  10.362   5.151
71834W        W44182  12.697  39.953   0.386
71835W        W44183  13.773  32.433   3.330
71836W        W44184  39.974  29.064  13.358
71837W        W44185  34.450  34.374   0.875
71838W        W44186  23.100  37.535  13.890
71839W        W44187   5.777  21.593   3.252
71840W        W44188  15.768  42.334  13.897
71841W        W44189   4.421  28.970   2.271
71842W        W44190  13.606  14.747   2.798
71843W        W44191  28.573  43.845   3.811
71844W        W44192   9.342  31.995  13.874
71845W        W44193  21.606  25.647   4.747
71846W        W44194  24.047   0.768   2.671
71847W        W44195  21.620  42.978   2.332
71848W        W44196  43.998  23.544   2.789
71849W        W44197  27.633  33.954   3.694
71850W        W44198   7.782  31.987  13.016
71851W        W44199  40.415   9.686  14.464
71852W        W44200  27.028  24.025   2.351
71853W        W44201   1.840  21.679   0.759
71854W        W44202  39.813   7.830  12.385
71855W        W44203  40.522  42.903   2.832
71856W        W44204  44.477  21.614   0.316
71857W        W44205  25.101  24.024   4.184
71858W        W44206  25.175   0.929  11.919
71859W        W44207  43.932  13.687  11.595
71860W        W44208   7.310  34.466   4.224
71861W        W44209  44.416  12.685  12.385
71862W        W44210  31.919  12.847  13.848
71863W        W44211  25.079  14.705  14.823
71864W        W44212  30.976   1.806   5.093
71865W        W44213  22.053  14.807   4.633
71866W        W44214  39.314  25.709  14.907
71867W        W44215   3.897   9.822  12.376
71868W        W44216  26.159  42.916  13.524
71869W        W44217  41.340  18.620  14.801
71870W        W44218  41.945  14.147  14.996
71871W        W44219   5.734  38.039   2.793
71872W        W44220  33.503  40.465  13.517
71873W        W44221  10.305  44.384  11.931
71874W        W44222  39.360   4.314   2.697
71875W        W44223  13.246  34.442   3.201
71876W        W44224  13.612  24.671   0.871
71877W        W44225  42.346  13.741  12.487
71878W        W44226   8.229   1.346   2.299
71879W        W44227  34.897  23.237   0.310
71880W        W44228  30.092  12.301   1.231
71881W        W44229  26.665  16.622  11.537
71882W        W44230  18.058  19.557   0.876
71883W        W44231  30.916  26.082   1.699
71884W        W44232  16.663  22.040   1.750
71885W        W44233   8.889  18.225  11.027
71886W        W44234  20.727  18.258   3.652
71887W        W44235  39.992  41.916   2.731
71888W        W44236  24.016  40.521   1.709
71889W        W44237   3.798  42.285   0.290
71890W        W44238   4.270  11.136  13.410
71891W        W44239  43.360  11.258   2.778
71892W        W44240  21.245  28.031  12.548
71893W        W44241  27.664  30.080  14.345
71894W        W44242   8.831  44.288  11.459
71895W        W44243  29.617   3.433   2.336
71896W        W44244  42.499  11.227   3.206
71897W        W44245  10.330   1.455  14.031
71898W        W44246   0.858  29.662   2.749
71899W        W44247  36.894   5.253  14.329
71900W        W44248  22.616  27.076   4.757
71901W        W44249   4.303  27.669   1.242
71902W        W44250  40.897   2.235   4.751
71903W        W44251  21.736  21.528   2.408
71904W        W44252  15.152  26.025   3.666
71905W        W44253  43.481  11.246   0.900
71906W        W44254  31.028  21.734   0.481
71907W        W44255  22.079   8.164  12.094
71908W        W44256  41.993   5.754   4.193
71909W        W44257  20.680  43.908  13.816
71910W        W44258  36.898  28.098  11.862
71911W        W44259  44.823  42.357   0.906
71912W        W44260   1.737  25.467  14.370
71913W        W44261  16.660  11.263  12.470
71914W        W44262  13.268  21.589   3.662
71915W        W44263   3.323   3.733  10.526
71916W        W44264  43.441  28.562  12.070
71917W        W44265  27.034   1.754  13.971
71918W        W44266  35.447   0.341  12.939
71919W        W44267  26.099  13.151  11.074
71920W        W44268   8.885   6.897  12.359
71921W        W44269   7.882   6.852   0.397
71922W        W44270  24.719   6.690  11.873
71923W        W44271  32.417  36.879   2.703
71924W        W44272  28.173  13.843  13.379
71925W        W44273  39.361  29.637   1.247
71926W        W44274  31.923  24.230   4.210
71927W        W44275   8.193  40.448  14.360
71928W        W44276  42.929   4.209  14.791
71929W        W44277  42.408  37.864  12.410
71930W        W44278  24.714  43.942   4.242
71931W        W44279  43.339  24.570  13.372
71932W        W44280  41.932   1.823   2.363
71933W        W44281   3.821  26.649   2.295
71934W        W44282  26.176  17.613   4.179
71935W        W44283  42.320   0.388   2.784
71936W        W44284  42.012  44.850  10.476
71937W        W44285  42.314  33.958  13.340
71938W        W44286  30.582  44.496   4.793
71939W        W44287  35.870  21.715   0.734
71940W        W44288   4.250  20.683  11.954
71941W        W44289  38.525   2.469   1.399
71942W        W44290   5.749  11.269   4.707
71943W        W44291   7.903  27.133  11.928
71944W        W44292   6.235  14.775  12.057
71945W        W44293  38.417  22.109  12.943
71946W        W44294  30.472  40.931  12.055
71947W        W44295  13.170  11.786  13.391
71948W        W44296  29.491  20.561   3.736
71949W        W44297  34.930   7.825  14.802
71950W        W44298  41.903  28.162  14.982
71951W        W44299  12.124  39.320   0.333
71952W        W44300  14.816   3.318  10.969
71953W        W44301   9.692   5.212   0.881
71954W        W44302  36.985  37.943  12.936
71955W        W44303  36.450  22.708  14.302
71956W        W44304  39.959  16.105   3.632
71957W        W44305  32.536  36.095   5.139
71958W        W44306  18.128  21.745  12.964
71959W        W44307  23.037  22.661  14.508
71960W        W44308   6.753  14.758  11.425
71961W        W44309   4.902  18.789  14.801
71962W        W44310  11.667  18.273  11.533
71963W        W44311  28.478  42.401   0.789
71964W        W44312  44.310  15.088  10.634
71965W        W44313  15.325  39.909   4.353
71966W        W44314   8.281  32.539   2.767
71967W        W44315  30.051  43.339  12.891
71968W        W44316   8.788   9.262  10.617
71969W        W44317  21.116  35.088  12.842
71970W        W44318  17.598  41.371   0.833
71971W        W44319   5.221   1.975   3.782
71972W        W44320  19.549  34.947   2.677
71973W        W44321  18.213  31.528  14.962
71974W        W44322  24.980  28.476  12.571
71975W        W44323  41.449  17.085   4.213
71976W        W44324  14.336  10.773   0.730
71977W        W44325   4.332  13.830  11.925
71978W        W44326  39.409   9.880   2.827
71979W        W44327   0.370  26.624   2.781
71980W        W44328  36.908  30.541  11.990
71981W        W44329  39.866   4.751   0.774
71982W        W44330  21.539  32.415  11.557
71983W        W44331  20.740  24.191  12.928
71984W        W44332  26.560  15.170  10.427
71985W        W44333  30.442  16.221   3.767
71986W        W44334  14.103   7.784   2.715
71987W        W44335  37.949  22.018   1.736
71988W        W44336  34.475  31.434   1.413
71989W        W44337  25.065  18.770   0.264
71990W        W44338   0.753  20.583   2.371
71991W        W44339  33.930  18.691  13.469
71992W        W44340  36.478   4.925  13.952
71993W        W44341  35.467  30.441   0.323
71994W        W44342  19.112  40.362   1.744
71995W        W44343  12.738  13.249  14.009
71996W        W44344  32.000  38.842  14.369
71997W        W44345  11.834  39.895   9.961
71998W        W44346   5.214   8.785   2.205
71999W        W44347  15.307   4.207  11.867
72000W        W44348  14.095  39.560   2.273
72001W        W44349  15.646   9.729  11.611
72002W        W44350   7.204   9.171   0.957
72003W        W44351  35.383  37.860  13.442
72004W        W44352   9.839  20.612   1.842
72005W        W44353  37.483  21.724  13.398
72006W        W44354  31.148  28.654  14.281
72007W        W44355  13.266   5.412   4.835
72008W        W44356  19.573  25.537  10.544
72009W        W44357  35.106   4.781   0.839
72010W        W44358  36.397  10.679   0.950
72011W        W44359  31.584   7.274   4.707
72012W        W44360   3.393  34.871  11.582
72013W        W44361  30.108  22.029  14.759
72014W        W44362  42.933  38.471   3.638
72015W        W44363  34.104   2.328   1.349
72016W        W44364  43.390  34.113  12.515
72017W        W44365   9.283   8.238  12.063
72018W        W44366  10.676  22.017   9.921
72019W        W44367  10.700  13.638  13.496
72020W        W44368  40.422  36.590   4.217
72021W        W44369   4.383  36.865   1.927
72022W        W44370   7.194  41.814  12.458
72023W        W44371  38.992  27.105  11.923
72024W        W44372  35.360  44.938  14.769
72025W        W44373   9.205  14.759   3.795
72026W        W44374   4.858  39.850  10.562
72027W        W44375  32.053  41.508  12.989
72028W        W44376  40.330   3.834   1.405
72029W        W44377  21.200  23.219   4.219
72030W        W44378  42.032  42.933   0.270
72031W        W44379  19.275   3.430  14.292
72032W        W44380  25.149  21.058  12.898
72033W        W44381  37.405  24.537   3.736
72034W        W44382   6.919  40.918  14.371
72035W        W44383  14.336   8.326   2.779
72036W        W44384  13.217  14.810   1.358
72037W        W44385  42.316  43.513  12.559
72038W        W44386  15.736  21.748  12.836
72039W        W44387  28.148  18.203   1.452
72040W        W44388  19.714  41.010   0.287
72041W        W44389  26.979  14.118   2.184
72042W        W44390  38.526  37.045  12.402
72043W        W44391   2.383  30.548  13.987
72044W        W44392  21.055   9.320   0.914
72045W        W44393  14.601   5.294  12.916
72046W        W44394  13.265  22.077  14.459
72047W        W44395  25.193  35.962   0.399
72048W        W44396  12.312   5.262  11.588
72049W        W44397  44.758   4.775  13.338
72050W        W44398  22.746  26.688  12.485
72051W        W44399  40.474  18.050  10.888
72052W        W44400  34.042  42.322  13.014
72053W        W44401  10.872  25.170  13.908
72054W        W44402   9.237  14.777   4.701
72055W        W44403  11.633  13.715  12.849
72056W        W44404  24.502  36.073   3.691
72057W        W44405  36.022  25.507  12.399
72058W        W44406  41.421  26.186   0.854
72059W        W44407  19.678  18.594   0.248
72060W        W44408  38.960  23.719   5.248
72061W        W44409  28.442  36.033  13.403
72062W        W44410  42.456  11.246   0.816
72063W        W44411  39.019   5.809   3.261
72064W        W44412  27.530  12.201   2.810
72065W        W44413  36.087   1.869   0.314
72066W        W44414  15.664  25.514  14.810
72067W        W44415  21.554   0.323   1.803
72068W        W44416  39.450  29.641  14.943
72069W        W44417  36.576  10.307   3.822
72070W        W44418  27.073   2.253   4.209
72071W        W44419  41.360  33.388  14.376
72072W        W44420  30.596  32.398  13.058
72073W        W44421  35.464  28.056   1.374
72074W        W44422  10.378  19.125  13.878
72075W        W44423  36.512  23.591  11.964
72076W        W44424  25.965  41.485   3.815
72077W        W44425  18.691   3.407  10.577
72078W        W44426  21.527   7.277   0.743
72079W        W44427   6.293  30.018  13.493
72080W        W44428  28.069   6.898   0.920
72081W        W44429  28.606  16.178   0.434
72082W        W44430  10.738  24.158  12.364
72083W        W44431  33.402  37.060   3.789
72084W        W44432  28.999   2.359   3.353
72085W        W44433  20.074  17.229  13.909
72086W        W44434   6.822  38.467  13.488
72087W        W44435  44.353  28.609   0.339
72088W        W44436   0.425  12.166   0.300
72089W        W44437  33.084   7.904   3.711
72090W        W44438  21.744   8.350   5.787
72091W        W44439  20.096  38.821   1.752
72092W        W44440  12.759  32.951   4.639
72093W        W44441  34.115  22.250   2.185
72094W        W44442  11.817  35.945   1.869
72095W        W44443  24.003  28.441   1.290
72096W        W44444  24.498  44.438  13.506
72097W        W44445   6.718   8.226  11.536
72098W        W44446  43.866  32.079  11.036
72099W        W44447   7.318  17.163  10.628
72100W        W44448  42.454  30.536   3.763
72101W        W44449  19.220  44.281  13.456
72102W        W44450  40.972   6.765  14.302
72103W        W44451   9.852  35.089   4.351
72104W        W44452  15.731  38.967   4.146
72105W        W44453  36.884   8.894   4.696
72106W        W44454  13.809   7.305   3.714
72107W        W44455  22.648  18.183   3.233
72108W        W44456   4.891  18.145  11.869
72109W        W44457  39.015  10.266   4.132
72110W        W44458  26.526  39.465   2.721
72111W        W44459  27.983  29.042  11.466
72112W        W44460   8.312   2.434  14.496
72113W        W44461   0.812   6.219   3.246
72114W        W44462  13.824  44.949  11.090
72115W        W44463  36.884   3.413   3.339
72116W        W44464  11.652  32.635   1.272
72117W        W44465  12.223  25.713  11.120
72118W        W44466  41.928  30.580   1.933
72119W        W44467  41.318  11.644   3.234
72120W        W44468  42.939   2.251  14.500
72121W        W44469  40.475  16.807  13.961
72122W        W44470  41.388  30.655  13.515
72123W        W44471  22.691  42.853   1.254
72124W        W44472  37.569   6.720   0.242
72125W        W44473  37.459  10.795   0.762
72126W        W44474   8.362   6.222  12.865
72127W        W44475  40.797  13.742   2.240
72128W        W44476  16.608   9.731  13.346
72129W        W44477  20.273  40.017   2.752
72130W        W44478   7.806  21.569   9.647
72131W        W44479  29.990  15.774  13.421
72132W        W44480   1.913  36.093  13.917
72133W        W44481  17.688  21.700   4.742
72134W        W44482  35.895  41.509  10.528
72135W        W44483   0.461  19.740  11.971
72136W        W44484   1.832  42.446  12.986
72137W        W44485   3.337  22.630   3.722
72138W        W44486  16.679   9.730   2.319
72139W        W44487  29.957  10.662   4.655
72140W        W44488  31.049   9.745   4.277
72141W        W44489  27.523   9.206   2.848
72142W        W44490  17.715  13.772  10.055
72143W        W44491  10.678  22.529  11.884
72144W        W44492  27.488   1.287  14.027
72145W        W44493  14.773  44.976  10.557
72146W        W44494  38.973  26.017   4.267
72147W        W44495  39.986   6.390   3.866
72148W        W44496  36.584  41.997  12.002
72149W        W44497  22.235  30.003   4.662
72150W        W44498  22.519  33.552   0.920
72151W        W44499  24.210  44.390  13.877
72152W        W44500  42.512   6.795   4.763
72153W        W44501  25.561  29.006   2.764
72154W        W44502  26.663  16.080   1.219
72155W        W44503  44.273  19.120   1.236
72156W        W44504  36.023  30.637   4.203
72157W        W44505  33.877  18.556  10.984
72158W        W44506  27.687  18.633   4.183
72159W        W44507  39.906  35.947   4.229
72160W        W44508  21.529  15.724  11.452
72161W        W44509  30.950  38.567  13.464
72162W        W44510  25.040  33.613  10.607
72163W        W44511  23.629  14.646  11.448
72164W        W44512  22.554  43.292  13.372
72165W        W44513   5.256  23.550  13.983
72166W        W44514  23.571  24.658  13.882
72167W        W44515  18.670  28.066   1.866
72168W        W44516  41.293  26.651   3.169
72169W        W44517   0.308  25.105  14.338
72170W        W44518  23.082  32.582   2.331
72171W        W44519  42.821  43.466   3.678
72172W        W44520  20.549  32.424  11.892
72173W        W44521   2.256  28.036   2.198
72174W        W44522  10.811  34.035  14.014
72175W        W44523   5.741  35.392   0.327
72176W        W44524  17.212   8.295  12.995
72177W        W44525  14.682  44.947  11.556
72178W        W44526  38.881   3.332   3.226
72179W        W44527   4.439  15.584   1.312
72180W        W44528  24.699  19.273  11.060
72181W        W44529  44.010   5.337   1.880
72182W        W44530  32.533  14.614   1.742
72183W        W44531  28.439  36.932  13.884
72184W        W44532  32.441  32.464  14.400
72185W        W44533   1.884  44.797  14.432
72186W        W44534  41.322  29.922  12.946
72187W        W44535  11.223  40.448   0.900
72188W        W44536  18.654   1.808   3.755
72189W        W44537   3.397   0.349   3.261
72190W        W44538  20.253   8.238  10.571
72191W        W44539  17.218  34.062   1.805
72192W        W44540  20.684   0.292   0.430
72193W        W44541  19.643   3.825   0.914
72194W        W44542  33.023  13.681  10.413
72195W        W44543  39.891   9.654  11.874
72196W        W44544  36.551  28.960  14.973
72197W        W44545  39.322  33.092   0.329
72198W        W44546   7.819  35.897   0.927
72199W        W44547  35.541  29.165   4.271
72200W        W44548   0.767  12.161   3.819
72201W        W44549  18.606  13.660  14.431
72202W        W44550   6.686  35.921  12.066
72203W        W44551  44.308  15.637  13.995
72204W        W44552   6.340  33.495  11.413
72205W        W44553  23.711  39.831  14.413
72206W        W44554  26.683  20.690  14.812
72207W        W44555  31.075  15.171  12.518
72208W        W44556  37.928  39.055  13.406
72209W        W44557   5.874  40.928   1.442
72210W        W44558  20.035  23.561   4.183
72211W        W44559   8.773  16.666   0.468
72212W        W44560   8.807  38.840   4.645
72213W        W44561   0.468  44.327  12.034
72214W        W44562   4.906   4.416  10.002
72215W        W44563  30.501   7.830   4.229
72216W        W44564  23.207  14.202   4.263
72217W        W44565  19.201  23.648  11.478
72218W        W44566  11.859   3.344  14.911
72219W        W44567  32.435  15.616   0.843
72220W        W44568  16.164  19.589  13.907
72221W        W44569  27.570  44.003   1.737
72222W        W44570   3.402   2.402   3.651
72223W        W44571  42.407   9.680   1.231
72224W        W44572  33.494  17.185  10.024
72225W        W44573  32.464  38.073   2.902
72226W        W44574  38.551  19.728   2.852
72227W        W44575   3.428  44.427  12.895
72228W        W44576  17.767  11.353   2.234
72229W        W44577  20.667  30.513   5.636
72230W        W44578  17.723  26.030  12.006
72231W        W44579  15.664   0.853   0.429
72232W        W44580  40.420  27.197  13.323
72233W        W44581  16.294  36.899  14.993
72234W        W44582   1.827  10.196   4.277
72235W        W44583  13.291  24.047   5.181
72236W        W44584   8.359   8.271  14.813
72237W        W44585   0.459  38.330  13.956
72238W        W44586  27.004  24.481   1.402
72239W        W44587  27.958  22.598  10.541
72240W        W44588  37.880  18.726   2.265
72241W        W44589   0.915   8.269  11.012
72242W        W44590   9.354   8.889  13.381
72243W        W44591  27.981  43.819   4.621
72244W        W44592  12.676  42.947   4.149
72245W        W44593  35.960  36.976   0.825
72246W        W44594   3.425   4.327   2.234
72247W        W44595  39.514   5.694   3.369
72248W        W44596  11.633  38.561  10.445
72249W        W44597  35.390  29.655  12.449
72250W        W44598  43.834  23.029   2.287
72251W        W44599  19.643  30.504   9.922
72252W        W44600  27.522  28.938   0.753
72253W        W44601  40.942  32.450   3.336
72254W        W44602  36.093   6.185  11.396
72255W        W44603  37.474  18.120  11.019
72256W        W44604  35.435  40.303   2.886
72257W        W44605   8.707   4.292   4.602
72258W        W44606   7.694  11.269  12.934
72259W        W44607  34.954  35.100   3.368
72260W        W44608  44.864  28.023   2.334
72261W        W44609   6.352  25.009   2.827
72262W        W44610   3.732  42.897   1.350
72263W        W44611  22.242   9.802   0.822
72264W        W44612  24.110   3.261   2.883
72265W        W44613  32.119  19.085   0.283
72266W        W44614  26.534  11.212   1.839
72267W        W44615   6.743  20.663   2.368
72268W        W44616  41.498  19.160   4.670
72269W        W44617  36.008   8.241   4.326
72270W        W44618  13.637  22.224  10.561
72271W        W44619  38.053  31.967  13.865
72272W        W44620  27.540  11.837   1.729
72273W        W44621  40.973  14.753   1.871
72274W        W44622  43.965  12.142   3.248
72275W        W44623  12.674  33.023  10.974
72276W        W44624  14.206  21.193   0.375
72277W        W44625  13.642  15.214  10.593
72278W        W44626  22.021  31.556   1.324
72279W        W44627  34.565  14.331   4.314
72280W        W44628  36.388  21.232  13.407
72281W        W44629  28.471  22.228  10.515
72282W        W44630  30.969  22.571  13.874
72283W        W44631  40.852  15.164  14.460
72284W        W44632  22.657  42.978   0.412
72285W        W44633  31.494  36.867   1.840
72286W        W44634   6.757  10.729   2.688
72287W        W44635  42.357  42.922  10.616
72288W        W44636  10.850  24.552  14.924
72289W        W44637  13.712  23.081   4.682
72290W        W44638  43.798  40.443   4.132
72291W        W44639  28.102  38.899   3.667
72292W        W44640   6.809   2.826   2.230
72293W        W44641  30.147  40.480  10.425
72294W        W44642  15.249  11.781   1.327
72295W        W44643  22.534  43.372  13.932
72296W        W44644   6.349  11.748   0.463
72297W        W44645  39.383  24.551   1.411
72298W        W44646  24.013  24.205  14.301
72299W        W44647  33.623  39.848  14.838
72300W        W44648  22.072  24.207   1.265
72301W        W44649   0.339  29.483   0.730
72302W        W44650  43.481  34.911   1.315
72303W        W44651  24.109  22.591   2.357
72304W        W44652   4.710  27.653   3.869
72305W        W44653   6.920  23.210  12.829
72306W        W44654  25.116  19.162  11.503
72307W        W44655  34.593  44.266  11.556
72308W        W44656  17.771  13.672   4.685
72309W        W44657  31.600   4.294   0.890
72310W        W44658  24.676  15.289  12.406
72311W        W44659  19.609  38.506   3.755
72312W        W44660  23.162  18.222   2.253
72313W        W44661  27.503  18.778   4.660
72314W        W44662  15.200   0.965   2.373
72315W        W44663  40.803  24.662   2.890
72316W        W44664  27.668  34.455  14.940
72317W        W44665  34.959  13.745   0.261
72318W        W44666  37.427  15.664   4.266
72319W        W44667  44.358  24.662  11.426
72320W        W44668   0.837  37.862  12.511
72321W        W44669   0.403  36.426  10.548
72322W        W44670  25.559   9.210   9.931
72323W        W44671   9.864  18.578  12.024
72324W        W44672  41.509  20.171  14.473
72325W        W44673   4.341  25.068  14.341
72326W        W44674  37.074  35.066  14.391
72327W        W44675  42.850  44.495  12.958
72328W        W44676   0.898  10.147   0.925
72329W        W44677  21.036  11.756  13.882
72330W        W44678  28.949  40.515  14.960
72331W        W44679  15.624  18.248   2.359
72332W        W44680   4.724  43.799  12.340
72333W        W44681  20.223  26.064   2.699
72334W        W44682   5.362  40.969   2.222
72335W        W44683  39.544   8.163  10.408
72336W        W44684  26.591   9.237  13.384
72337W        W44685  42.847   5.411   2.320
72338W        W44686  30.648  16.791   2.380
72339W        W44687   1.943  37.961  14.026
72340W        W44688   2.311  34.925   3.272
72341W        W44689  44.488  37.031   1.412
72342W        W44690  11.253  12.656   3.745
72343W        W44691  43.320  42.854   1.906
72344W        W44692   9.798   5.720  12.459
72345W        W44693  25.031   3.893  14.954
72346W        W44694  10.720  32.582   3.868
72347W        W44695   4.387   6.363   1.423
72348W        W44696  32.474  17.684  11.479
72349W        W44697  14.750  13.656  11.578
72350W        W44698  20.240  41.398  14.307
72351W        W44699  36.511   6.304  11.613
72352W        W44700  19.270  11.320   0.823
72353W        W44701   0.875  14.107   2.300
72354W        W44702  30.045  34.931  14.873
72355W        W44703  30.155  41.846  10.576
72356W        W44704  37.843  39.821   2.282
72357W        W44705  27.517  28.946  10.638
72358W        W44706  37.076   2.274   2.309
72359W        W44707  30.920  44.362   3.386
72360W        W44708   6.211  13.721  14.427
72361W        W44709   4.765  33.091   0.432
72362W        W44710  17.179  14.590   4.337
72363W        W44711  23.704  18.569  11.460
72364W        W44712   4.836  20.691   3.639
72365W        W44713  10.226   1.905   0.950
72366W        W44714   0.299  10.362  13.885
72367W        W44715  39.910  33.565  11.481
72368W        W44716  14.303  13.263   9.981
72369W        W44717  31.972  44.817   2.803
72370W        W44718  22.528   9.748   4.183
72371W        W44719  20.123  37.048   2.741
72372W        W44720   8.890  33.556   1.812
72373W        W44721  15.587  22.087  12.347
72374W        W44722  29.565  43.915  12.521
72375W        W44723  15.647  11.209  13.942
72376W        W44724   8.667  17.665  13.309
72377W        W44725  22.715  32.076  12.090
72378W        W44726   5.846  37.021   1.757
72379W        W44727  17.069  18.618  12.423
72380W        W44728  34.428   1.821   1.440
72381W        W44729  38.342   1.801   2.213
72382W        W44730  44.827  34.970  11.109
72383W        W44731  12.838  25.995  10.635
72384W        W44732   7.308   7.234  13.054
72385W        W44733  23.068  26.703   4.234
72386W        W44734  12.633  35.362   0.357
72387W        W44735  33.549  19.768   5.148
72388W        W44736  17.588   6.735  14.906
72389W        W44737  16.155   6.368   2.813
72390W        W44738   3.422  26.074  13.955
72391W        W44739  40.339   9.687   3.331
72392W        W44740  18.750  16.125   1.331
72393W        W44741  35.966  18.187  11.951
72394W        W44742   3.245   8.201   1.331
72395W        W44743  27.986  14.123   2.820
72396W        W44744  41.954  10.213   0.473
72397W        W44745   6.359  43.303  12.994
72398W        W44746  40.502  10.833   1.723
72399W        W44747   3.908  17.167   2.192
72400W        W44748  18.597   9.644  11.948
72401W        W44749  21.085  35.914  14.913
72402W        W44750  31.592  32.428   0.243
72403W        W44751  24.197  41.536  12.885
72404W        W44752   8.352  27.987  14.464
72405W        W44753  14.131  28.453  11.951
72406W        W44754  18.563  15.215   3.687
72407W        W44755  21.245   0.969   4.838
72408W        W44756  28.007  30.034  14.795
72409W        W44757  14.770  20.731  10.474
72410W        W44758  22.662  20.599  11.022
72411W        W44759   4.937  23.502   2.279
72412W        W44760  10.198   7.681   4.657
72413W        W44761   7.279  42.955   0.402
72414W        W44762  10.250  33.934  11.944
72415W        W44763  29.150  24.174   3.746
72416W        W44764  11.340  12.733   3.193
72417W        W44765  10.796   8.687   2.791
72418W        W44766  22.525   9.777  13.310
72419W        W44767   4.794  35.046  13.880
72420W        W44768  25.700  37.959   3.759
72421W        W44769   5.282  27.042   3.319
72422W        W44770   7.758  37.469  11.531
72423W        W44771  22.541  26.004  11.880
72424W        W44772  14.309  16.220   0.744
72425W        W44773  40.945   6.205   1.432
72426W        W44774   5.827   6.828   1.356
72427W        W44775  14.797  18.212  14.914
72428W        W44776  33.497  40.303  13.973
72429W        W44777   8.853  19.623  14.877
72430W        W44778  15.301  30.933   0.930
72431W        W44779  26.045  41.463   2.289
72432W        W44780  19.272  17.065   1.255
72433W        W44781  28.451  26.502  10.491
72434W        W44782  18.749  32.988   1.409
72435W        W44783  40.947  34.962  14.833
72436W        W44784  24.103  31.543  13.369
72437W        W44785   9.878   5.696  14.315
72438W        W44786   1.849  24.670   0.276
72439W        W44787  29.927  34.473   3.666
72440W        W44788  36.410  26.100   0.787
72441W        W44789   5.200  37.544  10.562
72442W        W44790  14.257  40.450  12.999
72443W        W44791   1.275  29.436   3.328
72444W        W44792  36.074  37.926   0.804
72445W        W44793  10.823  10.293  11.979
72446W        W44794  34.548  41.959  14.448
72447W        W44795  17.215  18.627  12.851
72448W        W44796  24.562   7.353  11.502
72449W        W44797   7.383  43.493   1.291
72450W        W44798  40.353  40.401   0.466
72451W        W44799  33.615  34.531  12.355
72452W        W44800  26.065   0.416   4.603
72453W        W44801  44.970  33.611  14.504
72454W        W44802  11.299   6.393  11.000
72455W        W44803  23.040  34.531  11.041
72456W        W44804  18.261  32.110  11.414
72457W        W44805  30.599  44.787   2.723
72458W        W44806   8.265  26.457  13.853
72459W        W44807  41.924  25.690  11.972
72460W        W44808   2.454   8.758  11.394
72461W        W44809  13.698  35.434   0.377
72462W        W44810  23.200  36.944  14.813
72463W        W44811  20.544  11.756   2.710
72464W        W44812   5.691   7.240  11.043
72465W        W44813  34.389  40.031  12.871
72466W        W44814   8.249  40.899   2.288
72467W        W44815  22.080  32.137  14.388
72468W        W44816   1.888  18.160   4.201
72469W        W44817  14.616  12.237   9.591
72470W        W44818  43.814  38.857  13.355
72471W        W44819  11.778  27.530   4.752
72472W        W44820  34.904  40.424   0.798
72473W        W44821  25.494  26.685   1.722
72474W        W44822   5.876  23.002   4.142
72475W        W44823  29.651  20.246   1.432
72476W        W44824   3.224  36.873  10.526
72477W        W44825  24.226  17.101  14.493
72478W        W44826  35.445   2.443   3.336
72479W        W44827  19.548  41.357   4.267
72480W        W44828   8.712   2.752  12.485
72481W        W44829  37.869  21.736   1.221
72482W        W44830  16.796  40.931   0.956
72483W        W44831  21.711  35.932   1.760
72484W        W44832   7.796  21.574   5.643
72485W        W44833  25.213  15.581  13.963
72486W        W44834   7.707  32.031  14.902
72487W        W44835  25.703  37.920   1.912
72488W        W44836   6.241   7.259   0.476
72489W        W44837  39.036  18.688   1.432
72490W        W44838  23.193  33.550   1.376
72491W        W44839  30.580  18.648  12.384
72492W        W44840  38.001  42.413  14.802
72493W        W44841  39.896   8.799  11.420
72494W        W44842  19.050   5.323   1.294
72495W        W44843  43.937  37.539  13.987
72496W        W44844  15.783  42.332   1.925
72497W        W44845  33.905  13.722  12.873
72498W        W44846  25.987  22.209  13.043
72499W        W44847  25.473   5.756   2.874
72500W        W44848   0.394  27.676  10.610
72501W        W44849  34.506  14.127   0.881
72502W        W44850   8.812  28.564  11.110
72503W        W44851  27.667  22.501  10.554
72504W        W44852  31.486   0.798   3.239
72505W        W44853   8.228  19.588  14.763
72506W        W44854   3.312   8.269   4.698
72507W        W44855  38.549  42.499   4.769
72508W        W44856  11.176  14.796  10.464
72509W        W44857  42.496   6.337  12.094
72510W        W44858  40.882  15.613  12.534
72511W        W44859  23.171  16.207   1.376
72512W        W44860  32.425  33.042   2.727
72513W        W44861  17.098  36.379  12.472
72514W        W44862  41.983  36.895  13.332
72515W        W44863  29.552  23.222  12.026
72516W        W44864   0.950  38.880  13.520
72517W        W44865  29.100  18.692   4.788
72518W        W44866   6.301  34.912  13.026
72519W        W44867  40.999  18.264   1.252
72520W        W44868   9.843   7.353  12.863
72521W        W44869  28.542  40.807  11.576
72522W        W44870   2.940  30.543  14.348
72523W        W44871   3.298  30.555  14.362
72524W        W44872  24.707   1.772   2.803
72525W        W44873  19.561  22.508  14.331
72526W        W44874  22.552  15.803   2.816
72527W        W44875   1.877  20.563   3.863
72528W        W44876  31.632  30.976   0.454
72529W        W44877  37.455  19.643  13.361
72530W        W44878  21.539   5.791  12.881
72531W        W44879  15.112  24.570  12.956
72532W        W44880   9.724  36.511   4.665
72533W        W44881  29.601   4.884   1.868
72534W        W44882   1.378  20.551   2.366
72535W        W44883  17.141   4.703   4.272
72536W        W44884  23.004  23.545   1.290
72537W        W44885   9.236  40.852  13.349
72538W        W44886  43.873  24.631  14.837
72539W        W44887  40.527  21.225   1.379
72540W        W44888  32.997  12.650   3.309
72541W        W44889   2.901  34.876   3.280
72542W        W44890   6.897   8.197   0.410
72543W        W44891  12.222  18.144   0.414
72544W        W44892  31.494  22.184  12.036
72545W        W44893  36.878  24.623   1.357
72546W        W44894   7.758  32.624  13.513
72547W        W44895   4.790  37.337   3.246
72548W        W44896  24.027   7.279   4.350
72549W        W44897   1.780  40.950  14.938
72550W        W44898  13.720   6.345   0.825
72551W        W44899  12.265  43.870  11.494
72552W        W44900  42.314  15.725   2.748
72553W        W44901  26.960  41.485   4.771
72554W        W44902   7.320  43.930   3.187
72555W        W44903   6.720  10.733   1.447
72556W        W44904   4.254  42.810   1.383
72557W        W44905  32.986  11.770   0.395
72558W        W44906   2.944  14.262  12.958
72559W        W44907  24.557   8.753   4.193
72560W        W44908  35.949  12.223  13.427
72561W        W44909  27.560  19.125   0.469
72562W        W44910  39.931   0.428  14.419
72563W        W44911   3.417   1.385   1.219
72564W        W44912  42.354   9.195   4.625
72565W        W44913  10.746  39.051  13.992
72566W        W44914  39.971   3.341   3.823
72567W        W44915  11.828  10.190   1.716
72568W        W44916  31.519  31.623   4.740
72569W        W44917  23.173   4.243   1.213
72570W        W44918  16.315  42.283   4.733
72571W        W44919  33.562   8.848  12.420
72572W        W44920   7.862  25.471  13.889
72573W        W44921  42.923  23.140  12.063
72574W        W44922  18.106  27.666  10.441
72575W        W44923  23.067  22.567   3.319
72576W        W44924   1.263  19.713   0.830
72577W        W44925  26.085  20.649  11.048
72578W        W44926  30.008  40.453  11.512
72579W        W44927  42.898   8.315  11.889
72580W        W44928  19.066  26.066   0.264
72581W        W44929  38.505   1.322   3.784
72582W        W44930   2.841  40.305   1.923
72583W        W44931  41.832  21.110   0.884
72584W        W44932  26.112  44.432  14.874
72585W        W44933  42.804  29.985   3.633
72586W        W44934   9.807   4.334   4.645
72587W        W44935   1.871  42.283  14.993
72588W        W44936  34.103   2.933  13.037
72589W        W44937   6.776  12.171  10.922
72590W        W44938   9.379  19.195   1.428
72591W        W44939  44.779   3.299  14.868
72592W        W44940   7.180  31.440  14.301
72593W        W44941  44.325  19.630  10.424
72594W        W44942  34.105  13.818   3.696
72595W        W44943   2.887   9.817  13.307
72596W        W44944   1.274   2.908  14.833
72597W        W44945  13.639  10.651   1.878
72598W        W44946  31.640  43.985  12.936
72599W        W44947   8.812  37.029   1.338
72600W        W44948  40.825  42.404   3.365
72601W        W44949  27.028  36.406  11.115
72602W        W44950   9.284  35.580   4.224
72603W        W44951  44.995  31.011   3.857
72604W        W44952  22.672  29.647  11.485
72605W        W44953  44.845  42.508   2.877
72606W        W44954  19.762  30.414  11.572
72607W        W44955  37.874  40.937   2.279
72608W        W44956  16.295  37.080   4.807
72609W        W44957  41.378   5.318  14.842
72610W        W44958  14.142  30.646  13.415
72611W        W44959   9.171  27.178  14.814
72612W        W44960  15.658  39.010  11.957
72613W        W44961  29.001   6.351  10.645
72614W        W44962   9.887  31.999  13.513
72615W        W44963  15.119  12.328   9.989
72616W        W44964  30.512  21.210   2.256
72617W        W44965  35.432  12.799   3.795
72618W        W44966  16.315  40.904   0.927
72619W        W44967  11.143  23.139  10.622
72620W        W44968   2.383   4.340  14.780
72621W        W44969  27.160  38.507   2.412
72622W        W44970  20.081  35.044  12.043
72623W        W44971  34.104  30.945  11.454
72624W        W44972  35.467  16.727   4.832
72625W        W44973   1.296  29.977   4.758
72626W        W44974  33.105  21.525  12.443
72627W        W44975   8.260  24.606   1.260
72628W        W44976   6.272  25.100   3.648
72629W        W44977   6.691  13.780   4.314
72630W        W44978   3.806   0.981  10.597
72631W        W44979   5.235   6.781   1.770
72632W        W44980  10.289  14.207   4.749
72633W        W44981  29.950  17.278   3.351
72634W        W44982  44.285  23.098  12.898
72635W        W44983   6.721  35.495  10.925
72636W        W44984  24.975   9.654   1.699
72637W        W44985   4.371   9.657  13.804
72638W        W44986  10.380  17.692  13.851
72639W        W44987   9.295  43.826   3.783
72640W        W44988  15.149  15.743   3.773
72641W        W44989   0.424  24.633  11.886
72642W        W44990  24.575  42.949  13.368
72643W        W44991  26.677   9.682   2.836
72644W        W44992  40.918  18.267   2.695
72645W        W44993   2.739  15.244   2.311
72646W        W44994  42.005  23.057  12.932
72647W        W44995  41.988   6.422  10.125
72648W        W44996   1.798  37.526   1.741
72649W        W44997  11.704  38.386   3.313
72650W        W44998  26.580  32.078  14.993
72651W        W44999  44.808  40.932  11.030
72652W        W45000  41.895  10.229   9.947
72653W        W45001  41.006   5.219   2.799
72654W        W45002  39.061  30.586  12.892
72655W        W45003  36.362  43.420  12.862
72656W        W45004  17.589   6.748   3.705
72657W        W45005  19.256  31.610   0.464
72658W        W45006  10.285  40.312  11.075
72659W        W45007  43.946  20.557  11.488
72660W        W45008   4.902  16.618   2.251
72661W        W45009  14.677  34.425  14.817
72662W        W45010   1.812  41.396   0.966
72663W        W45011  31.549  19.268   0.946
72664W        W45012  41.869  19.146   4.190
72665W        W45013  39.353  31.923   3.751
72666W        W45014  34.871   5.924   4.819
72667W        W45015  21.195   6.337   0.740
72668W        W45016  32.045   6.364  12.856
72669W        W45017  41.407  13.133   1.928
72670W        W45018  13.151  16.122   3.241
72671W        W45019  18.067  12.143   0.451
72672W        W45020  19.125  22.541   1.254
72673W        W45021  32.019   8.763  10.146
72674W        W45022  22.617  16.157   3.850
72675W        W45023   1.280  26.010  12.521
72676W        W45024  11.352  18.147  12.359
72677W        W45025  32.893  32.529   4.330
72678W        W45026  38.984  12.698  13.829
72679W        W45027  33.592   1.483  12.427
72680W        W45028  10.870  16.257   3.652
72681W        W45029  34.983   2.899  14.284
72682W        W45030  22.617  18.735  13.834
72683W        W45031  29.523  29.126  10.126
72684W        W45032  27.500  27.088  11.108
72685W        W45033  37.537  29.040   3.797
72686W        W45034   1.943  19.282  12.009
72687W        W45035   1.960  10.307  12.431
72688W        W45036  37.494  30.073   4.762
72689W        W45037  27.587  36.361  13.005
72690W        W45038  43.782  32.925   1.726
72691W        W45039  33.922  23.643   0.763
72692W        W45040   0.431  34.011   1.277
72693W        W45041   8.822  40.506   2.838
72694W        W45042  14.270   2.794   2.391
72695W        W45043   7.677  35.528   2.779
72696W        W45044   2.845  30.435  12.565
72697W        W45045  34.934  43.980  13.430
72698W        W45046  38.981  25.077   1.886
72699W        W45047   5.727  43.482  11.947
72700W        W45048   9.330  28.142  10.147
72701W        W45049  22.207  11.739   0.473
72702W        W45050  24.047  28.981  12.887
72703W        W45051  11.333   3.266   2.193
72704W        W45052  31.974  42.323  13.507
72705W        W45053  15.658  10.846   2.386
72706W        W45054  17.588   5.386   4.625
72707W        W45055   3.756  15.171   0.328
72708W        W45056  44.473  13.762  13.384
72709W        W45057  32.028  10.268   2.902
72710W        W45058   0.315  41.873  10.917
72711W        W45059   7.703  28.997   4.272
72712W        W45060  24.498  11.741  11.040
72713W        W45061  27.044  15.681   1.764
72714W        W45062  25.551  22.636  10.151
72715W        W45063  42.390  44.883  11.934
72716W        W45064  33.919  26.621  12.849
72717W        W45065  26.091  43.930  11.423
72718W        W45066  21.751  13.790   1.856
72719W        W45067  41.335  41.344  10.525
72720W        W45068  34.950   2.926  13.354
72721W        W45069  39.057   8.245   1.865
72722W        W45070   0.840   7.750   0.908
72723W        W45071  23.237  20.708   4.130
72724W        W45072  36.521   6.734   0.861
72725W        W45073  18.111  11.839  12.394
72726W        W45074   1.306  41.905   1.803
72727W        W45075  31.898  30.085   3.807
72728W        W45076  15.773  31.049   2.834
72729W        W45077  16.130  30.132   3.386
72730W        W45078  25.131  20.244   0.386
72731W        W45079  43.322  27.487   1.839
72732W        W45080  25.713  21.097   1.378
72733W        W45081  31.449   6.185   2.416
72734W        W45082  32.940  19.168  14.897
72735W        W45083  28.067  22.598  14.850
72736W        W45084   4.346  41.974   3.291
72737W        W45085  24.615  38.907   4.220
72738W        W45086  19.189  10.176  11.935
72739W        W45087  33.522  10.772  14.934
72740W        W45088  28.612  27.142  14.483
72741W        W45089  12.155  44.309  10.454
72742W        W45090   7.237  41.811   3.148
72743W        W45091  33.412  36.034  10.957
72744W        W45092   4.259  38.326   3.277
72745W        W45093  41.345  36.501   4.155
72746W        W45094  36.513  29.098  11.465
72747W        W45095  23.618  37.504   1.842
72748W        W45096  34.968  33.441   2.799
72749W        W45097  32.548  23.532  12.958
72750W        W45098  17.151  43.964  12.526
72751W        W45099  31.577  42.305   1.831
72752W        W45100   8.775  35.865   0.439
72753W        W45101  39.874  11.650  13.518
72754W        W45102  14.758  40.881  10.623
72755W        W45103  26.137  20.112  12.468
72756W        W45104  10.290  37.916  13.815
72757W        W45105  11.802  36.393   3.176
72758W        W45106  18.744  18.150   3.684
72759W        W45107   6.788  31.002  14.421
72760W        W45108  25.030  27.068  12.882
72761W        W45109  42.973  20.718   2.406
72762W        W45110  19.651  18.088  10.568
72763W        W45111  25.967  20.187  13.443
72764W        W45112  27.173  13.109   3.805
72765W        W45113  34.031  34.907  13.422
72766W        W45114  18.584  43.910  14.812
72767W        W45115   9.851   6.218  14.909
72768W        W45116  11.303  14.686  14.446
72769W        W45117  12.722  33.607   3.304
72770W        W45118  16.094   2.304   3.312
72771W        W45119  24.027   3.433   0.743
72772W        W45120  23.732  33.429  13.391
72773W        W45121  40.962  25.987  11.506
72774W        W45122  29.984  10.364   4.120
72775W        W45123   4.935  16.629   0.764
72776W        W45124  15.278  31.965   3.330
72777W        W45125  25.629  13.809  13.894
72778W        W45126  13.641  29.944  12.904
72779W        W45127  18.155  35.445   1.406
72780W        W45128  42.495  32.426   4.346
72781W        W45129  23.168   2.779   2.258
72782W        W45130  39.996  42.944   3.199
72783W        W45131  15.296  15.202  11.545
72784W        W45132   9.244  20.759  14.418
72785W        W45133  27.517  43.400  12.468
72786W        W45134  20.738  15.820   2.261
72787W        W45135  17.786   6.842   0.396
72788W        W45136   3.252  36.421  12.355
72789W        W45137   2.770  36.367   3.675
72790W        W45138  26.545  13.318  12.413
72791W        W45139   6.332   5.916   1.791
72792W        W45140   7.383   6.272   3.644
72793W        W45141  11.218   3.448   9.990
72794W        W45142  23.037  29.977  13.522
72795W        W45143  11.657  20.764  11.412
72796W        W45144  16.604  32.627  12.469
72797W        W45145  43.013  10.841   4.728
72798W        W45146  42.949  35.897  10.623
72799W        W45147   5.708   9.385  14.964
72800W        W45148  29.090   9.782   0.856
72801W        W45149  28.452  10.346   3.202
72802W        W45150  10.670  21.084  12.574
72803W        W45151   9.696  44.350  14.978
72804W        W45152  13.220  38.529  14.975
72805W        W45153  39.341  26.117  12.885
72806W        W45154  38.493  18.192   1.285
72807W        W45155  34.896  26.040   4.669
72808W        W45156   1.411  26.151   1.733
72809W        W45157  31.454   2.799   2.784
72810W        W45158  14.799  38.920   1.320
72811W        W45159  41.493  43.857   1.410
72812W        W45160   8.865  20.536   4.611
72813W        W45161   3.291  17.091   1.703
72814W        W45162  28.160   1.804  11.418
72815W        W45163  32.523  44.259   4.636
72816W        W45164   4.930  31.639   2.784
72817W        W45165  20.584  18.104  10.413
72818W        W45166  27.141  14.769   4.750
72819W        W45167  14.714  15.291  13.962
72820W        W45168  27.035   8.692  13.808
72821W        W45169  20.603  17.602   4.346
72822W        W45170  25.120  25.106  10.982
72823W        W45171  15.299  37.450   3.324
72824W        W45172  17.704   7.681  10.942
72825W        W45173  40.005  40.319  14.452
72826W        W45174  28.164   5.415  14.904
72827W        W45175  22.094  16.658   1.883
72828W        W45176  22.700   8.666  14.807
72829W        W45177   2.797  16.309   1.761
72830W        W45178  20.570   7.881  11.565
72831W        W45179  40.413  10.250   3.754
72832W        W45180  19.696  14.604  12.918
72833W        W45181  27.055  41.908   0.421
72834W        W45182   5.926  41.362   0.832
72835W        W45183  37.062   5.243  13.363
72836W        W45184  26.458  20.564   0.452
72837W        W45185  29.538  25.154   1.418
72838W        W45186  12.673  39.874   2.720
72839W        W45187  20.236  14.223  13.400
72840W        W45188  14.304  32.013  12.409
72841W        W45189   9.756  32.079   2.676
72842W        W45190  31.492  27.960   2.737
72843W        W45191  14.126  14.790   0.378
72844W        W45192  34.943  16.164  10.502
72845W        W45193  36.038   9.216   3.207
72846W        W45194  13.127  22.054   1.852
72847W        W45195  20.562  33.880  13.899
72848W        W45196  11.765  25.997   1.408
72849W        W45197  41.970  29.144   1.902
72850W        W45198  18.669  19.642  12.043
72851W        W45199  39.034  18.718  11.478
72852W        W45200  20.623   1.750   1.374
72853W        W45201   3.383  13.116   1.843
72854W        W45202  36.455  21.651  10.529
72855W        W45203  33.584   3.931  10.599
72856W        W45204  11.181  36.902  10.600
72857W        W45205  44.859  11.200  14.448
72858W        W45206  29.005  25.106  11.378
72859W        W45207   7.253  34.572   0.309
72860W        W45208  28.143  26.972   3.791
72861W        W45209  11.742  17.653  12.870
72862W        W45210   8.280  28.610   2.419
72863W        W45211  22.591  26.955   2.391
72864W        W45212  24.210   5.365   4.646
72865W        W45213  19.669  20.726   1.398
72866W        W45214  33.019  33.441   0.882
72867W        W45215   8.213   5.222   3.227
72868W        W45216  29.624   9.344   0.895
72869W        W45217   8.209  37.073  13.001
72870W        W45218  28.939   5.689   2.804
72871W        W45219  14.116  23.051  11.081
72872W        W45220  23.143  41.008   2.828
72873W        W45221  28.047   1.443   3.163
72874W        W45222  40.864  21.749  13.405
72875W        W45223   8.758  21.679  14.887
72876W        W45224  23.033  38.519   4.825
72877W        W45225  15.175  19.039   2.185
72878W        W45226  28.150  42.950  12.856
72879W        W45227  39.319  27.190  14.834
72880W        W45228  27.990  23.735   4.270
72881W        W45229  10.193  28.049  14.838
72882W        W45230  27.655   3.800  11.049
72883W        W45231   9.358  31.133   9.454
72884W        W45232  16.652   3.826   2.383
72885W        W45233  33.032  23.140   3.239
72886W        W45234  25.198   2.902  12.938
72887W        W45235  41.314  11.198  11.091
72888W        W45236  28.160  20.101   1.278
72889W        W45237  25.658  32.627  12.371
72890W        W45238  15.262  32.602  14.391
72891W        W45239  18.609  41.013  14.970
72892W        W45240  13.829  41.325  10.640
72893W        W45241  24.120  25.088  11.109
72894W        W45242  24.704   4.895  13.533
72895W        W45243  31.590  21.723   4.725
72896W        W45244  10.862   9.806   4.121
72897W        W45245  29.539  19.613   3.764
72898W        W45246  42.316   4.763  13.404
72899W        W45247  35.896  25.067  12.411
72900W        W45248  20.049  15.799  13.964
72901W        W45249  38.522  36.054   1.285
72902W        W45250  42.464  25.035  14.861
72903W        W45251  40.976  26.174   3.864
72904W        W45252  13.141   9.395   4.344
72905W        W45253  28.576  13.187   4.165
72906W        W45254  39.476  31.923   2.666
72907W        W45255  24.663  19.561   0.933
72908W        W45256  42.388  13.237  12.345
72909W        W45257  37.067  34.578  12.969
72910W        W45258  26.980   2.401   2.902
72911W        W45259  44.410  43.998  13.933
72912W        W45260  15.261  14.195   1.854
72913W        W45261  44.787  32.007  13.820
72914W        W45262  36.493  32.125   1.359
72915W        W45263  32.910  16.135  14.326
72916W        W45264   5.915   8.330   4.832
72917W        W45265  20.112  26.691  13.431
72918W        W45266  10.367  22.576  13.375
72919W        W45267   4.301  25.143   3.758
72920W        W45268  39.866  35.451  12.996
72921W        W45269  37.011  12.803  12.500
72922W        W45270   7.352   6.210   4.624
72923W        W45271  19.158   5.867  10.573
72924W        W45272  44.822  30.116  14.860
72925W        W45273  25.667  25.653  10.632
72926W        W45274   5.695  16.807  14.434
72927W        W45275  19.188  26.476  13.388
72928W        W45276  13.211  14.762  13.998
72929W        W45277  10.232  34.939  10.438
72930W        W45278   4.755  35.447  14.343
72931W        W45279  24.533   5.904   2.258
72932W        W45280   8.802  37.877  11.465
72933W        W45281  16.629  37.551   2.675
72934W        W45282  10.749  26.515  13.025
72935W        W45283  39.492  33.493   1.245
72936W        W45284  39.360  36.372   1.276
72937W        W45285  19.202   0.385  11.942
72938W        W45286  22.067  19.218  13.851
72939W        W45287  25.628   8.773  13.532
72940W        W45288   7.244  33.566   3.697
72941W        W45289  18.698  25.120  12.572
72942W        W45290  18.754  14.110   0.913
72943W        W45291  44.000  21.743   2.382
72944W        W45292  44.987  41.920  11.490
72945W        W45293  31.107   5.373   1.744
72946W        W45294  18.610  37.480  10.601
72947W        W45295  32.608  15.635  13.804
72948W        W45296   3.864  33.401  10.588
72949W        W45297   8.861   2.921   4.811
72950W        W45298  23.110  14.613   3.385
72951W        W45299  12.357   8.242  11.962
72952W        W45300  34.439  17.211  12.024
72953W        W45301  16.228  35.602   0.858
72954W        W45302  35.600  32.973  13.321
72955W        W45303  20.226  12.118   2.294
72956W        W45304   8.884  14.741   3.266
72957W        W45305  11.186   0.478   3.205
72958W        W45306  40.394  33.456   3.327
72959W        W45307  26.567  11.837  11.553
72960W        W45308  43.961  10.655  11.952
72961W        W45309   3.902  28.507   3.642
72962W        W45310  16.129  29.985  13.358
72963W        W45311  22.588  35.852   2.790
72964W        W45312  14.820  37.084   2.223
72965W        W45313  12.665  42.799   2.363
72966W        W45314  44.490  22.707  12.953
72967W        W45315  41.968  22.669   5.261
72968W        W45316  43.789  35.567  14.318
72969W        W45317  23.593  15.757   4.295
72970W        W45318  14.722   0.414  10.508
72971W        W45319  15.662   5.797  12.349
72972W        W45320  14.200  36.097  10.892
72973W        W45321  32.530  13.310   4.234
72974W        W45322  36.552   9.765   1.400
72975W        W45323  31.490   4.905   4.626
72976W        W45324   3.316  40.501   0.955
72977W        W45325  20.655  20.091  14.278
72978W        W45326  19.757  44.983  12.512
72979W        W45327  31.904  22.555   2.743
72980W        W45328  29.619  19.644   2.262
72981W        W45329  27.158   9.271  13.795
72982W        W45330  24.525  13.328   1.256
72983W        W45331  38.025  19.655   4.640
72984W        W45332  14.627   2.427  10.897
72985W        W45333  25.643   1.900  13.945
72986W        W45334  15.714   9.163  12.396
72987W        W45335  37.391  23.614   3.845
72988W        W45336  10.773  43.404   2.352
72989W        W45337  11.729   4.350   2.671
72990W        W45338  10.821  32.629   0.775
72991W        W45339  37.450  39.523   3.312
72992W        W45340  31.140  37.886  13.486
72993W        W45341  43.403   8.200  12.935
72994W        W45342  43.319  42.030   0.857
72995W        W45343  16.188  23.227   3.852
72996W        W45344  22.723  42.952   0.803
72997W        W45345  42.908  29.161   2.896
72998W        W45346   6.246  31.121  11.952
72999W        W45347  24.527  21.082  14.999
73000W        W45348  15.315  35.549   0.384
73001W        W45349  40.342  42.821   1.779
73002W        W45350  22.185  35.538  13.051
73003W        W45351  40.039  20.255   1.859
73004W        W45352  38.468  29.057  14.285
73005W        W45353  16.272  21.736  13.981
73006W        W45354  43.951  22.222  13.958
73007W        W45355  37.416   1.857   0.953
73008W        W45356   8.322   0.828   2.380
73009W        W45357  24.182  32.409   3.158
73010W        W45358  30.638  44.478  10.957
73011W        W45359  27.609  27.512   3.744
73012W        W45360  24.590   4.707  11.504
73013W        W45361   3.839  23.694  12.026
73014W        W45362   6.251  28.120   0.444
73015W        W45363  35.374  33.467  13.059
73016W        W45364  30.494  26.676  10.565
73017W        W45365  42.310  25.620   0.255
73018W        W45366  21.081  20.101  10.926
73019W        W45367  35.875  29.642   3.300
73020W        W45368  15.771  29.559   0.802
73021W        W45369  13.681  43.808  14.765
73022W        W45370  17.251   1.245  14.012
73023W        W45371  31.147  27.682   1.776
73024W        W45372  20.171  39.539  10.640
73025W        W45373  16.601  18.068  13.934
73026W        W45374  14.198  22.177   3.669
73027W        W45375   4.762  37.513   2.308
73028W        W45376  39.360  29.033  13.964
73029W        W45377  27.582  42.954  11.859
73030W        W45378  12.168  29.029   2.320
73031W        W45379  30.576  14.812  11.884
73032W        W45380  35.901  22.052  12.448
73033W        W45381  34.997  41.347  14.819
73034W        W45382  42.006  28.039  12.850
73035W        W45383  15.600  32.531  10.560
73036W        W45384   3.289   7.350   1.899
73037W        W45385  34.987  11.762  14.836
73038W        W45386   9.799  37.061   0.938
73039W        W45387  20.142  39.445   1.797
73040W        W45388  19.745   5.836  14.898
73041W        W45389   1.239  29.158   2.786
73042W        W45390   1.350   5.774  12.510
73043W        W45391  19.629  36.021  10.910
73044W        W45392  15.652  35.024   3.239
73045W        W45393  29.977  12.272  14.488
73046W        W45394  25.065   7.799  10.968
73047W        W45395   8.289  35.503   1.705
73048W        W45396  42.788  29.111   0.316
73049W        W45397  33.879  41.344  12.413
73050W        W45398  27.493   0.753   3.146
73051W        W45399   4.369  23.052   1.904
73052W        W45400  39.346   0.979  13.529
73053W        W45401  22.633  28.556   4.780
73054W        W45402  37.004  16.690   2.267
73055W        W45403  31.982  22.674   4.817
73056W        W45404  25.563  39.395  14.321
73057W        W45405  36.495  21.719  14.786
73058W        W45406  20.607   3.722  11.944
73059W        W45407  31.939  38.463  14.014
73060W        W45408  16.710  14.246   0.404
73061W        W45409   7.199  13.297  12.932
73062W        W45410  22.035  32.525  11.037
73063W        W45411  42.510   9.702   0.937
73064W        W45412  19.658  20.256   2.206
73065W        W45413  15.329  16.656  11.384
73066W        W45414   7.828  29.640  12.940
73067W        W45415  37.002  36.581  11.943
73068W        W45416  24.983   4.222  10.584
73069W        W45417  30.537  22.580   0.758
73070W        W45418   1.912  22.545   3.733
73071W        W45419   8.247  27.603  11.494
73072W        W45420  17.652  32.062  13.463
73073W        W45421  33.383   0.493  14.335
73074W        W45422  33.542  33.438  13.851
73075W        W45423  26.967   3.341  13.526
73076W        W45424  33.513  22.590  13.956
73077W        W45425  39.418  34.099   3.731
73078W        W45426  12.636  18.212   0.277
73079W        W45427   7.217  10.189  12.571
73080W        W45428   9.353  20.127  10.464
73081W        W45429  40.008  34.382   4.161
73082W        W45430  18.221  32.447   5.092
73083W        W45431  19.162   4.415   2.714
73084W        W45432  15.157  21.152  11.983
73085W        W45433   9.283  39.488   4.145
73086W        W45434  36.963  14.804  10.569
73087W        W45435   5.228  12.745   3.756
73088W        W45436  41.292  12.667   4.822
73089W        W45437  40.546  22.996  13.039
73090W        W45438  41.378  23.005  11.585
73091W        W45439  42.832  19.229   1.831
73092W        W45440   2.740   6.697   2.253
73093W        W45441  44.291  44.384   2.676
73094W        W45442  31.415  37.478  11.934
73095W        W45443  33.996  17.062   3.254
73096W        W45444  25.993  32.606   3.837
73097W        W45445   2.825  15.823   0.436
73098W        W45446  19.245   7.740  11.121
73099W        W45447  36.515  21.737   4.169
73100W        W45448   2.264   7.746  13.914
73101W        W45449  34.008  10.271   1.403
73102W        W45450   5.861   1.903  12.080
73103W        W45451   4.233  30.596   2.814
73104W        W45452  30.519  19.644  13.815
73105W        W45453  32.066  16.779  10.945
73106W        W45454  31.601  19.063   2.228
73107W        W45455  15.145   3.274  12.951
73108W        W45456   2.460  10.154   2.186
73109W        W45457  12.820  22.617   2.846
73110W        W45458  19.576  25.182   1.881
73111W        W45459  37.524  26.958  12.079
73112W        W45460  38.991   3.923  11.960
73113W        W45461   6.840  35.575   0.907
73114W        W45462   2.860  28.127   1.264
73115W        W45463  26.970  36.363  12.941
73116W        W45464  14.150   1.310   2.845
73117W        W45465  37.040  36.087   2.225
73118W        W45466  15.203  28.975  11.933
73119W        W45467  35.060  29.969  14.774
73120W        W45468   0.969  42.453  14.391
73121W        W45469   4.440  14.756  14.010
73122W        W45470  14.590  29.621   1.240
73123W        W45471   9.842  11.204  11.914
73124W        W45472  34.599  28.072  14.397
73125W        W45473  22.130  25.641  13.873
73126W        W45474  27.041  28.627  10.476
73127W        W45475  39.396  21.738  10.597
73128W        W45476  36.048   8.729   3.351
73129W        W45477  20.181  40.520   1.432
73130W        W45478  43.437   3.731   1.437
73131W        W45479  30.596   7.340  14.960
73132W        W45480  18.157  14.335  13.443
73133W        W45481  40.811  29.469  11.029
73134W        W45482  11.217  19.653  14.308
73135W        W45483  20.637  15.291  10.422
73136W        W45484  27.144  20.582  14.805
73137W        W45485  21.755  14.300   3.183
73138W        W45486  13.348  21.018   0.957
73139W        W45487  24.136  19.154  13.020
73140W        W45488  17.238  16.112  12.893
73141W        W45489  10.845   0.297  10.625
73142W        W45490  34.607  11.143   2.862
73143W        W45491  16.198  33.115  13.855
73144W        W45492  12.626  31.911   1.701
73145W        W45493  21.544   8.282  11.086
73146W        W45494  23.173  16.735   2.409
73147W        W45495  15.642  37.399   0.845
73148W        W45496   6.193  24.722  13.379
73149W        W45497  25.047  42.427  11.968
73150W        W45498  19.165  24.597   2.279
73151W        W45499  11.314  21.223  10.947
73152W        W45500  16.162  30.975   1.814
73153W        W45501  27.485  14.163  13.969
73154W        W45502  35.461  20.760   0.902
73155W        W45503   5.416  40.030  10.469
73156W        W45504   2.762  12.171   0.896
73157W        W45505  39.020  30.008   0.413
73158W        W45506  27.175  43.774  12.887
73159W        W45507   4.853  10.756  11.419
73160W        W45508   1.474  34.899   2.851
73161W        W45509  23.136   0.823   4.798
73162W        W45510  23.062  11.240  12.354
73163W        W45511  31.973   1.332  12.968
73164W        W45512  26.667  43.951  14.331
73165W        W45513   1.457  20.119   0.422
73166W        W45514  30.542  18.723  14.939
73167W        W45515  15.787  23.215   3.856
73168W        W45516   3.922  37.369  10.565
73169W        W45517  37.041  29.670   0.297
73170W        W45518   9.815  31.611  10.419
73171W        W45519  23.163  29.599   2.321
73172W        W45520   4.811  35.942   2.764
73173W        W45521   3.732  20.627  14.954
73174W        W45522   7.847  15.759   0.762
73175W        W45523   9.272  43.966  13.949
73176W        W45524  24.513  19.778  13.493
73177W        W45525  34.498  19.633   2.385
73178W        W45526  23.158   0.768   2.875
73179W        W45527   2.356  31.632   1.862
73180W        W45528   2.917  15.692  11.065
73181W        W45529  16.311  16.661   4.655
73182W        W45530   4.761   3.856  12.469
73183W        W45531  17.125   3.933   4.763
73184W        W45532  14.809   0.971  12.013
73185W        W45533   9.736  19.631   2.853
73186W        W45534   8.808  41.431   4.334
73187W        W45535  13.669  29.024  11.898
73188W        W45536  35.471  27.496  11.589
73189W        W45537  41.937  12.677   0.423
73190W        W45538  19.641  27.143   2.220
73191W        W45539  31.640  43.906  10.603
73192W        W45540  11.369  41.412   0.361
73193W        W45541  17.575  33.908   4.200
73194W        W45542  17.108  40.320  12.902
73195W        W45543  17.786  32.946  14.464
73196W        W45544   4.845  39.985   4.732
73197W        W45545  24.499  44.811  11.129
73198W        W45546  28.057  13.197  13.999
73199W        W45547  12.341  42.956   1.919
73200W        W45548  39.909  40.533   4.828
73201W        W45549  10.289  26.001   0.373
73202W        W45550  13.788  25.500  14.362
73203W        W45551  26.517   0.436  13.870
73204W        W45552  11.659  28.030  13.042
73205W        W45553  27.589  16.102  14.964
73206W        W45554  12.304  41.818  14.500
73207W        W45555  37.079  32.002   1.789
73208W        W45556  13.608  14.163   2.300
73209W        W45557   5.324   8.695  11.571
73210W        W45558  23.159  17.724  13.451
73211W        W45559  31.124  16.575   4.818
73212W        W45560  17.711   7.415   3.653
73213W        W45561  18.691  31.500   2.361
73214W        W45562   4.932  11.655  14.960
73215W        W45563  22.544   0.251   2.793
73216W        W45564  29.531   7.269  14.886
73217W        W45565  13.300  24.081  10.040
73218W        W45566   2.870  37.502   2.257
73219W        W45567  12.190  29.603   0.341
73220W        W45568  11.275  34.060  10.468
73221W        W45569   0.465   2.897  11.858
73222W        W45570  44.997  19.090  12.969
73223W        W45571  29.082  26.965   4.598
73224W        W45572  22.175  36.847  11.923
73225W        W45573   5.876  26.206   3.370
73226W        W45574   3.844  12.303   2.306
73227W        W45575   0.769   0.818  12.950
73228W        W45576   4.352  13.670   0.823
73229W        W45577  29.084  14.613  13.374
73230W        W45578   3.257  34.056  14.473
73231W        W45579  19.198  36.052   4.626
73232W        W45580  40.374  43.392   3.774
73233W        W45581  42.899  24.600   0.918
73234W        W45582  20.056  40.035  13.953
73235W        W45583  43.328  27.458  14.311
73236W        W45584  37.438  32.529   1.804
73237W        W45585   6.772  36.403   4.671
73238W        W45586  12.660  17.069   1.437
73239W        W45587  13.217  41.850   1.314
73240W        W45588  13.188  35.038  11.031
73241W        W45589  37.518  30.972   1.882
73242W        W45590  26.541  14.225  11.106
73243W        W45591  21.069   1.321   0.468
73244W        W45592  10.814   3.442   2.328
73245W        W45593  42.790  44.796  14.458
73246W        W45594  33.068   5.824  14.473
73247W        W45595  42.785  33.959  12.073
73248W        W45596  32.604  23.631   4.735
73249W        W45597  37.497   7.200  11.512
73250W        W45598  16.752  44.797   1.342
73251W        W45599  40.375  38.001   2.312
73252W        W45600  20.144  20.123   3.753
73253W        W45601  33.075   8.838  14.797
73254W        W45602  38.502  33.425   1.276
73255W        W45603  32.495  32.923   0.728
73256W        W45604  17.735  39.065  14.348
73257W        W45605   5.223  26.126  13.056
73258W        W45606  42.799  36.858   2.412
73259W        W45607   8.804  32.438  12.561
73260W        W45608   4.357  12.808  12.918
73261W        W45609  14.691  19.076   0.937
73262W        W45610  29.171  32.916   1.839
73263W        W45611  25.123  39.473  11.090
73264W        W45612  40.887  23.623   1.274
73265W        W45613  25.065  44.778  11.068
73266W        W45614   8.802  32.966  12.348
73267W        W45615  15.752   9.178  12.082
73268W        W45616   3.447  10.151   2.309
73269W        W45617  32.547   6.904   3.370
73270W        W45618  28.102  21.597  11.586
73271W        W45619   4.218  19.197  10.536
73272W        W45620  26.653  31.483  13.896
73273W        W45621  41.848  32.587   4.350
73274W        W45622  10.377   8.182   0.877
73275W        W45623  31.629  40.825  11.563
73276W        W45624  17.075   8.724   0.242
73277W        W45625   4.786   4.894   4.322
73278W        W45626  36.047   8.664  11.916
73279W        W45627  18.622  21.513   0.965
73280W        W45628  11.669   4.444  11.907
73281W        W45629  30.422  15.179  14.873
73282W        W45630  29.157  22.045   1.910
73283W        W45631   2.929  21.056   3.711
73284W        W45632  23.620  20.237  14.379
73285W        W45633  21.236  24.524  12.865
73286W        W45634   2.721  40.036  14.015
73287W        W45635  23.123  28.153   3.215
73288W        W45636  39.466  17.735  11.056
73289W        W45637  28.008  22.162   1.842
73290W        W45638  22.713   9.295  14.817
73291W        W45639  39.397   7.393  14.985
73292W        W45640   8.886  26.143   0.284
73293W        W45641  39.005  27.941   0.758
73294W        W45642  19.161  12.741  11.488
73295W        W45643  23.576   3.444   1.855
73296W        W45644  23.513  23.007  12.433
73297W        W45645  16.782  17.694   3.253
73298W        W45646  13.708  23.604   2.250
73299W        W45647  21.727  31.565   0.411
73300W        W45648  15.714   7.179  13.936
73301W        W45649  37.040  19.676   4.305
73302W        W45650  18.189  15.153  14.854
73303W        W45651  16.254  21.030   9.923
73304W        W45652  20.652  34.101  13.336
73305W        W45653  17.083   5.740   0.335
73306W        W45654  30.645  20.105  13.798
73307W        W45655   3.917  39.834  12.944
73308W        W45656  28.034  36.076   3.830
73309W        W45657  25.169  18.677   1.696
73310W        W45658  22.187  25.502   3.694
73311W        W45659  42.481  15.291  10.972
73312W        W45660  26.111   5.334   3.322
73313W        W45661  30.546   3.252   3.706
73314W        W45662  16.299   1.893   2.830
73315W        W45663  30.920  17.654  13.820
73316W        W45664   6.352  39.452  12.984
73317W        W45665   0.964  27.641  14.341
73318W        W45666  43.467  23.576   4.776
73319W        W45667  37.975  17.669  10.585
73320W        W45668  43.417  23.998  11.954
73321W        W45669  22.096  24.167   4.748
73322W        W45670   3.417  20.742  11.962
73323W        W45671   3.765  24.978  10.967
73324W        W45672  20.571  44.374  13.487
73325W        W45673  25.606   8.294   2.758
73326W        W45674  23.028   0.280   4.645
73327W        W45675  33.915  15.776   2.900
73328W        W45676  24.083  30.488  11.386
73329W        W45677   8.758  18.254   1.331
73330W        W45678   4.815  38.443   1.753
73331W        W45679   4.424  24.159   1.358
73332W        W45680  13.638   4.357  12.016
73333W        W45681  29.038  33.979  13.448
73334W        W45682   8.366  42.347  14.393
73335W        W45683  10.280  14.687  11.940
73336W        W45684  42.873  27.038   0.418
73337W        W45685  16.809  22.104   2.266
73338W        W45686  39.030  36.944   4.293
73339W        W45687  14.172   2.245  12.345
73340W        W45688  17.588  20.069   3.380
73341W        W45689  26.984   6.190  14.469
73342W        W45690  26.951   8.690  14.330
73343W        W45691  38.954  41.913   3.316
73344W        W45692  30.499  31.143   1.261
73345W        W45693  36.910   5.267  12.031
73346W        W45694   5.390   4.330   3.737
73347W        W45695  24.535  28.962   4.288
73348W        W45696  39.023   8.226   2.790
73349W        W45697  19.675  19.080   2.275
73350W        W45698  32.947  31.402  12.387
73351W        W45699  11.703  20.062  12.936
73352W        W45700  42.960  38.847  14.326
73353W        W45701  36.459   2.338  14.307
73354W        W45702  10.656   2.745  12.845
73355W        W45703  30.007  37.469  14.318
73356W        W45704   6.302  41.900   0.304
73357W        W45705  28.455  44.906   4.245
73358W        W45706  10.307  36.856   2.289
73359W        W45707  13.113   8.885  12.009
73360W        W45708  31.971  15.639  11.125
73361W        W45709  25.610  44.005   2.373
73362W        W45710  43.789  15.092  10.472
73363W        W45711  21.587  15.581   4.177
73364W        W45712  23.147  32.451   4.720
73365W        W45713  38.337  20.264  11.554
73366W        W45714   6.398  41.410   0.876
73367W        W45715  28.068  19.146  14.313
73368W        W45716  44.379  44.434  10.572
73369W        W45717  12.222  26.015   2.765
73370W        W45718   1.422  43.962   2.384
73371W        W45719   0.910  42.331  11.891
73372W        W45720   4.373  20.661  14.830
73373W        W45721  14.173  22.708  14.446
73374W        W45722  23.060  14.832  14.445
73375W        W45723   8.370  42.897   0.445
73376W        W45724  29.551  39.536  14.436
73377W        W45725  20.188  25.148   2.183
73378W        W45726  41.952   8.198  11.525
73379W        W45727   2.241  28.629  11.526
73380W        W45728  29.560   4.896   3.279
73381W        W45729  27.628  10.242  11.968
73382W        W45730  38.397  20.199  10.466
73383W        W45731  25.014  36.475   3.276
73384W        W45732  41.433  23.554   0.902
73385W        W45733  36.355   7.369  10.018
73386W        W45734  10.657  14.289  14.857
73387W        W45735  29.067  26.608  13.933
73388W        W45736   6.291  16.792   4.690
73389W        W45737  26.130   2.744   1.858
73390W        W45738  20.232   4.879  11.036
73391W        W45739   5.920  31.584   5.717
73392W        W45740  40.940   7.357   4.176
73393W        W45741  40.857  24.173  13.476
73394W        W45742  29.991  21.068  14.017
73395W        W45743  26.531  42.991  12.485
73396W        W45744   7.697  27.550  14.019
73397W        W45745   7.308  24.995   3.383
73398W        W45746  19.619   2.261   3.364
73399W        W45747   8.697   2.867   0.428
73400W        W45748  20.039  40.530   0.859
73401W        W45749   6.804  12.666   2.890
73402W        W45750  27.461  42.501   2.788
73403W        W45751  23.502  19.657   1.833
73404W        W45752  10.161  22.538  14.375
73405W        W45753  44.850  34.373  13.941
73406W        W45754  23.209  36.364  13.833
73407W        W45755  25.634  16.222   0.314
73408W        W45756  10.645  16.688   3.292
73409W        W45757  44.842  26.701   1.228
73410W        W45758  39.353  33.034   1.736
73411W        W45759  40.470  30.422  10.143
73412W        W45760   0.850  31.078  14.943
73413W        W45761  34.372  23.141   0.467
73414W        W45762  36.501   5.226  12.489
73415W        W45763  22.098   6.235   2.290
73416W        W45764  13.191   0.284  12.834
73417W        W45765  32.406   3.766   4.238
73418W        W45766  10.201  14.265  10.053
73419W        W45767  16.631  32.039  12.577
73420W        W45768  17.213   7.261  13.888
73421W        W45769  24.004  10.843  14.913
73422W        W45770  44.809  26.669   3.759
73423W        W45771  27.029  13.181  14.295
73424W        W45772  27.082  10.701  13.888
73425W        W45773  29.464  20.235  14.825
73426W        W45774  40.342  41.957  14.945
73427W        W45775  31.644  34.036  11.958
73428W        W45776   4.898  19.682   4.809
73429W        W45777  29.011  44.364  14.976
73430W        W45778  32.394  38.492   2.771
73431W        W45779  25.495  39.340  13.452
73432W        W45780  16.215   0.837   3.309
73433W        W45781  44.373  39.442   1.226
73434W        W45782  32.075  24.215  12.888
73435W        W45783   2.759  19.202  11.121
73436W        W45784  38.335  43.842   3.657
73437W        W45785   0.959  32.479  14.888
73438W        W45786  13.248  14.222   2.354
73439W        W45787  16.653  44.926  11.404
73440W        W45788  35.384  18.289  10.435
73441W        W45789  20.704  18.610  13.036
73442W        W45790   6.397  43.796   0.752
73443W        W45791  32.121  15.751  10.500
73444W        W45792  16.211  26.037   1.884
73445W        W45793  32.559  30.089   2.219
73446W        W45794  28.515   4.368  11.111
73447W        W45795  40.325  22.114   0.316
73448W        W45796   5.743  36.375  10.618
73449W        W45797  35.548  34.508  13.381
73450W        W45798  34.554  41.806  13.041
73451W        W45799  26.595  43.774  11.977
73452W        W45800  11.162  33.583  13.439
73453W        W45801  27.023  10.793   4.148
73454W        W45802  18.622  29.468  10.551
73455W        W45803  24.597  28.159  14.992
73456W        W45804  14.288   4.222  11.469
73457W        W45805  34.379  30.157   4.217
73458W        W45806  41.817   3.368  12.571
73459W        W45807  43.987  22.615  11.569
73460W        W45808  15.615   6.725  13.426
73461W        W45809  20.147   6.198   2.290
73462W        W45810  14.110  41.453   3.280
73463W        W45811  21.538   3.390   0.846
73464W        W45812  30.076   4.754  11.110
73465W        W45813  15.096   9.196   3.304
73466W        W45814   8.233  42.465   0.825
73467W        W45815   0.887  15.122   1.401
73468W        W45816   0.884  19.252   3.764
73469W        W45817  12.122  43.503   4.745
73470W        W45818   6.259   7.836  12.564
73471W        W45819  18.285  30.558  13.445
73472W        W45820  27.513  39.467  12.967
73473W        W45821  39.472  35.066  12.992
73474W        W45822  41.363  34.923   4.325
73475W        W45823  29.070   8.784  14.473
73476W        W45824   4.223  18.254  13.497
73477W        W45825  20.195  25.551  13.992
73478W        W45826  38.980   3.436  13.465
73479W        W45827   5.437  11.715  14.891
73480W        W45828  43.908   4.205  13.932
73481W        W45829  26.958  43.307  13.018
73482W        W45830  18.193  38.338   4.168
73483W        W45831  29.526  17.567  14.502
73484W        W45832   3.387  42.317  11.085
73485W        W45833  33.098  21.703   3.825
73486W        W45834  15.592  29.031  10.629
73487W        W45835  44.785  34.997   1.318
73488W        W45836   1.732  28.613   1.737
73489W        W45837   9.851  43.340   4.630
73490W        W45838  13.698  36.521   1.861
73491W        W45839  39.499   8.800   2.742
73492W        W45840  28.131   2.362   2.680
73493W        W45841  44.375  38.889  14.809
73494W        W45842   1.916  14.146  10.555
73495W        W45843  32.409   3.956   3.319
73496W        W45844   1.241  27.031  13.500
73497W        W45845  30.595  44.334   0.359
73498W        W45846   8.239  19.284   4.765
73499W        W45847   6.259  18.225  11.601
73500W        W45848  23.711  42.797   1.750
73501W        W45849  40.025  15.744   2.205
73502W        W45850  25.005  38.551  10.088
73503W        W45851  19.211  13.107   2.703
73504W        W45852  11.776   4.847   0.785
73505W        W45853  16.689  23.602  13.828
73506W        W45854  38.499  17.216  12.551
73507W        W45855  42.891  13.676   2.788
73508W        W45856  37.877  25.199  10.501
73509W        W45857  32.926  26.684   3.826
73510W        W45858   0.285  14.209  10.429
73511W        W45859   2.921  24.569  14.384
73512W        W45860   7.883  25.701  10.532
73513W        W45861  29.079  24.630  12.986
73514W        W45862  14.216   8.215   3.362
73515W        W45863  36.843   0.270  11.374
73516W        W45864  33.048  31.084   4.148
73517W        W45865   3.726  26.968  12.496
73518W        W45866   0.960   2.465  14.928
73519W        W45867   3.801  29.956   2.231
73520W        W45868   9.211  39.828  12.396
73521W        W45869  16.620   0.814  12.486
73522W        W45870   7.382   3.320  11.037
73523W        W45871  22.190  10.842   0.815
73524W        W45872  34.451  37.012   4.651
73525W        W45873  20.145  12.619  13.419
73526W        W45874  27.067   5.272   3.721
73527W        W45875  33.547   1.358  12.002
73528W        W45876  27.667   7.191   1.763
73529W        W45877  18.188  39.484   3.640
73530W        W45878  11.797   3.292   0.946
73531W        W45879  12.797   6.800   0.443
73532W        W45880   5.710  31.453  13.327
73533W        W45881  13.351  35.497   1.830
73534W        W45882  33.565  38.361  10.907
73535W        W45883  16.111  15.804  13.462
73536W        W45884  16.775  26.563  12.020
73537W        W45885  27.121  14.791   1.922
73538W        W45886  21.035  35.494   2.294
73539W        W45887  30.553  28.184  11.389
73540W        W45888  41.956  26.585  10.154
73541W        W45889  40.871  41.468  12.034
73542W        W45890   6.697  36.377  11.976
73543W        W45891  36.423  20.265  11.047
73544W        W45892   6.775  31.053   2.806
73545W        W45893  32.984  14.728   4.696
73546W        W45894  26.584   9.369   2.697
73547W        W45895  35.491   3.726   2.392
73548W        W45896  42.027  33.481   3.186
73549W        W45897  28.185   7.402  12.077
73550W        W45898  20.733  19.072  11.020
73551W        W45899   0.759   4.940  14.985
73552W        W45900   7.832  31.026  12.417
73553W        W45901  37.031  39.407   1.717
73554W        W45902  27.676  14.133  12.532
73555W        W45903  41.399  37.368  13.473
73556W        W45904  10.318  25.105   4.214
73557W        W45905  38.405  37.341  14.976
73558W        W45906   0.978  27.135  11.588
73559W        W45907  30.546  15.210   3.694
73560W        W45908  13.267  23.583  12.430
73561W        W45909  43.939  10.707  11.017
73562W        W45910  24.205  27.178   1.901
73563W        W45911   0.952  15.167   0.797
73564W        W45912  27.963  37.413  12.347
73565W        W45913  41.021   0.268   3.747
73566W        W45914  36.492  21.175   1.365
73567W        W45915   9.236  38.929  14.332
73568W        W45916  41.415  14.698   0.258
73569W        W45917  40.338  18.777   4.295
73570W        W45918  33.886  14.799   0.389
73571W        W45919   8.658  37.839  10.929
73572W        W45920  13.640  39.495  13.997
73573W        W45921  10.760  35.528   3.325
73574W        W45922  18.779  24.488   1.272
73575W        W45923  27.557   6.259   3.289
73576W        W45924  36.017  17.290   0.348
73577W        W45925  32.569   7.278  11.374
73578W        W45926  40.837   2.330  13.890
73579W        W45927   7.896   5.213   0.256
73580W        W45928  40.309   8.336  13.970
73581W        W45929  39.816   3.878  12.342
73582W        W45930  36.935  16.080   3.371
73583W        W45931  39.819  41.507  11.076
73584W        W45932   5.710  32.580   5.256
73585W        W45933  36.969   9.796  14.503
73586W        W45934  38.417  29.049  13.315
73587W        W45935  27.536   8.749   2.373
73588W        W45936  28.652   4.243   1.321
73589W        W45937  32.991  43.811   3.646
73590W        W45938   3.235  30.938  13.407
73591W        W45939  15.730  29.431   1.723
73592W        W45940   3.453  16.249   4.650
73593W        W45941  27.129  37.557   1.707
73594W        W45942  17.148  41.463   1.826
73595W        W45943  28.456   7.371   4.239
73596W        W45944  11.724   2.404   3.677
73597W        W45945  40.021   1.821   3.176
73598W        W45946  18.098  14.249   1.334
73599W        W45947  35.390   7.247  14.407
73600W        W45948  32.636  40.984   3.213
73601W        W45949  21.208  12.118   2.710
73602W        W45950  43.925  11.777  13.312
73603W        W45951   8.787  28.564   4.713
73604W        W45952  29.576  27.951   1.394
73605W        W45953   4.897  10.761   1.230
73606W        W45954  30.500  41.952  12.412
73607W        W45955  37.432  31.095   0.930
73608W        W45956   3.725  41.513   1.804
73609W        W45957  20.766  17.254   4.729
73610W        W45958   1.765   7.699  10.434
73611W        W45959  14.622  38.045   3.337
73612W        W45960  38.888  15.774  10.571
73613W        W45961   1.362   7.849  11.609
73614W        W45962  18.696  14.170  13.025
73615W        W45963   4.833  30.561   0.944
73616W        W45964  11.782  33.390   2.900
73617W        W45965  20.150   9.752   4.628
73618W        W45966  38.820  32.906   4.252
73619W        W45967  26.960  13.765  10.443
73620W        W45968  13.762  18.184  12.467
73621W        W45969  19.682  40.972  12.933
73622W        W45970   6.342  25.544   1.400
73623W        W45971  42.348   7.300   0.400
73624W        W45972  39.010  26.174   3.191
73625W        W45973  31.503   6.907   4.278
73626W        W45974  44.788   5.833   4.807
73627W        W45975   0.472  44.770   1.786
73628W        W45976  16.242  25.606  11.869
73629W        W45977   0.810  42.282   3.166
73630W        W45978   2.941  33.068   3.841
73631W        W45979  30.600  41.439   4.270
73632W        W45980  25.693  28.942  10.450
73633W        W45981   8.192  43.935  11.500
73634W        W45982  22.525  24.547  14.964
73635W        W45983  32.980  13.145  11.527
73636W        W45984  35.497  10.673  14.449
73637W        W45985  41.947  13.817   2.199
73638W        W45986  26.615  17.142   0.842
73639W        W45987  11.241  28.680   1.367
73640W        W45988  18.283  32.554   0.962
73641W        W45989   4.231  13.773  10.618
73642W        W45990  43.491  28.477   4.181
73643W        W45991  14.106  36.396  10.484
73644W        W45992  10.227   3.319   1.935
73645W        W45993  37.415  24.070  13.510
73646W        W45994  28.657  25.514   0.399
73647W        W45995   2.746  26.063   1.919
73648W        W45996  34.072  10.246   1.720
73649W        W45997  14.713  30.542   0.268
73650W        W45998  44.493  23.492  10.987
73651W        W45999  27.464  42.466   1.901
73652W        W46000  28.602  26.475   2.808
73653W        W46001  35.043  37.421  14.513
73654W        W46002  24.531  12.753  13.367
73655W        W46003  37.434  15.683  11.407
73656W        W46004  33.457  39.322  14.025
73657W        W46005  41.017  44.347  13.329
73658W        W46006  19.662  17.645   4.196
73659W        W46007  12.794  42.325   2.891
73660W        W46008  33.901  26.169  11.524
73661W        W46009   8.344  28.961   3.819
73662W        W46010   5.253  13.148   0.757
73663W        W46011  18.160  14.186   4.214
73664W        W46012  37.546  33.095  10.916
73665W        W46013   2.884  32.095   3.237
73666W        W46014  23.702  44.910  13.040
73667W        W46015  36.486   0.766  11.027
73668W        W46016  34.886  11.165   2.401
73669W        W46017  19.773   2.329  12.840
73670W        W46018   9.660   0.347   4.826
73671W        W46019   6.695  16.263  10.502
73672W        W46020  30.655  10.646  13.844
73673W        W46021  23.215   6.721   1.697
73674W        W46022  40.478   6.904  14.952
73675W        W46023  25.625  43.458   0.943
73676W        W46024  27.606  14.281   4.340
73677W        W46025   3.790  43.777  10.950
73678W        W46026   4.719  35.088  14.956
73679W        W46027  40.547  21.531  14.341
73680W        W46028   9.702  30.483  10.444
73681W        W46029  24.056  39.984  10.969
73682W        W46030  32.058   0.931  11.111
73683W        W46031  29.038  27.490   1.426
73684W        W46032   9.163  44.342  13.876
73685W        W46033  24.030  35.900   2.837
73686W        W46034   8.756   5.301  12.436
73687W        W46035  19.618  37.571   3.822
73688W        W46036  20.071  40.402  11.446
73689W        W46037  11.798  22.578   0.377
73690W        W46038  43.845  42.843   0.802
73691W        W46039  11.638  34.533   1.713
73692W        W46040  19.144  19.741   0.336
73693W        W46041  15.821  11.302  12.451
73694W        W46042   9.804  15.688   3.700
73695W        W46043  32.132  11.817   1.707
73696W        W46044  38.334   0.961  11.015
73697W        W46045  37.436  35.572  14.506
73698W        W46046  13.283  13.272  13.432
73699W        W46047  29.516  14.802  14.497
73700W        W46048   5.919   7.213   2.410
73701W        W46049  21.739  17.209   3.282
73702W        W46050  11.330  17.575  13.803
73703W        W46051   6.208  16.111   2.341
73704W        W46052  20.154  22.074   1.793
73705W        W46053  42.462  35.467   1.344
73706W        W46054  28.462  37.373   2.316
73707W        W46055  10.243   8.294  11.380
73708W        W46056   8.192   2.362  11.499
73709W        W46057  24.996   6.786  12.366
73710W        W46058  14.679  39.863  13.860
73711W        W46059  40.517   3.358   0.891
73712W        W46060  12.761  13.768   2.753
73713W        W46061  40.525   8.359  11.487
73714W        W46062  41.386   6.387  13.501
73715W        W46063  28.037   3.912  14.300
73716W        W46064  40.874  33.430  10.910
73717W        W46065   6.861   2.462  12.515
73718W        W46066  18.193   0.419   3.186
73719W        W46067   1.970   9.301  12.839
73720W        W46068  15.177  24.487  12.427
73721W        W46069  14.138  16.731  10.542
73722W        W46070  21.258   4.294  11.489
73723W        W46071  11.132  11.262  12.992
73724W        W46072  18.260  18.637  10.605
73725W        W46073  15.780  22.106  11.398
73726W        W46074   3.397  19.563  14.762
73727W        W46075  34.578   4.275  11.587
73728W        W46076  29.643  32.927  14.848
73729W        W46077  11.679  28.133  14.465
73730W        W46078  12.771   0.449  10.942
73731W        W46079  17.659   8.659   0.442
73732W        W46080  44.491  35.394  14.335
73733W        W46081  42.922  23.205   1.253
73734W        W46082   6.351  40.835   0.437
73735W        W46083   6.680  15.622   3.866
73736W        W46084  17.303  10.704  14.797
73737W        W46085  28.039  15.817  14.457
73738W        W46086  34.898  25.042  13.467
73739W        W46087  35.383  44.388   1.237
73740W        W46088  20.570  19.214  12.976
73741W        W46089  39.369  38.820  11.549
73742W        W46090  41.515   8.292   0.343
73743W        W46091  20.689   0.458  14.903
73744W        W46092   6.722  19.663  14.494
73745W        W46093   2.287  25.022  11.905
73746W        W46094  33.068  40.331  11.927
73747W        W46095   5.234   2.737  12.074
73748W        W46096  34.043   1.928   1.813
73749W        W46097  35.046  39.547   3.829
73750W        W46098  25.492  21.671   4.212
73751W        W46099  39.841  23.037  14.443
73752W        W46100  25.052  10.705   1.226
73753W        W46101  17.559  40.549  14.980
73754W        W46102   9.885  10.188  13.063
73755W        W46103   6.757  36.590  11.077
73756W        W46104  21.138   6.685  11.585
73757W        W46105  25.498   8.657   3.276
73758W        W46106   3.218  13.841  12.486
73759W        W46107  39.885  24.196   0.781
73760W        W46108  35.879  17.704   1.353
73761W        W46109  17.737   6.353  12.420
73762W        W46110  25.172  37.072   0.811
73763W        W46111  41.439  27.971  14.018
73764W        W46112  30.509  36.460   4.675
73765W        W46113  25.131  28.055  14.780
73766W        W46114  16.607   8.188  12.070
73767W        W46115  11.775   6.878  11.564
73768W        W46116   8.237  34.602   3.178
73769W        W46117  15.734   2.902  10.522
73770W        W46118   1.338  19.043   3.840
73771W        W46119  23.218  30.057  14.880
73772W        W46120  40.934   0.965   4.688
73773W        W46121   6.730  16.161  11.116
73774W        W46122   3.312   6.813  13.988
73775W        W46123  27.033   1.836  12.461
73776W        W46124  31.417  18.664   1.848
73777W        W46125   0.977   2.837   4.205
73778W        W46126  41.863   0.783   2.286
73779W        W46127  44.812  24.531   4.328
73780W        W46128  42.474  16.113  13.473
73781W        W46129  20.053  37.463   3.683
73782W        W46130  39.926  23.648   0.732
73783W        W46131  18.100  31.987   3.835
73784W        W46132  41.432   4.708  10.984
73785W        W46133   9.328   5.876  10.463
73786W        W46134  44.862  41.969   1.237
73787W        W46135   0.338   6.879   0.348
73788W        W46136  31.519  35.969   3.293
73789W        W46137  26.471   5.382   4.266
73790W        W46138  20.084  19.640   1.869
73791W        W46139  15.190  21.162   3.735
73792W        W46140  11.856  11.646  13.801
73793W        W46141  19.766  24.665   1.820
73794W        W46142   9.861  33.490  14.928
73795W        W46143  44.500  28.649   3.373
73796W        W46144  42.862  38.384   1.794
73797W        W46145  11.664  35.032  11.925
73798W        W46146  33.997  11.677   2.325
73799W        W46147  39.323   5.294   2.714
73800W        W46148  28.961  23.212  11.882
73801W        W46149  28.622  39.397  10.615
73802W        W46150   7.801  39.389  14.459
73803W        W46151  18.103  21.587   2.297
73804W        W46152  36.455  23.165  10.489
73805W        W46153  27.487   2.856  11.543
73806W        W46154  43.823  25.512  14.918
73807W        W46155   4.826  26.693  11.011
73808W        W46156  37.527   0.257   3.759
73809W        W46157   2.425  44.287  14.956
73810W        W46158  23.052  21.200   4.638
73811W        W46159   6.406  21.161  10.430
73812W        W46160  16.643  17.800   1.283
73813W        W46161  17.571  24.038  14.311
73814W        W46162  36.380   8.262  11.606
73815W        W46163  27.535  13.286  11.425
73816W        W46164  18.257   3.792   2.675
73817W        W46165   3.872  20.603   2.282
73818W        W46166  26.086   1.764  13.455
73819W        W46167  14.771   9.722  12.093
73820W        W46168   4.753   7.175  11.038
73821W        W46169  28.648  37.065  11.892
73822W        W46170   8.767   9.230   4.271
73823W        W46171  22.746  40.888  10.501
73824W        W46172  10.145  11.757  10.448
73825W        W46173   2.962  11.253   1.360
73826W        W46174  17.684  35.090   1.232
73827W        W46175  12.290   8.820   1.885
73828W        W46176  19.749  22.205   0.868
73829W        W46177   2.909   6.846   1.277
73830W        W46178  14.251  32.550  12.577
73831W        W46179  33.385  33.550  11.886
73832W        W46180  39.415  20.727  10.628
73833W        W46181  39.979   5.928  14.837
73834W        W46182   6.919  38.898   0.777
73835W        W46183  17.257  12.769  13.545
73836W        W46184  28.678  23.117  13.031
73837W        W46185  32.582  32.902   3.664
73838W        W46186  30.512  38.022  12.830
73839W        W46187   0.950   6.789   2.362
73840W        W46188   4.760  40.982   4.647
73841W        W46189  21.072  36.355   1.298
73842W        W46190  36.975  18.173   2.315
73843W        W46191  33.079  13.150  14.922
73844W        W46192  20.155  40.837   0.438
73845W        W46193  28.945   7.726  13.510
73846W        W46194  23.694   7.368  14.285
73847W        W46195  30.916  19.121  13.013
73848W        W46196  14.757   1.287   3.222
73849W        W46197  36.557  22.522  12.354
73850W        W46198  35.401  38.344  14.949
73851W        W46199  40.399  39.853   2.405
73852W        W46200  15.201   7.381   3.313
73853W        W46201   7.719  25.596  10.927
73854W        W46202  42.416  38.377  13.043
73855W        W46203  23.101  18.115  13.361
73856W        W46204  34.546   5.851   2.198
73857W        W46205   5.779  42.321  12.077
73858W        W46206  28.642   8.774  12.057
73859W        W46207  40.966  33.942  12.501
73860W        W46208   8.272   2.230  11.075
73861W        W46209  21.143   9.875  13.916
73862W        W46210  27.009   4.450  14.360
73863W        W46211  16.586  22.739  12.967
73864W        W46212  32.121   4.765   4.671
73865W        W46213   3.222  38.058  10.604
73866W        W46214  18.588  42.018  11.104
73867W        W46215   4.808  21.212   0.478
73868W        W46216   2.372   6.391  10.063
73869W        W46217  43.876  30.609  12.056
73870W        W46218  32.633   5.242   1.347
73871W        W46219   1.736  32.602   4.297
73872W        W46220  20.058   3.858   4.209
73873W        W46221  42.997  42.860  13.052
73874W        W46222  32.427  28.627  14.316
73875W        W46223  39.986  32.408   2.663
73876W        W46224  25.477  29.978   2.818
73877W        W46225  32.062  30.977  14.773
73878W        W46226   8.777  26.113  13.831
73879W        W46227  20.126  32.463   4.814
73880W        W46228  26.127   7.693  12.544
73881W        W46229  31.958   1.848   0.804
73882W        W46230  15.634  43.923  12.053
73883W        W46231  17.240  25.557   1.749
73884W        W46232   9.362  11.765  13.310
73885W        W46233   2.367   4.813   0.832
73886W        W46234   1.731  18.762   3.729
73887W        W46235   1.876   7.344   2.873
73888W        W46236   3.956  30.983   1.439
73889W        W46237   0.775  30.526   1.775
73890W        W46238  19.217  30.597  12.474
73891W        W46239  43.977  32.552   3.180
73892W        W46240  35.888  28.983  12.901
73893W        W46241  42.779  41.023  11.066
73894W        W46242  20.742  23.161  11.542
73895W        W46243  14.219  40.528  13.545
73896W        W46244   6.239  35.531  11.113
73897W        W46245  26.481  37.921   1.874
73898W        W46246  11.728  29.573   0.848
73899W        W46247   6.420  40.402   4.810
73900W        W46248  29.097  20.096   0.360
73901W        W46249  21.060  27.653   2.715
73902W        W46250  10.813   4.869   0.734
73903W        W46251  33.074   5.737  11.872
73904W        W46252  36.424  33.979   3.248
73905W        W46253   4.404  26.206   3.277
73906W        W46254  37.429  26.661   3.176
73907W        W46255  13.694  38.016  14.315
73908W        W46256  13.124  13.827  12.459
73909W        W46257  35.964  10.140  14.821
73910W        W46258  40.883  10.285   4.298
73911W        W46259  20.582   4.332  13.512
73912W        W46260  21.250  26.038  13.924
73913W        W46261  26.960  12.801   4.814
73914W        W46262  24.204  19.589   3.253
73915W        W46263   2.951  35.886   1.402
73916W        W46264  40.511   1.975  10.112
73917W        W46265   9.762  11.344  10.421
73918W        W46266  22.091  28.121   0.315
73919W        W46267   3.884   5.372   4.835
73920W        W46268   3.246  34.377  12.398
73921W        W46269  17.615  40.930  14.362
73922W        W46270  27.524  29.135  14.313
73923W        W46271  16.265  44.283   4.762
73924W        W46272  40.959  22.580   1.856
73925W        W46273  39.001  31.465  10.422
73926W        W46274   2.297  39.468  12.036
73927W        W46275  35.376  12.707  10.503
73928W        W46276  28.505  13.267   4.645
73929W        W46277   0.260  33.125   2.690
73930W        W46278   3.299  41.460  12.523
73931W        W46279  24.684  15.329   4.131
73932W        W46280  31.107  15.742   0.342
73933W        W46281   4.841  12.846  14.973
73934W        W46282  10.264  20.210   1.911
73935W        W46283   3.405  22.743  11.503
73936W        W46284  29.122  22.144  14.796
73937W        W46285  26.191  13.163   4.771
73938W        W46286  20.138  41.935   4.189
73939W        W46287  42.444  39.833   0.818
73940W        W46288   8.186  35.574   3.840
73941W        W46289  38.011   2.770  11.992
73942W        W46290  23.048  32.025  14.446
73943W        W46291  28.045   1.737   4.658
73944W        W46292  33.398  38.830   5.193
73945W        W46293  41.294   6.280   2.902
73946W        W46294  10.372  16.603  14.820
73947W        W46295  38.542  14.739  11.125
73948W        W46296  27.661   5.703  12.402
73949W        W46297  16.124  41.495  11.861
73950W        W46298   4.815  26.653  12.363
73951W        W46299  31.587  29.527  12.836
73952W        W46300   5.813  13.140   2.868
73953W        W46301  29.636  13.216   4.750
73954W        W46302  29.528  30.549   2.412
73955W        W46303  14.185  24.038  11.862
73956W        W46304  39.939   2.853   2.711
73957W        W46305  34.907   7.313   0.939
73958W        W46306  19.651  18.087   1.792
73959W        W46307  22.683  13.348  11.456
73960W        W46308  24.673  23.150   1.245
73961W        W46309   0.801  44.317  10.456
73962W        W46310  11.723  33.058   1.363
73963W        W46311   9.388  24.015  13.842
73964W        W46312  36.481  31.462   4.237
73965W        W46313  23.670  22.995  14.464
73966W        W46314   7.261   1.903   4.646
73967W        W46315  38.355   1.365   0.397
73968W        W46316   0.273  10.236   3.359
73969W        W46317  39.497  36.036   3.280
73970W        W46318  39.813   1.466   3.325
73971W        W46319  21.184  42.861  11.541
73972W        W46320  21.128  27.485  12.450
73973W        W46321   9.787   3.373  11.507
73974W        W46322  29.440   0.442   0.774
73975W        W46323  26.018  42.977  14.764
73976W        W46324  40.503  34.037  13.518
73977W        W46325  37.075   7.905   1.425
73978W        W46326  19.192  14.253   3.842
73979W        W46327   3.872  11.145   4.644
73980W        W46328   2.367  39.528   3.722
73981W        W46329   3.827   6.884   2.300
73982W        W46330  15.089  43.996  14.490
73983W        W46331  24.677  36.997  11.485
73984W        W46332   0.481  18.182  12.534
73985W        W46333   4.282  30.086  11.059
73986W        W46334  19.670  20.069  11.075
73987W        W46335  19.102  18.131  14.910
73988W        W46336   8.703   7.412   4.642
73989W        W46337  14.205   8.665  12.910
73990W        W46338   3.717  42.796  12.419
73991W        W46339   3.732   2.316  12.401
73992W        W46340  19.233  29.538   4.657
73993W        W46341   9.265  12.178  12.834
73994W        W46342  17.139  14.303   2.198
73995W        W46343   2.952  23.094  10.897
73996W        W46344  39.336  19.690   0.961
73997W        W46345   5.422  28.185   1.779
73998W        W46346  42.492  24.192   2.386
73999W        W46347  17.083  39.461  14.898
74000W        W46348   7.892  11.286   1.926
74001W        W46349  16.239  40.876   2.729
74002W        W46350  35.886  10.258   4.650
74003W        W46351  43.456  40.913   0.948
74004W        W46352  36.541  16.626   1.306
74005W        W46353  16.246  34.082  14.761
74006W        W46354  23.599  21.542  14.498
74007W        W46355  36.989   3.756  11.557
74008W        W46356  25.493   8.397   2.308
74009W        W46357  37.892   1.345  11.495
74010W        W46358  42.370  44.768  11.078
74011W        W46359  24.194  30.970   2.774
74012W        W46360  41.882  18.274   2.847
74013W        W46361  18.252   9.235  14.437
74014W        W46362  22.550  23.514  13.391
74015W        W46363   5.843  22.608   2.202
74016W        W46364  35.992  30.455  11.054
74017W        W46365  40.016  38.927  14.515
74018W        W46366   3.247  12.646  10.917
74019W        W46367  34.395   3.403   2.254
74020W        W46368   5.738  30.158   4.216
74021W        W46369  22.196  39.347   3.251
74022W        W46370  24.175   0.473   4.617
74023W        W46371   8.739  20.193  10.970
74024W        W46372  37.012  11.798   0.835
74025W        W46373  24.119  39.879   1.922
74026W        W46374  10.682   4.869   1.699
74027W        W46375  30.002  43.422  14.022
74028W        W46376  11.254  12.269  12.047
74029W        W46377  37.447  30.625   3.680
74030W        W46378  33.949  14.768  11.888
74031W        W46379  35.425  23.590   1.278
74032W        W46380  10.694   2.453   4.634
74033W        W46381  38.931  33.448   2.759
74034W        W46382  29.085  10.188  11.472
74035W        W46383  42.947  25.585   0.847
74036W        W46384  25.559  34.101   1.809
74037W        W46385  39.431  27.671  11.053
74038W        W46386  22.015  36.533  13.901
74039W        W46387  43.299   7.700   4.706
74040W        W46388  40.004   8.370  10.567
74041W        W46389  19.060  10.800  14.957
74042W        W46390  21.649  12.847   0.856
74043W        W46391  39.429  14.105   1.706
74044W        W46392  18.192   2.927   2.830
74045W        W46393  16.625  42.394   3.842
74046W        W46394  20.145  18.076  13.873
74047W        W46395  41.814  41.934  14.813
74048W        W46396  29.997  31.596   0.754
74049W        W46397  31.514  43.292  10.926
74050W        W46398  29.642  29.650  10.890
74051W        W46399  40.546  15.737   1.921
74052W        W46400   1.262  21.203   3.306
74053W        W46401  24.084  37.050  11.978
74054W        W46402   2.841   8.880   1.888
74055W        W46403  23.733  34.064  11.425
74056W        W46404  34.546  16.096  14.844
74057W        W46405   8.204  19.117   3.326
74058W        W46406  33.468  37.457  14.893
74059W        W46407   2.910  44.778  10.526
74060W        W46408  25.501  39.477   2.729
74061W        W46409  15.232  40.873   2.283
74062W        W46410  19.140   0.486   4.300
74063W        W46411  19.118  30.936  12.559
74064W        W46412  26.981  17.587   1.254
74065W        W46413  10.200   4.264   3.802
74066W        W46414   4.369  35.426   1.213
74067W        W46415   4.908  26.469   4.150
74068W        W46416   0.837  22.645   2.742
74069W        W46417  23.529  15.801  14.794
74070W        W46418  18.722  17.578   1.865
74071W        W46419  23.659  44.403   2.891
74072W        W46420   2.935  30.052   1.755
74073W        W46421  13.165   6.260   2.781
74074W        W46422  16.622  11.150  13.413
74075W        W46423  10.206   3.788  10.533
74076W        W46424  25.170  25.055  13.848
74077W        W46425  30.991  41.817   2.272
74078W        W46426  26.508  11.865   4.117
74079W        W46427  18.730  33.052  11.549
74080W        W46428  37.497  38.827   0.955
74081W        W46429  14.306  43.425   4.331
74082W        W46430   5.934  16.632   1.303
74083W        W46431  10.665  30.085  12.460
74084W        W46432  43.791  14.279   0.459
74085W        W46433  25.203   7.339  10.101
74086W        W46434  28.670  14.619  12.462
74087W        W46435   3.779  12.807   2.299
74088W        W46436  40.934   2.349  12.494
74089W        W46437  40.024  41.452   0.482
74090W        W46438   7.184   0.479  13.872
74091W        W46439  43.348  42.880   4.218
74092W        W46440  19.110  35.471  11.557
74093W        W46441  15.637  22.203   4.132
74094W        W46442   3.301  35.002  12.828
74095W        W46443  13.653  12.213   2.834
74096W        W46444  36.445  34.894   4.245
74097W        W46445   9.208  40.449  10.406
74098W        W46446   3.374  20.584   2.896
74099W        W46447  43.938  20.216  14.030
74100W        W46448  34.428  20.552  13.484
74101W        W46449   8.737  13.213  13.947
74102W        W46450  19.683   5.799   2.404
74103W        W46451  14.116  38.021  13.965
74104W        W46452  39.339  30.924   3.190
74105W        W46453  21.542  37.088  13.865
74106W        W46454   7.180  37.971   0.361
74107W        W46455   3.874  22.025   3.219
74108W        W46456  21.725  26.669   3.204
74109W        W46457   7.895  29.096  11.878
74110W        W46458  36.008  14.286   2.335
74111W        W46459  22.600   8.665   2.764
74112W        W46460  25.661  16.721   1.698
74113W        W46461  23.509  43.290  14.430
74114W        W46462  30.060  37.555  13.453
74115W        W46463   2.907  27.036  12.517
74116W        W46464  27.149  20.224  12.031
74117W        W46465  28.974  14.201  14.807
74118W        W46466  34.056  39.372   4.258
74119W        W46467  10.139   9.207   2.849
74120W        W46468  31.475  38.913  13.478
74121W        W46469  17.650  26.532   3.789
74122W        W46470  33.418  24.638   2.256
74123W        W46471  24.559  22.044   0.289
74124W        W46472  38.965  26.975  10.058
74125W        W46473   9.280   6.848   4.312
74126W        W46474  32.972  19.584   5.313
74127W        W46475  39.008  33.471   1.301
74128W        W46476  15.642  17.706  14.441
74129W        W46477  21.754  24.111  14.855
74130W        W46478  23.519  25.094   3.247
74131W        W46479  12.671  32.507   2.860
74132W        W46480  29.153  16.203  13.008
74133W        W46481   5.208  17.760  13.941
74134W        W46482  32.057  25.486  14.841
74135W        W46483  35.079  26.956  11.011
74136W        W46484   1.902  29.471   2.282
74137W        W46485  40.521  26.485   2.227
74138W        W46486  24.066  14.689  11.414
74139W        W46487  28.555  19.608  12.485
74140W        W46488  33.972   3.725   3.350
74141W        W46489   0.300   1.963  13.522
74142W        W46490  38.553   7.797   9.979
74143W        W46491  17.711   1.769   4.713
74144W        W46492  37.885  23.735   2.698
74145W        W46493  30.581  26.983   4.119
74146W        W46494  23.588   1.880  14.303
74147W        W46495  21.113  11.805   4.780
74148W        W46496  15.118  44.321  12.459
74149W        W46497   8.238  43.480  12.471
74150W        W46498  20.560  32.634  12.496
74151W        W46499  16.727  34.536  12.560
74152W        W46500  11.852  21.231   4.701
74153W        W46501  17.711  37.965  13.441
74154W        W46502  41.928   0.491   3.841
74155W        W46503  24.500   8.275   2.191
74156W        W46504  13.622  30.051  14.771
74157W        W46505  14.667  44.301   3.762
74158W        W46506  14.192   3.848   1.218
74159W        W46507   0.860  28.115   3.183
74160W        W46508  22.069  35.431   0.875
74161W        W46509  16.813  18.652  13.371
74162W        W46510  19.699  24.120  10.560
74163W        W46511  40.939  10.337  11.916
74164W        W46512  23.182  36.952  13.971
74165W        W46513  20.039  27.952   3.279
74166W        W46514  44.774  43.375  13.513
74167W        W46515   2.821  35.895   3.285
74168W        W46516   8.877  35.596   0.413
74169W        W46517  14.129   2.403   5.183
74170W        W46518  24.213  18.592  12.542
74171W        W46519  39.369  32.955  14.309
74172W        W46520  34.580  36.853  11.909
74173W        W46521  10.780  21.219  11.983
74174W        W46522  24.014   3.745  14.326
74175W        W46523  22.188  19.594  12.537
74176W        W46524  36.982  15.095   2.192
74177W        W46525   8.727   5.248  11.562
74178W        W46526   8.769   3.732  12.993
74179W        W46527  14.673   1.300   3.860
74180W        W46528  31.471  44.284   3.797
74181W        W46529  15.741   1.435   0.884
74182W        W46530  20.037   5.409   0.353
74183W        W46531  33.545  19.140   2.204
74184W        W46532  18.058  18.675  12.555
74185W        W46533   9.389  27.063   0.746
74186W        W46534  29.560   8.290  12.470
74187W        W46535  23.536  20.595   0.963
74188W        W46536  42.315   0.433  14.844
74189W        W46537  23.736  42.520  12.488
74190W        W46538  12.782   1.825   0.299
74191W        W46539  27.614  32.606   0.395
74192W        W46540  26.658  25.172  11.477
74193W        W46541  15.780  12.180   1.362
74194W        W46542  20.586   6.919   2.841
74195W        W46543  16.629  36.449   0.482
74196W        W46544  13.153  36.577  14.482
74197W        W46545  33.083  23.193  14.392
74198W        W46546  32.062   0.771   0.861
74199W        W46547  19.661  26.138  13.811
74200W        W46548  28.040   1.938   3.700
74201W        W46549   0.863  12.617   0.383
74202W        W46550  19.754  41.305   0.444
74203W        W46551  29.544   3.719  12.015
74204W        W46552  18.580  15.647  12.962
74205W        W46553  20.184  32.009  12.462
74206W        W46554   8.348  14.312   4.793
74207W        W46555   9.342   8.656  10.011
74208W        W46556  37.958  30.124  11.511
74209W        W46557  33.416  35.487   1.900
74210W        W46558  42.311  30.592   0.254
74211W        W46559  23.098  30.459  12.900
74212W        W46560  34.896  11.856   4.759
74213W        W46561  42.976   0.864  10.965
74214W        W46562  16.785  11.664   3.190
74215W        W46563  21.529  17.152  14.952
74216W        W46564   7.259  37.005  12.447
74217W        W46565   4.419  28.161  13.820
74218W        W46566  15.597  43.006  10.536
74219W        W46567   6.891  27.978  11.458
74220W        W46568  28.053  30.129  13.855
74221W        W46569  33.501   1.244   3.362
74222W        W46570  12.696  29.946   3.356
74223W        W46571   7.832   4.392   4.837
74224W        W46572  12.699   9.255   2.887
74225W        W46573   0.757   1.924   4.277
74226W        W46574  25.199  39.442   3.284
74227W        W46575  14.724  23.153   1.731
74228W        W46576  30.637  18.211  10.450
74229W        W46577  23.140  12.779  11.931
74230W        W46578  38.993  27.662   3.708
74231W        W46579  24.536  10.738   1.367
74232W        W46580  18.101  10.817  10.499
74233W        W46581  13.222   4.411  10.896
74234W        W46582  10.229  39.527   1.932
74235W        W46583  13.786  23.115  11.494
74236W        W46584  26.200   6.863   1.431
74237W        W46585  11.631   2.829   0.746
74238W        W46586  27.094  15.801  14.870
74239W        W46587  13.260  32.460   3.755
74240W        W46588  24.627  39.825  14.847
74241W        W46589  35.520   2.420  14.853
74242W        W46590  11.323   4.318   3.151
74243W        W46591  17.203  40.925   3.687
74244W        W46592   4.857  31.415  13.437
74245W        W46593  34.388  18.682  14.362
74246W        W46594  16.600  12.153   3.376
74247W        W46595  36.048  38.046  14.314
74248W        W46596  16.267  19.043  13.914
74249W        W46597  13.245  41.933   0.439
74250W        W46598  12.847  22.144   2.208
74251W        W46599  36.061   9.178  13.015
74252W        W46600  20.686  26.687  13.986
74253W        W46601   4.340  37.498  13.492
74254W        W46602  24.051  39.902   3.688
74255W        W46603  44.801   0.395  13.930
74256W        W46604  27.498  31.092  13.514
74257W        W46605  38.000  28.010  11.471
74258W        W46606  12.268  43.788  11.969
74259W        W46607  12.321  44.365  14.493
74260W        W46608  39.025  39.386  14.402
74261W        W46609  30.044  14.144   3.799
74262W        W46610   6.207  39.405  10.447
74263W        W46611  25.198  11.204   3.789
74264W        W46612  39.391   5.802   5.252
74265W        W46613  20.661  16.110   2.415
74266W        W46614  41.911  14.733   1.823
74267W        W46615  30.026  38.494  13.860
74268W        W46616  16.089  33.999  11.972
74269W        W46617  26.635  30.945   3.691
74270W        W46618   0.284   2.880   1.258
74271W        W46619  27.110  26.981  14.921
74272W        W46620  26.091  13.764  11.934
74273W        W46621  38.878  32.516  12.398
74274W        W46622   8.717  25.085  14.802
74275W        W46623  41.482  14.637   3.695
74276W        W46624  22.084  13.827   0.950
74277W        W46625   7.869  42.885  13.984
74278W        W46626  19.544   9.172   4.631
74279W        W46627   5.876  19.678  13.014
74280W        W46628  21.526  42.845  13.473
74281W        W46629  30.632  15.267   4.752
74282W        W46630   3.741  16.273  13.822
74283W        W46631  41.501  42.326   2.793
74284W        W46632  33.000   9.352   0.342
74285W        W46633  24.016  37.548   1.771
74286W        W46634  37.465   4.854   1.339
74287W        W46635  37.964  43.936  13.834
74288W        W46636  12.658  12.618  14.387
74289W        W46637  36.592   1.352  10.922
74290W        W46638  22.729  10.799   1.814
74291W        W46639  11.264  12.626  10.999
74292W        W46640  11.769   9.190  11.513
74293W        W46641  34.023  42.808  10.514
74294W        W46642  31.068  17.707  12.001
74295W        W46643  34.415  28.176   3.645
74296W        W46644  37.909   1.782  14.837
74297W        W46645  18.101   8.827  14.359
74298W        W46646  22.717   2.911  11.043
74299W        W46647  32.898  14.636   1.715
74300W        W46648  38.840  44.328   3.638
74301W        W46649  10.854  26.103   4.146
74302W        W46650   2.758  20.694   4.805
74303W        W46651  29.518  21.645   3.166
74304W        W46652  10.761   5.705  10.028
74305W        W46653   6.313  12.633  12.826
74306W        W46654  27.585   0.806  11.425
74307W        W46655  16.218  14.125   0.256
74308W        W46656   4.249  29.462   0.949
74309W        W46657  39.015  14.107   2.767
74310W        W46658  15.642   5.208  12.994
74311W        W46659  14.180  33.967   0.839
74312W        W46660  10.646   1.339   0.396
74313W        W46661  11.275  40.977   3.189
74314W        W46662  41.929   1.413  14.787
74315W        W46663   0.435  25.073  13.543
74316W        W46664  30.642  25.500   2.273
74317W        W46665   0.360  34.484   3.290
74318W        W46666   8.299  12.677   4.349
74319W        W46667   3.716  22.218   2.860
74320W        W46668   5.917   4.849  14.482
74321W        W46669  31.629  20.730   2.718
74322W        W46670  12.826   3.797  14.355
74323W        W46671   9.261  24.092   2.203
74324W        W46672  37.582  18.177  13.849
74325W        W46673   4.262  18.296  12.366
74326W        W46674  20.677  36.970  11.010
74327W        W46675  25.467  41.913  12.419
74328W        W46676  43.858  27.967  13.950
74329W        W46677  30.163  23.151   4.750
74330W        W46678   3.444  13.313  13.495
74331W        W46679  17.152  21.158  10.519
74332W        W46680   4.702  41.523   0.288
74333W        W46681  26.106   0.871   2.399
74334W        W46682   6.679   0.341  10.463
74335W        W46683  44.933  16.600   4.607
74336W        W46684  44.833  29.610  11.925
74337W        W46685   9.184  35.461   3.280
74338W        W46686   9.232  41.534   1.221
74339W        W46687  20.756  34.421  12.980
74340W        W46688  21.041   3.800  10.926
74341W        W46689  20.149  18.759  12.403
74342W        W46690  30.592  40.530  12.094
74343W        W46691   6.774   8.260  13.860
74344W        W46692  10.151  39.392   4.659
74345W        W46693  38.857  28.505   0.330
74346W        W46694  34.437   4.416  14.935
74347W        W46695   9.273  19.149   4.819
74348W        W46696  31.422  34.889  13.933
74349W        W46697  31.934  23.991   4.659
74350W        W46698   4.754  19.613   1.934
74351W        W46699  12.855  28.610   2.253
74352W        W46700  44.757  38.419   2.261
74353W        W46701  18.771  37.477  11.010
74354W        W46702  15.152  26.694   2.313
74355W        W46703  11.864   4.213  12.982
74356W        W46704  13.632   9.221   2.751
74357W        W46705   6.914   7.886  11.441
74358W        W46706   8.178   7.179  11.611
74359W        W46707   8.323  22.661   4.807
74360W        W46708  39.343  40.430  13.321
74361W        W46709   7.772  28.476  11.510
74362W        W46710  40.029  35.386   2.725
74363W        W46711  35.576  22.017   4.316
74364W        W46712  24.226  15.820  12.488
74365W        W46713   3.901  11.360  12.861
74366W        W46714  23.613   0.796   3.767
74367W        W46715  18.777  44.453   4.179
74368W        W46716  38.992  12.292   1.922
74369W        W46717   0.961  25.534   1.381
74370W        W46718   1.847   7.815   3.288
74371W        W46719  17.122  42.374  14.336
74372W        W46720  16.733  11.322  14.007
74373W        W46721  16.805  19.618   3.376
74374W        W46722   4.807  44.914   2.824
74375W        W46723   0.976   5.367  14.893
74376W        W46724  12.615  32.612   1.435
74377W        W46725   8.386  10.275   4.317
74378W        W46726  32.916  24.715   0.838
74379W        W46727  44.440  43.867  10.440
74380W        W46728  34.868  40.898   1.270
74381W        W46729  15.324  12.212   3.204
74382W        W46730   0.375  25.150  11.503
74383W        W46731  26.102  33.979  11.551
74384W        W46732  12.296  20.269  13.058
74385W        W46733  12.354   4.395   9.945
74386W        W46734  26.459  15.587  14.877
74387W        W46735  16.578  14.291  12.483
74388W        W46736  28.443  32.028   9.945
74389W        W46737  14.321  35.901   3.155
74390W        W46738  25.216  42.490  12.341
74391W        W46739  33.554  38.510  14.501
74392W        W46740  35.993  19.171  12.455
74393W        W46741  20.716  25.972  12.525
74394W        W46742  34.888  41.850   3.834
74395W        W46743  15.631  10.322  14.335
74396W        W46744  30.536  16.633  11.016
74397W        W46745  17.193  34.496   4.673
74398W        W46746  39.493  19.143  11.568
74399W        W46747  16.606   2.382  12.977
74400W        W46748  30.961  10.720  14.464
74401W        W46749  36.888   0.754  10.550
74402W        W46750  22.080  26.520  12.886
74403W        W46751  44.273  40.487   3.858
74404W        W46752  24.625   4.882   0.807
74405W        W46753  18.655  39.465  11.547
74406W        W46754  44.289  26.069   3.279
74407W        W46755  24.499  17.594   3.639
74408W        W46756  43.788  28.640   1.749
74409W        W46757  36.852  28.635  14.890
74410W        W46758  26.028  34.871   3.761
74411W        W46759  28.550  32.598  11.441
74412W        W46760  43.398  41.039  13.004
74413W        W46761  29.055  34.459  10.557
74414W        W46762  41.331  43.370  11.883
74415W        W46763   2.723  27.649   0.835
74416W        W46764  38.831  22.227  11.428
74417W        W46765  21.630  34.994   1.905
74418W        W46766  20.176   0.809   3.781
74419W        W46767   5.380  38.421   0.819
74420W        W46768   0.971   1.872  11.952
74421W        W46769  18.158  20.604  14.429
74422W        W46770  36.574  12.760  11.585
74423W        W46771  33.396  23.074  11.407
74424W        W46772  15.273  12.165   0.891
74425W        W46773  29.984   2.326   3.176
74426W        W46774  21.071  35.567   3.270
74427W        W46775   5.288  29.540   9.956
74428W        W46776  28.974  25.979  14.375
74429W        W46777   9.255   6.314   0.453
74430W        W46778  17.637   5.385   1.450
74431W        W46779  31.508  41.426   1.910
74432W        W46780  12.635  12.133   4.157
74433W        W46781   6.837  19.084  10.517
74434W        W46782  10.224  36.050  14.879
74435W        W46783  38.034   3.880   4.279
74436W        W46784  14.192  18.622  11.978
74437W        W46785  34.932  13.106  14.897
74438W        W46786  12.725  36.567  12.563
74439W        W46787   6.859   5.359   1.852
74440W        W46788  25.029  26.146  12.456
74441W        W46789  27.683  41.337   4.347
74442W        W46790  35.011  30.544  10.527
74443W        W46791  37.556  11.819  10.960
74444W        W46792  10.642  18.134   1.239
74445W        W46793  14.245  44.809  14.472
74446W        W46794  20.615  23.069  11.958
74447W        W46795  40.875  41.407  14.352
74448W        W46796  12.312  34.558   1.926
74449W        W46797  33.524  33.428  10.104
74450W        W46798  42.433   6.701   4.287
74451W        W46799  10.793  19.175   3.859
74452W        W46800  11.270  26.099  14.343
74453W        W46801  34.111  20.706  11.557
74454W        W46802  34.950  27.159  10.464
74455W        W46803  39.340  19.612   1.317
74456W        W46804  22.657  42.855  13.322
74457W        W46805   0.954  41.363  12.888
74458W        W46806  30.652  21.026  13.458
74459W        W46807  25.102  27.471   1.215
74460W        W46808   2.444  32.093  10.421
74461W        W46809  44.468  44.417   3.184
74462W        W46810  36.972  20.238   5.620
74463W        W46811  19.645   9.815   0.845
74464W        W46812  12.681  36.092   4.142
74465W        W46813  43.810   3.783   3.797
74466W        W46814  32.983   2.753  12.428
74467W        W46815  27.172   7.395  14.762
74468W        W46816   0.398  38.567   0.424
74469W        W46817  29.640  44.489  13.347
74470W        W46818  25.655   7.822  10.136
74471W        W46819  26.056  24.549   1.340
74472W        W46820  31.424  27.135   4.672
74473W        W46821  19.164  37.563   2.214
74474W        W46822  25.165  40.804  14.458
74475W        W46823  17.654  22.009  13.925
74476W        W46824  31.438   0.463  13.938
74477W        W46825  27.192  44.883   1.300
74478W        W46826  26.172  18.738   1.795
74479W        W46827  16.310  19.261   4.302
74480W        W46828  10.819  15.138  14.353
74481W        W46829  20.199   5.917  12.877
74482W        W46830  41.401   5.335  12.961
74483W        W46831  17.647  40.922  14.016
74484W        W46832  43.765   2.811  14.409
74485W        W46833  44.378   3.389  14.395
74486W        W46834  26.492  12.698  10.004
74487W        W46835  24.014  37.572   0.799
74488W        W46836  38.902   5.261   2.868
74489W        W46837  31.496   1.440  14.387
74490W        W46838  15.202  16.657   2.761
74491W        W46839  40.520  38.403  11.489
74492W        W46840  42.817   1.354   2.719
74493W        W46841  12.314   3.216  12.361
74494W        W46842  32.586  29.654  12.851
74495W        W46843  41.921  18.640  10.442
74496W        W46844   8.866  40.005   2.762
74497W        W46845   2.233  34.976  14.015
74498W        W46846  11.725   0.274  13.323
74499W        W46847  27.024  33.469   0.262
74500W        W46848  28.128  11.296   4.727
74501W        W46849  36.478  43.960   4.692
74502W        W46850   7.729  23.550   2.874
74503W        W46851  15.740  41.953  10.429
74504W        W46852  10.870  34.457  12.450
74505W        W46853  24.612  15.283   0.878
74506W        W46854  31.503  17.147   0.779
74507W        W46855   5.741  14.239   4.722
74508W        W46856  43.958  14.631   2.679
74509W        W46857  38.565  40.927   0.853
74510W        W46858  17.614   8.355   4.806
74511W        W46859  17.254  27.580  14.901
74512W        W46860  32.922  36.944  11.863
74513W        W46861  28.477  23.240   4.172
74514W        W46862  20.070   7.871   0.268
74515W        W46863  34.093  33.604   4.332
74516W        W46864  31.135  34.968  12.537
74517W        W46865  30.133  41.819  11.525
74518W        W46866  44.375  38.456   1.390
74519W        W46867  23.202   7.795  10.626
74520W        W46868  20.605  10.279  14.420
74521W        W46869  20.196  15.305  12.930
74522W        W46870  29.568  24.576  14.974
74523W        W46871  40.832  44.464   0.867
74524W        W46872  29.627  17.242  12.565
74525W        W46873  42.299  10.233   1.261
74526W        W46874  19.635   4.394   2.356
74527W        W46875  39.508  28.534   4.786
74528W        W46876  43.985   8.658   1.260
74529W        W46877  21.526  10.270   0.300
74530W        W46878  10.259   0.806   3.743
74531W        W46879  38.950  12.303  11.455
74532W        W46880  44.373   8.212   3.246
74533W        W46881  33.594  24.110  11.486
74534W        W46882  25.602  13.744   4.657
74535W        W46883  18.592  40.039  13.030
74536W        W46884   0.436  17.174   3.282
74537W        W46885  17.189  30.984  13.025
74538W        W46886  37.997  26.675  11.374
74539W        W46887  36.864  40.980  14.990
74540W        W46888   6.231   0.325  10.504
74541W        W46889  12.212  29.025   2.694
74542W        W46890  21.618  30.457   0.297
74543W        W46891  11.332  34.546  11.117
74544W        W46892  42.889  36.868   1.419
74545W        W46893  26.641  36.528   4.731
74546W        W46894  20.739  22.513   1.268
74547W        W46895   4.799   2.407   2.223
74548W        W46896   9.246  34.601   2.274
74549W        W46897  26.989  19.773   3.706
74550W        W46898  13.343  23.992  13.445
74551W        W46899  18.750  20.527   3.747
74552W        W46900   4.877  39.497  10.589
74553W        W46901  13.287  37.890   0.306
74554W        W46902  27.967  43.354   4.172
74555W        W46903   5.211  43.437  14.968
74556W        W46904  12.242  12.216   4.181
74557W        W46905  20.158  22.567  13.896
74558W        W46906   9.173  13.219   3.214
74559W        W46907   7.884  29.919  11.514
74560W        W46908  15.725  31.963  10.891
74561W        W46909  22.138  37.386   3.237
74562W        W46910  19.095  35.501  12.538
74563W        W46911  28.671   2.932  12.484
74564W        W46912   3.432  35.878   4.703
74565W        W46913  25.482  32.568  12.999
74566W        W46914  23.613  10.363   1.805
74567W        W46915  21.043  35.563   2.756
74568W        W46916  42.853  15.730   1.331
74569W        W46917  26.662  21.260   5.125
74570W        W46918  39.511  42.965  13.957
74571W        W46919  30.134   7.184   1.212
74572W        W46920  30.929  12.818   3.341
74573W        W46921  25.532   1.863  13.367
74574W        W46922  36.506  18.568   0.769
74575W        W46923   3.826   8.884   2.407
74576W        W46924  40.882  23.995  12.907
74577W        W46925   9.304  27.061  10.535
74578W        W46926   9.305  22.194   1.221
74579W        W46927  10.701  19.767   0.335
74580W        W46928  15.239  36.912   0.751
74581W        W46929   7.299  12.810   4.688
74582W        W46930  23.002   7.771  12.003
74583W        W46931  26.573  18.769  10.565
74584W        W46932  16.771  15.256  14.893
74585W        W46933  12.349  15.315   3.701
74586W        W46934  35.521   3.761  12.403
74587W        W46935  16.158  26.611   4.664
74588W        W46936   8.711  25.185   4.244
74589W        W46937  41.895  30.031  10.462
74590W        W46938  28.007  19.272   3.218
74591W        W46939  43.471  22.159   3.186
74592W        W46940  23.499  10.812  13.004
74593W        W46941  27.504   7.357   3.251
74594W        W46942   9.302  20.705   0.815
74595W        W46943  36.092  29.960  11.974
74596W        W46944  33.571   6.303  10.618
74597W        W46945  21.203  23.193  10.962
74598W        W46946  36.922  20.695   2.709
74599W        W46947  41.928   4.286   1.331
74600W        W46948  35.875  34.047  12.539
74601W        W46949  38.384  40.373  14.993
74602W        W46950  17.176  16.089  13.792
74603W        W46951   8.268  29.933   1.252
74604W        W46952  31.074  40.359  11.098
74605W        W46953  42.871  16.589  11.900
74606W        W46954  32.991   4.845  13.061
74607W        W46955  12.782  10.381   0.283
74608W        W46956  12.651  14.685  12.036
74609W        W46957  34.039  25.034  13.810
74610W        W46958   4.265  28.515  14.799
74611W        W46959  19.098  34.465  12.442
74612W        W46960  40.894   7.752   4.634
74613W        W46961  15.178  37.019  11.436
74614W        W46962  19.108   7.705   1.241
74615W        W46963  28.517  19.565   2.230
74616W        W46964  44.270  38.063  12.576
74617W        W46965   5.893  35.487   2.378
74618W        W46966   6.361  43.460  13.842
74619W        W46967   3.407  16.733   2.318
74620W        W46968   6.385  29.129   0.256
74621W        W46969  12.826  28.634   3.184
74622W        W46970  30.143  20.271   2.227
74623W        W46971  44.941   5.791  13.417
74624W        W46972  44.408  11.338   2.305
74625W        W46973   3.799   0.755  12.913
74626W        W46974  24.227  22.622  14.274
74627W        W46975  40.053  31.469  13.854
74628W        W46976   8.305  27.636   1.365
74629W        W46977  26.998  12.819  11.001
74630W        W46978  19.154  17.201   1.737
74631W        W46979  16.178  32.084  13.444
74632W        W46980   4.814  42.877   2.801
74633W        W46981  33.074   0.969   0.365
74634W        W46982  18.099  27.524   2.795
74635W        W46983  23.622  17.610  10.923
74636W        W46984  21.662  28.502  11.869
74637W        W46985   6.871  32.945  10.569
74638W        W46986  28.601   6.396  13.002
74639W        W46987   0.895   9.645  13.352
74640W        W46988  30.928  28.561  12.961
74641W        W46989  35.939  11.329   4.717
74642W        W46990   2.944   8.402  11.943
74643W        W46991  10.767  12.796   3.780
74644W        W46992   6.869   7.695   0.299
74645W        W46993   0.841  20.227  10.542
74646W        W46994  31.995  42.995   1.257
74647W        W46995  19.708  29.582  12.994
74648W        W46996  22.096  39.422  13.947
74649W        W46997  33.457  15.597   4.667
74650W        W46998  19.190  38.943   0.779
74651W        W46999  22.652  39.051   5.300
74652W        W47000   6.835  19.653   2.180
74653W        W47001  15.693  31.049   4.201
74654W        W47002   7.858  33.536   5.725
74655W        W47003  38.932   8.845  14.857
74656W        W47004   7.892  31.910   5.250
74657W        W47005  20.765  41.894   4.263
74658W        W47006   2.935  10.157   3.785
74659W        W47007  25.147  16.083  14.942
74660W        W47008   5.398   3.399  14.920
74661W        W47009  11.267  38.895   4.659
74662W        W47010  29.930  36.349   1.852
74663W        W47011   5.410  18.776   2.703
74664W        W47012   9.175  37.013   2.744
74665W        W47013  34.384  25.594   3.339
74666W        W47014   0.797  39.327   2.763
74667W        W47015   6.906  17.214  14.760
74668W        W47016  27.461  23.040   4.657
74669W        W47017  36.849  35.415   1.403
74670W        W47018  34.913  28.043   4.742
74671W        W47019  20.072   6.886   2.231
74672W        W47020  38.402  14.703  11.480
74673W        W47021  43.022  26.116   1.357
74674W        W47022  12.659  23.561   2.874
74675W        W47023   3.953  17.677  13.464
74676W        W47024  40.364  44.771   0.967
74677W        W47025  43.479  19.695   2.770
74678W        W47026  22.234   0.957  12.348
74679W        W47027  32.900   0.814  12.869
74680W        W47028  19.719  30.510  12.340
74681W        W47029  23.071  37.838  10.429
74682W        W47030   3.938  18.052   2.885
74683W        W47031  18.077   5.417   2.382
74684W        W47032  31.904  30.958   4.733
74685W        W47033   1.365  19.575  12.091
74686W        W47034  26.031  21.231   3.671
74687W        W47035   1.288   0.344  14.031
74688W        W47036  40.474  37.870   0.243
74689W        W47037   6.303  36.576  13.938
74690W        W47038   2.306  24.114  11.947
74691W        W47039  16.729   3.377   1.301
74692W        W47040  23.601   2.952  14.762
74693W        W47041  18.744  29.479  11.125
74694W        W47042   7.721  27.133   0.453
74695W        W47043  17.081  36.910   2.233
74696W        W47044  21.705   6.856   4.758
74697W        W47045  36.380  12.789  13.404
74698W        W47046  28.566   7.887   3.202
74699W        W47047  16.662  38.336  10.572
74700W        W47048   7.417  41.467   0.374
74701W        W47049  34.114  25.964   3.769
74702W        W47050   2.834   1.949   4.291
74703W        W47051  37.486  12.704   3.146
74704W        W47052   1.903  40.481  14.981
74705W        W47053   7.351  27.140   2.753
74706W        W47054  31.448   8.353   5.718
74707W        W47055   7.385  29.487   0.257
74708W        W47056  38.957  20.522   2.294
74709W        W47057   2.744  27.193   2.406
74710W        W47058  22.220  31.032   4.598
74711W        W47059   5.279  21.124  12.918
74712W        W47060  27.609  10.733  14.409
74713W        W47061  29.644  33.949  14.474
74714W        W47062  28.465  26.035   0.856
74715W        W47063   9.306  32.573   2.670
74716W        W47064  15.669  23.193   4.177
74717W        W47065  27.608  12.270   4.701
74718W        W47066  43.281  23.172  10.605
74719W        W47067  22.574  32.501   1.915
74720W        W47068   5.308  11.289   0.947
74721W        W47069   2.798  37.064  10.920
74722W        W47070   1.792  37.478   3.323
74723W        W47071  34.512   9.781   2.186
74724W        W47072   8.685  38.550  12.404
74725W        W47073   4.332   4.853   2.746
74726W        W47074  34.388  29.584  14.869
74727W        W47075  33.930   0.967   2.323
74728W        W47076  14.148  28.601  14.280
74729W        W47077  23.063  37.879   2.364
74730W        W47078  43.863  23.663  13.434
74731W        W47079  16.082  11.228  14.821
74732W        W47080  14.813  11.339   4.770
74733W        W47081  31.592  26.536   2.783
74734W        W47082  43.836   1.819   0.409
74735W        W47083  44.900  35.471  14.825
74736W        W47084   5.285   4.360  11.011
74737W        W47085  11.785  38.038   4.353
74738W        W47086  29.072  21.743  14.312
74739W        W47087  43.789  14.310  14.983
74740W        W47088   1.856  44.935   0.824
74741W        W47089   1.468  35.503  13.332
74742W        W47090  41.808  40.458   2.302
74743W        W47091  21.105   1.433  11.458
74744W        W47092   9.828  11.262   4.340
74745W        W47093  38.011  17.776  13.042
74746W        W47094  43.345  44.814   3.859
74747W        W47095  16.167  41.377   1.410
74748W        W47096  24.664  35.418   2.195
74749W        W47097  19.734  14.106   3.813
74750W        W47098  34.063  29.558  11.088
74751W        W47099  26.991  42.338   1.291
74752W        W47100  38.463  42.002   0.468
74753W        W47101  33.588  23.219   2.211
74754W        W47102  34.504  38.445  13.024
74755W        W47103  20.158   6.229   0.931
74756W        W47104   3.427  32.576   3.161
74757W        W47105  32.012  27.630   4.260
74758W        W47106  12.274  42.298   3.363
74759W        W47107  26.480   5.696  14.893
74760W        W47108   0.836  41.806   2.710
74761W        W47109  21.545  39.884  14.391
74762W        W47110  15.769   6.294  14.807
74763W        W47111  23.048  24.541  11.041
74764W        W47112  27.561  13.725   1.436
74765W        W47113  20.228  26.587   4.722
74766W        W47114  22.545  43.439   0.897
74767W        W47115  37.850   1.931   1.218
74768W        W47116   0.409  13.264   3.200
74769W        W47117  41.933   9.194   0.753
74770W        W47118  39.899  35.048  11.500
74771W        W47119   7.666   4.218  13.919
74772W        W47120  39.374  27.464  11.877
74773W        W47121  37.867  37.972  10.622
74774W        W47122  16.255  11.799   2.344
74775W        W47123  29.100  39.429  12.893
74776W        W47124  33.986   9.197  14.394
74777W        W47125  26.484  42.953  13.385
74778W        W47126   6.749  44.337   0.264
74779W        W47127  30.001   2.230  13.958
74780W        W47128  39.915  20.048   3.324
74781W        W47129  10.373  40.528   1.424
74782W        W47130  17.252   3.317   0.882
74783W        W47131  32.110  26.069   2.699
74784W        W47132  19.251  24.629  11.946
74785W        W47133  36.032  38.430   1.857
74786W        W47134  26.975  26.097   3.155
74787W        W47135  26.613  33.100  11.588
74788W        W47136  31.553  40.817   2.370
74789W        W47137  34.909  33.403  11.028
74790W        W47138  27.495  29.168   4.303
74791W        W47139  24.223   3.739   0.310
74792W        W47140  24.497   1.400   2.360
74793W        W47141   1.405  17.076  12.342
74794W        W47142  14.627   6.698  11.942
74795W        W47143   0.401  11.779   2.803
74796W        W47144  31.528  12.174  13.828
74797W        W47145  30.078  39.028  14.030
74798W        W47146  20.690   9.745  14.986
74799W        W47147   4.394  33.558   3.697
74800W        W47148  36.869   7.748  11.966
74801W        W47149  19.209  10.172  14.010
74802W        W47150   8.879  38.936  13.439
74803W        W47151  34.985  40.351  11.083
74804W        W47152  25.607  41.029   0.427
74805W        W47153  27.139  28.565  10.918
74806W        W47154  10.769  30.136  12.002
74807W        W47155  32.492  38.002  13.938
74808W        W47156  10.840  44.841  10.426
74809W        W47157  24.491  12.322   4.348
74810W        W47158  37.878  17.576   4.325
74811W        W47159   5.400  28.530   0.447
74812W        W47160  18.692   5.203   4.653
74813W        W47161  41.521  44.767   4.329
74814W        W47162   9.282  24.641  12.062
74815W        W47163   2.361  34.938   2.826
74816W        W47164  32.931  23.626  14.356
74817W        W47165  21.237   0.445   0.886
74818W        W47166  30.133  44.874   2.264
74819W        W47167  28.945  36.005   2.354
74820W        W47168  37.527  19.155  13.527
74821W        W47169  10.363  37.453   1.914
74822W        W47170  26.655  26.643   0.848
74823W        W47171  26.626  24.666   3.365
74824W        W47172   4.742  41.995  14.952
74825W        W47173  22.214   3.760  12.428
74826W        W47174  38.503   4.380  12.363
74827W        W47175   8.167  10.261  10.487
74828W        W47176  41.300  21.746  12.464
74829W        W47177   0.804  22.660   5.200
74830W        W47178  12.777   2.425   1.877
74831W        W47179  28.170  42.894   0.360
74832W        W47180  22.596  43.294   2.328
74833W        W47181  12.163  37.575  10.548
74834W        W47182  29.476  30.054   1.435
74835W        W47183  20.622  27.468  13.034
74836W        W47184  22.716  26.009  14.352
74837W        W47185  41.798   7.892   0.791
74838W        W47186  22.118   9.794   5.632
74839W        W47187   7.676  36.986   2.402
74840W        W47188  41.347  16.189  12.892
74841W        W47189  20.734  12.123  12.344
74842W        W47190   4.914  44.431   4.160
74843W        W47191   4.937   7.671  13.031
74844W        W47192   5.255  44.406  12.455
74845W        W47193  15.651  13.115  13.439
74846W        W47194   4.890  17.775   2.693
74847W        W47195  15.131  44.381  13.391
74848W        W47196   9.390   5.226  10.420
74849W        W47197  13.794   0.871  12.983
74850W        W47198  13.160  26.643   9.997
74851W        W47199  17.789  19.128   1.789
74852W        W47200  44.363   4.841  14.020
74853W        W47201  40.860  12.761   0.309
74854W        W47202  20.581   5.405  13.925
74855W        W47203  21.665  15.716  14.335
74856W        W47204  25.571  33.092   1.315
74857W        W47205  16.568  25.097  11.966
74858W        W47206   5.723   9.740  12.579
74859W        W47207   3.346  26.485  13.018
74860W        W47208  43.343  26.540   1.429
74861W        W47209  33.430   5.242  14.305
74862W        W47210  22.242  23.114  13.902
74863W        W47211  23.577  29.428   2.300
74864W        W47212  41.915  38.493   2.799
74865W        W47213  21.671  14.683  11.014
74866W        W47214  17.297  12.762   0.273
74867W        W47215   9.304   8.729   5.293
74868W        W47216  22.639  22.092  11.384
74869W        W47217  26.678  25.038   2.702
74870W        W47218  14.303  11.685  12.080
74871W        W47219  39.894  15.155  13.042
74872W        W47220   0.405  32.429  13.835
74873W        W47221  30.109  35.599   0.477
74874W        W47222  20.033  17.216   4.273
74875W        W47223  14.280  14.789  14.276
74876W        W47224  22.159  14.812  14.450
74877W        W47225  14.215  27.123  13.505
74878W        W47226  30.597  43.018   0.748
74879W        W47227   7.781  43.825   1.351
74880W        W47228  29.062   1.864   1.290
74881W        W47229  28.155  19.202   2.291
74882W        W47230  28.062  15.182   1.806
74883W        W47231  39.395  31.955  11.978
74884W        W47232  26.090  42.852   2.756
74885W        W47233   8.679  15.289  11.915
74886W        W47234  13.707  26.972   2.339
74887W        W47235  21.612  31.005   1.240
74888W        W47236  41.972   2.918  14.980
74889W        W47237  35.406  40.819  13.383
74890W        W47238   9.267  19.087   5.202
74891W        W47239  39.402  40.938  11.482
74892W        W47240  15.219   3.873   1.748
74893W        W47241  28.955  40.019   1.930
74894W        W47242  27.154  32.537   1.845
74895W        W47243   5.252  13.202   1.451
74896W        W47244  23.201  19.582   3.800
74897W        W47245  28.577  23.722   0.759
74898W        W47246  34.988  33.430   1.373
74899W        W47247  42.015  29.504  14.904
74900W        W47248  18.762  10.650   4.629
74901W        W47249  23.510  25.502  14.842
74902W        W47250   7.743  35.440  13.878
74903W        W47251  22.552  20.730  11.450
74904W        W47252  10.359  24.096  14.316
74905W        W47253  37.997  14.122   0.871
74906W        W47254  36.383  10.793   0.444
74907W        W47255   5.774  44.872  12.526
74908W        W47256  22.083  13.695   4.213
74909W        W47257  37.923   2.747   4.772
74910W        W47258  16.745  38.020  12.484
74911W        W47259   3.761  27.958  14.989
74912W        W47260   0.772  20.547   0.838
74913W        W47261  42.840  24.625  10.895
74914W        W47262  43.297   0.360  12.444
74915W        W47263  24.130   4.381  10.891
74916W        W47264  41.408   7.339  13.472
74917W        W47265  39.044  38.015  11.549
74918W        W47266   0.356  33.540   0.257
74919W        W47267  29.059  37.459  14.775
74920W        W47268  32.078  42.977  14.348
74921W        W47269  42.861  39.405  10.458
74922W        W47270   1.332  37.944  13.532
74923W        W47271   6.704  36.080   0.869
74924W        W47272   6.895  34.102  12.035
74925W        W47273  13.136  36.449  11.030
74926W        W47274  36.093   2.360  12.876
74927W        W47275  28.092  13.161   2.842
74928W        W47276  29.580   4.718   4.210
74929W        W47277  25.136  40.950   4.202
74930W        W47278  26.493  13.118   2.274
74931W        W47279  10.847  17.679  13.839
74932W        W47280   8.663  16.633  13.883
74933W        W47281   7.261  28.443   0.849
74934W        W47282  14.793  23.075  10.561
74935W        W47283  16.658   1.415   4.250
74936W        W47284  31.422   1.751   0.349
74937W        W47285  33.429  27.037   3.170
74938W        W47286  33.594   1.464  13.006
74939W        W47287   9.149  15.212   4.314
74940W        W47288  17.085  34.570   0.405
74941W        W47289  31.593   0.251  14.438
74942W        W47290  25.028  23.560   4.279
74943W        W47291  33.060  10.149  14.915
74944W        W47292   9.300  43.833   2.232
74945W        W47293  19.166  37.062  13.447
74946W        W47294  40.025  33.408  13.334
74947W        W47295  33.908  34.512   1.302
74948W        W47296  36.411  19.195   1.211
74949W        W47297  23.105  40.960   3.168
74950W        W47298   2.778  25.076   0.921
74951W        W47299  22.587   5.830  14.762
74952W        W47300  23.539   7.284   2.373
74953W        W47301   3.458  35.976  14.278
74954W        W47302   7.252  30.531   2.699
74955W        W47303  23.584  38.446  11.378
74956W        W47304  15.784  43.944  10.896
74957W        W47305  27.642   6.871   3.238
74958W        W47306  35.102  12.317   0.275
74959W        W47307  30.640  25.710  14.353
74960W        W47308  13.823   4.944  11.055
74961W        W47309   8.338  32.019  12.518
74962W        W47310  14.612  26.014   4.339
74963W        W47311  30.521  39.995  13.802
74964W        W47312  12.724  15.176  14.962
74965W        W47313  16.748  42.439  12.365
74966W        W47314  11.145  29.631   4.723
74967W        W47315  36.586   3.788   3.375
74968W        W47316  42.442  39.414   4.204
74969W        W47317  21.709  21.523   4.808
74970W        W47318  22.582   0.954  10.439
74971W        W47319  31.616  15.183  10.552
74972W        W47320  19.659  41.420  11.542
74973W        W47321  41.984  33.412  14.906
74974W        W47322   2.387  23.564   4.812
74975W        W47323  20.653  43.417  11.018
74976W        W47324  39.941  27.052   2.863
74977W        W47325   9.845  23.164   3.746
74978W        W47326   1.310   5.907   2.199
74979W        W47327  11.262  30.440   3.219
74980W        W47328  28.496  36.402  11.949
74981W        W47329  34.470  44.843  11.898
74982W        W47330  38.048  37.556   1.727
74983W        W47331   4.229   3.745  12.453
74984W        W47332   2.878  44.785  11.379
74985W        W47333  26.556  22.181  11.958
74986W        W47334  31.425  32.026  13.544
74987W        W47335   0.935  38.952  14.300
74988W        W47336  39.442  24.212   1.418
74989W        W47337  15.761  21.133   1.884
74990W        W47338  15.151  23.053  12.484
74991W        W47339  11.714   8.890   3.867
74992W        W47340  33.116  14.797  11.969
74993W        W47341   6.734  38.967   4.817
74994W        W47342  35.404  32.968   0.806
74995W        W47343  42.993  13.197  13.995
74996W        W47344   9.715  21.522   0.922
74997W        W47345  26.691  28.473   2.903
74998W        W47346  37.922  33.113   4.243
74999W        W47347  43.784  19.552  10.497
75000W        W47348   9.382   2.233   0.311
75001W        W47349   3.312  15.288   2.885
75002W        W47350   1.242  28.033   3.248
75003W        W47351  16.131  16.233   0.785
75004W        W47352  30.452  40.442   4.783
75005W        W47353  14.771   6.263  11.114
75006W        W47354  44.327  37.406  10.156
75007W        W47355  39.436  40.372   0.891
75008W        W47356  29.147  30.480   3.641
75009W        W47357  11.856  31.922   1.418
75010W        W47358   0.353   7.877  10.980
75011W        W47359  14.762   9.833  13.483
75012W        W47360   7.250  10.636  11.546
75013W        W47361  28.070  34.947   0.837
75014W        W47362   1.787  17.584  10.427
75015W        W47363  22.164  39.346  14.973
75016W        W47364   7.673  26.513   3.833
75017W        W47365  25.674  18.789   1.778
75018W        W47366  35.372   1.887  14.858
75019W        W47367   1.769   5.933  14.454
75020W        W47368  25.633  15.707  12.506
75021W        W47369  11.623   7.779   2.281
75022W        W47370   0.752   5.750   1.896
75023W        W47371  33.037  18.068  12.552
75024W        W47372  19.167  14.128   3.244
75025W        W47373  14.283  28.676  12.381
75026W        W47374  11.699  27.974  11.459
75027W        W47375  27.501   4.821  11.994
75028W        W47376   5.716  12.612   2.277
75029W        W47377  43.289  31.406  11.979
75030W        W47378  26.498  19.085   0.476
75031W        W47379  17.641  14.333  11.535
75032W        W47380  35.053  35.589  12.380
75033W        W47381  37.419  21.601  11.507
75034W        W47382  21.593   3.316  13.434
75035W        W47383   3.215  19.284  13.483
75036W        W47384  37.858  20.568   3.674
75037W        W47385  27.464  22.617  13.019
75038W        W47386  27.603  27.194   4.662
75039W        W47387  12.357   2.439   0.785
75040W        W47388  31.077   7.752  11.566
75041W        W47389   4.363   0.753  14.790
75042W        W47390   1.303  23.997  11.021
75043W        W47391  40.355  28.065   4.214
75044W        W47392  12.697   6.408   2.195
75045W        W47393  22.572  38.535  13.365
75046W        W47394  26.033  27.085  11.430
75047W        W47395  35.433   8.701   3.724
75048W        W47396  35.506  44.981   0.727
75049W        W47397   7.667  15.248   0.245
75050W        W47398  44.996  34.558   2.188
75051W        W47399   9.250   7.348   1.770
75052W        W47400  35.107  15.657  14.923
75053W        W47401  13.341  38.561  12.535
75054W        W47402  22.212  38.895  14.353
75055W        W47403  19.758  42.032   1.332
75056W        W47404  31.929  36.413  13.027
75057W        W47405  26.084  23.636   4.679
75058W        W47406  31.979  23.629  12.877
75059W        W47407   4.807  17.219   4.309
75060W        W47408  10.139  44.385  14.511
75061W        W47409  33.529  14.134  10.437
75062W        W47410  17.571   6.773   3.269
75063W        W47411  11.258   6.720   4.308
75064W        W47412  20.083  30.929  10.421
75065W        W47413  19.575  13.713   1.798
75066W        W47414  26.584  38.410   2.748
75067W        W47415  30.032  10.239   2.757
75068W        W47416  22.615  22.092   4.332
75069W        W47417  17.773  35.504   3.801
75070W        W47418  36.095  44.961   1.701
75071W        W47419  36.391  42.934  12.388
75072W        W47420  38.055   1.788  11.081
75073W        W47421  30.585  26.555   4.203
75074W        W47422  15.648  24.638   0.390
75075W        W47423  42.465   0.417   3.659
75076W        W47424  21.639  22.204  11.428
75077W        W47425  39.865  40.036   1.387
75078W        W47426  32.447   0.966  13.348
75079W        W47427  26.512  41.915   2.372
75080W        W47428  24.555  25.189   4.239
75081W        W47429  17.171   5.694  12.037
75082W        W47430   5.902   5.761   3.730
75083W        W47431  33.512  11.372  11.563
75084W        W47432  37.063  36.545  13.521
75085W        W47433   1.298   3.395   4.647
75086W        W47434  20.744  31.994  10.143
75087W        W47435   7.268   3.779   3.339
75088W        W47436  26.667  38.934   0.369
75089W        W47437  13.708   4.783   0.479
75090W        W47438  26.549  25.141   1.351
75091W        W47439   6.307  20.760  12.925
75092W        W47440   3.324  39.361   1.339
75093W        W47441  12.619  21.714  13.802
75094W        W47442   7.265   6.203   0.477
75095W        W47443  41.387   2.854  11.074
75096W        W47444  24.641  31.478  12.861
75097W        W47445  24.013  19.160   3.230
75098W        W47446  19.736  19.137  12.341
75099W        W47447  29.003  16.199  14.352
75100W        W47448   4.809  34.607   2.742
75101W        W47449  14.697   3.307   0.803
75102W        W47450   5.693  37.016  12.865
75103W        W47451   4.250  35.854   1.438
75104W        W47452   4.381  44.906  12.887
75105W        W47453  11.752  33.910   2.238
75106W        W47454  23.014  24.201  12.845
75107W        W47455  42.325  37.393   1.888
75108W        W47456  34.602  44.878  12.910
75109W        W47457  22.086  31.484   3.151
75110W        W47458   5.819  19.118   0.375
75111W        W47459   6.733  11.268   3.267
75112W        W47460   4.747  29.003  14.773
75113W        W47461   3.427  31.448  14.510
75114W        W47462  43.361  26.600   4.230
75115W        W47463  39.514  25.663  12.854
75116W        W47464  22.087  19.699   2.383
75117W        W47465  26.006  32.099   3.171
75118W        W47466  31.406  14.761  11.098
75119W        W47467  18.130  42.973   2.845
75120W        W47468  28.038   8.786   2.685
75121W        W47469  44.277  17.115  11.010
75122W        W47470  29.974  28.081   1.865
75123W        W47471   5.306   1.950   0.799
75124W        W47472  31.005  30.453  12.515
75125W        W47473  42.324  43.842   2.308
75126W        W47474  19.143   7.667   2.853
75127W        W47475  38.393  19.259   4.325
75128W        W47476  14.116  42.949   0.932
75129W        W47477  40.472  15.729   2.770
75130W        W47478   0.285  28.492  10.557
75131W        W47479  15.306  26.487   5.225
75132W        W47480   2.958  15.757   5.196
75133W        W47481  29.639  28.649   2.732
75134W        W47482  17.781   3.364   2.800
75135W        W47483   8.801  15.255  11.070
75136W        W47484   4.295  16.319  10.975
75137W        W47485  33.929  35.521  13.843
75138W        W47486  29.050  36.973  13.056
75139W        W47487  34.492  10.677  13.912
75140W        W47488  10.338  21.599   1.782
75141W        W47489  19.154   8.306   2.800
75142W        W47490   0.379  14.816  12.936
75143W        W47491  16.084  40.402   1.910
75144W        W47492   6.742  32.438   4.772
75145W        W47493  39.859  41.869   2.313
75146W        W47494  13.671  13.255  10.020
75147W        W47495  42.976  16.689  13.309
75148W        W47496   0.437   0.478   2.681
75149W        W47497  44.927  41.295  13.419
75150W        W47498   2.720  18.591   2.834
75151W        W47499  19.617  17.737   4.719
75152W        W47500  39.470  25.704   1.775
75153W        W47501  42.894  29.127   2.359
75154W        W47502  11.296   0.886   0.796
75155W        W47503   5.886   2.455  10.991
75156W        W47504  30.067  41.009   3.171
75157W        W47505  42.281   4.714  12.387
75158W        W47506  22.725   4.870  13.791
75159W        W47507  21.191  32.052  13.344
75160W        W47508  31.039  17.211   4.334
75161W        W47509  16.194  13.179  10.038
75162W        W47510  22.686  28.561   3.343
75163W        W47511  12.226  42.847  10.630
75164W        W47512  36.539  28.004   4.298
75165W        W47513   3.859  44.820   1.917
75166W        W47514  44.927  16.762   3.686
75167W        W47515  24.140  16.623  10.136
75168W        W47516  21.564  23.151  11.460
75169W        W47517  30.054  34.386   1.393
75170W        W47518  39.814  44.800   2.282
75171W        W47519  29.058  44.442  14.323
75172W        W47520  39.993  17.679   3.175
75173W        W47521  21.190  31.428  11.593
75174W        W47522   9.360   8.353   4.724
75175W        W47523  24.173  13.117  10.617
75176W        W47524  22.671   6.775  14.773
75177W        W47525  36.848   5.262   3.289
75178W        W47526  29.087  24.020   4.684
75179W        W47527   9.769  11.775  10.956
75180W        W47528  27.609  20.652  13.462
75181W        W47529  24.092  24.638  13.388
75182W        W47530  33.461   8.368   4.746
75183W        W47531  26.025  27.975  13.017
75184W        W47532  10.700  42.004   1.309
75185W        W47533  21.166  44.866  12.472
75186W        W47534  14.125  44.467   4.306
75187W        W47535  26.531  38.063  14.344
75188W        W47536  17.304  43.441  14.811
75189W        W47537  37.449  17.291  14.417
75190W        W47538  31.983  18.736  14.952
75191W        W47539  33.496  42.436   4.114
75192W        W47540  11.184  23.527   2.684
75193W        W47541  16.578  29.626  12.471
75194W        W47542  18.083  24.504  13.811
75195W        W47543  17.645  21.217  11.382
75196W        W47544  23.199  29.620   4.674
75197W        W47545  36.522  44.905   2.367
75198W        W47546  25.566  36.851   0.471
75199W        W47547  24.012   4.360   3.342
75200W        W47548  28.089   3.930  12.339
75201W        W47549  24.487   4.921  10.404
75202W        W47550  42.976  11.362   4.295
75203W        W47551  42.782  28.523  10.453
75204W        W47552  26.189  31.405   2.802
75205W        W47553  31.484  16.220   4.732
75206W        W47554   5.341  15.595   3.242
75207W        W47555   5.803  13.718   2.371
75208W        W47556  39.487   4.224   0.277
75209W        W47557  36.000  32.910  11.029
75210W        W47558  29.169  39.338   2.793
75211W        W47559  30.585  13.106   4.307
75212W        W47560  17.582   9.233   4.699
75213W        W47561  37.550  37.064   2.396
75214W        W47562  22.087  15.125   1.356
75215W        W47563   1.341   7.194  13.052
75216W        W47564  14.234   1.805  10.533
75217W        W47565   2.361   3.810   3.698
75218W        W47566  30.443  22.168  12.381
75219W        W47567  41.036  32.082   5.283
75220W        W47568  17.787   1.250  12.987
75221W        W47569   2.925  25.503  12.380
75222W        W47570   4.745  28.103   1.795
75223W        W47571   7.752   2.470  13.361
75224W        W47572   9.751  23.202   0.319
75225W        W47573  41.499  33.583  10.585
75226W        W47574  36.909  32.442  11.458
75227W        W47575  14.769  34.091  13.882
75228W        W47576  39.382  18.749   0.783
75229W        W47577   4.366  40.825  12.053
75230W        W47578  16.712  16.277   4.198
75231W        W47579  12.231  29.093  13.805
75232W        W47580  23.020   3.276   0.960
75233W        W47581   8.200  43.893   0.825
75234W        W47582  28.629  25.043   0.835
75235W        W47583  42.867   1.357   0.467
75236W        W47584  42.915  29.979  11.005
75237W        W47585  34.569  37.990  13.326
75238W        W47586  42.392  31.144   4.185
75239W        W47587  36.377  27.594   2.380
75240W        W47588   3.936  28.527   4.681
75241W        W47589  15.697  14.111   5.694
75242W        W47590  41.953   9.734   4.702
75243W        W47591  38.442  40.402  10.621
75244W        W47592   7.839  44.454  12.913
75245W        W47593  18.131  27.166   3.277
75246W        W47594  18.246  37.568   3.264
75247W        W47595  12.344  20.523   1.357
75248W        W47596  28.132  41.901   1.376
75249W        W47597  14.177  15.313   2.834
75250W        W47598  39.004  33.983  14.315
75251W        W47599  30.484  19.063   4.216
75252W        W47600   6.361  26.102   4.206
75253W        W47601  23.195   4.930  13.814
75254W        W47602  17.606  22.151   2.784
75255W        W47603  20.085  31.087   1.756
75256W        W47604   2.810  15.287   2.807
75257W        W47605  23.639   1.867  13.902
75258W        W47606  39.994  10.159   0.787
75259W        W47607   9.645  12.248   3.224
75260W        W47608  41.509  11.325   2.192
75261W        W47609  38.892  21.193   4.791
75262W        W47610   0.319  34.577  14.980
75263W        W47611  37.563  10.274  11.876
75264W        W47612   2.333  37.376  11.056
75265W        W47613  41.872  20.659  12.402
75266W        W47614  16.163  30.012   4.147
75267W        W47615  17.754  29.599   9.960
75268W        W47616  37.426  18.065  11.415
75269W        W47617  22.635  43.455   4.611
75270W        W47618  27.462   3.852   4.317
75271W        W47619  24.222   1.380  14.814
75272W        W47620   7.901  31.439   0.800
75273W        W47621   2.430  37.008  14.350
75274W        W47622  20.240  33.611  14.337
75275W        W47623  34.385  25.606   1.880
75276W        W47624   5.812   7.729   4.837
75277W        W47625  32.471  32.997  12.349
75278W        W47626  13.763   8.775  12.055
75279W        W47627  27.504  15.581   4.348
75280W        W47628  44.773   6.755   1.389
75281W        W47629  16.742   7.851  14.484
75282W        W47630  25.671  25.582   0.427
75283W        W47631  38.344  40.826   0.293
75284W        W47632   6.816  32.013  10.938
75285W        W47633  11.165  14.614   4.315
75286W        W47634  23.552  14.178   3.205
75287W        W47635  17.238  44.370  10.461
75288W        W47636   9.150  33.908  14.894
75289W        W47637  23.566   7.850   1.429
75290W        W47638  32.943   0.350  12.576
75291W        W47639  32.968  15.623  14.911
75292W        W47640  26.001  20.128  14.012
75293W        W47641  32.067  28.950  14.995
75294W        W47642  41.838  39.527  11.536
75295W        W47643   6.241   9.855   3.702
75296W        W47644   4.218  42.964   4.165
75297W        W47645  44.433   6.327   0.291
75298W        W47646   1.410  43.416  12.954
75299W        W47647  29.055  21.258   3.769
75300W        W47648  19.150  44.948   2.668
75301W        W47649   6.809  41.429  14.984
75302W        W47650   9.884  22.120   5.184
75303W        W47651  23.620  12.308   0.415
75304W        W47652  17.573   6.264   1.215
75305W        W47653  40.303  25.580  12.356
75306W        W47654   9.313   1.278   1.372
75307W        W47655  31.152  39.387  11.018
75308W        W47656  34.070  12.709  14.814
75309W        W47657   9.166  29.172  14.507
75310W        W47658  32.612  23.574   3.786
75311W        W47659   2.395  41.989   3.375
75312W        W47660  14.196   0.460  11.547
75313W        W47661  37.975  39.895  11.556
75314W        W47662  30.939  16.200   4.744
75315W        W47663   6.854  33.982   2.815
75316W        W47664  34.104  36.889   1.321
75317W        W47665  43.325  39.537   4.247
75318W        W47666  34.099   7.362   4.803
75319W        W47667   4.251  22.020  12.574
75320W        W47668  38.458   6.774  13.421
75321W        W47669   2.328  44.878  11.017
75322W        W47670   6.695  37.838   0.774
75323W        W47671  28.618  28.620   0.315
75324W        W47672  34.930  43.423   1.217
75325W        W47673  41.800  35.453   3.720
75326W        W47674  16.146   2.805   1.231
75327W        W47675  38.039  23.139  14.469
75328W        W47676   5.918  10.868  13.481
75329W        W47677  41.897  34.496  14.368
75330W        W47678   3.457   2.911   2.190
75331W        W47679  30.467   6.230  10.561
75332W        W47680  30.513  14.693   4.198
75333W        W47681  26.640  42.801   3.737
75334W        W47682   3.864  33.110   4.263
75335W        W47683  17.716  34.569  10.502
75336W        W47684  21.172   9.840   4.321
75337W        W47685   4.857  31.504  11.037
75338W        W47686  24.001  30.476   3.866
75339W        W47687  37.399  28.477   2.793
75340W        W47688  26.547   6.401  11.011
75341W        W47689  10.243  19.557   3.334
75342W        W47690  29.522  40.954   3.647
75343W        W47691  16.129  12.721  13.024
75344W        W47692  41.448  27.947   2.396
75345W        W47693  39.462  22.576  11.559
75346W        W47694  21.534   4.334  10.980
75347W        W47695  35.580  30.111   0.391
75348W        W47696  29.656  43.996   4.668
75349W        W47697   3.859  30.630  10.603
75350W        W47698  24.652  24.130   3.757
75351W        W47699  31.639  41.935  10.926
75352W        W47700   4.752  21.024  11.076
75353W        W47701  10.848  25.086  11.476
75354W        W47702  17.590  11.737   4.246
75355W        W47703  10.360  42.779  12.093
75356W        W47704  26.667  22.047   4.263
75357W        W47705   1.238  35.023  11.420
75358W        W47706  26.197  28.445   0.885
75359W        W47707  37.037   3.793   4.299
75360W        W47708  18.287  27.482  12.988
75361W        W47709   5.688  32.908  12.919
75362W        W47710   0.448  30.012  12.546
75363W        W47711   7.743  34.025  10.994
75364W        W47712  15.704   4.379   1.340
75365W        W47713  36.433   1.483  11.949
75366W        W47714  39.004  35.432   2.415
75367W        W47715  24.522  15.793   0.945
75368W        W47716  40.003   1.282  14.494
75369W        W47717  12.189  20.262   0.365
75370W        W47718  36.990   6.753   4.131
75371W        W47719   5.196  24.705  12.034
75372W        W47720   5.201  38.408   2.703
75373W        W47721  33.053   9.863  10.538
75374W        W47722  16.131  35.049  12.454
75375W        W47723  21.583  16.279   1.787
75376W        W47724   4.255   8.217  12.886
75377W        W47725  37.393   6.892  11.900
75378W        W47726   2.336  11.233  12.920
75379W        W47727  34.378  27.979   2.816
75380W        W47728  10.824  13.245  13.883
75381W        W47729  24.593  25.635  12.969
75382W        W47730  42.421  40.319  10.627
75383W        W47731  11.323  24.129   1.865
75384W        W47732  24.723  26.600  13.488
75385W        W47733  10.269  40.979   2.762
75386W        W47734  40.988   7.332  10.910
75387W        W47735  10.787   5.356  13.385
75388W        W47736  32.431   9.266   4.627
75389W        W47737  11.636   0.263  13.897
75390W        W47738   7.258  29.119   0.437
75391W        W47739  44.965  23.141   4.705
75392W        W47740  14.270  39.372   4.125
75393W        W47741  29.583  27.121   4.797
75394W        W47742  31.609  15.292   1.843
75395W        W47743  10.351   4.724   2.281
75396W        W47744  34.063   9.870  13.791
75397W        W47745  28.585   2.434   1.369
75398W        W47746   6.766  23.525   2.825
75399W        W47747   4.878   3.900  10.584
75400W        W47748   4.206   2.387   1.340
75401W        W47749  25.007   5.432  11.124
75402W        W47750  25.697  30.500   1.842
75403W        W47751  41.899  36.050   2.886
75404W        W47752   6.351  41.403  13.308
75405W        W47753   1.737  41.792  11.886
75406W        W47754  36.005  43.505   0.858
75407W        W47755   7.239   7.294   4.165
75408W        W47756  15.150  29.575   0.388
75409W        W47757  27.494  22.137   0.479
75410W        W47758  22.714  10.791  13.997
75411W        W47759  28.121  12.796  10.111
75412W        W47760  37.874  44.456   3.166
75413W        W47761   7.723   7.823  11.051
75414W        W47762   9.176  34.383  12.979
75415W        W47763  20.749  16.763  14.372
75416W        W47764  12.271  17.120   2.331
75417W        W47765  42.396  12.722  13.056
75418W        W47766  14.174   8.319   4.645
75419W        W47767  19.694  26.990   0.899
75420W        W47768   1.817  35.368  14.777
75421W        W47769  38.526  23.219  13.462
75422W        W47770   0.282  41.002   0.460
75423W        W47771  18.686  41.834   3.652
75424W        W47772   7.832  18.743  11.939
75425W        W47773   9.225  32.929   3.192
75426W        W47774  29.630   2.806  10.593
75427W        W47775  22.616   6.295  13.805
75428W        W47776  25.707  41.323   2.366
75429W        W47777  17.670  11.831   3.194
75430W        W47778  44.447  27.554   0.283
75431W        W47779  28.186  31.016  14.473
75432W        W47780   2.245  44.876  14.852
75433W        W47781  16.702  41.522   2.333
75434W        W47782  17.702  11.676   1.266
75435W        W47783  22.706   7.250   2.400
75436W        W47784  17.687   1.917  14.813
75437W        W47785  41.488  36.362  12.465
75438W        W47786   3.370  14.796  13.983
75439W        W47787  16.078  31.946   4.265
75440W        W47788  28.121   8.805   1.888
75441W        W47789   1.966   3.743  13.819
75442W        W47790  38.839   3.356   1.357
75443W        W47791  20.042  44.788  13.331
75444W        W47792  43.870   1.313  11.956
75445W        W47793  28.558  42.374   2.368
75446W        W47794  33.950   3.875  12.094
75447W        W47795  11.817  11.320  10.482
75448W        W47796  22.680  22.650  13.857
75449W        W47797  22.722  21.132  14.032
75450W        W47798  36.962  22.542   5.666
75451W        W47799  36.865  11.357   2.259
75452W        W47800   4.886  40.826  13.981
75453W        W47801  30.658  11.641   2.274
75454W        W47802   8.705  12.766  11.583
75455W        W47803  33.041  21.651  11.941
75456W        W47804  35.964  34.417  13.469
75457W        W47805  26.573  23.633  13.529
75458W        W47806  11.823  31.990   9.993
75459W        W47807  15.272  14.310  10.138
75460W        W47808  35.910  17.302   2.714
75461W        W47809  10.211   8.259  14.834
75462W        W47810   8.390  36.080   0.395
75463W        W47811   1.476  42.813   1.732
75464W        W47812  35.390  37.996  12.914
75465W        W47813  43.365  44.767   2.203
75466W        W47814  19.088  15.804   3.285
75467W        W47815   1.418  26.951  11.416
75468W        W47816  38.986  26.077  14.499
75469W        W47817  10.688  21.704  14.284
75470W        W47818  22.115   6.732  10.429
75471W        W47819  25.067  34.059   0.300
75472W        W47820  17.596  42.908   2.709
75473W        W47821  44.890   5.934  10.595
75474W        W47822  43.858  16.732  12.972
75475W        W47823  42.999  43.384  10.566
75476W        W47824   3.406  13.206   0.280
75477W        W47825  14.240  34.376  14.513
75478W        W47826  42.913  17.632   1.910
75479W        W47827  25.610   6.327   2.683
75480W        W47828  42.297  18.661   4.245
75481W        W47829  19.234  31.126  14.799
75482W        W47830   0.416  34.021   4.727
75483W        W47831  28.941  10.370   4.354
75484W        W47832  12.216  37.427   0.353
75485W        W47833  44.940  43.287   2.861
75486W        W47834  12.229  14.157  10.946
75487W        W47835   9.732  15.234   1.311
75488W        W47836   6.292   6.321  11.392
75489W        W47837  39.045  39.033   3.172
75490W        W47838   2.810   5.385  12.431
75491W        W47839  10.747  38.852  12.847
75492W        W47840  40.911  30.546  12.933
75493W        W47841  21.158  44.879  14.510
75494W        W47842  38.393  15.130  14.291
75495W        W47843  12.689   6.335   2.867
75496W        W47844  41.388  15.252  13.904
75497W        W47845  34.869  17.646   1.755
75498W        W47846  26.505  35.554  14.428
75499W        W47847  42.312  18.636   2.266
75500W        W47848  30.067  29.950  10.936
75501W        W47849   4.799   1.845   1.374
75502W        W47850  31.583  43.361  10.482
75503W        W47851  19.583  40.981   4.329
75504W        W47852  27.483   3.400   4.719
75505W        W47853  26.508  27.167   4.766
75506W        W47854  32.483   6.871  11.946
75507W        W47855  27.148  20.739  12.889
75508W        W47856  44.269  26.192   1.312
75509W        W47857  19.582  42.945  12.984
75510W        W47858  44.301  11.190  14.367
75511W        W47859  34.517  18.581   1.704
75512W        W47860  44.913   2.735   2.388
75513W        W47861  24.517  31.917  14.028
75514W        W47862  38.895  16.695  11.509
75515W        W47863  44.916  22.631  10.950
75516W        W47864  37.421  21.538   2.819
75517W        W47865  33.398  26.538  11.078
75518W        W47866  13.205  26.611   5.265
75519W        W47867  21.533  19.042  11.015
75520W        W47868  38.415  25.520  13.956
75521W        W47869  39.542  25.131   1.256
75522W        W47870  22.110  33.449   0.856
75523W        W47871   3.243   3.255  10.948
75524W        W47872  37.985  44.850  13.995
75525W        W47873  19.625  29.108   5.619
75526W        W47874  10.778   5.714   0.245
75527W        W47875  19.074   6.199   0.791
75528W        W47876   6.223  11.866  10.110
75529W        W47877  18.777  31.971  10.588
75530W        W47878  43.827   9.875   1.798
75531W        W47879  10.860  22.106  14.505
75532W        W47880  36.002   3.792   2.722
75533W        W47881  38.553  20.163  10.935
75534W        W47882  28.481   7.185   1.293
75535W        W47883   6.240  13.809   0.875
75536W        W47884  39.956  32.619  14.359
75537W        W47885  12.283  24.121   1.425
75538W        W47886   6.249  30.966  10.603
75539W        W47887  11.222   0.935   2.305
75540W        W47888  43.912  17.072   1.758
75541W        W47889  13.156  17.635  13.061
75542W        W47890  24.097   8.768  13.886
75543W        W47891   2.747  30.636  14.895
75544W        W47892  39.421  11.260   3.234
75545W        W47893  31.150  42.395  11.543
75546W        W47894   7.312  39.386  14.827
75547W        W47895  30.961  29.941   1.920
75548W        W47896  26.122  19.632   4.161
75549W        W47897  16.105  30.074   3.849
75550W        W47898   0.391   2.941  14.910
75551W        W47899  23.530  23.073  10.998
75552W        W47900  12.763  20.658  12.396
75553W        W47901  13.120  16.230   2.813
75554W        W47902  37.002   5.873   1.780
75555W        W47903  12.643  30.921   2.687
75556W        W47904  41.020  43.373   3.772
75557W        W47905  14.102  27.516   4.672
75558W        W47906  22.558  18.207  10.464
75559W        W47907  31.483  21.733   1.866
75560W        W47908   6.818  31.459   0.738
75561W        W47909  34.586  33.395  13.804
75562W        W47910  15.150  30.569   4.241
75563W        W47911  13.706  23.622  10.635
75564W        W47912   8.864  19.254   4.146
75565W        W47913  38.906  27.632   4.287
75566W        W47914   2.782   6.892   2.782
75567W        W47915  19.277  27.190   3.812
75568W        W47916   2.226   6.247   2.740
75569W        W47917  13.294  26.517   3.784
75570W        W47918  27.616   8.365  13.384
75571W        W47919  33.014   6.811   2.344
75572W        W47920  42.815  13.658   3.768
75573W        W47921  40.001  10.682   0.255
75574W        W47922  18.178  16.214  10.550
75575W        W47923   5.329  30.093  12.960
75576W        W47924  40.842  34.036  14.468
75577W        W47925  18.062  38.418   2.341
75578W        W47926  37.080  26.969   2.354
75579W        W47927  12.150  36.452   0.269
75580W        W47928  10.172  12.846  12.054
75581W        W47929  33.416  15.140  12.470
75582W        W47930   7.397  25.644  12.362
75583W        W47931  33.463  24.209  13.319
75584W        W47932  28.030   3.722   4.179
75585W        W47933  17.661  19.133  13.433
75586W        W47934  14.306  25.633  13.318
75587W        W47935  23.162   6.832   3.359
75588W        W47936  43.946  12.715   2.701
75589W        W47937  26.525   6.724   4.141
75590W        W47938  13.316  39.998  11.126
75591W        W47939  36.852  17.220  13.414
75592W        W47940  20.117  25.707   3.300
75593W        W47941  15.231  17.231   1.914
75594W        W47942  44.378  35.082  11.414
75595W        W47943   5.379  17.288   4.207
75596W        W47944  37.859  43.911  11.879
75597W        W47945  18.699  24.599  11.059
75598W        W47946  37.559   7.274   3.723
75599W        W47947   9.856  33.907  14.902
75600W        W47948  40.022  25.622  10.422
75601W        W47949  27.102  36.889   4.619
75602W        W47950   1.248  42.502  11.859
75603W        W47951  24.104  27.457  13.980
75604W        W47952   7.235  27.126  13.052
75605W        W47953  14.306  10.196  14.477
75606W        W47954  27.175  33.588   1.224
75607W        W47955  18.243  12.157   2.389
75608W        W47956   3.242   7.260  12.026
75609W        W47957  12.783  23.631   2.286
75610W        W47958  12.248  10.812  10.582
75611W        W47959   2.409  17.139  12.072
75612W        W47960  12.340  26.007   3.705
75613W        W47961  34.030  10.181  11.589
75614W        W47962  40.408  30.004  13.948
75615W        W47963  11.351  31.092   3.272
75616W        W47964  32.954   1.263  12.930
75617W        W47965   6.776  41.962  12.510
75618W        W47966  22.579  37.565   3.237
75619W        W47967  25.592  24.226   0.948
75620W        W47968  24.558  15.260   3.651
75621W        W47969  25.123   6.693   3.342
75622W        W47970  36.884  21.572   0.478
75623W        W47971  10.663  27.178   4.318
75624W        W47972  39.820  29.923  13.928
75625W        W47973   5.313  13.751   1.429
75626W        W47974   5.873  25.534   0.245
75627W        W47975  26.690  12.287  12.842
75628W        W47976  24.193   4.405  12.573
75629W        W47977  18.584  29.096  10.139
75630W        W47978  15.172   8.811   3.705
75631W        W47979  30.932   5.750  10.942
75632W        W47980   0.833  23.092  11.408
75633W        W47981   1.291   1.398  14.848
75634W        W47982  33.115  39.809   0.776
75635W        W47983  42.481  13.779   2.414
75636W        W47984  42.310  32.916   3.629
75637W        W47985  34.863  33.618  10.005
75638W        W47986  18.241  23.005   4.731
75639W        W47987  21.696  29.115  11.905
75640W        W47988  27.082  27.075   2.233
75641W        W47989  10.873   5.906  13.448
75642W        W47990  44.413  18.072  12.424
75643W        W47991  33.874  18.160  13.329
75644W        W47992  41.372  30.470   2.324
75645W        W47993   1.304  10.142  14.906
75646W        W47994   1.454  23.594   3.278
75647W        W47995  23.685  40.911  11.515
75648W        W47996   7.746  10.687   1.320
75649W        W47997  39.844  23.499  14.870
75650W        W47998  41.807  10.801   0.355
75651W        W47999  10.265   1.468  13.455
75652W        W48000  16.792  15.109  14.409
75653W        W48001  39.448  30.414  13.460
75654W        W48002  11.787  16.628  13.815
75655W        W48003  29.062   2.761   0.828
75656W        W48004  30.497  25.474  13.497
75657W        W48005  30.475  41.937   1.435
75658W        W48006  13.115  22.673   0.339
75659W        W48007  14.663  21.515   3.243
75660W        W48008  17.169   0.348  14.817
75661W        W48009  18.648  44.411   3.854
75662W        W48010   7.269  40.814  11.394
75663W        W48011   6.249  24.216  14.401
75664W        W48012  20.674  29.098   1.781
75665W        W48013  44.870  20.116   3.257
75666W        W48014  33.967  11.269  10.918
75667W        W48015  28.589  28.935  10.412
75668W        W48016  44.480  41.478  10.917
75669W        W48017  44.877   7.264   2.774
75670W        W48018  27.960  19.282  10.618
75671W        W48019  41.383  18.585  11.508
75672W        W48020  26.690  27.168  10.984
75673W        W48021   8.351  36.476  13.426
75674W        W48022  18.069  15.325  13.524
75675W        W48023  14.140  33.882  13.929
75676W        W48024   9.297   0.417   2.717
75677W        W48025  18.093  26.535   4.305
75678W        W48026   7.734  30.605  11.039
75679W        W48027  22.529   6.295   1.240
75680W        W48028  24.994  26.586   0.301
75681W        W48029  30.048  41.466  11.913
75682W        W48030  36.993   9.223   3.674
75683W        W48031  11.678   8.701   5.155
75684W        W48032  39.557  24.214   2.665
75685W        W48033  14.326  27.090  14.464
75686W        W48034   2.442  35.058  14.912
75687W        W48035  15.115  41.319   3.220
75688W        W48036   7.748   8.273  13.470
75689W        W48037  15.789  36.859  13.871
75690W        W48038   8.690  29.601  11.511
75691W        W48039  24.663  42.893   4.317
75692W        W48040  23.232  15.779  14.357
75693W        W48041  41.292  12.808  10.996
75694W        W48042  35.863   1.735  14.385
75695W        W48043  27.139   5.364   2.856
75696W        W48044  36.471   5.309   4.738
75697W        W48045  19.708   7.833   0.327
75698W        W48046  14.171  10.376  12.476
75699W        W48047  39.948  19.219  12.079
75700W        W48048  36.978  28.437  14.392
75701W        W48049  15.201  30.106  11.902
75702W        W48050  18.600   7.739   2.199
75703W        W48051  27.164  41.496  13.459
75704W        W48052  14.745  13.785   0.820
75705W        W48053  34.933   7.218  10.139
75706W        W48054  11.640   1.417  12.498
75707W        W48055   2.268  44.334   4.659
75708W        W48056  22.530  39.363   1.335
75709W        W48057   0.745  40.488  12.390
75710W        W48058  38.858  42.806  13.426
75711W        W48059  11.246  18.782  10.533
75712W        W48060  21.110  40.828   4.630
75713W        W48061  40.957  13.744  12.823
75714W        W48062  36.384  25.680  11.536
75715W        W48063  35.051  35.098   2.229
75716W        W48064  24.718  28.553   3.864
75717W        W48065  24.511   1.338   4.202
75718W        W48066  17.225   5.897  13.826
75719W        W48067   3.340  25.090   4.836
75720W        W48068   0.307  23.553   3.239
75721W        W48069   7.306  11.797  13.343
75722W        W48070  13.273   3.881  13.547
75723W        W48071  21.612  12.719   1.722
75724W        W48072  43.800  43.292  14.426
75725W        W48073   4.865  25.644   2.859
75726W        W48074   4.885   5.844  13.901
75727W        W48075  27.048   2.916  11.596
75728W        W48076  13.774  33.527   0.901
75729W        W48077  30.973   1.238  13.354
75730W        W48078  14.687  30.030   4.626
75731W        W48079  44.867  27.144   1.409
75732W        W48080  38.026  40.310  13.397
75733W        W48081  42.030  18.570  14.833
75734W        W48082  43.445   5.819   4.748
75735W        W48083  25.045  38.480   1.326
75736W        W48084   9.261   9.344   3.315
75737W        W48085  40.845  38.385   2.860
75738W        W48086  26.656  39.025  11.448
75739W        W48087  32.409   3.443   2.791
75740W        W48088  27.577  24.172  11.120
75741W        W48089  31.992  24.564   0.823
75742W        W48090  40.042  25.115   0.909
75743W        W48091  44.343  33.968   3.802
75744W        W48092   3.230  25.674  13.542
75745W        W48093  35.991  36.046  12.566
75746W        W48094  38.973   7.389  14.388
75747W        W48095  13.787  31.021   0.896
75748W        W48096  19.771  19.725   4.219
75749W        W48097  19.225  35.959  11.090
75750W        W48098  12.273   4.734   0.912
75751W        W48099   9.330  37.865  10.592
75752W        W48100   1.864  32.546  10.406
75753W        W48101  33.558  43.367   3.671
75754W        W48102  24.206  35.566  13.798
75755W        W48103   6.359  34.470  13.968
75756W        W48104  42.472   2.774  11.584
75757W        W48105   8.824  18.289   0.808
75758W        W48106  39.390   9.256  12.945
75759W        W48107  31.111  16.249   4.151
75760W        W48108  38.453  31.041   1.829
75761W        W48109  31.997  16.805  13.814
75762W        W48110  29.430  24.479   3.291
75763W        W48111  40.042  36.949  11.486
75764W        W48112   1.285  24.641   1.853
75765W        W48113  26.644  24.007  11.071
75766W        W48114  39.513  12.664  13.008
75767W        W48115  12.234  27.528  13.836
75768W        W48116  36.046  14.203   1.213
75769W        W48117   0.972   0.926  14.420
75770W        W48118  40.426  19.670  10.529
75771W        W48119  26.656  38.923  13.851
75772W        W48120   8.698  25.070  11.547
75773W        W48121  42.879  15.156   2.844
75774W        W48122  29.087   5.898   0.256
75775W        W48123   5.292  39.453  14.792
75776W        W48124  16.808  27.054  12.043
75777W        W48125  30.982  12.180   1.773
75778W        W48126   0.782  26.561  13.824
75779W        W48127   9.754  31.002   3.796
75780W        W48128  13.217  11.370   1.349
75781W        W48129  44.375  41.002   3.813
75782W        W48130  39.850   6.858  12.559
75783W        W48131  43.480  30.081  13.323
75784W        W48132  10.855  25.101   0.275
75785W        W48133  19.121  25.152  10.465
75786W        W48134  29.067  19.545   3.217
75787W        W48135  24.562  20.677   4.246
75788W        W48136  28.122   6.384   0.348
75789W        W48137  37.906   9.695   0.818
75790W        W48138   8.349  42.945   4.122
75791W        W48139   2.330  28.554  12.544
75792W        W48140   7.745   7.393  12.463
75793W        W48141  42.895  25.167  14.776
75794W        W48142   6.292  32.486   1.381
75795W        W48143  39.892  32.569   2.186
75796W        W48144   4.921  20.096  14.985
75797W        W48145  42.940  10.838  13.366
75798W        W48146  30.651   5.286   2.870
75799W        W48147   2.731  34.578   2.192
75800W        W48148  39.984  25.044   0.483
75801W        W48149   0.376  37.049  11.497
75802W        W48150  22.637  12.816   3.674
75803W        W48151  17.706   9.863  10.540
75804W        W48152  24.102  32.963  12.830
75805W        W48153   6.330  11.357   0.885
75806W        W48154  42.869  11.860   0.298
75807W        W48155   1.296  43.369   2.895
75808W        W48156  42.928  38.993  10.456
75809W        W48157  28.445  16.650   0.411
75810W        W48158  44.894   1.905   4.772
75811W        W48159   5.882   8.216   0.250
75812W        W48160  28.677   7.305  11.528
75813W        W48161  14.721  11.182  12.479
75814W        W48162  42.327  15.301   1.431
75815W        W48163  39.401   3.278  13.970
75816W        W48164  38.864  40.002  13.868
75817W        W48165  21.591  36.497   3.276
75818W        W48166  43.484   8.816  14.443
75819W        W48167  19.110  40.308   2.208
75820W        W48168  25.479   8.186   5.701
75821W        W48169  25.596   1.956   9.982
75822W        W48170  37.076  25.113   3.370
75823W        W48171  31.555  39.825  11.467
75824W        W48172   6.861   7.370   0.883
75825W        W48173   0.453  15.723   2.814
75826W        W48174   2.735  15.177   3.322
75827W        W48175  11.729  11.328   1.391
75828W        W48176  10.655   0.395   3.221
75829W        W48177   1.969   3.945   4.273
75830W        W48178   0.283  13.718   2.397
75831W        W48179  21.134  16.643  12.348
75832W        W48180  33.017  40.999  13.010
75833W        W48181   7.303  20.170  10.597
75834W        W48182  13.662  26.960  12.486
75835W        W48183  10.299  33.882  12.829
75836W        W48184  21.183  29.549  14.428
75837W        W48185  43.927  40.048   0.790
75838W        W48186  32.421  24.544   1.736
75839W        W48187   5.765  11.747  13.791
75840W        W48188  15.168  24.072  10.446
75841W        W48189  14.799  28.559  12.958
75842W        W48190  10.339  15.767   5.229
75843W        W48191  22.009   0.975   1.407
75844W        W48192   6.723  17.677   3.634
75845W        W48193  42.285  15.775   3.373
75846W        W48194  17.640  23.628   3.666
75847W        W48195  21.165  38.567   3.781
75848W        W48196  38.840  36.437   2.775
75849W        W48197  12.343  39.481  11.111
75850W        W48198   3.863   7.864  11.956
75851W        W48199  35.091   2.409  11.964
75852W        W48200  38.333  20.767   1.704
75853W        W48201  42.913  29.061  14.821
75854W        W48202  41.978  31.577   1.408
75855W        W48203  40.006  36.527  12.912
75856W        W48204  23.585  23.619  11.925
75857W        W48205  12.123  27.650  14.384
75858W        W48206  26.689  11.624   3.349
75859W        W48207  44.909  11.163  13.308
75860W        W48208  30.555  19.563  12.370
75861W        W48209  11.765  21.137  10.608
75862W        W48210  27.546  15.735  13.334
75863W        W48211  12.854   6.895  10.463
75864W        W48212  10.870  24.989  11.086
75865W        W48213   8.669  35.562   3.331
75866W        W48214  11.139   5.214   3.831
75867W        W48215  17.274  28.935   4.346
75868W        W48216  42.903  23.560  13.943
75869W        W48217  33.042   7.740  11.882
75870W        W48218  18.651  16.583  11.984
75871W        W48219   7.733  30.953  13.441
75872W        W48220   8.876  25.088  11.106
75873W        W48221  37.831  32.421  14.501
75874W        W48222   4.932  41.840  12.359
75875W        W48223  31.522  35.497   4.634
75876W        W48224   7.692  25.144  12.031
75877W        W48225  29.992  40.882   2.222
75878W        W48226  35.980  22.651   9.446
75879W        W48227  15.110  41.041  10.962
75880W        W48228  40.815   5.204   0.255
75881W        W48229  40.363  38.838   0.446
75882W        W48230  30.650  21.605  14.496
75883W        W48231  26.631  22.688   2.260
75884W        W48232  26.973   2.757  12.838
75885W        W48233  32.896  32.917  13.862
75886W        W48234  25.173  43.414  12.462
75887W        W48235   3.723  18.236   1.880
75888W        W48236  27.106  39.414  12.826
75889W        W48237  26.025  41.496  12.420
75890W        W48238  32.907  16.105   2.698
75891W        W48239  19.211  39.942   4.185
75892W        W48240  39.853  11.370  13.889
75893W        W48241   3.353  31.467   1.241
75894W        W48242  29.615  42.909  11.587
75895W        W48243  23.216  42.929  14.458
75896W        W48244  35.495  26.978   4.141
75897W        W48245  24.980  36.525  14.283
75898W        W48246  20.741  16.258   3.150
75899W        W48247  16.180  30.966  12.038
75900W        W48248  29.666  36.577  11.938
75901W        W48249  40.947  31.956   2.320
75902W        W48250  15.661  42.870   4.283
75903W        W48251  25.031  23.164  14.312
75904W        W48252  33.980   4.884   4.268
75905W        W48253  15.815  33.574  14.412
75906W        W48254  42.361  19.587   3.369
75907W        W48255  41.878  29.038  14.877
75908W        W48256  16.666  10.734   1.813
75909W        W48257   4.790   0.392  13.915
75910W        W48258  11.863   4.314   9.467
75911W        W48259   7.347  40.318  14.994
75912W        W48260   9.672  28.571   0.763
75913W        W48261  12.770   9.797  10.459
75914W        W48262  29.669  12.668   3.210
75915W        W48263  14.592  30.083  13.892
75916W        W48264  13.341  20.720  10.543
75917W        W48265  41.309  13.793  10.484
75918W        W48266  32.061  34.405  13.316
75919W        W48267   8.863   5.898   0.253
75920W        W48268   4.784  12.222  11.028
75921W        W48269  14.142  16.680  12.096
75922W        W48270   3.406  38.498   0.480
75923W        W48271  27.663  24.025  14.965
75924W        W48272  18.784   6.819   0.430
75925W        W48273  26.660  19.234   1.878
75926W        W48274   6.708  38.542  12.979
75927W        W48275  39.842  28.171  11.953
75928W        W48276  27.114   4.756  13.889
75929W        W48277  27.457  30.617   1.823
75930W        W48278  33.402   7.881   2.340
75931W        W48279   0.981  39.045  13.800
75932W        W48280  44.855  14.819  12.929
75933W        W48281   6.821  40.528   1.895
75934W        W48282  10.779  43.871   3.802
75935W        W48283  20.201  42.969   0.747
75936W        W48284  12.302  32.126   1.423
75937W        W48285   5.402  10.345  13.443
75938W        W48286  41.044  19.111  10.568
75939W        W48287   2.913  43.773  14.912
75940W        W48288  16.689   3.836   3.718
75941W        W48289  10.769  13.708   0.435
75942W        W48290  42.343  25.615  11.406
75943W        W48291  23.037  39.938  14.008
75944W        W48292  13.310  25.619   3.173
75945W        W48293  29.621  37.541  12.908
75946W        W48294  40.857  43.472  13.419
75947W        W48295  10.847  37.411  13.440
75948W        W48296  15.114  13.124   0.342
75949W        W48297   8.256  18.145   0.289
75950W        W48298  43.444  42.954  13.823
75951W        W48299  19.226   3.956  13.419
75952W        W48300  30.002  36.952   1.334
75953W        W48301  44.961  43.275   4.129
75954W        W48302  14.767  16.211   0.294
75955W        W48303  24.538  19.672   1.425
75956W        W48304   4.779  26.677  12.066
75957W        W48305  38.377  32.460   1.270
75958W        W48306  44.825  44.764  12.852
75959W        W48307  32.070  25.217  11.558
75960W        W48308   1.238  30.432   3.695
75961W        W48309  14.240   2.819  13.308
75962W        W48310  34.102  17.671   4.697
75963W        W48311  30.978   5.322   3.865
75964W        W48312  15.783  21.511  11.876
75965W        W48313  44.259  38.559   4.835
75966W        W48314   6.247  11.224   0.321
75967W        W48315  18.132   9.277  12.865
75968W        W48316   7.352  19.099  10.888
75969W        W48317  22.517  44.499   1.775
75970W        W48318  33.558   9.786   3.770
75971W        W48319  19.707  28.613  12.436
75972W        W48320   1.306  19.610   5.224
75973W        W48321  35.085   1.291  10.551
75974W        W48322  41.313   9.235   0.292
75975W        W48323  24.230  26.009   3.210
75976W        W48324  43.380   0.964  10.983
75977W        W48325  20.705  38.879  10.908
75978W        W48326  22.708   3.441   0.773
75979W        W48327  26.614  15.235  14.312
75980W        W48328  25.149  27.090   4.760
75981W        W48329   0.278  11.650   1.869
75982W        W48330   9.231  39.894  11.044
75983W        W48331  16.112   3.454  10.935
75984W        W48332   4.277  19.583   1.795
75985W        W48333   6.210  39.901   1.793
75986W        W48334   5.409  27.504  11.948
75987W        W48335   8.741  30.029   1.333
75988W        W48336  17.755  17.152  10.996
75989W        W48337  15.309   0.959  14.840
75990W        W48338  36.846  13.248  12.469
75991W        W48339   2.908  39.529   3.683
75992W        W48340  29.949   8.811   4.170
75993W        W48341   2.263  26.075  13.871
75994W        W48342  10.836  37.408  12.049
75995W        W48343   5.392  30.546   0.265
75996W        W48344   8.685  29.166   2.300
75997W        W48345  18.119  31.555  10.098
75998W        W48346   4.436  40.001  12.510
75999W        W48347  35.439   6.783   1.232
76000W        W48348   5.201  39.908   1.711
76001W        W48349  38.394  41.528   2.837
76002W        W48350  15.280  32.525   2.883
76003W        W48351  39.401  38.416   1.822
76004W        W48352  11.183   4.707  14.288
76005W        W48353  22.511  11.248   4.134
76006W        W48354  44.360  16.162   3.778
76007W        W48355  26.968  36.897   0.353
76008W        W48356  10.822  39.526  14.373
76009W        W48357  25.610  23.045   3.658
76010W        W48358  43.313  44.337   0.943
76011W        W48359  24.658  22.131  14.962
76012W        W48360  25.098   1.269  11.513
76013W        W48361   5.250  42.301   2.844
76014W        W48362   2.756   1.796  11.027
76015W        W48363   4.369  14.823   4.621
76016W        W48364  17.143  21.711  10.959
76017W        W48365  13.307  38.965  14.425
76018W        W48366  24.651  10.319  10.615
76019W        W48367   8.709  28.533  12.902
76020W        W48368  38.987  18.680   1.746
76021W        W48369   6.811  44.910  12.008
76022W        W48370  28.983  15.634  13.046
76023W        W48371  34.427   6.720   2.226
76024W        W48372   0.941  40.533  14.951
76025W        W48373  40.432  36.551   4.657
76026W        W48374  19.040  39.924   2.698
76027W        W48375  26.986   0.763   3.745
76028W        W48376  26.973  33.892  13.995
76029W        W48377   3.898  29.991  12.526
76030W        W48378  13.109  41.486   0.780
76031W        W48379  15.658   0.837   3.244
76032W        W48380  42.466  10.160  14.985
76033W        W48381  34.519   3.920  13.524
76034W        W48382  27.572   5.333   0.806
76035W        W48383  41.516  24.137   2.687
76036W        W48384  38.487  12.243   3.659
76037W        W48385  28.103  15.113  10.553
76038W        W48386  30.140   7.350  10.952
76039W        W48387  22.568  21.638   2.310
76040W        W48388   8.840  22.030   4.346
76041W        W48389  27.672  18.671  12.062
76042W        W48390  37.043  28.948   3.266
76043W        W48391  10.364  26.002  14.446
76044W        W48392   0.466  36.347   3.164
76045W        W48393  32.619   9.802  14.939
76046W        W48394   8.679   6.838   0.787
76047W        W48395  24.020  13.177  11.861
76048W        W48396   2.825   3.821  10.954
76049W        W48397   8.240   5.805   0.958
76050W        W48398  44.486  31.432   1.293
76051W        W48399   7.825  44.436   5.083
76052W        W48400   7.676  41.509  13.342
76053W        W48401  28.940  14.185  13.059
76054W        W48402  27.142  17.236  13.945
76055W        W48403  11.340  41.020  14.822
76056W        W48404  30.621  32.009   0.285
76057W        W48405   5.910  26.493   0.364
76058W        W48406   0.322  10.769  11.970
76059W        W48407   4.397   6.773   0.947
76060W        W48408  24.723  23.687   3.786
76061W        W48409  27.687   6.242   4.760
76062W        W48410   3.910  44.955   0.455
76063W        W48411  44.813  37.880  12.851
76064W        W48412  14.143  12.619   4.162
76065W        W48413   9.815  32.030  14.284
76066W        W48414  35.938  35.493  14.018
76067W        W48415  32.925   7.185  11.942
76068W        W48416  25.626   7.707  14.281
76069W        W48417  27.986  37.569  13.315
76070W        W48418  43.016   3.802   2.771
76071W        W48419   0.764  37.850   1.807
76072W        W48420  19.270  19.222  14.413
76073W        W48421  11.649  25.140  11.529
76074W        W48422   4.257  10.218   1.838
76075W        W48423  22.671  22.747  10.633
76076W        W48424  40.815  38.369  11.897
76077W        W48425  43.814  30.920  11.865
76078W        W48426  38.524  38.925   1.831
76079W        W48427  33.417  24.202   2.409
76080W        W48428  21.631  38.837   0.788
76081W        W48429  20.057  40.320  11.947
76082W        W48430   3.338  32.507   5.087
76083W        W48431  44.793  44.873   3.288
76084W        W48432  22.240  21.606   4.612
76085W        W48433   6.757  30.480   2.726
76086W        W48434  42.799  43.918   2.791
76087W        W48435  39.443  41.024  11.098
76088W        W48436  37.403  14.153   0.246
76089W        W48437   2.320  27.124  14.953
76090W        W48438   7.832  15.231  11.096
76091W        W48439  11.133  13.155   4.177
76092W        W48440  44.341   7.224  13.536
76093W        W48441  24.493   0.765  14.029
76094W        W48442  41.022  24.575  14.903
76095W        W48443  36.562  37.468  13.977
76096W        W48444  15.806  29.002   1.293
76097W        W48445   3.743   7.352   1.719
76098W        W48446  12.294  37.046   2.828
76099W        W48447   6.789   4.839   1.930
76100W        W48448  16.786  18.780  12.504
76101W        W48449  36.979   8.293   2.813
76102W        W48450   4.280  32.551   2.872
76103W        W48451  35.941  40.945  14.966
76104W        W48452  25.085  43.388  12.051
76105W        W48453  36.004  26.552   3.740
76106W        W48454  11.862  24.209  13.525
76107W        W48455  17.639  16.686  12.524
76108W        W48456  13.683   5.768  12.992
76109W        W48457  39.357  28.678  14.895
76110W        W48458  19.124  29.001  13.510
76111W        W48459  24.637   6.236  11.118
76112W        W48460   0.364  32.031   0.336
76113W        W48461  36.940  32.442  13.506
76114W        W48462  26.010   3.339  14.770
76115W        W48463  12.689  22.015   3.729
76116W        W48464  25.633  33.582   4.745
76117W        W48465   5.787  16.285  13.426
76118W        W48466  42.827   2.451  10.413
76119W        W48467  26.086  36.959  14.782
76120W        W48468  13.806  17.217  12.059
76121W        W48469   2.443   3.441   3.250
76122W        W48470   2.284  42.406   4.319
76123W        W48471   5.209  18.593  10.441
76124W        W48472   5.240  34.916   1.895
76125W        W48473   0.878  37.485  14.855
76126W        W48474  24.680  35.882   1.441
76127W        W48475   0.428  37.946  11.553
76128W        W48476  23.064  38.393   1.324
76129W        W48477  37.920  12.176  10.914
76130W        W48478   1.893  16.088   1.800
76131W        W48479  43.516   5.772  13.026
76132W        W48480  40.396  36.433   1.713
76133W        W48481  41.882  16.098  12.990
76134W        W48482  41.323  16.644   2.330
76135W        W48483  13.743  30.564   3.213
76136W        W48484   4.405  38.391   0.414
76137W        W48485  13.838   5.925   1.315
76138W        W48486   7.273   9.880   0.806
76139W        W48487  27.051  34.006  14.950
76140W        W48488  14.747  18.560  14.432
76141W        W48489  41.824  23.201   0.954
76142W        W48490  14.743  37.465   3.360
76143W        W48491  29.069   1.271  14.935
76144W        W48492  44.005  18.748   3.225
76145W        W48493  26.109   4.327  13.961
76146W        W48494  10.862  33.911  10.614
76147W        W48495   6.256  36.459  13.048
76148W        W48496  21.747  20.537  14.298
76149W        W48497   4.328  37.862   2.838
76150W        W48498   2.934  10.640  14.299
76151W        W48499   8.704   5.925   3.371
76152W        W48500  24.554  44.979   0.418
76153W        W48501  17.714  13.670  11.866
76154W        W48502  33.980   6.838  13.835
76155W        W48503  13.736  33.429   3.754
76156W        W48504  13.334  34.614  10.538
76157W        W48505  33.545  28.621  11.107
76158W        W48506  20.171   5.304  11.377
76159W        W48507  24.071   6.280  12.537
76160W        W48508  44.385  11.859   2.782
76161W        W48509  23.241   0.855  10.910
76162W        W48510  30.445   1.863   4.336
76163W        W48511  16.227  17.153   4.738
76164W        W48512   6.418  14.131   2.710
76165W        W48513  40.502  30.530   5.140
76166W        W48514  19.094   3.912  10.612
76167W        W48515  32.620  25.179  11.863
76168W        W48516  28.632  15.095   2.254
76169W        W48517  44.843  12.274   4.806
76170W        W48518   4.856  22.251  13.928
76171W        W48519  11.156  31.478  12.894
76172W        W48520  25.700  13.176  13.943
76173W        W48521  36.455  32.475   3.824
76174W        W48522  34.589   7.782   0.331
76175W        W48523  19.604   2.812   2.385
76176W        W48524   4.417  26.157   1.707
76177W        W48525  12.211  42.288   2.720
76178W        W48526  17.801  12.750   4.155
76179W        W48527  30.937  19.556  12.541
76180W        W48528  15.093  16.748  10.942
76181W        W48529  44.422  17.170   0.753
76182W        W48530  26.161  39.560   3.304
76183W        W48531  33.944  24.694  12.007
76184W        W48532  38.368  10.335  14.420
76185W        W48533   9.688  40.027  10.893
76186W        W48534  12.790  25.117   2.324
76187W        W48535   8.344  26.120  12.433
76188W        W48536  43.388  10.686  14.809
76189W        W48537  19.048  32.505  13.799
76190W        W48538  19.689  41.412   3.342
76191W        W48539  27.124  33.098  13.546
76192W        W48540   9.795   1.859   4.251
76193W        W48541  43.508  25.148  13.816
76194W        W48542  29.612  40.307  10.975
76195W        W48543  43.475  44.913  12.959
76196W        W48544   4.759   7.409   0.349
76197W        W48545  34.958  19.651   2.343
76198W        W48546   7.859   0.419  14.434
76199W        W48547  22.044  24.516   4.140
76200W        W48548  35.029  31.602  13.957
76201W        W48549  26.167  15.294   0.869
76202W        W48550  29.096  25.096   3.645
76203W        W48551   0.415  32.025   4.705
76204W        W48552   8.331  21.246   3.339
76205W        W48553  25.493   7.808  13.538
76206W        W48554  40.378   7.690   0.951
76207W        W48555  15.767  42.888   0.756
76208W        W48556  39.958  22.071   3.350
76209W        W48557  37.895  25.033  14.367
76210W        W48558  11.628  11.254  13.391
76211W        W48559   2.232  14.638   0.937
76212W        W48560  13.123  39.917   1.795
76213W        W48561  10.668  40.016   0.739
76214W        W48562  16.773   1.294  14.973
76215W        W48563  22.641  11.258   0.306
76216W        W48564   0.472  18.278   2.246
76217W        W48565  14.672  23.011   0.256
76218W        W48566   1.771  41.380   2.826
76219W        W48567  32.928   5.285   4.174
76220W        W48568   1.734  32.528  13.869
76221W        W48569  29.594   3.359   5.086
76222W        W48570   3.758  31.566  11.503
76223W        W48571   8.213   9.778  13.045
76224W        W48572  28.955  31.570  13.853
76225W        W48573  42.898  39.989   4.353
76226W        W48574  15.309  20.115   3.646
76227W        W48575  21.593  31.915  11.056
76228W        W48576  26.097  24.672  13.444
76229W        W48577  24.129  24.056   3.231
76230W        W48578  27.539  39.998   0.926
76231W        W48579  21.022  15.800  13.009
76232W        W48580   8.312   0.791  11.028
76233W        W48581  42.952  29.637  12.097
76234W        W48582  39.921  23.103   1.916
76235W        W48583  26.682  17.708  14.480
76236W        W48584  10.738  17.307  13.428
76237W        W48585  22.025  22.232  12.470
76238W        W48586  28.617  38.490  10.996
76239W        W48587   9.670  14.805  14.854
76240W        W48588  42.429  40.492   4.162
76241W        W48589  11.330  41.909   1.730
76242W        W48590  22.540   8.291  10.474
76243W        W48591   6.207  42.949  13.473
76244W        W48592  22.640  23.223   4.198
76245W        W48593  12.236   2.238  14.436
76246W        W48594  28.058   5.400  13.402
76247W        W48595  10.157  42.880  11.535
76248W        W48596  28.936  30.150   0.817
76249W        W48597  21.738  11.195   4.604
76250W        W48598  22.625  41.431   3.377
76251W        W48599  34.463  15.585   2.403
76252W        W48600   1.951  11.714  12.953
76253W        W48601  15.643  10.334   2.684
76254W        W48602  15.784  15.624  14.349
76255W        W48603  19.125  16.573   4.220
76256W        W48604   0.311  18.188  11.531
76257W        W48605  17.251  36.457   0.352
76258W        W48606  15.792   6.360  11.565
76259W        W48607   3.305   5.301   2.864
76260W        W48608  42.853   9.700  12.550
76261W        W48609  18.143  10.727  10.947
76262W        W48610  25.561  41.956  13.917
76263W        W48611  35.948  35.082   0.770
76264W        W48612  25.697   6.287   3.211
76265W        W48613  15.639  42.408   3.841
76266W        W48614  34.457  12.676   2.235
76267W        W48615  18.635  44.949   3.336
76268W        W48616   5.704   8.262   1.451
76269W        W48617  32.084   4.289  10.914
76270W        W48618  19.172   0.446  14.789
76271W        W48619   1.974  39.435   3.290
76272W        W48620  25.089  37.566  10.506
76273W        W48621   8.354  41.792  13.053
76274W        W48622  10.361   5.739   2.391
76275W        W48623  22.588  32.624  12.842
76276W        W48624  33.874  30.533  11.038
76277W        W48625  43.367  19.613   2.397
76278W        W48626  38.863  23.115   1.861
76279W        W48627  38.482  27.033   0.726
76280W        W48628  16.201  30.423   1.284
76281W        W48629  32.391  12.659   2.394
76282W        W48630  34.066  30.141   2.285
76283W        W48631  38.828  32.937   3.234
76284W        W48632  17.739  14.626  11.447
76285W        W48633  42.439  42.483   0.426
76286W        W48634  11.285   9.800   1.268
76287W        W48635  33.923  23.071   3.364
76288W        W48636  42.992  39.825   2.866
76289W        W48637  28.568  38.037   3.686
76290W        W48638   9.688  44.396   3.299
76291W        W48639  35.081  22.195   5.728
76292W        W48640  36.371  28.077   3.220
76293W        W48641  43.771  23.052  10.594
76294W        W48642  13.340  12.840  14.808
76295W        W48643  29.555  29.101  12.941
76296W        W48644  40.951  15.160  13.812
76297W        W48645   6.374  10.214   9.926
76298W        W48646  15.803  26.044   2.764
76299W        W48647  32.138  27.596   0.798
76300W        W48648  44.460  35.864  13.984
76301W        W48649  25.695  41.017  11.910
76302W        W48650  26.690  12.235   3.637
76303W        W48651  15.198  10.348  14.885
76304W        W48652  31.635  26.001   2.274
76305W        W48653  10.804  39.441  13.829
76306W        W48654  15.685  43.904   2.877
76307W        W48655  30.977  16.140  12.944
76308W        W48656  20.060  37.571  12.905
76309W        W48657  22.126  21.103   1.815
76310W        W48658   0.269  31.475  12.925
76311W        W48659  39.387  11.191   1.787
76312W        W48660  44.959  27.446   2.314
76313W        W48661   7.857   0.301  11.510
76314W        W48662   0.406  35.869   2.681
76315W        W48663  24.662  34.397  11.612
76316W        W48664  34.404  21.577  11.076
76317W        W48665  29.979  41.024  11.926
76318W        W48666  34.972   7.764   1.784
76319W        W48667   1.844  34.091   4.201
76320W        W48668   1.916  21.601  11.977
76321W        W48669  10.632  17.639   2.714
76322W        W48670  12.677  43.911  11.128
76323W        W48671   4.225  21.511   1.694
76324W        W48672   3.417  36.086  14.893
76325W        W48673  18.743  40.953  10.935
76326W        W48674   4.323   8.693   1.338
76327W        W48675   6.222  19.736  13.906
76328W        W48676   9.233  34.935   0.765
76329W        W48677  18.768  36.963   4.163
76330W        W48678   0.279  35.437   1.428
76331W        W48679  19.256  18.251   1.351
76332W        W48680   3.776  39.896   3.769
76333W        W48681  42.444  44.460  12.348
76334W        W48682  33.955  25.212  10.520
76335W        W48683  44.283  17.692   2.697
76336W        W48684  18.218  34.437   4.155
76337W        W48685  37.427  10.845  12.982
76338W        W48686  24.497  21.555   1.448
76339W        W48687  44.929  13.202  14.910
76340W        W48688  21.256  23.710  14.429
76341W        W48689  33.983  43.299  10.608
76342W        W48690  37.938  39.883  14.819
76343W        W48691  17.217  20.649  13.804
76344W        W48692  11.316  10.243   3.235
76345W        W48693  10.700  31.126  14.484
76346W        W48694   8.369  42.843   1.444
76347W        W48695  23.110  26.085   4.193
76348W        W48696   4.230  28.560   1.799
76349W        W48697  27.102  18.654  12.370
76350W        W48698  22.221  44.292   4.207
76351W        W48699   8.203  41.859   1.439
76352W        W48700  29.653  35.380  14.873
76353W        W48701  10.767  13.752  11.425
76354W        W48702   8.189  31.468  14.482
76355W        W48703  24.646   9.733   1.813
76356W        W48704  27.159  44.371   1.309
76357W        W48705  37.397  26.635   4.262
76358W        W48706   4.941  30.065   2.864
76359W        W48707   7.336  23.058  14.880
76360W        W48708  28.501  33.122   2.757
76361W        W48709   1.257  26.660  10.975
76362W        W48710   0.428  29.510  11.100
76363W        W48711  30.096   7.788   2.404
76364W        W48712  21.713  21.228  13.425
76365W        W48713  23.497  27.955   0.444
76366W        W48714  41.532  44.828  14.496
76367W        W48715  10.210  19.685   9.504
76368W        W48716  25.705  41.302  10.125
76369W        W48717   9.679  25.057  14.356
76370W        W48718  17.290  35.577  10.953
76371W        W48719  25.191  19.110  13.920
76372W        W48720  24.588   0.963   4.223
76373W        W48721  33.529  19.670  14.331
76374W        W48722  38.981  13.267  14.838
76375W        W48723  38.427  42.952   0.896
76376W        W48724  29.043  42.503   3.859
76377W        W48725   6.736   4.812  13.043
76378W        W48726   8.362  24.652  11.424
76379W        W48727  32.085  20.647  10.123
76380W        W48728  12.681  19.058  13.325
76381W        W48729  37.024   1.976   2.316
76382W        W48730   3.765  29.983  10.641
76383W        W48731   4.288  34.930   0.744
76384W        W48732  43.786  17.754   0.278
76385W        W48733  10.803  12.158  14.407
76386W        W48734  20.157  24.145  12.046
76387W        W48735  31.951  30.160  14.794
76388W        W48736  25.160  43.887   0.801
76389W        W48737  12.243   6.749  14.863
76390W        W48738  20.635   9.856   4.136
76391W        W48739  34.372  22.543  12.839
76392W        W48740  33.466  33.913   1.710
76393W        W48741   5.382   5.339   2.852
76394W        W48742  17.692  22.090   3.673
76395W        W48743  40.050  37.534  12.458
76396W        W48744   8.311  31.644   2.872
76397W        W48745  19.562  15.702  12.541
76398W        W48746  25.214  25.968   3.190
76399W        W48747  41.961  14.241   5.312
76400W        W48748  22.066  38.068   2.792
76401W        W48749  23.632   8.765   0.840
76402W        W48750  20.577  36.513  13.514
76403W        W48751  26.685  31.623  13.332
76404W        W48752   8.774   6.390  14.795
76405W        W48753  16.677  26.518  13.815
76406W        W48754  32.891  12.142   3.328
76407W        W48755  41.806  21.186  10.050
76408W        W48756  17.690  26.471   0.272
76409W        W48757  27.533  12.151   3.166
76410W        W48758  16.295  22.249  11.590
76411W        W48759  40.442  42.015  12.490
76412W        W48760  23.532   0.357  12.972
76413W        W48761   8.332   1.837   1.255
76414W        W48762  11.725  29.102   0.438
76415W        W48763  23.237   7.842   1.245
76416W        W48764  17.690  44.418  13.330
76417W        W48765  39.020  20.099   3.634
76418W        W48766  22.744  43.864   0.353
76419W        W48767  25.509  18.111  10.541
76420W        W48768  27.971  35.534   2.356
76421W        W48769  22.095  42.456  14.968
76422W        W48770  24.615  36.355  13.508
76423W        W48771   9.169  27.635   1.435
76424W        W48772  14.681  43.366  12.984
76425W        W48773  25.624   1.865   4.629
76426W        W48774   7.757  11.839  11.463
76427W        W48775   9.311  44.327   0.420
76428W        W48776  32.394  18.204  14.876
76429W        W48777  29.470   3.777   4.145
76430W        W48778  18.260  40.499  11.905
76431W        W48779   1.919   7.338  14.385
76432W        W48780  23.228  13.769   3.327
76433W        W48781  24.030  25.139  14.402
76434W        W48782   0.340  35.023   3.252
76435W        W48783  15.779   1.369   0.366
76436W        W48784   9.881  30.550   5.196
76437W        W48785  23.004  21.175   4.290
76438W        W48786   6.767  15.215   3.631
76439W        W48787  33.948  22.514  13.347
76440W        W48788   0.319  15.248  12.959
76441W        W48789  18.181  30.059  12.565
76442W        W48790  24.222  26.631   1.253
76443W        W48791  30.622  36.867   0.867
76444W        W48792   3.406  13.307   4.660
76445W        W48793  27.947   8.270  11.090
76446W        W48794  28.484  35.872   4.153
76447W        W48795  41.533  21.200   3.368
76448W        W48796  37.463  16.220  14.765
76449W        W48797   7.227  24.562  12.858
76450W        W48798  29.946  32.999   4.355
76451W        W48799  29.006  12.731  10.458
76452W        W48800  24.552  24.643  10.572
76453W        W48801   8.797  14.786  11.607
76454W        W48802  28.561  42.403   3.386
76455W        W48803  25.055   9.856   2.854
76456W        W48804  30.023  39.334   2.353
76457W        W48805  22.237  33.411  13.902
76458W        W48806  22.194   2.276   3.236
76459W        W48807   7.877  29.962   3.861
76460W        W48808  41.952   2.299  10.453
76461W        W48809  13.823  17.643   3.677
76462W        W48810  19.596   2.298  13.427
76463W        W48811  34.910  14.129   1.717
76464W        W48812  32.015   4.788  12.501
76465W        W48813  35.502  43.777  11.087
76466W        W48814  21.153  39.823   0.446
76467W        W48815  24.626  42.923  14.760
76468W        W48816  28.022  21.646   3.662
76469W        W48817  35.604  28.155  12.540
76470W        W48818  30.418  13.169  12.833
76471W        W48819  12.356   4.892  11.008
76472W        W48820  14.325   8.330  11.928
76473W        W48821   8.815   0.377   1.849
76474W        W48822  44.501  12.139   2.789
76475W        W48823  43.813  44.501  13.488
76476W        W48824  21.044  27.005  12.550
76477W        W48825  25.615  35.374  10.465
76478W        W48826  15.306  27.998  10.523
76479W        W48827  43.438   4.320   1.762
76480W        W48828  26.031   1.286   3.720
76481W        W48829  21.745   5.919   4.266
76482W        W48830  24.594  16.312   0.261
76483W        W48831  21.143   9.291   1.897
76484W        W48832  27.521  41.455  13.516
76485W        W48833  16.684  18.150  11.012
76486W        W48834  41.955  28.497  13.978
76487W        W48835  44.362  21.726  11.053
76488W        W48836  32.552  38.513  10.614
76489W        W48837  36.447  30.415   1.255
76490W        W48838  38.336  41.009   2.769
76491W        W48839   2.740  35.452   2.822
76492W        W48840  28.486  43.506   3.305
76493W        W48841  23.731  24.688  11.922
76494W        W48842  36.569   5.240  10.562
76495W        W48843   9.365   3.312  11.032
76496W        W48844  39.938  16.133  14.948
76497W        W48845  12.145   1.823   4.169
76498W        W48846  44.400  24.105  14.370
76499W        W48847  21.043  39.978  13.014
76500W        W48848   5.226  23.186  10.462
76501W        W48849   6.267  44.956  12.834
76502W        W48850  35.993   9.831  11.514
76503W        W48851  43.428   6.221  12.834
76504W        W48852  15.131  30.456   1.286
76505W        W48853  18.681  16.658  10.518
76506W        W48854   7.903  16.114  12.401
76507W        W48855  32.555  17.279  13.405
76508W        W48856  19.621  32.582  11.417
76509W        W48857  18.726  26.643   2.380
76510W        W48858  43.324   4.793   0.774
76511W        W48859  43.925   9.643  12.934
76512W        W48860  44.293  39.824   1.334
76513W        W48861  23.021  11.168  11.056
76514W        W48862  27.553  28.018  13.924
76515W        W48863  26.206   9.308   2.282
76516W        W48864  29.527  28.021  14.955
76517W        W48865  28.171  20.172  13.791
76518W        W48866  21.141  27.176   1.752
76519W        W48867  23.026  36.511  11.095
76520W        W48868  22.017  10.826   0.279
76521W        W48869  30.990  44.004   4.258
76522W        W48870  10.336  10.677   3.164
76523W        W48871  15.140  38.970   2.303
76524W        W48872  15.749  31.095  13.994
76525W        W48873  39.320  17.242   0.823
76526W        W48874   7.235  21.065   0.242
76527W        W48875  22.165  17.706   1.789
76528W        W48876  16.629   3.222   4.626
76529W        W48877  38.962  42.960  12.435
76530W        W48878   4.261   4.861  11.409
76531W        W48879  31.533  33.121   4.747
76532W        W48880   0.303  39.937   4.697
76533W        W48881  38.487   6.274  13.807
76534W        W48882  11.731   6.326  14.275
76535W        W48883  27.688  34.495   3.257
76536W        W48884  26.604  28.041  12.346
76537W        W48885  33.438   2.448  12.488
76538W        W48886  16.777   8.180   4.170
76539W        W48887  22.023   6.873   3.316
76540W        W48888  40.050  41.905  12.418
76541W        W48889  20.736  23.233   3.259
76542W        W48890  18.604   4.719   3.188
76543W        W48891   0.950   4.801  11.034
76544W        W48892  34.570  10.775  10.895
76545W        W48893  13.200  21.092  14.983
76546W        W48894   8.706  16.215   4.725
76547W        W48895  30.512  27.658   3.817
76548W        W48896  22.091  33.400   3.282
76549W        W48897  12.211   5.423  10.904
76550W        W48898  30.992  15.734  12.496
76551W        W48899   4.931  33.125  12.935
76552W        W48900  16.761   6.853  13.807
76553W        W48901  25.566   4.731   3.221
76554W        W48902   2.267  17.574  14.029
76555W        W48903   7.733   5.844  12.025
76556W        W48904  27.126  29.629  14.515
76557W        W48905  16.208   4.860  10.118
76558W        W48906  40.872   2.766  10.913
76559W        W48907   0.950  34.567  12.556
76560W        W48908  28.600  19.681   3.822
76561W        W48909  43.352  18.195  12.978
76562W        W48910  22.124  26.105  14.425
76563W        W48911  36.399  16.197   4.304
76564W        W48912  18.712  29.479   0.730
76565W        W48913  32.545  21.541   1.263
76566W        W48914  31.612  21.557  12.573
76567W        W48915  36.093  43.499  11.034
76568W        W48916  42.875  41.910   0.891
76569W        W48917   5.306  27.042   0.912
76570W        W48918  20.256  40.854  11.036
76571W        W48919  26.073  35.484  12.065
76572W        W48920  21.702  18.223   0.747
76573W        W48921  44.499  38.502  11.499
76574W        W48922  32.396   0.435   0.360
76575W        W48923   8.268  15.822  11.908
76576W        W48924   9.218  36.878  11.072
76577W        W48925  23.088   3.403   2.252
76578W        W48926  44.277  42.991   0.945
76579W        W48927  36.019  18.773  14.895
76580W        W48928  34.603  22.623  10.087
76581W        W48929  23.074  43.460   1.312
76582W        W48930  31.075  25.513   3.318
76583W        W48931   7.231   1.833  11.552
76584W        W48932  15.116  27.986  11.069
76585W        W48933  36.463  13.608  12.042
76586W        W48934   9.647  13.774  11.960
76587W        W48935  38.917  20.696  14.316
76588W        W48936  26.176  20.093   0.792
76589W        W48937  39.887   4.919   4.688
76590W        W48938  29.951  36.590  14.915
76591W        W48939  41.937  20.543  14.788
76592W        W48940  30.526  32.416  10.898
76593W        W48941  10.366  25.707  11.955
76594W        W48942  34.051  34.471  12.868
76595W        W48943  27.471   0.321  11.472
76596W        W48944  10.252  12.737  11.451
76597W        W48945  38.465  11.269  14.958
76598W        W48946  18.767   4.778   0.469
76599W        W48947  33.521  24.517   4.222
76600W        W48948  11.623  16.680   3.334
76601W        W48949  36.403  44.810  10.987
76602W        W48950  36.998   6.227  12.841
76603W        W48951  11.858  37.994  13.838
76604W        W48952  40.815  10.306  13.015
76605W        W48953  37.433  40.382  14.285
76606W        W48954   8.865  18.634  12.389
76607W        W48955  15.652  23.177  12.918
76608W        W48956  22.191  14.300  13.043
76609W        W48957   9.371  42.814  10.603
76610W        W48958   8.370  32.905   3.382
76611W        W48959  39.983  43.819   0.775
76612W        W48960  38.361   3.764   0.252
76613W        W48961   9.718  27.050   2.197
76614W        W48962  35.424  42.424  13.840
76615W        W48963   0.266  42.404   1.876
76616W        W48964  34.026  15.684  14.408
76617W        W48965  31.898  21.535  13.977
76618W        W48966   3.807  27.613  11.552
76619W        W48967  44.450  27.982  12.580
76620W        W48968  33.125  12.125   0.829
76621W        W48969  13.214  12.151  11.508
76622W        W48970  23.993  36.090   1.356
76623W        W48971  10.680  19.274  12.376
76624W        W48972  40.460  35.368  10.899
76625W        W48973  33.554  14.818   2.816
76626W        W48974  37.924  43.818   4.269
76627W        W48975  25.537  27.990  11.577
76628W        W48976  26.656  39.338   2.243
76629W        W48977  37.425  42.831  10.075
76630W        W48978  13.276  13.350  11.478
76631W        W48979  36.547   2.892  11.129
76632W        W48980   7.345  21.532  11.007
76633W        W48981  43.009  19.692  12.893
76634W        W48982   5.874  21.606  14.767
76635W        W48983   3.428  29.516   3.810
76636W        W48984   8.169   8.876   4.243
76637W        W48985  16.295  17.069  12.994
76638W        W48986  16.221  23.644  12.412
76639W        W48987  28.022  30.602   4.255
76640W        W48988  28.672   7.723   0.740
76641W        W48989  28.021  40.803   4.337
76642W        W48990  36.876  43.446   0.390
76643W        W48991  29.566  27.483   1.696
76644W        W48992  31.923   4.738  13.467
76645W        W48993   3.348  17.656   2.314
76646W        W48994   0.853   1.239  12.532
76647W        W48995  16.679  16.295   0.472
76648W        W48996   5.355  32.086  10.940
76649W        W48997  10.290  35.603   2.841
76650W        W48998  20.090  33.960   3.864
76651W        W48999   9.644  33.019  14.316
76652W        W49000  25.105  30.530  11.946
76653W        W49001  16.737  39.408  11.032
76654W        W49002  29.613  27.679   2.670
76655W        W49003   2.244  31.500   1.362
76656W        W49004  13.812  16.662   2.703
76657W        W49005  36.489  25.586   4.639
76658W        W49006  22.515  41.925   1.221
76659W        W49007  28.488  28.669   2.259
76660W        W49008  17.560  25.204   2.281
76661W        W49009  30.076   5.913   1.352
76662W        W49010  30.076  16.308  11.105
76663W        W49011  13.684   9.315  11.417
76664W        W49012  23.686  39.859   3.288
76665W        W49013  25.969  44.457  12.517
76666W        W49014  44.504  32.004   2.831
76667W        W49015  40.910  26.608  13.826
76668W        W49016  23.636  12.290   2.342
76669W        W49017  13.274  30.600   3.633
76670W        W49018   0.468   1.445   2.687
76671W        W49019  21.193  25.204   4.783
76672W        W49020  41.365   8.711   5.097
76673W        W49021   0.362  27.594  14.502
76674W        W49022  11.718  29.607  11.442
76675W        W49023  33.130   0.393  14.391
76676W        W49024  43.836  20.570   2.738
76677W        W49025   1.377  24.079   3.644
76678W        W49026  19.616  10.700  11.942
76679W        W49027   2.234  22.673   1.816
76680W        W49028  28.441  23.500  11.910
76681W        W49029   8.739   5.763  10.425
76682W        W49030  35.021   4.803  13.394
76683W        W49031  25.547  15.180   3.732
76684W        W49032  33.021   0.960   3.266
76685W        W49033  35.054  13.177  11.957
76686W        W49034  20.205   3.900  11.422
76687W        W49035   3.864   7.679  13.420
76688W        W49036  36.098   3.709   3.735
76689W        W49037  17.722  15.172  10.943
76690W        W49038  22.218  39.948   2.306
76691W        W49039   4.817  34.063  12.892
76692W        W49040  34.024  11.239  14.891
76693W        W49041  20.672  39.556   4.164
76694W        W49042  19.143  35.860   0.301
76695W        W49043   8.792   3.922   0.965
76696W        W49044  19.744  11.731   3.373
76697W        W49045  18.100  24.691  14.306
76698W        W49046   6.203  15.179  12.932
76699W        W49047   8.743  15.299   3.343
76700W        W49048  27.021  28.608   2.398
76701W        W49049   3.409  14.143  11.477
76702W        W49050  44.428  15.688   4.793
76703W        W49051  20.158  27.940  10.625
76704W        W49052  31.076  11.167  11.092
76705W        W49053  12.144  35.491  10.536
76706W        W49054  37.045  19.566  12.975
76707W        W49055  15.210  32.098   4.315
76708W        W49056  26.207  17.740  10.897
76709W        W49057  36.948  17.751   1.738
76710W        W49058   5.757  27.108   4.240
76711W        W49059  33.551  20.243  11.101
76712W        W49060  28.456  22.526   0.360
76713W        W49061  38.374  40.864  14.987
76714W        W49062  14.815  21.237   1.220
76715W        W49063   6.803  11.349   4.744
76716W        W49064  24.199  16.078  13.893
76717W        W49065  16.587   4.857  11.529
76718W        W49066  31.564  28.680   2.303
76719W        W49067  32.077   4.709  10.130
76720W        W49068   6.719  39.907   3.850
76721W        W49069   4.883  26.060   2.786
76722W        W49070  13.240  33.469   0.789
76723W        W49071  32.418  36.352  11.947
76724W        W49072  40.474  33.028  13.396
76725W        W49073  42.972  18.729  13.423
76726W        W49074   3.369  29.536   4.284
76727W        W49075  13.644   2.786   4.241
76728W        W49076  27.586  18.714  12.553
76729W        W49077  39.484   6.369  14.963
76730W        W49078  33.886   9.653   4.836
76731W        W49079  13.130  11.641  14.840
76732W        W49080  10.143  10.824  11.998
76733W        W49081  29.522  38.902  12.012
76734W        W49082  13.682   4.280  12.880
76735W        W49083   3.343   2.911   1.380
76736W        W49084   7.883  39.989   2.254
76737W        W49085   7.728  17.214   1.859
76738W        W49086  30.112  32.425   3.759
76739W        W49087  27.044  19.082   4.132
76740W        W49088   7.331  20.168   2.397
76741W        W49089  16.111  39.051   3.326
76742W        W49090  16.112  42.386  11.980
76743W        W49091  29.650   6.742   0.967
76744W        W49092  41.421  23.193  12.350
76745W        W49093  12.354  24.129   0.268
76746W        W49094  15.245  13.754  13.843
76747W        W49095  27.458   9.840   1.316
76748W        W49096   1.326  32.139   4.157
76749W        W49097  38.372  15.094   3.263
76750W        W49098  40.912   0.770   3.842
76751W        W49099  30.994  14.149  12.022
76752W        W49100  41.829  18.787   4.213
76753W        W49101  23.057  19.164   2.184
76754W        W49102  15.818  15.182  10.637
76755W        W49103  22.545  38.930   1.769
76756W        W49104  35.989  36.005   4.259
76757W        W49105  27.581   0.914   3.750
76758W        W49106  22.059  20.202  14.896
76759W        W49107  22.555  17.593  11.386
76760W        W49108  18.640   2.395   0.463
76761W        W49109  44.419  26.586   0.478
76762W        W49110   5.270  12.819  14.025
76763W        W49111   5.757  16.268   2.366
76764W        W49112  14.237  26.155  12.430
76765W        W49113  35.384  19.159  14.849
76766W        W49114   0.843   2.913   3.722
76767W        W49115  32.607  15.250  13.025
76768W        W49116   3.835  44.370   0.418
76769W        W49117   8.339  26.490   4.153
76770W        W49118  30.035  23.629  13.871
76771W        W49119  19.046   1.805   1.886
76772W        W49120  21.624  39.064  12.062
76773W        W49121  19.135  25.159   3.158
76774W        W49122  14.611  13.122  11.509
76775W        W49123  24.570  42.848   0.480
76776W        W49124  38.823  17.627  13.444
76777W        W49125  28.983   1.967  10.404
76778W        W49126  44.825  38.363  10.604
76779W        W49127  44.369  14.834  11.997
76780W        W49128  20.661  19.265  12.043
76781W        W49129  20.038  41.359   4.315
76782W        W49130  14.603  27.176  10.961
76783W        W49131  35.438   7.774  13.948
76784W        W49132  17.298  20.687  11.893
76785W        W49133   2.277   2.908  13.966
76786W        W49134  18.190   0.878  12.975
76787W        W49135  33.922  29.940   0.434
76788W        W49136  23.669   3.806   4.782
76789W        W49137  18.787  28.006   4.657
76790W        W49138  30.975  25.658   3.834
76791W        W49139  39.849  16.750  12.891
76792W        W49140   6.281  16.151   0.916
76793W        W49141  11.765  11.346  10.950
76794W        W49142  11.277  38.408   4.166
76795W        W49143  28.656  29.647   4.268
76796W        W49144  26.683  13.309  14.909
76797W        W49145  37.410   1.353  13.935
76798W        W49146  42.921   3.926  14.016
76799W        W49147  36.379  43.925   3.748
76800W        W49148  31.910   6.186  11.016
76801W        W49149  31.483  28.982  14.377
76802W        W49150  40.911   0.814   2.222
76803W        W49151  36.874  10.363   2.327
76804W        W49152   7.900  44.801   3.864
76805W        W49153  43.991  19.079  12.889
76806W        W49154  33.129   0.743   4.675
76807W        W49155   8.875  37.866   2.798
76808W        W49156  34.921  37.910  11.612
76809W        W49157  21.545  27.082   0.470
76810W        W49158  26.051   4.428  14.410
76811W        W49159  44.445  41.940  13.526
76812W        W49160  34.374  12.182  12.369
76813W        W49161  12.825  42.900   3.801
76814W        W49162  32.004  32.977  13.383
76815W        W49163  30.002   7.261  13.316
76816W        W49164  43.856  19.549   0.926
76817W        W49165  40.974  23.106   2.873
76818W        W49166  38.517   8.306   2.686
76819W        W49167   2.448  39.441  13.415
76820W        W49168  40.021   8.838  14.900
76821W        W49169  24.511  28.561  13.890
76822W        W49170  25.499   3.389   3.292
76823W        W49171  25.991   1.874   3.273
76824W        W49172  38.830  11.804   3.244
76825W        W49173   8.352  20.082   1.713
76826W        W49174   3.947  37.528   4.630
76827W        W49175  39.910  32.140   1.714
76828W        W49176  29.160  38.390  11.059
76829W        W49177  14.752  44.401  14.378
76830W        W49178  40.464  17.619  11.495
76831W        W49179  18.204  11.657   3.855
76832W        W49180  30.944  39.460   3.247
76833W        W49181  16.644  39.539   4.652
76834W        W49182  11.207  44.964   4.134
76835W        W49183  16.276  37.541   5.083
76836W        W49184   0.839   8.790   1.363
76837W        W49185  18.183  41.467   2.213
76838W        W49186   9.292  16.633   0.316
76839W        W49187  24.687  43.838   0.304
76840W        W49188  20.124  18.785   0.774
76841W        W49189  44.350  34.009  13.393
76842W        W49190  14.624  20.070   3.709
76843W        W49191  21.630  22.999  14.817
76844W        W49192  13.195  40.016   4.755
76845W        W49193  10.378  30.917   1.871
76846W        W49194   8.764  28.473   2.778
76847W        W49195  37.845  19.206  12.450
76848W        W49196  38.389  15.219   2.351
76849W        W49197   5.919  34.447  13.996
76850W        W49198  10.150  40.002   3.848
76851W        W49199  15.635  21.578   0.460
76852W        W49200  35.464  13.190  13.412
76853W        W49201  24.212  42.894  14.883
76854W        W49202  17.667  25.156   4.174
76855W        W49203  28.073  11.772  13.923
76856W        W49204  44.944  36.509  14.481
76857W        W49205  22.085  43.780  10.486
76858W        W49206  29.630  10.222   1.291
76859W        W49207  16.289  16.746   0.362
76860W        W49208  30.511  40.410   3.302
76861W        W49209   4.393  24.979  12.903
76862W        W49210  41.526  42.820  14.837
76863W        W49211  19.110   9.703   3.310
76864W        W49212  12.768  17.105  14.996
76865W        W49213  21.167   0.839   2.688
76866W        W49214   8.223  39.496  12.056
76867W        W49215  24.723  30.595  14.409
76868W        W49216  26.515   1.246  12.371
76869W        W49217  39.985  42.352   2.257
76870W        W49218  42.832  35.062  12.911
76871W        W49219  32.515  28.579   2.870
76872W        W49220  44.499   4.310   3.633
76873W        W49221  26.961   0.753  10.935
76874W        W49222  24.144  28.151  14.314
76875W        W49223  43.918  37.945  13.496
76876W        W49224  29.427  25.011   4.240
76877W        W49225  28.931   1.363   2.213
76878W        W49226   5.261   3.220  13.808
76879W        W49227  31.555   4.758  12.478
76880W        W49228  11.303  35.097  11.885
76881W        W49229  18.550  39.325   3.761
76882W        W49230  26.101   4.339   4.617
76883W        W49231  19.045  26.995   1.834
76884W        W49232   9.242  32.426   4.260
76885W        W49233   1.255  40.518   3.302
76886W        W49234  37.582  29.010  13.438
76887W        W49235  26.526  33.606  14.956
76888W        W49236  37.566  41.822   1.817
76889W        W49237   2.745  13.123   2.222
76890W        W49238  39.435  17.771  14.322
76891W        W49239  20.075  12.356  13.847
76892W        W49240  31.066  35.947   3.337
76893W        W49241  42.325  30.994  12.886
76894W        W49242  14.301  21.706   4.716
76895W        W49243  18.051  14.224  14.779
76896W        W49244  30.438  26.544  12.853
76897W        W49245  37.467  38.442  13.408
76898W        W49246  22.547   1.331  10.892
76899W        W49247  44.502  42.790   0.344
76900W        W49248   2.259   5.819  13.806
76901W        W49249  11.196   1.239   1.392
76902W        W49250   4.738  12.737   3.718
76903W        W49251   5.257   0.800  13.449
76904W        W49252  13.761  35.577  12.543
76905W        W49253  18.258   7.345   0.443
76906W        W49254  19.643   8.169   4.165
76907W        W49255  20.063  37.084  14.015
76908W        W49256  26.056  19.090  12.874
76909W        W49257  36.426   0.860   3.344
76910W        W49258  13.290   5.744  11.012
76911W        W49259   5.295   2.307  10.478
76912W        W49260  30.932  15.087  10.523
76913W        W49261  24.213  31.462  14.300
76914W        W49262  42.978  29.531  10.515
76915W        W49263  25.470  35.960   3.744
76916W        W49264  40.007  23.651  11.529
76917W        W49265  25.099   6.416   1.792
76918W        W49266  33.565  28.463   1.703
76919W        W49267  18.179  30.993   4.334
76920W        W49268  21.167  20.257   3.754
76921W        W49269  29.575  38.405   3.698
76922W        W49270  41.533  24.603   0.478
76923W        W49271  30.658   9.393  14.001
76924W        W49272  40.366  26.123  13.028
76925W        W49273  19.222  25.700   3.784
76926W        W49274   8.343  29.051   2.351
76927W        W49275  33.061  40.912  11.380
76928W        W49276  35.568  16.655  12.831
76929W        W49277  24.584  25.146   3.351
76930W        W49278  12.348   7.277   0.782
76931W        W49279  10.814   6.777   5.616
76932W        W49280   5.830   6.720   3.304
76933W        W49281   7.775  10.847  11.566
76934W        W49282   8.708  29.107  10.530
76935W        W49283  21.513  27.602   3.812
76936W        W49284  25.488  11.690   2.263
76937W        W49285  14.758   3.751  10.592
76938W        W49286  23.595  15.586  10.140
76939W        W49287   4.848  40.822  11.857
76940W        W49288   1.426  18.092  13.061
76941W        W49289   6.857  29.156  11.109
76942W        W49290  14.611  35.055  14.479
76943W        W49291   7.672  34.039   0.332
76944W        W49292  12.202   6.749   0.937
76945W        W49293  34.940  26.184   0.339
76946W        W49294  31.490  12.166   0.795
76947W        W49295  30.648  14.763   3.215
76948W        W49296  42.869  35.434   4.157
76949W        W49297  33.400  29.476  12.477
76950W        W49298  22.694  13.774   3.770
76951W        W49299   9.734  14.287  13.853
76952W        W49300  43.419   5.335   3.169
76953W        W49301  33.396  21.170  11.878
76954W        W49302   4.835  29.616  12.543
76955W        W49303   9.248   7.704  14.485
76956W        W49304  33.622  23.157  10.483
76957W        W49305  30.606  21.725   4.137
76958W        W49306  29.480   0.842  10.469
76959W        W49307  32.613   0.300  12.958
76960W        W49308   0.389  37.007   0.399
76961W        W49309  24.159  25.964   0.805
76962W        W49310  21.647  32.999   0.944
76963W        W49311  23.614   4.425   0.379
76964W        W49312   6.265   8.720  11.907
76965W        W49313  26.697  34.455   2.716
76966W        W49314  32.969  30.414   4.166
76967W        W49315  18.648   7.271   3.225
76968W        W49316   3.400   8.339  14.288
76969W        W49317   0.274  42.288  14.995
76970W        W49318  44.497  15.702   2.672
76971W        W49319  20.138  44.900   0.950
76972W        W49320  21.171  34.925  14.899
76973W        W49321   2.383   5.392   0.336
76974W        W49322  15.730  17.723  12.358
76975W        W49323  34.947  38.477   4.203
76976W        W49324  41.508  41.991  14.760
76977W        W49325  43.825   0.327   1.915
76978W        W49326  11.300  39.939   2.257
76979W        W49327   4.824  18.565  12.565
76980W        W49328  15.177  33.946  11.914
76981W        W49329   8.346  32.912  12.880
76982W        W49330  10.156  40.434  14.767
76983W        W49331  25.573   4.765  11.916
76984W        W49332  25.539  37.842   1.272
76985W        W49333  19.260  37.376  11.008
76986W        W49334  27.045  42.486  11.116
76987W        W49335  37.876   8.272   1.888
76988W        W49336  39.924  26.000  14.776
76989W        W49337  32.903  38.367   2.867
76990W        W49338   9.685  28.993  10.907
76991W        W49339  28.646  12.251  11.588
76992W        W49340  31.983  21.557  14.760
76993W        W49341  11.313  36.352   3.852
76994W        W49342  11.171  31.045  11.462
76995W        W49343  42.969  30.131  14.771
76996W        W49344  33.015   0.301  12.833
76997W        W49345  37.947  29.053   4.152
76998W        W49346  22.630  41.318  13.866
76999W        W49347  16.205  15.728   5.154
77000W        W49348   8.263  41.830   3.772
77001W        W49349  24.488  16.159  12.381
77002W        W49350  12.157  20.708  12.500
77003W        W49351  16.645  43.847  10.443
77004W        W49352  12.349   2.408  13.876
77005W        W49353   8.688   9.194   3.870
77006W        W49354  22.168   9.258   1.220
77007W        W49355  40.923  27.512  13.821
77008W        W49356  39.893   1.258   2.286
77009W        W49357  23.723  42.522  14.969
77010W        W49358  25.012  40.399   3.227
77011W        W49359  13.274  19.563   0.324
77012W        W49360  29.613  44.793   1.276
77013W        W49361  25.481  25.521   4.773
77014W        W49362   1.966  21.241   3.819
77015W        W49363  22.034  26.132   0.934
77016W        W49364  32.026  12.785  11.004
77017W        W49365  19.108  41.999  12.537
77018W        W49366  42.381  36.556  11.566
77019W        W49367  31.113  15.186  11.588
77020W        W49368  13.734  28.093  13.014
77021W        W49369  44.502  19.233  11.954
77022W        W49370  11.634   4.413   0.863
77023W        W49371   9.371  40.370  13.329
77024W        W49372  38.536  18.648   2.795
77025W        W49373  20.637  34.484   3.193
77026W        W49374  28.493  27.561  12.866
77027W        W49375  11.356  11.236  13.970
77028W        W49376  13.690  40.337   4.764
77029W        W49377   7.745   2.856   1.445
77030W        W49378  20.610  30.589   0.257
77031W        W49379  36.034   5.379  14.433
77032W        W49380  27.997  12.203   0.399
77033W        W49381   7.809  36.851   4.331
77034W        W49382  26.147  37.457   3.662
77035W        W49383  42.949  20.602   4.133
77036W        W49384  30.420  10.308   0.797
77037W        W49385   5.305  18.553  13.468
77038W        W49386  19.162  36.855   1.430
77039W        W49387  24.552  14.765  11.943
77040W        W49388   1.257  18.185  11.015
77041W        W49389  42.028  34.098  14.956
77042W        W49390  26.202  22.574   2.734
77043W        W49391  42.492  11.766  11.464
77044W        W49392   4.354   9.385  12.968
77045W        W49393   9.376  20.631  14.889
77046W        W49394  35.987  37.517  11.492
77047W        W49395   8.286   5.245   2.674
77048W        W49396  14.819  10.191   4.119
77049W        W49397  22.556  18.293   1.286
77050W        W49398  28.005  17.785  14.924
77051W        W49399   1.808  16.174  12.068
77052W        W49400  39.817  33.429   1.392
77053W        W49401  38.438  35.385  14.395
77054W        W49402   1.288  30.067   3.381
77055W        W49403  32.400  25.652  11.891
77056W        W49404  14.256  33.024   2.284
77057W        W49405  25.183  31.636   1.870
77058W        W49406  13.246  19.668  10.625
77059W        W49407  12.632  16.292   3.726
77060W        W49408  34.953   5.277   1.820
77061W        W49409  36.546  38.865  11.993
77062W        W49410  20.605  18.228  13.525
77063W        W49411  38.392  44.484   1.387
77064W        W49412  34.016  10.852   1.377
77065W        W49413   5.876  29.128   3.173
77066W        W49414  26.006  19.614  10.585
77067W        W49415   3.366  34.478  10.086
77068W        W49416   2.835  12.231   4.133
77069W        W49417  14.802  40.799   0.429
77070W        W49418  39.842  30.540   0.269
77071W        W49419   2.758  31.474  10.569
77072W        W49420  11.281   5.911   3.305
77073W        W49421   9.173  19.131  13.954
77074W        W49422   1.795  24.121   1.834
77075W        W49423  18.144   4.866  14.508
77076W        W49424  16.194   3.914  12.398
77077W        W49425  44.437   6.196  11.055
77078W        W49426  25.074   1.868  13.508
77079W        W49427  23.689  38.378   2.794
77080W        W49428  42.359  17.694  12.029
77081W        W49429  43.334  43.410   0.825
77082W        W49430  24.126   3.831  13.980
77083W        W49431  12.344  28.587   1.733
77084W        W49432  23.098  21.100   0.921
77085W        W49433   1.876  30.457  12.033
77086W        W49434  36.497  43.018   0.951
77087W        W49435  38.516   4.894  11.122
77088W        W49436  25.606  17.194   4.673
77089W        W49437  31.592  22.557   3.306
77090W        W49438  24.017  13.753   3.793
77091W        W49439  43.476  33.566   2.735
77092W        W49440  27.550  30.044   2.903
77093W        W49441  10.693   2.292   1.420
77094W        W49442   8.822  31.041  12.084
77095W        W49443  33.956   7.763   4.827
77096W        W49444  33.567  32.064  13.330
77097W        W49445  17.633  26.533  12.838
77098W        W49446  37.397  30.437  12.836
77099W        W49447  31.992  27.494  11.438
77100W        W49448   6.736  25.195   0.354
77101W        W49449  14.167   1.750  13.327
77102W        W49450  24.505  36.985   3.840
77103W        W49451  14.321  20.239   4.223
77104W        W49452  31.435   5.781   1.828
77105W        W49453  11.708  18.632  11.595
77106W        W49454   8.736  21.211  13.868
77107W        W49455  15.731  28.018   1.367
77108W        W49456   5.898  25.083   1.330
77109W        W49457  21.521   3.710  13.376
77110W        W49458  35.877  12.198  14.403
77111W        W49459   9.161  35.962  11.120
77112W        W49460   3.309  41.913   4.664
77113W        W49461  43.417  22.527  12.029
77114W        W49462  25.186   0.850   0.400
77115W        W49463  38.983  32.470  11.449
77116W        W49464  41.823   7.254  12.439
77117W        W49465   1.766  10.741   1.748
77118W        W49466  35.855  43.407  10.412
77119W        W49467   2.725  23.157  13.882
77120W        W49468  31.150  28.024  10.445
77121W        W49469  40.861   1.481   0.465
77122W        W49470  40.308  39.958  14.017
77123W        W49471  39.992   9.777   1.428
77124W        W49472  31.627  24.709  12.895
77125W        W49473  38.038  37.046   1.444
77126W        W49474  23.705  37.056  13.459
77127W        W49475  24.035  12.116  11.383
77128W        W49476   5.356  34.985  11.928
77129W        W49477   6.825  39.335   4.245
77130W        W49478  34.508  25.999   2.876
77131W        W49479  25.512  19.195  12.402
77132W        W49480  31.913   9.207  14.409
77133W        W49481   7.285  30.120   4.634
77134W        W49482  44.485  13.326  12.429
77135W        W49483   6.784   2.250  14.365
77136W        W49484  12.305  15.289  11.385
77137W        W49485  10.653  25.621   1.333
77138W        W49486  43.819  38.931   4.767
77139W        W49487  10.646  34.456  11.116
77140W        W49488   3.332  41.346   2.188
77141W        W49489   0.330  13.111  14.480
77142W        W49490  21.217  14.706  13.507
77143W        W49491   8.197  38.403  13.546
77144W        W49492  31.962   2.794  14.953
77145W        W49493  26.633   1.256  11.528
77146W        W49494  40.802  40.051   2.761
77147W        W49495   4.830  15.649   4.320
77148W        W49496   8.804  28.127  11.956
77149W        W49497  34.458  22.697   5.132
77150W        W49498  13.120  37.933  13.422
77151W        W49499  40.322  13.345  14.817
77152W        W49500  14.603  28.560  13.840
77153W        W49501  22.053   4.762  13.985
77154W        W49502  33.969  40.442   4.141
77155W        W49503   4.420  24.989   1.916
77156W        W49504   5.305  25.082  12.423
77157W        W49505   9.771  34.894   3.298
77158W        W49506  34.959   0.846   3.179
77159W        W49507  43.974   3.931  11.449
77160W        W49508  35.448  20.765  14.354
77161W        W49509   4.938   3.721   1.364
77162W        W49510  40.007  24.663  10.505
77163W        W49511  12.342  13.322  14.449
77164W        W49512  36.454  27.130  12.073
77165W        W49513  44.357   0.297   1.862
77166W        W49514  35.861  14.304  11.876
77167W        W49515  11.777  11.321   0.921
77168W        W49516  41.303  37.894  12.473
77169W        W49517  11.330   1.923  13.385
77170W        W49518   2.398  22.141   4.239
77171W        W49519  39.396  40.995   0.341
77172W        W49520  39.481  39.033   2.739
77173W        W49521  22.180  38.340  12.394
77174W        W49522  20.250   1.908  13.407
77175W        W49523  15.683  26.651   3.737
77176W        W49524  30.536   0.338   4.664
77177W        W49525  23.129  29.980   2.780
77178W        W49526   7.676  25.689   4.647
77179W        W49527  12.817   1.321  12.390
77180W        W49528   8.896  40.448  14.930
77181W        W49529  22.129  32.568  14.830
77182W        W49530  13.803  26.592  13.412
77183W        W49531   2.820  34.116  10.638
77184W        W49532  41.516  20.036  11.383
77185W        W49533  31.630  41.999  11.385
77186W        W49534  44.914  28.554  14.794
77187W        W49535  11.809  35.960   3.734
77188W        W49536  39.542  27.638  13.989
77189W        W49537  21.570  27.673   0.963
77190W        W49538  17.697  13.244  12.826
77191W        W49539  44.845  14.730   4.777
77192W        W49540  30.163  31.003   3.781
77193W        W49541  43.333   9.684   3.167
77194W        W49542  20.675  41.888  11.429
77195W        W49543  23.202   6.299   4.836
77196W        W49544  18.585  10.150   5.144
77197W        W49545  20.054  11.249  10.954
77198W        W49546   3.838  34.990   4.710
77199W        W49547  31.543  22.137   1.293
77200W        W49548  13.786  38.878   3.741
77201W        W49549  11.152  19.224   1.801
77202W        W49550  42.029  42.784  12.013
77203W        W49551  15.226   3.919  11.945
77204W        W49552  19.564   3.272  13.532
77205W        W49553   6.771  39.415   4.814
77206W        W49554   6.220  24.052   5.244
77207W        W49555  15.208  26.962   0.483
77208W        W49556  13.233   2.353   5.271
77209W        W49557   3.303  11.359  12.014
77210W        W49558  14.144   8.818  14.283
77211W        W49559  28.160  26.627  10.031
77212W        W49560  12.314   7.678   5.140
77213W        W49561  21.547   7.417   1.430
77214W        W49562  31.420   5.733   5.253
77215W        W49563  11.746  29.990   4.732
77216W        W49564  25.489   6.829   0.342
77217W        W49565  38.359  22.130  11.506
77218W        W49566  19.216  16.714  10.436
77219W        W49567   4.728  12.314  11.548
77220W        W49568  16.794  23.642  12.382
77221W        W49569   2.243   8.811  12.363
77222W        W49570  23.215  25.660   4.280
77223W        W49571  13.160  10.745  12.926
77224W        W49572   9.184  42.916   4.814
77225W        W49573  31.539  29.594   3.311
77226W        W49574  31.020   1.483  11.606
77227W        W49575  44.479  23.552  14.404
77228W        W49576  38.419   6.756   2.315
77229W        W49577   1.237   4.919   1.228
77230W        W49578  32.922  18.591   4.631
77231W        W49579  35.486  21.666  11.411
77232W        W49580  35.598  32.408  11.115
77233W        W49581  33.467  28.573   0.476
77234W        W49582  23.666  29.984  14.396
77235W        W49583  36.968   1.302  12.930
77236W        W49584   6.814  17.691  14.298
77237W        W49585  23.196  12.121   0.412
77238W        W49586  33.486  14.832  10.554
77239W        W49587  29.966  30.985   2.720
77240W        W49588   5.809  24.525  13.817
77241W        W49589   0.936   8.657  13.990
77242W        W49590  40.512  18.060   1.281
77243W        W49591  11.671  33.023   0.464
77244W        W49592  18.654  20.046  12.989
77245W        W49593  43.399   5.262   2.252
77246W        W49594   1.764  15.298  14.838
77247W        W49595  28.172  35.021  12.574
77248W        W49596  28.176  44.305  10.072
77249W        W49597  22.057  29.102   0.306
77250W        W49598   1.773  43.282   3.748
77251W        W49599  40.961   1.381   3.240
77252W        W49600   2.321   0.824   5.251
77253W        W49601  37.363  40.365  12.888
77254W        W49602   2.416  23.661  11.459
77255W        W49603  31.910  39.932  14.814
77256W        W49604  28.953  20.079   1.892
77257W        W49605  25.058  18.564   3.758
77258W        W49606   7.224  26.182   0.246
77259W        W49607  22.240  40.812  10.927
77260W        W49608  33.022  29.930  12.463
77261W        W49609  38.991  41.486   3.810
77262W        W49610  30.064   9.680  10.411
77263W        W49611  38.875   7.753   4.765
77264W        W49612  17.087   6.188  10.077
77265W        W49613  11.843  35.041   4.772
77266W        W49614  39.318  38.427   2.400
77267W        W49615  39.825  10.273   3.298
77268W        W49616  30.522   8.231  10.485
77269W        W49617  16.224   8.706   1.806
77270W        W49618  26.992  31.444  11.473
77271W        W49619  22.050  24.641  11.063
77272W        W49620  39.463  12.611  13.385
77273W        W49621  42.483  24.176   4.771
77274W        W49622   1.735  26.034  11.481
77275W        W49623  21.129  20.248  12.925
77276W        W49624  41.813   8.851  14.332
77277W        W49625   9.870  31.428   2.867
77278W        W49626  36.929  23.490   1.372
77279W        W49627  36.915   1.960   4.799
77280W        W49628  27.129   0.248   3.210
77281W        W49629   7.774   3.450  13.001
77282W        W49630  24.984  32.614   0.836
77283W        W49631  42.781   4.753   4.140
77284W        W49632  40.042  10.641   3.784
77285W        W49633  33.604  22.733   1.868
77286W        W49634  43.410  20.570   3.380
77287W        W49635  22.526  24.992  14.416
77288W        W49636  40.526  17.088  14.882
77289W        W49637   9.302   4.379   3.727
77290W        W49638   6.815  22.582   3.833
77291W        W49639  20.269  34.938   1.317
77292W        W49640  24.657  42.345  10.972
77293W        W49641  24.508  43.504  12.547
77294W        W49642   6.417   7.407   3.185
77295W        W49643  40.406  37.005   2.322
77296W        W49644  20.570  29.526  11.512
77297W        W49645  42.930  31.118   3.633
77298W        W49646  19.254  25.969  14.303
77299W        W49647  12.812  42.335   4.675
77300W        W49648  20.035   5.437  14.939
77301W        W49649  13.702  34.518  14.771
77302W        W49650  34.993   4.286   0.452
77303W        W49651   2.400   4.735  14.010
77304W        W49652   6.872   5.921  11.097
77305W        W49653   8.234  23.011   1.840
77306W        W49654  21.685  21.216   1.242
77307W        W49655  20.051   8.314  14.358
77308W        W49656   2.941  21.673  14.794
77309W        W49657  32.421  11.732  12.458
77310W        W49658  32.515   9.644  14.387
77311W        W49659   1.303  13.758   3.156
77312W        W49660   6.393  10.304  11.596
77313W        W49661  25.650  25.545   3.197
77314W        W49662   1.255  39.481   0.776
77315W        W49663  35.969  42.939  11.023
77316W        W49664  41.423  15.173  13.462
77317W        W49665  24.703  30.618   1.344
77318W        W49666  40.853  11.803  11.038
77319W        W49667  35.860  12.728  12.444
77320W        W49668  13.600  12.755   3.714
77321W        W49669  36.041  23.662   9.996
77322W        W49670  13.795  29.090  14.440
77323W        W49671  39.044   9.856   2.209
77324W        W49672  37.877  43.802   1.822
77325W        W49673   3.376  31.116  12.890
77326W        W49674  18.770  28.171   5.293
77327W        W49675   4.922  36.053   9.984
77328W        W49676  10.375  21.529  11.480
77329W        W49677  23.087  20.081   2.692
77330W        W49678   7.301  35.077   0.265
77331W        W49679  24.163  29.036  14.971
77332W        W49680   0.899  33.539  14.845
77333W        W49681  22.025  37.469   0.261
77334W        W49682   1.865  16.744  11.913
77335W        W49683  30.132   7.873  13.487
77336W        W49684  38.367  40.494  14.021
77337W        W49685   0.830  43.407  14.816
77338W        W49686  32.438  12.187  12.552
77339W        W49687   1.914  34.607  11.927
77340W        W49688  31.920  36.090  13.921
77341W        W49689  31.952  19.594   3.335
77342W        W49690  34.913  40.961  11.391
77343W        W49691  13.164  42.897  13.394
77344W        W49692  41.480  36.987   2.314
77345W        W49693  18.778  26.086   0.249
77346W        W49694  23.089  44.962   2.673
77347W        W49695   1.773   8.302   1.901
77348W        W49696   8.340  44.397  14.916
77349W        W49697  19.697  36.966  12.961
77350W        W49698  40.452   0.897  10.487
77351W        W49699  42.950   0.399   1.334
77352W        W49700  26.508  44.009   2.725
77353W        W49701   0.882  10.786  14.825
77354W        W49702  31.491   5.931  12.888
77355W        W49703  37.862   7.368   2.414
77356W        W49704  12.185  17.679   0.324
77357W        W49705  12.195   2.904   0.854
77358W        W49706  10.327  44.882  14.375
77359W        W49707  16.731  36.048   4.143
77360W        W49708  44.963  21.535  10.632
77361W        W49709  18.256  21.063   2.884
77362W        W49710  37.564   7.744  10.975
77363W        W49711  10.642  24.615   3.248
77364W        W49712  19.741   5.853  13.849
77365W        W49713  41.930  25.596  12.999
77366W        W49714  31.065  43.515   1.210
77367W        W49715  26.493   6.262   5.173
77368W        W49716   1.465  15.151   0.360
77369W        W49717   2.310   3.844   1.397
77370W        W49718  12.274  38.920  10.911
77371W        W49719  36.448  17.101   4.779
77372W        W49720   1.315  11.295   2.397
77373W        W49721  37.522  34.462   3.651
77374W        W49722  40.321  34.434  12.908
77375W        W49723  44.357  40.391   0.823
77376W        W49724  13.187   0.896   2.245
77377W        W49725  44.435  37.060   0.884
77378W        W49726   8.663  15.814   2.213
77379W        W49727  38.846  39.999   1.834
77380W        W49728   6.196  43.273  10.410
77381W        W49729  38.837   6.794  13.479
77382W        W49730  38.544  27.137   2.808
77383W        W49731  41.004  32.102  10.435
77384W        W49732  38.894  24.116   4.271
77385W        W49733  23.588  19.125  10.954
77386W        W49734  19.251  24.159   3.229
77387W        W49735  13.161   9.818  10.536
77388W        W49736  35.399   4.910  13.887
77389W        W49737  24.547   2.404   0.324
77390W        W49738  12.806  23.213  14.515
77391W        W49739  36.463   1.446   4.178
77392W        W49740  35.426   0.983   3.202
77393W        W49741  28.613  14.109  14.803
77394W        W49742   9.879  18.065   3.702
77395W        W49743  15.320  38.963  13.957
77396W        W49744   5.260  39.346   4.794
77397W        W49745  20.227  10.849  13.427
77398W        W49746  43.965  29.118   4.733
77399W        W49747  25.056  23.519  11.432
77400W        W49748  36.469  11.633  11.482
77401W        W49749  25.989  27.478  14.850
77402W        W49750  30.136  17.655  12.836
77403W        W49751  28.038  34.439   0.873
77404W        W49752   0.802   3.231   4.323
77405W        W49753   9.720  15.676  13.865
77406W        W49754  13.226  40.548  13.416
77407W        W49755  44.936   0.948  14.866
77408W        W49756  23.094  12.122   3.785
77409W        W49757  22.025   4.754  12.090
77410W        W49758  44.957  42.426   4.113
77411W        W49759   6.318  26.100  13.054
77412W        W49760  31.935  25.664  10.451
77413W        W49761  13.261  13.603   1.251
77414W        W49762  13.297  21.153   1.249
77415W        W49763   7.355  42.853  12.489
77416W        W49764   6.216  26.097  14.849
77417W        W49765  41.950   5.810  13.372
77418W        W49766  16.685  44.847  14.874
77419W        W49767  32.952  13.301  12.567
77420W        W49768  38.485  29.928   2.352
77421W        W49769  29.593  43.001   0.337
77422W        W49770   8.318   2.417   0.435
77423W        W49771  22.015  37.375  11.554
77424W        W49772   2.878  13.127  13.933
77425W        W49773  33.581   1.439   1.306
77426W        W49774  27.066  33.535  11.989
77427W        W49775  29.616  27.969  10.575
77428W        W49776  40.337   2.409  10.967
77429W        W49777   4.327  14.266   1.788
77430W        W49778   3.937  17.082   9.951
77431W        W49779  12.833   7.880   0.760
77432W        W49780  26.096  36.883  12.377
77433W        W49781  21.734  43.383  14.379
77434W        W49782  32.918  20.737   3.292
77435W        W49783  18.135  28.488   3.856
77436W        W49784  29.951   7.390   9.472
77437W        W49785  26.575  30.065  14.473
77438W        W49786  40.373  31.964  13.047
77439W        W49787  30.587  40.020  14.427
77440W        W49788  12.209   9.160  12.078
77441W        W49789  26.199  39.478  11.902
77442W        W49790  17.195  31.051   2.818
77443W        W49791  10.750  37.548   4.185
77444W        W49792  28.104  31.982   3.663
77445W        W49793   8.350   0.837  14.830
77446W        W49794  13.723  17.678  14.509
77447W        W49795  37.532  38.365   3.676
77448W        W49796  13.812   3.352  14.845
77449W        W49797  39.980  34.057  14.456
77450W        W49798   7.303  36.580   1.431
77451W        W49799  15.771   1.294   3.761
77452W        W49800  40.867   1.821  13.443
77453W        W49801  44.272  20.688  11.528
77454W        W49802  11.340   3.895  11.449
77455W        W49803  25.005  44.803   3.354
77456W        W49804  30.120  11.698   1.391
77457W        W49805  30.000  29.486   3.271
77458W        W49806   2.239   8.689   4.348
77459W        W49807  17.287  39.004  14.400
77460W        W49808   1.978   2.237  12.470
77461W        W49809  32.928  11.365  14.877
77462W        W49810   2.734  21.090   5.281
77463W        W49811  33.008   2.726  12.085
77464W        W49812   7.720  32.598   4.618
77465W        W49813  32.908   9.859  11.612
77466W        W49814   4.869   5.877  12.850
77467W        W49815  26.561  15.665   3.662
77468W        W49816   8.735  21.687  12.546
77469W        W49817  35.392   4.434  13.332
77470W        W49818  10.843  33.578   3.353
77471W        W49819  40.441   0.822   1.374
77472W        W49820  20.053  20.174  14.334
77473W        W49821   8.164   7.405  13.974
77474W        W49822   4.293  32.486   0.479
77475W        W49823  18.574  12.828  13.870
77476W        W49824  26.021  31.583   3.843
77477W        W49825  28.598  16.115  10.633
77478W        W49826  40.849  30.631   1.266
77479W        W49827  35.879  14.195   1.715
77480W        W49828  18.069  23.033   3.309
77481W        W49829  31.417  31.511  13.982
77482W        W49830  38.335  29.487   1.891
77483W        W49831  24.692   7.886   3.803
77484W        W49832  32.552   2.379   4.767
77485W        W49833  43.478  23.616  10.909
77486W        W49834  30.926   1.925  12.908
77487W        W49835  20.713  34.470   0.942
77488W        W49836  30.106  18.753  10.453
77489W        W49837  37.990  12.206   1.289
77490W        W49838   8.684  14.786   0.845
77491W        W49839   0.819  34.377  12.916
77492W        W49840  26.959   5.276   1.279
77493W        W49841  20.701   2.902   3.831
77494W        W49842  27.551  26.112   1.853
77495W        W49843  42.434  41.388   2.765
77496W        W49844   4.439  12.656   0.864
77497W        W49845  37.866   3.942  13.521
77498W        W49846  34.583  12.268  14.327
77499W        W49847  40.452  28.632  13.010
77500W        W49848  18.165  10.813   4.211
77501W        W49849  25.662  32.948  14.793
77502W        W49850  16.224  10.821  12.867
77503W        W49851  37.047  27.654  11.857
77504W        W49852  15.141  39.047  13.308
77505W        W49853  33.432  10.200   1.377
77506W        W49854  28.555  39.543   1.743
77507W        W49855  36.942   3.917   1.918
77508W        W49856  25.075   4.359  13.875
77509W        W49857  18.594  26.684  12.031
77510W        W49858  39.062  26.036  11.602
77511W        W49859   7.684  37.579  14.834
77512W        W49860  26.086   0.782   4.640
77513W        W49861   5.827  12.814   4.645
77514W        W49862   5.738  12.716   2.843
77515W        W49863  13.842  40.956  13.479
77516W        W49864  20.226  44.463  10.498
77517W        W49865   9.704   5.435   4.317
77518W        W49866   8.799  19.223   3.196
77519W        W49867  25.016  34.526  12.464
77520W        W49868  17.293  13.324   2.300
77521W        W49869  43.381  12.243   4.766
77522W        W49870  15.256  12.162  11.487
77523W        W49871  12.198  41.446   2.748
77524W        W49872   1.799  27.448   0.889
77525W        W49873   9.384  26.973  13.892
77526W        W49874  12.320   0.970   1.769
77527W        W49875  36.500  41.900  10.466
77528W        W49876  19.553  16.812  14.795
77529W        W49877   4.700  34.084  12.567
77530W        W49878  40.476   1.308   1.340
77531W        W49879  14.103  36.435   5.086
77532W        W49880  19.675  42.519   2.739
77533W        W49881  30.417   0.845   4.246
77534W        W49882  10.264  16.747  10.553
77535W        W49883  41.457  32.597   0.834
77536W        W49884  10.816  44.844   1.332
77537W        W49885  38.438   1.844   1.716
77538W        W49886  14.805  33.578   3.189
77539W        W49887  31.474   7.685   0.321
77540W        W49888  14.797  38.551  13.351
77541W        W49889   9.707   5.373   3.818
77542W        W49890  18.291   8.177  10.461
77543W        W49891  28.661  15.593   1.924
77544W        W49892   5.337  38.919   2.206
77545W        W49893   5.303  41.359  10.987
77546W        W49894  22.070  32.608  11.997
77547W        W49895  22.233  14.804   4.203
77548W        W49896  31.941  10.258   1.282
77549W        W49897  19.170  11.766   1.323
77550W        W49898  24.022  21.048   4.660
77551W        W49899   5.743   6.205  10.499
77552W        W49900   2.409  30.923  14.922
77553W        W49901   6.235  44.934   1.290
77554W        W49902  42.385   7.862  11.568
77555W        W49903  39.044  34.589   2.662
77556W        W49904  24.081   7.337   1.246
77557W        W49905   5.429  40.961   3.741
77558W        W49906  16.577  32.417   1.888
77559W        W49907  20.700  23.088  12.423
77560W        W49908  16.702  23.172   2.271
77561W        W49909  44.952  22.698  12.566
77562W        W49910  36.431  37.449  12.067
77563W        W49911  37.912   4.304   1.926
77564W        W49912  41.342  35.102  14.499
77565W        W49913  43.282   1.365  13.857
77566W        W49914   5.849  30.520  12.506
77567W        W49915  29.560  31.131   2.767
77568W        W49916  42.437  22.706  12.057
77569W        W49917  15.130  30.579  14.830
77570W        W49918  41.412  17.126  11.522
77571W        W49919  19.534  17.078  13.318
77572W        W49920  17.628   0.801  13.060
77573W        W49921  17.679  11.636  10.558
77574W        W49922  26.189  12.803  11.475
77575W        W49923  27.188  37.531   3.835
77576W        W49924  13.733   7.791  13.399
77577W        W49925  11.636  35.450   2.332
77578W        W49926  20.718  29.931   4.755
77579W        W49927   0.890  24.531   1.421
77580W        W49928  18.726  24.089   2.309
77581W        W49929  10.200   6.323   1.908
77582W        W49930   4.398  44.877   4.144
77583W        W49931  21.757  34.877  14.865
77584W        W49932  11.849   1.346  13.530
77585W        W49933  21.245  30.106  11.935
77586W        W49934   0.431  29.593   4.830
77587W        W49935  24.028  34.079   2.189
77588W        W49936   0.983  41.890  12.047
77589W        W49937   5.847  42.928  13.888
77590W        W49938  43.329  31.420  11.465
77591W        W49939   2.820  29.623  11.450
77592W        W49940  17.798  41.384   0.392
77593W        W49941  43.338   2.228   1.899
77594W        W49942  38.908   7.847   1.328
77595W        W49943  39.432  43.843   4.823
77596W        W49944  41.404  39.516   4.642
77597W        W49945  33.538  23.035  14.922
77598W        W49946  11.150  32.985  11.383
77599W        W49947  19.246  39.348  10.421
77600W        W49948  26.686  27.022  11.592
77601W        W49949  41.810  25.982   2.843
77602W        W49950   2.256  43.918   3.736
77603W        W49951  17.160  27.481   0.782
77604W        W49952  11.798  22.633   0.910
77605W        W49953   9.377   3.307   1.717
77606W        W49954  19.736  36.356   2.315
77607W        W49955  23.033  26.587  12.859
77608W        W49956   8.870  40.333  14.468
77609W        W49957   1.450  12.351  14.286
77610W        W49958  26.554   9.838  13.367
77611W        W49959  11.191  12.228   2.228
77612W        W49960  38.334  26.193   1.778
77613W        W49961  42.827   0.961  12.033
77614W        W49962  31.407   6.867  13.842
77615W        W49963   3.807  39.982  11.600
77616W        W49964   3.756  11.331  14.818
77617W        W49965   8.861  16.080   3.247
77618W        W49966  28.078   1.339  11.918
77619W        W49967   4.404  21.216   4.778
77620W        W49968  28.126  39.835  12.441
77621W        W49969   4.808  41.387   3.765
77622W        W49970  31.936  15.778  14.489
77623W        W49971   3.816  41.937  13.057
77624W        W49972   3.408  10.212   2.664
77625W        W49973  27.518   4.397  12.343
77626W        W49974  12.120  41.428   1.293
77627W        W49975  20.120  11.188   1.786
77628W        W49976   7.867   4.709   0.253
77629W        W49977   0.925  33.583  11.429
77630W        W49978  22.632  43.842  14.020
77631W        W49979  25.131  13.787  11.577
77632W        W49980   6.713   6.367  12.091
77633W        W49981  20.586  23.986   4.166
77634W        W49982  36.404  41.005  10.952
77635W        W49983   3.368  33.626  12.356
77636W        W49984  30.656  12.188  13.037
77637W        W49985   0.348  35.008  13.334
77638W        W49986  37.527  22.505   5.165
77639W        W49987  17.082  32.471  14.887
77640W        W49988  29.151  33.931   1.809
77641W        W49989   4.319  23.676   4.788
77642W        W49990   5.328  18.559  13.927
77643W        W49991   0.346   8.749   3.642
77644W        W49992  36.879   5.272   4.817
77645W        W49993  29.106  40.018  14.366
77646W        W49994  15.086   0.410  14.796
77647W        W49995   6.340  16.138  13.357
77648W        W49996  16.624  11.804  12.946
77649W        W49997   9.319  33.105   3.676
77650W        W49998   4.771  32.942   2.853
77651W        W49999  40.001  14.189   2.237
77652W        W50000  28.610  20.168  14.001
77653W        W50001   9.814  23.649  11.075
77654W        W50002  14.216  17.555  13.002
77655W        W50003  13.777   5.377  13.309
77656W        W50004  22.051   4.755  11.546
77657W        W50005   2.907  31.912   2.739
77658W        W50006   9.815  19.564   0.771
77659W        W50007  25.511   7.193  14.370
77660W        W50008  39.042   2.447   4.837
77661W        W50009  38.846  25.686   3.823
77662W        W50010  26.122   2.229  11.114
77663W        W50011   7.334   9.832   4.618
77664W        W50012   7.720  17.131   1.386
77665W        W50013   4.307  23.987   2.825
77666W        W50014   7.797   9.155   0.461
77667W        W50015  14.114   7.195   0.923
77668W        W50016  13.264  42.429   1.708
77669W        W50017  25.497  31.478  11.023
77670W        W50018  43.890  39.021   1.828
77671W        W50019   9.773  22.641   1.783
77672W        W50020  42.910   4.904  10.949
77673W        W50021   6.244  38.338   3.700
77674W        W50022  37.435  29.488   1.273
77675W        W50023  19.661  40.454  13.037
77676W        W50024  26.951  42.821   0.313
77677W        W50025  16.227  16.621  11.408
77678W        W50026  24.072  12.824   0.802
77679W        W50027  17.159  30.490   3.671
77680W        W50028  25.063  25.549  14.308
77681W        W50029  30.946  42.030   2.670
77682W        W50030  43.448   3.859  10.578
77683W        W50031  19.217   0.906   1.750
77684W        W50032  40.005  37.516   3.770
77685W        W50033   9.695   6.873  14.924
77686W        W50034  44.460   0.900   0.851
77687W        W50035  26.624   4.357   4.336
77688W        W50036  36.942   0.306   1.228
77689W        W50037  14.797  29.137  13.998
77690W        W50038  17.640  20.193  10.556
77691W        W50039   3.934  24.612   3.192
77692W        W50040  17.700  18.628   2.685
77693W        W50041  26.685   3.355   2.403
77694W        W50042  17.577   0.927   0.901
77695W        W50043  10.173   6.277  13.006
77696W        W50044  18.620  34.568   2.739
77697W        W50045   2.958  19.197  12.927
77698W        W50046   1.378  30.019  12.557
77699W        W50047  43.341  19.637   3.159
77700W        W50048   1.248  33.523  13.385
77701W        W50049  29.109   9.874  12.505
77702W        W50050  29.589  13.306   4.293
77703W        W50051  37.488  25.569   0.830
77704W        W50052  17.642  15.213   3.163
77705W        W50053  16.622  44.462  13.792
77706W        W50054  22.075  10.182  13.960
77707W        W50055  17.685  11.835   2.238
77708W        W50056  10.289   1.240   0.412
77709W        W50057   4.765  10.203   4.155
77710W        W50058  23.141  16.277   0.288
77711W        W50059  42.918  13.174  12.860
77712W        W50060   0.866   8.319   3.290
77713W        W50061   9.799   9.297   0.856
77714W        W50062  31.084  36.938  11.407
77715W        W50063  15.609  14.273  10.026
77716W        W50064  35.097  33.622   1.772
77717W        W50065  29.024  44.340  13.378
77718W        W50066  18.546  42.825  10.896
77719W        W50067  14.258  36.557  11.001
77720W        W50068  26.646  35.935   4.814
77721W        W50069  38.060  39.963   1.906
77722W        W50070  21.745  18.695   0.802
77723W        W50071  30.462  34.989  14.992
77724W        W50072  24.584  13.631  13.460
77725W        W50073  29.160  42.935  10.961
77726W        W50074   0.806  38.376  11.977
77727W        W50075  42.289  37.896  13.499
77728W        W50076  37.341  11.212   2.701
77729W        W50077  27.162  14.643  12.087
77730W        W50078  37.343  24.071  11.489
77731W        W50079  30.921  25.179   2.396
77732W        W50080  30.067  42.465   2.701
77733W        W50081  27.553   6.737  12.477
77734W        W50082  20.635  28.484   0.946
77735W        W50083  13.219  16.747   1.799
77736W        W50084   8.770  22.720  11.509
77737W        W50085  42.000  39.423   4.783
77738W        W50086  12.629  17.562  11.525
77739W        W50087  16.679  28.073   2.336
77740W        W50088   9.764  33.402   2.691
77741W        W50089   5.384   8.163  11.428
77742W        W50090  23.074  32.634   3.319
77743W        W50091  32.625   5.347  13.352
77744W        W50092   9.743  13.133   3.181
77745W        W50093  22.633  24.671  11.856
77746W        W50094  31.049   7.859  14.404
77747W        W50095   4.865   4.411   3.744
77748W        W50096  35.557  16.583  13.524
77749W        W50097  30.971  36.990  12.031
77750W        W50098  30.128  44.289   4.296
77751W        W50099  33.124  25.120   1.222
77752W        W50100   9.286   2.459  10.417
77753W        W50101  18.695  13.339  12.385
77754W        W50102  33.107  43.494   2.350
77755W        W50103  44.450  24.015  14.011
77756W        W50104   5.342  32.977  14.767
77757W        W50105  30.152  22.166   1.891
77758W        W50106  26.629  13.107   0.942
77759W        W50107  42.860  42.286   3.190
77760W        W50108  38.451  38.901  12.970
77761W        W50109  12.842  24.033   2.283
77762W        W50110  29.121  31.021   0.266
77763W        W50111   5.928  34.908  14.918
77764W        W50112  40.390  41.989  14.319
77765W        W50113  21.535  11.623   2.193
77766W        W50114  39.391  10.204  11.382
77767W        W50115  37.847   4.721   1.855
77768W        W50116  19.105  25.528  13.455
77769W        W50117  43.378   2.911  13.927
77770W        W50118  13.255  35.503  11.099
77771W        W50119  11.863  30.452   3.384
77772W        W50120   5.310  29.031   0.409
77773W        W50121  43.972   9.218   3.184
77774W        W50122  36.988  38.401  12.929
77775W        W50123  40.325  23.605  11.106
77776W        W50124  43.480  19.595   0.396
77777W        W50125  21.022  37.497   4.738
77778W        W50126  18.290  37.837   3.310
77779W        W50127  43.325  30.435   0.244
77780W        W50128  10.654  41.482  12.552
77781W        W50129  30.651  16.608   4.767
77782W        W50130  28.126   5.265   4.602
77783W        W50131  24.076   6.868   1.928
77784W        W50132  24.504  22.181   4.180
77785W        W50133   2.436  23.019  12.900
77786W        W50134   8.253   8.666  13.507
77787W        W50135  42.951  15.748   4.771
77788W        W50136   2.303  28.592   1.354
77789W        W50137   8.356  34.603  12.883
77790W        W50138  19.093  31.077  11.612
77791W        W50139  21.161  44.306   5.148
77792W        W50140   4.889  39.850   4.242
77793W        W50141  42.440  36.514  14.295
77794W        W50142  12.226  41.010   3.642
77795W        W50143  31.648  31.420   1.223
77796W        W50144  14.755  31.919   3.348
77797W        W50145  15.120   5.866   2.355
77798W        W50146  41.821   6.748  11.039
77799W        W50147  34.564  43.949   0.448
77800W        W50148   2.805   0.384  10.951
77801W        W50149  26.003  33.068   4.830
77802W        W50150  39.033  40.483   9.948
77803W        W50151  40.508  36.537  12.976
77804W        W50152   5.277  28.570  11.449
77805W        W50153   9.694  14.687  12.983
77806W        W50154  40.943   7.731  14.918
77807W        W50155  26.084  22.674  13.413
77808W        W50156  12.612   9.680   1.247
77809W        W50157  32.100  11.284  12.052
77810W        W50158  30.561  10.704  14.855
77811W        W50159   0.364  18.753   2.746
77812W        W50160  19.182  13.796   3.649
77813W        W50161   7.908  44.954  14.820
77814W        W50162  37.062  27.682   2.299
77815W        W50163  15.141  17.262   0.850
77816W        W50164  29.535   6.259  11.510
77817W        W50165  23.641  10.270   3.205
77818W        W50166  20.745  20.072   1.923
77819W        W50167  26.469  42.981   5.253
77820W        W50168  31.050   3.396  10.072
77821W        W50169  23.191   5.814  11.558
77822W        W50170  22.620   9.872   4.720
77823W        W50171  16.268  37.360   1.725
77824W        W50172   7.671   1.318   0.945
77825W        W50173  15.662  35.410  11.420
77826W        W50174  23.065  40.479   0.762
77827W        W50175  27.136   7.281   2.742
77828W        W50176  28.129   8.168  14.003
77829W        W50177  27.680   4.868   2.876
77830W        W50178   2.950   7.319  11.984
77831W        W50179  16.196  38.440   0.790
77832W        W50180  27.076   2.451   1.385
77833W        W50181  15.319  17.257  11.533
77834W        W50182  21.050  21.665  13.531
77835W        W50183  40.959  29.940   4.700
77836W        W50184  37.414   3.900  11.080
77837W        W50185   0.370   8.738  11.423
77838W        W50186  35.532  25.154  12.500
77839W        W50187  29.960  31.995   5.218
77840W        W50188   8.739  27.021   4.707
77841W        W50189  12.292  31.991  13.879
77842W        W50190  15.175   8.347   3.312
77843W        W50191  16.128  40.012   0.740
77844W        W50192  27.606  29.981   3.266
77845W        W50193   0.902  16.291  14.500
77846W        W50194  17.116  30.416  11.491
77847W        W50195  33.550  43.872  11.073
77848W        W50196  21.244   4.835   1.267
77849W        W50197  18.071  27.992  11.952
77850W        W50198   1.425   0.948   3.179
77851W        W50199   5.808   9.340  10.589
77852W        W50200  22.635  37.565   3.771
77853W        W50201  34.525   8.885  11.415
77854W        W50202  16.655   8.399   4.628
77855W        W50203  24.223  31.128  12.357
77856W        W50204   6.316  13.645   4.657
77857W        W50205  36.882  25.699   3.674
77858W        W50206  13.707   6.350   2.713
77859W        W50207  17.648   0.882   4.313
77860W        W50208  16.315  17.629   2.862
77861W        W50209   5.271  32.099  12.068
77862W        W50210  35.367  10.833  13.973
77863W        W50211  32.439  23.510   2.803
77864W        W50212  41.832  17.620  12.386
77865W        W50213  39.853   9.848   4.286
77866W        W50214  32.059  37.840  13.415
77867W        W50215  21.699  31.587  11.935
77868W        W50216   9.208  41.423  14.369
77869W        W50217   5.363  44.477   3.200
77870W        W50218   2.879  14.648  10.989
77871W        W50219  41.327  25.491  11.924
77872W        W50220  32.057  25.212  14.793
77873W        W50221   8.681  19.602  14.005
77874W        W50222  16.310  29.539  11.986
77875W        W50223   9.871   9.825   2.305
77876W        W50224  35.865  23.151   4.665
77877W        W50225  14.733  13.245   1.415
77878W        W50226  15.233  40.327  14.371
77879W        W50227  32.047  44.892   0.291
77880W        W50228  29.044  35.951  13.340
77881W        W50229  20.625   6.279   3.276
77882W        W50230  15.598  38.516  12.470
77883W        W50231   3.732   7.178  11.980
77884W        W50232  13.251  41.414   1.240
77885W        W50233  31.477  28.448  13.892
77886W        W50234  43.484  24.185   4.294
77887W        W50235  31.440  23.199  14.311
77888W        W50236  14.247   3.369   2.217
77889W        W50237   6.701   2.455   2.698
77890W        W50238  11.752   1.445  11.126
77891W        W50239  20.663  18.222   2.897
77892W        W50240   2.954  10.239   1.848
77893W        W50241  27.474  17.189   1.809
77894W        W50242   6.258   8.682  12.557
77895W        W50243  38.513   9.763   0.819
77896W        W50244  14.758   9.227  11.492
77897W        W50245  41.311  25.559   2.739
77898W        W50246  33.093  41.013   0.965
77899W        W50247  17.619  17.675   0.386
77900W        W50248  28.956  44.781  10.544
77901W        W50249  34.409  26.077   0.318
77902W        W50250   0.899  42.427   4.140
77903W        W50251  15.116  23.631   0.266
77904W        W50252  37.061  34.484  13.845
77905W        W50253   9.735  42.455   2.737
77906W        W50254  35.490  24.056   3.648
77907W        W50255  37.381  41.000   1.326
77908W        W50256   3.396   4.896   0.293
77909W        W50257  44.302  30.572  10.561
77910W        W50258  15.272   5.279  11.978
77911W        W50259  43.948   7.356  10.948
77912W        W50260  34.462  44.346   3.338
77913W        W50261  44.347  17.628  11.490
77914W        W50262  36.083  32.136  11.400
77915W        W50263  15.714  25.999  14.994
77916W        W50264  43.330  11.369  11.970
77917W        W50265  30.507  28.451  14.347
77918W        W50266  28.558  38.468  13.058
77919W        W50267  19.696  10.184   4.764
77920W        W50268  32.489  27.564  11.937
77921W        W50269  20.247  33.474  10.551
77922W        W50270   9.191  11.210   0.292
77923W        W50271  42.821  10.702  10.921
77924W        W50272  43.778  24.562   1.361
77925W        W50273  22.104   8.810  10.506
77926W        W50274  34.874  22.741   3.364
77927W        W50275  14.205  17.643   2.195
77928W        W50276  15.121  24.185  14.436
77929W        W50277  42.795  20.764  13.543
77930W        W50278   5.240  29.172  11.125
77931W        W50279  38.828  35.872  10.469
77932W        W50280   4.775  17.249  12.447
77933W        W50281  44.437  35.087   2.359
77934W        W50282  12.611   3.246   1.796
77935W        W50283  24.696  41.911   0.839
77936W        W50284  20.056   0.879   1.815
77937W        W50285  25.663  32.000   3.765
77938W        W50286  23.708  32.096  10.502
77939W        W50287  36.035  27.596   3.216
77940W        W50288  26.144  42.872   1.331
77941W        W50289  11.148  27.486   0.361
77942W        W50290  24.194  14.272  12.984
77943W        W50291  20.123  26.962   3.853
77944W        W50292   2.934   2.960   2.819
77945W        W50293   9.703  24.679  10.499
77946W        W50294  34.978  24.976  12.944
77947W        W50295   6.715  11.254   1.448
77948W        W50296   0.879   5.369   3.743
77949W        W50297  28.666   5.325  13.394
77950W        W50298  37.012  28.949   1.800
77951W        W50299   5.274  40.890  14.024
77952W        W50300   0.273  21.186  13.932
77953W        W50301  26.004   3.343  13.457
77954W        W50302  39.892  40.327   0.920
77955W        W50303  44.824  26.011   0.375
77956W        W50304   1.402  34.948   0.815
77957W        W50305   1.248  39.993  10.565
77958W        W50306  25.000  31.073   1.884
77959W        W50307  41.339   6.890  14.942
77960W        W50308  41.513  39.840  11.468
77961W        W50309  12.742  41.860  13.063
77962W        W50310  41.401  21.257   4.642
77963W        W50311  23.700  20.251   2.691
77964W        W50312   7.900   5.717  12.947
77965W        W50313  32.065  13.267   0.347
77966W        W50314   7.831  18.279  14.283
77967W        W50315  24.110  25.042  11.475
77968W        W50316   1.860  13.272  14.296
77969W        W50317  41.980   6.748   3.775
77970W        W50318  44.835   1.920  12.040
77971W        W50319  31.924  10.376  13.534
77972W        W50320  41.848   9.839  13.808
77973W        W50321  12.770  42.911  13.941
77974W        W50322  23.509  37.840  12.410
77975W        W50323  25.152  18.140   3.246
77976W        W50324  23.068   6.408  13.341
77977W        W50325  32.454  24.527   0.252
77978W        W50326  42.365  37.477   4.755
77979W        W50327   1.243  42.295  13.489
77980W        W50328  43.281  26.080   3.350
77981W        W50329  31.509  16.726   2.814
77982W        W50330  10.786  18.148   1.818
77983W        W50331  42.870  44.011  10.960
77984W        W50332  37.076  19.688   5.294
77985W        W50333   2.325  44.412  13.851
77986W        W50334   0.798  28.932   1.826
77987W        W50335  24.016   7.823   4.322
77988W        W50336  12.666  22.200  11.939
77989W        W50337   8.807  37.877   0.456
77990W        W50338  23.685  26.668  12.999
77991W        W50339  25.502  22.177   0.802
77992W        W50340  35.502  19.195   0.924
77993W        W50341  19.560  31.969   4.658
77994W        W50342  16.266  38.457  12.969
77995W        W50343  11.255   0.846  11.958
77996W        W50344   1.385  15.166  14.345
77997W        W50345  13.145  23.534  14.989
77998W        W50346  34.537  15.264   3.840
77999W        W50347  28.560  26.155  14.024
78000W        W50348  38.045  19.191   3.316
78001W        W50349  30.420  31.133   3.368
78002W        W50350  21.094  37.341   1.748
78003W        W50351   9.257  27.515   4.748
78004W        W50352  12.157  42.502   2.279
78005W        W50353  26.155  31.065  11.023
78006W        W50354   3.794   4.706   4.276
78007W        W50355  13.711  32.913   1.882
78008W        W50356   4.303  19.732   2.326
78009W        W50357  14.250  15.683  13.033
78010W        W50358   2.301  38.991   3.313
78011W        W50359  23.652  35.092  14.783
78012W        W50360  19.130  11.338  14.003
78013W        W50361   5.370   4.313  12.045
78014W        W50362  20.253  33.415   2.334
78015W        W50363  22.593  22.700  13.540
78016W        W50364  26.606  16.662   1.867
78017W        W50365  16.269  30.451   3.164
78018W        W50366   3.903   2.823  10.961
78019W        W50367  38.829   4.913  13.345
78020W        W50368   7.698  11.639   1.836
78021W        W50369  16.624   7.763  10.893
78022W        W50370  31.468  19.741  11.980
78023W        W50371   1.823   6.197   2.379
78024W        W50372  44.315  41.372   3.710
78025W        W50373  28.081   5.789  13.794
78026W        W50374  43.338  27.673   0.817
78027W        W50375  10.775   6.908   3.662
78028W        W50376  29.582  27.503   3.298
78029W        W50377  27.070  17.730   2.358
78030W        W50378  34.865   4.226  12.963
78031W        W50379  16.608  12.645   2.788
78032W        W50380  17.220  17.641   4.610
78033W        W50381   8.326  27.463  13.393
78034W        W50382  10.872  18.681   1.357
78035W        W50383  37.371  28.488  14.376
78036W        W50384  27.118   9.373  13.519
78037W        W50385  13.246  32.099   2.333
78038W        W50386  25.565   5.802   2.184
78039W        W50387   7.675  25.129   4.801
78040W        W50388  39.969  39.836   2.721
78041W        W50389  31.046  35.997   3.745
78042W        W50390  27.972  19.193  13.491
78043W        W50391  28.998   9.749  12.969
78044W        W50392  29.458  24.194  11.112
78045W        W50393  16.588  39.812  12.966
78046W        W50394   9.205  14.631   1.236
78047W        W50395  40.433  24.994  10.490
78048W        W50396  44.429   3.788   4.214
78049W        W50397  16.683  25.980   1.926
78050W        W50398  34.065  16.136  13.494
78051W        W50399  37.909  27.637   2.784
78052W        W50400  14.747  18.105  13.444
78053W        W50401  22.704  17.163   5.082
78054W        W50402  43.287  12.782  12.911
78055W        W50403   8.879  20.678  12.432
78056W        W50404   6.728   1.437  11.605
78057W        W50405  37.416  40.537   4.208
78058W        W50406  39.355  36.014  10.537
78059W        W50407  35.496  14.222   2.418
78060W        W50408   4.244  42.852   3.740
78061W        W50409   1.361  17.699  10.596
78062W        W50410  19.195  17.698   3.748
78063W        W50411  28.443  37.933   1.302
78064W        W50412  37.956   1.405   4.206
78065W        W50413  31.493  12.706  11.399
78066W        W50414  38.035  44.344   4.285
78067W        W50415  43.458  39.834  13.024
78068W        W50416  18.244  38.461   3.638
78069W        W50417  17.571  25.096   2.707
78070W        W50418  30.953  12.711  10.991
78071W        W50419   1.885  27.976   4.659
78072W        W50420  13.348  12.792   0.443
78073W        W50421  43.423   5.883  13.434
78074W        W50422   8.744  36.571   1.704
78075W        W50423  25.178  42.447   1.745
78076W        W50424  25.154  23.611   0.825
78077W        W50425   2.801  34.576  13.501
78078W        W50426  29.936  35.495   4.733
78079W        W50427  31.052  17.246  12.879
78080W        W50428  32.122   5.247  11.424
78081W        W50429   2.874  41.507   4.172
78082W        W50430   5.715  17.182   1.431
78083W        W50431  15.144  36.405  13.873
78084W        W50432  23.599  40.841  10.617
78085W        W50433  26.160  35.460   3.865
78086W        W50434  34.867  11.776   1.924
78087W        W50435   3.217  20.200   2.314
78088W        W50436  35.363  25.218  11.489
78089W        W50437   7.744   1.871   3.221
78090W        W50438  38.955   9.171  13.824
78091W        W50439  30.965  18.745   4.123
78092W        W50440  17.266  11.149   4.669
78093W        W50441  38.931  43.943   3.219
78094W        W50442  18.151  20.171   1.417
78095W        W50443   9.765  14.193  13.420
78096W        W50444  24.168  38.468   0.340
78097W        W50445   5.421  38.050   3.794
78098W        W50446  22.724  19.563  10.985
78099W        W50447  25.973  23.189  13.393
78100W        W50448   1.882  32.907  13.995
78101W        W50449  28.061  27.074  10.907
78102W        W50450  11.642  23.157  14.870
78103W        W50451  33.950  43.375   3.785
78104W        W50452   8.255  14.324  10.522
78105W        W50453  22.035  14.207   1.312
78106W        W50454   3.906  42.782  10.459
78107W        W50455  14.279  19.721   2.225
78108W        W50456  33.000  14.314  14.367
78109W        W50457  23.657  26.613   4.757
78110W        W50458  37.448  39.000  14.763
78111W        W50459  40.534  36.409   0.377
78112W        W50460  13.129  33.881  12.343
78113W        W50461  26.573  31.907   4.640
78114W        W50462   0.389  26.514  14.881
78115W        W50463  15.140   2.282   4.270
78116W        W50464  24.169  14.110   0.391
78117W        W50465  33.553  31.936  13.057
78118W        W50466  41.986  17.722  13.850
78119W        W50467  14.113  30.422  11.943
78120W        W50468  34.455  26.991   0.873
78121W        W50469  26.965   2.311   3.713
78122W        W50470  40.331  29.018   2.680
78123W        W50471  42.992  10.139   3.320
78124W        W50472  20.163  44.874   3.676
78125W        W50473  25.066  24.564   3.751
78126W        W50474   8.275  44.367  12.904
78127W        W50475  35.000  19.761  12.487
78128W        W50476  22.517  29.940  13.921
78129W        W50477  28.036  17.665   0.411
78130W        W50478  15.750   6.261  13.902
78131W        W50479  20.097  35.558   3.790
78132W        W50480  28.941   0.407  12.547
78133W        W50481  17.259  12.265   2.325
78134W        W50482  28.950  22.203  12.367
78135W        W50483  20.167  20.730   4.301
78136W        W50484  38.517  10.820  14.401
78137W        W50485  37.010   8.823   4.351
78138W        W50486  39.369  13.835   3.324
78139W        W50487   8.211  17.670  11.506
78140W        W50488   7.399  31.478   1.774
78141W        W50489  43.008  13.343   5.116
78142W        W50490   7.227  32.447   0.391
78143W        W50491  10.646   2.410   0.927
78144W        W50492  19.753  39.866   3.814
78145W        W50493  16.702  29.564  11.084
78146W        W50494   0.301  34.913  11.469
78147W        W50495  42.329  29.667  14.325
78148W        W50496   9.775  39.548  14.997
78149W        W50497  25.087  12.691   4.223
78150W        W50498   1.392  26.616   1.767
78151W        W50499  12.846  24.080   3.797
78152W        W50500  20.712  38.820  11.385
78153W        W50501  10.378   9.696  10.437
78154W        W50502  43.287  43.335  11.394
78155W        W50503  33.499  42.779   3.737
78156W        W50504  19.103  18.556  10.598
78157W        W50505   0.813   9.304  12.829
78158W        W50506   7.717  20.528   3.314
78159W        W50507   8.378   3.345  12.392
78160W        W50508  41.012  18.055   2.246
78161W        W50509  42.389  17.108  11.585
78162W        W50510  38.520  34.926   2.206
78163W        W50511  33.081  24.568  11.062
78164W        W50512  42.961  32.999   0.938
78165W        W50513   4.221  37.361   5.117
78166W        W50514   6.262  33.575   2.824
78167W        W50515  31.100  41.864  13.877
78168W        W50516  39.849  32.485  13.424
78169W        W50517  18.565   8.169  13.970
78170W        W50518  39.510  16.164  14.335
78171W        W50519  28.493  20.690   2.260
78172W        W50520  42.991  29.162  10.567
78173W        W50521   0.365  37.456  12.999
78174W        W50522   8.798  24.668  14.854
78175W        W50523  42.414  38.525  12.528
78176W        W50524  17.657  38.397   1.412
78177W        W50525  43.416  20.049   3.680
78178W        W50526   0.838  28.555   2.372
78179W        W50527  40.381  33.980   3.700
78180W        W50528  35.514   4.314   1.405
78181W        W50529  22.670  39.423  12.041
78182W        W50530  12.265  42.449  11.927
78183W        W50531  18.553  35.895  12.463
78184W        W50532  12.796  35.560  13.459
78185W        W50533  17.181   5.361  14.912
78186W        W50534   6.379  42.317  12.913
78187W        W50535  26.598  14.157  12.927
78188W        W50536  26.080   9.753   1.314
78189W        W50537  29.052  37.880  13.997
78190W        W50538  40.508  13.792   0.848
78191W        W50539  30.098  44.982  14.412
78192W        W50540  44.312  42.897  13.361
78193W        W50541  25.585  24.044   4.756
78194W        W50542   9.338  40.044  10.100
78195W        W50543  11.249   3.859   3.303
78196W        W50544  10.792  19.684   2.399
78197W        W50545  27.050  26.481  13.952
78198W        W50546  42.390  37.950  14.813
78199W        W50547  36.356  37.014  14.853
78200W        W50548  40.461   9.300  12.921
78201W        W50549   4.292  33.398   0.750
78202W        W50550  33.610  23.507   0.469
78203W        W50551  19.555  26.665  12.847
78204W        W50552  37.045  10.769   0.270
78205W        W50553   1.444   5.378   3.858
78206W        W50554   1.477  35.490   0.793
78207W        W50555   4.221  16.214   0.828
78208W        W50556  41.477  15.272   4.704
78209W        W50557  29.945  35.381  14.795
78210W        W50558  27.042  15.593  12.427
78211W        W50559   9.774  32.553   5.576
78212W        W50560   1.824   1.367   0.954
78213W        W50561  30.444  36.420   2.726
78214W        W50562  29.479  41.024   4.219
78215W        W50563  42.941   7.878   0.758
78216W        W50564  11.862  13.136   1.276
78217W        W50565  36.022  12.353   0.853
78218W        W50566   6.912  13.214  10.625
78219W        W50567  16.695  20.624  14.934
78220W        W50568  13.821  18.213   1.346
78221W        W50569  31.071  34.444   4.274
78222W        W50570  25.705   3.222  13.873
78223W        W50571  22.132  26.117  12.832
78224W        W50572  28.970  41.342  12.834
78225W        W50573   1.750  40.023   2.839
78226W        W50574  30.910  43.402  12.439
78227W        W50575  23.170  11.760   0.902
78228W        W50576  19.208  34.450  12.929
78229W        W50577  26.612  29.559   4.169
78230W        W50578  30.446  42.987  10.936
78231W        W50579  33.544  24.531   3.223
78232W        W50580  27.619  42.896  14.501
78233W        W50581   0.382  29.951   0.949
78234W        W50582  23.039  22.045  10.510
78235W        W50583  43.932  32.420  12.075
78236W        W50584  20.706  10.699  12.391
78237W        W50585  30.028   4.830   3.353
78238W        W50586   5.902   5.391  12.433
78239W        W50587  31.543  33.062   2.878
78240W        W50588   5.403  17.758  14.412
78241W        W50589   4.446   6.823  14.902
78242W        W50590   5.396  38.419  11.872
78243W        W50591  16.142  22.187   3.765
78244W        W50592  30.544  33.123   0.869
78245W        W50593   0.303  32.990  10.899
78246W        W50594  30.439  37.004   1.249
78247W        W50595   3.291   6.296  11.609
78248W        W50596  33.624   6.724  13.999
78249W        W50597  18.187  35.054  12.828
78250W        W50598  14.250  44.797   4.787
78251W        W50599  43.928   0.413   4.727
78252W        W50600  18.090  23.568  11.917
78253W        W50601  39.479   4.748  12.993
78254W        W50602  39.469  29.510  13.308
78255W        W50603  19.718  21.698  10.948
78256W        W50604  33.978  38.356  12.576
78257W        W50605  10.279  24.090   4.326
78258W        W50606  38.558  43.515  10.931
78259W        W50607  39.421  36.579   1.775
78260W        W50608  26.542  14.245  14.370
78261W        W50609  33.036   7.739  11.022
78262W        W50610  35.928  19.614   1.332
78263W        W50611  14.799   9.345  12.852
78264W        W50612  36.007  34.047   1.780
78265W        W50613   3.313  26.091  12.524
78266W        W50614  43.304  44.260  12.399
78267W        W50615  16.225  28.153  13.858
78268W        W50616  37.939  44.380   0.337
78269W        W50617  27.983  37.505  10.039
78270W        W50618  11.224  42.344   1.359
78271W        W50619  31.568   2.285  11.448
78272W        W50620  32.046  42.958   0.465
78273W        W50621  38.565   1.418   3.170
78274W        W50622  32.050   9.794   4.618
78275W        W50623   3.387  31.021   1.811
78276W        W50624  44.805  44.828   1.752
78277W        W50625  21.590   5.707   0.402
78278W        W50626  35.493  36.542   3.271
78279W        W50627  24.630   1.960  13.839
78280W        W50628  43.297  14.141   2.266
78281W        W50629  39.425   1.813  13.451
78282W        W50630  18.593  35.887   1.780
78283W        W50631   4.701  13.342   3.657
78284W        W50632   2.858  43.446   3.656
78285W        W50633   4.914  23.066   4.836
78286W        W50634   6.354  23.559  10.603
78287W        W50635  32.072  39.341  11.121
78288W        W50636  12.787   1.307   4.797
78289W        W50637   4.239   3.746   0.268
78290W        W50638   4.374  34.418   0.246
78291W        W50639   0.475  23.136  12.923
78292W        W50640   3.216  19.193   0.767
78293W        W50641  10.308   6.805  11.411
78294W        W50642  27.038  40.484  10.509
78295W        W50643  24.515   5.768   0.456
78296W        W50644  38.875   3.252  11.397
78297W        W50645  14.780   4.259  11.430
78298W        W50646   2.435  17.687  13.469
78299W        W50647   6.425   2.373  10.898
78300W        W50648  12.250  43.984   1.385
78301W        W50649  13.653   3.435  12.435
78302W        W50650   6.186  15.109   2.858
78303W        W50651  32.037  38.929  10.491
78304W        W50652  42.024  40.975   3.656
78305W        W50653  32.961  11.849   1.920
78306W        W50654  20.042  39.879  11.480
78307W        W50655  26.166  32.587   1.357
78308W        W50656   9.352  21.050   2.761
78309W        W50657  16.112  39.488  13.820
78310W        W50658  26.663  40.823   3.264
78311W        W50659  38.411  16.306   3.291
78312W        W50660  34.916  10.311   1.371
78313W        W50661  28.627  34.596   2.878
78314W        W50662  24.655  37.362  12.344
78315W        W50663  37.967  13.150   4.254
78316W        W50664   1.883   9.273  11.600
78317W        W50665  30.572  38.514   4.230
78318W        W50666   0.776   2.267  11.946
78319W        W50667  43.967  32.502   1.818
78320W        W50668  21.525  25.484   3.852
78321W        W50669   8.815   8.260  11.567
78322W        W50670  40.532  40.397  13.905
78323W        W50671   5.849  11.163   3.274
78324W        W50672  31.430  23.225   1.932
78325W        W50673  17.287  19.653   4.219
78326W        W50674  41.869  25.591  13.346
78327W        W50675  30.485   4.901  10.964
78328W        W50676   6.220  12.308   4.642
78329W        W50677   1.322  29.667   3.802
78330W        W50678   6.903   5.827   0.965
78331W        W50679  11.700   6.229  11.951
78332W        W50680  18.791  19.184  11.973
78333W        W50681  15.752   5.202   0.325
78334W        W50682  14.158  29.022  10.574
78335W        W50683  27.052  15.695   0.470
78336W        W50684  23.123  15.182   3.758
78337W        W50685  37.466  23.156  12.529
78338W        W50686  29.978  19.578   0.315
78339W        W50687  19.243  36.464   4.262
78340W        W50688  17.210  35.569   4.622
78341W        W50689  39.322  15.147   0.799
78342W        W50690  42.793  15.581  10.570
78343W        W50691  15.773  39.352  14.858
78344W        W50692  18.117  28.482  14.778
78345W        W50693  18.628  30.919   4.680
78346W        W50694  25.126  32.015  14.892
78347W        W50695  36.363  17.070  11.493
78348W        W50696  15.662  20.688  14.819
78349W        W50697  31.466   8.236  12.417
78350W        W50698  11.780  27.453   0.778
78351W        W50699  16.081  17.220  11.014
78352W        W50700   2.932  33.610   2.854
78353W        W50701  36.081  24.999   3.768
78354W        W50702  14.238   6.728   0.787
78355W        W50703   9.666  33.941   2.729
78356W        W50704  26.463  43.308  13.414
78357W        W50705  40.509   2.763   4.788
78358W        W50706  27.583  44.473   0.867
78359W        W50707   8.848  41.910   3.786
78360W        W50708   9.715  43.497  13.359
78361W        W50709  35.445   7.175   3.307
78362W        W50710  18.671  10.175   2.289
78363W        W50711  29.468  38.521   4.815
78364W        W50712  40.396  22.730  12.547
78365W        W50713  15.254  15.694  14.022
78366W        W50714  16.581  12.692  13.530
78367W        W50715   0.391   5.326  14.772
78368W        W50716  11.287  18.746  11.390
78369W        W50717  25.662  33.906  12.906
78370W        W50718  41.816  38.865  14.855
78371W        W50719  41.377  35.043   1.813
78372W        W50720   0.286  33.895  14.869
78373W        W50721   1.942  36.059  11.591
78374W        W50722  22.230  19.556  14.879
78375W        W50723   9.776  17.176   2.797
78376W        W50724   4.862  38.824   4.620
78377W        W50725  37.432  34.549   2.856
78378W        W50726   5.866  36.508  11.916
78379W        W50727  33.050  14.221  10.911
78380W        W50728  18.281  38.893  13.834
78381W        W50729  35.498  16.085  12.534
78382W        W50730  18.774  30.923   2.816
78383W        W50731  16.785  12.307  14.349
78384W        W50732  39.461   1.354  13.426
78385W        W50733  15.769  37.522  11.468
78386W        W50734  10.780  18.160   0.886
78387W        W50735  34.448  41.367  12.864
78388W        W50736  29.058   4.759  14.923
78389W        W50737  40.534   1.806   0.304
78390W        W50738  34.371  13.802   3.337
78391W        W50739  34.065  20.758   3.365
78392W        W50740  25.684   8.668  11.958
78393W        W50741  26.172  27.133   2.314
78394W        W50742  30.529  40.349   4.328
78395W        W50743  42.790   8.188  12.551
78396W        W50744  30.141  12.674  10.988
78397W        W50745  11.201  23.635   1.833
78398W        W50746  23.599  18.181  12.852
78399W        W50747  11.770  29.611  13.380
78400W        W50748  13.814  37.372  13.821
78401W        W50749   7.278  36.034   0.764
78402W        W50750  22.589  16.153   0.935
78403W        W50751  18.131  33.979   3.379
78404W        W50752  42.438  23.647   0.955
78405W        W50753  35.423   9.195  13.339
78406W        W50754  42.398  11.225   1.386
78407W        W50755  12.770  16.261  12.930
78408W        W50756  31.097   7.386  14.830
78409W        W50757  37.019   1.263  12.038
78410W        W50758  12.189  29.024   3.729
78411W        W50759  20.213  29.158  11.457
78412W        W50760   4.714  43.017  14.817
78413W        W50761  40.014   8.207   4.717
78414W        W50762  39.985  22.700  10.443
78415W        W50763   8.369  37.892   2.360
78416W        W50764  36.967  28.081   4.287
78417W        W50765  17.626  10.643   2.833
78418W        W50766  15.705  19.552  13.398
78419W        W50767  42.456  41.536   4.135
78420W        W50768  31.407  40.310   2.777
78421W        W50769  36.381  17.735   1.920
78422W        W50770   1.759  39.852   4.803
78423W        W50771  33.409  17.601   1.410
78424W        W50772  19.112  26.204  11.932
78425W        W50773   4.390  11.138   1.366
78426W        W50774  10.787  26.196  11.434
78427W        W50775   8.357  38.443   2.670
78428W        W50776  20.548  10.360   0.803
78429W        W50777   8.819   0.853   2.357
78430W        W50778  37.935  31.442   4.343
78431W        W50779   9.720  22.677  13.811
78432W        W50780   1.298  41.852  14.384
78433W        W50781  39.543   1.751   4.144
78434W        W50782   7.331  26.503  12.045
78435W        W50783  19.073  37.418  14.500
78436W        W50784  11.800  36.507   1.894
78437W        W50785  42.514  22.184  11.530
78438W        W50786  40.903  10.738  10.511
78439W        W50787   3.397  28.998  12.018
78440W        W50788  29.643  30.155   0.274
78441W        W50789  31.003  39.958   2.418
78442W        W50790   7.768  23.614  14.340
78443W        W50791  25.998  42.808   3.298
78444W        W50792   5.711  12.209   0.420
78445W        W50793   3.320  39.912  12.423
78446W        W50794  32.590  18.088  12.986
78447W        W50795  11.264  14.181   3.195
78448W        W50796  29.938  24.542  14.329
78449W        W50797  27.060   1.901  10.568
78450W        W50798  19.248  20.098  13.928
78451W        W50799  15.702  33.529  10.603
78452W        W50800  40.464  21.188  11.400
78453W        W50801  44.488  27.098  10.406
78454W        W50802  16.282   7.284  12.367
78455W        W50803  22.142   7.235   2.369
78456W        W50804   5.281  25.565   1.338
78457W        W50805  42.281  39.031   4.198
78458W        W50806   3.238   1.276   4.216
78459W        W50807   1.448  35.539  13.966
78460W        W50808   6.724  34.049  14.330
78461W        W50809  10.851  41.855  14.386
78462W        W50810  43.384  35.030   4.210
78463W        W50811  40.053  15.691   0.851
78464W        W50812  43.474   5.199  11.386
78465W        W50813   6.724  43.944  12.850
78466W        W50814   9.873   9.694  14.348
78467W        W50815  44.296   9.171   3.216
78468W        W50816  26.065  26.052  13.910
78469W        W50817   5.211   4.242   0.946
78470W        W50818   1.845  42.965   3.818
78471W        W50819  19.564  30.036  14.388
78472W        W50820  41.457  11.127   3.834
78473W        W50821   0.284  18.051   4.717
78474W        W50822   5.848  40.475  11.985
78475W        W50823  29.660  16.600  11.507
78476W        W50824   2.872  44.875  12.021
78477W        W50825  38.065  29.122  13.426
78478W        W50826  40.438  10.262  14.782
78479W        W50827  31.909  30.559   2.282
78480W        W50828  29.463   9.738  12.498
78481W        W50829   9.320  35.953  11.565
78482W        W50830  29.626  38.347  10.612
78483W        W50831  10.797   6.183   4.290
78484W        W50832  29.621  44.788  13.519
78485W        W50833   7.880  23.529   1.721
78486W        W50834  14.704  15.695  14.484
78487W        W50835   4.363  38.455  11.052
78488W        W50836   6.872  15.173  12.916
78489W        W50837  30.639   8.678  10.041
78490W        W50838  31.404  34.505   5.098
78491W        W50839  38.875  32.405  12.030
78492W        W50840  32.428  19.563   2.807
78493W        W50841   4.207  39.877  11.991
78494W        W50842   6.911   1.408  13.026
78495W        W50843  37.515  31.060  12.077
78496W        W50844  32.589  22.575   3.641
78497W        W50845  44.262  33.392  12.889
78498W        W50846  42.851   2.378  12.558
78499W        W50847  28.651  34.066   0.940
78500W        W50848  26.045   6.385   2.747
78501W        W50849   0.935  42.004  10.505
78502W        W50850  33.928  25.659  11.396
78503W        W50851  35.568  33.540  13.933
78504W        W50852  31.522  27.155  13.469
78505W        W50853   3.424  37.078   1.301
78506W        W50854  35.055  32.605  13.847
78507W        W50855   5.388  31.438   1.757
78508W        W50856  25.096  43.967  14.909
78509W        W50857  22.576  15.622   3.341
78510W        W50858  42.973  39.510   3.783
78511W        W50859  41.859  23.713   2.841
78512W        W50860   2.367  35.487  10.925
78513W        W50861  38.400   4.856   3.200
78514W        W50862  41.030  14.150  14.354
78515W        W50863  11.199  12.208  11.511
78516W        W50864  11.765  39.337   3.351
78517W        W50865  29.669  36.095   2.791
78518W        W50866  18.270  12.331   0.963
78519W        W50867  44.988   9.176  14.821
78520W        W50868   0.488  30.650   4.735
78521W        W50869  19.631  40.834  14.450
78522W        W50870   7.195  22.656   1.363
78523W        W50871   8.162  10.691   2.257
78524W        W50872  26.144  20.657   0.870
78525W        W50873  31.938  13.650   0.276
78526W        W50874  31.444  42.455   2.849
78527W        W50875  37.355  34.457  10.484
78528W        W50876  24.649  13.691   3.709
78529W        W50877  16.238  23.041  11.383
78530W        W50878  33.052  26.058   4.351
78531W        W50879  12.354  15.739  11.872
78532W        W50880  11.698  19.552   4.352
78533W        W50881  44.772  34.929  11.887
78534W        W50882  34.955  39.970   4.696
78535W        W50883  13.617  26.476   2.670
78536W        W50884  31.611  15.109  14.771
78537W        W50885  27.492  10.815  10.531
78538W        W50886  13.699  19.734   3.718
78539W        W50887   8.753  32.518  11.043
78540W        W50888  21.544   9.370   2.688
78541W        W50889   6.792  23.701  10.550
78542W        W50890  29.583  25.069  13.950
78543W        W50891   5.339  40.395  14.362
78544W        W50892  39.039  29.478  14.799
78545W        W50893  17.794  15.096   4.225
78546W        W50894  32.397  17.646   2.843
78547W        W50895  37.424  34.427   2.191
78548W        W50896   5.806  25.083  14.959
78549W        W50897   2.920   6.870  11.909
78550W        W50898  24.480  12.274  11.042
78551W        W50899  32.099  19.144   4.244
78552W        W50900  33.552  12.353  10.443
78553W        W50901  36.063  14.668   4.637
78554W        W50902  22.557   7.718   2.268
78555W        W50903  17.136  34.578  14.900
78556W        W50904  26.607  30.125  10.951
78557W        W50905  17.741  32.430   2.180
78558W        W50906  20.243  16.244   4.230
78559W        W50907  22.027  22.563   4.287
78560W        W50908   1.312  22.085   2.299
78561W        W50909  44.478  42.841  13.049
78562W        W50910  16.800  14.688   5.161
78563W        W50911  23.512  43.323  11.478
78564W        W50912  13.248   3.228   1.909
78565W        W50913  17.565  40.373  10.493
78566W        W50914  25.157  19.284   3.678
78567W        W50915  17.293   0.953  11.027
78568W        W50916  30.072  40.370  12.838
78569W        W50917   1.351  14.180  11.578
78570W        W50918   1.254  19.599   1.243
78571W        W50919   9.240  25.486  12.516
78572W        W50920   8.702   4.399   0.732
78573W        W50921  20.079  33.119  12.931
78574W        W50922   3.215  28.459   1.900
78575W        W50923  31.086  30.128   0.793
78576W        W50924  13.177   5.829  12.508
78577W        W50925  17.724  29.022   2.378
78578W        W50926  38.568  20.072   0.916
78579W        W50927  42.928  13.723   2.183
78580W        W50928  15.156  34.585   0.924
78581W        W50929  31.544  37.069  12.039
78582W        W50930   6.856  24.124  12.062
78583W        W50931  35.944  17.600   2.699
78584W        W50932  19.780   8.380   1.925
78585W        W50933   3.891  20.247  11.505
78586W        W50934  16.677  18.108   0.810
78587W        W50935   6.690   4.393   1.419
78588W        W50936  13.174  32.075   4.295
78589W        W50937   1.330  10.333   1.812
78590W        W50938  36.528  22.220  10.929
78591W        W50939  16.727  16.599  12.060
78592W        W50940  29.636  35.554   3.381
78593W        W50941  32.499  21.237  11.541
78594W        W50942  25.994  33.394   3.344
78595W        W50943  16.665  38.526   0.482
78596W        W50944  31.966  28.529   1.448
78597W        W50945   0.271  24.488  12.548
78598W        W50946  32.612  24.994   3.329
78599W        W50947   7.248  36.456  14.993
78600W        W50948  40.323  17.245  10.117
78601W        W50949   9.380  19.266   0.316
78602W        W50950  29.164  30.441  12.405
78603W        W50951  24.705  10.252   5.113
78604W        W50952  30.088  21.194  11.076
78605W        W50953  10.286  32.506   2.206
78606W        W50954   4.734   6.353   4.200
78607W        W50955   7.313  17.608   3.325
78608W        W50956  24.718  40.998   1.339
78609W        W50957  19.104   3.910  12.077
78610W        W50958  22.693   0.478   4.720
78611W        W50959  36.588  36.957  13.957
78612W        W50960  24.111  27.052   1.399
78613W        W50961  14.273  23.118   3.374
78614W        W50962  29.568  17.199   4.298
78615W        W50963  25.978   5.732   3.838
78616W        W50964   1.894  20.091   3.800
78617W        W50965   5.797  25.593   2.405
78618W        W50966  23.222  28.482   2.717
78619W        W50967  39.438  21.708  13.466
78620W        W50968  33.985  29.938   3.219
78621W        W50969  38.991   6.224   2.841
78622W        W50970   6.246  32.424  11.413
78623W        W50971  35.589  30.970   1.405
78624W        W50972  30.163  10.704  12.060
78625W        W50973  36.853  40.972  12.555
78626W        W50974  19.605  31.561  10.064
78627W        W50975  36.532  14.298   1.919
78628W        W50976  14.628   0.975  14.483
78629W        W50977  35.998  15.609  10.616
78630W        W50978  27.526  15.248  12.437
78631W        W50979  26.992  37.350  13.031
78632W        W50980  21.227   4.885  10.934
78633W        W50981  19.578  22.505   0.431
78634W        W50982  39.930   4.749  11.926
78635W        W50983   1.841  23.533  11.070
78636W        W50984  19.571  14.300   1.240
78637W        W50985   4.704  13.670   1.395
78638W        W50986  23.069   0.285   0.393
78639W        W50987  20.161  25.517  11.089
78640W        W50988  36.964  22.545   4.132
78641W        W50989   1.781  25.005  12.932
78642W        W50990   5.779  44.275  11.098
78643W        W50991  35.418   2.285   0.273
78644W        W50992  22.686  34.512   4.210
78645W        W50993  21.579   7.233   3.665
78646W        W50994  40.939  23.519  12.966
78647W        W50995  32.035  42.868   3.146
78648W        W50996  37.581  11.199  13.870
78649W        W50997   8.211  37.059   3.268
78650W        W50998  26.132  30.140   1.815
78651W        W50999  38.008  16.590   4.241
78652W        W51000  39.047  28.494  13.866
78653W        W51001  33.938  36.450  11.904
78654W        W51002  25.989   5.905  13.879
78655W        W51003   8.697   9.332  12.000
78656W        W51004  10.172  38.368   0.777
78657W        W51005  13.640  25.169  13.462
78658W        W51006  40.967  34.863   0.856
78659W        W51007   0.982  36.489   0.348
78660W        W51008  31.488  13.719  14.787
78661W        W51009  35.549   4.822   0.469
78662W        W51010   6.763  28.160  12.037
78663W        W51011  34.097   7.391   3.817
78664W        W51012  40.905  36.008   4.331
78665W        W51013  10.371  36.016  11.512
78666W        W51014  29.033  10.788   4.762
78667W        W51015  12.719  20.551  13.340
78668W        W51016   2.345  21.193   3.773
78669W        W51017  36.073  15.643  11.593
78670W        W51018   0.473  29.967   4.349
78671W        W51019   8.366   4.737   2.688
78672W        W51020   4.324  18.581   0.789
78673W        W51021   7.197   8.375   0.312
78674W        W51022  20.184  35.493   2.750
78675W        W51023  28.981   8.310   1.775
78676W        W51024  38.893  30.611   0.399
78677W        W51025  22.011   1.312   4.623
78678W        W51026   8.341  34.554  11.407
78679W        W51027  28.437  32.516   1.262
78680W        W51028   6.404  20.556   2.765
78681W        W51029  32.027  39.420  12.454
78682W        W51030  23.554  36.490   1.725
78683W        W51031   6.274  31.408  11.503
78684W        W51032  26.123   6.383  14.362
78685W        W51033  21.687  12.162  14.351
78686W        W51034   8.270  22.675  11.002
78687W        W51035   6.702  38.949  14.933
78688W        W51036  38.016  36.576  14.996
78689W        W51037  16.119  40.813  10.914
78690W        W51038  21.205  15.790   3.238
78691W        W51039  41.356  42.396  11.436
78692W        W51040   8.714   9.307   1.761
78693W        W51041  22.513   3.376   2.203
78694W        W51042  15.779   7.356   0.925
78695W        W51043  16.179  28.665  11.518
78696W        W51044  30.576   1.811  10.990
78697W        W51045   8.250   1.475  14.479
78698W        W51046  24.056   3.954  13.452
78699W        W51047  37.466  19.536  14.860
78700W        W51048  22.135  10.756   2.801
78701W        W51049  36.446  15.117   3.224
78702W        W51050  10.334  15.768   2.780
78703W        W51051  17.073  13.653   3.193
78704W        W51052  25.495   9.704   1.216
78705W        W51053  11.344  37.962   0.896
78706W        W51054  38.936  35.537   3.713
78707W        W51055  24.597   1.847   2.414
78708W        W51056  19.682  41.357  13.826
78709W        W51057  25.220  37.517  11.004
78710W        W51058  18.230  44.779  10.470
78711W        W51059  42.513  32.996   3.192
78712W        W51060  34.071   4.789  13.455
78713W        W51061  13.321  34.909  12.451
78714W        W51062  10.840   1.889  12.996
78715W        W51063  20.272  26.456   4.209
78716W        W51064  38.959  10.176  13.999
78717W        W51065  26.680   2.355   2.807
78718W        W51066  32.449   3.380   0.314
78719W        W51067  42.371   4.215   4.175
78720W        W51068  35.940  25.637   3.181
78721W        W51069  44.494  13.795   4.816
78722W        W51070  30.064  43.876  12.096
78723W        W51071   2.305  40.407   3.151
78724W        W51072  37.457   1.441  10.490
78725W        W51073   9.757   3.423  10.471
78726W        W51074  34.409  24.564   3.191
78727W        W51075  28.109  40.482   0.937
78728W        W51076  32.933  29.442  13.011
78729W        W51077   1.418  12.850  10.533
78730W        W51078  29.068  13.185   1.321
78731W        W51079  41.462  34.072   0.340
78732W        W51080  37.893  13.604  10.534
78733W        W51081   1.450  31.494  11.096
78734W        W51082  16.691   1.887  10.966
78735W        W51083   6.679  36.984  11.128
78736W        W51084  30.995  37.921   1.338
78737W        W51085   4.921   6.719   1.901
78738W        W51086  41.786  22.733   1.357
78739W        W51087   0.770   5.929  11.865
78740W        W51088  25.063  30.934  10.898
78741W        W51089  34.483  40.933  10.911
78742W        W51090   3.250  37.516   2.800
78743W        W51091   3.861   5.807   4.641
78744W        W51092   6.876  34.903  14.779
78745W        W51093   1.288  27.630  14.348
78746W        W51094  18.612  17.664  10.939
78747W        W51095  37.560  42.389   1.725
78748W        W51096  25.051  13.203   4.142
78749W        W51097  28.449  18.110   0.375
78750W        W51098   1.285  12.798   1.767
78751W        W51099   2.463  21.669  13.332
78752W        W51100  13.776  27.080   1.917
78753W        W51101  19.051   6.429   3.831
78754W        W51102  16.255   3.369  14.826
78755W        W51103   4.892  43.879   4.331
78756W        W51104  20.223  32.018   2.268
78757W        W51105  12.150  30.132  13.360
78758W        W51106  18.264   2.442  14.388
78759W        W51107   9.696  31.124   0.844
78760W        W51108  41.957   9.886   3.633
78761W        W51109  16.235  23.192  13.518
78762W        W51110  23.628   6.313  13.493
78763W        W51111  14.707  21.234  12.544
78764W        W51112  27.584  19.648   2.293
78765W        W51113  36.574  34.383  14.937
78766W        W51114  13.806  22.681   3.174
78767W        W51115  15.203  15.228  12.435
78768W        W51116  16.599  33.049   1.801
78769W        W51117  15.306  35.890  13.464
78770W        W51118  33.436  22.516  11.606
78771W        W51119  35.050  23.558   0.430
78772W        W51120  44.878   5.776   2.787
78773W        W51121   1.846  16.188  14.333
78774W        W51122  25.179  32.589   3.335
78775W        W51123  10.281  42.980   2.197
78776W        W51124  41.331  25.193  11.980
78777W        W51125   3.285  37.085   3.366
78778W        W51126  38.507  44.909  13.518
78779W        W51127  24.047  24.547   4.292
78780W        W51128  39.434  25.204  12.496
78781W        W51129  10.849  35.512  11.899
78782W        W51130  41.838  21.719   2.197
78783W        W51131  28.597  39.912   1.391
78784W        W51132  11.181  13.801  13.851
78785W        W51133  30.975  13.313  13.062
78786W        W51134  34.477  36.580   2.218
78787W        W51135  22.037  42.922   0.825
78788W        W51136  30.549  32.983   1.768
78789W        W51137  20.539  10.858   3.156
78790W        W51138  31.056  43.504  13.858
78791W        W51139   5.323   6.297   2.846
78792W        W51140  15.316  13.175   0.861
78793W        W51141  34.397  35.893  11.592
78794W        W51142   7.819   4.861   3.276
78795W        W51143   5.318  14.274  10.917
78796W        W51144  12.168   4.849   3.360
78797W        W51145  32.106  15.239   1.287
78798W        W51146  25.967   1.893  10.536
78799W        W51147  19.042  42.986   4.314
78800W        W51148  41.841   8.851  10.523
78801W        W51149  19.195  17.199  13.314
78802W        W51150   8.733  40.331   4.117
78803W        W51151  41.472   4.436   1.853
78804W        W51152  26.526  19.132  12.062
78805W        W51153  35.555  40.474   4.263
78806W        W51154   6.286  22.721  14.773
78807W        W51155  29.449  29.614  14.004
78808W        W51156  26.969   7.912  14.026
78809W        W51157  33.898  12.275   4.330
78810W        W51158  14.113   1.259   0.376
78811W        W51159  29.463  15.745   3.647
78812W        W51160   2.904  22.037   2.247
78813W        W51161   4.300  18.572  11.520
78814W        W51162   4.767  21.069   2.303
78815W        W51163  22.695  16.628  13.836
78816W        W51164  42.371   6.718  11.001
78817W        W51165  33.101  13.193  14.385
78818W        W51166  20.079  33.917   4.802
78819W        W51167  44.766  26.602   1.825
78820W        W51168  28.173  36.078   4.745
78821W        W51169  22.223  12.846  12.970
78822W        W51170  14.742  37.916   3.650
78823W        W51171  23.489   1.953  11.497
78824W        W51172  43.375  13.800   0.820
78825W        W51173  37.353  30.932   1.215
78826W        W51174  23.995  41.862   4.326
78827W        W51175  23.152   3.729  13.529
78828W        W51176  40.512  18.661   0.877
78829W        W51177  42.295  36.491   3.675
78830W        W51178   2.382   8.884  11.098
78831W        W51179  26.005  41.967  11.441
78832W        W51180  37.081  15.329  11.489
78833W        W51181  26.197   7.726  14.482
78834W        W51182  35.590  24.542  11.484
78835W        W51183  36.940  23.091   2.778
78836W        W51184  36.874   6.753  14.488
78837W        W51185  27.122  13.343  13.901
78838W        W51186  39.036   0.426  14.961
78839W        W51187  14.144  12.173   2.250
78840W        W51188   3.898  21.512  13.036
78841W        W51189   1.906  16.199   1.296
78842W        W51190  37.556  43.489  14.808
78843W        W51191  44.472  26.087   0.341
78844W        W51192  19.626  34.587   1.451
78845W        W51193  13.139  37.414  12.882
78846W        W51194  14.664  19.656   1.297
78847W        W51195   5.257  23.616  12.422
78848W        W51196  10.287  41.793  13.819
78849W        W51197  41.930  40.034  14.499
78850W        W51198  19.229  26.564   4.118
78851W        W51199   8.221  22.083   3.200
78852W        W51200  19.190  30.610  14.850
78853W        W51201  38.395  21.034  14.920
78854W        W51202  36.497  33.998  12.382
78855W        W51203  35.952  44.766  13.048
78856W        W51204  18.230  19.045  11.886
78857W        W51205  22.045  38.496  13.049
78858W        W51206  13.763  28.582   4.326
78859W        W51207  11.158  20.233  12.027
78860W        W51208  13.657  29.162  13.469
78861W        W51209  31.093  43.392   2.817
78862W        W51210  21.139   6.190   2.269
78863W        W51211  16.609  13.346  14.388
78864W        W51212  21.536  25.212   2.774
78865W        W51213   6.780  18.180   0.926
78866W        W51214  21.610  32.549  12.506
78867W        W51215  29.427   4.883  14.862
78868W        W51216  18.082  22.091  14.371
78869W        W51217  30.104  37.880   4.125
78870W        W51218   6.923  13.808  14.341
78871W        W51219   1.893  27.605   2.724
78872W        W51220  34.975  17.121   4.676
78873W        W51221  11.190  43.013   0.308
78874W        W51222  32.476  20.153   4.684
78875W        W51223   7.264  14.829   3.146
78876W        W51224  29.522  10.362  12.053
78877W        W51225  35.035  29.157  10.981
78878W        W51226  44.366  27.539   4.694
78879W        W51227  39.478   7.369  12.554
78880W        W51228  16.256  41.968   4.116
78881W        W51229  12.127   7.350  14.814
78882W        W51230  38.866  13.220  13.376
78883W        W51231   7.279  25.108  14.338
78884W        W51232  21.705  20.752  13.897
78885W        W51233   1.930  40.349  12.929
78886W        W51234   5.300  19.185  10.529
78887W        W51235  17.743   2.361   3.786
78888W        W51236   5.329  44.888  11.551
78889W        W51237   3.456  39.395   2.397
78890W        W51238  23.722  37.871   2.229
78891W        W51239  28.467  28.966  14.891
78892W        W51240  23.550   2.337   0.328
78893W        W51241  30.969  35.562  10.500
78894W        W51242  30.058   2.873  10.542
78895W        W51243  16.588  28.087  12.434
78896W        W51244  43.485  29.620   4.819
78897W        W51245  39.990  25.010   2.361
78898W        W51246  15.818  28.075  10.493
78899W        W51247   7.330  17.702   4.114
78900W        W51248   8.718  39.949  14.452
78901W        W51249  26.661  31.478  11.973
78902W        W51250  13.275  20.689   0.398
78903W        W51251  12.818   8.288   1.248
78904W        W51252  17.081   6.395  14.453
78905W        W51253  24.049  12.189  10.538
78906W        W51254  31.912  29.978   2.856
78907W        W51255  39.844   1.931  13.497
78908W        W51256   5.934   8.322   4.330
78909W        W51257  33.424  19.240   4.267
78910W        W51258   2.932  42.466  11.488
78911W        W51259  43.423   6.870   4.338
78912W        W51260   2.876  13.601   1.917
78913W        W51261  16.135  20.081   4.228
78914W        W51262  26.641  37.995   2.304
78915W        W51263  10.820  27.983  10.417
78916W        W51264  24.640  31.013  10.415
78917W        W51265  31.111  23.613  14.924
78918W        W51266  27.451  25.055   1.415
78919W        W51267  10.664  40.825   2.349
78920W        W51268  17.668  24.644   4.734
78921W        W51269  29.526  31.951  10.063
78922W        W51270  15.727  20.218   3.371
78923W        W51271  14.297   5.926  13.463
78924W        W51272  19.712  12.203  10.450
78925W        W51273  43.316  34.945  12.476
78926W        W51274  26.086  43.868  13.412
78927W        W51275  34.092   5.720   5.275
78928W        W51276   1.933  32.120   0.369
78929W        W51277  31.577  34.495   0.760
78930W        W51278  36.896   5.227  14.968
78931W        W51279  43.804  34.974  11.503
78932W        W51280   7.214  10.653  12.082
78933W        W51281  10.818  27.096  10.535
78934W        W51282  14.768   8.388   4.143
78935W        W51283  19.284  23.006  12.074
78936W        W51284   3.338  37.443   1.861
78937W        W51285   7.901  34.533  14.438
78938W        W51286  44.005  21.626   4.613
78939W        W51287   8.755  30.414   3.861
78940W        W51288   0.414  17.279  10.468
78941W        W51289  28.991  14.266  11.113
78942W        W51290   5.744  43.786   0.881
78943W        W51291  35.540  35.915   1.833
78944W        W51292   0.257  14.775   2.315
78945W        W51293  35.944  38.374  13.974
78946W        W51294  25.515   0.826  12.535
78947W        W51295  12.702   3.285  11.936
78948W        W51296   0.857  35.448  14.382
78949W        W51297  14.093   9.349  13.509
78950W        W51298  32.433  36.989   9.607
78951W        W51299  23.015   4.907  12.032
78952W        W51300   0.985  31.500   4.339
78953W        W51301   3.290  19.705   2.381
78954W        W51302  13.299  34.557  14.861
78955W        W51303  14.249   8.243   0.371
78956W        W51304  22.076   2.830   3.630
78957W        W51305  15.252   6.214  11.962
78958W        W51306  10.665  32.119  13.834
78959W        W51307  23.532  21.544   0.251
78960W        W51308  13.674  26.631   3.163
78961W        W51309  38.344   5.865  14.872
78962W        W51310  35.023  23.050  11.028
78963W        W51311  44.933  33.877   1.849
78964W        W51312  40.958  33.038  13.311
78965W        W51313  40.498  25.102  14.835
78966W        W51314  24.186  42.776  13.920
78967W        W51315  38.488  37.505  10.073
78968W        W51316  40.476  10.178  10.044
78969W        W51317  20.251   0.847   3.280
78970W        W51318  23.093  23.019  13.831
78971W        W51319  14.231   9.195  14.331
78972W        W51320  25.673  43.319   2.735
78973W        W51321  36.994   1.415   4.231
78974W        W51322  39.361  27.070  11.958
78975W        W51323  39.459  31.524  14.319
78976W        W51324  39.995  30.042  13.498
78977W        W51325  13.302  13.151   1.429
78978W        W51326  22.076   6.844  13.957
78979W        W51327  13.632  24.658  10.509
78980W        W51328  31.632   6.275  11.904
78981W        W51329  38.468   3.320  13.961
78982W        W51330  37.406  21.091  13.338
78983W        W51331   3.430  19.623   1.238
78984W        W51332  13.834  40.982  12.859
78985W        W51333  43.020   2.847  12.972
78986W        W51334   4.439  28.579   2.397
78987W        W51335  32.041  12.269  12.916
78988W        W51336  28.964  15.671  10.608
78989W        W51337  42.474  22.076  14.878
78990W        W51338  13.289  27.636   0.752
78991W        W51339  18.267  26.555  13.832
78992W        W51340  14.813   4.811  10.972
78993W        W51341   4.277  18.617  13.335
78994W        W51342   1.959  37.872  10.450
78995W        W51343  35.076  42.939  12.868
78996W        W51344  41.857  13.775  13.529
78997W        W51345  42.513  42.330   3.784
78998W        W51346  15.216   5.746   2.806
78999W        W51347  32.540  23.568   0.281
79000W        W51348   9.826  20.112   9.443
79001W        W51349  25.699  23.239  12.968
79002W        W51350   0.982   3.246   5.116
79003W        W51351   8.866   2.957  14.310
79004W        W51352  38.055  34.509  14.481
79005W        W51353  28.440  41.912  12.411
79006W        W51354   6.348   1.798  12.470
79007W        W51355   7.691  40.947   1.843
79008W        W51356  41.529  11.305  12.940
79009W        W51357  29.929   4.859  12.916
79010W        W51358   9.741  15.789  12.034
79011W        W51359  40.335  24.724   2.307
79012W        W51360  10.853   1.906  12.396
79013W        W51361  17.219  41.302   0.347
79014W        W51362  13.635  10.279  11.992
79015W        W51363  38.373  11.768   2.771
79016W        W51364   0.792  22.015   1.757
79017W        W51365  25.614  19.134  12.091
79018W        W51366  32.020  18.246   1.309
79019W        W51367  38.533  35.041   4.773
79020W        W51368  36.487  26.963   2.218
79021W        W51369  27.518  19.164   4.217
79022W        W51370  41.034  15.189   3.295
79023W        W51371  31.462  30.414   4.612
79024W        W51372  43.982   2.864   0.327
79025W        W51373  20.767  39.431  12.534
79026W        W51374   8.877   3.895  13.977
79027W        W51375  26.157  16.808  12.044
79028W        W51376  14.133  28.473   2.671
79029W        W51377  19.765   4.389  13.999
79030W        W51378  31.063  36.432   0.748
79031W        W51379  40.040  20.260  10.934
79032W        W51380  11.799  35.367   4.710
79033W        W51381  35.992  14.715  10.634
79034W        W51382  15.700   7.677   3.694
79035W        W51383   8.799   6.730  14.344
79036W        W51384  18.704  36.005   3.671
79037W        W51385  17.259  42.010   4.257
79038W        W51386  15.606  40.322  12.001
79039W        W51387   6.399  12.147   4.310
79040W        W51388  30.099  15.618   0.943
79041W        W51389  34.608  42.369  14.403
79042W        W51390  17.105  34.877   1.441
79043W        W51391  36.904   5.406   2.412
79044W        W51392  38.024   2.768  12.463
79045W        W51393  25.539  31.131  12.425
79046W        W51394  34.612  34.067   2.225
79047W        W51395  31.431  24.151   1.296
79048W        W51396  37.964  25.163  12.377
79049W        W51397  25.701  29.959   0.417
79050W        W51398   6.732  44.851   1.229
79051W        W51399  27.078  26.003  11.985
79052W        W51400  33.448  25.113   2.343
79053W        W51401  36.024  32.567  11.494
79054W        W51402  33.425  42.497   4.607
79055W        W51403  41.811  34.476   1.434
79056W        W51404  35.950  44.904   3.313
79057W        W51405   4.788  37.478   0.816
79058W        W51406  38.497  40.975   4.674
79059W        W51407   0.989   0.976  10.408
79060W        W51408  31.985  12.783   4.820
79061W        W51409   0.374  31.413  14.977
79062W        W51410  30.052  20.050   3.807
79063W        W51411  36.554  17.253   1.809
79064W        W51412   9.273  25.698   0.749
79065W        W51413  42.341  35.880   3.309
79066W        W51414  11.853   4.853  11.417
79067W        W51415  43.289  28.951   4.195
79068W        W51416  33.912  29.158  13.468
79069W        W51417  41.043  43.383  14.003
79070W        W51418  37.543  38.071   0.955
79071W        W51419   2.328  38.992   2.709
79072W        W51420  30.112  24.985  11.040
79073W        W51421  34.992  22.671   0.740
79074W        W51422  16.599  41.857   1.260
79075W        W51423  33.004  38.848  13.506
79076W        W51424   1.934  28.659   2.903
79077W        W51425  22.736  18.125  14.010
79078W        W51426  28.185  21.128   1.889
79079W        W51427  20.611   4.207  14.484
79080W        W51428  15.233  21.586  10.595
79081W        W51429   3.773  14.150  14.032
79082W        W51430  11.693  16.197   1.414
79083W        W51431  23.624  39.418   3.844
79084W        W51432  10.151  41.409   4.646
79085W        W51433  39.471   0.464   4.810
79086W        W51434  28.998  10.694   0.825
79087W        W51435  12.174  42.801   2.672
79088W        W51436  12.765  21.173  12.036
79089W        W51437  38.964  32.079   3.189
79090W        W51438  24.723   6.230  11.567
79091W        W51439   0.869  23.642  12.482
79092W        W51440  39.051  31.410   1.813
79093W        W51441  19.269   9.659  11.004
79094W        W51442  16.214   9.652   1.344
79095W        W51443   9.165  20.043  12.837
79096W        W51444  28.067  23.206  12.867
79097W        W51445  14.648  11.353  11.487
79098W        W51446  39.516  26.492  12.434
79099W        W51447  18.160  28.594  13.513
79100W        W51448  37.056  15.607  12.536
79101W        W51449  25.714  26.539   3.680
79102W        W51450   2.888  43.887  12.502
79103W        W51451  36.956  12.266   2.720
79104W        W51452   1.316  36.038   2.691
79105W        W51453  33.519  12.169  12.486
79106W        W51454  37.018  36.093  11.596
79107W        W51455   3.287  11.332  12.878
79108W        W51456  26.604  13.820  12.383
79109W        W51457  19.612  39.424   2.241
79110W        W51458  35.516  37.036  11.094
79111W        W51459  33.995  28.044   0.429
79112W        W51460  41.840  22.116  14.301
79113W        W51461  26.539   8.766  14.444
79114W        W51462  27.619  20.081   1.439
79115W        W51463  18.610  33.616   0.478
79116W        W51464   5.733  33.557  14.956
79117W        W51465  35.075  24.698   2.789
79118W        W51466   3.857   5.885   4.348
79119W        W51467  42.519  13.705  10.977
79120W        W51468  27.947  10.720   1.836
79121W        W51469  26.188  15.809  11.032
79122W        W51470  33.939  28.106   2.817
79123W        W51471  42.331  43.281   4.619
79124W        W51472   3.406  30.045  12.969
79125W        W51473   5.414  17.304   3.867
79126W        W51474  35.918  31.082   3.244
79127W        W51475  25.563  24.188   3.165
79128W        W51476  23.568   0.355  14.977
79129W        W51477  32.624  14.821  11.601
79130W        W51478   1.330  44.853   1.234
79131W        W51479   6.389  42.804   2.277
79132W        W51480  32.007  18.622   1.877
79133W        W51481   7.175  14.711  13.502
79134W        W51482  38.976  24.554   0.742
79135W        W51483  26.009   3.348   3.724
79136W        W51484  12.808  37.892  14.911
79137W        W51485  40.895  31.016  11.508
79138W        W51486   8.180  11.682  13.990
79139W        W51487  20.264  21.733  11.901
79140W        W51488  17.763  33.551   2.885
79141W        W51489   0.317  38.853  10.137
79142W        W51490  26.586  20.096  10.627
79143W        W51491  19.077  20.623   2.724
79144W        W51492  24.076   0.852   1.774
79145W        W51493  34.571   5.205  11.015
79146W        W51494  34.407  14.651   2.765
79147W        W51495  33.875  37.011  10.550
79148W        W51496   2.384  18.099  12.978
79149W        W51497  34.039  13.150   3.172
79150W        W51498  17.100  19.578   0.390
79151W        W51499  24.597  19.136  10.449
79152W        W51500  26.529   9.835  14.439
79153W        W51501  28.628  44.959  10.961
79154W        W51502  11.866  41.326   4.791
79155W        W51503  43.461  42.818  10.404
79156W        W51504  11.328  13.821   2.742
79157W        W51505  33.405  25.067   5.219
79158W        W51506  33.967  27.557  10.584
79159W        W51507  30.128  31.642  12.341
79160W        W51508  13.762   7.823   1.703
79161W        W51509  26.087  28.028   4.811
79162W        W51510  28.576  15.086   1.825
79163W        W51511  12.127  44.394  13.016
79164W        W51512  24.656   6.410  12.572
79165W        W51513  31.431  28.080   1.793
79166W        W51514   5.838  23.054   2.788
79167W        W51515   2.810  17.655   2.806
79168W        W51516   6.785  21.624  12.409
79169W        W51517  31.010  11.136   3.177
79170W        W51518   4.885  38.857   1.756
79171W        W51519  29.478   7.911  13.843
79172W        W51520   9.788  40.978  12.367
79173W        W51521  28.079  29.172   2.233
79174W        W51522  35.029  12.353   2.369
79175W        W51523  19.557  23.700  12.522
79176W        W51524  13.751  22.155   0.284
79177W        W51525  31.007  44.420  13.909
79178W        W51526  29.665  22.607   0.935
79179W        W51527  30.658  21.249   1.850
79180W        W51528  19.145  43.770  14.952
79181W        W51529   9.860   1.915  11.079
79182W        W51530  28.013   1.764  13.969
79183W        W51531   2.405  15.729   2.669
79184W        W51532   8.765   4.872   2.327
79185W        W51533   7.819  24.687   1.279
79186W        W51534  21.638   4.372   1.763
79187W        W51535   3.904  20.701  12.893
79188W        W51536  17.716  40.549   0.363
79189W        W51537  17.661  40.473   2.678
79190W        W51538  37.959  13.795  10.999
79191W        W51539  40.347  12.661  11.946
79192W        W51540   4.433   9.290  14.838
79193W        W51541   8.872  22.575   3.709
79194W        W51542  39.507  36.987  11.461
79195W        W51543   4.291  36.013   4.730
79196W        W51544  16.276   6.269  11.384
79197W        W51545  21.684  29.653   3.750
79198W        W51546  19.143  44.291   4.729
79199W        W51547  40.855  28.442  14.913
79200W        W51548   4.311  33.502  14.435
79201W        W51549   1.415  23.074   4.778
79202W        W51550  41.843  36.581   1.818
79203W        W51551   3.865  34.874  11.871
79204W        W51552  15.116  35.074  10.622
79205W        W51553  17.280  15.579  12.922
79206W        W51554  13.628   4.364   5.106
79207W        W51555  43.303  12.817   0.414
79208W        W51556  12.688  41.004  12.893
79209W        W51557  23.615  34.417   4.333
79210W        W51558  39.388   9.698   0.772
79211W        W51559   5.336   2.896  14.400
79212W        W51560  29.057  23.547   2.190
79213W        W51561  28.565   0.862   1.838
79214W        W51562   6.203  40.474   2.324
79215W        W51563  10.871  30.139  10.966
79216W        W51564  19.053   7.360  11.387
79217W        W51565  30.065  33.615  12.464
79218W        W51566  33.071   5.724  13.881
79219W        W51567  25.611   5.318   2.802
79220W        W51568  20.263   3.449   0.898
79221W        W51569  23.711  20.573   0.454
79222W        W51570  33.918  37.439  14.944
79223W        W51571  16.572  19.595   1.236
79224W        W51572  30.936  22.661   1.273
79225W        W51573  40.364  44.434  12.930
79226W        W51574  23.572  19.610  11.590
79227W        W51575   4.870  20.638  12.435
79228W        W51576  43.438  42.388  11.471
79229W        W51577   4.216  27.522   0.448
79230W        W51578  32.023   3.950   2.363
79231W        W51579  21.203  37.471  13.028
79232W        W51580  21.614  19.168   1.422
79233W        W51581  22.633  15.629   4.353
79234W        W51582  11.751  33.525   0.810
79235W        W51583  34.395  25.680  10.607
79236W        W51584  20.113  22.120  11.595
79237W        W51585  38.055   6.865  11.859
79238W        W51586  15.635  27.088  11.986
79239W        W51587   5.348  42.853   5.316
79240W        W51588  17.655   6.750   1.878
79241W        W51589   3.338  36.468   5.271
79242W        W51590  35.514  24.659   2.869
79243W        W51591  23.998  31.131   3.356
79244W        W51592  15.668   2.461  10.603
79245W        W51593  28.607  10.264   1.745
79246W        W51594  39.994  17.752  12.445
79247W        W51595   0.386  24.060  13.352
79248W        W51596  33.023  44.803   2.389
79249W        W51597   1.930  38.855   3.820
79250W        W51598  25.542   4.859  13.535
79251W        W51599  11.275  16.583   0.447
79252W        W51600  38.842  19.632  10.949
79253W        W51601  26.599  43.785  13.311
79254W        W51602  37.973  17.792  11.592
79255W        W51603   4.373   8.282   2.329
79256W        W51604  23.132   6.726  14.796
79257W        W51605  10.686  25.517  12.494
79258W        W51606  33.031   5.338   2.759
79259W        W51607  32.020   7.772  14.887
79260W        W51608  15.134  14.124   1.420
79261W        W51609  15.667  31.439  11.123
79262W        W51610  11.128  37.450   2.202
79263W        W51611   1.731  32.114  11.457
79264W        W51612  42.923  15.680   1.705
79265W        W51613  28.077  10.379  12.029
79266W        W51614  30.444  26.532  14.992
79267W        W51615  25.191  31.918  11.011
79268W        W51616  23.079  32.140  12.004
79269W        W51617  18.139  29.959   3.811
79270W        W51618   0.801  36.869   2.210
79271W        W51619  32.142  38.968  14.851
79272W        W51620  40.458  38.451   0.834
79273W        W51621  44.455  27.459  13.493
79274W        W51622  31.079  16.154   1.865
79275W        W51623  19.082   7.771   3.773
79276W        W51624   6.410  16.120   3.170
79277W        W51625   5.402  25.681  12.022
79278W        W51626  34.104  23.216   2.271
79279W        W51627  16.214  38.462   3.838
79280W        W51628   1.468  12.282  11.971
79281W        W51629  32.041   5.400   0.882
79282W        W51630  27.953  20.676   2.255
79283W        W51631  30.498  19.233   3.330
79284W        W51632  12.132  37.080   3.650
79285W        W51633   7.303  40.032   4.180
79286W        W51634   4.928   8.740  12.384
79287W        W51635  32.923  16.206   4.284
79288W        W51636   2.309  40.315  14.417
79289W        W51637  12.238  38.039  12.486
79290W        W51638   9.735  31.080  11.944
79291W        W51639   3.818   3.742   0.437
79292W        W51640  21.651  29.565   1.433
79293W        W51641  22.536  27.116   4.137
79294W        W51642  25.185   8.209   5.186
79295W        W51643   1.894  22.040  13.839
79296W        W51644  19.216  25.520  12.013
79297W        W51645  34.593  31.069  12.532
79298W        W51646   7.256  26.189   2.218
79299W        W51647  19.718  31.114   2.832
79300W        W51648  15.743  43.272   4.303
79301W        W51649   6.352  27.691  14.285
79302W        W51650   2.416  22.094   3.149
79303W        W51651  38.464   8.874   1.798
79304W        W51652   3.264  40.018   1.764
79305W        W51653   5.904  39.315  11.523
79306W        W51654  32.588   8.738  13.861
79307W        W51655  15.135  36.067   1.301
79308W        W51656  22.102  32.934  13.422
79309W        W51657  13.622  18.229   2.283
79310W        W51658  23.127  36.011   4.322
79311W        W51659  17.203   7.677  12.488
79312W        W51660  17.306  12.313  11.949
79313W        W51661  29.439  39.412   4.626
79314W        W51662  31.466  33.930   1.316
79315W        W51663  13.663   3.744  12.349
79316W        W51664  42.813  39.447  10.934
79317W        W51665  14.314  12.843   1.451
79318W        W51666  37.081  26.999   3.682
79319W        W51667  11.242  29.427  13.369
79320W        W51668   9.769  23.216   4.190
79321W        W51669   2.280  16.221   2.197
79322W        W51670  16.789  33.452  10.478
79323W        W51671   9.720  40.961  10.570
79324W        W51672  36.390  25.533   3.285
79325W        W51673  25.112  31.547  10.411
79326W        W51674  41.985  35.490   4.788
79327W        W51675  40.303  20.669  11.863
79328W        W51676   3.271  21.582  12.094
79329W        W51677  26.662  19.084   2.869
79330W        W51678  22.187  42.292   2.313
79331W        W51679  20.079  29.459   5.180
79332W        W51680  21.577  19.211   2.848
79333W        W51681  29.122  21.161  14.801
79334W        W51682  13.226  16.793  11.031
79335W        W51683  43.347  30.149   1.321
79336W        W51684  37.545  23.566  13.399
79337W        W51685  17.067  38.860   5.145
79338W        W51686   3.411   4.929   3.852
79339W        W51687  28.455  42.898  12.411
79340W        W51688  26.635  35.474  11.092
79341W        W51689   6.896   7.840  12.541
79342W        W51690  42.909  38.396   0.913
79343W        W51691  34.964  22.665   4.242
79344W        W51692  13.802   8.216   1.387
79345W        W51693  12.631  39.548   0.844
79346W        W51694  12.683  10.666  11.450
79347W        W51695  28.579  25.622   2.363
79348W        W51696  30.983  16.803   0.283
79349W        W51697  17.644  11.371  14.393
79350W        W51698  28.176   9.695  11.607
79351W        W51699  43.391  19.140  12.027
79352W        W51700  18.608   6.859   0.840
79353W        W51701  26.643   5.359   2.859
79354W        W51702  40.930   7.241  12.520
79355W        W51703  19.039  14.665  11.919
79356W        W51704   4.263  12.650  10.626
79357W        W51705  25.508   7.752  12.557
79358W        W51706  24.641  11.299  11.110
79359W        W51707  29.664  44.324  11.507
79360W        W51708  40.461  40.356   0.828
79361W        W51709  20.733  44.823  13.834
79362W        W51710  27.461  22.531   1.216
79363W        W51711  26.591   7.750   3.840
79364W        W51712  42.843  27.177  11.866
79365W        W51713  24.610   7.375  13.912
79366W        W51714  14.675  17.169   4.119
79367W        W51715  30.512  36.916   3.778
79368W        W51716  33.402   5.816   1.216
79369W        W51717  21.115  13.223   2.665
79370W        W51718  41.917  26.673   5.167
79371W        W51719  19.184  37.465   3.150
79372W        W51720  42.981  32.116  11.375
79373W        W51721   5.438   3.731   2.239
79374W        W51722  31.428  35.096   0.304
79375W        W51723   8.691  21.128   0.933
79376W        W51724   4.832  35.371   4.649
79377W        W51725  28.489  14.695  11.549
79378W        W51726   4.284  24.596  14.879
79379W        W51727  10.820  21.653  11.411
79380W        W51728  16.074  27.611  13.528
79381W        W51729   0.465   1.241  11.000
79382W        W51730  12.154  23.695   3.157
79383W        W51731   1.376  19.175   2.820
79384W        W51732  23.007  33.890   4.644
79385W        W51733  42.355  25.605  10.555
79386W        W51734  14.819  31.566   0.763
79387W        W51735  14.765  12.696  10.009
79388W        W51736   8.171   9.228  11.585
79389W        W51737   1.431   7.896   0.269
79390W        W51738  24.688  20.252  14.400
79391W        W51739  37.485  44.945   2.196
79392W        W51740  32.459  25.210   3.819
79393W        W51741  31.918  30.116  10.484
79394W        W51742   8.667  12.742  14.761
79395W        W51743  25.692  10.638   2.378
79396W        W51744  43.510  19.163   2.278
79397W        W51745   2.744  34.440  14.514
79398W        W51746  42.919  33.405  13.915
79399W        W51747  24.507  21.659  11.911
79400W        W51748  36.462  22.998  11.049
79401W        W51749  26.565  11.638  10.480
79402W        W51750  19.232   9.791  14.427
79403W        W51751   3.855  11.152  10.912
79404W        W51752  29.523  31.429   2.688
79405W        W51753   4.927  24.482   2.676
79406W        W51754  11.804  28.972   4.280
79407W        W51755  20.084   7.381   1.310
79408W        W51756  18.093  15.584  13.352
79409W        W51757  14.650  27.105   2.246
79410W        W51758   5.433  15.316   2.211
79411W        W51759  26.131  23.175  12.406
79412W        W51760  15.186  41.387  13.050
79413W        W51761  41.954  17.223   1.852
79414W        W51762  22.056  20.658   4.740
79415W        W51763   4.811  32.111   4.255
79416W        W51764  23.686  38.489   3.860
79417W        W51765  21.198  21.037  12.351
79418W        W51766  17.147  20.167   3.795
79419W        W51767   1.859  37.444  10.989
79420W        W51768   6.850  40.955   4.765
79421W        W51769   5.229  29.624  13.906
79422W        W51770  30.988  18.739  14.858
79423W        W51771  33.415  10.381  13.425
79424W        W51772   9.862   3.354   4.711
79425W        W51773  33.090   1.285  13.524
79426W        W51774  36.035  13.153  12.376
79427W        W51775  34.510  18.569   4.137
79428W        W51776  44.756  12.803  11.540
79429W        W51777  15.196   6.832   4.597
79430W        W51778  31.948  35.884  11.612
79431W        W51779  38.518  27.530   3.151
79432W        W51780  25.031  43.390  14.763
79433W        W51781  36.462  35.906   1.334
79434W        W51782  30.054  34.590  11.463
79435W        W51783  22.040  14.710   0.827
79436W        W51784  41.026  30.122   2.315
79437W        W51785  37.961   7.877  13.371
79438W        W51786  14.164  37.026  12.345
79439W        W51787  13.182  15.719   3.263
79440W        W51788  22.553  15.175   4.747
79441W        W51789  32.110  32.495   3.252
79442W        W51790  43.418  10.368   1.403
79443W        W51791   1.766  17.173   1.272
79444W        W51792  39.916  24.145  10.413
79445W        W51793  15.687   6.898   1.446
79446W        W51794   5.393   4.222   2.814
79447W        W51795   1.886  21.686   4.290
79448W        W51796  30.979  10.248  11.536
79449W        W51797  23.607   7.172  12.355
79450W        W51798  41.490   6.892   0.943
79451W        W51799   2.319  24.517  13.902
79452W        W51800   1.948  40.822  14.311
79453W        W51801  16.711  35.979  13.500
79454W        W51802  27.955  24.192  13.871
79455W        W51803  38.382  35.937   2.282
79456W        W51804   3.856  41.428   4.620
79457W        W51805  21.192   5.772  11.431
79458W        W51806  23.511  14.831  10.891
79459W        W51807  22.145  34.507   0.441
79460W        W51808  31.435  42.901  10.936
79461W        W51809  21.169   5.292  13.911
79462W        W51810  39.421  41.321   4.605
79463W        W51811  11.768  31.413   0.850
79464W        W51812   4.287  32.039  10.610
79465W        W51813  32.933  42.909  13.924
79466W        W51814  25.155  40.051   2.700
79467W        W51815  11.366  24.485   2.762
79468W        W51816  38.048  24.527   1.702
79469W        W51817  39.432  11.668   3.293
79470W        W51818  16.611   7.678   1.914
79471W        W51819  19.168   5.311   2.179
79472W        W51820  16.642  32.440  14.987
79473W        W51821  11.835  19.270  12.580
79474W        W51822   5.295  39.485  14.493
79475W        W51823  36.537  27.045  12.480
79476W        W51824  30.444  17.578   3.736
79477W        W51825  27.098  36.362   1.339
79478W        W51826  26.996  28.130  13.891
79479W        W51827  37.075  32.402  14.857
79480W        W51828  24.649  39.482  13.539
79481W        W51829   8.372  40.050  10.413
79482W        W51830  42.840  16.708  11.036
79483W        W51831  15.105  31.598   1.310
79484W        W51832  42.803  24.216  14.878
79485W        W51833  39.003  20.058   3.200
79486W        W51834  24.081  33.481  10.124
79487W        W51835  44.383  16.691  11.109
79488W        W51836   9.816  27.157  11.032
79489W        W51837   3.460   1.269  11.857
79490W        W51838  42.990   6.709  13.464
79491W        W51839  44.935   4.273  14.502
79492W        W51840  27.604  43.510   1.357
79493W        W51841   0.422  40.429  11.972
79494W        W51842  34.613   9.322   1.387
79495W        W51843  15.229   4.286  14.838
79496W        W51844  17.769  30.417  14.001
79497W        W51845  16.615   9.781   4.715
79498W        W51846  12.317   1.866  11.976
79499W        W51847   0.446  32.063  10.940
79500W        W51848   7.757   9.343  12.018
79501W        W51849  10.246  43.429   3.300
79502W        W51850  30.515   5.906   4.774
79503W        W51851  31.510  37.373   5.102
79504W        W51852  34.436   9.373  13.005
79505W        W51853  20.059  15.084   1.427
79506W        W51854  31.946  28.986  12.901
79507W        W51855  37.904  13.678  13.503
79508W        W51856   4.743  31.458   1.287
79509W        W51857  10.361  17.276   3.698
79510W        W51858  41.346  15.799   3.758
79511W        W51859  41.515  22.173  12.547
79512W        W51860  28.467  10.292  10.501
79513W        W51861  18.628  21.262  10.967
79514W        W51862  39.467  28.126  11.879
79515W        W51863  16.272  20.717   3.791
79516W        W51864   2.325  17.613   3.652
79517W        W51865  16.712   7.791  12.576
79518W        W51866  33.587   2.929   3.632
79519W        W51867  37.375  25.133   3.834
79520W        W51868  44.797   7.304   3.187
79521W        W51869   3.418  12.297   0.291
79522W        W51870  11.128  25.189   4.302
79523W        W51871  17.150  21.224   9.997
79524W        W51872   5.240  28.507   3.187
79525W        W51873  10.290   3.431   2.859
79526W        W51874  43.401   7.809   0.417
79527W        W51875  42.419  27.125   4.728
79528W        W51876  36.520  43.983   0.960
79529W        W51877  32.033   6.805  14.992
79530W        W51878   2.342  16.311  13.540
79531W        W51879  17.151   4.864  10.003
79532W        W51880  19.653  21.049  12.914
79533W        W51881  31.999  31.935  12.089
79534W        W51882  41.989  24.994  12.571
79535W        W51883  21.649  31.647   4.140
79536W        W51884   0.413  37.012  13.429
79537W        W51885  16.173   9.153   3.296
79538W        W51886   1.339   8.238   1.210
79539W        W51887  33.551  29.493   1.704
79540W        W51888  29.516  41.512  13.310
79541W        W51889   5.367   2.294  12.003
79542W        W51890   8.161  15.217  14.952
79543W        W51891  39.895  27.682   1.271
79544W        W51892  21.039  23.531   3.347
79545W        W51893  17.739  27.163   3.288
79546W        W51894  39.847  28.087   4.601
79547W        W51895  27.110  15.279   1.399
79548W        W51896  35.104  36.548  13.368
79549W        W51897   9.745   8.178  11.047
79550W        W51898  11.859   3.721  13.973
79551W        W51899  43.484  40.406   3.869
79552W        W51900  38.513   5.840  11.925
79553W        W51901  23.213  44.360  10.918
79554W        W51902   2.279  27.159  10.468
79555W        W51903  25.040   4.879   4.292
79556W        W51904  32.604  42.432  14.829
79557W        W51905  13.729  32.498  11.484
79558W        W51906  18.665  29.980  12.987
79559W        W51907  22.184  42.015   0.306
79560W        W51908  20.670  11.734  12.040
79561W        W51909  10.672  19.279  10.418
79562W        W51910  24.558  33.467   3.209
79563W        W51911  43.310  44.438  14.930
79564W        W51912  34.553   2.429   1.212
79565W        W51913  22.649  19.538   1.432
79566W        W51914   4.757  38.054   0.413
79567W        W51915   1.948   6.412   3.381
79568W        W51916   9.678  21.156  14.977
79569W        W51917  32.075  22.504   3.811
79570W        W51918   5.699  11.758   0.914
79571W        W51919  13.715   9.725   4.818
79572W        W51920  36.500  34.400   0.427
79573W        W51921  24.601   0.404   3.812
79574W        W51922  13.176   4.938   3.383
79575W        W51923   2.288  41.373   2.400
79576W        W51924  36.360   7.302   5.253
79577W        W51925  13.191  41.430  12.084
79578W        W51926  42.856   8.679  14.325
79579W        W51927  30.444  40.960  12.562
79580W        W51928  12.751  21.227   3.637
79581W        W51929   6.802  32.049  14.466
79582W        W51930  38.470  41.981  12.954
79583W        W51931  23.581  29.166  12.367
79584W        W51932  33.558  40.048   0.838
79585W        W51933  39.403  14.795   3.234
79586W        W51934  37.580   0.800   4.281
79587W        W51935  36.532  11.820   0.839
79588W        W51936  40.055   9.288   1.713
79589W        W51937   1.455  16.228  14.306
79590W        W51938   5.258  19.644  12.344
79591W        W51939  35.000  40.037  13.046
79592W        W51940   3.776  40.404  12.462
79593W        W51941  26.570  29.462  12.069
79594W        W51942  32.946  21.106  14.403
79595W        W51943   0.759  38.828  10.979
79596W        W51944   9.808  43.990   2.365
79597W        W51945   4.266  19.728  14.881
79598W        W51946  23.082  42.921  11.988
79599W        W51947  33.003  14.782   2.212
79600W        W51948  26.572  40.437  14.380
79601W        W51949  29.098   2.760  10.611
79602W        W51950  21.132   7.284  13.540
79603W        W51951  35.995   0.402  12.943
79604W        W51952  30.048   9.686   0.889
79605W        W51953  23.716   6.757  11.020
79606W        W51954  42.008   9.671  12.925
79607W        W51955  23.172   5.295  14.824
79608W        W51956  32.397  31.607  12.957
79609W        W51957  40.944   5.370  12.532
79610W        W51958   2.727   1.440   3.719
79611W        W51959  39.348  23.556  14.453
79612W        W51960  41.309  38.434   0.743
79613W        W51961   2.331  24.103  13.367
79614W        W51962  23.194  34.104  12.386
79615W        W51963  26.139  35.364   1.440
79616W        W51964  26.502  30.490   3.870
79617W        W51965  22.996  42.028   2.223
79618W        W51966   6.386  35.566  10.586
79619W        W51967  21.178  24.576  14.920
79620W        W51968  40.487  30.658  14.838
79621W        W51969   2.730  29.538   4.818
79622W        W51970  44.351  11.712   4.718
79623W        W51971  34.948  23.112   1.271
79624W        W51972  35.934  34.041  11.599
79625W        W51973  21.017  32.612   2.257
79626W        W51974  13.611   2.844  14.883
79627W        W51975  36.476  13.319  10.918
79628W        W51976  30.472  16.104   2.663
79629W        W51977  20.728  31.556  11.462
79630W        W51978   4.439  10.649  13.948
79631W        W51979   3.801  41.823   2.720
79632W        W51980  25.990  35.966   0.453
79633W        W51981  33.979   3.227   1.836
79634W        W51982  44.388  21.649  12.455
79635W        W51983  37.937   1.446  12.866
79636W        W51984   9.199  44.845   4.787
79637W        W51985  17.643  31.076   5.149
79638W        W51986  15.088  34.113   4.727
79639W        W51987   3.946  18.741   4.190
79640W        W51988  11.362  41.886  12.832
79641W        W51989   3.788  11.756  13.874
79642W        W51990  21.538   5.228   2.899
79643W        W51991  13.119  29.118   1.354
79644W        W51992  20.275   2.777   2.863
79645W        W51993  17.671  31.087  13.964
79646W        W51994   3.257  17.606  11.938
79647W        W51995   4.922  35.030   3.350
79648W        W51996   4.786  31.144  13.311
79649W        W51997  21.673  21.563  12.467
79650W        W51998   6.902   5.927   2.255
79651W        W51999  35.414   5.198   2.743
79652W        W52000  29.491   9.373  12.954
79653W        W52001  16.597   4.819   3.695
79654W        W52002  32.391   5.329  13.035
79655W        W52003   6.258  35.436  12.071
79656W        W52004  38.492  34.447  12.569
79657W        W52005  31.912   7.257  14.385
79658W        W52006  39.040  14.813   5.272
79659W        W52007  23.118  29.150  12.549
79660W        W52008  28.509  35.089  13.879
79661W        W52009  19.584  41.804  11.909
79662W        W52010  36.383  21.215  11.559
79663W        W52011   0.440  16.097   1.328
79664W        W52012  36.497   4.880  14.434
79665W        W52013  19.267   2.758  14.890
79666W        W52014  40.936  35.513  12.973
79667W        W52015   8.186   7.257  14.916
79668W        W52016   8.900   6.223   1.451
79669W        W52017  22.213  36.349  12.562
79670W        W52018  34.039   5.704   5.765
79671W        W52019  33.566   2.353  14.281
79672W        W52020   1.977  32.486   4.786
79673W        W52021  18.224   1.334  12.035
79674W        W52022  34.068  43.891   1.817
79675W        W52023  37.963  21.697  13.984
79676W        W52024  12.775  43.819   1.447
79677W        W52025   6.820   9.393  13.542
79678W        W52026  19.697  13.813  10.578
79679W        W52027  27.037  25.018   5.200
79680W        W52028  32.401  22.234   2.256
79681W        W52029  36.002  31.518   0.888
79682W        W52030  27.100  24.506  10.916
79683W        W52031  41.796  31.575   0.367
79684W        W52032   9.156  44.422   2.729
79685W        W52033  39.975  24.985  13.002
79686W        W52034  10.874  23.637  14.507
79687W        W52035   3.740  24.205  14.769
79688W        W52036  28.951  34.569   3.292
79689W        W52037  35.000   6.284  10.541
79690W        W52038  17.795  22.745   0.304
79691W        W52039   8.340   9.294   3.351
79692W        W52040   8.882  21.704   4.352
79693W        W52041  20.247  30.578   3.673
79694W        W52042  31.938  40.487   3.840
79695W        W52043   8.282  16.232  13.408
79696W        W52044  17.781  21.726   3.234
79697W        W52045  22.639  18.172  11.934
79698W        W52046  17.769  31.986   5.205
79699W        W52047   5.197  31.644  14.469
79700W        W52048  31.427  20.653  14.351
79701W        W52049  13.185  33.018   3.864
79702W        W52050  43.360  11.275   3.741
79703W        W52051  16.753  39.971   1.901
79704W        W52052   8.662  24.011  13.798
79705W        W52053  37.429  39.396  13.373
79706W        W52054  22.590  26.117  11.468
79707W        W52055  35.571  42.840  14.878
79708W        W52056  42.495  19.715  13.514
79709W        W52057  18.078  34.606   1.935
79710W        W52058  37.953  30.969   1.247
79711W        W52059   4.806  33.983  14.366
79712W        W52060  26.609  19.657  14.958
79713W        W52061  39.019  42.878  10.975
79714W        W52062  41.956  24.136   4.123
79715W        W52063  28.946  13.672  13.486
79716W        W52064   6.250  14.823   1.416
79717W        W52065  13.791  25.555   2.680
79718W        W52066  11.192  14.833   2.309
79719W        W52067  20.665  26.171  14.791
79720W        W52068  39.907  11.271   2.310
79721W        W52069  31.561  34.060  11.060
79722W        W52070  28.581  37.884  10.451
79723W        W52071  31.136  18.257   4.307
79724W        W52072  18.075   6.831  10.449
79725W        W52073   6.318  41.517   4.789
79726W        W52074  43.871  23.203   3.334
79727W        W52075  29.608  40.417  14.963
79728W        W52076   7.307  27.625   3.750
79729W        W52077   4.722  10.255  12.048
79730W        W52078  27.653  34.875  11.972
79731W        W52079   3.855   5.375  12.962
79732W        W52080  19.166  26.656   0.950
79733W        W52081  31.064  28.438   0.354
79734W        W52082  37.343  36.499   2.710
79735W        W52083  10.218  20.055  10.111
79736W        W52084  43.810  25.198   3.298
79737W        W52085  34.552  42.957  14.984
79738W        W52086  37.940  13.791  11.478
79739W        W52087  35.382  42.364   0.771
79740W        W52088  32.565  32.008  11.041
79741W        W52089  29.639  29.462   2.406
79742W        W52090  26.151   1.816  14.301
79743W        W52091  16.707  27.460  14.340
79744W        W52092  33.429  26.980  13.894
79745W        W52093   6.872  14.297  13.829
79746W        W52094  23.664  30.593   4.657
79747W        W52095  29.588  33.445  13.381
79748W        W52096  31.643  13.342   1.425
79749W        W52097  11.145  20.170  13.854
79750W        W52098  39.809  16.738  11.114
79751W        W52099  30.554  14.242   2.375
79752W        W52100  27.565   3.445   1.802
79753W        W52101  38.051  31.454   2.775
79754W        W52102   1.955  10.345  14.001
79755W        W52103  44.439   7.195  11.934
79756W        W52104  10.214  15.223  13.983
79757W        W52105  36.877  36.061  10.956
79758W        W52106  23.181  17.726  13.032
79759W        W52107  11.733  29.536   1.410
79760W        W52108  28.096  24.073  11.971
79761W        W52109  32.957  24.131   0.350
79762W        W52110  42.988  23.066  10.564
79763W        W52111  17.069   9.789   3.167
79764W        W52112  38.464  37.380  12.371
79765W        W52113  20.090  43.943   3.655
79766W        W52114   5.301  12.165  11.989
79767W        W52115  40.457  31.018   4.273
79768W        W52116  17.726   7.339   4.723
79769W        W52117  17.064   4.747   2.297
79770W        W52118  19.543  40.884   3.717
79771W        W52119  44.473  35.090  10.422
79772W        W52120  44.358  28.640  13.803
79773W        W52121  40.487  27.953   2.218
79774W        W52122  18.712  12.194   3.791
79775W        W52123  27.100  29.109  14.817
79776W        W52124  38.859  21.071   3.372
79777W        W52125  18.660   1.849   0.787
79778W        W52126  42.339  14.330   3.674
79779W        W52127  27.154  14.171  14.336
79780W        W52128   3.216  26.551   4.188
79781W        W52129  18.638  27.958  11.026
79782W        W52130  17.799   5.785   1.433
79783W        W52131  34.980  21.255   1.833
79784W        W52132   2.849  23.713  12.081
79785W        W52133   9.332  22.016   5.226
79786W        W52134  13.642   2.872  11.483
79787W        W52135   3.796  31.640  13.813
79788W        W52136   2.922  31.534  11.950
79789W        W52137  24.976  22.619   1.753
79790W        W52138  27.113  42.491   4.689
79791W        W52139   6.741   7.357   1.437
79792W        W52140  29.457   8.820   4.606
79793W        W52141  34.601  25.709   0.299
79794W        W52142  43.429  15.798   2.241
79795W        W52143  28.619  20.578  12.865
79796W        W52144  10.787  25.205  12.448
79797W        W52145  33.933  42.936   4.691
79798W        W52146  28.107  16.709   2.318
79799W        W52147  13.155   0.378   1.934
79800W        W52148  22.088  32.062  13.433
79801W        W52149  40.501  14.764   4.348
79802W        W52150  17.700  13.182  10.975
79803W        W52151  13.814  19.170  12.843
79804W        W52152  27.488  28.581  14.030
79805W        W52153  19.238  15.096   2.278
79806W        W52154   5.777  18.100   3.214
79807W        W52155  12.612  31.469  11.089
79808W        W52156  22.536  32.069   0.475
79809W        W52157  41.985  40.525  10.442
79810W        W52158   4.882  40.871   3.191
79811W        W52159  13.286  34.009  10.941
79812W        W52160  19.063  19.741   1.780
79813W        W52161  29.599  23.501   9.962
79814W        W52162  35.565  40.429  14.876
79815W        W52163  42.879  34.097   1.733
79816W        W52164   4.940   3.724  13.064
79817W        W52165  33.060  20.630  11.455
79818W        W52166  44.779  41.446   2.700
79819W        W52167  12.244   3.363  11.375
79820W        W52168  25.541  25.504  12.875
79821W        W52169  20.170  10.311  12.979
79822W        W52170   2.386  19.174   2.411
79823W        W52171  11.184  17.106   1.816
79824W        W52172  32.083  43.838  14.492
79825W        W52173  34.041  26.004  12.902
79826W        W52174  43.916  12.349  10.914
79827W        W52175  13.259   1.287  14.478
79828W        W52176   1.240  21.060  12.535
79829W        W52177  14.220  28.149  14.894
79830W        W52178  17.102  29.969  10.484
79831W        W52179  39.522  38.846   0.801
79832W        W52180  19.737  29.507   5.570
79833W        W52181  23.590  36.427   0.311
79834W        W52182  28.085  28.996  13.798
79835W        W52183  38.956  20.691   0.776
79836W        W52184   9.751  24.054   3.254
79837W        W52185  39.922  39.939  13.336
79838W        W52186   4.288  18.610   0.413
79839W        W52187   6.383  11.195  10.024
79840W        W52188  37.392   4.804   2.760
79841W        W52189  44.779  26.146  10.905
79842W        W52190  43.958  38.532  14.304
79843W        W52191   7.829   2.299  12.404
79844W        W52192   5.379  30.556   4.644
79845W        W52193   2.301  21.586   1.756
79846W        W52194  30.591  29.107  14.399
79847W        W52195  24.688  32.924   0.896
79848W        W52196  18.228  13.652   0.776
79849W        W52197  31.150  22.161   3.259
79850W        W52198  38.336  20.591   9.665
79851W        W52199  23.729   8.362  11.450
79852W        W52200   8.352  41.375  13.383
79853W        W52201  15.622  13.734  13.815
79854W        W52202  24.487  25.078  10.455
79855W        W52203  25.696  22.242  12.971
79856W        W52204  19.276  40.839  14.513
79857W        W52205  25.133   7.669  11.941
79858W        W52206  27.173  17.682   2.723
79859W        W52207  15.133   7.793   3.830
79860W        W52208  18.118  33.027  10.892
79861W        W52209   7.285  29.938   2.270
79862W        W52210  25.095  31.099   0.264
79863W        W52211  40.955  38.474   4.765
79864W        W52212   3.400   5.766  13.849
79865W        W52213  16.719  37.395  13.408
79866W        W52214  33.469  28.454  11.400
79867W        W52215  18.232  22.178  13.838
79868W        W52216  27.551  44.450  14.475
79869W        W52217   3.242  31.028  12.367
79870W        W52218  11.320  35.487   0.900
79871W        W52219   8.844  19.749   1.316
79872W        W52220  36.872   5.801  14.025
79873W        W52221   9.293   7.333  13.038
79874W        W52222  28.078   0.490  11.586
79875W        W52223  11.725  24.015  14.436
79876W        W52224   2.828   9.759  12.499
79877W        W52225  23.498  32.492  12.934
79878W        W52226   6.315  17.077  12.831
79879W        W52227   0.392  28.103  10.503
79880W        W52228  25.041   1.975   4.770
79881W        W52229   3.808  38.439   2.847
79882W        W52230  31.459  31.441   4.117
79883W        W52231   1.961  31.089   3.750
79884W        W52232   6.342  10.156   4.268
79885W        W52233   2.897   7.704  11.885
79886W        W52234  35.474  41.529  12.566
79887W        W52235  40.406   3.228  11.107
79888W        W52236  36.015  31.562  13.372
79889W        W52237  18.083  20.604   4.259
79890W        W52238  16.731   0.867   3.847
79891W        W52239  38.991  18.670  10.966
79892W        W52240  12.618  14.234  11.526
79893W        W52241   5.405  19.668   2.334
79894W        W52242  22.608  11.242  11.456
79895W        W52243  17.102  31.952  12.386
79896W        W52244  10.793  22.145  13.402
79897W        W52245  36.902   0.310  13.481
79898W        W52246  23.665  37.578   2.664
79899W        W52247  17.668  31.439  11.949
79900W        W52248  41.993  20.574  13.380
79901W        W52249  31.643  17.794  14.879
79902W        W52250   5.867  16.287  10.500
79903W        W52251   4.750  30.465  12.871
79904W        W52252  16.588  14.316  11.384
79905W        W52253  40.417  37.458   2.895
79906W        W52254   1.947   2.924   1.387
79907W        W52255  30.985  16.676  12.541
79908W        W52256  13.813  18.284   4.669
79909W        W52257   6.303  10.790   0.726
79910W        W52258  33.508  36.074  13.317
79911W        W52259  42.985   2.721   1.311
79912W        W52260  17.746  12.188   4.617
79913W        W52261   2.276  33.517   0.316
79914W        W52262  16.608  15.776   1.785
79915W        W52263  23.231  28.537  12.855
79916W        W52264  18.107  36.395   0.266
79917W        W52265  14.309  28.493   3.768
79918W        W52266  28.070  35.972   0.783
79919W        W52267  31.470   8.747   4.257
79920W        W52268  28.598   7.853   1.334
79921W        W52269   5.390  19.258   1.779
79922W        W52270   0.865  24.229   3.778
79923W        W52271  21.018  43.351   4.153
79924W        W52272  17.300  43.448   0.750
79925W        W52273  43.832   8.287  13.846
79926W        W52274  29.608   5.422  14.892
79927W        W52275  27.497  30.157   1.841
79928W        W52276  40.302  42.448  12.385
79929W        W52277  18.674  34.465  13.534
79930W        W52278  44.388  37.976   3.194
79931W        W52279  30.558  26.618  13.477
79932W        W52280  24.541  10.250   9.975
79933W        W52281  20.767  25.083  10.894
79934W        W52282  21.612  10.287  14.780
79935W        W52283   8.334   1.843   3.309
79936W        W52284  33.501   1.958   1.248
79937W        W52285  37.397   6.291  14.372
79938W        W52286   0.363   9.310   2.393
79939W        W52287  38.547  37.508  12.090
79940W        W52288  30.561  23.599  11.415
79941W        W52289  23.636  22.624   2.754
79942W        W52290  30.040  19.545  14.509
79943W        W52291  44.468   5.420   2.401
79944W        W52292  25.561   0.947  14.921
79945W        W52293  10.701  42.411   1.740
79946W        W52294  38.382  34.916   1.726
79947W        W52295  28.933  12.190  10.485
79948W        W52296  43.402  25.218   1.862
79949W        W52297  17.755  25.123   1.816
79950W        W52298  29.669   1.853   4.258
79951W        W52299   8.849  16.154  10.597
79952W        W52300  19.775  33.084  11.558
79953W        W52301  11.341  43.811  12.341
79954W        W52302  32.957  31.468   2.730
79955W        W52303  32.556  24.016   3.802
79956W        W52304  17.129  15.718  14.826
79957W        W52305  13.213  20.599  11.050
79958W        W52306  23.050  17.686   4.275
79959W        W52307  16.135  16.681   3.264
79960W        W52308  36.560  19.741  12.910
79961W        W52309  18.078   9.190   0.949
79962W        W52310  12.834   6.912   0.740
79963W        W52311  20.219   8.396  11.882
79964W        W52312  36.050  32.503  11.018
79965W        W52313  24.199   6.889  11.966
79966W        W52314  33.971  30.136  10.432
79967W        W52315  19.761  42.856   3.775
79968W        W52316  17.288  14.685  11.384
79969W        W52317   7.361   7.816   2.376
79970W        W52318  15.700  12.283  11.574
79971W        W52319  37.473   5.367  11.425
79972W        W52320  22.657  25.622  14.955
79973W        W52321  31.609  11.691   3.836
79974W        W52322  35.446  44.993  11.942
79975W        W52323  42.016  23.016  11.858
79976W        W52324  35.924  26.152   3.328
79977W        W52325  13.680  13.143   5.305
79978W        W52326  39.445   1.435  11.474
79979W        W52327  28.185  23.691   2.350
79980W        W52328  42.502  34.512  10.519
79981W        W52329  24.578  44.269  14.948
79982W        W52330  21.052  10.375   1.704
79983W        W52331  30.642  27.189   1.783
79984W        W52332  35.482  39.368   0.761
79985W        W52333   4.796  36.527  13.523
79986W        W52334  37.428   0.446   4.768
79987W        W52335  43.965   3.796   1.710
79988W        W52336  44.274  39.062  10.572
79989W        W52337  24.569   8.668  14.880
79990W        W52338  40.989  26.103  14.848
79991W        W52339  29.611   4.415   3.287
79992W        W52340  19.230  27.038   4.830
79993W        W52341  11.308  30.440  10.981
79994W        W52342  36.589  27.457   1.388
79995W        W52343  40.879  27.053  12.527
79996W        W52344  23.206  22.635   4.653
79997W        W52345  20.184   9.747  11.406
79998W        W52346  18.060  36.503  10.624
79999W        W52347  13.635   9.343  13.916
80000W        W52348  28.450  41.471   0.466
80001W        W52349  23.163   9.644  13.814
80002W        W52350   9.210  32.909  10.415
80003W        W52351  18.754   7.217  14.335
80004W        W52352  35.525  19.716   1.416
80005W        W52353  33.404   7.846   1.339
80006W        W52354   3.903  11.816   1.333
80007W        W52355  23.040  11.856   1.379
80008W        W52356  32.593  10.203   1.879
80009W        W52357  16.643  37.933  14.283
80010W        W52358  32.612  37.495  14.840
80011W        W52359   7.375  28.533  11.547
80012W        W52360  44.003  15.759   4.779
80013W        W52361  34.036  19.778  13.002
80014W        W52362  38.027  17.133  13.030
80015W        W52363  21.586  16.309  14.281
80016W        W52364  18.647  18.606  13.469
80017W        W52365  28.952  13.279  12.868
80018W        W52366  32.462  26.086  10.992
80019W        W52367  35.446   8.707  10.623
80020W        W52368  40.862  25.600  14.283
80021W        W52369  44.899  43.771  13.400
80022W        W52370  21.732  40.006  14.023
80023W        W52371  43.929  23.713  13.951
80024W        W52372  41.986  20.221  13.793
80025W        W52373  14.321  30.100  11.517
80026W        W52374  16.301  37.406   4.290
80027W        W52375   1.431  38.402   2.833
80028W        W52376   8.327  43.930   1.854
80029W        W52377  37.885  13.225  11.426
80030W        W52378  21.216   6.296   1.811
80031W        W52379  35.104  41.986   1.242
80032W        W52380   2.779  18.773   1.760
80033W        W52381  36.889  13.124   1.441
80034W        W52382   6.333   5.331   3.146
80035W        W52383  20.051  39.899   3.146
80036W        W52384  23.684  34.529   1.846
80037W        W52385   7.267   0.845  12.036
80038W        W52386   2.801  43.386   0.774
80039W        W52387  44.436   0.459   4.645
80040W        W52388  31.634  12.255  10.431
80041W        W52389   0.320  42.893  12.019
80042W        W52390  32.131  42.405   3.243
80043W        W52391  26.583  13.231   3.643
80044W        W52392  43.375  25.128  14.963
80045W        W52393   1.878  30.584   2.882
80046W        W52394   9.275  10.246   1.230
80047W        W52395  34.863  41.944  12.381
80048W        W52396   4.736  44.349   1.366
80049W        W52397   9.851  36.516   0.438
80050W        W52398  41.012  24.207   3.145
80051W        W52399  35.853  23.048   0.283
80052W        W52400  11.864   1.919   3.152
80053W        W52401  19.670  35.095   4.302
80054W        W52402   3.828  29.595  12.424
80055W        W52403  27.992   4.894  13.329
80056W        W52404   5.691   2.725  10.639
80057W        W52405  41.011  11.652   3.759
80058W        W52406  26.660  18.106   1.347
80059W        W52407  32.566  30.586   4.152
80060W        W52408  19.674   9.214   4.272
80061W        W52409  32.500  34.987  12.895
80062W        W52410  25.201  17.772  13.465
80063W        W52411   9.803   2.374   2.855
80064W        W52412  34.964  43.280   0.390
80065W        W52413  22.658  44.900   3.752
80066W        W52414   0.845  29.611   1.278
80067W        W52415  32.542  31.972   4.675
80068W        W52416  40.314   0.304   0.291
80069W        W52417  35.009  14.168  13.319
80070W        W52418  35.584   8.262   2.200
80071W        W52419  18.778  14.215   4.333
80072W        W52420  43.516   7.796   1.279
80073W        W52421  34.555  30.479   4.669
80074W        W52422  23.722  39.991  12.032
80075W        W52423   0.811  24.019  12.924
80076W        W52424  11.840  44.284   3.867
80077W        W52425  22.743   6.195   5.319
80078W        W52426  42.406   9.290   1.343
80079W        W52427  26.674   6.195   1.414
80080W        W52428  38.943  26.041  13.511
80081W        W52429   0.452   6.838   0.921
80082W        W52430   5.353   1.447  10.967
80083W        W52431  24.710  38.891  12.991
80084W        W52432  31.073  35.541  11.023
80085W        W52433  43.420  31.496   2.896
80086W        W52434  29.923   1.480  14.921
80087W        W52435  10.209  20.581   2.710
80088W        W52436  25.034  27.050  10.912
80089W        W52437  15.581   6.820  14.799
80090W        W52438  24.023  24.690  10.588
80091W        W52439  13.113  44.816  13.354
80092W        W52440  35.975  12.225   2.804
80093W        W52441  33.048   1.280   3.652
80094W        W52442  41.807  25.491   0.930
80095W        W52443  22.618  13.676  11.110
80096W        W52444  38.909  34.871   3.672
80097W        W52445  31.577  17.211   4.337
80098W        W52446  37.978   6.897   0.386
80099W        W52447  12.352  34.524  11.501
80100W        W52448   7.728  29.062   0.263
80101W        W52449  40.970   3.330   2.779
80102W        W52450  23.193   1.735  11.900
80103W        W52451  24.657  13.323   1.836
80104W        W52452  13.306  25.593   4.649
80105W        W52453   1.466  44.965   0.290
80106W        W52454  27.055  22.537   4.353
80107W        W52455  40.918  28.071   2.711
80108W        W52456  33.111  25.477  11.595
80109W        W52457  11.196  38.008   2.897
80110W        W52458  11.637  26.597  13.345
80111W        W52459  41.029  34.909  13.978
80112W        W52460  10.691  21.540  14.775
80113W        W52461  20.066  13.660   3.277
80114W        W52462  18.681   9.195   4.335
80115W        W52463   4.421   7.821  12.399
80116W        W52464  38.990  27.649   3.232
80117W        W52465   7.255   7.885  11.096
80118W        W52466  32.521  17.727  12.043
80119W        W52467  16.278  21.679  11.962
80120W        W52468  29.095  32.421  13.473
80121W        W52469  24.112  14.634  14.836
80122W        W52470   2.465   5.197  13.896
80123W        W52471   3.879   8.179  12.518
80124W        W52472  39.818  26.567   3.170
80125W        W52473  42.299  30.420  12.074
80126W        W52474  10.159  18.620  14.944
80127W        W52475   1.328  26.124   0.760
80128W        W52476  18.173  29.103  10.635
80129W        W52477  20.623  39.325   2.730
80130W        W52478   0.343  21.197  13.546
80131W        W52479  26.036  29.921  14.398
80132W        W52480  22.215  16.770   2.286
80133W        W52481  25.048  17.665   0.470
80134W        W52482  15.320  40.052  13.861
80135W        W52483  30.618  25.043   4.751
80136W        W52484  42.455  20.759  11.568
80137W        W52485   8.822   5.400  10.449
80138W        W52486   5.699  33.564   0.878
80139W        W52487  12.298  31.964  10.440
80140W        W52488  27.532  34.503   4.834
80141W        W52489  38.941  27.975   2.681
80142W        W52490  33.064  29.484  11.032
80143W        W52491   8.312  14.814   3.698
80144W        W52492  19.115  10.233   2.896
80145W        W52493  40.428  22.140  13.826
80146W        W52494   8.389  36.031   1.934
80147W        W52495  12.641  37.004   0.402
80148W        W52496  18.712  32.928   0.299
80149W        W52497  35.540  23.592   2.179
80150W        W52498   1.376   4.919   2.264
80151W        W52499   6.782   9.770   4.812
80152W        W52500   5.363  23.591   1.708
80153W        W52501  37.058  16.209  10.910
80154W        W52502   2.248  21.604  11.963
80155W        W52503  33.504  38.438   1.323
80156W        W52504   9.334  39.047  11.013
80157W        W52505   3.784  25.630  10.506
80158W        W52506  10.355  29.584   3.830
80159W        W52507  39.362   1.470   2.735
80160W        W52508  31.405   1.275   3.293
80161W        W52509  22.082  36.371   1.231
80162W        W52510   8.777  16.697   2.406
80163W        W52511  35.466  21.031   3.757
80164W        W52512  42.870  41.870  11.383
80165W        W52513  13.806   9.259  14.876
80166W        W52514  32.445  32.448  12.354
80167W        W52515   8.892  31.643   0.824
80168W        W52516  35.497  35.372  10.900
80169W        W52517  29.001  23.995   4.170
80170W        W52518  25.500  15.295  13.314
80171W        W52519  40.512  34.921   3.262
80172W        W52520  39.485   3.298   4.324
80173W        W52521  12.308  33.045  11.916
80174W        W52522  27.593  10.792   2.339
80175W        W52523  22.102  29.449   1.341
80176W        W52524  35.015  29.449   4.698
80177W        W52525  17.108  23.718   3.198
80178W        W52526  30.120  40.003  12.527
80179W        W52527  13.225   1.428  13.492
80180W        W52528  31.048  36.479  11.537
80181W        W52529  22.712  13.232   1.243
80182W        W52530   0.802  12.355  12.446
80183W        W52531   1.419  36.042  10.900
80184W        W52532  29.605   4.807  13.057
80185W        W52533  24.067  40.481   4.224
80186W        W52534  10.216  22.520   0.343
80187W        W52535  40.426  35.063  13.504
80188W        W52536   4.764   2.915   4.159
80189W        W52537  15.107  43.289  14.867
80190W        W52538   4.300  24.042   4.126
80191W        W52539  12.648  16.262  13.452
80192W        W52540  28.982  37.367   4.838
80193W        W52541  23.083   6.384  11.000
80194W        W52542   9.164  30.121   3.318
80195W        W52543  15.178  34.374  13.383
80196W        W52544   6.743  35.372   3.693
80197W        W52545  37.420  44.947  14.890
80198W        W52546  42.891  32.961   4.611
80199W        W52547  41.868  16.708   1.791
80200W        W52548  44.975  17.679  11.582
80201W        W52549  37.471  29.667   2.256
80202W        W52550   3.796   1.336  12.897
80203W        W52551  42.943  32.426   0.783
80204W        W52552   0.943   3.860  13.433
80205W        W52553   5.296  35.447  14.943
80206W        W52554  25.699  41.842   0.938
80207W        W52555   0.798  42.001   3.636
80208W        W52556  16.716  36.073  14.500
80209W        W52557  38.070  41.873   1.438
80210W        W52558  11.685  24.018   5.152
80211W        W52559  21.661  42.978   1.231
80212W        W52560  19.764  40.484   3.682
80213W        W52561  10.231  39.937  14.478
80214W        W52562  18.548  12.217  12.387
80215W        W52563  32.923  26.485  12.992
80216W        W52564  26.020   4.259  11.416
80217W        W52565  17.092   3.866   2.347
80218W        W52566  16.660  19.648  13.495
80219W        W52567  42.924   0.328  14.514
80220W        W52568  28.609  12.786   3.352
80221W        W52569  37.508  37.497   1.859
80222W        W52570  33.446  33.520  10.596
80223W        W52571   3.297   4.405   3.280
80224W        W52572  28.637   9.251  14.284
80225W        W52573  32.083  23.032   1.366
80226W        W52574  21.192  23.168  14.282
80227W        W52575  32.910  23.532   1.347
80228W        W52576  37.958  44.340   2.286
80229W        W52577  13.780  37.516   4.132
80230W        W52578  16.175   5.877  13.837
80231W        W52579  21.087   7.204   0.299
80232W        W52580  18.571  33.942  13.541
80233W        W52581  37.394  40.343  10.625
80234W        W52582  22.600  12.676  14.500
80235W        W52583  14.324  36.950  13.843
80236W        W52584  12.707  39.934   4.132
80237W        W52585   5.410  34.090   1.900
80238W        W52586   5.227  19.151   2.725
80239W        W52587  37.405   6.714   2.181
80240W        W52588  42.296   7.317  10.566
80241W        W52589  35.459  10.826   4.749
80242W        W52590  41.889  44.859   0.425
80243W        W52591  22.125  26.103   0.357
80244W        W52592  22.535  41.966   3.811
80245W        W52593  39.526  42.876  11.909
80246W        W52594  24.618  28.992   4.699
80247W        W52595  37.442  29.534   3.832
80248W        W52596  30.952  30.087  12.489
80249W        W52597  43.463  42.335   0.393
80250W        W52598  44.754   1.968   3.189
80251W        W52599  29.052   3.451   2.380
80252W        W52600  12.759  29.528  14.439
80253W        W52601  43.303   8.301   1.905
80254W        W52602  26.580  15.601   1.330
80255W        W52603  17.568   4.414   0.931
80256W        W52604  42.395  15.728  10.599
80257W        W52605  32.109  22.731  10.472
80258W        W52606   8.187  12.173  11.512
80259W        W52607  31.427  43.431  14.834
80260W        W52608  25.094   7.258   0.392
80261W        W52609   0.860  33.603   3.278
80262W        W52610  12.194  28.547  10.441
80263W        W52611  25.469  15.325  11.561
80264W        W52612  35.894  29.612   2.836
80265W        W52613   4.792   0.771   4.142
80266W        W52614   0.797   1.768  11.494
80267W        W52615  10.298   1.807   4.188
80268W        W52616  36.501  14.742  14.472
80269W        W52617  17.096  29.113   2.402
80270W        W52618  25.649  15.666  10.408
80271W        W52619  20.258   9.255   4.126
80272W        W52620   1.418  43.939   1.703
80273W        W52621   3.768   9.651  14.348
80274W        W52622  34.519   4.712   1.271
80275W        W52623  20.124  38.008   0.960
80276W        W52624  30.546   0.750   1.224
80277W        W52625  17.621  33.439   4.214
80278W        W52626  26.968  10.156   1.376
80279W        W52627  31.985  12.814   9.940
80280W        W52628  37.914  21.231   4.601
80281W        W52629  42.417   5.398   3.640
80282W        W52630  26.957  21.671   1.413
80283W        W52631   9.370  30.974   2.689
80284W        W52632   5.281  25.156  11.901
80285W        W52633   7.754  28.092   0.850
80286W        W52634  14.255  39.433  12.564
80287W        W52635   8.813  10.823  11.984
80288W        W52636   9.765  27.105   4.276
80289W        W52637  12.817   0.839   1.905
80290W        W52638   2.469  10.217  14.980
80291W        W52639  33.028  15.154   4.194
80292W        W52640  14.300   7.747   1.384
80293W        W52641  36.512  18.060  13.893
80294W        W52642  16.793  28.555   3.676
80295W        W52643  23.995  31.590   2.733
80296W        W52644   6.397  44.460   2.354
80297W        W52645  13.636  43.923  14.474
80298W        W52646  30.058  23.497   3.647
80299W        W52647  14.776  34.079   1.750
80300W        W52648  14.178   1.879   3.768
80301W        W52649   6.254  36.444   2.871
80302W        W52650   8.325   9.322  14.864
80303W        W52651  22.583  23.542   2.352
80304W        W52652  18.662  20.180  10.913
80305W        W52653  42.858  43.469  14.847
80306W        W52654  19.060  10.652  14.328
80307W        W52655  38.855   1.873   3.266
80308W        W52656  13.200  33.387  12.576
80309W        W52657  37.519  34.889   4.636
80310W        W52658  37.569  37.949   4.800
80311W        W52659  34.487  16.744  12.340
80312W        W52660   4.215  30.104   0.354
80313W        W52661  19.624  44.412   0.733
80314W        W52662   7.751  25.973  12.551
80315W        W52663  22.197  23.637  13.543
80316W        W52664   6.711  18.159  10.601
80317W        W52665  35.479   0.818   1.774
80318W        W52666  33.478  28.446   3.205
80319W        W52667  22.106  29.644   4.804
80320W        W52668   8.163  33.457   4.757
80321W        W52669  18.287  12.761   1.294
80322W        W52670   7.771   3.916  13.417
80323W        W52671  11.325  18.075   4.696
80324W        W52672  24.504  13.310   4.170
80325W        W52673  31.050   4.842   1.336
80326W        W52674  19.554  16.108   3.660
80327W        W52675  26.191  22.647  10.440
80328W        W52676  26.666  44.407   0.861
80329W        W52677  44.823  18.183   1.925
80330W        W52678  35.035  17.585   2.702
80331W        W52679  12.746  36.546   4.309
80332W        W52680   3.895  28.554   4.171
80333W        W52681   5.267  25.203  11.059
80334W        W52682  19.084   9.384   0.402
80335W        W52683  22.502  27.478  13.856
80336W        W52684   7.341   1.755  13.454
80337W        W52685  39.901  15.141  14.321
80338W        W52686  11.188  11.678   0.739
80339W        W52687  25.522  34.974  10.484
80340W        W52688  24.623  38.554   0.380
80341W        W52689   5.370  29.966  13.457
80342W        W52690  39.341  15.261   3.193
80343W        W52691   7.770   1.361   1.831
80344W        W52692  37.856  34.602   0.857
80345W        W52693  41.307  39.849  12.555
80346W        W52694  43.463   4.294  14.910
80347W        W52695   6.726   0.897   3.350
80348W        W52696  11.773  18.083  10.052
80349W        W52697  27.995  27.108   4.208
80350W        W52698  18.088  26.544   0.407
80351W        W52699   0.857  14.222   4.650
80352W        W52700  36.476  13.702  10.606
80353W        W52701   1.438   1.899   4.119
80354W        W52702  27.447   6.738   2.699
80355W        W52703  33.106  15.314   0.423
80356W        W52704   8.348  29.067  12.039
80357W        W52705  14.700  23.646   3.316
80358W        W52706  25.096  18.734  12.047
80359W        W52707  19.721  37.456   2.300
80360W        W52708  31.442  44.492  14.816
80361W        W52709  34.410   4.440  13.951
80362W        W52710  12.298  11.811   2.249
80363W        W52711  27.990  18.741  12.353
80364W        W52712   0.771  15.794   4.239
80365W        W52713  17.673  15.188   1.831
80366W        W52714  35.896  32.050   0.872
80367W        W52715  13.801   0.444   1.891
80368W        W52716   7.276  21.654  14.313
80369W        W52717   1.247  11.171   2.830
80370W        W52718  17.163  19.615   2.419
80371W        W52719  39.488  28.079   3.655
80372W        W52720  30.058   8.713   2.401
80373W        W52721   2.443  18.751  13.851
80374W        W52722  11.322  22.537  13.447
80375W        W52723  38.469  25.507   1.858
80376W        W52724  33.979  34.899  13.817
80377W        W52725   6.193  41.814  14.507
80378W        W52726  18.597  41.907   1.711
80379W        W52727  26.619  27.523  14.338
80380W        W52728  24.507  31.566   4.155
80381W        W52729  34.030   1.821   3.311
80382W        W52730  15.113  41.485   4.781
80383W        W52731  29.611  41.855   0.904
80384W        W52732  37.528   5.720   1.297
80385W        W52733  16.778  13.808  11.492
80386W        W52734  43.371  28.070   0.382
80387W        W52735   8.379  40.944  13.473
80388W        W52736  13.838   0.826   1.706
80389W        W52737  14.778  44.502   0.265
80390W        W52738  44.801  31.543   3.200
80391W        W52739  19.697   6.314   4.120
80392W        W52740  36.405  19.730   1.396
80393W        W52741  21.061  22.236  10.481
80394W        W52742   5.370  30.968  12.869
80395W        W52743  32.606  26.058   4.294
80396W        W52744  37.412  19.591   3.810
80397W        W52745  41.375   4.908   2.709
80398W        W52746  24.524  15.668   2.703
80399W        W52747  29.150  26.089   3.843
80400W        W52748  40.910  42.988  13.847
80401W        W52749  18.722  36.862   2.258
80402W        W52750  12.219  35.063   4.189
80403W        W52751   8.861   7.320   3.631
80404W        W52752  31.062   7.851  13.928
80405W        W52753  14.137  15.769   4.781
80406W        W52754  38.987  32.475   0.414
80407W        W52755  37.453   9.311   2.196
80408W        W52756  12.781  16.129   2.239
80409W        W52757  17.614  32.529  13.337
80410W        W52758  10.234   1.915  12.375
80411W        W52759  11.797  40.366   1.259
80412W        W52760  25.688   7.795  13.948
80413W        W52761   3.747   5.914  12.417
80414W        W52762   2.752   1.380  13.893
80415W        W52763  14.278  26.036  13.906
80416W        W52764  22.098  11.796   0.931
80417W        W52765  10.287   6.291   3.631
80418W        W52766  35.072  35.559   4.753
80419W        W52767  37.873  24.491   2.662
80420W        W52768   4.844   6.802  11.972
80421W        W52769  38.028  23.592  13.458
80422W        W52770  11.746  44.370   3.308
80423W        W52771   4.293  24.100   4.761
80424W        W52772  29.036  32.886   1.235
80425W        W52773  21.717  15.698   1.765
80426W        W52774  20.051   4.369   0.443
80427W        W52775  22.073   8.821  14.455
80428W        W52776  37.087  40.958   0.760
80429W        W52777  30.111  31.548   1.432
80430W        W52778  42.994  43.773  10.438
80431W        W52779   5.852  14.315   4.346
80432W        W52780  38.887  43.982   1.261
80433W        W52781   4.280  29.627  12.975
80434W        W52782  34.096  10.850  13.981
80435W        W52783  37.035  12.837  12.026
80436W        W52784   4.391   7.694  11.572
80437W        W52785  29.026  37.549   0.367
80438W        W52786   8.837   6.826   4.270
80439W        W52787  43.983  11.341   1.745
80440W        W52788  20.156  18.147   4.133
80441W        W52789   7.332  41.981   0.916
80442W        W52790   9.651  22.020   4.673
80443W        W52791  23.567  42.804  14.315
80444W        W52792  34.896  42.382  11.595
80445W        W52793  21.258  34.544  11.870
80446W        W52794  43.439  44.276   4.735
80447W        W52795  28.670  23.609  14.853
80448W        W52796  37.954  10.678  11.980
80449W        W52797  20.164  33.045  13.497
80450W        W52798   3.928  20.054  13.797
80451W        W52799   7.893  31.458   2.677
80452W        W52800   7.832  35.005   2.229
80453W        W52801  14.096  25.567   1.280
80454W        W52802  24.100  28.048   4.301
80455W        W52803  14.616  39.933  11.125
80456W        W52804  32.084  14.618   0.331
80457W        W52805  12.277  27.651  13.051
80458W        W52806   4.371  31.573  13.532
80459W        W52807  29.013  44.455  11.029
80460W        W52808  12.256  19.558  10.484
80461W        W52809  18.780   1.882  10.621
80462W        W52810   1.854  41.330  11.461
80463W        W52811  29.447  42.298  11.400
80464W        W52812  42.983  26.495   1.744
80465W        W52813  13.287   1.802  12.849
80466W        W52814  37.925   4.737  12.569
80467W        W52815  20.561   4.318   3.848
80468W        W52816  12.192  19.045   3.786
80469W        W52817  10.688   8.868  12.362
80470W        W52818  34.055  18.129  12.454
80471W        W52819  27.524  14.123  11.946
80472W        W52820   5.929   3.923  14.296
80473W        W52821   1.813  17.567  14.424
80474W        W52822   1.911  31.973   0.750
80475W        W52823  20.558  35.071  10.604
80476W        W52824  33.901  27.670   4.141
80477W        W52825   5.723  24.627   3.665
80478W        W52826  16.724   2.748   3.282
80479W        W52827  31.430  32.532  10.616
80480W        W52828   8.805   4.926   3.777
80481W        W52829  11.197  14.257  12.047
80482W        W52830  34.477  41.951   1.342
80483W        W52831  11.274  32.126   1.227
80484W        W52832  26.571   8.338   1.220
80485W        W52833  28.179  26.084   1.860
80486W        W52834  37.045  13.698   1.868
80487W        W52835  29.494  23.033   2.781
80488W        W52836  39.501   6.773   3.305
80489W        W52837  17.113  44.491   0.943
80490W        W52838  23.996  39.948  12.044
80491W        W52839  43.776  10.341  11.527
80492W        W52840  40.314  18.616   3.778
80493W        W52841  19.166  32.402   4.661
80494W        W52842  12.759  44.442   1.909
80495W        W52843  44.467  38.341  10.497
80496W        W52844  12.757   9.385   1.711
80497W        W52845  29.945   3.814   4.686
80498W        W52846  22.045   5.197  11.556
80499W        W52847  30.570   9.780  14.495
80500W        W52848  20.166  25.001  12.833
80501W        W52849  37.371  14.230   1.823
80502W        W52850   7.348  35.906   0.419
80503W        W52851  25.048  14.636   5.096
80504W        W52852  30.112  25.059   1.837
80505W        W52853  44.302   7.395   1.272
80506W        W52854   5.330  36.962   3.639
80507W        W52855  28.444  13.704  13.932
80508W        W52856  11.242   9.850   3.325
80509W        W52857  40.983  22.626  13.061
80510W        W52858  31.599  30.627   2.686
80511W        W52859  24.973  40.352  13.448
80512W        W52860  29.926  13.788   3.851
80513W        W52861  31.133  17.177   0.831
80514W        W52862  24.628   7.692   9.956
80515W        W52863  10.870   9.661  14.514
80516W        W52864   3.293  23.169  12.527
80517W        W52865   8.771  30.986  10.411
80518W        W52866   2.407  37.920   3.691
80519W        W52867  23.692   0.770   3.190
80520W        W52868  12.163  33.445   1.250
80521W        W52869   6.680   4.802  14.930
80522W        W52870  29.498   1.360  11.563
80523W        W52871  15.283  17.744  14.949
80524W        W52872  28.932   8.332   3.704
80525W        W52873  21.216  23.735  13.364
80526W        W52874  43.914  35.569  12.852
80527W        W52875  14.285  44.897  12.060
80528W        W52876  36.874  15.780   4.662
80529W        W52877  38.568   5.324   4.346
80530W        W52878   2.777   9.155   1.296
80531W        W52879  12.206  44.770  11.376
80532W        W52880  25.113   7.407   3.203
80533W        W52881  40.382  28.561  11.925
80534W        W52882  28.954  33.482   3.198
80535W        W52883  36.463   4.776   3.352
80536W        W52884  22.557  34.104  11.909
80537W        W52885  12.748  13.815   3.782
80538W        W52886  37.562   7.216  10.902
80539W        W52887   6.394  27.172   2.329
80540W        W52888  40.356  42.293   3.286
80541W        W52889  26.140   4.803   3.185
80542W        W52890   0.769   8.779  12.041
80543W        W52891  26.057  32.596  13.450
80544W        W52892  27.055  25.677   3.859
80545W        W52893  27.028   2.334  10.896
80546W        W52894  38.342   1.808  11.545
80547W        W52895  19.712  38.504  13.514
80548W        W52896  38.526  33.079   2.864
80549W        W52897  11.780  19.726  11.998
80550W        W52898   7.324  13.207  12.390
80551W        W52899  38.366   6.803  11.567
80552W        W52900   1.757  30.986   2.368
80553W        W52901  28.548  19.762   2.726
80554W        W52902  20.592  31.476   4.761
80555W        W52903  33.024  41.945   1.893
80556W        W52904   6.371   6.375  12.032
80557W        W52905  27.174  28.145   0.965
80558W        W52906  27.471  42.396   4.313
80559W        W52907  13.796  40.390  10.405
80560W        W52908   4.768   6.703  12.418
80561W        W52909   5.744  21.230   4.651
80562W        W52910  25.993   1.261   0.953
80563W        W52911  36.919  25.974  14.991
80564W        W52912  10.351  16.262   3.356
80565W        W52913  14.655   2.922  13.986
80566W        W52914  27.073  29.956  14.773
80567W        W52915  25.615  15.650   2.759
80568W        W52916  15.096   8.235  14.452
80569W        W52917  36.459  16.813  14.003
80570W        W52918  24.669  11.785   4.238
80571W        W52919  34.396  21.085   0.819
80572W        W52920  14.283  25.125   4.599
80573W        W52921  11.361  41.343   3.368
80574W        W52922  12.314  18.288  12.991
80575W        W52923  37.061   7.309  14.818
80576W        W52924  42.017  28.632   0.739
80577W        W52925  40.846  25.034  14.341
80578W        W52926  29.932  21.577   2.294
80579W        W52927  39.344  16.187  11.410
80580W        W52928  30.959  31.963   3.866
80581W        W52929  21.726  37.523  14.449
80582W        W52930  26.511   4.866   2.246
80583W        W52931   5.391  26.680  14.889
80584W        W52932  16.271   9.252   0.444
80585W        W52933  10.796  32.084  11.599
80586W        W52934  31.492  30.451  12.343
80587W        W52935  15.153  14.100   3.362
80588W        W52936  30.533  17.256   0.823
80589W        W52937  34.927  44.479  10.054
80590W        W52938   3.907  19.047   2.384
80591W        W52939  34.540  29.019  14.880
80592W        W52940   0.343  19.700   1.265
80593W        W52941  26.479  31.082  10.983
80594W        W52942  10.171  12.855   1.773
80595W        W52943  31.631  27.964   0.328
80596W        W52944   8.335  38.424  10.613
80597W        W52945  12.804  33.441  13.966
80598W        W52946  41.795  16.281   4.817
80599W        W52947  17.260  26.648  11.114
80600W        W52948   0.935  15.756  14.448
80601W        W52949  19.157   6.688   1.715
80602W        W52950   6.885  32.396  13.518
80603W        W52951  39.365  34.545   5.243
80604W        W52952  31.906  30.422  12.009
80605W        W52953  12.289  34.097   1.323
80606W        W52954  34.893   8.302   3.255
80607W        W52955  33.396   7.895   5.780
80608W        W52956   7.359   8.334   1.221
80609W        W52957  17.599  36.486   1.435
80610W        W52958   9.804  11.634  13.365
80611W        W52959  26.542  39.935  10.631
80612W        W52960  40.506  38.900   4.223
80613W        W52961  31.047   4.445  11.928
80614W        W52962  17.087  42.858  10.908
80615W        W52963  15.749  14.625   2.250
80616W        W52964   2.823  41.810   3.817
80617W        W52965  38.424  23.607   4.207
80618W        W52966   8.696  18.124   1.824
80619W        W52967  28.959   4.337   2.281
80620W        W52968   5.389  24.059  13.910
80621W        W52969  30.430  40.026   4.335
80622W        W52970  12.179  27.039  12.829
80623W        W52971   1.908  42.869  14.446
80624W        W52972   2.248  34.530  12.381
80625W        W52973  44.268  38.930   3.665
80626W        W52974  37.015   3.768  12.521
80627W        W52975  37.074  42.971   2.759
80628W        W52976  23.240   3.433   3.198
80629W        W52977  24.028  13.744   0.938
80630W        W52978  12.155  21.089   1.306
80631W        W52979  23.572  16.298  14.822
80632W        W52980  29.539  44.997   3.817
80633W        W52981  11.330   4.922   0.483
80634W        W52982   5.829  43.929   3.769
80635W        W52983  14.801  15.672   4.313
80636W        W52984   1.289  41.852   2.187
80637W        W52985  16.799  13.222  11.445
80638W        W52986  40.037  42.831   1.838
80639W        W52987  18.266  20.043  13.439
80640W        W52988  29.016  25.094   1.280
80641W        W52989  37.996  27.517   1.228
80642W        W52990  24.076  21.068  14.318
80643W        W52991  40.804  23.571  12.377
80644W        W52992  44.980  14.711   2.712
80645W        W52993   4.321  10.833  12.516
80646W        W52994  13.192  32.919   1.893
80647W        W52995  19.185  19.719  14.782
80648W        W52996  31.407  30.918  11.106
80649W        W52997  29.112  40.927   3.174
80650W        W52998  26.499  37.986   4.194
80651W        W52999  17.678  21.048  12.360
80652W        W53000   2.294  23.680   0.829
80653W        W53001   9.656  35.937   3.729
80654W        W53002  36.357   4.359   3.262
80655W        W53003  38.457  36.966  10.478
80656W        W53004   8.721   7.349  13.328
80657W        W53005  23.235   2.328  12.944
80658W        W53006   2.460  37.476  14.294
80659W        W53007  28.624  12.308   4.241
80660W        W53008  42.319  44.977  13.988
80661W        W53009   6.849  44.768   3.147
80662W        W53010  26.104  15.298  12.996
80663W        W53011  16.644  20.061   1.285
80664W        W53012  29.568  42.377   3.728
80665W        W53013  34.439  43.865  13.888
80666W        W53014  14.149  30.117   3.344
80667W        W53015  23.555   0.825  10.943
80668W        W53016  16.613  16.650  10.609
80669W        W53017  26.166  11.627  11.566
80670W        W53018   5.727  44.410   4.348
80671W        W53019  40.339  11.215  14.389
80672W        W53020  11.781  28.941   3.370
80673W        W53021  37.461   0.383  10.099
80674W        W53022   7.878  43.007   1.757
80675W        W53023  41.446   7.316   4.638
80676W        W53024  29.020  11.137  10.975
80677W        W53025  28.556  22.699   2.187
80678W        W53026   6.873   6.709   2.385
80679W        W53027   2.307   6.857   2.827
80680W        W53028  43.898  39.838   4.278
80681W        W53029  32.412  13.615  13.453
80682W        W53030  37.837  38.377   3.195
80683W        W53031   4.771  43.293   4.320
80684W        W53032   4.858  30.563   4.324
80685W        W53033  19.186  10.833   0.859
80686W        W53034  18.568  24.558  13.518
80687W        W53035  30.061  34.110  12.881
80688W        W53036  30.992  28.141  12.555
80689W        W53037  40.398  25.679  10.943
80690W        W53038   9.655   6.766  11.016
80691W        W53039  22.126  12.306   1.906
80692W        W53040  38.977  14.627  11.530
80693W        W53041  12.221  28.455   0.271
80694W        W53042   8.701  37.846   5.220
80695W        W53043  14.169  26.017  11.020
80696W        W53044   3.382  29.041   3.643
80697W        W53045  38.068  17.775  14.498
80698W        W53046  14.241  44.795  12.474
80699W        W53047  16.739   3.860  11.936
80700W        W53048  24.225  33.448   5.251
80701W        W53049  12.727  21.597   4.761
80702W        W53050  21.259  22.671  12.012
80703W        W53051  18.592   0.318  12.536
80704W        W53052  32.088  22.636   5.160
80705W        W53053  34.604   1.891   4.125
80706W        W53054  39.504  30.506   2.809
80707W        W53055  18.154  21.753   0.397
80708W        W53056  21.740   7.721  10.928
80709W        W53057  23.190  15.759   3.644
80710W        W53058  32.105  25.489  13.860
80711W        W53059  12.233  19.769   0.263
80712W        W53060   5.210   0.764  12.021
80713W        W53061  42.009  32.890   2.348
80714W        W53062  43.869  17.759   2.779
80715W        W53063  11.781  27.122  11.073
80716W        W53064  30.508  32.490  12.379
80717W        W53065  18.689  38.472  11.920
80718W        W53066  14.794  30.566  13.469
80719W        W53067   7.310  17.268  11.427
80720W        W53068  14.334  39.061   4.644
80721W        W53069  44.808  39.551  10.932
80722W        W53070  44.958  18.264  10.904
80723W        W53071  27.534  22.530  11.548
80724W        W53072   1.755  39.861  12.939
80725W        W53073  26.683  27.060  13.360
80726W        W53074  27.994  14.314  11.108
80727W        W53075   8.377  25.484   2.692
80728W        W53076   5.688  13.163   2.247
80729W        W53077  22.729  13.604  12.025
80730W        W53078  38.833  16.667   1.240
80731W        W53079   5.412  43.826  14.422
80732W        W53080  32.049  24.103   2.220
80733W        W53081   9.211   2.854   1.231
80734W        W53082  37.539  43.803  11.101
80735W        W53083   5.931   9.686   4.713
80736W        W53084  10.711  10.660   1.354
80737W        W53085  13.207  34.068  10.456
80738W        W53086  12.790  44.287   1.296
80739W        W53087  24.018  16.182   4.782
80740W        W53088  29.494  44.385   0.753
80741W        W53089   9.203  33.912   1.351
80742W        W53090   0.292   9.293   0.792
80743W        W53091  14.136  36.093   2.190
80744W        W53092  15.823  43.959   0.794
80745W        W53093  40.309  30.544   2.718
80746W        W53094  37.497  30.642  13.819
80747W        W53095  44.818  36.859  13.384
80748W        W53096  33.468  21.186   0.348
80749W        W53097   1.443  36.036   2.287
80750W        W53098  43.788  16.253  11.987
80751W        W53099  27.013  21.192   1.808
80752W        W53100  27.065   1.973   0.370
80753W        W53101  17.259  13.640  12.009
80754W        W53102  34.443  40.532  13.407
80755W        W53103  25.608  17.100   0.785
80756W        W53104  42.813  13.709  12.473
80757W        W53105  10.738   5.749  11.436
80758W        W53106  12.719  28.576  13.951
80759W        W53107  22.724   6.350  13.442
80760W        W53108  38.501   5.198   1.289
80761W        W53109  19.771  31.020  10.977
80762W        W53110  42.824  16.684  10.145
80763W        W53111  33.911   2.752   3.764
80764W        W53112   3.892  35.432   2.706
80765W        W53113  33.520  32.059  14.897
80766W        W53114  17.230  37.500  12.004
80767W        W53115  20.261   9.874   2.763
80768W        W53116  32.456  20.702   1.881
80769W        W53117  35.976  17.583  10.894
80770W        W53118  18.147  25.567  14.836
80771W        W53119   8.804  35.076  13.508
80772W        W53120  39.408  43.490   4.162
80773W        W53121   0.989  36.018   4.731
80774W        W53122  42.830  33.997   3.672
80775W        W53123  15.249  12.845  10.100
80776W        W53124   0.348   0.257   4.334
80777W        W53125  34.478  34.922   0.897
80778W        W53126  36.405  21.104  11.927
80779W        W53127  39.918  23.119   2.662
80780W        W53128   8.834   4.822   4.692
80781W        W53129  31.638  13.762   1.814
80782W        W53130  21.614  12.149   0.384
80783W        W53131  42.482   8.783  12.476
80784W        W53132  18.644  37.355   4.216
80785W        W53133   8.296  17.095   0.814
80786W        W53134  24.084  37.927  12.029
80787W        W53135  29.535  23.160   4.193
80788W        W53136   7.283  37.048   0.756
80789W        W53137  10.166   1.959   2.886
80790W        W53138  14.246  18.155   0.776
80791W        W53139  21.147  27.516   1.326
80792W        W53140  41.017  37.537  14.311
80793W        W53141   7.232  34.442   4.779
80794W        W53142  42.832  31.897   5.278
80795W        W53143   8.884  40.322  12.385
80796W        W53144  33.923  22.048  14.453
80797W        W53145  20.574  29.595   3.308
80798W        W53146  13.790  31.133  11.956
80799W        W53147   6.921   5.787  13.925
80800W        W53148   6.677  31.615  12.429
80801W        W53149  32.464  14.248   0.886
80802W        W53150  18.082  25.050  12.395
80803W        W53151  26.149  20.236  11.058
80804W        W53152  44.770  13.270  11.580
80805W        W53153  38.075  44.340   0.870
80806W        W53154  33.098  30.536  10.474
80807W        W53155  40.894  34.020  13.999
80808W        W53156  27.671  11.280   3.766
80809W        W53157  10.764   5.314   1.784
80810W        W53158  32.530  33.043  13.010
80811W        W53159  37.511  29.564   2.684
80812W        W53160   1.268  34.884   4.743
80813W        W53161  29.090   1.306   4.272
80814W        W53162   5.208  39.832   3.369
80815W        W53163  12.333   5.925  10.507
80816W        W53164  25.015  41.845  11.928
80817W        W53165  13.158  10.843   4.291
80818W        W53166   7.402  21.149   1.309
80819W        W53167   9.806  15.675   4.714
80820W        W53168  42.928   2.805   4.181
80821W        W53169  30.415   7.717  14.976
80822W        W53170  31.610  25.680   4.806
80823W        W53171  38.449  26.538   4.632
80824W        W53172  31.567  16.169   1.774
80825W        W53173  44.872  16.810  10.408
80826W        W53174  41.303  29.055   2.661
80827W        W53175  42.361  25.099   2.338
80828W        W53176  10.665  35.904   0.732
80829W        W53177  38.859  17.218  11.951
80830W        W53178  12.199  10.774   2.234
80831W        W53179   8.835  19.571  14.446
80832W        W53180   6.321  43.411   2.864
80833W        W53181  21.194  43.835   3.727
80834W        W53182  20.713   3.372  12.559
80835W        W53183  37.441  36.936   3.797
80836W        W53184  29.102  25.977   4.631
80837W        W53185  40.835   6.816   0.761
80838W        W53186  18.271   9.646  11.483
80839W        W53187   5.365  21.234   4.827
80840W        W53188  14.640  37.412  14.472
80841W        W53189  28.132  14.709   3.706
80842W        W53190  17.087   8.826   0.966
80843W        W53191   9.883  23.489  13.314
80844W        W53192  27.570  40.868   1.317
80845W        W53193  40.042  24.171  11.498
80846W        W53194  10.845  12.713   2.864
80847W        W53195  32.549   0.754  10.907
80848W        W53196  44.834   3.801   2.193
80849W        W53197  42.470  38.881  10.927
80850W        W53198  41.981  27.570   1.437
80851W        W53199  10.737  36.882  10.436
80852W        W53200  19.051  11.222  11.933
80853W        W53201  11.263  38.368  11.865
80854W        W53202  21.255  31.958   4.778
80855W        W53203  41.014  11.629  10.621
80856W        W53204   4.293  17.104   2.855
80857W        W53205   8.298  27.074   0.754
80858W        W53206   4.442  40.313   2.838
80859W        W53207  31.057  44.437   5.207
80860W        W53208  27.001  44.787   0.874
80861W        W53209  15.630   3.718   4.663
80862W        W53210  11.782  33.592   0.400
80863W        W53211   9.371   0.348  12.447
80864W        W53212   4.752  39.475  10.966
80865W        W53213  11.136   2.464  14.444
80866W        W53214  15.633  12.771  13.860
80867W        W53215   4.913  40.334  14.990
80868W        W53216  28.565  36.550  12.528
80869W        W53217  16.171  31.936  12.978
80870W        W53218  32.466   2.849  11.954
80871W        W53219   0.272  34.465  12.996
80872W        W53220  18.768  28.533  13.808
80873W        W53221  25.218   9.799   5.168
80874W        W53222   2.382  17.295  11.508
80875W        W53223  26.592  37.430   0.378
80876W        W53224  12.829  14.642   0.830
80877W        W53225   5.231  42.512   4.338
80878W        W53226  13.311  21.590   1.398
80879W        W53227  16.104  29.106  14.376
80880W        W53228  35.594  31.492  10.953
80881W        W53229  13.243   7.272   5.082
80882W        W53230  41.019   6.283   1.863
80883W        W53231  23.725   6.730   3.163
80884W        W53232  31.449   7.341   2.327
80885W        W53233   4.412   7.774   2.393
80886W        W53234  33.455   4.792   0.372
80887W        W53235   3.870  20.226  10.541
80888W        W53236  33.001  31.512   0.925
80889W        W53237   6.882  20.654  10.906
80890W        W53238  29.096  28.091  11.953
80891W        W53239  41.848  12.186  14.310
80892W        W53240  40.003  44.776   2.772
80893W        W53241  41.900   2.879   4.760
80894W        W53242  18.081  27.517  12.375
80895W        W53243  20.717  10.844  14.476
80896W        W53244   5.423  25.149   1.334
80897W        W53245  30.005  19.544   0.827
80898W        W53246  26.963  24.168   4.201
80899W        W53247  24.210  23.664   2.252
80900W        W53248  35.576  21.637   3.642
80901W        W53249  18.264  30.569   0.442
80902W        W53250  41.036  38.521   3.272
80903W        W53251  40.838  13.827  10.899
80904W        W53252   2.396  13.274  13.987
80905W        W53253  33.906  39.342   2.344
80906W        W53254  34.981  18.238   0.464
80907W        W53255   5.815  26.053  11.506
80908W        W53256  10.208  39.314  13.874
80909W        W53257  37.058   4.353   1.312
80910W        W53258  13.144  25.697   2.774
80911W        W53259  33.928  20.265  11.454
80912W        W53260  42.935  15.153   4.817
80913W        W53261  24.012   8.366   4.700
80914W        W53262  32.440  20.682   4.612
80915W        W53263  14.821   3.230  13.538
80916W        W53264  17.625  15.730   0.746
80917W        W53265   8.273  22.717   2.322
80918W        W53266   0.965  41.514   4.251
80919W        W53267   9.284  11.222  13.536
80920W        W53268  10.344   0.441   3.356
80921W        W53269  42.790  31.992  14.468
80922W        W53270  24.993   9.790   4.634
80923W        W53271  10.167  30.987   4.279
80924W        W53272  43.955  36.053   1.417
80925W        W53273  34.004  31.517   4.605
80926W        W53274   4.797  27.120   0.401
80927W        W53275   4.287  34.473   4.658
80928W        W53276   4.825  35.515  10.524
80929W        W53277  16.276  17.722  11.920
80930W        W53278  13.839  19.572  12.003
80931W        W53279  43.810  13.328  13.414
80932W        W53280  18.642  32.069   3.187
80933W        W53281  37.076  40.392   1.362
80934W        W53282  20.595  36.544   1.249
80935W        W53283  26.081  23.627  11.504
80936W        W53284  30.437  42.891  14.327
80937W        W53285   3.793   2.271   1.835
80938W        W53286  42.988  32.123  10.893
80939W        W53287   0.897  15.235  12.541
80940W        W53288  42.824  15.257   0.793
80941W        W53289   4.310  40.971  12.566
80942W        W53290  26.673  22.680   4.771
80943W        W53291  36.499  22.996   9.939
80944W        W53292   0.905  10.837  13.409
80945W        W53293  30.960  40.945  11.125
80946W        W53294  27.569  12.772   0.816
80947W        W53295  26.483  42.513   3.833
80948W        W53296  29.012  17.698   4.202
80949W        W53297  40.023  44.494  14.374
80950W        W53298  11.308  24.567  12.460
80951W        W53299  28.161  25.511  13.534
80952W        W53300  11.748   1.263   9.986
80953W        W53301  22.720  40.001   2.280
80954W        W53302  29.599  18.124  10.899
80955W        W53303   0.979  30.442  12.418
80956W        W53304   6.685   2.915  12.363
80957W        W53305  24.506  41.354   1.349
80958W        W53306  35.870  18.072   3.831
80959W        W53307  39.318   4.317  14.796
80960W        W53308   9.885  36.486  14.365
80961W        W53309  11.709  19.190   0.878
80962W        W53310   1.477   7.764  11.971
80963W        W53311  34.378  35.086   3.167
80964W        W53312   8.191  18.740  10.497
80965W        W53313  37.570   5.701  11.976
80966W        W53314  11.141  31.963  10.521
80967W        W53315   9.886  13.612  13.866
80968W        W53316   8.226  37.452  13.991
80969W        W53317  13.170  26.646  10.896
80970W        W53318  18.177   8.377  12.941
80971W        W53319  43.846  22.676  10.912
80972W        W53320   7.303   2.738   4.302
80973W        W53321  18.646  13.310  10.992
80974W        W53322  30.012  27.006   2.886
80975W        W53323  15.822  37.085  13.376
80976W        W53324  32.907  30.145   4.762
80977W        W53325  14.714  28.029  10.519
80978W        W53326  26.175  22.702   3.830
80979W        W53327  36.096  16.076  11.579
80980W        W53328  31.128  34.408   2.387
80981W        W53329   0.354  39.485   4.268
80982W        W53330  43.811  34.591  13.832
80983W        W53331  16.096   8.807  14.828
80984W        W53332  34.575  16.129   0.457
80985W        W53333  16.256  34.597  14.982
80986W        W53334  19.570  40.474   4.297
80987W        W53335   1.810   2.354   1.833
80988W        W53336   6.908   0.372  11.405
80989W        W53337  28.001   2.349  14.515
80990W        W53338  39.378  10.372  13.446
80991W        W53339  41.889   4.859  13.952
80992W        W53340  34.110  44.769   0.432
80993W        W53341  15.757  23.130   0.435
80994W        W53342  36.923  12.119  11.558
80995W        W53343  17.625   3.954  10.507
80996W        W53344  43.327   8.754   2.889
80997W        W53345  42.780  44.973  14.837
80998W        W53346  26.108   4.825   4.736
80999W        W53347  43.860  40.306  12.443
81000W        W53348  42.033   3.739  13.979
81001W        W53349  16.751   5.234  10.457
81002W        W53350   1.927  27.603  12.875
81003W        W53351  26.076   7.892  13.431
81004W        W53352  42.988  43.805  14.953
81005W        W53353  22.744  16.224  10.470
81006W        W53354  24.141  13.135   3.333
81007W        W53355  21.123  18.636   0.326
81008W        W53356  43.826  44.956   0.402
81009W        W53357  32.605   4.308   3.840
81010W        W53358  15.713  23.654  14.023
81011W        W53359  27.638  41.527  12.500
81012W        W53360  19.632  36.417   4.731
81013W        W53361  20.054   4.251  12.837
81014W        W53362  10.258  15.328  14.813
81015W        W53363  40.544  39.467  10.558
81016W        W53364  11.195   3.308   0.890
81017W        W53365  16.602  32.533   0.398
81018W        W53366  41.003  35.544  14.966
81019W        W53367  14.620   1.324  10.986
81020W        W53368  42.955   9.391   4.624
81021W        W53369   2.290  16.660  13.499
81022W        W53370  41.915  22.016  10.510
81023W        W53371  33.090  15.120   4.836
81024W        W53372   4.818  10.693  10.983
81025W        W53373   1.815  12.206  11.997
81026W        W53374  40.811  41.793   2.312
81027W        W53375  10.151  28.444  10.974
81028W        W53376  32.081  23.065   1.857
81029W        W53377  18.666  23.724   1.385
81030W        W53378  12.127  33.972   0.480
81031W        W53379  18.179  30.589  12.456
81032W        W53380   6.282   7.179  14.300
81033W        W53381  25.607  13.290  10.505
81034W        W53382  14.662  13.175   0.778
81035W        W53383   4.399  19.692   1.445
81036W        W53384  43.359  13.637   3.761
81037W        W53385  13.769  26.042   4.695
81038W        W53386  22.719  12.271   4.660
81039W        W53387  39.892   3.748   2.674
81040W        W53388   6.295  26.617  11.965
81041W        W53389  32.391  42.857   2.780
81042W        W53390  33.109  22.011   2.195
81043W        W53391  32.581  43.851   4.599
81044W        W53392  19.062  30.425   3.868
81045W        W53393  44.276   6.724   1.698
81046W        W53394  43.516   1.746   0.480
81047W        W53395  28.587  18.137   0.726
81048W        W53396  28.613  31.040  14.778
81049W        W53397  43.897   4.924   3.830
81050W        W53398  33.552  29.172  12.578
81051W        W53399  41.436  23.159   3.262
81052W        W53400  15.176   8.332   0.899
81053W        W53401  26.189  24.111  11.045
81054W        W53402  18.757  12.811   2.715
81055W        W53403  33.436  40.425   2.347
81056W        W53404   3.775  19.107   4.330
81057W        W53405   9.656  25.965   3.797
81058W        W53406  16.638  18.245  13.384
81059W        W53407  33.044  31.049  14.909
81060W        W53408  13.291  13.782   0.733
81061W        W53409  23.527  33.561  10.999
81062W        W53410  28.029   0.331  10.121
81063W        W53411  12.844  18.295  12.546
81064W        W53412  17.137   7.348   3.715
81065W        W53413  29.105  21.103   0.254
81066W        W53414  23.156  24.503  10.644
81067W        W53415  22.541  38.842   9.991
81068W        W53416  18.248  11.705   2.254
81069W        W53417  12.719  37.489   5.269
81070W        W53418  26.113   6.751  10.567
81071W        W53419  41.953   8.736  14.002
81072W        W53420  40.367  33.067   4.272
81073W        W53421   8.855  21.736  12.977
81074W        W53422  10.213  43.416  12.537
81075W        W53423  35.877  36.359   0.391
81076W        W53424   5.894  40.488  12.358
81077W        W53425  13.230  13.172  10.492
81078W        W53426   8.763  43.510  10.575
81079W        W53427  11.818  18.600   1.348
81080W        W53428  13.736  19.652  12.366
81081W        W53429  25.978  10.817   2.184
81082W        W53430  41.975  22.250  10.984
81083W        W53431  16.608  43.332  12.853
81084W        W53432   5.436  39.451   3.235
81085W        W53433  15.218  35.520  14.947
81086W        W53434  22.130  44.330  10.511
81087W        W53435   6.216   7.352   4.145
81088W        W53436  36.453  42.378   2.269
81089W        W53437  30.576  10.165  13.369
81090W        W53438   7.756  26.010  13.980
81091W        W53439  21.668  11.742  13.911
81092W        W53440  16.678  32.056   0.295
81093W        W53441  20.192  38.960   4.245
81094W        W53442  24.666  24.647   2.406
81095W        W53443  22.721   0.756  11.930
81096W        W53444   1.300   3.333   3.664
81097W        W53445  31.942  17.269  11.093
81098W        W53446  42.400  40.383  14.774
81099W        W53447  38.934  40.339  13.472
81100W        W53448  20.231  33.114  10.942
81101W        W53449  33.570  40.866  13.911
81102W        W53450  40.325  28.124  13.516
81103W        W53451  44.490  13.828   2.765
81104W        W53452  15.243  33.476   2.326
81105W        W53453   3.883  42.396   3.792
81106W        W53454   3.331  37.557   3.758
81107W        W53455  32.446  44.397  12.038
81108W        W53456  37.562  34.383  13.528
81109W        W53457  12.325  14.697   0.830
81110W        W53458  18.681   8.191  13.383
81111W        W53459  26.529  33.395  11.096
81112W        W53460  32.954  40.409   0.408
81113W        W53461  35.940  42.494  11.080
81114W        W53462  13.285  22.604  13.016
81115W        W53463  26.094  31.038  13.497
81116W        W53464  35.030   2.320   1.711
81117W        W53465  24.531  26.960  14.807
81118W        W53466   1.351   9.308   1.846
81119W        W53467  21.516  38.534   1.336
81120W        W53468  28.559  21.099  11.459
81121W        W53469   5.228   2.397   0.932
81122W        W53470  39.007  15.319  11.499
81123W        W53471  35.497  27.984   0.956
81124W        W53472  43.384  34.553  13.526
81125W        W53473  26.546  44.885  11.067
81126W        W53474  13.630  32.073   1.238
81127W        W53475  33.946  17.661   4.172
81128W        W53476  26.684   0.856  10.613
81129W        W53477  21.220  30.963  13.456
81130W        W53478  28.149  21.075   5.201
81131W        W53479  24.721  42.789   3.745
81132W        W53480  40.960   5.907  14.943
81133W        W53481   6.879  37.508  13.487
81134W        W53482  22.569  36.076  13.420
81135W        W53483   8.853  14.198   1.411
81136W        W53484  13.846  14.130  12.472
81137W        W53485  36.901  12.196   4.610
81138W        W53486   4.239  35.897   0.446
81139W        W53487  30.478  40.505   1.780
81140W        W53488   6.328  39.941   2.803
81141W        W53489  43.487  38.001   3.354
81142W        W53490  35.467  29.944   1.812
81143W        W53491   8.813  16.075  11.956
81144W        W53492  35.029   9.393  10.606
81145W        W53493  15.259  19.564  11.048
81146W        W53494   5.894  28.579   4.139
81147W        W53495  30.493  13.651   2.676
81148W        W53496   9.677  10.796  10.986
81149W        W53497  26.697  39.824   2.260
81150W        W53498  38.450  39.502   2.373
81151W        W53499  38.414  28.065  10.488
81152W        W53500  37.446  27.063   3.796
81153W        W53501  33.505  27.690  11.480
81154W        W53502  25.661  29.466   1.800
81155W        W53503  26.067  18.678  13.974
81156W        W53504  37.544  41.522  12.397
81157W        W53505  28.169  40.309  10.105
81158W        W53506  24.699  18.248   0.887
81159W        W53507   2.307   9.660   4.158
81160W        W53508   3.330   6.253   1.365
81161W        W53509   3.320  13.783  11.057
81162W        W53510   3.241   5.263   3.366
81163W        W53511  30.937   0.946  12.484
81164W        W53512  18.572  22.628  10.935
81165W        W53513  26.601  17.081  10.994
81166W        W53514  24.482  12.157   0.766
81167W        W53515  27.035  37.448  10.463
81168W        W53516  31.058  17.067  11.085
81169W        W53517  30.530  12.771   2.784
81170W        W53518  15.724  40.456  13.050
81171W        W53519  18.112  44.899   3.869
81172W        W53520  15.683  18.181  12.838
81173W        W53521   4.303  30.143   2.869
81174W        W53522  20.071  38.057  13.820
81175W        W53523  35.914  25.591  13.857
81176W        W53524  34.017   2.226  11.978
81177W        W53525  38.867  22.716   3.159
81178W        W53526   4.736  18.245  11.404
81179W        W53527  35.601  17.252  13.015
81180W        W53528  33.471  10.286   4.788
81181W        W53529  29.481  23.161  13.347
81182W        W53530  38.361  21.069   1.923
81183W        W53531  11.660  12.343   3.186
81184W        W53532  39.508  17.121  14.982
81185W        W53533   6.864  32.573   2.205
81186W        W53534  13.197  39.956   2.228
81187W        W53535   5.717  11.662  12.474
81188W        W53536   7.363  28.644  12.864
81189W        W53537  38.489  25.632   4.816
81190W        W53538  20.221  27.619  12.074
81191W        W53539   4.822  14.827   3.221
81192W        W53540  31.013  39.857   0.895
81193W        W53541   3.918   6.340   2.878
81194W        W53542  15.713   3.865   0.823
81195W        W53543  26.586  21.598  12.990
81196W        W53544  13.227  25.588  11.022
81197W        W53545  28.532  25.135  13.827
81198W        W53546  40.425  31.909   3.674
81199W        W53547  21.612   3.845   4.169
81200W        W53548  17.098  40.897   3.163
81201W        W53549  36.390  15.599  14.846
81202W        W53550   3.460  27.085  14.329
81203W        W53551   6.290  26.097  11.970
81204W        W53552  11.835   0.281   3.181
81205W        W53553  18.616  27.180   4.743
81206W        W53554  25.080  14.191  10.622
81207W        W53555  17.234  30.482   4.116
81208W        W53556  12.166   8.828   1.264
81209W        W53557  10.214  11.638   5.090
81210W        W53558  26.019  26.613  10.935
81211W        W53559  17.568  34.594   3.867
81212W        W53560  17.195  23.019   4.195
81213W        W53561  16.239  21.021  14.997
81214W        W53562  22.126   7.665   0.383
81215W        W53563  38.936   9.791   4.330
81216W        W53564  27.504   5.332  11.603
81217W        W53565  21.722  26.650  13.971
81218W        W53566  18.274  44.949  11.976
81219W        W53567  31.070   0.768  13.882
81220W        W53568  14.657  10.873   4.150
81221W        W53569  11.754  21.090  11.876
81222W        W53570   7.775  14.678   2.333
81223W        W53571  25.093  27.672  11.908
81224W        W53572  21.720   7.728   4.834
81225W        W53573  11.201  12.792  12.342
81226W        W53574   7.675  16.662   4.288
81227W        W53575  15.295   6.184   0.347
81228W        W53576  13.155  14.334   3.334
81229W        W53577  17.668   8.718   4.812
81230W        W53578  30.595  32.043  13.337
81231W        W53579  12.185  35.597  13.810
81232W        W53580  23.609  13.797  11.861
81233W        W53581   5.828  33.533   0.392
81234W        W53582  41.833  22.523   2.876
81235W        W53583  10.801  42.011  13.952
81236W        W53584  11.335  27.034  14.283
81237W        W53585  28.669  28.114   1.315
81238W        W53586  12.746  18.645  10.405
81239W        W53587  35.916  19.212  13.823
81240W        W53588   3.940  28.151   1.278
81241W        W53589  36.883   7.766   3.824
81242W        W53590   8.206  13.307   0.336
81243W        W53591  10.827  37.372   2.183
81244W        W53592  22.710  15.263  14.469
81245W        W53593  13.787  34.412   4.309
81246W        W53594  21.699  44.359  11.015
81247W        W53595   1.741   8.230   3.366
81248W        W53596  23.172  24.611  12.066
81249W        W53597   0.889  14.676   4.148
81250W        W53598   1.809  20.588  14.985
81251W        W53599  17.619  33.975   1.865
81252W        W53600  11.799  42.525  13.392
81253W        W53601   0.371  21.189   2.375
81254W        W53602  21.153  34.957  11.598
81255W        W53603  38.364  20.204  11.886
81256W        W53604  12.156   1.891   2.704
81257W        W53605  19.701  25.472  14.414
81258W        W53606   2.350  43.449  12.016
81259W        W53607  36.953  13.169  12.906
81260W        W53608   6.251  44.844   3.381
81261W        W53609  32.417   9.211   3.171
81262W        W53610  33.016   1.386   0.473
81263W        W53611  32.123   5.845   9.450
81264W        W53612   7.373  35.472  10.512
81265W        W53613   7.809  11.746   3.834
81266W        W53614   5.877  35.094  12.354
81267W        W53615  13.646  36.088   1.396
81268W        W53616  39.966  18.164   2.736
81269W        W53617  35.434  16.706   0.728
81270W        W53618  35.932   1.868   4.674
81271W        W53619  16.319  11.852   2.667
81272W        W53620  40.908  13.755   4.181
81273W        W53621  27.004  42.884   1.718
81274W        W53622  41.361  24.638   3.169
81275W        W53623  31.516  24.640  12.386
81276W        W53624  18.062  21.216   4.137
81277W        W53625  19.117  30.639  14.291
81278W        W53626  19.148  32.479  11.464
81279W        W53627  27.136   1.856   4.257
81280W        W53628  32.479  36.578   2.686
81281W        W53629  41.528  18.156  12.855
81282W        W53630  23.079  44.498   3.235
81283W        W53631  36.849  12.743  13.322
81284W        W53632  43.345  13.160  12.541
81285W        W53633  13.214  11.340   3.819
81286W        W53634  36.496  42.860   3.228
81287W        W53635  10.184   0.450  12.419
81288W        W53636  20.058   0.853  12.444
81289W        W53637  42.791  14.202   1.261
81290W        W53638  43.485  29.639   3.713
81291W        W53639  31.999  26.015  12.081
81292W        W53640   4.775  44.495   4.788
81293W        W53641  28.518  35.544  14.854
81294W        W53642  43.449  25.063  12.899
81295W        W53643  43.810  18.065  10.981
81296W        W53644  14.166   9.267  10.499
81297W        W53645  25.049  22.195  14.020
81298W        W53646  28.670  16.798  10.521
81299W        W53647   1.843  30.495  12.524
81300W        W53648  43.988  29.484   0.927
81301W        W53649  31.560  11.655  14.886
81302W        W53650  28.091  43.941   0.428
81303W        W53651  33.588  36.396   1.274
81304W        W53652  41.805  33.947  12.926
81305W        W53653  44.824  43.898  12.005
81306W        W53654  16.273   6.397   2.314
81307W        W53655  19.047  10.156  10.600
81308W        W53656  43.824  18.178  11.424
81309W        W53657  19.259  25.995  11.603
81310W        W53658  20.610  17.086   0.808
81311W        W53659   8.855  36.448  13.345
81312W        W53660  23.673  18.754  14.472
81313W        W53661   6.249  37.029   3.192
81314W        W53662  23.658  41.537  11.856
81315W        W53663  42.526  13.204  10.598
81316W        W53664  10.672  13.155   1.297
81317W        W53665  39.015  31.479   4.192
81318W        W53666  13.827  40.935  11.075
81319W        W53667  24.101  31.504  12.055
81320W        W53668   2.729   0.259  11.488
81321W        W53669  39.979  23.649   1.321
81322W        W53670   9.760  31.607  14.386
81323W        W53671  44.820  17.570   3.270
81324W        W53672  14.302   2.437   0.737
81325W        W53673  37.963   0.396   1.805
81326W        W53674   1.878  39.032   4.682
81327W        W53675  35.525  12.742  12.385
81328W        W53676  32.531   1.396   3.869
81329W        W53677  32.630   4.431  10.969
81330W        W53678  14.755  33.611   2.289
81331W        W53679   8.385  11.741  14.997
81332W        W53680  13.821  31.982  14.394
81333W        W53681  22.569  32.443   4.781
81334W        W53682  39.525  26.012  14.815
81335W        W53683  34.960  29.120  13.420
81336W        W53684  27.946   5.243   0.343
81337W        W53685   4.332  41.314  14.366
81338W        W53686  30.466  22.686  13.909
81339W        W53687  14.805  14.271  12.014
81340W        W53688  26.157  21.562  12.894
81341W        W53689   5.274  27.176   4.276
81342W        W53690  17.218  22.058  14.005
81343W        W53691  15.635  12.230   0.803
81344W        W53692  39.809  35.520   2.399
81345W        W53693  37.338  18.790  13.506
81346W        W53694  39.040  27.662   0.908
81347W        W53695  41.792   2.789  13.402
81348W        W53696  15.634  15.671  14.950
81349W        W53697  35.369  26.679  13.468
81350W        W53698  33.067  28.474   4.614
81351W        W53699  29.465  21.757  13.014
81352W        W53700  21.072  20.759   0.335
81353W        W53701  18.170   8.240  11.479
81354W        W53702  40.998  18.751   1.874
81355W        W53703  28.572  10.665   0.299
81356W        W53704  43.405  14.677  10.948
81357W        W53705   0.748   2.415   4.306
81358W        W53706  42.518   8.756   4.686
81359W        W53707  38.929  17.597  11.939
81360W        W53708  16.746  33.981   2.819
81361W        W53709  15.241   9.820  14.943
81362W        W53710  14.110  21.243   5.250
81363W        W53711  34.046  38.019  11.561
81364W        W53712  15.640  25.579  14.514
81365W        W53713   7.213  23.178   3.795
81366W        W53714  27.592  33.514   4.830
81367W        W53715  20.754  21.540   3.850
81368W        W53716  19.232  22.178   1.388
81369W        W53717  15.749  16.119   4.204
81370W        W53718   0.824  31.124   1.415
81371W        W53719  33.496  30.533  10.005
81372W        W53720  20.732  31.991  13.517
81373W        W53721  17.215  29.471   1.867
81374W        W53722  39.054   5.821  11.937
81375W        W53723   0.278  42.489   3.840
81376W        W53724  39.893  28.095  11.469
81377W        W53725  39.054  35.600   4.667
81378W        W53726  16.132  11.713   1.307
81379W        W53727   2.405  22.022  13.367
81380W        W53728   8.666   1.765   3.230
81381W        W53729  39.934  10.663  11.427
81382W        W53730  13.817   1.407   0.432
81383W        W53731  10.368  38.925  11.877
81384W        W53732  22.683   6.404   0.778
81385W        W53733  37.383  20.152   3.233
81386W        W53734  10.863  27.096   4.635
81387W        W53735  20.680  16.647  14.872
81388W        W53736  18.059  32.904  14.858
81389W        W53737  28.037  43.010   3.869
81390W        W53738  38.515  15.229   1.406
81391W        W53739   9.175   8.742  10.454
81392W        W53740  25.113  28.944   4.191
81393W        W53741   4.395  28.109  12.553
81394W        W53742  22.057  10.156  10.599
81395W        W53743  43.788   9.343  11.529
81396W        W53744  12.791  19.684   2.882
81397W        W53745  30.472   0.310  11.460
81398W        W53746  22.503  29.955   0.959
81399W        W53747  41.855   0.316   2.324
81400W        W53748  19.534  21.258   3.257
81401W        W53749   7.397  21.177   4.205
81402W        W53750  21.679  34.985   1.432
81403W        W53751  24.714   8.744   0.344
81404W        W53752   7.710  15.263   1.367
81405W        W53753  37.014  34.946   1.904
81406W        W53754  13.816  11.766  11.440
81407W        W53755   5.195  28.654  10.423
81408W        W53756  10.153  31.910   4.167
81409W        W53757   3.422  18.073  12.068
81410W        W53758  17.766  24.014   3.218
81411W        W53759  10.322  39.878  14.003
81412W        W53760  11.735  27.159  10.504
81413W        W53761   3.913  39.021  11.398
81414W        W53762  21.189  43.951  10.941
81415W        W53763  43.803  37.983  11.918
81416W        W53764  36.082  27.674   2.897
81417W        W53765  29.510  42.833  13.444
81418W        W53766  24.089  21.049   0.883
81419W        W53767  20.102   8.275  10.891
81420W        W53768  32.511  12.178   1.770
81421W        W53769  24.200  12.229   3.685
81422W        W53770  10.741  34.904   3.776
81423W        W53771  19.252  28.117   4.834
81424W        W53772  36.352  21.051  14.344
81425W        W53773  21.168   5.732  10.038
81426W        W53774  12.259  20.696   0.470
81427W        W53775  28.678  11.257  13.418
81428W        W53776   6.773  43.470  11.861
81429W        W53777  24.990   2.312   4.639
81430W        W53778  40.947  33.002   2.400
81431W        W53779  44.401  14.276  11.585
81432W        W53780  13.313  16.205  11.437
81433W        W53781  30.447   9.240  14.774
81434W        W53782  12.808  42.373  12.474
81435W        W53783   4.772  21.561  12.007
81436W        W53784  35.950  36.936   2.291
81437W        W53785  14.763  20.140  12.550
81438W        W53786  13.282   4.409   5.724
81439W        W53787  42.942  34.065   2.391
81440W        W53788  36.003  10.698  10.911
81441W        W53789  44.448   7.342   0.920
81442W        W53790   4.875  31.620   0.752
81443W        W53791  41.898  16.156  14.511
81444W        W53792  33.611  23.566   3.791
81445W        W53793  40.860  36.592  12.340
81446W        W53794   3.840  40.012  14.433
81447W        W53795  12.772  33.518   1.211
81448W        W53796  34.606  36.456   2.886
81449W        W53797  36.582   8.668   3.328
81450W        W53798   8.188  37.534   1.315
81451W        W53799  23.030  31.539   0.389
81452W        W53800  27.010  17.656  12.976
81453W        W53801  24.625  16.700   3.655
81454W        W53802  11.774  25.691   0.758
81455W        W53803  20.564  13.653   1.804
81456W        W53804  13.248  41.826   2.798
81457W        W53805  19.170  21.196  12.424
81458W        W53806  34.903   4.428  12.483
81459W        W53807  19.589   4.337   1.818
81460W        W53808   7.825  32.055  11.512
81461W        W53809  39.346   1.920  11.082
81462W        W53810   3.410  11.638   4.786
81463W        W53811  39.385   7.784   4.260
81464W        W53812  44.904   2.734   4.836
81465W        W53813  25.533   6.841   4.343
81466W        W53814  20.586   5.257  10.914
81467W        W53815  31.584  21.204   0.404
81468W        W53816  24.062  35.488  10.555
81469W        W53817  31.557  31.112   0.868
81470W        W53818  22.727  37.510  14.821
81471W        W53819  41.007  10.281  13.892
81472W        W53820  41.975   6.257   5.096
81473W        W53821  37.376  18.668   1.697
81474W        W53822  11.693  29.962  13.339
81475W        W53823  24.551  41.937   2.672
81476W        W53824  17.150  11.714   1.703
81477W        W53825   7.411  34.463  13.913
81478W        W53826  18.132   9.643  11.905
81479W        W53827  22.561   9.726   9.644
81480W        W53828  11.179  31.627   4.681
81481W        W53829   1.419  22.662  14.782
81482W        W53830   8.192   3.940   4.247
81483W        W53831  20.164  19.591   2.746
81484W        W53832  10.785   6.425  14.395
81485W        W53833  37.889  25.096  13.356
81486W        W53834  41.388  14.595   3.309
81487W        W53835  34.500  27.445   3.669
81488W        W53836  25.044  35.915   1.253
81489W        W53837  35.502  15.173   4.138
81490W        W53838   5.850  28.056  14.340
81491W        W53839  43.869  22.561   0.813
81492W        W53840  42.989  44.880   1.218
81493W        W53841   2.900  27.579  12.402
81494W        W53842  37.969  12.845   0.875
81495W        W53843  24.227  36.521  10.480
81496W        W53844  14.163   3.398   3.197
81497W        W53845  23.698  16.277  12.398
81498W        W53846  22.611  27.658  11.408
81499W        W53847  41.977  30.516  12.959
81500W        W53848   4.390  25.600   4.770
81501W        W53849  28.673  37.844   0.409
81502W        W53850  28.504  13.655   1.834
81503W        W53851  19.672  43.916   2.287
81504W        W53852   6.716   7.672   0.865
81505W        W53853   9.691  11.242   3.761
81506W        W53854  33.426   5.289  13.446
81507W        W53855   1.409  37.022   4.147
81508W        W53856   0.263  43.924   1.757
81509W        W53857  25.630   8.356  11.040
81510W        W53858  11.772   1.965   2.681
81511W        W53859  22.542   9.672   9.921
81512W        W53860  32.911  44.997  14.943
81513W        W53861  41.881  31.011  13.039
81514W        W53862   5.889  32.072   9.520
81515W        W53863  25.617  30.575  10.524
81516W        W53864  33.982  25.618  14.768
81517W        W53865   0.896  44.472   1.834
81518W        W53866  27.007  29.031   0.264
81519W        W53867  40.883  42.294   2.698
81520W        W53868  14.199   0.391  11.002
81521W        W53869   3.369  18.296   0.921
81522W        W53870   1.463  42.865   1.393
81523W        W53871  42.496   5.401   4.806
81524W        W53872   1.802   0.442  11.023
81525W        W53873  39.942  25.192  13.364
81526W        W53874  15.577   4.830  11.075
81527W        W53875  39.830  39.929  14.980
81528W        W53876  32.475  28.136   1.819
81529W        W53877  11.704   7.721   4.621
81530W        W53878  43.942  14.219  11.012
81531W        W53879   3.281  33.073  10.144
81532W        W53880   8.241  25.657  11.089
81533W        W53881  16.251  33.095   3.166
81534W        W53882  12.773   0.885  14.988
81535W        W53883  18.781  15.786  13.448
81536W        W53884  25.173   8.316   5.695
81537W        W53885  20.690  24.672  13.855
81538W        W53886  29.617  29.049  14.313
81539W        W53887  11.209  24.044   0.308
81540W        W53888   6.255   9.677   3.337
81541W        W53889  15.234  40.548  11.433
81542W        W53890  43.823   0.956   4.739
81543W        W53891   1.865  36.889   2.781
81544W        W53892  14.604  17.569  12.501
81545W        W53893  16.648  19.706   3.827
81546W        W53894  17.070  35.960   3.243
81547W        W53895  26.572  36.882  12.491
81548W        W53896  21.651  27.066  14.949
81549W        W53897   8.718  19.137   0.258
81550W        W53898  44.817  16.076   4.212
81551W        W53899  30.493  31.991  10.547
81552W        W53900  30.076   4.808   4.140
81553W        W53901  23.714  26.025   1.316
81554W        W53902  23.193  31.615   4.689
81555W        W53903   7.750   1.246  13.931
81556W        W53904  35.960   8.702  12.939
81557W        W53905  36.843  11.640  11.096
81558W        W53906  36.008   2.467  10.600
81559W        W53907  23.013  18.108   2.711
81560W        W53908  36.973   2.342  14.921
81561W        W53909  41.996   4.852  10.934
81562W        W53910  35.032  13.654  14.928
81563W        W53911  37.018   2.786   1.872
81564W        W53912   3.758   3.454  12.880
81565W        W53913   0.950  42.513   3.666
81566W        W53914  26.108  33.514  11.593
81567W        W53915   0.488   5.367  14.330
81568W        W53916  35.380  12.342   3.836
81569W        W53917  28.018   3.411   4.762
81570W        W53918  25.093  15.179  11.929
81571W        W53919  22.624   4.377   1.726
81572W        W53920  11.795  32.623   4.754
81573W        W53921  37.067  26.520  11.460
81574W        W53922   1.813  31.153  14.860
81575W        W53923  38.355  21.746  13.545
81576W        W53924  36.529  25.646   2.844
81577W        W53925   4.404   5.837  11.951
81578W        W53926   9.686  27.499  14.370
81579W        W53927  20.174  31.421   0.325
81580W        W53928  24.068   7.723   1.722
81581W        W53929  30.460  12.841  10.487
81582W        W53930  23.568  29.023  13.329
81583W        W53931  36.069  31.080   0.870
81584W        W53932   2.930  37.483  14.962
81585W        W53933  19.624  35.543   3.866
81586W        W53934  13.125  22.245   0.825
81587W        W53935  44.333  18.076   2.845
81588W        W53936  31.536  40.345   2.276
81589W        W53937  14.101   5.205   3.350
81590W        W53938   6.875  27.053   1.387
81591W        W53939  31.554  10.320   4.643
81592W        W53940   8.694   2.456  10.416
81593W        W53941  37.516  25.472   1.728
81594W        W53942   7.357   0.791  11.553
81595W        W53943   7.227  38.896  13.378
81596W        W53944  33.049  16.115   0.859
81597W        W53945   1.975   9.884   0.266
81598W        W53946  24.656   0.405   2.718
81599W        W53947  32.544  31.912  13.366
81600W        W53948  32.624   8.196  10.407
81601W        W53949  17.267  10.164   1.387
81602W        W53950  23.064  15.803  13.344
81603W        W53951   4.740  10.308  14.849
81604W        W53952  43.446   7.906  11.610
81605W        W53953  25.695  26.519  12.992
81606W        W53954  38.933  34.099  12.433
81607W        W53955   0.795  34.534  14.875
81608W        W53956  33.509  38.448   4.779
81609W        W53957  43.361  40.810  14.500
81610W        W53958   0.821  17.700   4.709
81611W        W53959  42.837  15.102  10.918
81612W        W53960   2.888   8.206   4.731
81613W        W53961  19.271  41.031   3.208
81614W        W53962  31.068  27.011   3.738
81615W        W53963  14.199  31.434   2.406
81616W        W53964  41.933   7.171  12.050
81617W        W53965   9.187  10.826   4.715
81618W        W53966  39.459  16.752   1.418
81619W        W53967  11.844  21.709   0.242
81620W        W53968  20.138  15.130  13.331
81621W        W53969   9.741  23.707   3.169
81622W        W53970   1.876  33.125   0.902
81623W        W53971  28.120   8.878  14.451
81624W        W53972  39.344   2.401  13.035
81625W        W53973  40.549  16.314  11.870
81626W        W53974   6.376  30.970  13.983
81627W        W53975  32.490  26.524   1.443
81628W        W53976  27.966  37.557  10.896
81629W        W53977  30.112  39.051   1.221
81630W        W53978  18.155  41.361  11.861
81631W        W53979  28.113  38.422  11.551
81632W        W53980   1.835  25.213  11.916
81633W        W53981  23.109  15.282   3.292
81634W        W53982   6.362  11.856  11.576
81635W        W53983  19.116  21.722   2.851
81636W        W53984  43.447  39.835  13.506
81637W        W53985  12.698  14.254   1.390
81638W        W53986  33.462  18.759  13.481
81639W        W53987   7.200   9.722  14.507
81640W        W53988  30.453   0.420  13.436
81641W        W53989   7.904  19.142  13.878
81642W        W53990  22.186   9.231   9.955
81643W        W53991  15.213   8.827  14.772
81644W        W53992  38.007  34.611   0.431
81645W        W53993  10.809   1.246  10.959
81646W        W53994   5.696  17.622  12.950
81647W        W53995  11.824  29.128  10.509
81648W        W53996  10.696   1.372  12.900
81649W        W53997  16.797  11.665   4.717
81650W        W53998  11.178  41.883  14.418
81651W        W53999  14.598  12.270   4.751
81652W        W54000  32.502  28.557   0.294
81653W        W54001  21.621  39.960   4.302
81654W        W54002   9.168  14.673   0.963
81655W        W54003  42.483  39.319  11.460
81656W        W54004  29.529  39.402  13.890
81657W        W54005  26.692  42.845   4.666
81658W        W54006  26.543  35.018   5.132
81659W        W54007  34.009  11.186   1.820
81660W        W54008  40.455  17.634   3.825
81661W        W54009  24.560  32.984  13.484
81662W        W54010  14.612   5.303  10.990
81663W        W54011   1.753   0.774  10.542
81664W        W54012  37.391  37.381  12.568
81665W        W54013  28.141  14.302   9.939
81666W        W54014  18.091  39.439   3.219
81667W        W54015  18.786  42.789   0.336
81668W        W54016   0.877  37.831  10.957
81669W        W54017  37.831  28.092  14.762
81670W        W54018  17.097   0.957   2.730
81671W        W54019   9.716  15.238   4.255
81672W        W54020  27.621   4.416   2.768
81673W        W54021  42.988  32.575   4.334
81674W        W54022   9.171   6.716   3.844
81675W        W54023  38.547   0.313  12.049
81676W        W54024   4.429   6.846   2.894
81677W        W54025  29.509  28.550  14.029
81678W        W54026  44.878   4.219   4.250
81679W        W54027  34.542  41.337   2.315
81680W        W54028  29.050  12.814   3.203
81681W        W54029  29.043  38.834  14.032
81682W        W54030  33.515  35.047  13.856
81683W        W54031  20.028  16.740  14.276
81684W        W54032  27.045  29.546   3.737
81685W        W54033  18.734  44.003  14.336
81686W        W54034   6.273  32.428   5.565
81687W        W54035   5.904   1.457   4.247
81688W        W54036  16.721   9.366   3.678
81689W        W54037   0.855  41.837  14.408
81690W        W54038  26.504  16.623  10.419
81691W        W54039  30.530  21.050  11.901
81692W        W54040  12.752  15.211  10.427
81693W        W54041   8.673  32.142  10.513
81694W        W54042  34.556  19.655  12.876
81695W        W54043  11.321  20.747  13.798
81696W        W54044  18.545   6.225   1.756
81697W        W54045  35.854  18.775   4.718
81698W        W54046  25.683  17.132   3.665
81699W        W54047   2.329   6.857  10.957
81700W        W54048  27.450  20.148  13.841
81701W        W54049   6.879  19.708  12.531
81702W        W54050  30.567  19.159  12.021
81703W        W54051  26.119  41.919  13.444
81704W        W54052  15.297   2.956   3.385
81705W        W54053   7.417  33.508   5.214
81706W        W54054  17.639  19.754  14.825
81707W        W54055   4.333  43.474  11.559
81708W        W54056   7.884  41.318   3.681
81709W        W54057  17.622  24.542  11.561
81710W        W54058  19.138  25.169  12.576
81711W        W54059  30.936  39.011   2.406
81712W        W54060  35.004  14.173   2.246
81713W        W54061  41.475  31.905  11.077
81714W        W54062  21.587  33.874  11.447
81715W        W54063  35.972  13.724   0.817
81716W        W54064   6.888  16.591  14.016
81717W        W54065  28.648   5.298   2.719
81718W        W54066  40.511  44.771   4.657
81719W        W54067  42.345  37.051  10.888
81720W        W54068  17.114  38.830  11.385
81721W        W54069  43.827  16.225  13.824
81722W        W54070  38.404  35.905  14.862
81723W        W54071  15.322  43.812   4.338
81724W        W54072  36.969  25.608  14.416
81725W        W54073  14.826  12.125  10.055
81726W        W54074  11.350  10.840   2.784
81727W        W54075  10.819  33.933   2.371
81728W        W54076  24.489  30.911   1.809
81729W        W54077  34.605  29.518   4.627
81730W        W54078  26.024   7.257  12.443
81731W        W54079  39.553   5.300   4.318
81732W        W54080   2.808  37.046  13.320
81733W        W54081   1.837  18.101   4.800
81734W        W54082  30.927  16.198  10.550
81735W        W54083  17.669  27.024  12.531
81736W        W54084  29.511  25.086   0.952
81737W        W54085  13.151  17.710   3.812
81738W        W54086  10.334  16.287  13.980
81739W        W54087  36.446  24.614   1.347
81740W        W54088  32.422  43.505   2.897
81741W        W54089  23.075   4.421   0.885
81742W        W54090  20.748  22.129   0.896
81743W        W54091  42.908  21.231  10.130
81744W        W54092  19.535  20.102   4.729
81745W        W54093  26.176   2.353  13.049
81746W        W54094  27.050   4.209  10.583
81747W        W54095  27.963  33.528   4.654
81748W        W54096  36.526   6.346   5.231
81749W        W54097  39.319  36.546   0.327
81750W        W54098  20.028   2.722  14.380
81751W        W54099  37.422   2.314   1.828
81752W        W54100  18.258   8.900   0.939
81753W        W54101   0.311  26.038  10.415
81754W        W54102   9.652  23.716   1.414
81755W        W54103  21.645  40.045   0.764
81756W        W54104  30.055  15.199   4.267
81757W        W54105  37.888   3.853   1.250
81758W        W54106  24.096   8.793  14.379
81759W        W54107  26.587  22.011   0.793
81760W        W54108  15.204  28.616  11.515
81761W        W54109  30.001  33.481   4.714
81762W        W54110  34.411  29.924   1.837
81763W        W54111  33.104  30.132   1.823
81764W        W54112   2.814  13.194   4.624
81765W        W54113  30.096  33.533   0.340
81766W        W54114  22.228   6.401  12.352
81767W        W54115  30.075  25.683   4.756
81768W        W54116  32.470  33.441   3.175
81769W        W54117   1.822  32.014  13.808
81770W        W54118  36.506   6.239  11.961
81771W        W54119  20.568  41.914   3.211
81772W        W54120   1.461  41.946  12.372
81773W        W54121  35.003  20.695  14.306
81774W        W54122  34.080  35.054  11.434
81775W        W54123  33.992  11.673   4.612
81776W        W54124  36.942  10.714  11.036
81777W        W54125  23.553   9.169   1.435
81778W        W54126   9.677   8.395   2.320
81779W        W54127  23.592   8.678   0.328
81780W        W54128   9.389  37.039   1.257
81781W        W54129   3.312  28.151   3.667
81782W        W54130  31.618   1.443   1.287
81783W        W54131  14.756  31.998  13.829
81784W        W54132   1.349  22.684  13.988
81785W        W54133  11.684  25.706   1.789
81786W        W54134  38.995  36.547   1.278
81787W        W54135  30.009  36.057  11.922
81788W        W54136  28.999   6.284  11.569
81789W        W54137  10.322   9.165  13.956
81790W        W54138  34.510  27.590  11.426
81791W        W54139   4.882  40.390  11.605
81792W        W54140  15.819  19.550   0.942
81793W        W54141  40.426  11.680   0.402
81794W        W54142  26.646   6.255   4.614
81795W        W54143  39.441  14.834  11.476
81796W        W54144  13.788   5.929   4.640
81797W        W54145  44.985   9.656  11.907
81798W        W54146  39.422   7.747  14.444
81799W        W54147  11.710   1.474   3.632
81800W        W54148   2.727  27.182   3.790
81801W        W54149  26.526   0.459   4.827
81802W        W54150  30.925  43.490   0.851
81803W        W54151   3.932  35.568   0.743
81804W        W54152  33.599  41.801   1.733
81805W        W54153  27.457  29.573  13.874
81806W        W54154  24.073  22.641  12.526
81807W        W54155  34.505  34.989  14.029
81808W        W54156   3.431  42.305  14.006
81809W        W54157  22.642  27.975  14.386
81810W        W54158  18.756   5.871  14.513
81811W        W54159  31.623  40.997  13.063
81812W        W54160  39.352   5.752   1.392
81813W        W54161  29.477  37.867   4.185
81814W        W54162  37.898  44.388  14.847
81815W        W54163  16.283  41.347   2.386
81816W        W54164   6.880  31.418   5.230
81817W        W54165  29.567   1.243   2.406
81818W        W54166   1.474  41.460   4.146
81819W        W54167  41.860   3.357   0.765
81820W        W54168  25.999   6.680  13.017
81821W        W54169  38.881   1.953  12.541
81822W        W54170  43.940  37.470   2.812
81823W        W54171  44.955  35.449  13.804
81824W        W54172   2.444  30.944  12.016
81825W        W54173  16.570  12.685  14.342
81826W        W54174  37.512   2.958  10.994
81827W        W54175   7.848  16.729  10.963
81828W        W54176   2.460  32.120   2.710
81829W        W54177  13.176  10.160   3.847
81830W        W54178   6.814   1.467  12.031
81831W        W54179  28.969   4.862  13.873
81832W        W54180  13.713  23.183  10.961
81833W        W54181   1.747   0.465  13.507
81834W        W54182  42.523  33.980   3.868
81835W        W54183  28.643   8.163  13.873
81836W        W54184  18.147   5.303   0.291
81837W        W54185  44.433  42.392  10.154
81838W        W54186  36.975   3.234   2.302
81839W        W54187  22.542  21.020  10.098
81840W        W54188  38.522  20.659   4.774
81841W        W54189  35.375  31.461   4.644
81842W        W54190   6.400   0.302  14.426
81843W        W54191  21.079  20.074   2.834
81844W        W54192  10.681  42.365  13.915
81845W        W54193  19.219  33.890   1.381
81846W        W54194  30.582   8.363  11.049
81847W        W54195  26.053  15.783  12.979
81848W        W54196   4.790  15.658  14.420
81849W        W54197  37.380  25.635   0.280
81850W        W54198   7.713  27.450  14.970
81851W        W54199  25.219   1.246  13.911
81852W        W54200  38.477  24.056  11.102
81853W        W54201  25.161  13.343   0.813
81854W        W54202  31.058  40.848   2.769
81855W        W54203   0.941   9.754   2.358
81856W        W54204   0.397  25.481  14.928
81857W        W54205  32.620   4.866  12.969
81858W        W54206  20.590  39.497  10.999
81859W        W54207   7.186  11.645  11.997
81860W        W54208  25.577  17.253  12.445
81861W        W54209   3.719  32.045  13.859
81862W        W54210  33.058  30.412   0.920
81863W        W54211  44.907  27.599  11.956
81864W        W54212  23.566  10.723  13.888
81865W        W54213  32.956   7.687  14.278
81866W        W54214  14.643   3.217  10.508
81867W        W54215  30.047  25.161  10.406
81868W        W54216   9.319  22.603  12.382
81869W        W54217   0.449  25.019   1.909
81870W        W54218   0.351  25.634   4.839
81871W        W54219  13.810   3.748  13.359
81872W        W54220  16.700   8.165  13.810
81873W        W54221  20.160   8.860  12.553
81874W        W54222  27.549  30.561   1.420
81875W        W54223  27.554   5.243   4.336
81876W        W54224  31.111  44.949  10.513
81877W        W54225  42.836  12.125   2.731
81878W        W54226   1.931  43.452   3.312
81879W        W54227   9.226   7.823   4.696
81880W        W54228  30.519  40.476   0.857
81881W        W54229  10.847  40.952  12.045
81882W        W54230  30.119  34.500   0.424
81883W        W54231  10.746  40.479   1.891
81884W        W54232  11.742  15.623   3.327
81885W        W54233  12.640  20.552  12.837
81886W        W54234   3.952  31.082  14.926
81887W        W54235  10.171  16.164   2.673
81888W        W54236  10.670  18.270   5.115
81889W        W54237  37.523   5.245  14.899
81890W        W54238  20.029  32.549   3.156
81891W        W54239  44.264  37.995  11.492
81892W        W54240  13.347  14.296   2.901
81893W        W54241  39.472  41.856   3.299
81894W        W54242  38.920  21.758  13.927
81895W        W54243   4.267   6.237  13.307
81896W        W54244  33.949   1.973   4.735
81897W        W54245  18.663  26.994  13.894
81898W        W54246  24.203  23.659  12.400
81899W        W54247   7.801  35.888  12.564
81900W        W54248  15.313   5.735  11.561
81901W        W54249   3.816   5.873   2.334
81902W        W54250  27.675  31.978   0.905
81903W        W54251  12.202  42.985   3.379
81904W        W54252   9.649  25.647  11.115
81905W        W54253  40.999   5.927  10.481
81906W        W54254  16.680  37.009   3.342
81907W        W54255  38.486  17.768   3.213
81908W        W54256   7.229  19.253  14.812
81909W        W54257  34.469  31.975  13.519
81910W        W54258  34.458  37.917   4.604
81911W        W54259  31.960  13.606  14.932
81912W        W54260   0.367  12.186  12.885
81913W        W54261   3.285  13.230   1.251
81914W        W54262  28.665  26.972   1.356
81915W        W54263  22.606  11.800  14.001
81916W        W54264  30.560   5.809   1.436
81917W        W54265  42.865   5.834   4.784
81918W        W54266   7.767  37.926   0.384
81919W        W54267  31.940  38.338  14.510
81920W        W54268   3.343  32.407  13.023
81921W        W54269  39.993   4.220  12.351
81922W        W54270  27.625  33.402  11.490
81923W        W54271  42.472  38.958   3.177
81924W        W54272  28.573  14.254  11.050
81925W        W54273   6.700  13.328  14.867
81926W        W54274   9.886  38.487   1.871
81927W        W54275  14.181  23.234   2.331
81928W        W54276  12.312  37.898   3.855
81929W        W54277  11.252   1.452   2.864
81930W        W54278  41.528  37.915   1.433
81931W        W54279  37.892  16.629   4.801
81932W        W54280  27.465  32.111   3.843
81933W        W54281  11.241   6.301   0.297
81934W        W54282  33.561  36.022  11.492
81935W        W54283  23.720  14.292  10.629
81936W        W54284  27.166  15.266   2.238
81937W        W54285  19.071  16.611  11.439
81938W        W54286   8.292  31.912  14.896
81939W        W54287  22.205  29.555   4.122
81940W        W54288  32.093  32.509   3.796
81941W        W54289  15.118  35.419  13.340
81942W        W54290  22.178  12.181   0.964
81943W        W54291  22.600  15.190   4.218
81944W        W54292  16.607  43.838   2.301
81945W        W54293  15.139  37.004  14.491
81946W        W54294  29.160   5.237  12.959
81947W        W54295  15.583  21.730   1.742
81948W        W54296  40.462  14.696  14.403
81949W        W54297   7.375  33.507  11.566
81950W        W54298   5.377  44.417  13.060
81951W        W54299  30.611  27.562  14.025
81952W        W54300  22.712  20.764   0.963
81953W        W54301  13.668  12.824  10.889
81954W        W54302  12.290   6.260  14.456
81955W        W54303  44.871  36.973  14.310
81956W        W54304  12.780   3.736   9.594
81957W        W54305  33.589  30.494  11.437
81958W        W54306  37.513   3.423  14.884
81959W        W54307  20.576   5.292   0.872
81960W        W54308  14.654  39.506  12.475
81961W        W54309  12.270  30.122   2.322
81962W        W54310   5.218  41.840   0.264
81963W        W54311  36.568   2.235  11.087
81964W        W54312  26.146   6.300   3.210
81965W        W54313  22.611  18.645   1.909
81966W        W54314  15.214  35.487  11.383
81967W        W54315  29.985  40.386   3.675
81968W        W54316   3.914  21.107   1.235
81969W        W54317  35.422  16.733  10.993
81970W        W54318  19.261  35.019   3.353
81971W        W54319  41.907   7.230   2.677
81972W        W54320   2.950   1.282  14.792
81973W        W54321  12.236  30.152   3.844
81974W        W54322  11.368   7.228   0.338
81975W        W54323  34.015  34.534   2.248
81976W        W54324  44.418   5.690  13.915
81977W        W54325  28.560   6.316   4.795
81978W        W54326  26.055  16.625  12.971
81979W        W54327   0.353  32.890  14.882
81980W        W54328  42.849   4.854   3.693
81981W        W54329  18.546  25.079  11.384
81982W        W54330  10.193   2.450   3.226
81983W        W54331  40.510  29.446  11.924
81984W        W54332  28.986   1.418   1.780
81985W        W54333  16.234  19.696  13.403
81986W        W54334  10.257  42.870  14.492
81987W        W54335  13.259  39.413   0.335
81988W        W54336  15.237  36.901   4.730
81989W        W54337   7.275  30.990   3.721
81990W        W54338  40.481  10.350  11.383
81991W        W54339  38.065   3.341  12.938
81992W        W54340  17.156  31.140  13.907
81993W        W54341  24.508  12.266  14.329
81994W        W54342  35.384  13.232   3.669
81995W        W54343   8.878  14.717  12.084
81996W        W54344  35.397  18.635  11.568
81997W        W54345  44.786   6.294   1.258
81998W        W54346  34.020   5.378  14.279
81999W        W54347   6.686   7.378  13.874
82000W        W54348  14.748  16.764   0.262
82001W        W54349   6.861   5.411   3.649
82002W        W54350   5.884  16.169   3.722
82003W        W54351   5.888   9.782  12.860
82004W        W54352  14.295   2.386  14.306
82005W        W54353  37.897  26.147  13.004
82006W        W54354  21.624   6.878   1.332
82007W        W54355  39.421   0.972   4.302
82008W        W54356  17.617  24.048  13.796
82009W        W54357   4.316  11.700   2.203
82010W        W54358  29.447   0.274  14.344
82011W        W54359  27.692  23.112  14.284
82012W        W54360  35.070  44.774  11.071
82013W        W54361  18.069  13.784   2.868
82014W        W54362  34.525  37.364   1.339
82015W        W54363  23.595  25.513  10.974
82016W        W54364  26.171  11.185  11.507
82017W        W54365  11.779  16.190  12.341
82018W        W54366  39.822  16.082  10.620
82019W        W54367  24.706  32.587   1.916
82020W        W54368   3.299  38.981  10.911
82021W        W54369  23.700   4.865  13.467
82022W        W54370  36.849  43.800   1.359
82023W        W54371  34.494  41.940  10.514
82024W        W54372  16.216   5.815  12.970
82025W        W54373  12.118  25.141   0.479
82026W        W54374  13.157  22.118   3.221
82027W        W54375  28.961   1.947  14.288
82028W        W54376   2.272  43.939  13.519
82029W        W54377   9.282  29.022  13.010
82030W        W54378  20.052   5.858  14.864
82031W        W54379  18.232   5.223  13.389
82032W        W54380  18.289  16.773   0.413
82033W        W54381   9.834  33.960   1.259
82034W        W54382  10.214  17.758   4.644
82035W        W54383  34.557  39.973  13.801
82036W        W54384  36.487   9.710   2.778
82037W        W54385  30.987   4.788   4.223
82038W        W54386   3.885  26.526  14.868
82039W        W54387  32.553   3.717  14.907
82040W        W54388  34.005   3.893  14.350
82041W        W54389  31.537  15.260  13.012
82042W        W54390  41.892  27.504  11.447
82043W        W54391  42.331  43.379   2.734
82044W        W54392  18.604  27.515  12.555
82045W        W54393  22.996  43.942   3.297
82046W        W54394  34.548  18.598   3.772
82047W        W54395  34.958  12.625   2.668
82048W        W54396   5.902  25.571  14.880
82049W        W54397  17.240  28.006   0.772
82050W        W54398  14.741  38.833  10.492
82051W        W54399   1.822   7.341   4.337
82052W        W54400   6.186  37.962  11.985
82053W        W54401  10.648  42.812   2.338
82054W        W54402  40.344  25.540  14.900
82055W        W54403  12.846  18.733  14.446
82056W        W54404  23.176  10.853  13.344
82057W        W54405  23.606  29.591   0.263
82058W        W54406  13.692   8.804  11.114
82059W        W54407  19.143  34.917  14.314
82060W        W54408  40.444  43.926  14.901
82061W        W54409  26.204  44.977   1.260
82062W        W54410  38.933  43.448  11.910
82063W        W54411  15.579   8.332   0.853
82064W        W54412  11.790  43.899   3.754
82065W        W54413  20.761  31.403   3.380
82066W        W54414  20.675  36.471  10.558
82067W        W54415  27.127  16.209   2.242
82068W        W54416  32.897  43.426  11.406
82069W        W54417  39.896  12.686  10.530
82070W        W54418  25.095  12.255  11.503
82071W        W54419  12.319   1.841   2.210
82072W        W54420  16.781  21.594   0.830
82073W        W54421  28.512  39.404   2.704
82074W        W54422   1.752  14.228  12.857
82075W        W54423  18.083  36.497  11.923
82076W        W54424  14.791  29.988   2.681
82077W        W54425  13.627  33.581   1.837
82078W        W54426  11.829  39.452  11.379
82079W        W54427  29.152  25.688  12.995
82080W        W54428  31.580  42.952   0.963
82081W        W54429   5.709  17.242  10.424
82082W        W54430   0.484  17.254  11.974
82083W        W54431   6.317  15.195   3.341
82084W        W54432   7.171   8.837  12.976
82085W        W54433  17.634   9.265   4.197
82086W        W54434   0.744  13.138  14.458
82087W        W54435  24.539   1.963  14.922
82088W        W54436  12.753  40.971   0.372
82089W        W54437  42.030  26.488   2.225
82090W        W54438  35.943  13.685  14.487
82091W        W54439  37.058  28.474  13.408
82092W        W54440  11.169  19.108  14.442
82093W        W54441   0.789  24.090  13.811
82094W        W54442  19.256  29.034   3.868
82095W        W54443  17.799  10.373  14.443
82096W        W54444  17.741  28.640   4.154
82097W        W54445  19.589  10.379  11.122
82098W        W54446  10.327  44.827  12.416
82099W        W54447   7.712  24.623   0.968
82100W        W54448   3.245  40.889  14.374
82101W        W54449  40.391  17.084   4.296
82102W        W54450  41.987   3.929  12.580
82103W        W54451  15.109  15.588   2.203
82104W        W54452  31.077   5.327   0.251
82105W        W54453   8.719  36.439  14.991
82106W        W54454   1.363   9.743  12.557
82107W        W54455  11.705  29.123  13.050
82108W        W54456  34.110  25.100  14.503
82109W        W54457  38.907  23.209   0.811
82110W        W54458  31.476  40.328  14.839
82111W        W54459   3.367   7.688   5.305
82112W        W54460  23.097   1.347  13.434
82113W        W54461  38.400  41.967  14.906
82114W        W54462  24.008  14.263   1.725
82115W        W54463   0.351  34.054  14.481
82116W        W54464  44.780  29.460   2.750
82117W        W54465   4.839   1.861  14.332
82118W        W54466  27.564   2.934  14.443
82119W        W54467  17.702   8.664  12.039
82120W        W54468   2.735  36.956  12.366
82121W        W54469  41.372  28.966   3.788
82122W        W54470   9.370  38.863   3.182
82123W        W54471   0.329  34.965   3.639
82124W        W54472  22.999  32.984   1.738
82125W        W54473  18.129  32.138   5.095
82126W        W54474  41.396   8.167   3.755
82127W        W54475  19.639  42.423   4.681
82128W        W54476  25.685  18.056  11.015
82129W        W54477  34.576  18.646  14.863
82130W        W54478  41.892  13.148   2.677
82131W        W54479  13.640  11.688   4.714
82132W        W54480   8.261  13.201   4.681
82133W        W54481  15.818  25.215   3.699
82134W        W54482  10.197  37.496   2.377
82135W        W54483  31.452  24.661   0.863
82136W        W54484   8.679  38.921   0.788
82137W        W54485   9.277  21.197  12.040
82138W        W54486  36.554   7.681  11.944
82139W        W54487  14.127  11.217  13.430
82140W        W54488  28.470  31.908   0.916
82141W        W54489   9.301  13.684  14.913
82142W        W54490   2.881   1.469  10.897
82143W        W54491  25.998   8.720  12.882
82144W        W54492  43.806   8.353  11.532
82145W        W54493   1.410   7.253  11.398
82146W        W54494  28.553  14.143  11.977
82147W        W54495  26.175  32.471   4.194
82148W        W54496  39.511  37.042   4.705
82149W        W54497   8.748  13.292   4.683
82150W        W54498   2.876  20.151   0.424
82151W        W54499  10.701   2.895  11.865
82152W        W54500  11.296  32.596   2.321
82153W        W54501   3.275  33.994   3.289
82154W        W54502  29.587  12.733   4.274
82155W        W54503  39.558   7.909   3.657
82156W        W54504   3.378  29.085  11.108
82157W        W54505   6.375  18.755   1.345
82158W        W54506  37.860   3.814   9.924
82159W        W54507  41.456  32.038   0.728
82160W        W54508  41.812  44.330   2.305
82161W        W54509  24.685  33.987  11.908
82162W        W54510  11.786  27.576   0.342
82163W        W54511  39.502  36.023   2.302
82164W        W54512   3.268  23.227  11.943
82165W        W54513  37.912   3.454   2.766
82166W        W54514  44.982   1.257  12.365
82167W        W54515  37.350  32.954   3.164
82168W        W54516  22.670   3.302  14.783
82169W        W54517   6.397  26.595   4.630
82170W        W54518   7.287   9.874   3.810
82171W        W54519   8.760  15.638   1.320
82172W        W54520   1.759  42.777  13.517
82173W        W54521  23.608  31.477   1.892
82174W        W54522  12.745  15.270   4.678
82175W        W54523  16.583  31.494  14.917
82176W        W54524  39.380  35.057   2.800
82177W        W54525  25.965  25.176  12.518
82178W        W54526  31.438  17.628  10.973
82179W        W54527  25.633  15.295  10.579
82180W        W54528  35.056  16.302  13.508
82181W        W54529  29.586   0.417  13.062
82182W        W54530  21.738  33.917  10.966
82183W        W54531  35.542  43.338  10.628
82184W        W54532  40.041  14.334   3.644
82185W        W54533  37.525  24.209  11.032
82186W        W54534  43.821   8.191   2.792
82187W        W54535  17.654  20.683   4.285
82188W        W54536  22.662  27.110  14.294
82189W        W54537  33.016  29.456   2.764
82190W        W54538   3.929  40.531   4.657
82191W        W54539   5.886  37.873  12.823
82192W        W54540  13.781  37.847   1.695
82193W        W54541  38.837  24.554   1.712
82194W        W54542   9.185  26.649   0.906
82195W        W54543   4.246  18.158  11.931
82196W        W54544  37.358  43.430  14.283
82197W        W54545  40.358  24.643  11.995
82198W        W54546  24.104  40.870   4.151
82199W        W54547   5.410   8.406  12.079
82200W        W54548  43.898   3.398  12.361
82201W        W54549  27.965  36.442  11.023
82202W        W54550   3.822  17.685   0.274
82203W        W54551  35.529  34.568   2.728
82204W        W54552   7.390   3.827   3.729
82205W        W54553  16.282  14.816  10.453
82206W        W54554   5.205   8.254  12.976
82207W        W54555  40.031  10.285   0.321
82208W        W54556  30.565  42.842   3.736
82209W        W54557  30.539  40.891   4.776
82210W        W54558  31.638   8.272  14.003
82211W        W54559  33.611   6.676   3.211
82212W        W54560  44.477  41.320  14.337
82213W        W54561  32.635   4.437   0.742
82214W        W54562  15.601   7.203   1.435
82215W        W54563  25.711  22.532  14.396
82216W        W54564  28.643   3.914   3.200
82217W        W54565  20.632  34.969  14.438
82218W        W54566  11.832  43.837  12.555
82219W        W54567  35.883   1.431  14.476
82220W        W54568  22.094  27.615  12.485
82221W        W54569   1.438  32.539  11.111
82222W        W54570  30.632  16.692   3.630
82223W        W54571   7.752  19.772  12.354
82224W        W54572   3.381  25.175  13.424
82225W        W54573  33.617  24.072   1.215
82226W        W54574  11.193  23.091  11.435
82227W        W54575  34.584  23.012  10.413
82228W        W54576  14.598  39.485  14.957
82229W        W54577   2.444   2.737  11.500
82230W        W54578   7.191   5.923  14.792
82231W        W54579  11.234  38.068  11.950
82232W        W54580  38.472   4.834  14.475
82233W        W54581  31.087  29.460  10.960
82234W        W54582  31.585  29.617   0.891
82235W        W54583  34.920  28.115  12.434
82236W        W54584  11.297   9.873  13.394
82237W        W54585  12.340   5.700   4.182
82238W        W54586  33.475   2.252  10.570
82239W        W54587  36.913  32.394   2.721
82240W        W54588  31.915  34.529   5.289
82241W        W54589  31.898  23.063  11.880
82242W        W54590  32.898  28.005   1.813
82243W        W54591  11.662  43.375   3.347
82244W        W54592  37.986  26.531   1.835
82245W        W54593   4.429  38.850   3.152
82246W        W54594  23.194  25.694  14.032
82247W        W54595   4.870  27.670  10.616
82248W        W54596  36.501  11.325  14.505
82249W        W54597  38.565  26.461  12.071
82250W        W54598  16.155  23.211  11.085
82251W        W54599  20.747  34.510  11.016
82252W        W54600  12.259  35.955   4.227
82253W        W54601   6.918  37.905  12.868
82254W        W54602  17.697   4.307  11.938
82255W        W54603  25.574  12.322  12.444
82256W        W54604   9.302  33.407   0.250
82257W        W54605  29.969  39.896   3.657
82258W        W54606  12.656  40.820  14.452
82259W        W54607  28.061  25.077  10.070
82260W        W54608  28.041  43.790  13.535
82261W        W54609   3.437  22.513  14.788
82262W        W54610  31.948  38.985  10.095
82263W        W54611  29.928   1.899   4.615
82264W        W54612   6.698  41.517  13.536
82265W        W54613  41.329  13.650   0.376
82266W        W54614  23.654  11.801   2.407
82267W        W54615  30.106   2.927   4.742
82268W        W54616  14.819   3.954   4.265
82269W        W54617   0.259  16.301   3.308
82270W        W54618  18.761  33.484  11.594
82271W        W54619  39.892   3.445  10.480
82272W        W54620  16.110  23.657  14.017
82273W        W54621  22.203  14.700  12.388
82274W        W54622  28.514  42.991  13.491
82275W        W54623  15.585  14.291  12.090
82276W        W54624  30.057   5.380  12.385
82277W        W54625  36.013  28.178  14.426
82278W        W54626  21.712   2.319   3.835
82279W        W54627  36.568   9.376   0.749
82280W        W54628  19.236   9.240  11.099
82281W        W54629  28.074  25.689   1.312
82282W        W54630  41.336  27.029   0.462
82283W        W54631  19.147  25.582  12.576
82284W        W54632  15.300  22.603   2.184
82285W        W54633  40.910   9.669   0.315
82286W        W54634  38.039  18.645  14.780
82287W        W54635  16.764  33.592  13.367
82288W        W54636  34.535  20.166   0.267
82289W        W54637   5.257  11.826   9.950
82290W        W54638  14.099  30.542  10.441
82291W        W54639  12.338  15.758   2.225
82292W        W54640   2.900  35.013   2.373
82293W        W54641  36.461  23.107   0.759
82294W        W54642  38.372  42.918  13.507
82295W        W54643  29.616  20.643  14.020
82296W        W54644  33.440  23.069   0.377
82297W        W54645  41.537   8.871  14.021
82298W        W54646   8.225   1.257  13.536
82299W        W54647  38.342  38.425   4.341
82300W        W54648  36.933  13.122   3.290
82301W        W54649   0.942  33.010   1.282
82302W        W54650  10.694  10.775  14.004
82303W        W54651  23.553  40.836  14.854
82304W        W54652  37.074  11.808  12.952
82305W        W54653   1.307  16.697   1.933
82306W        W54654   4.910   2.782  10.492
82307W        W54655   9.649  10.709   2.692
82308W        W54656  22.036  16.738   2.873
82309W        W54657  36.557  20.751  14.795
82310W        W54658  36.096   9.357  12.545
82311W        W54659   8.378  41.797  14.838
82312W        W54660  15.815  34.924  12.951
82313W        W54661  40.842   1.798  14.490
82314W        W54662  20.712   0.427   0.808
82315W        W54663  24.046  26.509   3.803
82316W        W54664   9.837  11.824  14.030
82317W        W54665  18.630  20.212   1.272
82318W        W54666  35.584   6.910   3.643
82319W        W54667  44.884   1.734  14.926
82320W        W54668   7.742  13.617  10.510
82321W        W54669  31.408  26.958   1.407
82322W        W54670  26.687   1.375   3.852
82323W        W54671  42.441  18.131   0.956
82324W        W54672  23.492  11.223   3.244
82325W        W54673  12.223  33.114   1.342
82326W        W54674  32.443  39.926  14.949
82327W        W54675  33.517  38.910  14.961
82328W        W54676   0.379  41.857   4.344
82329W        W54677  33.905  43.855  11.430
82330W        W54678   7.297  11.129  12.369
82331W        W54679  15.290  21.572   0.951
82332W        W54680   9.808  44.291  10.920
82333W        W54681   8.352   6.732   2.352
82334W        W54682   0.315   8.897   0.375
82335W        W54683   8.780  27.643  11.914
82336W        W54684  29.940  18.094  10.439
82337W        W54685  36.498  40.334  10.459
82338W        W54686   1.264  16.611   3.168
82339W        W54687  10.174  25.154  12.478
82340W        W54688  26.160  18.217   0.274
82341W        W54689  37.901  10.756   4.645
82342W        W54690  10.711  10.180  10.553
82343W        W54691   4.413  35.934   2.751
82344W        W54692  26.177  12.647   1.808
82345W        W54693  32.104  43.893  13.984
82346W        W54694  42.504  29.094   2.676
82347W        W54695  34.920   3.284   3.194
82348W        W54696  17.078  23.174  13.818
82349W        W54697   2.427  20.211   2.283
82350W        W54698  35.086  16.667  13.329
82351W        W54699  17.701  22.595  14.290
82352W        W54700  43.015  26.043   4.609
82353W        W54701  21.601   8.175  14.467
82354W        W54702  17.063  16.782   1.347
82355W        W54703   8.309   3.276  11.980
82356W        W54704  42.403  30.647   4.684
82357W        W54705   6.776  43.388   2.892
82358W        W54706  20.264  12.259  14.403
82359W        W54707  18.135  44.877  13.460
82360W        W54708  38.032  16.812  10.983
82361W        W54709   0.777  12.694   5.320
82362W        W54710  26.636  41.927  10.625
82363W        W54711  37.433  10.818   3.675
82364W        W54712   6.387  42.292   3.768
82365W        W54713  32.464  28.491  13.797
82366W        W54714  20.561   1.880   3.339
82367W        W54715   4.213  11.768  12.391
82368W        W54716  35.924   4.275   5.268
82369W        W54717   2.919  31.916   1.721
82370W        W54718   2.412   9.793  13.369
82371W        W54719  26.627   1.868   4.597
82372W        W54720  23.491  28.109  10.563
82373W        W54721  37.481  22.034   4.286
82374W        W54722  11.221  12.802   0.434
82375W        W54723  24.664  18.123   2.189
82376W        W54724  27.669  28.503   4.666
82377W        W54725  41.799   9.865   4.231
82378W        W54726  25.991  35.060  11.034
82379W        W54727  24.114   3.764  12.548
82380W        W54728  11.208  39.424  12.540
82381W        W54729  32.449  13.668  10.557
82382W        W54730   0.934  43.279  13.835
82383W        W54731  11.226  42.884  11.958
82384W        W54732  13.198   7.208   1.857
82385W        W54733  25.035  31.475   0.827
82386W        W54734  42.523   3.851  11.508
82387W        W54735  15.752  27.460   0.960
82388W        W54736   7.784  37.383   3.774
82389W        W54737  26.515  26.606   4.284
82390W        W54738   5.711   2.940  12.877
82391W        W54739  20.553   7.711  14.866
82392W        W54740  15.099  20.124   0.294
82393W        W54741   7.693  30.570  13.948
82394W        W54742  35.064  14.311   4.779
82395W        W54743   7.767  44.856   4.806
82396W        W54744  27.046  17.589   0.885
82397W        W54745   2.410  30.129   4.783
82398W        W54746   7.242   2.764  12.559
82399W        W54747  32.461  32.005  13.962
82400W        W54748  32.073   3.341   2.378
82401W        W54749  37.362  14.736   3.257
82402W        W54750  26.699   9.220   4.814
82403W        W54751  34.406  38.010  14.278
82404W        W54752  31.997   8.246  12.431
82405W        W54753  31.907  44.870  13.427
82406W        W54754  39.393   7.179  10.508
82407W        W54755   9.320  37.513   2.383
82408W        W54756  21.113   0.428  11.466
82409W        W54757  39.496  18.575  11.605
82410W        W54758  28.650  19.537   1.775
82411W        W54759   5.378  17.744  11.396
82412W        W54760   2.315   8.823  12.001
82413W        W54761  43.316  20.558  12.915
82414W        W54762  43.893   9.315   1.331
82415W        W54763  37.535  15.822   1.859
82416W        W54764  33.910   9.363   2.750
82417W        W54765  34.614  16.209   3.305
82418W        W54766  18.710   8.820  12.960
82419W        W54767  18.232  25.981   4.714
82420W        W54768  22.567  40.941   4.344
82421W        W54769   1.388  16.695   3.814
82422W        W54770   3.245   6.426  10.413
82423W        W54771  24.169  37.054   2.756
82424W        W54772  17.281  16.194  12.063
82425W        W54773  13.170  12.326   0.337
82426W        W54774  20.149  14.184  14.503
82427W        W54775   3.878   7.774   0.938
82428W        W54776  31.086  42.441  10.557
82429W        W54777  24.519  13.629  12.519
82430W        W54778   0.455   9.325   4.814
82431W        W54779  18.286   8.666  14.936
82432W        W54780  16.174   2.825   3.727
82433W        W54781  19.041  41.434  10.485
82434W        W54782  25.982  36.404   0.403
82435W        W54783   0.794  38.062   4.319
82436W        W54784  43.393  39.548   3.786
82437W        W54785  42.286  13.172  12.835
82438W        W54786   5.207  41.935  13.899
82439W        W54787  17.267  26.496   3.755
82440W        W54788  37.493  41.494  14.905
82441W        W54789  14.783  15.802   3.658
82442W        W54790  17.145  12.245   9.575
82443W        W54791   6.250  42.348   1.351
82444W        W54792  20.225  43.919  13.901
82445W        W54793   0.258  42.800  11.125
82446W        W54794  27.679   6.363  12.453
82447W        W54795  13.308  32.602   1.696
82448W        W54796   0.269  17.693   2.714
82449W        W54797  43.278   2.316  12.824
82450W        W54798  11.329  28.499  13.015
82451W        W54799  35.359  33.391   1.728
82452W        W54800  34.454   4.808  14.385
82453W        W54801  31.088   9.710  14.889
82454W        W54802  35.037  32.593   4.153
82455W        W54803  14.829  16.189   2.703
82456W        W54804  22.739  25.598   0.730
82457W        W54805  43.431   7.176  12.092
82458W        W54806  19.661  23.533  11.456
82459W        W54807   4.367   0.806  13.012
82460W        W54808   1.270  33.988  11.409
82461W        W54809  14.715  11.845   0.385
82462W        W54810  44.968  12.701   0.396
82463W        W54811  26.596  13.113   3.158
82464W        W54812  29.134  24.190   2.666
82465W        W54813  38.377  41.410  12.854
82466W        W54814  28.476  10.341   1.246
82467W        W54815   9.313  43.887  14.505
82468W        W54816  44.500  15.644  11.560
82469W        W54817   1.457  24.173   0.900
82470W        W54818  25.207   9.773  14.965
82471W        W54819  37.393  22.560   5.636
82472W        W54820   3.245  16.297  12.523
82473W        W54821  10.357   9.171  14.361
82474W        W54822   3.818   1.830   4.274
82475W        W54823   6.791  33.942   4.347
82476W        W54824  23.586   3.354   2.237
82477W        W54825  42.003  40.038  10.134
82478W        W54826   4.321  40.389  14.800
82479W        W54827  12.808  32.088  12.925
82480W        W54828  23.519   5.901  14.800
82481W        W54829  42.980  31.966  13.421
82482W        W54830  14.609  29.525  12.964
82483W        W54831  26.472   0.332   2.233
82484W        W54832  36.878   0.965  14.959
82485W        W54833  18.630  14.330  13.882
82486W        W54834  16.255   0.410  11.521
82487W        W54835  37.436  10.689  11.485
82488W        W54836  32.063  43.374  11.975
82489W        W54837  43.940  26.553   4.134
82490W        W54838  41.352  36.349  13.058
82491W        W54839  12.155  32.554   0.959
82492W        W54840  13.219  28.454  11.017
82493W        W54841  28.160  11.334   4.270
82494W        W54842  24.529  39.492  10.935
82495W        W54843  42.463  32.460   0.864
82496W        W54844  40.378  43.818   3.346
82497W        W54845  30.611  37.004   1.891
82498W        W54846  25.709  10.825   0.338
82499W        W54847   2.792  30.128   0.249
82500W        W54848  21.642  30.989  14.830
82501W        W54849  39.538   1.753  12.416
82502W        W54850  24.631   5.356   2.697
82503W        W54851  17.734  37.492   2.393
82504W        W54852  29.441   7.893  14.322
82505W        W54853  33.927   5.728   4.244
82506W        W54854  10.191  35.407  13.056
82507W        W54855  25.214  23.688  10.515
82508W        W54856  24.519  25.570  11.969
82509W        W54857  21.757  12.691  14.512
82510W        W54858  24.514  26.174   2.315
82511W        W54859  18.605  22.612   1.300
82512W        W54860   9.301  42.463   4.276
82513W        W54861   1.308  27.450   2.686
82514W        W54862  42.921  19.202   1.218
82515W        W54863  36.528  28.954  11.092
82516W        W54864   3.387  24.505   2.364
82517W        W54865   6.860  43.983  10.578
82518W        W54866  44.385  10.355   0.244
82519W        W54867   4.739  22.060   4.229
82520W        W54868  10.265  32.076  13.870
82521W        W54869  20.723  25.057   2.894
82522W        W54870  27.984  43.499  14.297
82523W        W54871  31.481  12.127  13.025
82524W        W54872  16.810  11.300   4.694
82525W        W54873  41.399  23.042   1.877
82526W        W54874  13.654  15.685  11.010
82527W        W54875   8.677  42.933   1.213
82528W        W54876  14.643   8.374  12.038
82529W        W54877  28.964  22.562   0.776
82530W        W54878  38.348  44.009   1.828
82531W        W54879  31.125  21.639  12.563
82532W        W54880  34.973  39.395  10.630
82533W        W54881   5.233  24.582  13.061
82534W        W54882   7.346   9.659  10.538
82535W        W54883  42.970  22.089  14.306
82536W        W54884  11.257  44.330  14.916
82537W        W54885   5.786  21.175   2.239
82538W        W54886  38.993  40.898   3.271
82539W        W54887   2.374  25.061  14.767
82540W        W54888  31.902   9.727  11.083
82541W        W54889  14.812  17.598  13.933
82542W        W54890   2.953  42.935  12.886
82543W        W54891  40.549  13.708  11.371
82544W        W54892   1.819  44.004   2.179
82545W        W54893   7.312  34.937   3.207
82546W        W54894  38.895  18.221   3.652
82547W        W54895  42.430   2.284   2.880
82548W        W54896   8.399  25.668  13.463
82549W        W54897  32.107   2.389   2.280
82550W        W54898  19.276  18.075   4.838
82551W        W54899   7.751  38.549   3.236
82552W        W54900  39.514  11.768  10.982
82553W        W54901  36.930  24.037  13.801
82554W        W54902   1.777  16.156  14.770
82555W        W54903   3.744  44.884   4.133
82556W        W54904  23.615  19.682  12.087
82557W        W54905  29.051  21.529   1.732
82558W        W54906  31.409  23.559  14.513
82559W        W54907  18.211  21.716  12.075
82560W        W54908  14.104  17.736   3.174
82561W        W54909  11.173   1.865   2.791
82562W        W54910  21.069  33.989  12.899
82563W        W54911  11.815  18.266   2.809
82564W        W54912  38.431  15.178   3.834
82565W        W54913  21.254   1.886   1.720
82566W        W54914   8.770  22.712   0.915
82567W        W54915  28.674  33.576  14.833
82568W        W54916   8.247  14.282  11.529
82569W        W54917   3.872  15.131   2.695
82570W        W54918  33.613  40.933  11.570
82571W        W54919  31.123  34.090   4.703
82572W        W54920  43.387  36.887   1.383
82573W        W54921  14.148  11.799   0.764
82574W        W54922  11.269  34.987   4.225
82575W        W54923  17.605   5.322   4.248
82576W        W54924  42.953   9.739   4.248
82577W        W54925  24.638  33.947  11.407
82578W        W54926  27.475  39.922   1.890
82579W        W54927  36.361  39.430  12.419
82580W        W54928  23.656  25.121  12.918
82581W        W54929  39.025  40.514   0.396
82582W        W54930   7.334  23.617   2.242
82583W        W54931  32.033  44.330  11.548
82584W        W54932   3.348  36.589   3.646
82585W        W54933  18.116  29.580   4.804
82586W        W54934   2.312  44.991  14.490
82587W        W54935   4.861  19.691   2.699
82588W        W54936  23.733  18.054  12.363
82589W        W54937  17.068   1.850  13.056
82590W        W54938  26.646   8.335   0.965
82591W        W54939  16.669  21.045   2.876
82592W        W54940   0.881  15.195  13.526
82593W        W54941  41.904  31.986  13.031
82594W        W54942  40.507  29.591   0.794
82595W        W54943  15.600  41.387   4.346
82596W        W54944  23.572   1.742   4.757
82597W        W54945  41.502   1.873   3.856
82598W        W54946  18.238  34.474  11.040
82599W        W54947   4.781  12.212   1.720
82600W        W54948  38.018  27.514  11.411
82601W        W54949  20.533  25.010   3.171
82602W        W54950   2.313  19.629  11.010
82603W        W54951   2.401   0.409   0.355
82604W        W54952  23.568  32.952  14.444
82605W        W54953  27.009  15.685  13.517
82606W        W54954  32.976  33.923   0.295
82607W        W54955  15.180  20.057  10.597
82608W        W54956   7.335  23.182   3.371
82609W        W54957  32.128  31.526  13.990
82610W        W54958   0.270  30.066   2.259
82611W        W54959  42.376  16.748  12.426
82612W        W54960  14.691  12.634   3.359
82613W        W54961  19.132   1.343  10.996
82614W        W54962   0.805  30.424   2.873
82615W        W54963  12.148  30.492   4.730
82616W        W54964   2.866   1.390   4.694
82617W        W54965  40.543   5.376   0.757
82618W        W54966   7.287  14.282  14.895
82619W        W54967  23.559  27.172  10.518
82620W        W54968  27.667  13.181   2.406
82621W        W54969  17.245  39.348  12.856
82622W        W54970  35.961  33.053   4.260
82623W        W54971  26.542  13.210  11.987
82624W        W54972  25.030  21.166  11.921
82625W        W54973   0.950  21.043   0.436
82626W        W54974  21.108  28.105  14.895
82627W        W54975  16.166  12.675   3.705
82628W        W54976  12.305  12.745  11.379
82629W        W54977  28.460   1.945  12.094
82630W        W54978  42.397   3.308   2.863
82631W        W54979  12.658  35.434   1.892
82632W        W54980  28.551  17.187  10.453
82633W        W54981  38.847  26.490  12.906
82634W        W54982   7.326   0.880   4.823
82635W        W54983  29.017  18.614   2.409
82636W        W54984  14.340  12.618  10.577
82637W        W54985  38.385   0.282   4.186
82638W        W54986   7.171  40.055   2.735
82639W        W54987  24.703   1.350   2.734
82640W        W54988  23.696  33.114   2.335
82641W        W54989   6.222  27.603  13.384
82642W        W54990  23.499  35.495   4.170
82643W        W54991   4.359  42.986   3.316
82644W        W54992  16.163   2.859  11.028
82645W        W54993   8.749  26.191  10.971
82646W        W54994  41.920  32.068  10.932
82647W        W54995   1.248  21.088   2.786
82648W        W54996  31.917  34.990  12.514
82649W        W54997  17.713  14.740  10.444
82650W        W54998  16.096  13.800   2.838
82651W        W54999   6.321  10.836  13.351
82652W        W55000  25.530  35.915   5.265
82653W        W55001   8.738  18.571  14.320
82654W        W55002  36.566  26.031   4.600
82655W        W55003  17.654  28.031   0.410
82656W        W55004  15.213   1.946   4.629
82657W        W55005   3.947  28.941   4.286
82658W        W55006  34.023   6.425  12.492
82659W        W55007   3.805  35.937   5.297
82660W        W55008  44.771   7.271  12.362
82661W        W55009  25.155  41.362   0.837
82662W        W55010  28.149  11.674   1.420
82663W        W55011  26.481  44.756   4.197
82664W        W55012  39.977  11.140  10.899
82665W        W55013  15.159  43.295   1.840
82666W        W55014  42.018  21.545  14.766
82667W        W55015  10.313  35.444   4.274
82668W        W55016  32.979  39.398   1.808
82669W        W55017  40.366  17.291   1.723
82670W        W55018  30.081  23.153   1.370
82671W        W55019  23.603  35.477   1.320
82672W        W55020  16.108  34.102   0.806
82673W        W55021  31.061  24.041   0.746
82674W        W55022  33.381   8.231  13.806
82675W        W55023  26.659  31.122  12.851
82676W        W55024  33.096  26.685   0.851
82677W        W55025  14.181  10.779  14.944
82678W        W55026   0.793  20.224  10.965
82679W        W55027  22.029  27.107  13.413
82680W        W55028  33.624  13.744   3.163
82681W        W55029  11.249  31.144   4.664
82682W        W55030   2.287   7.313  10.615
82683W        W55031  11.364  28.591  11.495
82684W        W55032  12.145  10.876   2.706
82685W        W55033  31.013   1.971  10.016
82686W        W55034   2.727  43.402  11.374
82687W        W55035  40.480  14.256  13.947
82688W        W55036  32.607  16.258   1.833
82689W        W55037   7.774  21.165  13.946
82690W        W55038  15.206  10.633   1.773
82691W        W55039   1.945  41.407  12.914
82692W        W55040   2.394  29.498  11.864
82693W        W55041  43.325  42.510   1.212
82694W        W55042  32.532  13.829   4.825
82695W        W55043  11.631  18.571   0.787
82696W        W55044   4.354  22.152   3.328
82697W        W55045  18.714  40.479  12.544
82698W        W55046  19.067   2.257  13.903
82699W        W55047  37.011   8.777   2.222
82700W        W55048  33.931   4.911   2.286
82701W        W55049  44.906  15.713   2.335
82702W        W55050  27.625  10.223  11.484
82703W        W55051   0.285  38.999   1.293
82704W        W55052  39.495  16.092   3.210
82705W        W55053  42.985  21.588   0.824
82706W        W55054  20.528   4.756   4.231
82707W        W55055   7.293  12.612   4.155
82708W        W55056  36.461  41.004   3.373
82709W        W55057  38.055  12.313  13.417
82710W        W55058  26.054   7.183  11.921
82711W        W55059  27.070  21.233  14.794
82712W        W55060   6.779  16.759   4.751
82713W        W55061  10.749   6.341   5.716
82714W        W55062  12.257  43.969   3.837
82715W        W55063  35.382   4.751   2.418
82716W        W55064  11.779  25.125  10.585
82717W        W55065  38.834  20.541  14.821
82718W        W55066  17.139   2.336  14.853
82719W        W55067  31.960  37.362   0.435
82720W        W55068  42.979  10.291  11.431
82721W        W55069  39.337   6.213   5.282
82722W        W55070  34.947  14.613  12.908
82723W        W55071  33.610  27.472   0.832
82724W        W55072  37.425  12.801   4.347
82725W        W55073  37.011  32.947   0.808
82726W        W55074  35.893  28.447  11.380
82727W        W55075   3.284  32.913  13.981
82728W        W55076   0.482  28.977  13.997
82729W        W55077  40.986  19.082   1.420
82730W        W55078  11.283   8.394  13.870
82731W        W55079  18.690   2.860   2.229
82732W        W55080  41.353  27.649   2.697
82733W        W55081  36.895  21.100  13.368
82734W        W55082   7.398  18.282   1.255
82735W        W55083  22.021  16.806   1.325
82736W        W55084  44.941  37.060   2.721
82737W        W55085   6.680   2.781  13.963
82738W        W55086  33.056  41.816  12.990
82739W        W55087  38.992  41.898   2.830
82740W        W55088  29.607  29.135   2.331
82741W        W55089  10.265   5.756   3.240
82742W        W55090   5.377  28.127   3.386
82743W        W55091  24.116  29.944   1.888
82744W        W55092  44.265  14.730   1.411
82745W        W55093  44.292   4.809  10.084
82746W        W55094  35.059  30.066   1.778
82747W        W55095  22.044   5.431  10.976
82748W        W55096  31.612  34.934  10.947
82749W        W55097  23.683  40.318  12.499
82750W        W55098   1.356   3.289  10.640
82751W        W55099   3.449  39.558  10.422
82752W        W55100  26.110  23.182   4.124
82753W        W55101  15.598  41.448  12.505
82754W        W55102  24.574  19.190   0.323
82755W        W55103  37.924  33.564  13.048
82756W        W55104  24.527  12.159  11.551
82757W        W55105  29.093  39.436   1.892
82758W        W55106   5.721  24.069   3.864
82759W        W55107  43.957  11.650  14.805
82760W        W55108  30.969   1.971  13.882
82761W        W55109  34.964  41.019  13.313
82762W        W55110   4.419  43.974   2.777
82763W        W55111   8.656  40.493   4.600
82764W        W55112   6.405  27.481   4.125
82765W        W55113  33.879  28.472   0.770
82766W        W55114   4.807   6.220  11.538
82767W        W55115  42.833  27.514   0.819
82768W        W55116  27.967   9.870   3.662
82769W        W55117   1.385  20.051  13.917
82770W        W55118  19.078  41.447   4.279
82771W        W55119  42.471  42.957   2.767
82772W        W55120  19.534  44.005   3.199
82773W        W55121  22.204  25.014   3.762
82774W        W55122   0.350  32.581   1.795
82775W        W55123  29.642  33.965  12.026
82776W        W55124  30.926   0.745  11.880
82777W        W55125   4.847  29.639   0.472
82778W        W55126  37.068  42.910  10.619
82779W        W55127  41.492   0.309  10.415
82780W        W55128  37.985  31.943   0.245
82781W        W55129   0.926   3.919  11.499
82782W        W55130   0.309  27.059   1.917
82783W        W55131  12.244   7.325  10.948
82784W        W55132   3.426  25.163   0.832
82785W        W55133   2.380  29.143  14.476
82786W        W55134  24.026  42.878  14.337
82787W        W55135  44.436   0.411   0.905
82788W        W55136  19.669  38.557   0.344
82789W        W55137  22.653  43.973   4.708
82790W        W55138  34.107  43.990   4.315
82791W        W55139   2.242  17.097   1.333
82792W        W55140  18.586  16.282   0.860
82793W        W55141  26.091  25.632  14.928
82794W        W55142   8.364  11.314  14.820
82795W        W55143  43.404  21.193   0.397
82796W        W55144  13.750  35.893   3.811
82797W        W55145  29.637  21.127   5.122
82798W        W55146  17.749  13.337  13.884
82799W        W55147   8.742  21.665   1.377
82800W        W55148  13.758   4.883   0.930
82801W        W55149   2.287  39.436  12.504
82802W        W55150  34.927  28.101   4.202
82803W        W55151   3.835  32.610   1.289
82804W        W55152  44.866  25.144  11.472
82805W        W55153  32.013  12.855  14.943
82806W        W55154   3.254  25.525  10.616
82807W        W55155  40.000  32.421  10.897
82808W        W55156   7.692  22.696   2.858
82809W        W55157   1.469  23.153  11.030
82810W        W55158  34.513  34.013   1.230
82811W        W55159  38.973   4.910  14.987
82812W        W55160   3.793  44.830   2.674
82813W        W55161   1.330  30.450  11.089
82814W        W55162  41.419  32.511   1.314
82815W        W55163  22.512   2.944  11.475
82816W        W55164   1.865  39.852   1.389
82817W        W55165  31.978  14.201   3.372
82818W        W55166  23.728   5.703  11.585
82819W        W55167  28.000  43.828   2.876
82820W        W55168  29.544  42.848   3.260
82821W        W55169  14.228   3.824  14.776
82822W        W55170  38.877  36.933   1.824
82823W        W55171  42.015  33.018   4.812
82824W        W55172  39.984  42.877  11.125
82825W        W55173  26.468  11.777  14.952
82826W        W55174  35.058   1.899  12.562
82827W        W55175  32.422  23.542  13.389
82828W        W55176   4.819   1.241   1.438
82829W        W55177  44.915  33.906   1.376
82830W        W55178  35.952  37.863   0.438
82831W        W55179   7.911  13.112  14.956
82832W        W55180  34.937  28.993   3.339
82833W        W55181  28.515  19.091  11.051
82834W        W55182   2.967  30.432  13.018
82835W        W55183  31.944  34.460   4.729
82836W        W55184  18.704  31.924  10.931
82837W        W55185  26.666   4.230  12.491
82838W        W55186  26.618  19.558   0.821
82839W        W55187  17.702  10.250  12.949
82840W        W55188  22.244  19.132   4.694
82841W        W55189  16.214  14.822  14.967
82842W        W55190  31.019  41.339   1.273
82843W        W55191  14.729   0.792   4.676
82844W        W55192  40.321  10.692   4.684
82845W        W55193   5.736  31.992  13.818
82846W        W55194  33.947  44.776  12.407
82847W        W55195   8.748   8.753   3.698
82848W        W55196  15.654   4.427   0.397
82849W        W55197  11.658  44.425  12.893
82850W        W55198  34.443  43.455  10.594
82851W        W55199  35.601   8.773  11.486
82852W        W55200   0.455  42.320  11.033
82853W        W55201  39.919  33.613  14.942
82854W        W55202  20.670   0.813  10.532
82855W        W55203  19.732  11.626  14.896
82856W        W55204  43.887   7.395  12.852
82857W        W55205  14.780  40.920  13.037
82858W        W55206  39.402   9.307   0.781
82859W        W55207   9.757   9.171  13.904
82860W        W55208  35.063  43.427  13.888
82861W        W55209  38.962  40.526  11.937
82862W        W55210   9.199  24.703  14.796
82863W        W55211   0.861  31.973  10.943
82864W        W55212  35.462  13.104   4.768
82865W        W55213  29.483  40.938  11.952
82866W        W55214  30.940  14.158  13.022
82867W        W55215  38.009   7.223  12.459
82868W        W55216   4.855  33.443  12.839
82869W        W55217   4.219  14.307   4.627
82870W        W55218  18.693   1.922  11.127
82871W        W55219  41.947  15.315  12.989
82872W        W55220  25.200  36.966  13.350
82873W        W55221  42.889   3.263  11.505
82874W        W55222  43.410  23.028  14.461
82875W        W55223  11.821   2.809  14.821
82876W        W55224  36.904   4.900  10.441
82877W        W55225  10.259  44.758   4.333
82878W        W55226  27.145  31.584   1.274
82879W        W55227  19.712   9.870   2.895
82880W        W55228  24.676  12.274   4.674
82881W        W55229  37.950  16.220   2.307
82882W        W55230  35.456   1.346   2.269
82883W        W55231  36.369  42.851   2.213
82884W        W55232  21.582  33.553  14.373
82885W        W55233   0.319   7.284  13.007
82886W        W55234  42.497   6.782   0.776
82887W        W55235  31.925  24.710  11.994
82888W        W55236   5.217  21.046  11.561
82889W        W55237  31.995   7.712  13.468
82890W        W55238  20.661  24.185  13.987
82891W        W55239  22.627  43.823   1.787
82892W        W55240  14.331  33.519   0.786
82893W        W55241   3.925  29.669   0.469
82894W        W55242  38.478   4.428   5.148
82895W        W55243  18.567  41.020   4.673
82896W        W55244  24.199  10.779  10.480
82897W        W55245   9.258  25.213   2.395
82898W        W55246  15.805  39.850   4.725
82899W        W55247  19.700  35.597  14.374
82900W        W55248  41.925   7.291   0.374
82901W        W55249  25.568  17.735  11.066
82902W        W55250  36.842  13.114   0.740
82903W        W55251  16.579  31.457   2.258
82904W        W55252   7.829  14.117   2.693
82905W        W55253  20.690  13.844  14.786
82906W        W55254  19.613  41.466   1.717
82907W        W55255  41.437  29.114   4.330
82908W        W55256  34.104  13.625  10.472
82909W        W55257  26.571   0.838  11.442
82910W        W55258  31.062  42.906  13.386
82911W        W55259  41.899  10.840   3.770
82912W        W55260  35.458  14.189   3.213
82913W        W55261  14.116  20.268  14.409
82914W        W55262  11.844  23.074  12.462
82915W        W55263  21.665  13.276   2.730
82916W        W55264  31.063  28.532   2.336
82917W        W55265  39.519  14.622   3.688
82918W        W55266  34.905  22.118  11.409
82919W        W55267   1.461  44.329  12.490
82920W        W55268  41.421  23.558   1.859
82921W        W55269  12.265  39.903  12.094
82922W        W55270   5.202  39.829   3.811
82923W        W55271   5.313  14.298   1.443
82924W        W55272  26.577  35.412   1.697
82925W        W55273  11.653  24.602  13.469
82926W        W55274  15.619  39.816   0.258
82927W        W55275  20.154  39.992   1.246
82928W        W55276  42.428  16.078  12.540
82929W        W55277  34.419  44.338   0.880
82930W        W55278  23.114  22.043   3.727
82931W        W55279  33.444  34.928  14.985
82932W        W55280  44.411  15.646  10.028
82933W        W55281  33.901  28.435   3.165
82934W        W55282  20.146   3.336  13.929
82935W        W55283   7.362  28.160  14.956
82936W        W55284  36.016   5.913   5.128
82937W        W55285   4.321  33.087   1.212
82938W        W55286  42.378  43.334   3.290
82939W        W55287  14.740  17.689   4.838
82940W        W55288  15.184  38.344   4.738
82941W        W55289  14.305  11.159  14.784
82942W        W55290  26.047  40.000   3.148
82943W        W55291  11.681   1.757   1.275
82944W        W55292   9.207  28.109   2.858
82945W        W55293  33.427  29.545   3.759
82946W        W55294  14.677  33.024  12.836
82947W        W55295  40.491  23.185   4.306
82948W        W55296  27.612  15.138  11.995
82949W        W55297  14.148  11.267   4.231
82950W        W55298  13.337  42.876   0.803
82951W        W55299   0.853  32.079  10.102
82952W        W55300   5.362  22.202   0.783
82953W        W55301  39.414  19.773  14.411
82954W        W55302  37.472  25.655   4.658
82955W        W55303  27.501  40.548   3.643
82956W        W55304   9.698  32.407   9.573
82957W        W55305   6.798  26.961  13.442
82958W        W55306  33.127  36.059  10.621
82959W        W55307  22.053  30.048  12.411
82960W        W55308  17.598  29.462   0.946
82961W        W55309  36.909  31.551  10.489
82962W        W55310  14.705  22.679   4.643
82963W        W55311  35.887  24.054  13.442
82964W        W55312  27.140  23.697   1.305
82965W        W55313  14.334  36.386   3.772
82966W        W55314  13.717   0.745  13.342
82967W        W55315  24.633  41.006  11.601
82968W        W55316  15.794  35.004   2.298
82969W        W55317  41.421  42.936  12.920
82970W        W55318  22.510  10.267  14.383
82971W        W55319  33.565  22.187  14.333
82972W        W55320   9.272  22.516  10.605
82973W        W55321  35.433  23.542  14.833
82974W        W55322   6.422  41.997   4.636
82975W        W55323  21.039  19.705   3.384
82976W        W55324   7.257  42.361  14.317
82977W        W55325   0.892   1.825   1.330
82978W        W55326  35.564  31.559   3.157
82979W        W55327  25.650  43.840   1.876
82980W        W55328  21.026   5.222   3.654
82981W        W55329   6.419  19.070  13.921
82982W        W55330  35.910  24.108  11.999
82983W        W55331   3.746  16.785  13.967
82984W        W55332  24.536  10.716   0.344
82985W        W55333   8.298  16.231   3.206
82986W        W55334   9.179  23.187   3.849
82987W        W55335  19.085  25.990  14.822
82988W        W55336  19.658  22.200  14.011
82989W        W55337   3.747   2.878  12.543
82990W        W55338   5.835  32.885   0.428
82991W        W55339  10.803  26.465  10.916
82992W        W55340  25.137  15.193   4.240
82993W        W55341  12.771  34.511   2.302
82994W        W55342  27.976  26.488   1.289
82995W        W55343  12.616   4.396  12.842
82996W        W55344  17.122  15.800  13.527
82997W        W55345   3.282   0.410  12.064
82998W        W55346  11.795  30.978  14.974
82999W        W55347   7.798  31.536  13.309
83000W        W55348  14.722  43.777  13.466
83001W        W55349  44.792  39.940  11.858
83002W        W55350  11.760   2.964  11.058
83003W        W55351  26.564  36.896  11.939
83004W        W55352  42.875   6.886  14.904
83005W        W55353   7.860  28.991  12.425
83006W        W55354  40.896  21.223  12.446
83007W        W55355  31.417  14.783   0.780
83008W        W55356  39.934   7.409  11.873
83009W        W55357  36.581  43.410  10.958
83010W        W55358   0.791  38.881   1.866
83011W        W55359  21.637   5.274  13.863
83012W        W55360   2.901  36.569   4.730
83013W        W55361  17.760  34.951   3.636
83014W        W55362   2.299  27.560  11.090
83015W        W55363   2.354  17.066   1.806
83016W        W55364  27.198  29.432  12.531
83017W        W55365  40.825  18.675   3.758
83018W        W55366  11.303  11.135  14.861
83019W        W55367  24.654  17.113  14.792
83020W        W55368  27.624   9.823   1.867
83021W        W55369  34.460  26.041  11.523
83022W        W55370  44.848   6.693  13.534
83023W        W55371  25.025  20.176  12.563
83024W        W55372  33.977  39.829   4.803
83025W        W55373  25.566  18.774   4.272
83026W        W55374  15.285  15.163  11.919
83027W        W55375  33.883  41.041   0.359
83028W        W55376   1.445   7.254  13.866
83029W        W55377   7.313  21.189   5.283
83030W        W55378  41.499  21.521   2.329
83031W        W55379  22.655  11.241   2.874
83032W        W55380  36.934  10.687  13.491
83033W        W55381  19.665  35.011  12.918
83034W        W55382  33.967   0.977  10.645
83035W        W55383   8.253  39.517  11.537
83036W        W55384  10.291  17.662  12.459
83037W        W55385  31.036  42.941  14.802
83038W        W55386   2.359  23.525   2.398
83039W        W55387  33.490  35.554   0.263
83040W        W55388   4.790   2.936   3.731
83041W        W55389   2.791   5.765  14.512
83042W        W55390  15.708   7.776  13.956
83043W        W55391  37.552  44.280   2.814
83044W        W55392  40.423  43.006   3.219
83045W        W55393  33.444  13.282  12.828
83046W        W55394  11.771  42.501  14.927
83047W        W55395   9.745  21.152  11.018
83048W        W55396  23.002  12.297   1.217
83049W        W55397  34.054  42.826  13.997
83050W        W55398  23.713  21.190   0.274
83051W        W55399  33.385  28.529  11.996
83052W        W55400  13.198  18.760  12.949
83053W        W55401  44.802  35.481  13.317
83054W        W55402  41.869   6.376   0.825
83055W        W55403   7.877  34.452  12.437
83056W        W55404  34.526  22.249  10.110
83057W        W55405  14.206   7.882   3.656
83058W        W55406  27.092  17.752   4.213
83059W        W55407  38.971   0.798   0.824
83060W        W55408  32.092  17.209  13.034
83061W        W55409  44.815  31.919  13.029
83062W        W55410   6.255   7.794   0.869
83063W        W55411  15.152   6.747  10.476
83064W        W55412  20.682  21.255  12.356
83065W        W55413  20.080  14.643  10.456
83066W        W55414  12.201  34.058  13.376
83067W        W55415  30.108  14.593  12.366
83068W        W55416  23.115  31.531  12.520
83069W        W55417  11.252  16.298  12.356
83070W        W55418   0.825   5.888  13.421
83071W        W55419  20.752  31.433  10.509
83072W        W55420  24.651  31.056  12.971
83073W        W55421   6.212  10.737  14.759
83074W        W55422  19.157   8.198   4.274
83075W        W55423   8.393  34.864   2.207
83076W        W55424  31.576  28.123   0.754
83077W        W55425  23.206  42.937   4.688
83078W        W55426   8.659  31.605  13.900
83079W        W55427  13.115   7.666   3.669
83080W        W55428  26.989  26.633  12.000
83081W        W55429  14.302  13.742  11.477
83082W        W55430  14.636  29.554   1.731
83083W        W55431  24.528  19.175  12.437
83084W        W55432  11.138  34.927   3.661
83085W        W55433  38.547  20.590  12.882
83086W        W55434   9.323   9.302   0.460
83087W        W55435  30.645  23.491  13.932
83088W        W55436  18.274  42.815  14.782
83089W        W55437  34.550  31.901   3.640
83090W        W55438  24.508  12.239  11.965
83091W        W55439  26.997   5.888   1.787
83092W        W55440  32.481  42.915  14.969
83093W        W55441  44.871  42.327  10.983
83094W        W55442   6.285  13.194  13.870
83095W        W55443  11.816  14.145  11.582
83096W        W55444  40.923  33.054  10.483
83097W        W55445  29.147  20.749  10.431
83098W        W55446  41.359  25.615   3.722
83099W        W55447  31.483  41.322  13.945
83100W        W55448  32.104  14.669   3.255
83101W        W55449  39.034  32.081   1.451
83102W        W55450  42.788  12.185   3.656
83103W        W55451   5.754   4.783  10.889
83104W        W55452  43.510  10.147  12.092
83105W        W55453  39.012   6.232  13.377
83106W        W55454  40.868  11.169   3.653
83107W        W55455  44.485  34.051   4.159
83108W        W55456  22.590  44.897  11.003
83109W        W55457  10.742   7.708   1.349
83110W        W55458  29.618   4.850   2.817
83111W        W55459  42.834   9.867   3.785
83112W        W55460  42.945  39.896   0.905
83113W        W55461  36.518  14.643  11.029
83114W        W55462  30.589   5.858   2.222
83115W        W55463   3.343  15.171  12.432
83116W        W55464  24.636  20.039   4.624
83117W        W55465   5.353   7.884  12.062
83118W        W55466  23.148  40.869  11.585
83119W        W55467  15.245   6.736  12.998
83120W        W55468  33.960  28.480   4.783
83121W        W55469   4.846  17.078   5.174
83122W        W55470   0.274  28.520  12.898
83123W        W55471   9.375  35.932  12.924
83124W        W55472  39.027  10.789   3.716
83125W        W55473   0.871  20.729  10.921
83126W        W55474  13.210  41.461   0.334
83127W        W55475  30.092  28.156  13.492
83128W        W55476  34.085  20.248   3.776
83129W        W55477  19.208   7.683  14.487
83130W        W55478  29.951  44.328   2.793
83131W        W55479   3.913  38.506  11.530
83132W        W55480   2.266  34.899   1.293
83133W        W55481  31.118  35.548  12.064
83134W        W55482  42.791  43.435  12.848
83135W        W55483  31.908  10.838   2.864
83136W        W55484   1.330  12.188   1.728
83137W        W55485  22.727  27.168  12.948
83138W        W55486  25.178  22.548   0.747
83139W        W55487   8.257  38.890  14.277
83140W        W55488   5.246   3.723  11.415
83141W        W55489  33.012  41.004   1.312
83142W        W55490  27.195  44.861   3.853
83143W        W55491  33.014  17.218  14.001
83144W        W55492  37.866  27.583  11.081
83145W        W55493  24.688  24.168  14.890
83146W        W55494  23.036  11.355  14.001
83147W        W55495  16.144  27.087   4.793
83148W        W55496   8.854   8.361   3.197
83149W        W55497  10.637  44.352   2.903
83150W        W55498  14.597  17.254   0.475
83151W        W55499  21.651   3.748   4.824
83152W        W55500  26.488  39.359  10.434
83153W        W55501  37.523  32.082   0.960
83154W        W55502  18.594  28.582  13.000
83155W        W55503  16.210   4.821   4.758
83156W        W55504  42.010  25.138  13.327
83157W        W55505  11.246  40.873   3.648
83158W        W55506  32.020  14.177  11.091
83159W        W55507   1.796  22.612  11.444
83160W        W55508  41.870  44.828   2.669
83161W        W55509  25.560  17.151  10.908
83162W        W55510   7.374   9.704  13.419
83163W        W55511  13.234  25.117  13.375
83164W        W55512  39.007  40.805  14.822
83165W        W55513  28.949  27.006  11.513
83166W        W55514  41.538  40.538  12.966
83167W        W55515  17.271  32.608   3.767
83168W        W55516  42.331  40.376  13.939
83169W        W55517  35.523  13.806   2.672
83170W        W55518  22.745  12.328  12.465
83171W        W55519  21.094  44.425   2.374
83172W        W55520  24.686  24.614  12.897
83173W        W55521   6.218  16.265   4.320
83174W        W55522   6.747  22.096  11.945
83175W        W55523  29.165  14.685  12.354
83176W        W55524  30.950  41.475  11.972
83177W        W55525   1.291   8.686  13.438
83178W        W55526  29.170  22.079   3.157
83179W        W55527  14.180   4.874  11.861
83180W        W55528  30.130  24.188   0.275
83181W        W55529  10.710  43.312   3.864
83182W        W55530   5.358  24.718  10.996
83183W        W55531  36.865  23.036   5.579
83184W        W55532  43.341   0.878  11.569
83185W        W55533  27.657  44.787   1.737
83186W        W55534  36.023   4.778   0.262
83187W        W55535  14.659  16.766  14.365
83188W        W55536  43.938   4.845  10.611
83189W        W55537  29.978   4.375  13.476
83190W        W55538  27.550   5.917   3.745
83191W        W55539  43.468  23.528  13.951
83192W        W55540  41.977  38.529   0.750
83193W        W55541  16.106   5.330  12.994
83194W        W55542   6.303  16.731   1.294
83195W        W55543  10.651  14.252   3.323
83196W        W55544  41.331  26.972  10.469
83197W        W55545  15.314   1.731   3.223
83198W        W55546  42.932  12.311   3.350
83199W        W55547  32.491  15.248   4.253
83200W        W55548  17.773   3.457  13.871
83201W        W55549  19.085  22.007   2.414
83202W        W55550  24.600  42.433   2.738
83203W        W55551   3.720  35.593   2.195
83204W        W55552  25.616  21.627   1.770
83205W        W55553  40.359  18.110  13.064
83206W        W55554  29.604  33.618  11.533
83207W        W55555  30.162  11.246  10.570
83208W        W55556  12.703  44.906   2.668
83209W        W55557  27.633  25.039   1.879
83210W        W55558  21.663  26.049   0.946
83211W        W55559   6.423  26.596  13.433
83212W        W55560  34.999  42.882  12.352
83213W        W55561   2.861   0.829   0.813
83214W        W55562   3.756  34.015   3.316
83215W        W55563  15.651  17.140  13.039
83216W        W55564   6.291  18.196   2.369
83217W        W55565  16.753  14.191   1.884
83218W        W55566  20.089   1.870  14.962
83219W        W55567  27.114  18.645   2.194
83220W        W55568  17.635  11.143   4.725
83221W        W55569  38.540  24.158  14.924
83222W        W55570   4.242  40.341  14.449
83223W        W55571  13.294  41.018   4.787
83224W        W55572  17.174   1.895  12.373
83225W        W55573  28.035  22.070  11.903
83226W        W55574  10.796   5.311  12.344
83227W        W55575  33.892   0.356   4.738
83228W        W55576  15.757  30.144   1.420
83229W        W55577   9.237  20.736   3.864
83230W        W55578  15.121  16.566  13.814
83231W        W55579  21.248  23.499   1.409
83232W        W55580   9.703  19.107  14.361
83233W        W55581  15.129   1.331   2.775
83234W        W55582   7.289  34.533   1.323
83235W        W55583  17.616  30.073  10.063
83236W        W55584  43.279  30.582  12.431
83237W        W55585  17.693  37.571  13.350
83238W        W55586   0.325  29.494  12.521
83239W        W55587  25.028  38.955  10.483
83240W        W55588  22.186  12.291  14.764
83241W        W55589  30.002  29.636  11.017
83242W        W55590  20.671   6.418  11.046
83243W        W55591  38.400  21.579  14.014
83244W        W55592  22.651  25.619  14.470
83245W        W55593  16.777  10.231  10.442
83246W        W55594   1.925   7.788   0.341
83247W        W55595  21.021  43.895   3.269
83248W        W55596  17.303  35.496   3.250
83249W        W55597   8.809  11.200  10.594
83250W        W55598   2.238  11.293   3.844
83251W        W55599  30.035  13.657  14.322
83252W        W55600   4.866  15.783  11.453
83253W        W55601  18.596  31.994   1.381
83254W        W55602  23.562  40.386  14.991
83255W        W55603  31.593  33.934   3.842
83256W        W55604  10.342  23.209  14.297
83257W        W55605  25.692  12.193  13.438
83258W        W55606   5.214  34.093   1.289
83259W        W55607  27.058  17.281   4.212
83260W        W55608  44.330  25.003   0.762
83261W        W55609   8.745  29.139   2.758
83262W        W55610   2.775  40.428   3.150
83263W        W55611  31.053   6.186   2.196
83264W        W55612  35.397  39.949  11.111
83265W        W55613   4.342  32.433   2.365
83266W        W55614  37.543  23.011  10.952
83267W        W55615  39.015  26.547   2.326
83268W        W55616  42.356  16.792  12.884
83269W        W55617  18.114  39.005   2.356
83270W        W55618  34.592  17.687  13.975
83271W        W55619  13.328  33.983  12.953
83272W        W55620  26.071   5.307  12.392
83273W        W55621  43.896  41.819   0.811
83274W        W55622  20.118  18.708   0.256
83275W        W55623  36.962  26.202  13.995
83276W        W55624  30.134  41.027   3.867
83277W        W55625  26.073   0.860  10.905
83278W        W55626   5.359  40.498   2.307
83279W        W55627   9.254  17.135   1.325
83280W        W55628   7.874  39.829  12.360
83281W        W55629  36.999  35.564   4.657
83282W        W55630   5.785  41.521  11.894
83283W        W55631  12.642  20.659   1.319
83284W        W55632   3.368  37.918   2.271
83285W        W55633  20.113  39.823  12.530
83286W        W55634  42.951  36.914  11.609
83287W        W55635  42.453  43.289  13.817
83288W        W55636  11.331   4.801   4.654
83289W        W55637   8.231  32.586   2.322
83290W        W55638  34.022  31.013  12.051
83291W        W55639  10.683   7.216  14.447
83292W        W55640   5.208  10.302   1.250
83293W        W55641   9.363  10.833  13.531
83294W        W55642  22.215   8.177   2.664
83295W        W55643  17.729  13.724   1.257
83296W        W55644  11.682   6.370   3.151
83297W        W55645  12.265   0.900  12.981
83298W        W55646  14.764  24.512   3.634
83299W        W55647  24.574  27.085  14.330
83300W        W55648  22.099  33.002  10.597
83301W        W55649   2.804  35.384   3.837
83302W        W55650  19.047  18.664  12.900
83303W        W55651   2.909  20.639   2.680
83304W        W55652  19.542  24.572   2.290
83305W        W55653   7.813  30.532  13.414
83306W        W55654  27.986  31.073  12.412
83307W        W55655  39.976  26.048  12.048
83308W        W55656  13.201  32.911  13.883
83309W        W55657  33.383  23.132   1.826
83310W        W55658  29.517  20.257  13.381
83311W        W55659  19.087  40.498  10.480
83312W        W55660  10.787  23.061  13.016
83313W        W55661  34.489   9.764  13.486
83314W        W55662  14.609  33.480   0.422
83315W        W55663  16.670  13.729   1.416
83316W        W55664   6.787  16.280   3.646
83317W        W55665  42.478  41.502   2.250
83318W        W55666  29.017  14.599   4.793
83319W        W55667  38.063  35.447  10.963
83320W        W55668  44.922  30.119   0.863
83321W        W55669  41.487  42.932  13.473
83322W        W55670  14.165  27.108  12.411
83323W        W55671  40.374  19.227   1.445
83324W        W55672  11.354  20.701   9.556
83325W        W55673  32.531  40.492   3.657
83326W        W55674  12.239  29.111   3.378
83327W        W55675  12.752   5.785  12.459
83328W        W55676   3.770  22.216   4.232
83329W        W55677  31.946  12.120   4.278
83330W        W55678  14.609  44.262   1.283
83331W        W55679  22.006   7.835   4.685
83332W        W55680  40.945   4.759  14.815
83333W        W55681  34.547  13.807  14.004
83334W        W55682  11.234   3.428  11.033
83335W        W55683  29.591  13.775   1.390
83336W        W55684  27.484  36.992   4.318
83337W        W55685   9.322   7.842  13.410
83338W        W55686  11.267  31.545  12.478
83339W        W55687  40.010   6.316  10.641
83340W        W55688   2.747  37.955  14.787
83341W        W55689  24.551   7.724   1.288
83342W        W55690  22.172  37.997   2.332
83343W        W55691  15.703  43.454  14.012
83344W        W55692  19.145  27.544   1.895
83345W        W55693   9.864   9.279  10.424
83346W        W55694   5.858  13.350  13.402
83347W        W55695  34.993  22.094   2.401
83348W        W55696  32.446  26.981   0.388
83349W        W55697   7.829  38.069   2.667
83350W        W55698  32.619  23.990   4.655
83351W        W55699   4.877  41.978   2.249
83352W        W55700  18.063  26.092   0.925
83353W        W55701  33.940   7.199   5.280
83354W        W55702  18.185   6.307  12.983
83355W        W55703  17.559   0.977   4.834
83356W        W55704   3.784  16.227  10.585
83357W        W55705  19.149  15.099   3.241
83358W        W55706  21.261  40.893  14.486
83359W        W55707  25.668  35.970  10.543
83360W        W55708  37.420  37.520  11.537
83361W        W55709   8.290  42.998  12.063
83362W        W55710   7.314   5.216   3.715
83363W        W55711  17.171  34.596   0.893
83364W        W55712  11.630  40.388   9.982
83365W        W55713  30.041  14.653   2.843
83366W        W55714  29.155  17.234  14.429
83367W        W55715  40.315  26.618  10.931
83368W        W55716  27.020  15.259   3.343
83369W        W55717   5.811  13.329   4.600
83370W        W55718  20.645  14.142  13.391
83371W        W55719  41.493  42.996   3.309
83372W        W55720  17.146  19.205  10.560
83373W        W55721   2.965  32.438   4.830
83374W        W55722  22.132  28.577  14.308
83375W        W55723   3.309   0.909   4.779
83376W        W55724  16.597  14.591   4.683
83377W        W55725   3.287  28.680   2.354
83378W        W55726  14.287  41.993   2.303
83379W        W55727   2.893   1.344  13.323
83380W        W55728  20.645  18.772  10.624
83381W        W55729  32.907  19.095   2.781
83382W        W55730   9.658   3.827   0.861
83383W        W55731  31.119   2.240  10.487
83384W        W55732  21.135  20.628  10.007
83385W        W55733  29.108   6.790   0.387
83386W        W55734   2.295  11.859   3.165
83387W        W55735  42.285  33.127   1.717
83388W        W55736  35.010  29.111  10.155
83389W        W55737  16.613  42.402   1.443
83390W        W55738  29.122  36.506   0.475
83391W        W55739  41.466  25.565   4.249
83392W        W55740   9.869  29.503   2.298
83393W        W55741  18.589  32.917  13.979
83394W        W55742  34.412  11.345  14.426
83395W        W55743  44.894  30.977  11.378
83396W        W55744  35.016  39.540  11.012
83397W        W55745   2.768  27.530  14.781
83398W        W55746  41.392  31.595  14.815
83399W        W55747   3.349  17.761  11.597
83400W        W55748  35.963  36.032   0.927
83401W        W55749  41.900  24.567   3.367
83402W        W55750   7.817  19.623  12.912
83403W        W55751  30.936  32.494  14.899
83404W        W55752  34.005   0.953  14.357
83405W        W55753  28.016  30.525  14.333
83406W        W55754  36.899  25.119   1.771
83407W        W55755  22.703   1.856   0.316
83408W        W55756   1.417   0.405   0.803
83409W        W55757   3.838   0.352   1.381
83410W        W55758  34.398  14.197   3.653
83411W        W55759   5.754  30.986   2.285
83412W        W55760   1.283  39.323   4.655
83413W        W55761  38.991  11.173   1.370
83414W        W55762  43.336  30.120   1.907
83415W        W55763  14.180  15.638  10.996
83416W        W55764  43.331   3.945   0.934
83417W        W55765  25.528  40.527   3.707
83418W        W55766   3.413  15.111   4.606
83419W        W55767   2.828  42.353  10.888
83420W        W55768  12.341  43.985  14.442
83421W        W55769  18.149  32.431  10.481
83422W        W55770  42.975   7.855  13.865
83423W        W55771  39.021  14.230  11.101
83424W        W55772  24.074  37.513   3.703
83425W        W55773  13.211   7.292  13.856
83426W        W55774  27.086  36.536  12.077
83427W        W55775  26.465  12.793   1.823
83428W        W55776  17.279  33.617   4.323
83429W        W55777  20.221  38.461  14.852
83430W        W55778  16.104  38.431   1.922
83431W        W55779   9.202  31.641  11.610
83432W        W55780  38.461  10.257  12.861
83433W        W55781  41.472  42.512   3.264
83434W        W55782  13.351  24.097   0.875
83435W        W55783  33.930  32.123  14.015
83436W        W55784   2.433   0.926   2.713
83437W        W55785  31.152  28.969  13.343
83438W        W55786  17.246   1.851  11.878
83439W        W55787   3.772  26.604   0.915
83440W        W55788  19.547  43.355   2.803
83441W        W55789   0.445  44.412  13.527
83442W        W55790  21.746   0.849  11.551
83443W        W55791  37.358  16.108   4.154
83444W        W55792   8.802   2.247  10.984
83445W        W55793  40.464  41.949  12.974
83446W        W55794  16.234  43.357  12.972
83447W        W55795  40.835  26.139   4.655
83448W        W55796  26.536  39.810   9.964
83449W        W55797   7.209  44.391  14.022
83450W        W55798  21.098  30.630   3.766
83451W        W55799  37.870  14.774   1.816
83452W        W55800  39.531  23.588  11.886
83453W        W55801  12.117  44.339   3.866
83454W        W55802  26.987  31.640   2.357
83455W        W55803   7.674  31.928   3.283
83456W        W55804  42.488  16.665  10.598
83457W        W55805  10.203  32.491  10.602
83458W        W55806   5.695  42.355   4.664
83459W        W55807  25.649  20.725  10.545
83460W        W55808  44.481  40.547  11.538
83461W        W55809  31.988   7.353  11.497
83462W        W55810  19.222  30.086   3.743
83463W        W55811  38.368  15.106   0.322
83464W        W55812   1.340  38.470  11.456
83465W        W55813  30.944  24.627   4.192
83466W        W55814  27.630  14.812   1.739
83467W        W55815  37.405  17.706  13.807
83468W        W55816  33.076  32.997  10.950
83469W        W55817   6.741   0.398  11.963
83470W        W55818   8.382  24.493  14.894
83471W        W55819  37.458  23.151  12.064
83472W        W55820  10.232  35.562   1.404
83473W        W55821  11.806  36.950   3.177
83474W        W55822  16.248   7.376  14.337
83475W        W55823  40.948  40.052   1.312
83476W        W55824  44.485  34.597  12.521
83477W        W55825   8.241  29.923  10.444
83478W        W55826  36.565  35.880  14.951
83479W        W55827  29.133   6.778  14.819
83480W        W55828  40.343   6.881  10.587
83481W        W55829  15.728  36.013   1.345
83482W        W55830  37.561  17.115  12.986
83483W        W55831   9.817  17.073   0.879
83484W        W55832  11.839  39.010  14.331
83485W        W55833  22.195  11.294  14.366
83486W        W55834  28.572   2.838  10.641
83487W        W55835  44.939  14.208   3.281
83488W        W55836  17.684  25.691   3.824
83489W        W55837  27.016  12.783   2.824
83490W        W55838  25.680  14.334   5.084
83491W        W55839   2.359   9.206  11.576
83492W        W55840  30.008   2.381   0.421
83493W        W55841  43.853  24.021   2.852
83494W        W55842  27.060  42.016   2.774
83495W        W55843  12.244   0.782   0.421
83496W        W55844  20.587  29.969   0.265
83497W        W55845  31.570   9.332   3.370
83498W        W55846  31.491   8.405   4.775
83499W        W55847   9.298  18.658   1.920
83500W        W55848  17.110   4.275  11.012
83501W        W55849   7.881  28.462  14.764
83502W        W55850  33.123  39.941  10.509
83503W        W55851  24.543  36.561  11.985
83504W        W55852   9.296  11.206  12.051
83505W        W55853  31.994   2.782  11.992
83506W        W55854   6.228  26.097   3.164
83507W        W55855  30.059   5.780   4.346
83508W        W55856  35.005  25.534  13.049
83509W        W55857  32.623  29.615   4.116
83510W        W55858  19.181  14.715   1.352
83511W        W55859  36.037  10.809   4.658
83512W        W55860   7.264   1.932  12.425
83513W        W55861   9.780  29.994   3.794
83514W        W55862  37.484  35.053  10.966
83515W        W55863  44.403  36.861   2.388
83516W        W55864   2.803  14.297   3.787
83517W        W55865   7.761  15.293   4.165
83518W        W55866  42.004  37.563  10.430
83519W        W55867  20.706  39.436   1.326
83520W        W55868   0.340  11.266   3.787
83521W        W55869  11.778   0.263  11.577
83522W        W55870  37.374   7.348   1.283
83523W        W55871   1.957  34.459   4.654
83524W        W55872  18.582  36.500  13.041
83525W        W55873  29.670  43.478   1.324
83526W        W55874  11.656  35.995  10.035
83527W        W55875  39.875   6.391   3.273
83528W        W55876   0.855  25.561   0.779
83529W        W55877  40.349  35.862  11.451
83530W        W55878  22.547   7.708   5.240
83531W        W55879  24.042  36.467  11.109
83532W        W55880  23.050  43.996  12.021
83533W        W55881  40.855  25.976  12.518
83534W        W55882  18.636  27.557  14.804
83535W        W55883  24.990  13.751  11.898
83536W        W55884  31.145   6.770   4.218
83537W        W55885  39.511  43.871   4.327
83538W        W55886   2.959  42.436  13.460
83539W        W55887   0.883  15.678   0.895
83540W        W55888  23.577   3.337   3.637
83541W        W55889  24.046  43.864  12.471
83542W        W55890  17.161  12.306   1.247
83543W        W55891  41.384  38.968  14.912
83544W        W55892  33.938   1.476  14.426
83545W        W55893   5.722  21.576   4.289
83546W        W55894   2.435  32.044  13.803
83547W        W55895  22.558  18.161  14.450
83548W        W55896  10.795  40.333  11.381
83549W        W55897   1.775  11.812  13.367
83550W        W55898   9.367  42.502   2.868
83551W        W55899  37.442  28.633   2.263
83552W        W55900  10.230   2.846  12.097
83553W        W55901   4.942   8.658   1.744
83554W        W55902  16.270   8.185   4.139
83555W        W55903   1.736  31.507  11.859
83556W        W55904  25.066  17.650  14.300
83557W        W55905   2.425  15.594  14.405
83558W        W55906  39.022  11.254  12.021
83559W        W55907  34.932   7.376   2.717
83560W        W55908  33.570  19.647   1.346
83561W        W55909  16.656  35.407   0.336
83562W        W55910  36.049   7.848   0.905
83563W        W55911  24.633  39.431  14.837
83564W        W55912  20.171  30.927   1.268
83565W        W55913  14.750  43.786   4.616
83566W        W55914   6.842  37.047   0.297
83567W        W55915  36.567  33.905   2.795
83568W        W55916  28.518   2.885  11.887
83569W        W55917  38.886   1.409   3.651
83570W        W55918   4.911  13.826   4.124
83571W        W55919  16.227  35.920  11.926
83572W        W55920   3.793  36.569   1.828
83573W        W55921  23.197  43.456  14.331
83574W        W55922  42.905   5.834  12.967
83575W        W55923  18.622  27.195   1.721
83576W        W55924  44.851   8.298  14.869
83577W        W55925   9.343  18.277  10.553
83578W        W55926  22.525  39.557  13.806
83579W        W55927  28.002   1.794   2.899
83580W        W55928  44.981  22.232  14.402
83581W        W55929  42.996  24.204  13.020
83582W        W55930  25.603  18.696  10.475
83583W        W55931   5.289  33.969  13.823
83584W        W55932  14.598  41.923   0.289
83585W        W55933  36.511  31.127   3.325
83586W        W55934   8.161  31.973  10.489
83587W        W55935  40.345  30.019   2.324
83588W        W55936  23.171  44.295  13.035
83589W        W55937  10.833  28.541   1.756
83590W        W55938  13.681  21.225   2.891
83591W        W55939  40.369  30.088   2.863
83592W        W55940  22.128  33.546  10.442
83593W        W55941  12.621  40.439   4.777
83594W        W55942   1.458   4.315  11.982
83595W        W55943   7.400  25.663  11.546
83596W        W55944  31.539  35.453   0.906
83597W        W55945  21.091   3.937   1.871
83598W        W55946   0.775  10.840   3.184
83599W        W55947  17.106  21.128   4.777
83600W        W55948   3.810  29.143  14.909
83601W        W55949   2.721  21.078   3.169
83602W        W55950   1.432  40.393   4.692
83603W        W55951  10.149   4.445  10.158
83604W        W55952   8.180  43.964  12.892
83605W        W55953  20.080   6.290   3.689
83606W        W55954   6.200   2.364   0.809
83607W        W55955   3.857   5.874   0.756
83608W        W55956   3.301  18.771   5.229
83609W        W55957  18.749  22.224   0.277
83610W        W55958  29.434  41.963  12.062
83611W        W55959  25.031   8.278   3.151
83612W        W55960  29.468  11.202  11.044
83613W        W55961  14.319  37.440   0.917
83614W        W55962   5.278  12.359  13.335
83615W        W55963  32.939  39.957   3.785
83616W        W55964  43.404  42.989  12.471
83617W        W55965  35.957  35.422  11.504
83618W        W55966   6.846  26.192  10.509
83619W        W55967  37.009  15.642   2.902
83620W        W55968   1.767  40.518   3.369
83621W        W55969  27.196  42.909  12.522
83622W        W55970   3.753  32.042   4.624
83623W        W55971  13.677  10.301  11.520
83624W        W55972  30.449  34.592   0.268
83625W        W55973  21.229  21.758  11.385
83626W        W55974   6.392   7.307  14.019
83627W        W55975  28.500  11.858  14.944
83628W        W55976  37.521  29.479  12.930
83629W        W55977  26.000  42.955   1.714
83630W        W55978  40.843  44.370   1.722
83631W        W55979  24.985  32.546  13.312
83632W        W55980   4.896   5.292   2.346
83633W        W55981  39.826  12.788  14.017
83634W        W55982  22.555  26.986  11.897
83635W        W55983   2.397   7.855   4.721
83636W        W55984  25.213  18.104   0.872
83637W        W55985   4.315  43.316   1.761
83638W        W55986   9.704  27.534   0.904
83639W        W55987  26.028   8.694   2.758
83640W        W55988  28.545  19.567  14.360
83641W        W55989  21.569  17.639  13.006
83642W        W55990  41.954  41.294   4.666
83643W        W55991   7.236  40.408  11.443
83644W        W55992  21.037  24.058  12.551
83645W        W55993  21.069  18.081   4.756
83646W        W55994   5.238  30.459  13.457
83647W        W55995  23.725   1.259   1.806
83648W        W55996  14.748  10.384  11.096
83649W        W55997  40.912  19.543   0.952
83650W        W55998  18.070  41.526   1.234
83651W        W55999  25.149  19.135   4.337
83652W        W56000  23.107  21.219  12.426
83653W        W56001  10.290  42.364  11.107
83654W        W56002  40.820  10.659   0.448
83655W        W56003  10.861  22.635   3.716
83656W        W56004  31.110  35.591  11.574
83657W        W56005  10.296  26.174  11.961
83658W        W56006  14.170  12.200   0.857
83659W        W56007   8.219  21.063  12.940
83660W        W56008  24.223  43.432   1.388
83661W        W56009  34.441  38.549   3.340
83662W        W56010  18.225  38.533   2.663
83663W        W56011   3.252  28.679   3.814
83664W        W56012  26.610   6.877  13.456
83665W        W56013  32.392  10.228  11.112
83666W        W56014  16.205  29.577   0.853
83667W        W56015   5.412   7.257  11.057
83668W        W56016  10.175   2.406  10.591
83669W        W56017   9.677  28.970  14.312
83670W        W56018   7.891  14.610  12.926
83671W        W56019  27.096  19.097   3.275
83672W        W56020  36.074  33.527   0.917
83673W        W56021  29.934   6.750   3.758
83674W        W56022  35.434   6.884   0.805
83675W        W56023  20.207  36.547  10.969
83676W        W56024  18.142  20.246   3.215
83677W        W56025   9.290  13.265   2.385
83678W        W56026  38.053  10.824   3.253
83679W        W56027  17.798  14.663   5.776
83680W        W56028  17.235  24.211   3.702
83681W        W56029  10.657  42.788  14.511
83682W        W56030   2.750  42.869  10.634
83683W        W56031  25.684  15.084   1.436
83684W        W56032  33.420  40.385  11.129
83685W        W56033  42.385  28.652  10.468
83686W        W56034  28.140  20.176   4.195
83687W        W56035  39.314  21.216  12.522
83688W        W56036   5.428   1.741   1.380
83689W        W56037  24.586  41.886  10.479
83690W        W56038   1.793  24.528   2.808
83691W        W56039   0.985  28.638  11.972
83692W        W56040  20.139  24.579  12.955
83693W        W56041  41.004  10.321   2.392
83694W        W56042   2.306   9.818   1.231
83695W        W56043  33.505  19.752   3.319
83696W        W56044   0.943  29.584   0.742
83697W        W56045  18.549  17.181   3.737
83698W        W56046  39.549  12.675  14.008
83699W        W56047  21.090  12.123  14.912
83700W        W56048   0.824  36.525   4.149
83701W        W56049  35.071  17.672  14.005
83702W        W56050   0.959  42.877   2.244
83703W        W56051  32.501  16.209  13.392
83704W        W56052  42.917  32.987  13.435
83705W        W56053  28.090  24.703  12.932
83706W        W56054  23.207  27.082   3.671
83707W        W56055  40.993  18.083  12.066
83708W        W56056  10.363   1.390   4.723
83709W        W56057  13.212   5.260   3.280
83710W        W56058  35.477  36.844  12.040
83711W        W56059  11.350  35.484  14.384
83712W        W56060  24.542  16.267  11.555
83713W        W56061  35.901   1.762   3.183
83714W        W56062  12.787  39.868  10.555
83715W        W56063  14.709  36.946  13.029
83716W        W56064  41.821   6.920   0.859
83717W        W56065  33.131   5.262   2.277
83718W        W56066  36.561  19.233   2.348
83719W        W56067   6.254  26.645   4.236
83720W        W56068  38.412  17.579   2.287
83721W        W56069  38.001  14.319  10.072
83722W        W56070   5.726   7.780  13.334
83723W        W56071  20.616  15.713  13.535
83724W        W56072   7.800  23.669  13.860
83725W        W56073  16.085  10.243   2.200
83726W        W56074  11.832   7.325   1.273
83727W        W56075  34.605  10.371   2.318
83728W        W56076  34.924   8.777  13.514
83729W        W56077  30.584   3.380   3.188
83730W        W56078   9.704  24.975  11.934
83731W        W56079   7.391  12.133   1.301
83732W        W56080  43.932  35.043   2.898
83733W        W56081  15.304  21.058   2.793
83734W        W56082  44.793  38.488   1.794
83735W        W56083  18.572  20.767   4.327
83736W        W56084  30.612  20.175  11.858
83737W        W56085   9.341  11.841   1.852
83738W        W56086  13.337  21.192  12.901
83739W        W56087  31.972  29.507  11.921
83740W        W56088  23.730  33.121  11.571
83741W        W56089  37.367  29.130  12.954
83742W        W56090  13.134   1.902  10.144
83743W        W56091  35.362   2.855  12.339
83744W        W56092  42.336   4.244   1.740
83745W        W56093  28.566  25.994   2.747
83746W        W56094  25.996  20.140  14.769
83747W        W56095  27.591   4.715  10.060
83748W        W56096  17.218   2.727  12.348
83749W        W56097  43.312  30.032  10.633
83750W        W56098   7.207  24.108  11.448
83751W        W56099   2.312  35.481   0.862
83752W        W56100  25.546  30.602  14.339
83753W        W56101  35.544  28.573  10.528
83754W        W56102  29.665  37.371   0.886
83755W        W56103  29.490   7.755  10.611
83756W        W56104   5.792  13.162   1.325
83757W        W56105  31.057  14.139  11.487
83758W        W56106  38.479  17.666   2.889
83759W        W56107  18.127  26.523   1.694
83760W        W56108   4.881  12.620  11.402
83761W        W56109  24.127   3.316   4.683
83762W        W56110  19.219  14.814   2.179
83763W        W56111   8.851  43.344   3.313
83764W        W56112  16.145  24.140   3.150
83765W        W56113   4.307  12.275  12.441
83766W        W56114  43.383   7.740   2.787
83767W        W56115  32.589  32.581  12.986
83768W        W56116  29.102  12.214  14.499
83769W        W56117  26.651  42.360  13.009
83770W        W56118  35.576  17.571   1.277
83771W        W56119  25.100  15.796  11.444
83772W        W56120   4.330  16.173   1.212
83773W        W56121  28.018  28.559   1.257
83774W        W56122   4.820  35.070  10.522
83775W        W56123  37.976  41.013   1.357
83776W        W56124  37.920  40.366  10.000
83777W        W56125   7.673  35.067   3.691
83778W        W56126  42.939  39.328  12.059
83779W        W56127  11.643  14.753   1.887
83780W        W56128   9.332  27.637  11.001
83781W        W56129  41.817  15.175  14.515
83782W        W56130   0.484  16.196  14.383
83783W        W56131  27.521  20.591   0.248
83784W        W56132  43.286  12.833  14.403
83785W        W56133  44.487  42.483   4.826
83786W        W56134  28.469  44.299   3.335
83787W        W56135  32.904  10.166   4.184
83788W        W56136   1.887  38.421  14.966
83789W        W56137  35.476  10.673   0.404
83790W        W56138   8.758  28.173   1.876
83791W        W56139  17.079  22.569   9.992
83792W        W56140  22.654  13.790  13.546
83793W        W56141  32.488  14.109   1.338
83794W        W56142   1.358  44.827  11.590
83795W        W56143  12.736  25.976  14.489
83796W        W56144  14.304  38.325   3.325
83797W        W56145  39.465  37.968  10.549
83798W        W56146  29.174  41.044   0.849
83799W        W56147   5.300  30.088   3.675
83800W        W56148  42.460  40.933   3.323
83801W        W56149   0.827  12.270  10.066
83802W        W56150  29.512  16.732   3.780
83803W        W56151  27.570  21.049   4.219
83804W        W56152  11.202  10.172  12.921
83805W        W56153  16.580  41.377  13.859
83806W        W56154   1.388  24.191  13.487
83807W        W56155   6.722  20.762   3.810
83808W        W56156  11.225   1.437  14.283
83809W        W56157  30.016  17.222  12.428
83810W        W56158  34.527  28.067  13.531
83811W        W56159  24.582   3.905  12.850
83812W        W56160  41.937   6.348   2.412
83813W        W56161  32.907  27.061   4.263
83814W        W56162  10.325   6.917   4.354
83815W        W56163  42.948  17.271   0.281
83816W        W56164  37.531  24.113   4.750
83817W        W56165  26.582   5.232  12.445
83818W        W56166   3.759  17.205   2.831
83819W        W56167   5.232  17.755  10.422
83820W        W56168   9.730  19.282  12.994
83821W        W56169  20.271  41.368   2.315
83822W        W56170   7.675  14.313   3.237
83823W        W56171  24.708  12.684  11.072
83824W        W56172  43.439  27.044   2.315
83825W        W56173  40.303   1.382  14.828
83826W        W56174   0.958   2.827  14.451
83827W        W56175  21.198   5.813   2.231
83828W        W56176  12.262  27.190   3.802
83829W        W56177  33.517  26.619  13.525
83830W        W56178  29.084  43.830  13.406
83831W        W56179  36.590  37.027  11.409
83832W        W56180  29.006  26.106   4.237
83833W        W56181  31.077  36.357   1.291
83834W        W56182   0.356  23.119  14.482
83835W        W56183  17.168  26.086   0.252
83836W        W56184  31.910  39.342   4.837
83837W        W56185  19.268   7.683  13.011
83838W        W56186  10.643  15.107   3.314
83839W        W56187  18.668  25.682  10.542
83840W        W56188   2.865  43.366  10.437
83841W        W56189  18.078   7.776   3.659
83842W        W56190  18.091  14.177   3.156
83843W        W56191   8.165  24.183   1.364
83844W        W56192  16.571  12.342   9.595
83845W        W56193   1.372  30.635   4.758
83846W        W56194  23.100  17.644   2.387
83847W        W56195  35.920  32.057  13.876
83848W        W56196  33.541   8.779  10.590
83849W        W56197  24.196   9.652  14.363
83850W        W56198   0.935   1.765   2.866
83851W        W56199  29.565   3.833   0.777
83852W        W56200  39.025  30.552   2.741
83853W        W56201  25.017  41.462  13.805
83854W        W56202  10.317  42.955   9.935
83855W        W56203  21.576  30.605  13.012
83856W        W56204  25.196  20.185  11.552
83857W        W56205  21.581  38.956   4.654
83858W        W56206  36.972  29.945  13.948
83859W        W56207  40.885  10.847  10.985
83860W        W56208  41.822   7.906  14.371
83861W        W56209  31.534  26.108  14.027
83862W        W56210  16.767   9.805  14.964
83863W        W56211  39.885  34.932  13.794
83864W        W56212  43.418  14.815   2.763
83865W        W56213  30.017  28.994  14.477
83866W        W56214  33.881  23.070   4.171
83867W        W56215  27.572  27.453  11.119
83868W        W56216  27.148  11.660  11.413
83869W        W56217   8.747  37.547  14.405
83870W        W56218   2.420  23.103  14.402
83871W        W56219  14.813  10.648   1.876
83872W        W56220  24.989  15.104  14.020
83873W        W56221  19.134  40.938   3.637
83874W        W56222  42.332  38.421   1.898
83875W        W56223  40.929   3.876  11.971
83876W        W56224  26.481  21.230  13.310
83877W        W56225   8.696  28.966  11.860
83878W        W56226  40.897   5.694   4.807
83879W        W56227   3.271  32.958  14.965
83880W        W56228  40.549  20.123  14.917
83881W        W56229  39.821  30.582  13.344
83882W        W56230  26.703  30.527   2.663
83883W        W56231  21.165   2.278   0.772
83884W        W56232  21.021  23.605  10.985
83885W        W56233  41.404  31.057   3.199
83886W        W56234  16.683   8.833   4.665
83887W        W56235  19.110  37.846  14.394
83888W        W56236  31.528  42.527   0.900
83889W        W56237   0.258  25.689   2.800
83890W        W56238  30.993  10.698  11.530
83891W        W56239  37.522  37.565   2.227
83892W        W56240   1.295  41.787  13.020
83893W        W56241  23.531  32.896   1.827
83894W        W56242  41.936   0.789   2.863
83895W        W56243  37.570   5.929  11.571
83896W        W56244  36.507  39.946   1.871
83897W        W56245  28.962  16.696  11.046
83898W        W56246  29.122  16.290   2.306
83899W        W56247  16.608  38.454  11.607
83900W        W56248  31.908   6.686  10.491
83901W        W56249  21.083  25.990   0.338
83902W        W56250  27.974   7.323   5.219
83903W        W56251  36.065  27.678  11.909
83904W        W56252  44.872   2.399   4.344
83905W        W56253  12.258  30.018  12.957
83906W        W56254  29.633  12.266  13.425
83907W        W56255  39.506  43.363   1.372
83908W        W56256  12.798  28.493  11.934
83909W        W56257  12.166   1.392   2.891
83910W        W56258  25.633  13.269   0.811
83911W        W56259  44.941  24.480  11.981
83912W        W56260  15.801  38.360   3.366
83913W        W56261  25.117  28.628   3.220
83914W        W56262  38.974   3.746   1.837
83915W        W56263  41.459  28.601   2.397
83916W        W56264  18.703  32.102  14.953
83917W        W56265  41.873  27.058   1.917
83918W        W56266  38.856  10.169   2.360
83919W        W56267  37.511  25.571   3.663
83920W        W56268  33.398  42.384  10.981
83921W        W56269  26.133   7.373  14.911
83922W        W56270  15.209  28.656   2.842
83923W        W56271  15.205  28.158  12.384
83924W        W56272  29.670  41.851   1.408
83925W        W56273  30.546   2.894   1.898
83926W        W56274  26.979  42.406   4.124
83927W        W56275  25.539  32.618  10.416
83928W        W56276  36.355  22.247  12.879
83929W        W56277  13.652  36.478   2.298
83930W        W56278   5.742  33.442   2.257
83931W        W56279  35.457  21.257  11.375
83932W        W56280  37.925  26.978  10.965
83933W        W56281  19.112  31.967   3.306
83934W        W56282  33.906  30.075  11.584
83935W        W56283  22.078  11.354   3.332
83936W        W56284  22.149  10.346  12.995
83937W        W56285  38.941  20.573   3.272
83938W        W56286  14.628   9.150   3.376
83939W        W56287   5.840   3.948  13.955
83940W        W56288  29.505  37.983   1.272
83941W        W56289  22.101  13.298  14.298
83942W        W56290  43.779   3.369  11.877
83943W        W56291   9.856  16.705  12.934
83944W        W56292  38.426  17.244  14.927
83945W        W56293  29.149  29.994  10.555
83946W        W56294  41.998  38.530  12.998
83947W        W56295   2.927  15.706  14.774
83948W        W56296  16.277  27.020  12.520
83949W        W56297  40.837  17.674   2.717
83950W        W56298  17.779  36.426   4.164
83951W        W56299  23.105  12.118  14.835
83952W        W56300  31.931  10.366  12.955
83953W        W56301  15.766  33.384   2.898
83954W        W56302  39.829  19.232  12.988
83955W        W56303  18.203  17.757  11.418
83956W        W56304   9.754  42.504  12.551
83957W        W56305   2.768   3.226   4.768
83958W        W56306  31.040  30.449   1.335
83959W        W56307  11.655  16.658   3.692
83960W        W56308  27.574  40.549  12.348
83961W        W56309  12.755  29.494  11.057
83962W        W56310  21.573  32.942  11.431
83963W        W56311  18.205  32.450   0.266
83964W        W56312  19.111  23.525   1.819
83965W        W56313   0.789  32.490  13.946
83966W        W56314   6.237  24.690   1.911
83967W        W56315  41.985  20.587   3.271
83968W        W56316  11.363   7.911  13.887
83969W        W56317  11.866  19.250  11.100
83970W        W56318  41.807  35.887  14.381
83971W        W56319   9.684  18.550   2.775
83972W        W56320  41.009  12.256   4.775
83973W        W56321  29.072  20.241   3.817
83974W        W56322  23.080  30.072  12.918
83975W        W56323  26.161  12.660  13.864
83976W        W56324  20.165  17.073  10.008
83977W        W56325   5.431  13.190   2.374
83978W        W56326  26.062   5.366   2.667
83979W        W56327   4.824  24.666  14.362
83980W        W56328  34.894   2.259  13.410
83981W        W56329  25.568  36.586   4.753
83982W        W56330   3.419  21.567  11.530
83983W        W56331  20.551  19.593   4.825
83984W        W56332  24.584  14.159   3.838
83985W        W56333  21.588  17.197   2.287
83986W        W56334  23.734  14.302  11.553
83987W        W56335  44.884  16.076  10.900
83988W        W56336  22.017  34.519  11.096
83989W        W56337  23.529  13.137  12.989
83990W        W56338  12.667  14.119   1.783
83991W        W56339  29.111  28.953  13.999
83992W        W56340  39.057  29.086   3.246
83993W        W56341  37.546  20.128  13.833
83994W        W56342   9.320   6.781  10.622
83995W        W56343   8.288  16.614   3.233
83996W        W56344  20.759  18.569   3.714
83997W        W56345   4.387   2.383   4.332
83998W        W56346  34.004  31.145   4.755
83999W        W56347  39.864  44.420  11.593
84000W        W56348   0.891  18.603  13.815
84001W        W56349   8.174   7.670  11.377
84002W        W56350  27.500  35.004  12.437
84003W        W56351  18.632  23.505   0.752
84004W        W56352  16.245  21.017   1.399
84005W        W56353  21.673  28.065  10.968
84006W        W56354   0.359  43.462   4.133
84007W        W56355  25.995  27.127   0.834
84008W        W56356  42.402  37.473  14.418
84009W        W56357  41.043  40.026   3.776
84010W        W56358   1.821  37.546  14.910
84011W        W56359  36.882  15.801  14.908
84012W        W56360  44.881  18.099   1.422
84013W        W56361  28.546  20.627  10.587
84014W        W56362  22.544  16.245  14.831
84015W        W56363  16.624  15.121   1.334
84016W        W56364  28.036  39.489  14.453
84017W        W56365   8.892  32.089  13.314
84018W        W56366  40.476   3.238  13.944
84019W        W56367  29.172  11.268   0.484
84020W        W56368   8.763  32.566   5.111
84021W        W56369  42.415  17.653  11.020
84022W        W56370  37.983  41.937   2.402
84023W        W56371   7.792   6.255   4.605
84024W        W56372   2.779  28.962  14.850
84025W        W56373  14.772  25.121  14.466
84026W        W56374  16.294  33.500   3.268
84027W        W56375  12.857  24.995   2.833
84028W        W56376  15.164  25.486   4.219
84029W        W56377   8.190  37.423  10.608
84030W        W56378  42.448  40.885   4.756
84031W        W56379  18.601  26.582   0.942
84032W        W56380  13.211  11.133  12.083
84033W        W56381  40.819  29.482   1.240
84034W        W56382   7.729  38.896   1.428
84035W        W56383  33.570   8.874   3.379
84036W        W56384  30.496   3.951   1.888
84037W        W56385  44.993  32.917  13.011
84038W        W56386  15.146   4.407   1.850
84039W        W56387  19.670  22.137   2.798
84040W        W56388  17.636  23.509   3.169
84041W        W56389   1.295   9.846   3.801
84042W        W56390   0.488  13.117  12.358
84043W        W56391  24.617  34.593   0.768
84044W        W56392  39.986   8.297  11.885
84045W        W56393  20.260  29.463  12.046
84046W        W56394  27.012   8.270   2.179
84047W        W56395  24.503  42.398   4.145
84048W        W56396  43.299   0.319   3.665
84049W        W56397  42.818   9.183   5.227
84050W        W56398  16.313  43.908   1.223
84051W        W56399   9.164  35.515  11.100
84052W        W56400   1.825  29.032  12.092
84053W        W56401   7.392   8.267   4.285
84054W        W56402  25.478  44.499  14.436
84055W        W56403  41.845  43.478  14.290
84056W        W56404  41.411  43.985  13.352
84057W        W56405  21.644   8.706  14.352
84058W        W56406  35.890  17.781   0.278
84059W        W56407   1.854  21.255   4.288
84060W        W56408  16.806  41.936   0.257
84061W        W56409  36.014  21.193  10.418
84062W        W56410  28.571  12.362   4.722
84063W        W56411  18.630  11.232  12.910
84064W        W56412   1.376  37.354   0.391
84065W        W56413  44.858  26.965   2.780
84066W        W56414   9.666  23.187  12.966
84067W        W56415  43.960  11.163   0.755
84068W        W56416  26.502  30.943  12.465
84069W        W56417   6.308  22.695   1.832
84070W        W56418  22.182  32.610  12.985
84071W        W56419  33.509  37.074   1.385
84072W        W56420  21.569  20.227  11.036
84073W        W56421  31.050  26.611   2.383
84074W        W56422  40.880  44.325  13.028
84075W        W56423  43.830  12.198  12.473
84076W        W56424  18.259  33.980  12.565
84077W        W56425  34.959  36.859   3.718
84078W        W56426  20.679   8.322  10.938
84079W        W56427  43.022  15.137  10.550
84080W        W56428  21.593  39.409   3.791
84081W        W56429   3.415   3.397   4.210
84082W        W56430  19.740  39.023  11.553
84083W        W56431   7.680   0.358  10.409
84084W        W56432  23.609   9.222  13.811
84085W        W56433   6.759  33.035   5.611
84086W        W56434   9.775  29.166  11.597
84087W        W56435  39.983  11.771   1.706
84088W        W56436  26.070  25.102  12.870
84089W        W56437  28.583  41.930   4.152
84090W        W56438  25.984  16.304   1.882
84091W        W56439  25.207  37.007   1.447
84092W        W56440   1.746  33.611   2.729
84093W        W56441  22.222  21.674  13.048
84094W        W56442  29.995  36.865   3.675
84095W        W56443  11.857  39.320   2.311
84096W        W56444  17.653  13.266  10.478
84097W        W56445  15.637  19.178   2.219
84098W        W56446  18.103  36.511   2.304
84099W        W56447  39.927  22.512  13.352
84100W        W56448   3.427   3.329   0.429
84101W        W56449   3.222  34.379   3.309
84102W        W56450  28.616  33.433   3.268
84103W        W56451   8.194  24.646   0.772
84104W        W56452  10.788   5.898   2.240
84105W        W56453   7.280  30.590  11.028
84106W        W56454  20.253  34.379   2.352
84107W        W56455  33.561  10.731  12.563
84108W        W56456   4.878  10.845   4.339
84109W        W56457  19.262   7.266  10.957
84110W        W56458  28.644  27.622  12.037
84111W        W56459  37.538  38.489   1.865
84112W        W56460  38.561  35.580   1.422
84113W        W56461  24.115   6.326   4.606
84114W        W56462  37.578   4.347   4.605
84115W        W56463   8.695  33.024  14.357
84116W        W56464  23.209  25.980   1.258
84117W        W56465  17.786  26.099  14.460
84118W        W56466  22.107   2.306   4.213
84119W        W56467   9.206  22.703   5.091
84120W        W56468  13.831  15.321  13.012
84121W        W56469  30.043  23.646   0.398
84122W        W56470  25.494   7.309   2.699
84123W        W56471  23.565  10.372   5.706
84124W        W56472  21.100  11.717  10.457
84125W        W56473  21.219  42.449   1.878
84126W        W56474  36.098  36.057  14.791
84127W        W56475  37.372  24.144  12.968
84128W        W56476  24.030  15.711   1.214
84129W        W56477  11.735  18.593   1.822
84130W        W56478  26.109  28.486   4.620
84131W        W56479   1.891  42.404  14.390
84132W        W56480   8.228   0.338  11.107
84133W        W56481  39.838  43.841   1.396
84134W        W56482  33.891  35.856   3.758
84135W        W56483  18.697  35.424   2.893
84136W        W56484  28.619  39.896  12.847
84137W        W56485  33.512   5.236  11.543
84138W        W56486  14.756   8.807  11.401
84139W        W56487   6.857  31.635   4.119
84140W        W56488   1.272  20.600   1.391
84141W        W56489  14.326  43.290  14.873
84142W        W56490  17.256  26.489  13.997
84143W        W56491  29.505   5.382  13.853
84144W        W56492  21.141   1.737   3.289
84145W        W56493   5.329  28.990  11.568
84146W        W56494  22.516  30.920  14.277
84147W        W56495  11.746  33.972  11.040
84148W        W56496  25.613  32.039  10.523
84149W        W56497  28.602  14.680   3.274
84150W        W56498  15.312  44.934  13.792
84151W        W56499  35.358  28.495  12.008
84152W        W56500   6.749  15.749  14.384
84153W        W56501  11.825  19.273  14.783
84154W        W56502  14.266  35.871   4.254
84155W        W56503  26.095  28.029  10.508
84156W        W56504   1.799  21.539  12.371
84157W        W56505   7.259  30.431  14.994
84158W        W56506  34.937  13.699   0.831
84159W        W56507  41.508  42.402   4.131
84160W        W56508   0.789   6.889  11.127
84161W        W56509  38.069  11.863   0.882
84162W        W56510  13.692  44.920  14.356
84163W        W56511   5.382   3.448   4.215
84164W        W56512  25.166  27.640   3.797
84165W        W56513  41.016  41.460  13.407
84166W        W56514  35.570  17.193  12.418
84167W        W56515  36.005   5.336   2.793
84168W        W56516  37.901  20.090   0.368
84169W        W56517  34.381  27.622  13.028
84170W        W56518   8.770  41.996  10.446
84171W        W56519   9.880  35.544   4.332
84172W        W56520  10.201  17.641   3.377
84173W        W56521  39.837  17.677  11.856
84174W        W56522  13.179  27.501  14.879
84175W        W56523  37.385  37.361  10.914
84176W        W56524  15.637  28.931  11.604
84177W        W56525  35.048  44.816   4.202
84178W        W56526  19.093  34.452   2.667
84179W        W56527  22.195  21.212  10.635
84180W        W56528  30.420  21.045   4.336
84181W        W56529  21.215  42.007  13.525
84182W        W56530  28.586  35.054   4.245
84183W        W56531  39.922  39.333   0.842
84184W        W56532   1.309  12.180  10.497
84185W        W56533  40.979  31.122  13.438
84186W        W56534  36.926  34.975   3.658
84187W        W56535  27.147  24.173   2.723
84188W        W56536  21.081  25.562  11.113
84189W        W56537  14.659  31.527  10.523
84190W        W56538  26.955  22.609  14.888
84191W        W56539  26.040  13.164   1.890
84192W        W56540  30.907   7.717   3.154
84193W        W56541  13.671   9.836  10.903
84194W        W56542  25.617   5.426  12.831
84195W        W56543  26.657   4.386  11.502
84196W        W56544  30.116  15.721  13.861
84197W        W56545  30.118  41.788  13.540
84198W        W56546  17.304  42.474  14.907
84199W        W56547  21.222   6.712   0.962
84200W        W56548  31.502  31.434   3.694
84201W        W56549   7.723  16.608   1.394
84202W        W56550  44.965   3.387  13.451
84203W        W56551   0.440  39.401   2.668
84204W        W56552   5.906  17.261  14.839
84205W        W56553  15.678   5.796   9.924
84206W        W56554  37.350  10.781  10.535
84207W        W56555   4.766   4.910  11.119
84208W        W56556  11.277  21.551  11.947
84209W        W56557   2.857  30.920  14.004
84210W        W56558   3.921  36.435   1.288
84211W        W56559  39.343  24.149  10.601
84212W        W56560  44.375  12.623   9.961
84213W        W56561  37.477  10.865  11.062
84214W        W56562  25.624  41.936   1.340
84215W        W56563  33.973  27.625  12.935
84216W        W56564   2.828   7.790   0.347
84217W        W56565  37.486  40.345  11.898
84218W        W56566  26.197  10.145  13.351
84219W        W56567  16.184  31.073   2.186
84220W        W56568  13.649  42.951  14.449
84221W        W56569  11.633  12.170   1.319
84222W        W56570   2.395  39.007  11.105
84223W        W56571  43.510   2.226   2.741
84224W        W56572   7.285  35.880  11.474
84225W        W56573   1.925   6.708  14.346
84226W        W56574  12.620  22.612  12.003
84227W        W56575  29.102  19.769   4.648
84228W        W56576  33.453  27.594  14.423
84229W        W56577  10.239  19.711   5.124
84230W        W56578  38.363  34.051  12.493
84231W        W56579  31.521   3.357  11.016
84232W        W56580  25.073  28.154  12.544
84233W        W56581  12.802  30.546  14.891
84234W        W56582   1.426  20.084   0.736
84235W        W56583  33.948  22.644   0.389
84236W        W56584   6.791  40.951   0.264
84237W        W56585  19.162  33.573  14.416
84238W        W56586  22.719  20.530   3.684
84239W        W56587   3.869  36.587  12.457
84240W        W56588  29.448  17.181   0.473
84241W        W56589   0.323  13.328  10.415
84242W        W56590  32.482  28.146   4.629
84243W        W56591   5.233   1.846  11.444
84244W        W56592  35.559  14.762  14.332
84245W        W56593  39.362  14.177  10.900
84246W        W56594   5.705   7.327   1.418
84247W        W56595  27.091   0.329   4.801
84248W        W56596  35.883  20.148  13.371
84249W        W56597  11.859  15.648  14.977
84250W        W56598  33.415   7.365  10.914
84251W        W56599  44.487   2.437  12.849
84252W        W56600  38.481  32.395  13.028
84253W        W56601  34.444  25.476  14.964
84254W        W56602  13.344   6.684   1.904
84255W        W56603  34.382  36.020   4.625
84256W        W56604  40.891  11.778  11.542
84257W        W56605  44.292  33.600   2.417
84258W        W56606  35.464  10.325   4.303
84259W        W56607  12.134  18.119   3.165
84260W        W56608  36.847  35.963  11.946
84261W        W56609  19.672  14.618   1.900
84262W        W56610  19.285  41.315  14.934
84263W        W56611   7.235  23.229   0.380
84264W        W56612  34.477   2.763   4.753
84265W        W56613  23.583  16.736   1.921
84266W        W56614  22.251  18.144  11.924
84267W        W56615  42.430  44.274   1.334
84268W        W56616  18.117  31.586  12.826
84269W        W56617  25.525  41.326  13.000
84270W        W56618  18.554  43.387  14.850
84271W        W56619  37.963  11.170  14.014
84272W        W56620   2.423  24.719   3.821
84273W        W56621  42.947   9.712   3.202
84274W        W56622  40.048  27.079  10.917
84275W        W56623  30.994   6.857  10.515
84276W        W56624  19.682  10.807  13.933
84277W        W56625  19.133  34.907  12.569
84278W        W56626  15.746   6.388   1.766
84279W        W56627  42.904  35.544  14.485
84280W        W56628  27.018  41.480  11.375
84281W        W56629  37.461  18.616  14.889
84282W        W56630  26.494   6.372   2.821
84283W        W56631  35.017  11.650   2.327
84284W        W56632   7.302   0.784   1.450
84285W        W56633   7.281   4.713   4.295
84286W        W56634  17.580  22.121   1.755
84287W        W56635  37.461  26.529   4.643
84288W        W56636  21.640  14.116  13.886
84289W        W56637   9.253  22.561   5.761
84290W        W56638  29.956   0.956   1.935
84291W        W56639   8.186   8.340  10.405
84292W        W56640  18.551  39.820   3.651
84293W        W56641  10.791  44.811  14.424
84294W        W56642  34.486  16.317  10.560
84295W        W56643   5.233   0.382   4.737
84296W        W56644  24.180  23.009  13.360
84297W        W56645  24.077  29.975   4.324
84298W        W56646  33.128  39.335  14.921
84299W        W56647  13.708  18.061   0.307
84300W        W56648  10.857  34.562  14.482
84301W        W56649  16.240   0.267   1.240
84302W        W56650   4.362  35.374   0.736
84303W        W56651  30.946  19.617   0.825
84304W        W56652  19.245  32.553  12.068
84305W        W56653  24.486  26.634   0.765
84306W        W56654  18.278  36.411  14.396
84307W        W56655  11.206  43.484   3.223
84308W        W56656  19.556  24.156  11.105
84309W        W56657  29.953  24.214  12.087
84310W        W56658  37.880  33.994  14.853
84311W        W56659  28.627  32.000  12.857
84312W        W56660  23.230  43.833   4.197
84313W        W56661  16.113  26.102  12.901
84314W        W56662   9.217  15.182  12.906
84315W        W56663  36.974   8.765  11.998
84316W        W56664  24.984  35.993   2.247
84317W        W56665  35.982  34.588   3.349
84318W        W56666  42.809   0.930  14.893
84319W        W56667   4.281  26.162   2.743
84320W        W56668  31.956  32.964   1.815
84321W        W56669  15.134  25.189  11.099
84322W        W56670  27.995   3.293   3.766
84323W        W56671  11.263   3.447  13.354
84324W        W56672  17.765  40.039  14.028
84325W        W56673  37.524  24.528  13.055
84326W        W56674  26.094  34.557   2.294
84327W        W56675  10.666  26.006   0.955
84328W        W56676  33.583  33.933   5.289
84329W        W56677  30.981  38.551  11.031
84330W        W56678   1.846  40.924  13.320
84331W        W56679  41.947  38.939   0.869
84332W        W56680  10.266  37.440   4.790
84333W        W56681   9.714  30.016  13.960
84334W        W56682  44.267  33.065  10.902
84335W        W56683  39.376  13.179   2.213
84336W        W56684  33.031  10.718  13.814
84337W        W56685  19.748   8.814   0.965
84338W        W56686  16.137   3.943  12.958
84339W        W56687  34.550  32.605  13.025
84340W        W56688   7.184   1.876   4.168
84341W        W56689  12.817   3.247   4.307
84342W        W56690   7.888  40.021   3.230
84343W        W56691  36.980   1.942   4.324
84344W        W56692   9.761  37.499   1.223
84345W        W56693   8.711  41.360  11.454
84346W        W56694  44.476  27.091   4.351
84347W        W56695  22.698  17.176  11.915
84348W        W56696  38.907  26.471   5.092
84349W        W56697   9.767  36.514  10.526
84350W        W56698   6.801  37.383  10.541
84351W        W56699  12.828  39.370   1.409
84352W        W56700  12.837   0.825   3.157
84353W        W56701  30.659   7.301  10.927
84354W        W56702   9.704  13.689   2.852
84355W        W56703   8.734  13.845   0.765
84356W        W56704   8.761  25.479   1.441
84357W        W56705   3.286  25.683   3.343
84358W        W56706  43.512   7.225   4.794
84359W        W56707  23.187   7.177   2.757
84360W        W56708  33.390  39.392   3.680
84361W        W56709   7.777  22.152   3.784
84362W        W56710  40.824  15.682   1.796
84363W        W56711  41.528  34.574   0.265
84364W        W56712  19.556  28.450   4.126
84365W        W56713  17.639   4.811   0.426
84366W        W56714  21.060   3.907   1.416
84367W        W56715   4.814  20.630   1.759
84368W        W56716  19.277  33.987  14.827
84369W        W56717  33.419  28.618   0.921
84370W        W56718  42.004  29.002   3.824
84371W        W56719  31.444  26.545  13.441
84372W        W56720   7.808  35.368   1.222
84373W        W56721   4.267  31.476  11.429
84374W        W56722  41.842  21.755  11.875
84375W        W56723  32.940  42.318   2.187
84376W        W56724  28.570   1.256  14.859
84377W        W56725  38.965  33.434  11.092
84378W        W56726  32.569  40.909  11.552
84379W        W56727  20.625   1.819  13.517
84380W        W56728  19.633   5.698   0.252
84381W        W56729  39.904  17.120   2.842
84382W        W56730  37.388  35.859   1.767
84383W        W56731  16.318  38.446   4.308
84384W        W56732  17.248  38.040  12.969
84385W        W56733   4.401  33.043  12.399
84386W        W56734   8.656  21.074   2.369
84387W        W56735  14.714   5.856  11.023
84388W        W56736  18.255  22.146   3.785
84389W        W56737  27.039  35.506  10.445
84390W        W56738  41.423  34.985  11.912
84391W        W56739   8.349  27.584   3.207
84392W        W56740  23.720  19.263  13.010
84393W        W56741  18.663   8.242   4.703
84394W        W56742  11.226  32.127   4.335
84395W        W56743  40.966  44.989  13.013
84396W        W56744  19.741  18.551   1.425
84397W        W56745   9.729  15.736   0.257
84398W        W56746  44.836   9.331  10.928
84399W        W56747  38.399  40.397   3.207
84400W        W56748  16.802  35.552   4.148
84401W        W56749  31.519  26.049   4.183
84402W        W56750  11.361  16.777  11.524
84403W        W56751  31.634  30.936   2.883
84404W        W56752   3.815   8.781  10.603
84405W        W56753  13.643  14.700  11.423
84406W        W56754  21.631  15.704   2.781
84407W        W56755  11.313  37.990  12.910
84408W        W56756  39.459  42.011  12.075
84409W        W56757   6.422  18.237  11.885
84410W        W56758   7.193   9.276   3.674
84411W        W56759  22.027  39.520   2.393
84412W        W56760  21.528   7.740  14.923
84413W        W56761  11.204  34.439   3.663
84414W        W56762  31.638  38.403   1.695
84415W        W56763  14.221   1.293  12.858
84416W        W56764  33.556  15.631   1.260
84417W        W56765  18.677  22.725  13.023
84418W        W56766   2.342   2.363   3.181
84419W        W56767  36.434  17.610  13.800
84420W        W56768  35.542  33.018  13.002
84421W        W56769  29.972  22.072  11.550
84422W        W56770  26.192  10.771   1.850
84423W        W56771  43.965  25.972   4.291
84424W        W56772  25.517  35.552   4.823
84425W        W56773  30.496  41.826  11.084
84426W        W56774  25.700   0.762  13.968
84427W        W56775  29.938  22.706  13.932
84428W        W56776  35.430  40.338  12.571
84429W        W56777  24.113  36.430  11.983
84430W        W56778  21.109  34.928   4.616
84431W        W56779   2.260  11.198   2.844
84432W        W56780  39.064  42.980   0.354
84433W        W56781  37.360  34.488   1.231
84434W        W56782  27.667  17.654  14.475
84435W        W56783   1.393  31.411   1.217
84436W        W56784  44.270   3.816  10.573
84437W        W56785   2.335   9.330  10.486
84438W        W56786  15.197  19.155  10.504
84439W        W56787  38.057  42.382   0.862
84440W        W56788  16.752  35.540   4.631
84441W        W56789   2.915   5.288   1.810
84442W        W56790  44.876  40.546  13.844
84443W        W56791   0.475   9.209  11.451
84444W        W56792  29.002  16.086  10.922
84445W        W56793  39.049  34.094   4.228
84446W        W56794   4.255  31.974  13.513
84447W        W56795  23.580  11.825  14.786
84448W        W56796  42.929  21.556  13.433
84449W        W56797  42.308  29.042  11.609
84450W        W56798  13.162   9.807   2.711
84451W        W56799  40.018   9.271  10.924
84452W        W56800  32.575   7.811   4.729
84453W        W56801  15.756  35.591  14.941
84454W        W56802   2.889   1.456  10.442
84455W        W56803   8.343   2.337   1.891
84456W        W56804  14.737  22.062  12.077
84457W        W56805  37.997   8.883   4.224
84458W        W56806  27.027  33.004   2.198
84459W        W56807  12.307   8.196   0.441
84460W        W56808  39.027   4.727  10.068
84461W        W56809  14.097  33.879   3.651
84462W        W56810  43.402  39.458  11.968
84463W        W56811  20.182  30.099   4.147
84464W        W56812  25.643  32.954  10.910
84465W        W56813  10.213  25.969   9.967
84466W        W56814  38.327   9.169  11.487
84467W        W56815  20.743  39.515  13.794
84468W        W56816  28.078   2.471   3.794
84469W        W56817  27.042   9.744   0.266
84470W        W56818  25.588  32.978  10.421
84471W        W56819   7.211  20.587  10.453
84472W        W56820   2.267  14.255   1.388
84473W        W56821  36.572  26.464  13.994
84474W        W56822  12.152  13.117   0.468
84475W        W56823  37.339  38.400  14.961
84476W        W56824  30.436  38.878  11.435
84477W        W56825  24.063  35.872  13.870
84478W        W56826   2.952  35.918   3.682
84479W        W56827  42.315   2.922  14.916
84480W        W56828  10.145  23.731  13.895
84481W        W56829  19.144  29.986  12.947
84482W        W56830  40.814   9.242   1.369
84483W        W56831   2.929  39.483   4.351
84484W        W56832   1.355  44.875  14.795
84485W        W56833  10.192  39.908  13.442
84486W        W56834  41.346  43.395  13.422
84487W        W56835  11.849  19.139   1.879
84488W        W56836  33.618   0.848   4.826
84489W        W56837  25.502  11.369  11.122
84490W        W56838   2.290  19.614   2.336
84491W        W56839   8.782  11.135   4.208
84492W        W56840  36.884   2.433  14.459
84493W        W56841  35.968  10.356   1.842
84494W        W56842  34.015  41.840  14.997
84495W        W56843  42.017  32.941  12.436
84496W        W56844  14.144   2.247  11.588
84497W        W56845  10.849  42.521   0.753
84498W        W56846   4.803  20.669   0.828
84499W        W56847  19.045  34.474  14.803
84500W        W56848  19.267   3.336  11.460
84501W        W56849   1.462   5.845  14.935
84502W        W56850  43.418  24.099  12.530
84503W        W56851  20.067  35.048   3.310
84504W        W56852  27.568   2.744   1.374
84505W        W56853  10.311  13.186  12.404
84506W        W56854  15.745  23.005  11.447
84507W        W56855  27.967   0.756   1.925
84508W        W56856   1.480  44.976  12.487
84509W        W56857  30.473  29.015  11.488
84510W        W56858  10.686  30.917   0.450
84511W        W56859  14.751  16.082   2.327
84512W        W56860  40.466  25.582   3.198
84513W        W56861  10.716  30.580   1.224
84514W        W56862  30.436   4.287   2.753
84515W        W56863  17.616  37.361  10.412
84516W        W56864  35.901  20.077   5.214
84517W        W56865  24.520   0.300  10.896
84518W        W56866  11.352  33.482   0.462
84519W        W56867  42.942   7.773  14.804
84520W        W56868   8.163  12.225  11.087
84521W        W56869  36.988   6.876  12.874
84522W        W56870   3.350  19.232  14.949
84523W        W56871  44.373  10.370   3.750
84524W        W56872  32.966  14.337   0.356
84525W        W56873  43.507  41.846  12.989
84526W        W56874  36.485   2.959   4.245
84527W        W56875   6.709  11.753  12.470
84528W        W56876  35.924  11.240  11.122
84529W        W56877  10.167  18.700  10.534
84530W        W56878  33.455  20.608   0.299
84531W        W56879  44.310  24.630   4.212
84532W        W56880  13.114  15.162   4.263
84533W        W56881  35.050  11.166   3.255
84534W        W56882  37.947  23.172  11.098
84535W        W56883  20.748  23.734  11.922
84536W        W56884  14.300  24.990  10.920
84537W        W56885  33.520  12.238  13.003
84538W        W56886  14.790  11.644  14.961
84539W        W56887  10.197   1.793  12.097
84540W        W56888  16.792  26.620   1.793
84541W        W56889   1.355  28.651   4.171
84542W        W56890  15.123  33.437  11.479
84543W        W56891  10.284   5.837  14.371
84544W        W56892  42.963  26.699  12.569
84545W        W56893  31.402  12.360   3.324
84546W        W56894  41.897  41.417  13.374
84547W        W56895  10.793   3.284   1.313
84548W        W56896   7.823  19.153   1.387
84549W        W56897  23.506  33.555   4.659
84550W        W56898  24.093  27.957   2.242
84551W        W56899  39.315  12.752  14.287
84552W        W56900  30.118  39.537   4.622
84553W        W56901   9.312  24.174  10.968
84554W        W56902  11.194  29.010   2.685
84555W        W56903  40.315  26.167   0.846
84556W        W56904  38.893  23.687   1.438
84557W        W56905   6.752  28.133   3.843
84558W        W56906  22.717  43.981  10.579
84559W        W56907  12.822  11.862  13.853
84560W        W56908  41.895  33.875  13.387
84561W        W56909   8.761  42.315   4.733
84562W        W56910  21.061  11.162  10.005
84563W        W56911  10.751  41.422  12.900
84564W        W56912   4.308  35.577  11.594
84565W        W56913  38.465  31.930  13.487
84566W        W56914  15.636  39.555   4.230
84567W        W56915  30.547  10.171  11.543
84568W        W56916  37.467  38.001  14.513
84569W        W56917   0.358  41.438   1.729
84570W        W56918  23.022  43.947   4.780
84571W        W56919   6.819  23.654  13.970
84572W        W56920   5.273  26.113  13.382
84573W        W56921  30.508  17.213   3.848
84574W        W56922  42.326  14.316   0.922
84575W        W56923  22.684  10.190  12.072
84576W        W56924   9.261  42.807   0.313
84577W        W56925  10.319  17.762  12.092
84578W        W56926  30.511   4.345  13.382
84579W        W56927  28.042  33.900   0.337
84580W        W56928  41.947   9.247   2.369
84581W        W56929  14.320   5.906  10.960
84582W        W56930  22.722  16.607   3.640
84583W        W56931   8.787   8.867   2.795
84584W        W56932   8.220  31.960  11.995
84585W        W56933  30.641  35.963  14.502
84586W        W56934  37.456  33.530   2.810
84587W        W56935   0.748  36.896   0.305
84588W        W56936  19.698  15.766  11.996
84589W        W56937  39.898   2.927   2.410
84590W        W56938  27.642  32.990  10.952
84591W        W56939  10.265  14.730   1.445
84592W        W56940   2.732  11.195   4.117
84593W        W56941  34.091   0.958  13.535
84594W        W56942  24.549  30.930   0.441
84595W        W56943   3.271  41.400  11.964
84596W        W56944   9.885  37.936  13.961
84597W        W56945  16.272  12.257   9.659
84598W        W56946  38.503   1.279  12.972
84599W        W56947  37.563   7.683   3.714
84600W        W56948  36.511  15.133  12.512
84601W        W56949   9.711  24.005  11.497
84602W        W56950  23.568  31.999   0.250
84603W        W56951  41.366  22.029   3.300
84604W        W56952  43.005  21.078  10.465
84605W        W56953  32.596  33.492  13.521
84606W        W56954  10.809   8.319  13.420
84607W        W56955  25.185   2.354   3.712
84608W        W56956  38.979  40.509   2.209
84609W        W56957  12.281  42.442  14.358
84610W        W56958  16.303  41.888  12.861
84611W        W56959  22.534  34.993   0.395
84612W        W56960  32.403  21.163  13.458
84613W        W56961  30.031  12.724  12.090
84614W        W56962  31.906   5.196  14.795
84615W        W56963  30.562   3.938   3.741
84616W        W56964  18.163  25.571   1.377
84617W        W56965  13.223  11.165   0.901
84618W        W56966  39.811  22.624   0.820
84619W        W56967  33.088  31.451  13.548
84620W        W56968  12.346  42.834  13.951
84621W        W56969  21.041  35.533  13.455
84622W        W56970  21.731  43.949  13.384
84623W        W56971  15.673  11.228   2.677
84624W        W56972  17.107  32.958   2.311
84625W        W56973   1.878  26.133   2.779
84626W        W56974  37.367  19.606   0.298
84627W        W56975   4.267  37.018   4.599
84628W        W56976  24.513   1.414  14.496
84629W        W56977  24.627   3.768   0.389
84630W        W56978  40.335  12.676   2.323
84631W        W56979   5.908  22.615  11.942
84632W        W56980  35.912   4.262   4.651
84633W        W56981  23.093  36.410  14.809
84634W        W56982  38.045  18.187   1.257
84635W        W56983  35.104  39.993  13.837
84636W        W56984  25.618  35.489   1.437
84637W        W56985  21.706  41.516   3.147
84638W        W56986   5.762  42.925   2.736
84639W        W56987  30.121   5.781  12.965
84640W        W56988  19.212  42.921   2.750
84641W        W56989  19.735  14.111   5.289
84642W        W56990   2.233   3.767  14.812
84643W        W56991  30.428  43.869  11.435
84644W        W56992  33.018   4.407  12.994
84645W        W56993  23.580  38.954  14.956
84646W        W56994  11.762  17.116   1.334
84647W        W56995  16.290  21.052   4.723
84648W        W56996  29.494  15.625  11.874
84649W        W56997  38.858  31.153   1.772
84650W        W56998   7.794  30.136  14.846
84651W        W56999  26.113  20.549  12.498
84652W        W57000   3.912  39.436  14.469
84653W        W57001  21.213  33.495  10.430
84654W        W57002  11.747   8.843   0.902
84655W        W57003  23.614  33.125  14.856
84656W        W57004  44.408  37.860  14.765
84657W        W57005  16.744  33.547  12.393
84658W        W57006  15.274  31.499   3.780
84659W        W57007  32.557  35.031  14.326
84660W        W57008   6.693  40.360  14.968
84661W        W57009  11.134  36.940  14.824
84662W        W57010   9.335  23.178   5.802
84663W        W57011  13.777   2.900  14.337
84664W        W57012  35.584  19.671   0.372
84665W        W57013  36.965  24.600  11.882
84666W        W57014  10.697  14.158   2.336
84667W        W57015   0.328   2.400   4.186
84668W        W57016  20.267   9.644  13.862
84669W        W57017  23.659  26.135   3.199
84670W        W57018  31.967   6.205  14.516
84671W        W57019  44.334   5.910   1.274
84672W        W57020  37.031  10.182   3.180
84673W        W57021  18.621  14.314   1.700
84674W        W57022  41.396   3.422   1.799
84675W        W57023  34.889  41.988   3.321
84676W        W57024   4.252  30.480  11.072
84677W        W57025   6.367  22.563   2.677
84678W        W57026  26.136  26.491   3.706
84679W        W57027  25.569  10.283  13.960
84680W        W57028  16.269  36.364  13.383
84681W        W57029  38.538  33.878  12.053
84682W        W57030  19.769  39.827  11.899
84683W        W57031  30.534   2.805  14.900
84684W        W57032  20.767  10.646  11.421
84685W        W57033  30.114  26.616   1.854
84686W        W57034  18.654  28.988   5.220
84687W        W57035   8.691  34.456   1.357
84688W        W57036  42.461  12.614  11.123
84689W        W57037  35.901  32.929   1.779
84690W        W57038  23.491  43.410   4.603
84691W        W57039  31.958  18.187  10.619
84692W        W57040   9.759  32.912   0.287
84693W        W57041  40.513  33.487  12.418
84694W        W57042  26.614   3.365   4.608
84695W        W57043  12.325  22.706   1.847
84696W        W57044  44.874   7.677   2.804
84697W        W57045  17.265  42.786  10.628
84698W        W57046  35.001   9.231  11.990
84699W        W57047  28.581  24.612   1.763
84700W        W57048  38.822   7.862  12.922
84701W        W57049  15.615  19.544  11.952
84702W        W57050  31.936  28.059   0.792
84703W        W57051  36.062  14.625  11.602
84704W        W57052  28.970  42.899   2.333
84705W        W57053  16.796   8.683  11.946
84706W        W57054  28.485  10.866   4.135
84707W        W57055  13.190  31.643  12.937
84708W        W57056  16.301   7.706  10.600
84709W        W57057  33.609  42.784   4.200
84710W        W57058  21.753  40.548  12.935
84711W        W57059  18.594  25.692  13.334
84712W        W57060   6.384  24.549  12.037
84713W        W57061  12.195  12.633   0.260
84714W        W57062  27.111  11.247  10.433
84715W        W57063  37.487   2.851  12.520
84716W        W57064   5.819  11.371   0.793
84717W        W57065  20.559  15.734  10.898
84718W        W57066  33.399  40.431  13.039
84719W        W57067  24.507  36.087  11.456
84720W        W57068   0.445   2.390  10.980
84721W        W57069  18.730   9.213   0.414
84722W        W57070  22.555  10.341   0.393
84723W        W57071  41.530  22.512  12.539
84724W        W57072  18.562  35.502  13.469
84725W        W57073  27.962  44.978   1.323
84726W        W57074  13.790  13.257  12.509
84727W        W57075  44.465  13.811   0.762
84728W        W57076  30.414   0.783   0.884
84729W        W57077   3.390   4.719  13.497
84730W        W57078  24.187  12.674  11.419
84731W        W57079  43.921   0.484   4.268
84732W        W57080  12.254   8.404   1.384
84733W        W57081  16.769  24.716   1.880
84734W        W57082  44.815  33.547   0.848
84735W        W57083  40.470  19.555  13.816
84736W        W57084  34.565   1.386   2.889
84737W        W57085  34.601  10.827  10.526
84738W        W57086   9.679  42.397   1.792
84739W        W57087  15.116  25.140  12.889
84740W        W57088  24.027  34.115  14.964
84741W        W57089  31.468  17.797   3.813
84742W        W57090  11.746  23.154  13.915
84743W        W57091  30.150  29.157  12.575
84744W        W57092  43.895  20.723   4.190
84745W        W57093  34.518  42.488  13.955
84746W        W57094  35.098  41.018  14.843
84747W        W57095   0.350  24.514  14.421
84748W        W57096  15.809  39.392  11.406
84749W        W57097   2.735  19.581  13.034
84750W        W57098  33.526  11.149   3.370
84751W        W57099  21.138  44.348   2.769
84752W        W57100  31.017  15.323   1.303
84753W        W57101   3.868   9.786   3.703
84754W        W57102  43.308  29.605  11.017
84755W        W57103  32.944  38.968  14.452
84756W        W57104  13.709  44.390   3.645
84757W        W57105  11.730  41.341  12.493
84758W        W57106  40.458   0.395   1.214
84759W        W57107   0.278  10.187  14.997
84760W        W57108  39.483  14.111   3.783
84761W        W57109  34.410  28.017   4.131
84762W        W57110  30.039  17.609   2.765
84763W        W57111  43.825  33.524   1.227
84764W        W57112  25.574  33.030  11.448
84765W        W57113  38.969   8.658   3.197
84766W        W57114   9.298  39.901  11.521
84767W        W57115   9.867  36.873  12.516
84768W        W57116  34.505   4.863   2.360
84769W        W57117  19.725  22.543   0.769
84770W        W57118  22.123   3.452   2.735
84771W        W57119  26.061   0.277  12.013
84772W        W57120  31.962  34.402   0.796
84773W        W57121  44.007  11.772   2.800
84774W        W57122  29.989  23.222  13.983
84775W        W57123  27.572  38.936  13.515
84776W        W57124  36.886  22.619   3.635
84777W        W57125  30.457  24.178   2.782
84778W        W57126  34.607  27.188  13.862
84779W        W57127   8.685   9.865  14.936
84780W        W57128  13.744   5.219  11.006
84781W        W57129  30.488   7.171   2.671
84782W        W57130  44.318  39.909  10.926
84783W        W57131  15.596  21.032  13.423
84784W        W57132  11.801  44.266   1.218
84785W        W57133  35.957  20.117   1.744
84786W        W57134  21.663  24.663   3.763
84787W        W57135  18.217  20.167  14.884
84788W        W57136  38.976   3.739  12.471
84789W        W57137   9.189  11.858  12.850
84790W        W57138  13.255  22.742   1.330
84791W        W57139   4.262  10.371   0.455
84792W        W57140  34.048  23.531  13.370
84793W        W57141   9.311  15.614  13.036
84794W        W57142  27.088  19.106   4.818
84795W        W57143  43.284  36.937  14.018
84796W        W57144   7.343  40.424   1.935
84797W        W57145  22.114   9.834   0.305
84798W        W57146   5.396   8.233   1.272
84799W        W57147  40.958  39.434   3.234
84800W        W57148  30.607   8.262  10.140
84801W        W57149   2.835  14.296  11.485
84802W        W57150  17.713  32.926   2.249
84803W        W57151  35.036  15.707  13.427
84804W        W57152  34.498  21.216  13.313
84805W        W57153   3.321   8.234   3.355
84806W        W57154  33.069  43.865  14.379
84807W        W57155  38.368  39.924  11.913
84808W        W57156  24.579  21.738  14.828
84809W        W57157  30.960  10.877   3.761
84810W        W57158  34.589  32.036  12.057
84811W        W57159   4.759  21.661   5.312
84812W        W57160  21.140  16.764  10.542
84813W        W57161   2.732   8.706  10.982
84814W        W57162  35.398  25.671  10.895
84815W        W57163  23.596  36.457  10.463
84816W        W57164  35.932   8.789   1.819
84817W        W57165  23.191   6.791  11.954
84818W        W57166  14.742  31.992  10.979
84819W        W57167  11.696  12.219  14.461
84820W        W57168  17.292  22.523   2.732
84821W        W57169   2.905  16.769   0.475
84822W        W57170   3.903  39.861   2.886
84823W        W57171  13.792  33.983  12.542
84824W        W57172   3.284  27.046   3.672
84825W        W57173  13.823  25.178  13.935
84826W        W57174   9.243  11.866  12.086
84827W        W57175  25.664  27.528  13.331
84828W        W57176  32.929  24.178   1.787
84829W        W57177  39.327   1.257   4.832
84830W        W57178  42.910   4.440  13.790
84831W        W57179   9.390  19.713  13.811
84832W        W57180  37.396  41.814   5.233
84833W        W57181  38.564  38.973   3.744
84834W        W57182  12.361  11.354   0.302
84835W        W57183   6.918  24.020  13.050
84836W        W57184  19.659  32.987  11.937
84837W        W57185  38.368  35.023  14.889
84838W        W57186  39.035  21.699   1.270
84839W        W57187  20.042  11.768   0.879
84840W        W57188   8.679  13.831  10.587
84841W        W57189  12.657  27.115  10.419
84842W        W57190  37.034  13.617   2.707
84843W        W57191  27.528  38.485  12.504
84844W        W57192  21.614  30.426  10.620
84845W        W57193  18.706  28.099   3.221
84846W        W57194  13.784  19.283   0.464
84847W        W57195   0.419  43.387   4.620
84848W        W57196   7.304  31.056   5.178
84849W        W57197  12.130   7.295   4.613
84850W        W57198   2.843   8.333   2.675
84851W        W57199  19.171   4.357  11.069
84852W        W57200   4.810  33.537  12.346
84853W        W57201  21.680  12.761   5.300
84854W        W57202  39.400  35.067  10.446
84855W        W57203   4.387   1.872  13.519
84856W        W57204  27.596   2.871   3.274
84857W        W57205  15.264   4.717   0.866
84858W        W57206  12.638  19.549   3.837
84859W        W57207  27.089  26.150  13.056
84860W        W57208  20.100  39.038  10.096
84861W        W57209  41.804   2.461  14.481
84862W        W57210  38.376  22.512   3.788
84863W        W57211  19.132  10.742   1.722
84864W        W57212  34.118   5.722   0.357
84865W        W57213  38.396  36.069  10.439
84866W        W57214  31.054  24.074   0.392
84867W        W57215   3.794  39.415   1.833
84868W        W57216  39.420  40.398  12.466
84869W        W57217  31.141   4.285  12.874
84870W        W57218  26.084  10.374   3.700
84871W        W57219   9.354  41.373  10.572
84872W        W57220   6.915  35.521   2.819
84873W        W57221  37.479  21.127  14.959
84874W        W57222  10.296  41.856   0.436
84875W        W57223  27.023  12.766   5.141
84876W        W57224  39.387   2.862  14.424
84877W        W57225  29.435  25.527  14.446
84878W        W57226  41.962  33.517  14.371
84879W        W57227   4.919  39.842  12.982
84880W        W57228   6.350  41.432   1.932
84881W        W57229  43.316  41.481   4.344
84882W        W57230  15.649  17.575  11.071
84883W        W57231  33.954  21.121  11.095
84884W        W57232  41.494  36.088  10.457
84885W        W57233  28.528  32.619   0.847
84886W        W57234  37.837  20.716   4.696
84887W        W57235  20.686  39.827  10.564
84888W        W57236   9.337  19.546   4.161
84889W        W57237  29.094  25.694   0.915
84890W        W57238  26.639  41.036   4.331
84891W        W57239  27.084  25.135  13.346
84892W        W57240  43.890  23.490   1.752
84893W        W57241  34.408   4.332  12.089
84894W        W57242  42.798  14.239  10.103
84895W        W57243  20.208  20.114  13.384
84896W        W57244   8.331   4.859   4.225
84897W        W57245  29.970  38.855  10.420
84898W        W57246  29.155  23.027   4.248
84899W        W57247  37.837  20.721   3.289
84900W        W57248  31.921  24.623  13.480
84901W        W57249   4.933  43.402   2.250
84902W        W57250  25.556   8.693   2.216
84903W        W57251  36.438  25.983   4.221
84904W        W57252  12.265  27.487  10.916
84905W        W57253  34.912  27.557  12.959
84906W        W57254  23.005  32.564   4.301
84907W        W57255   1.258  13.844  14.929
84908W        W57256  20.750  31.076   3.713
84909W        W57257  34.956  20.660   0.414
84910W        W57258  18.154  16.644  10.632
84911W        W57259  41.909  43.831  12.024
84912W        W57260  38.858  17.281  11.591
84913W        W57261   5.254  18.205   0.268
84914W        W57262  13.124  35.929   1.781
84915W        W57263   6.354  34.901  11.867
84916W        W57264   3.876  17.302   4.249
84917W        W57265  21.558  17.170  13.503
84918W        W57266  17.744   4.278   2.808
84919W        W57267  30.418  24.587   3.380
84920W        W57268  17.684  33.437  12.923
84921W        W57269  30.655  37.884   0.289
84922W        W57270   1.923   2.886  12.467
84923W        W57271  15.308  32.608   3.662
84924W        W57272  44.387  29.589   1.890
84925W        W57273  32.093  42.502   2.413
84926W        W57274  10.841   4.342   4.690
84927W        W57275  25.025  34.582  14.978
84928W        W57276  39.049   5.351  12.937
84929W        W57277   7.209  22.541   0.790
84930W        W57278  13.795  36.365   2.828
84931W        W57279  32.559  16.614  11.980
84932W        W57280  19.228  25.168  14.878
84933W        W57281  41.446   8.781  13.406
84934W        W57282  20.687   1.238  14.812
84935W        W57283  29.531   4.797   3.679
84936W        W57284  44.344  14.669   4.622
84937W        W57285  44.440  11.735   4.168
84938W        W57286  40.847  28.039  12.902
84939W        W57287  30.971  12.329   4.339
84940W        W57288  28.156  39.449  13.939
84941W        W57289  29.581  10.252   9.984
84942W        W57290   0.880  10.344   4.682
84943W        W57291   2.272  28.078  12.961
84944W        W57292  29.475  41.430  12.495
84945W        W57293  18.755  19.122  10.569
84946W        W57294  14.613   5.815   1.227
84947W        W57295  41.342   4.900  10.602
84948W        W57296  35.867  30.960  12.576
84949W        W57297  40.961  32.532  13.370
84950W        W57298  26.038   7.200   0.752
84951W        W57299   7.777  14.815   0.315
84952W        W57300  43.434  12.150  12.926
84953W        W57301  37.995  29.968  13.486
84954W        W57302  11.827  38.340  13.317
84955W        W57303   0.847   0.491  12.960
84956W        W57304  40.432  11.826   1.752
84957W        W57305  10.712  30.519   5.293
84958W        W57306  27.042   1.293   1.312
84959W        W57307  36.526  12.262   3.857
84960W        W57308   3.759   8.706  12.899
84961W        W57309   1.788  41.040   3.748
84962W        W57310  16.607  12.822   1.375
84963W        W57311  44.959   0.307   3.864
84964W        W57312  35.058  43.349  11.418
84965W        W57313  28.089  13.283  14.383
84966W        W57314  25.694  34.603  14.439
84967W        W57315  17.269  34.874   2.365
84968W        W57316  29.634  32.940   0.741
84969W        W57317  16.186  39.005  13.021
84970W        W57318  30.134   4.943  13.898
84971W        W57319  18.648  30.023   3.244
84972W        W57320   1.862   6.364   4.339
84973W        W57321  37.048  44.364  10.930
84974W        W57322  17.066   8.719  13.821
84975W        W57323   5.759  12.701   3.351
84976W        W57324  27.086   0.438   1.794
84977W        W57325  10.690  31.956   0.424
84978W        W57326   0.486  43.360   3.319
84979W        W57327  36.489  11.710  10.511
84980W        W57328   3.284  15.164  10.555
84981W        W57329  40.011   3.762   4.285
84982W        W57330  17.172  31.999   2.701
84983W        W57331   2.755  35.452  12.449
84984W        W57332  44.354  25.083   1.381
84985W        W57333  18.655  30.545  12.470
84986W        W57334  36.923  21.587   2.200
84987W        W57335   4.757  38.387   2.729
84988W        W57336  36.866   3.777  10.892
84989W        W57337   7.881  26.179   0.348
84990W        W57338  36.931   1.470  14.929
84991W        W57339  41.010  26.672   0.344
84992W        W57340   0.939  33.976   1.278
84993W        W57341  20.123  18.120  11.952
84994W        W57342  42.434   5.765   1.928
84995W        W57343  11.697  31.104   1.740
84996W        W57344  35.479  33.037   3.644
84997W        W57345   7.288  13.153  14.461
84998W        W57346  42.921   5.866  13.446
84999W        W57347  33.574  41.018  10.512
85000W        W57348  29.081  19.557   3.775
85001W        W57349  12.791   0.370  11.392
85002W        W57350  32.914   4.253  14.476
85003W        W57351   3.844   2.818   0.371
85004W        W57352  21.637   1.270   1.804
85005W        W57353  13.728  43.837   1.342
85006W        W57354  11.834  12.663   2.775
85007W        W57355  21.153  26.973   1.420
85008W        W57356  31.475   7.304  10.418
85009W        W57357  29.471   2.447  13.884
85010W        W57358  29.626  19.218   0.901
85011W        W57359  19.672  44.897   3.721
85012W        W57360  29.621  43.799   4.192
85013W        W57361  23.005  17.145  13.348
85014W        W57362  44.407  32.446  13.310
85015W        W57363  43.428  34.110  10.972
85016W        W57364  34.065  17.177  14.354
85017W        W57365  30.032  40.039   4.326
85018W        W57366   3.329   0.872  11.922
85019W        W57367  24.988  43.408  10.406
85020W        W57368  21.174  41.803   4.116
85021W        W57369  20.604  37.075  11.474
85022W        W57370  32.996   0.366  11.883
85023W        W57371  27.687  42.017   3.313
85024W        W57372  10.671  24.136   0.384
85025W        W57373  28.607  43.333   4.208
85026W        W57374  43.924  18.694  12.463
85027W        W57375  12.787  21.697  13.339
85028W        W57376  44.355   8.766  14.854
85029W        W57377   2.390  41.843  13.842
85030W        W57378  15.131   3.927  14.005
85031W        W57379  42.938   6.327   4.816
85032W        W57380   0.834  40.406  10.949
85033W        W57381   6.316  36.562   1.907
85034W        W57382  31.570  15.724   1.254
85035W        W57383   2.384  26.580  14.819
85036W        W57384  29.434   7.197   3.175
85037W        W57385  24.517  34.584  12.831
85038W        W57386  15.635  36.063  14.972
85039W        W57387   0.385  29.463  13.015
85040W        W57388  25.217  26.155   0.261
85041W        W57389  36.934  14.795  13.364
85042W        W57390  27.461  10.277   4.695
85043W        W57391   1.908  18.203   2.676
85044W        W57392   8.719  40.468   3.349
85045W        W57393   0.366  18.656  13.814
85046W        W57394  24.227  17.618   1.330
85047W        W57395  42.326  25.027  10.483
85048W        W57396  15.814   7.781   1.775
85049W        W57397   0.479  18.722  11.422
85050W        W57398   3.429  10.837   0.933
85051W        W57399  14.794  24.189   3.800
85052W        W57400  33.921  17.680   1.277
85053W        W57401   8.890   5.776  13.415
85054W        W57402  42.289   4.852   0.919
85055W        W57403   0.456   8.864   2.896
85056W        W57404  39.412   6.694   9.944
85057W        W57405  30.518   3.398  11.965
85058W        W57406  19.052   8.257  13.814
85059W        W57407  22.086  25.510  12.083
85060W        W57408   5.333   8.378   1.776
85061W        W57409   8.187  13.738   1.234
85062W        W57410  34.465  30.962  10.991
85063W        W57411   2.857  26.484   3.233
85064W        W57412  26.110  32.590   1.726
85065W        W57413   0.765  16.278  10.639
85066W        W57414  43.412  32.041  10.590
85067W        W57415   0.881  40.861  13.493
85068W        W57416  39.025  22.997  14.824
85069W        W57417  26.187  42.427  11.014
85070W        W57418   8.243   1.839   4.712
85071W        W57419  13.738  14.592  13.995
85072W        W57420  44.409  12.628   3.257
85073W        W57421   5.310  23.663   2.237
85074W        W57422  16.205  24.975   3.716
85075W        W57423   9.160  30.624   4.771
85076W        W57424  18.573  42.831  12.339
85077W        W57425   9.878  26.012   0.313
85078W        W57426  15.628  15.189   4.343
85079W        W57427  12.856  16.635  13.505
85080W        W57428  36.348   4.864  11.386
85081W        W57429   7.319  42.996  14.443
85082W        W57430  42.891  36.886   1.823
85083W        W57431  19.235  18.765   2.815
85084W        W57432  13.167  19.745  12.065
85085W        W57433  10.710  44.302  13.362
85086W        W57434   9.694  22.098   1.318
85087W        W57435   9.656  20.117  10.444
85088W        W57436   9.364   0.821   1.846
85089W        W57437  27.027   6.781  11.916
85090W        W57438   9.261   5.826  13.470
85091W        W57439  19.091   9.776   3.667
85092W        W57440   6.852  20.723   2.872
85093W        W57441  40.524  41.370  12.934
85094W        W57442  12.225   7.255  10.441
85095W        W57443  22.089  43.931   2.313
85096W        W57444   4.804   1.882  14.967
85097W        W57445  11.158  42.408   0.410
85098W        W57446  36.843  13.121   2.258
85099W        W57447   8.377   4.420  12.046
85100W        W57448  27.643  12.335   4.227
85101W        W57449  21.665   8.866   4.274
85102W        W57450  40.841   7.245   3.691
85103W        W57451  42.812  36.091   2.179
85104W        W57452  21.044   7.383   1.846
85105W        W57453  34.029  23.174   0.841
85106W        W57454   5.918   6.418  14.025
85107W        W57455  28.642  40.956  12.458
85108W        W57456  42.507  31.085  12.011
85109W        W57457   4.754   6.278  13.818
85110W        W57458  23.080  37.985  11.459
85111W        W57459  39.861  29.666   4.679
85112W        W57460  38.404  14.196   4.139
85113W        W57461  30.600  39.508   4.776
85114W        W57462  41.349  28.569  14.415
85115W        W57463  31.028  25.590  10.604
85116W        W57464   7.853   0.938   1.738
85117W        W57465  30.068   3.332   4.836
85118W        W57466  41.790  14.727  12.043
85119W        W57467  34.005  27.065   1.869
85120W        W57468  14.635   5.327  10.418
85121W        W57469   6.266  32.598  12.827
85122W        W57470   0.751  26.616  11.858
85123W        W57471  38.380  43.374   1.210
85124W        W57472  14.131  18.646  14.289
85125W        W57473  33.091  25.525  14.830
85126W        W57474  26.592  18.143  10.528
85127W        W57475  37.492  37.935  12.464
85128W        W57476  14.318  36.852   2.781
85129W        W57477  28.660  27.090   2.766
85130W        W57478   8.773  22.620   4.741
85131W        W57479   4.808  44.875  10.485
85132W        W57480   1.464  34.019   0.483
85133W        W57481  27.575  38.478  14.766
85134W        W57482  21.730  38.877   1.791
85135W        W57483   9.713   7.413  14.958
85136W        W57484  21.178   0.788   0.942
85137W        W57485  29.166  11.167   1.891
85138W        W57486   7.326  21.139  10.133
85139W        W57487   4.344  12.853   3.707
85140W        W57488   1.731  27.122  12.428
85141W        W57489   9.150  26.583  10.634
85142W        W57490   3.759  26.490  13.545
85143W        W57491  20.750   7.259  11.453
85144W        W57492   1.364  17.688   4.766
85145W        W57493  36.881  30.417  12.379
85146W        W57494  43.495  13.149  10.464
85147W        W57495  18.227  30.519   3.377
85148W        W57496  35.057  40.025   2.682
85149W        W57497  44.934   6.383   2.355
85150W        W57498  31.898  12.631  12.455
85151W        W57499   7.178  19.214   2.686
85152W        W57500  11.348  40.826  13.934
85153W        W57501  29.433   4.416  13.840
85154W        W57502  16.605  43.021   4.145
85155W        W57503  19.669  21.721   2.369
85156W        W57504  13.171   7.217  12.061
85157W        W57505  15.211  31.567  14.972
85158W        W57506   1.267  20.188   2.241
85159W        W57507  33.438   8.196   3.828
85160W        W57508  21.081   1.968   2.272
85161W        W57509  36.900  19.779   4.723
85162W        W57510   6.247  13.643  12.507
85163W        W57511  36.471  22.062   0.258
85164W        W57512  26.206  21.129   3.358
85165W        W57513   3.891  41.016  11.052
85166W        W57514  38.371  37.361  10.926
85167W        W57515  31.601   0.869  13.888
85168W        W57516  22.178  22.121   1.719
85169W        W57517  33.120  23.075   2.186
85170W        W57518  26.637  44.486   4.347
85171W        W57519  19.722  23.587  14.796
85172W        W57520   5.407  44.415  10.971
85173W        W57521  13.821  13.311  14.389
85174W        W57522  39.421  40.404  12.904
85175W        W57523   6.827  42.306  12.039
85176W        W57524  10.840   0.291   1.917
85177W        W57525  42.402  12.154   4.781
85178W        W57526   3.809  36.416   2.880
85179W        W57527   7.906  15.606  14.974
85180W        W57528  44.343  25.686  10.986
85181W        W57529  40.947  32.104  14.030
85182W        W57530  15.313  27.036   2.872
85183W        W57531  33.119  13.224   0.785
85184W        W57532   8.276  37.378   3.373
85185W        W57533  27.606   9.208   1.789
85186W        W57534   0.863  31.054   3.214
85187W        W57535   9.796  18.250   1.818
85188W        W57536  19.642   2.386   1.700
85189W        W57537  21.094   1.959  13.432
85190W        W57538  39.019  13.171   3.867
85191W        W57539  33.516  16.656  14.865
85192W        W57540   9.223  37.496   4.756
85193W        W57541  26.166   8.678  11.045
85194W        W57542  30.029  38.547   2.835
85195W        W57543  26.026  40.321   2.732
85196W        W57544   8.806  37.038  12.038
85197W        W57545  38.995   3.956   2.365
85198W        W57546  44.304  14.291   0.948
85199W        W57547  17.215  15.251  10.494
85200W        W57548  24.535   3.868   4.318
85201W        W57549   9.353  38.059   4.218
85202W        W57550   7.679  16.311  10.438
85203W        W57551  39.431  16.603   3.717
85204W        W57552  34.938  44.502   4.321
85205W        W57553   6.195  36.007  12.522
85206W        W57554  39.056  41.903  12.525
85207W        W57555  25.526   5.329   3.211
85208W        W57556  23.730  12.304   3.374
85209W        W57557  10.375  20.732  14.028
85210W        W57558  29.461  18.594  14.293
85211W        W57559  38.894  35.940   1.769
85212W        W57560   7.268  23.625  14.875
85213W        W57561  14.166   0.811  14.845
85214W        W57562   6.736  14.096   1.828
85215W        W57563  23.111   6.700   2.892
85216W        W57564  35.874  34.439  13.958
85217W        W57565  39.406  35.932   4.217
85218W        W57566  14.184  13.831   0.298
85219W        W57567  23.688  20.190  12.864
85220W        W57568   3.789   5.848   0.346
85221W        W57569  31.905  15.641  12.953
85222W        W57570  41.832  29.504   0.300
85223W        W57571  14.272  36.927  11.389
85224W        W57572   4.764  41.456  13.032
85225W        W57573  30.916  24.556  11.082
85226W        W57574  21.020  25.115  12.375
85227W        W57575  35.413  30.415  14.788
85228W        W57576  44.469  35.517   0.430
85229W        W57577  28.589  32.585   0.350
85230W        W57578  17.784   8.285  12.361
85231W        W57579  19.057  31.923  10.081
85232W        W57580  12.335  27.448  13.459
85233W        W57581   3.383   7.292   0.306
85234W        W57582   8.297  12.199  11.938
85235W        W57583  39.485  13.671   2.395
85236W        W57584   5.809  38.433  10.523
85237W        W57585   4.448  40.805  12.852
85238W        W57586   4.812  29.607   3.734
85239W        W57587   1.867  16.082  13.894
85240W        W57588  40.336   1.482   2.200
85241W        W57589  34.926   2.793  14.807
85242W        W57590  12.223  33.976  14.467
85243W        W57591  33.548  27.545  13.427
85244W        W57592  10.693  13.173   0.767
85245W        W57593  13.287   0.480  14.974
85246W        W57594   5.353  38.827   3.780
85247W        W57595  36.578  31.144  11.475
85248W        W57596  36.997  33.088   2.894
85249W        W57597  14.706  16.761  12.980
85250W        W57598  31.136  19.212   0.886
85251W        W57599  30.529  36.048  13.470
85252W        W57600  41.979  25.120   9.943
85253W        W57601  39.417  41.445   0.280
85254W        W57602  37.068  10.717   1.264
85255W        W57603  23.058  37.947   4.661
85256W        W57604  32.523   4.764   3.631
85257W        W57605  14.701   6.789   2.798
85258W        W57606  20.263  22.585   2.785
85259W        W57607   8.228  13.655  10.898
85260W        W57608   1.809  25.002   4.129
85261W        W57609  44.379  35.468   4.237
85262W        W57610  24.686  33.594   0.915
85263W        W57611   9.831  34.920  14.796
85264W        W57612   6.710  38.457   0.288
85265W        W57613   2.319  34.454   3.179
85266W        W57614  42.353  36.845  10.636
85267W        W57615  10.140  41.380   4.224
85268W        W57616  24.201  38.069   1.882
85269W        W57617  44.276  44.777  14.499
85270W        W57618  40.037  33.577   4.704
85271W        W57619  44.344  12.857   1.377
85272W        W57620   5.846  32.013   4.611
85273W        W57621  12.181  19.780  11.490
85274W        W57622  19.765  26.542   5.085
85275W        W57623  14.719  35.879   2.383
85276W        W57624  40.499   5.740  12.083
85277W        W57625  39.404   7.708   2.228
85278W        W57626  33.554  39.525   0.853
85279W        W57627  21.103  27.055   0.887
85280W        W57628  12.758   6.423   5.175
85281W        W57629  36.018  35.447   3.864
85282W        W57630  36.355  16.730  12.094
85283W        W57631  31.011   0.423   1.773
85284W        W57632   3.900   9.789   2.805
85285W        W57633   9.255  13.636  10.478
85286W        W57634   8.779  41.452   3.700
85287W        W57635  18.778  13.739   4.655
85288W        W57636  16.692  14.325   5.091
85289W        W57637   2.304  26.102   3.634
85290W        W57638   8.403  29.971  10.057
85291W        W57639  35.000  14.696  14.299
85292W        W57640  30.486  44.924  13.388
85293W        W57641  23.147   6.264  14.363
85294W        W57642  42.473  36.982   3.237
85295W        W57643   2.774  13.674   0.309
85296W        W57644   6.785  24.662  10.425
85297W        W57645   3.758   1.763  12.570
85298W        W57646  33.970  23.083  13.486
85299W        W57647  10.658  10.226   2.307
85300W        W57648  11.641  35.486  14.301
85301W        W57649  10.239  25.149  13.809
85302W        W57650  17.233   4.831   3.848
85303W        W57651   7.407  23.119   4.165
85304W        W57652   5.403  20.255  11.566
85305W        W57653  35.001  38.072  12.010
85306W        W57654  26.198  28.181   0.343
85307W        W57655  11.367   3.410   1.261
85308W        W57656  28.524  22.210   3.321
85309W        W57657  35.386  27.626   0.729
85310W        W57658  35.362  17.086  11.121
85311W        W57659  13.117  42.971   0.295
85312W        W57660  44.468  23.167   3.633
85313W        W57661  32.552   6.694   4.129
85314W        W57662  41.895  31.578  12.414
85315W        W57663  42.997  15.219  13.800
85316W        W57664   1.920   2.865  10.631
85317W        W57665  33.090  18.097   3.296
85318W        W57666  32.888  13.770  12.862
85319W        W57667  14.681  15.183  11.063
85320W        W57668  42.348  31.025  13.884
85321W        W57669  11.650  35.942   3.270
85322W        W57670  34.879   8.269  10.433
85323W        W57671   9.706  36.495   4.135
85324W        W57672  20.081  42.424  10.457
85325W        W57673  35.375  31.483  12.879
85326W        W57674  29.626  42.289   0.247
85327W        W57675  15.295  34.416  14.003
85328W        W57676   5.270  12.200  10.948
85329W        W57677  21.215  29.607  14.934
85330W        W57678   7.211   9.368  10.544
85331W        W57679   5.846  42.021   2.325
85332W        W57680  31.572  39.004  10.899
85333W        W57681  34.108  16.149   1.229
85334W        W57682  12.785  25.493  13.861
85335W        W57683  18.121   4.820  11.454
85336W        W57684  34.390  20.254  14.465
85337W        W57685   6.695  38.900  13.981
85338W        W57686   0.866  28.534  13.825
85339W        W57687  41.394  36.915  11.877
85340W        W57688   7.271  44.295   1.750
85341W        W57689  34.468   1.483  14.023
85342W        W57690  20.112   2.874   4.778
85343W        W57691   4.420  36.552  11.128
85344W        W57692   8.742  17.189  13.022
85345W        W57693  41.467  31.501   3.769
85346W        W57694   2.266  33.000   0.329
85347W        W57695  40.501   5.841  14.812
85348W        W57696   1.431  35.904   3.756
85349W        W57697  18.152  24.078   4.612
85350W        W57698   4.848  31.427  12.360
85351W        W57699  36.490  39.420  12.888
85352W        W57700  19.563  24.228   0.905
85353W        W57701   8.707  13.188  14.481
85354W        W57702   1.939  16.809   1.747
85355W        W57703  23.144  24.151  10.930
85356W        W57704  37.039   0.851  12.867
85357W        W57705  38.876  28.157  14.869
85358W        W57706  16.273   4.388  10.997
85359W        W57707   2.456   2.292  14.783
85360W        W57708   6.347  38.982  13.868
85361W        W57709  19.597  28.147  13.978
85362W        W57710  26.572   1.779   1.390
85363W        W57711  31.595  16.115   3.220
85364W        W57712  33.392  36.099   1.768
85365W        W57713  38.345  27.991   4.188
85366W        W57714  29.125  32.458  10.896
85367W        W57715  10.195  40.936   0.280
85368W        W57716   9.253  30.159   0.858
85369W        W57717  37.345  24.704  10.411
85370W        W57718  25.126   8.818   4.781
85371W        W57719  11.331  20.241   0.435
85372W        W57720  26.608  25.971   1.440
85373W        W57721  35.548  30.974   2.753
85374W        W57722   9.277  11.207   4.788
85375W        W57723   8.246  38.550   1.216
85376W        W57724   6.720   9.819  12.437
85377W        W57725  21.673  18.185  11.543
85378W        W57726  23.685  28.449   1.236
85379W        W57727  11.135   9.748  11.415
85380W        W57728  10.293  42.341   0.326
85381W        W57729  27.664  31.557   4.243
85382W        W57730   1.467  30.123  11.049
85383W        W57731  35.071  34.432  14.476
85384W        W57732  37.082  27.611   2.686
85385W        W57733  33.519  18.549   3.386
85386W        W57734  37.921   0.848   2.194
85387W        W57735  24.064  22.537  11.992
85388W        W57736  33.526  39.506  13.498
85389W        W57737  12.780   0.919   2.761
85390W        W57738  23.090  32.473  13.924
85391W        W57739  30.643  18.664  11.913
85392W        W57740   1.869   7.235   1.916
85393W        W57741  23.099  38.978   1.731
85394W        W57742  33.583  28.135   0.443
85395W        W57743  12.646  34.996  10.572
85396W        W57744  15.321  39.459  11.390
85397W        W57745  26.612  25.639   2.194
85398W        W57746   4.378  35.047  11.580
85399W        W57747  21.026   0.323  11.859
85400W        W57748  41.322  21.246  12.403
85401W        W57749  19.760  39.334   3.842
85402W        W57750  22.540  15.233   2.818
85403W        W57751   7.711  42.409   4.829
85404W        W57752  40.542  15.097  10.938
85405W        W57753   1.407   9.391   0.869
85406W        W57754  40.831  16.215   4.162
85407W        W57755  15.751  26.647  12.071
85408W        W57756  41.318  29.489   3.691
85409W        W57757  38.553  37.488  14.284
85410W        W57758  10.241  17.288  12.060
85411W        W57759  33.590  33.116   2.311
85412W        W57760  25.685  44.860  12.344
85413W        W57761  36.524  18.291  11.995
85414W        W57762  29.664   7.243  10.063
85415W        W57763   7.702  17.109  10.494
85416W        W57764   1.735  12.615   1.850
85417W        W57765  15.789  15.675   1.262
85418W        W57766  40.387  15.241  14.977
85419W        W57767   5.919   6.892  14.434
85420W        W57768  43.995  22.701   3.261
85421W        W57769  14.266   3.236  10.043
85422W        W57770  17.166   1.284  14.275
85423W        W57771   4.373  43.874   4.220
85424W        W57772   1.458  31.980   2.186
85425W        W57773  35.529  38.977  14.957
85426W        W57774  29.540   7.901  13.467
85427W        W57775  25.573  35.468  12.837
85428W        W57776  41.475  22.522  12.082
85429W        W57777  25.548  21.721   2.279
85430W        W57778  34.426  18.223   0.417
85431W        W57779  28.017   3.351  12.879
85432W        W57780  27.555  36.064  12.482
85433W        W57781  11.340  39.390   2.289
85434W        W57782  22.186  21.665   2.293
85435W        W57783  20.718  34.565  14.951
85436W        W57784  30.544  27.110   0.382
85437W        W57785  36.018  13.814   4.729
85438W        W57786  11.312  37.502  14.026
85439W        W57787  13.669  34.379   1.810
85440W        W57788   5.787  37.410   3.665
85441W        W57789  16.257  38.009   1.760
85442W        W57790  33.435  20.094   3.267
85443W        W57791  15.213  34.597  11.595
85444W        W57792  42.369  10.199  12.357
85445W        W57793  44.949  16.679   1.448
85446W        W57794  25.971  31.064  14.813
85447W        W57795  13.308  27.619   3.838
85448W        W57796  44.941  27.106  13.797
85449W        W57797  29.565  21.062   0.913
85450W        W57798  24.531   9.333  10.959
85451W        W57799  30.498  27.675  13.450
85452W        W57800  17.162  35.451   0.772
85453W        W57801   2.251  28.098  12.063
85454W        W57802  36.529  17.778  11.916
85455W        W57803  20.121   5.864   4.120
85456W        W57804  44.984  17.704   4.657
85457W        W57805  16.180  14.164  13.834
85458W        W57806  41.807  17.599   4.603
85459W        W57807  20.117   9.328   1.259
85460W        W57808  34.399  44.953   0.770
85461W        W57809  20.094  16.664  10.602
85462W        W57810  44.883  23.063   3.355
85463W        W57811   1.466  35.429  11.373
85464W        W57812  22.057   6.913   1.845
85465W        W57813  39.537  34.448   0.440
85466W        W57814  22.728  35.110  14.302
85467W        W57815  35.523  25.696  12.490
85468W        W57816   3.415  35.025   3.182
85469W        W57817  41.357  13.125  10.903
85470W        W57818  19.702  33.931   0.476
85471W        W57819  44.762   2.298  12.575
85472W        W57820  40.866  26.014   4.276
85473W        W57821   2.752  29.918  13.806
85474W        W57822  17.294   4.227   2.237
85475W        W57823  29.990  36.471  11.945
85476W        W57824  42.029  28.066   3.770
85477W        W57825  28.459  41.348  14.514
85478W        W57826  14.786  10.191   3.261
85479W        W57827  20.759  28.566   4.651
85480W        W57828  22.545  32.624   2.180
85481W        W57829  35.988  29.068  12.373
85482W        W57830  26.140  33.545   1.228
85483W        W57831  28.051   6.313   2.887
85484W        W57832  12.321  23.213  13.477
85485W        W57833   6.837   1.869   1.283
85486W        W57834  13.161  18.068   4.835
85487W        W57835  16.680  15.773  11.427
85488W        W57836  40.398  12.331  11.889
85489W        W57837   2.824  31.538   3.701
85490W        W57838  29.063  41.318   1.357
85491W        W57839  39.034  12.349  10.975
85492W        W57840  18.777  29.647  12.570
85493W        W57841  31.115  12.175   1.396
85494W        W57842  19.271   2.282   1.285
85495W        W57843  39.822  34.571   1.438
85496W        W57844  42.862  41.015  11.540
85497W        W57845  11.207  33.406  10.973
85498W        W57846  25.059  22.016   1.929
85499W        W57847  40.018  24.644  12.974
85500W        W57848  37.337  12.312  12.844
85501W        W57849  11.834  12.626   1.749
85502W        W57850  22.083  41.518  12.826
85503W        W57851  26.989  23.573  11.900
85504W        W57852  38.543  36.348  13.445
85505W        W57853  40.926  22.582   3.805
85506W        W57854  30.466  11.338   2.389
85507W        W57855  25.155  35.507  14.307
85508W        W57856  23.518   7.210  11.397
85509W        W57857  36.848  44.002   1.882
85510W        W57858  39.928   7.267   1.311
85511W        W57859  17.561   0.332   1.351
85512W        W57860   4.396  17.064   2.260
85513W        W57861  37.530  35.045   1.304
85514W        W57862  18.150  32.048   2.375
85515W        W57863  30.945  38.887   0.849
85516W        W57864   8.268   2.909   2.790
85517W        W57865  25.601  34.985  13.055
85518W        W57866  29.454  42.360  13.959
85519W        W57867  34.008  19.269  11.960
85520W        W57868  37.954  28.476   4.228
85521W        W57869  11.265  31.116  11.881
85522W        W57870  26.578  29.509   4.792
85523W        W57871  20.263  27.539  14.862
85524W        W57872  18.565  30.949  11.496
85525W        W57873  30.915  30.066   2.296
85526W        W57874  15.788  31.511  14.936
85527W        W57875   4.792   2.725  14.911
85528W        W57876  29.482  38.339  14.927
85529W        W57877  12.271  16.254   4.123
85530W        W57878  43.995   3.344   0.369
85531W        W57879  17.669  38.990   3.344
85532W        W57880  40.898  17.644  14.438
85533W        W57881  28.534   1.914   2.195
85534W        W57882  24.111  12.116   2.315
85535W        W57883  10.369   0.455  12.873
85536W        W57884  27.577  44.814   4.635
85537W        W57885  16.073  12.657   1.248
85538W        W57886   8.222  28.104  11.582
85539W        W57887  36.565  21.101   1.754
85540W        W57888   4.864  20.528   2.741
85541W        W57889  12.663  18.758   0.447
85542W        W57890  11.687  22.243  11.406
85543W        W57891  19.745  22.589   2.230
85544W        W57892  30.092  32.938  14.461
85545W        W57893  27.530  40.982   4.194
85546W        W57894  39.812  16.571   0.387
85547W        W57895  25.129   6.304   1.431
85548W        W57896  32.631   9.341  14.356
85549W        W57897   3.421  15.304   3.169
85550W        W57898   1.902  30.933  11.962
85551W        W57899  14.215  25.663   0.900
85552W        W57900  40.539  10.866   2.268
85553W        W57901  36.565   8.278   2.241
85554W        W57902  38.875   9.331  11.374
85555W        W57903  22.510  28.660  11.014
85556W        W57904  35.458   6.353   0.886
85557W        W57905   7.341  29.990   0.255
85558W        W57906  26.957  20.745   4.199
85559W        W57907  44.780  29.568   3.729
85560W        W57908  39.423  40.049  14.974
85561W        W57909  10.321  10.202   5.322
85562W        W57910   0.878  37.359   0.251
85563W        W57911   8.198  38.980  12.849
85564W        W57912  15.296  18.606   1.417
85565W        W57913  29.083  43.385  13.959
85566W        W57914  42.358   0.778  11.040
85567W        W57915  15.674  26.488   9.988
85568W        W57916  17.164  28.667   4.836
85569W        W57917   5.414   5.869   2.210
85570W        W57918  33.413  29.937   4.354
85571W        W57919   0.458  15.630   1.842
85572W        W57920  27.531   1.350   3.695
85573W        W57921  40.499  22.200  10.578
85574W        W57922   8.868  44.471   2.681
85575W        W57923   1.480  27.027   3.859
85576W        W57924  28.509  27.454   3.249
85577W        W57925  24.049  28.628   2.689
85578W        W57926  28.605  38.074   0.728
85579W        W57927   3.359  39.043   4.821
85580W        W57928  33.016   8.168   1.258
85581W        W57929   6.377  21.250   2.688
85582W        W57930  32.924  32.045  13.391
85583W        W57931   3.411  42.850  13.807
85584W        W57932  38.954  20.755   3.634
85585W        W57933   5.862  40.803  10.578
85586W        W57934   0.248   4.843   0.360
85587W        W57935  27.543  26.700  11.506
85588W        W57936  41.488  35.898  14.979
85589W        W57937  27.178  43.909   2.778
85590W        W57938  44.286  22.649   2.779
85591W        W57939   5.227  29.565   2.276
85592W        W57940  32.941  38.020   0.375
85593W        W57941   8.716  18.229   0.273
85594W        W57942  39.048  37.570   0.734
85595W        W57943   6.374   6.895   4.598
85596W        W57944  40.347  44.973   4.233
85597W        W57945   5.399   2.887   3.716
85598W        W57946  39.323  28.638  14.002
85599W        W57947  34.033  23.240   2.888
85600W        W57948  42.382  16.715   2.861
85601W        W57949  11.233  18.727   1.282
85602W        W57950  11.822  25.217  14.962
85603W        W57951  10.667  28.166   2.185
85604W        W57952   1.411  21.685  12.048
85605W        W57953  20.765  31.135  10.910
85606W        W57954  17.087  28.451   4.270
85607W        W57955  21.604  10.871  11.895
85608W        W57956  21.041  16.232  13.452
85609W        W57957  20.758  26.075   0.451
85610W        W57958  39.522  35.493  12.065
85611W        W57959  29.462  44.405  11.856
85612W        W57960  44.914  41.457  12.826
85613W        W57961  41.896  28.987   0.483
85614W        W57962   1.815  11.273   1.401
85615W        W57963  25.567  29.533   0.911
85616W        W57964  43.977  26.605  12.956
85617W        W57965  22.569  33.436   2.839
85618W        W57966  21.555  30.164   0.311
85619W        W57967  31.499  36.022   2.345
85620W        W57968  41.944  14.198  10.080
85621W        W57969  31.097  29.976  10.471
85622W        W57970   3.924  12.680  12.938
85623W        W57971  11.178  15.213  11.414
85624W        W57972  12.830  32.136  11.580
85625W        W57973  37.557   0.391  13.437
85626W        W57974  34.086  23.567  14.856
85627W        W57975   6.872  28.943   2.722
85628W        W57976   3.231  43.834  14.443
85629W        W57977  29.547  27.089  14.416
85630W        W57978  22.182  22.241   4.646
85631W        W57979  19.177  10.234   4.808
85632W        W57980  17.299  16.805  12.579
85633W        W57981  39.437  35.547   1.778
85634W        W57982  12.263  33.897  12.059
85635W        W57983  42.884  19.232  11.055
85636W        W57984   2.406  32.006   5.247
85637W        W57985   3.923  33.883  14.882
85638W        W57986  33.581  43.431   0.266
85639W        W57987  28.654   9.646  10.556
85640W        W57988   5.398   7.667   2.804
85641W        W57989  16.159  10.264   4.160
85642W        W57990  42.467   2.280  12.567
85643W        W57991  31.011  40.385  11.584
85644W        W57992  44.807   3.441   2.190
85645W        W57993  41.393  20.538  12.928
85646W        W57994  30.634  44.826  14.790
85647W        W57995  26.472  14.613  13.432
85648W        W57996  20.701  31.405  12.558
85649W        W57997  16.677   8.365   2.197
85650W        W57998  23.708   5.832   1.301
85651W        W57999  14.710  40.331  13.863
85652W        W58000  24.585  18.714  12.507
85653W        W58001  25.481  35.853   1.864
85654W        W58002  23.201  16.083  13.314
85655W        W58003  30.445   3.261   2.298
85656W        W58004  24.033  15.667   3.829
85657W        W58005  24.068  32.604  12.854
85658W        W58006  19.770   3.748   1.818
85659W        W58007  27.477   5.329   2.792
85660W        W58008   6.296   8.754   0.277
85661W        W58009  13.805  25.984   2.785
85662W        W58010   2.292   0.779   4.297
85663W        W58011  10.807  16.680  14.318
85664W        W58012  16.308  41.507  12.372
85665W        W58013  41.821  15.152   4.196
85666W        W58014   1.238  43.919  10.920
85667W        W58015   8.709  21.078   4.669
85668W        W58016   6.847  12.126  11.548
85669W        W58017  19.642  28.136   0.457
85670W        W58018   5.773  32.487   1.283
85671W        W58019  41.938   4.773  12.019
85672W        W58020   7.283  30.938  14.402
85673W        W58021  31.450  31.153   1.333
85674W        W58022  10.369  28.680   4.301
85675W        W58023  25.663   2.767  11.391
85676W        W58024  40.972   8.820   4.800
85677W        W58025  39.899  29.577   3.853
85678W        W58026   0.802  13.147   2.273
85679W        W58027  35.518  18.701   4.640
85680W        W58028  29.141   5.318  10.906
85681W        W58029   0.853  35.875   4.268
85682W        W58030  12.155  36.463  12.028
85683W        W58031   4.205   4.708   3.311
85684W        W58032  41.301   9.774  11.411
85685W        W58033  25.494  23.214   3.194
85686W        W58034   9.768  25.052  10.470
85687W        W58035  16.651  16.271  11.057
85688W        W58036  29.141  16.637   2.837
85689W        W58037   0.920  19.269  12.568
85690W        W58038   0.965  13.155   0.456
85691W        W58039   3.260  16.088  12.866
85692W        W58040  17.576  26.664  10.023
85693W        W58041  17.129   2.232   3.145
85694W        W58042  26.163  12.751  12.462
85695W        W58043  38.340  30.094   4.619
85696W        W58044  43.390  10.771  11.392
85697W        W58045  21.105   8.848  14.986
85698W        W58046  38.430  37.445   2.814
85699W        W58047  20.218  14.115  12.088
85700W        W58048  32.106   9.842   0.893
85701W        W58049  27.132  40.930  14.018
85702W        W58050  31.645  23.527  11.503
85703W        W58051  14.173  14.105   1.245
85704W        W58052  27.082   3.405   3.793
85705W        W58053  25.096  20.554   0.895
85706W        W58054   0.949  45.000  14.964
85707W        W58055  11.321  20.037  11.006
85708W        W58056   8.856   9.875   0.868
85709W        W58057  43.940  19.611   0.432
85710W        W58058   6.288  38.037   2.195
85711W        W58059  22.681  32.436   1.289
85712W        W58060   9.658  15.229   2.776
85713W        W58061   1.326  17.278  11.085
85714W        W58062   5.746   4.728  13.374
85715W        W58063  34.922   8.202   1.732
85716W        W58064  36.987  20.555   2.344
85717W        W58065   2.945  31.108   3.309
85718W        W58066  21.756   3.935  13.971
85719W        W58067  33.598  12.645   9.933
85720W        W58068  29.128  42.916  11.508
85721W        W58069  22.124  42.842   0.397
85722W        W58070  10.220  32.437  14.848
85723W        W58071  11.826  13.656   4.639
85724W        W58072  10.144   6.303  11.505
85725W        W58073  42.908  29.122  14.323
85726W        W58074  10.776  41.854   3.374
85727W        W58075   4.228  34.435   3.778
85728W        W58076   6.847  29.065  13.026
85729W        W58077  12.723  41.025   1.926
85730W        W58078  22.746  41.371  11.095
85731W        W58079   3.887  44.004   1.701
85732W        W58080  12.197  10.265   0.282
85733W        W58081   1.785   1.335   1.824
85734W        W58082   8.301  24.227  11.966
85735W        W58083  42.923  20.197  11.083
85736W        W58084  28.970  20.549  12.494
85737W        W58085  29.425  28.670   2.240
85738W        W58086  41.324  29.526  11.426
85739W        W58087   7.304  36.513  13.879
85740W        W58088  10.669  10.853  14.899
85741W        W58089  27.114  22.205   1.878
85742W        W58090  16.674  14.792   1.303
85743W        W58091  21.178  11.190   0.944
85744W        W58092  19.278  34.892   2.662
85745W        W58093   4.263   8.900   1.859
85746W        W58094  21.754  38.526  14.336
85747W        W58095   1.259  30.452   4.218
85748W        W58096  38.424   6.193  11.520
85749W        W58097  25.626   0.402   3.331
85750W        W58098  38.336   8.349  14.466
85751W        W58099  26.132  30.006  13.792
85752W        W58100  43.011   1.822  14.399
85753W        W58101  29.436  42.775   3.721
85754W        W58102  17.098  28.068  10.548
85755W        W58103  15.127   4.789   0.404
85756W        W58104  19.278   1.348  13.046
85757W        W58105  10.788  16.271   4.214
85758W        W58106  25.196   0.344   0.425
85759W        W58107   6.891   4.715   2.785
85760W        W58108  20.117   6.390  10.949
85761W        W58109  33.558  24.014   4.291
85762W        W58110  16.116   5.210   2.205
85763W        W58111   4.784   7.804  11.988
85764W        W58112  30.989  39.899  10.462
85765W        W58113   3.272   2.726  10.611
85766W        W58114  25.094  37.886   2.675
85767W        W58115  16.790  31.054  13.331
85768W        W58116   7.758  36.951   0.266
85769W        W58117   7.761  28.485   2.795
85770W        W58118  33.577   2.944  14.769
85771W        W58119  13.288  43.318  11.559
85772W        W58120  13.607  31.531  12.836
85773W        W58121  15.638   7.784   2.190
85774W        W58122  20.116  28.057   2.247
85775W        W58123   7.242  43.933  10.912
85776W        W58124  30.535   9.829   1.328
85777W        W58125   3.244  15.242  10.910
85778W        W58126  25.213  40.435   4.216
85779W        W58127   6.849  41.038   2.397
85780W        W58128  22.049  15.319   3.151
85781W        W58129   8.314   7.867  14.326
85782W        W58130  38.819   1.888  10.594
85783W        W58131   5.256  14.141  11.892
85784W        W58132  34.865   5.781  12.556
85785W        W58133  38.844  10.242  13.528
85786W        W58134  25.084  24.672   0.728
85787W        W58135   1.763  30.650  12.951
85788W        W58136  10.808  13.795  12.358
85789W        W58137  26.125  10.747  12.900
85790W        W58138  17.245   4.768  14.364
85791W        W58139  20.047  42.292   1.301
85792W        W58140  20.691  40.432   4.837
85793W        W58141   9.167  20.641  12.001
85794W        W58142  18.105  18.259  13.389
85795W        W58143  11.776  11.730  11.403
85796W        W58144  28.567  19.613  10.589
85797W        W58145  34.431  38.546  14.787
85798W        W58146  20.566   3.955   0.916
85799W        W58147  43.400  11.154  14.455
85800W        W58148  24.675  44.822   3.786
85801W        W58149  18.700  44.415  10.642
85802W        W58150  24.722   8.267  11.582
85803W        W58151  16.094  42.334  13.975
85804W        W58152  39.952  12.642   0.915
85805W        W58153  11.858   4.205  10.056
85806W        W58154  19.553   3.865  11.068
85807W        W58155  23.624  44.309  14.011
85808W        W58156  20.111   8.884  13.490
85809W        W58157  15.657   3.892   0.364
85810W        W58158  44.806   4.415   1.376
85811W        W58159  19.551  19.048  11.056
85812W        W58160  20.048  33.535   3.700
85813W        W58161  18.139  26.153  10.980
85814W        W58162  44.381   2.874   0.253
85815W        W58163   1.832  35.037  14.792
85816W        W58164   1.414  33.466  11.530
85817W        W58165  33.115  39.929   2.690
85818W        W58166   4.894  17.732  10.932
85819W        W58167  10.372   2.249   1.375
85820W        W58168  28.532  36.020   2.774
85821W        W58169   9.280   4.245  12.441
85822W        W58170  10.864  41.940  14.794
85823W        W58171   0.276   3.748   2.323
85824W        W58172   6.223  44.426  11.063
85825W        W58173   9.210  41.323   4.220
85826W        W58174  30.067   4.856  14.985
85827W        W58175  18.684  43.489  14.280
85828W        W58176  29.127   0.485  11.028
85829W        W58177  18.656  14.594  11.106
85830W        W58178  39.989  26.604   3.829
85831W        W58179   0.403  41.957  14.300
85832W        W58180  29.546   1.282  10.486
85833W        W58181  27.990  35.932  14.482
85834W        W58182  41.497  36.064   4.239
85835W        W58183   2.883  38.488   2.320
85836W        W58184   3.233  39.508   3.667
85837W        W58185  31.418  20.211   4.753
85838W        W58186   3.327   8.803   2.880
85839W        W58187   0.397  39.530  13.816
85840W        W58188  37.342  27.940  13.418
85841W        W58189   4.933  19.194   1.226
85842W        W58190  34.393   5.874  10.479
85843W        W58191  38.899  42.885  11.379
85844W        W58192  36.561  26.655  14.513
85845W        W58193  35.075  17.269  13.413
85846W        W58194  19.222  13.318   4.254
85847W        W58195  27.641  18.688   3.821
85848W        W58196  38.017   2.386  11.610
85849W        W58197  40.912  39.375   2.266
85850W        W58198  42.487   5.834   2.797
85851W        W58199  34.477   2.741   3.671
85852W        W58200  21.058  44.301  12.419
85853W        W58201  24.207  37.076  14.402
85854W        W58202  40.961  33.009   4.799
85855W        W58203   1.875  18.562   2.693
85856W        W58204  34.550  14.161  12.518
85857W        W58205  36.587  21.610   0.927
85858W        W58206  32.557  36.901  12.993
85859W        W58207  26.084  16.790   2.282
85860W        W58208  37.033  34.105  12.054
85861W        W58209  37.338  21.733  11.887
85862W        W58210  42.929  12.707   3.829
85863W        W58211  42.446  41.355   1.264
85864W        W58212  14.821  33.074  11.095
85865W        W58213  19.726  26.171  14.853
85866W        W58214  44.389  34.434   4.344
85867W        W58215  42.993  31.029  10.462
85868W        W58216  40.916  36.979  12.034
85869W        W58217   1.755   0.894  11.515
85870W        W58218  20.550  38.964  14.931
85871W        W58219  12.342  28.123  13.415
85872W        W58220  13.283  43.467  14.851
85873W        W58221   8.386  17.280   4.597
85874W        W58222  34.511  19.692   4.147
85875W        W58223  31.506   3.923   3.640
85876W        W58224  15.213  26.192  11.873
85877W        W58225  41.344  15.686   1.358
85878W        W58226  43.323  29.134  11.967
85879W        W58227  40.387  21.204   0.440
85880W        W58228   3.425  25.207  10.067
85881W        W58229  26.610   4.908   1.696
85882W        W58230  18.266   0.333   2.350
85883W        W58231  16.809  18.170  10.504
85884W        W58232  20.214  10.253   1.235
85885W        W58233  31.595  34.111  13.797
85886W        W58234  44.346  29.615   4.686
85887W        W58235  15.709  20.611  10.524
85888W        W58236   7.710   7.366  12.953
85889W        W58237   8.304  33.992  10.067
85890W        W58238   0.314  10.229   1.821
85891W        W58239  42.827  22.191  10.091
85892W        W58240  27.563  15.304   0.807
85893W        W58241  32.600  28.513  10.518
85894W        W58242  22.655   1.735   3.677
85895W        W58243  31.643   9.317   5.190
85896W        W58244  13.261  27.015  11.946
85897W        W58245  22.060   8.736   3.320
85898W        W58246  29.445  26.470  12.057
85899W        W58247  20.729  44.875   1.916
85900W        W58248   8.769   4.222  12.045
85901W        W58249  33.122   9.657  11.926
85902W        W58250  15.151  43.359  13.456
85903W        W58251  12.226   8.832   2.328
85904W        W58252  29.632  11.772  12.973
85905W        W58253  43.771  39.958   3.701
85906W        W58254  24.167  14.832  10.601
85907W        W58255   7.841  37.857  11.558
85908W        W58256  43.425  15.716   3.793
85909W        W58257  32.115  27.637   9.946
85910W        W58258  36.452   0.263   2.291
85911W        W58259  21.715  13.162  14.491
85912W        W58260  41.516  10.156  14.808
85913W        W58261  39.420   9.653   4.767
85914W        W58262  40.005  43.916  10.623
85915W        W58263  35.532  11.707  12.868
85916W        W58264  22.561  25.968  13.921
85917W        W58265  32.118   1.919   3.864
85918W        W58266  33.039   2.454  14.795
85919W        W58267  10.832  43.465   0.411
85920W        W58268   7.353  26.576   0.744
85921W        W58269  38.894  10.801   1.347
85922W        W58270  28.049   3.830   0.842
85923W        W58271  38.019  42.401   1.386
85924W        W58272  14.257  44.385  13.988
85925W        W58273   0.285  42.898  10.456
85926W        W58274  12.700  27.512   1.859
85927W        W58275  33.130  11.260   4.608
85928W        W58276  33.482  36.889   0.924
85929W        W58277  19.764  16.212  11.595
85930W        W58278  43.364  34.951   1.732
85931W        W58279   2.788  13.111  12.962
85932W        W58280  26.102   9.717  14.505
85933W        W58281  35.944  17.189   4.764
85934W        W58282  17.196  30.165  14.513
85935W        W58283  35.601  17.192   4.625
85936W        W58284  12.224  28.128  13.055
85937W        W58285  33.503   0.350  11.521
85938W        W58286  34.007  11.780  13.844
85939W        W58287  25.130   8.199  11.538
85940W        W58288  17.614  15.729  13.507
85941W        W58289  37.062  19.777   3.866
85942W        W58290  20.206  18.121  10.102
85943W        W58291  39.490  23.185  12.414
85944W        W58292  13.628  14.264   3.341
85945W        W58293  11.249  24.983  10.440
85946W        W58294  11.808  38.050   1.344
85947W        W58295  11.337  37.997  10.919
85948W        W58296  38.422   6.392   4.824
85949W        W58297  37.832  39.038   4.270
85950W        W58298   6.714  36.431  13.421
85951W        W58299   9.779  22.553   3.267
85952W        W58300   3.284  25.565  14.955
85953W        W58301  11.826  26.649   3.263
85954W        W58302  12.790   7.409  10.409
85955W        W58303  30.537  28.007   1.825
85956W        W58304  31.132  36.862  14.833
85957W        W58305  20.108  37.976  13.423
85958W        W58306  32.926  28.533   1.272
85959W        W58307  38.980  36.432   4.721
85960W        W58308  23.693  35.894  11.117
85961W        W58309  18.198  41.307   0.914
85962W        W58310  30.114  12.350  10.524
85963W        W58311  44.945  36.945  10.501
85964W        W58312  31.003  31.142   4.152
85965W        W58313  14.616  26.105  13.395
85966W        W58314  27.061   1.245   3.653
85967W        W58315  35.070  35.884   4.708
85968W        W58316  36.098  21.710  14.026
85969W        W58317   3.728  12.276  11.401
85970W        W58318  35.470  35.463   2.797
85971W        W58319  42.393  29.014   0.909
85972W        W58320  43.439  40.947   4.235
85973W        W58321   3.882  13.175  10.619
85974W        W58322  44.835  21.201  11.475
85975W        W58323  16.087  28.040  14.337
85976W        W58324  30.014  38.020   4.604
85977W        W58325  19.192  23.993  14.330
85978W        W58326   4.248  24.064  10.547
85979W        W58327  21.570  38.417  13.414
85980W        W58328  34.992   5.419   0.937
85981W        W58329  15.819  34.470  11.855
85982W        W58330  16.684  31.495  12.483
85983W        W58331  29.175  39.377  10.896
85984W        W58332  10.152  40.485  11.940
85985W        W58333  39.977   5.327  10.898
85986W        W58334   6.253  32.416   1.895
85987W        W58335  31.644   8.399  11.971
85988W        W58336  32.934  40.484  10.615
85989W        W58337  28.607  37.086   4.328
85990W        W58338  33.503  39.937   1.433
85991W        W58339   9.854  17.232   1.341
85992W        W58340  33.907  21.542  10.556
85993W        W58341  15.171  10.672  13.491
85994W        W58342  13.306  29.986   1.710
85995W        W58343  23.679  41.000  14.435
85996W        W58344  19.211  30.608   0.908
85997W        W58345  26.058  26.513   2.410
85998W        W58346  21.564  30.137   2.797
85999W        W58347  27.480  35.560   1.404
86000W        W58348   0.364  23.129   3.290
86001W        W58349  14.283  19.146   1.787
86002W        W58350  13.284  15.153   4.655
86003W        W58351   8.849  30.428  10.631
86004W        W58352   7.222  23.683   4.727
86005W        W58353  18.052  44.971   0.309
86006W        W58354   8.856   8.322  10.983
86007W        W58355  43.339  37.970  11.381
86008W        W58356   3.867   5.932  10.967
86009W        W58357  25.126   7.871   3.735
86010W        W58358  21.707  24.657   4.753
86011W        W58359  36.442  39.969  11.917
86012W        W58360   6.797  24.530   0.471
86013W        W58361   8.395  28.144  12.038
86014W        W58362   9.244   1.364  10.936
86015W        W58363  27.682  32.975  14.826
86016W        W58364  21.670  33.458   1.401
86017W        W58365   3.914  32.475   0.748
86018W        W58366   4.849   5.915  12.545
86019W        W58367  44.773  40.822   1.297
86020W        W58368  26.158   5.256  13.966
86021W        W58369  29.173  27.631   2.853
86022W        W58370  10.327  17.767   0.321
86023W        W58371  38.909  26.060   3.756
86024W        W58372  14.632   0.886  10.422
86025W        W58373  33.965  36.077   0.478
86026W        W58374  33.062   7.893   4.702
86027W        W58375  17.580  19.272  12.992
86028W        W58376   0.906   8.776   4.168
86029W        W58377  15.735  17.769  12.019
86030W        W58378  20.694  29.481  12.431
86031W        W58379  36.588  42.001   0.282
86032W        W58380  11.863  17.219   3.176
86033W        W58381  42.436  24.050   0.837
86034W        W58382  44.384   9.355   0.822
86035W        W58383   7.733  11.663   2.273
86036W        W58384  11.328   8.365   1.712
86037W        W58385  12.281  21.727  13.854
86038W        W58386  38.010  35.916  11.070
86039W        W58387  40.384  11.143   1.350
86040W        W58388  30.450  33.905   4.347
86041W        W58389  14.288   7.401   0.330
86042W        W58390  34.891   3.430  14.299
86043W        W58391  26.551   2.774  13.308
86044W        W58392  42.471   1.311   0.960
86045W        W58393   4.268  41.883   0.875
86046W        W58394  43.509  33.041  12.514
86047W        W58395   6.770  19.074   0.282
86048W        W58396  26.668  19.622   2.386
86049W        W58397  15.644  29.563  11.010
86050W        W58398  13.120  40.829   3.841
86051W        W58399   9.800   4.896   1.427
86052W        W58400  23.024  30.511   0.727
86053W        W58401  35.504  25.588  14.453
86054W        W58402  34.550  25.591   4.767
86055W        W58403  30.602   6.344   4.267
86056W        W58404  42.436  10.288  12.972
86057W        W58405   7.717  41.835  13.539
86058W        W58406  33.467  34.375   3.633
86059W        W58407   9.371   8.317  13.467
86060W        W58408   1.795  24.161  14.885
86061W        W58409  40.855   6.723   1.225
86062W        W58410  18.736   2.800  12.827
86063W        W58411  23.714  44.782   4.678
86064W        W58412  18.266  25.146  10.597
86065W        W58413   2.760   8.798   3.644
86066W        W58414  28.508  20.660   2.749
86067W        W58415  37.078  23.722   2.717
86068W        W58416  40.447  13.673  12.399
86069W        W58417  23.633  40.855   3.213
86070W        W58418  30.654  32.897   4.618
86071W        W58419  40.940  38.047   2.735
86072W        W58420  15.263  22.059   1.805
86073W        W58421   6.224  23.109   1.871
86074W        W58422  27.575  25.540  12.469
86075W        W58423  33.051  34.907  13.012
86076W        W58424  17.062  23.497   4.625
86077W        W58425  43.415   7.904  14.826
86078W        W58426   9.179  14.594   1.861
86079W        W58427   6.419  18.790  12.435
86080W        W58428  31.985  21.109  12.412
86081W        W58429  25.028  33.929   1.914
86082W        W58430  23.729  20.059  10.466
86083W        W58431  41.423  27.012  13.518
86084W        W58432  30.556  33.946  13.348
86085W        W58433  18.547   2.952   3.768
86086W        W58434   5.312  25.537  10.902
86087W        W58435   3.911  10.187  11.415
86088W        W58436  29.130   1.912   4.274
86089W        W58437  16.782  35.960  10.550
86090W        W58438  22.214  11.836   2.745
86091W        W58439  39.467  21.208  13.873
86092W        W58440  35.588  11.262   4.145
86093W        W58441   1.350  44.431   3.854
86094W        W58442  11.682  41.819  12.035
86095W        W58443  37.999  27.098  11.464
86096W        W58444  44.983  37.840   4.221
86097W        W58445  33.595  43.466  13.384
86098W        W58446  40.997  10.213  12.403
86099W        W58447   3.932   9.855   1.779
86100W        W58448  33.439  34.083  12.031
86101W        W58449  27.679  42.354  13.003
86102W        W58450   8.753  19.577   5.127
86103W        W58451  23.639  32.603   0.726
86104W        W58452   7.691  21.180   1.868
86105W        W58453  33.015  11.190  13.511
86106W        W58454   3.826  39.962   0.896
86107W        W58455  38.972   5.436   3.186
86108W        W58456  31.590  36.352   0.917
86109W        W58457  42.376  10.837  14.491
86110W        W58458  31.552  10.377   2.336
86111W        W58459   7.224  28.530  10.586
86112W        W58460  15.294   3.365   0.261
86113W        W58461  27.448  19.050   0.727
86114W        W58462  25.533  42.324  12.343
86115W        W58463  17.762  27.063   4.316
86116W        W58464   9.194   2.440  13.394
86117W        W58465  39.439  21.523   4.191
86118W        W58466  42.873  35.087   1.259
86119W        W58467   3.308   0.948  13.524
86120W        W58468  25.082  24.622   4.282
86121W        W58469  35.547  25.966   3.167
86122W        W58470  29.108  42.287  12.395
86123W        W58471  29.996  10.820   0.764
86124W        W58472  29.097   4.803   4.218
86125W        W58473  10.686   7.376  13.388
86126W        W58474  23.229  15.192   1.284
86127W        W58475   8.338  23.124   3.675
86128W        W58476  10.851   2.812  11.064
86129W        W58477  31.010  31.916   1.424
86130W        W58478  41.837  16.709  11.067
86131W        W58479   6.295  19.544  12.455
86132W        W58480   5.764   6.373  11.596
86133W        W58481   2.336  18.686  11.385
86134W        W58482   0.779  24.721   3.681
86135W        W58483  37.513  19.150  13.878
86136W        W58484  18.211   3.845  12.952
86137W        W58485  32.128  43.447  14.508
86138W        W58486  10.736  18.142   2.390
86139W        W58487   8.732  39.417   1.788
86140W        W58488  18.789  17.285  14.984
86141W        W58489  36.453   0.955  13.482
86142W        W58490  23.531  30.576   0.738
86143W        W58491   0.398  26.139   2.806
86144W        W58492  27.486  20.654   2.236
86145W        W58493   1.887   0.954   0.444
86146W        W58494  35.549  12.787  13.054
86147W        W58495  30.578   2.251  13.504
86148W        W58496  24.038  20.116   4.315
86149W        W58497  43.810  42.794   3.325
86150W        W58498  19.573  26.145  13.315
86151W        W58499  16.246  22.521  13.332
86152W        W58500  20.113  31.574  11.122
86153W        W58501  36.965  33.403   1.892
86154W        W58502  44.976  10.660   1.300
86155W        W58503  14.748   3.729   2.748
86156W        W58504  40.309  15.158  14.015
86157W        W58505  27.627   3.842  14.318
86158W        W58506  38.063  13.244  12.933
86159W        W58507  39.350  43.805  11.446
86160W        W58508  13.801  37.582  12.578
86161W        W58509  13.123   1.736   3.304
86162W        W58510  26.180  24.133   1.728
86163W        W58511   3.772   7.324  10.158
86164W        W58512  31.545  26.962   3.747
86165W        W58513  31.916  26.962  14.934
86166W        W58514  16.778  20.617  12.008
86167W        W58515  29.535   0.273   1.781
86168W        W58516   9.388   3.894   1.835
86169W        W58517  38.536  12.616   2.399
86170W        W58518   0.419  40.932   2.348
86171W        W58519  36.007  20.069  11.543
86172W        W58520  19.665  22.521  12.094
86173W        W58521  14.787  13.128  14.823
86174W        W58522  27.003  37.005   4.341
86175W        W58523  37.953   5.865   1.803
86176W        W58524  43.986  25.101   1.361
86177W        W58525  28.158  14.113  12.883
86178W        W58526  27.691  15.616  11.387
86179W        W58527   8.233  14.786  10.605
86180W        W58528  33.552  23.047   1.320
86181W        W58529  36.441   9.823  12.862
86182W        W58530  26.659  23.076   1.227
86183W        W58531  27.553  24.715   0.939
86184W        W58532  43.835  30.964  13.882
86185W        W58533  36.433  17.608  13.347
86186W        W58534   1.966   8.869  13.884
86187W        W58535  21.733  35.522   3.177
86188W        W58536  24.025  19.262   0.427
86189W        W58537  43.363  33.613   4.621
86190W        W58538  10.261  29.616   0.482
86191W        W58539  12.351  17.154   3.694
86192W        W58540  40.354  19.063  13.985
86193W        W58541  16.114   2.271  12.010
86194W        W58542  24.485  23.233  14.838
86195W        W58543  26.459   9.839   3.675
86196W        W58544  22.244  21.541   3.294
86197W        W58545   5.856  25.633  14.312
86198W        W58546  38.851  19.173   0.793
86199W        W58547   2.433  12.243  13.883
86200W        W58548  20.559  38.379   1.405
86201W        W58549  31.909  21.621  10.545
86202W        W58550  44.286  19.645  13.025
86203W        W58551  26.595  10.332  13.351
86204W        W58552  28.589  33.569   4.299
86205W        W58553  15.666  42.003  14.402
86206W        W58554  13.838  17.115   1.372
86207W        W58555  25.603  37.515   1.213
86208W        W58556  24.075  23.616   4.209
86209W        W58557  13.733   6.352   1.415
86210W        W58558   9.699  26.616  12.056
86211W        W58559  34.380  26.670   3.741
86212W        W58560   2.797   9.763  12.870
86213W        W58561  15.227  23.221   2.747
86214W        W58562  30.165  21.223   4.808
86215W        W58563   0.329  31.508   3.681
86216W        W58564   1.262  11.722   4.164
86217W        W58565   3.862  31.140   0.899
86218W        W58566  15.290  44.834  12.544
86219W        W58567  21.095  35.946  11.109
86220W        W58568  25.616  18.756  12.024
86221W        W58569  42.292  20.663  12.403
86222W        W58570  39.479  40.840   2.719
86223W        W58571  31.943  13.194  11.540
86224W        W58572   6.868  12.288   2.359
86225W        W58573  25.631   8.357  14.485
86226W        W58574  23.186  26.518   3.805
86227W        W58575  17.280  33.555   0.812
86228W        W58576  20.152   9.830  10.543
86229W        W58577  42.014  15.224   0.765
86230W        W58578   7.692  30.611   9.936
86231W        W58579  25.156  29.515  11.880
86232W        W58580  32.005   9.153  12.014
86233W        W58581  34.069   6.378  13.837
86234W        W58582   1.287   3.864  14.911
86235W        W58583  30.057  17.624  13.900
86236W        W58584  10.670  17.272  12.865
86237W        W58585   8.744  33.984   3.148
86238W        W58586  37.868  19.164   2.362
86239W        W58587  26.661  16.305  10.480
86240W        W58588  36.971  44.259   1.363
86241W        W58589  28.051  29.985  12.393
86242W        W58590  32.983  33.952  10.971
86243W        W58591  28.037  35.440   1.808
86244W        W58592  41.534  37.846  11.898
86245W        W58593  22.720   8.714   4.816
86246W        W58594  16.090  25.570  13.962
86247W        W58595  22.642  44.798  14.903
86248W        W58596  35.997   4.830   4.277
86249W        W58597  15.589   5.757  10.913
86250W        W58598  37.884   8.351   1.303
86251W        W58599  13.281  41.501  13.843
86252W        W58600  23.518  13.305  13.959
86253W        W58601  30.561  41.500  11.491
86254W        W58602  34.588  14.253   4.599
86255W        W58603  38.454   6.396   1.841
86256W        W58604   3.749  33.543  11.031
86257W        W58605  25.969  38.939  14.306
86258W        W58606  10.268  38.871   4.807
86259W        W58607  41.357   7.386  13.934
86260W        W58608  40.875  43.497   2.820
86261W        W58609  10.356   3.318  11.950
86262W        W58610  42.473  25.683   0.826
86263W        W58611   5.819  40.984  13.964
86264W        W58612   9.375  19.199   3.203
86265W        W58613   7.239  22.162   4.797
86266W        W58614  33.465  16.229   4.740
86267W        W58615  31.525  25.115   1.755
86268W        W58616  13.249  28.980  11.557
86269W        W58617  17.775  42.417   4.824
86270W        W58618  38.877  22.639   3.762
86271W        W58619   8.214  44.981   2.347
86272W        W58620  24.171  41.853  13.451
86273W        W58621   9.271  13.807   0.888
86274W        W58622  23.193  20.619   2.735
86275W        W58623  16.219  33.947  11.091
86276W        W58624  13.680  20.687  14.858
86277W        W58625  28.580   1.333  11.436
86278W        W58626  27.462   9.213  12.049
86279W        W58627  13.632  21.630  14.767
86280W        W58628  23.711  29.939   4.664
86281W        W58629  34.061  43.938  14.781
86282W        W58630  32.493  30.565   1.886
86283W        W58631   7.184  33.076   4.613
86284W        W58632  13.177   2.727   0.885
86285W        W58633   4.309   4.709   0.274
86286W        W58634  15.262  30.472   0.755
86287W        W58635  25.994  21.675  14.856
86288W        W58636  28.041  30.625   2.248
86289W        W58637  10.379  24.099  13.960
86290W        W58638  37.396  24.601   0.743
86291W        W58639  11.675  12.796   3.746
86292W        W58640  10.675   8.833   4.646
86293W        W58641  20.104  44.929  14.872
86294W        W58642  34.969   0.866  10.427
86295W        W58643  35.870  44.464   2.285
86296W        W58644   8.788   7.388  12.413
86297W        W58645  27.141   5.355   4.144
86298W        W58646  19.556  28.000   0.950
86299W        W58647  43.854  28.055  12.058
86300W        W58648  17.217  33.083   3.302
86301W        W58649  19.614   4.798  13.813
86302W        W58650  27.549  26.676  13.454
86303W        W58651  27.643  20.263   4.117
86304W        W58652  43.350  27.136   0.449
86305W        W58653  32.615  35.926   1.389
86306W        W58654  38.954  14.735   4.248
86307W        W58655  28.628   9.384   1.899
86308W        W58656  24.050  26.670   5.119
86309W        W58657  14.645  28.946   1.356
86310W        W58658   4.878  33.085   0.963
86311W        W58659  37.859  23.152   1.767
86312W        W58660  37.566  25.586   2.197
86313W        W58661  34.097  33.393   3.869
86314W        W58662  38.944   2.850   3.783
86315W        W58663  39.949  11.786   4.733
86316W        W58664  22.743   3.770   0.307
86317W        W58665  26.607  44.387  10.513
86318W        W58666   4.344  43.985  13.371
86319W        W58667  36.559  34.550   1.871
86320W        W58668   9.793   7.747   2.846
86321W        W58669  24.480  19.125   2.804
86322W        W58670  16.711  11.656  13.870
86323W        W58671   1.429  19.042   0.354
86324W        W58672   0.895  12.824  13.332
86325W        W58673  36.423   9.253  11.059
86326W        W58674   3.232  43.439  12.988
86327W        W58675  30.067  20.651  10.490
86328W        W58676  40.320  16.276  14.515
86329W        W58677  28.454   4.903  14.973
86330W        W58678   9.781  16.696  11.541
86331W        W58679  26.594  11.241   2.732
86332W        W58680  33.127  13.715   0.263
86333W        W58681  28.622  29.942   0.895
86334W        W58682  43.331  20.743   3.778
86335W        W58683  18.193   0.279  12.004
86336W        W58684  43.436  36.386  13.909
86337W        W58685  38.459  38.999  13.518
86338W        W58686  25.103  19.281   3.374
86339W        W58687  42.840   8.720  11.958
86340W        W58688  28.536  14.329   1.793
86341W        W58689  28.550   0.834  10.601
86342W        W58690  30.426  24.495   0.853
86343W        W58691   1.366   9.216  13.433
86344W        W58692  10.271  28.499   3.851
86345W        W58693   7.886  10.206   2.718
86346W        W58694   4.348  26.651  14.497
86347W        W58695  41.331  25.004   0.768
86348W        W58696  15.634  29.078   2.282
86349W        W58697  43.890  18.609  12.922
86350W        W58698   8.246  31.050  13.957
86351W        W58699  42.387  14.254  11.425
86352W        W58700   3.872  36.446   4.630
86353W        W58701  26.582  37.845  14.856
86354W        W58702   0.901  16.714  11.955
86355W        W58703  16.198  19.676   4.229
86356W        W58704  24.527  43.369  10.617
86357W        W58705  30.640  11.747  10.898
86358W        W58706  19.211  36.994  14.781
86359W        W58707  43.504  19.638   5.209
86360W        W58708  38.457   7.741  14.411
86361W        W58709  17.682  44.285  14.359
86362W        W58710  12.761  41.509  13.422
86363W        W58711  24.568  36.987  14.394
86364W        W58712  37.872  10.220  11.549
86365W        W58713  33.016   7.370   4.231
86366W        W58714   3.404  37.358  12.532
86367W        W58715  20.734  11.628  10.431
86368W        W58716  44.388  10.725  12.539
86369W        W58717  12.356  18.565   2.833
86370W        W58718  41.468  22.039   4.300
86371W        W58719  23.138  29.979  13.995
86372W        W58720  35.914  30.018   4.148
86373W        W58721   8.784  24.160   0.447
86374W        W58722  18.129  30.939  13.861
86375W        W58723  25.514   1.795  12.055
86376W        W58724  12.284  33.105  14.308
86377W        W58725  20.572  36.967   4.731
86378W        W58726  15.174  32.979   0.398
86379W        W58727  16.728  30.073   3.805
86380W        W58728  43.348   2.889   2.286
86381W        W58729  14.182  32.486   4.642
86382W        W58730  17.617  44.775  12.890
86383W        W58731   1.280  15.230   3.844
86384W        W58732  14.282   4.368   4.752
86385W        W58733   2.756   0.491  12.428
86386W        W58734  14.213   0.306   4.833
86387W        W58735  39.395  10.828  10.455
86388W        W58736  32.104  37.077   4.156
86389W        W58737  42.365   2.942   0.809
86390W        W58738  15.741  20.241  11.467
86391W        W58739   3.443  42.884  14.781
86392W        W58740  38.368  25.086   1.842
86393W        W58741  38.867  28.477   1.329
86394W        W58742  21.549  21.646   0.780
86395W        W58743  25.506   2.897   1.372
86396W        W58744  21.516   0.973  10.066
86397W        W58745  13.191  39.524   3.799
86398W        W58746  43.844  26.174   4.812
86399W        W58747  15.629   5.431  12.411
86400W        W58748  24.008  19.630   1.909
86401W        W58749  13.307  30.506   1.694
86402W        W58750   1.967  31.909  10.914
86403W        W58751   5.861  18.282   2.414
86404W        W58752  21.654  27.971   0.479
86405W        W58753  10.708  25.590  13.015
86406W        W58754  36.870  41.827  12.084
86407W        W58755   6.185  25.702  12.525
86408W        W58756  33.491  12.816   2.755
86409W        W58757   2.318  35.012  10.937
86410W        W58758   5.298  23.632  11.568
86411W        W58759  37.368   1.300   4.234
86412W        W58760  36.934   4.715   3.367
86413W        W58761   1.944  32.403   3.242
86414W        W58762  28.578  13.116  14.803
86415W        W58763  40.320  13.300   0.274
86416W        W58764  13.186   0.856   1.388
86417W        W58765  32.086  40.049   0.756
86418W        W58766   1.854  17.577  11.454
86419W        W58767  13.230  32.516  12.532
86420W        W58768   7.793  36.593   1.934
86421W        W58769  38.886  19.233   1.709
86422W        W58770  12.139  10.181   2.715
86423W        W58771   1.965  42.875  11.553
86424W        W58772   9.371  21.143  13.840
86425W        W58773   0.474  37.878   2.836
86426W        W58774  28.142   0.773  11.491
86427W        W58775   4.362   2.721  10.451
86428W        W58776  26.607  22.014  10.604
86429W        W58777   9.196  44.367  14.844
86430W        W58778  40.030  19.273   0.279
86431W        W58779  37.497  33.884  11.998
86432W        W58780  13.695   3.739   4.755
86433W        W58781  31.574  22.625  12.870
86434W        W58782  27.130   0.766  11.394
86435W        W58783  37.477  24.044   3.698
86436W        W58784  31.532  23.511   2.854
86437W        W58785  30.053   7.220   9.978
86438W        W58786   3.941  39.362   0.372
86439W        W58787   1.361  36.935  14.436
86440W        W58788  11.728  17.666  10.472
86441W        W58789  39.349  15.330  10.978
86442W        W58790  25.051  31.418  13.328
86443W        W58791  34.415  37.578   3.662
86444W        W58792   3.414  20.185  13.390
86445W        W58793  38.056   9.800   4.792
86446W        W58794  29.491  34.059  13.957
86447W        W58795  43.351  16.302  14.945
86448W        W58796  13.264  35.458  12.539
86449W        W58797  17.769  40.317  11.438
86450W        W58798  33.616  36.577   0.288
86451W        W58799  43.299  21.167  13.052
86452W        W58800  20.671  22.043   2.330
86453W        W58801  37.336  24.709   0.321
86454W        W58802  24.489  10.222  11.038
86455W        W58803  25.508   8.404   3.779
86456W        W58804  40.336   7.881   2.405
86457W        W58805  20.243   7.361   0.389
86458W        W58806  10.667  27.502  11.885
86459W        W58807  27.467  13.327  13.860
86460W        W58808  21.127   8.725   0.397
86461W        W58809  40.516   6.905   2.838
86462W        W58810  31.121  20.116  11.076
86463W        W58811  44.912  15.690  10.937
86464W        W58812  21.637  20.168  12.945
86465W        W58813  41.367   6.875  13.832
86466W        W58814  14.667  14.799   3.146
86467W        W58815   0.467  19.658   2.365
86468W        W58816   3.875  26.610   4.157
86469W        W58817  35.484  41.446   3.346
86470W        W58818  20.250  42.517   2.293
86471W        W58819   8.164   6.693  14.396
86472W        W58820  15.775  18.607  11.578
86473W        W58821  22.073  39.885  11.483
86474W        W58822   6.921   4.939  11.007
86475W        W58823  21.103   2.302   5.094
86476W        W58824  16.310  16.713  14.278
86477W        W58825  10.354   9.321  12.046
86478W        W58826   2.861  42.017  12.992
86479W        W58827  19.274  12.670  10.967
86480W        W58828  30.467   4.797  13.340
86481W        W58829  26.098   1.874   0.924
86482W        W58830   7.884  17.728   3.371
86483W        W58831   2.757  20.710   0.919
86484W        W58832  11.759   3.855  14.902
86485W        W58833   1.262  10.737  13.535
86486W        W58834  42.494  35.419   0.439
86487W        W58835  35.527  20.654   5.644
86488W        W58836   3.410   6.809  11.973
86489W        W58837  23.604  29.618   3.151
86490W        W58838  44.924  44.295  13.519
86491W        W58839   7.182  22.676  12.508
86492W        W58840  17.234  12.798  12.880
86493W        W58841  44.447  39.888   0.789
86494W        W58842  30.006  30.987   2.252
86495W        W58843  24.109  36.048   5.318
86496W        W58844  29.505  14.152  14.835
86497W        W58845  44.925  30.425   2.850
86498W        W58846  27.949  11.725   3.157
86499W        W58847   7.723  28.643   4.737
86500W        W58848  34.887   7.699   2.785
86501W        W58849  23.984  30.519   2.878
86502W        W58850  29.471  24.624   1.859
86503W        W58851  16.568  19.227   3.168
86504W        W58852   9.204  30.048   2.391
86505W        W58853  26.535  21.226   2.205
86506W        W58854  35.473   7.176  13.354
86507W        W58855  22.007  21.080   2.661
86508W        W58856   3.872  17.726  14.845
86509W        W58857  23.552  43.819  13.477
86510W        W58858  28.443  39.872  10.979
86511W        W58859  23.654  16.155  14.471
86512W        W58860  11.355  22.582   1.295
86513W        W58861   4.702  16.220   0.326
86514W        W58862   1.384  16.215   0.932
86515W        W58863  10.690  43.350  13.395
86516W        W58864  39.489  18.740   1.412
86517W        W58865   0.289   0.885   2.346
86518W        W58866  30.516  19.674  11.997
86519W        W58867  19.627  20.253   3.861
86520W        W58868  13.633   7.861   1.442
86521W        W58869  11.858   9.697  14.780
86522W        W58870  43.811  22.240  10.445
86523W        W58871  21.739  15.182   1.242
86524W        W58872  39.505  37.451   0.919
86525W        W58873  15.786   6.425   1.397
86526W        W58874  25.086  22.070   0.323
86527W        W58875  24.510  16.221   2.323
86528W        W58876   4.400   7.324  10.915
86529W        W58877  13.213  44.476   0.478
86530W        W58878   5.211  19.656  13.983
86531W        W58879  44.469  28.114   1.818
86532W        W58880  16.735  14.119   2.353
86533W        W58881  16.751  31.092   2.664
86534W        W58882  33.068  16.573   2.307
86535W        W58883   6.826  28.955   0.447
86536W        W58884   5.795  15.679   0.324
86537W        W58885  22.707  25.981   2.798
86538W        W58886   4.328  21.612  11.081
86539W        W58887  36.461   6.695   4.276
86540W        W58888   5.785  26.028  12.363
86541W        W58889  17.107  17.264   2.408
86542W        W58890  19.051  11.341   3.189
86543W        W58891  42.982  15.318   0.296
86544W        W58892  30.047  44.927   2.814
86545W        W58893  28.976  15.093   2.688
86546W        W58894  43.323  18.279   1.755
86547W        W58895  41.364  19.203   2.682
86548W        W58896  13.824  15.716   4.624
86549W        W58897   1.288  30.052  14.951
86550W        W58898   6.211  36.391  14.937
86551W        W58899  25.067  13.627   1.810
86552W        W58900  39.957  19.537  13.009
86553W        W58901  21.639  22.104   4.699
86554W        W58902  24.021   2.413  14.848
86555W        W58903   5.437   7.312  13.835
86556W        W58904  41.303   2.944  12.397
86557W        W58905  33.571  11.778   3.301
86558W        W58906  25.967   3.228  10.935
86559W        W58907  32.609   4.325   2.804
86560W        W58908  32.499  29.512  14.341
86561W        W58909  35.368  31.040  10.925
86562W        W58910  25.690   6.260  13.858
86563W        W58911  23.038   8.362   1.826
86564W        W58912  11.687  42.954   4.159
86565W        W58913  22.600  23.731   0.853
86566W        W58914  37.864  27.532  10.643
86567W        W58915  31.505  19.684  11.515
86568W        W58916  33.086  19.276   0.810
86569W        W58917  26.532   4.711   4.197
86570W        W58918  23.712  20.102  14.761
86571W        W58919  30.577  20.597  11.910
86572W        W58920   0.761   9.684   3.643
86573W        W58921   8.382  36.974   1.724
86574W        W58922  26.633  17.569   3.671
86575W        W58923  25.512   4.361   0.744
86576W        W58924  40.904   1.347   2.880
86577W        W58925  11.775  13.788   0.432
86578W        W58926  44.843  33.467   0.448
86579W        W58927  35.980  26.675   1.263
86580W        W58928  38.073  27.527   0.329
86581W        W58929   8.765  30.449   2.194
86582W        W58930  25.142   4.434   3.736
86583W        W58931   2.322   5.316  10.507
86584W        W58932  30.433   9.233   2.392
86585W        W58933  16.712  16.104   3.376
86586W        W58934  32.133   3.872  14.977
86587W        W58935  16.772  20.596  10.585
86588W        W58936  24.102   9.149  14.276
86589W        W58937   5.734  21.109   2.810
86590W        W58938  29.167  35.491   3.282
86591W        W58939  35.511  40.899  11.548
86592W        W58940  21.724  21.686   2.807
86593W        W58941  22.027  26.562  13.984
86594W        W58942  14.609   4.316   1.265
86595W        W58943   7.751  43.331  13.868
86596W        W58944  18.619   3.318  14.280
86597W        W58945   0.316  35.974   2.269
86598W        W58946   4.262  16.278  12.415
86599W        W58947   0.259  37.923   0.388
86600W        W58948   5.780  36.095  12.479
86601W        W58949   2.860  16.094  14.333
86602W        W58950  17.763   6.909  12.471
86603W        W58951  26.066  27.674  13.868
86604W        W58952  31.920  28.030   3.224
86605W        W58953  44.829   5.820   3.366
86606W        W58954  23.537  29.131   1.305
86607W        W58955  12.195   9.872  11.107
86608W        W58956  16.779  27.995   1.866
86609W        W58957  35.100  35.953  12.056
86610W        W58958  11.815  40.472   4.126
86611W        W58959   6.715  15.788  10.486
86612W        W58960   3.433  30.112   0.966
86613W        W58961  19.219   4.430  10.488
86614W        W58962  41.926  13.326  13.445
86615W        W58963   2.262  18.169   2.216
86616W        W58964  37.956   4.357  13.922
86617W        W58965  19.665   1.252  14.957
86618W        W58966   7.192  24.533   4.672
86619W        W58967  17.291  40.323  12.527
86620W        W58968   8.393   3.308  10.991
86621W        W58969   1.793  44.309  10.442
86622W        W58970   2.798  26.053  12.402
86623W        W58971   8.252  16.149   4.742
86624W        W58972  37.385  11.692   4.806
86625W        W58973  39.869  36.849   2.842
86626W        W58974   1.814  19.663  13.901
86627W        W58975  22.253  14.271   4.727
86628W        W58976  18.626  10.735  12.836
86629W        W58977   4.328  32.414   4.833
86630W        W58978  13.836  20.161   0.848
86631W        W58979  42.321  41.425  11.096
86632W        W58980  42.030  28.479  11.488
86633W        W58981   3.300  23.199   4.340
86634W        W58982  26.011  11.169   2.384
86635W        W58983  41.471  41.818  13.870
86636W        W58984  41.944   9.330   1.718
86637W        W58985  12.809  11.372  14.452
86638W        W58986  23.162   5.931   0.829
86639W        W58987  18.745  11.209   2.839
86640W        W58988  28.015  43.513  10.901
86641W        W58989  18.598  10.264  11.566
86642W        W58990  18.093  22.117  14.765
86643W        W58991  35.486  12.342  10.516
86644W        W58992   7.896  23.606   0.326
86645W        W58993  23.609  24.099  11.396
86646W        W58994   8.778  30.946   9.992
86647W        W58995  14.229  44.303   5.313
86648W        W58996  35.363  38.833   3.756
86649W        W58997   1.437   7.330  14.393
86650W        W58998  12.331   8.387   2.316
86651W        W58999  34.509  21.751  12.410
86652W        W59000  14.306  18.676  10.521
86653W        W59001  40.917  16.730  13.982
86654W        W59002  44.909  18.774  14.338
86655W        W59003  38.063   6.922  12.346
86656W        W59004   9.733  24.532   1.215
86657W        W59005   0.427  21.180  14.441
86658W        W59006  42.370   8.193   2.717
86659W        W59007  38.075  30.966  13.998
86660W        W59008  28.077  12.358   3.661
86661W        W59009   3.904  16.260  14.393
86662W        W59010  34.541  29.540   0.306
86663W        W59011  38.380  43.398  14.392
86664W        W59012  14.100  17.688  11.066
86665W        W59013  33.904   9.798  12.831
86666W        W59014  43.850  22.091  11.546
86667W        W59015  21.078  23.715   2.680
86668W        W59016  24.591   1.430  14.839
86669W        W59017  20.269  38.982   3.167
86670W        W59018  16.569  14.335  13.482
86671W        W59019  16.728  43.422  11.938
86672W        W59020  12.207  12.648  13.923
86673W        W59021  34.549   7.821   1.935
86674W        W59022  25.498  37.535  11.019
86675W        W59023  20.690   2.892  10.520
86676W        W59024  10.804   0.819  13.318
86677W        W59025  40.519   1.920  12.015
86678W        W59026  17.664  25.515   4.729
86679W        W59027  32.927  28.534   3.284
86680W        W59028  16.288  11.345   1.699
86681W        W59029   3.849   1.760   2.763
86682W        W59030  26.071  12.336  14.819
86683W        W59031  39.829  16.109  12.997
86684W        W59032  40.497  40.880   3.741
86685W        W59033   8.900  40.345  10.931
86686W        W59034  16.073  32.892  10.530
86687W        W59035  43.413  42.838   0.306
86688W        W59036  37.377  36.069   4.130
86689W        W59037  15.176   7.404  10.473
86690W        W59038  39.431   4.707   2.295
86691W        W59039  31.940  22.251   2.353
86692W        W59040  25.983  18.640  11.590
86693W        W59041  10.361  13.232   4.201
86694W        W59042   2.447  21.083  11.903
86695W        W59043  40.306  33.502  10.982
86696W        W59044  44.495   1.251  10.923
86697W        W59045  37.066  34.396   0.455
86698W        W59046  37.477  31.995  14.494
86699W        W59047   0.251  15.798  14.512
86700W        W59048  40.480  42.944  11.951
86701W        W59049   5.888   2.414  11.993
86702W        W59050  14.721  44.948   2.185
86703W        W59051  10.760  36.011  14.345
86704W        W59052  39.870  36.548   0.431
86705W        W59053  14.217  38.569  12.844
86706W        W59054  10.382  25.647   5.163
86707W        W59055  26.153   2.882   2.728
86708W        W59056  32.885  34.535  13.429
86709W        W59057   7.404  41.960   4.149
86710W        W59058   4.725  12.304  14.985
86711W        W59059  31.630  21.701   2.877
86712W        W59060  23.604   8.694   2.789
86713W        W59061  14.801  19.241  12.379
86714W        W59062  39.960   4.426   1.285
86715W        W59063  31.978  28.984   3.222
86716W        W59064  12.829   8.224   0.478
86717W        W59065  30.029  10.671   3.210
86718W        W59066  33.094  16.627  12.084
86719W        W59067  24.623  42.338  13.384
86720W        W59068  29.518   2.447  13.049
86721W        W59069  29.084  12.305  14.010
86722W        W59070   0.860  44.432   9.960
86723W        W59071  21.242  44.408   0.729
86724W        W59072   1.882  15.757   4.296
86725W        W59073   8.695  42.307  14.362
86726W        W59074   5.277  35.013   1.391
86727W        W59075  33.067   9.342   0.853
86728W        W59076   5.768  30.537   1.247
86729W        W59077  16.685  17.103  14.490
86730W        W59078  26.574  22.668   1.270
86731W        W59079  31.635   9.700  14.787
86732W        W59080  10.661  43.895  11.548
86733W        W59081  37.014  39.478  14.988
86734W        W59082  33.977  32.554  12.981
86735W        W59083  15.196  33.570   3.377
86736W        W59084  31.450  33.075  10.963
86737W        W59085   4.864  11.847  13.519
86738W        W59086   6.266  31.494   0.309
86739W        W59087   6.764  35.873   2.712
86740W        W59088  18.695   6.328  12.419
86741W        W59089  28.593  25.526  10.971
86742W        W59090   4.392  29.054  12.930
86743W        W59091  32.891  41.824  10.419
86744W        W59092  30.955  40.379  10.590
86745W        W59093   6.823   8.899   3.674
86746W        W59094  43.503  32.570  10.962
86747W        W59095  20.173   7.857  13.841
86748W        W59096   5.370  21.632  10.458
86749W        W59097  24.629  38.963  11.900
86750W        W59098  31.590  27.670  12.474
86751W        W59099   7.331  19.554  11.014
86752W        W59100  27.505  14.795  11.610
86753W        W59101  34.110  11.689   1.788
86754W        W59102  38.880   5.313  11.575
86755W        W59103  43.838  39.863  10.901
86756W        W59104   0.893  39.835   0.801
86757W        W59105  38.540  28.157  11.872
86758W        W59106  25.578  24.222  13.931
86759W        W59107  36.360  21.139  11.084
86760W        W59108  21.171  39.374  14.939
86761W        W59109  25.545  17.651   2.331
86762W        W59110  28.606  37.556  13.539
86763W        W59111  40.861  20.639  11.909
86764W        W59112   8.805  18.102  11.994
86765W        W59113   1.973  44.833   1.895
86766W        W59114  25.055  14.635  12.472
86767W        W59115  28.054  14.824  12.997
86768W        W59116   3.287  15.695   3.643
86769W        W59117   6.714  34.902   3.726
86770W        W59118   0.448  15.695   2.180
86771W        W59119  19.621  39.030   0.252
86772W        W59120  39.557   8.187  12.005
86773W        W59121  24.521  43.921  10.894
86774W        W59122  38.029  29.146  12.355
86775W        W59123  36.583  36.935   1.247
86776W        W59124  36.428  30.010   3.341
86777W        W59125  25.091   4.753  14.982
86778W        W59126  20.248  22.095   3.725
86779W        W59127   9.759  24.625  11.377
86780W        W59128  42.504  30.577  12.353
86781W        W59129  25.615  26.152  14.307
86782W        W59130  17.789  20.255  11.946
86783W        W59131   9.201  24.120   3.376
86784W        W59132  39.365  35.430   4.683
86785W        W59133  21.521  25.643   3.326
86786W        W59134  13.773   4.925  14.444
86787W        W59135  30.077  12.811   2.403
86788W        W59136  27.041  37.515  12.523
86789W        W59137  20.117  13.843   1.694
86790W        W59138  36.357  25.542   4.325
86791W        W59139  40.895  13.844  11.531
86792W        W59140  34.954  27.940   3.778
86793W        W59141  32.080   7.755   5.241
86794W        W59142  37.003   7.260   1.881
86795W        W59143  13.677   8.832  10.571
86796W        W59144   3.442  11.251  13.528
86797W        W59145  13.750  27.521  12.951
86798W        W59146  31.545  35.531  11.523
86799W        W59147  42.787  14.334  10.507
86800W        W59148  29.638  13.801  14.959
86801W        W59149  25.609  26.643   2.379
86802W        W59150  18.666   3.440   1.790
86803W        W59151  34.440  19.573  12.007
86804W        W59152  25.069  14.653  11.071
86805W        W59153  37.855   2.232  13.023
86806W        W59154  18.743  11.799   5.103
86807W        W59155  30.083  24.638   1.274
86808W        W59156  32.891  30.581  12.394
86809W        W59157  42.979  17.771  12.366
86810W        W59158  27.476  38.494   4.228
86811W        W59159  42.360  37.390  12.458
86812W        W59160  43.005   8.202  13.514
86813W        W59161   8.334  29.484  12.401
86814W        W59162  28.099  39.875   3.346
86815W        W59163   6.414  43.801  10.582
86816W        W59164   3.325  41.793   5.284
86817W        W59165  38.337  12.164   4.212
86818W        W59166  14.776   4.445  14.811
86819W        W59167  20.157  29.431   2.805
86820W        W59168   4.325  32.089  14.877
86821W        W59169  42.986  37.969  13.871
86822W        W59170   4.422  18.766   3.273
86823W        W59171  29.032  11.794   4.256
86824W        W59172   2.763  43.902  14.378
86825W        W59173   1.352   3.459  10.904
86826W        W59174   8.334  16.568  12.507
86827W        W59175  29.027  10.854  13.428
86828W        W59176  36.988   2.274   0.778
86829W        W59177   3.407  18.605  13.817
86830W        W59178  24.696  31.639  14.319
86831W        W59179  20.269  30.090   1.896
86832W        W59180  33.888   2.302  13.855
86833W        W59181   1.734  44.484   4.284
86834W        W59182  13.297   6.343  13.048
86835W        W59183  33.119  38.902   1.769
86836W        W59184   0.768   5.200  10.582
86837W        W59185  12.339  22.056   2.865
86838W        W59186  34.932  27.560   2.838
86839W        W59187   8.312  21.599   2.273
86840W        W59188   1.430  34.535  10.469
86841W        W59189  23.515  14.612   1.742
86842W        W59190  28.067  20.109  12.500
86843W        W59191  42.303   2.831  11.065
86844W        W59192  39.383  39.044   4.703
86845W        W59193  18.134  12.738   3.775
86846W        W59194  31.988  10.188  10.133
86847W        W59195  24.538  19.642   2.290
86848W        W59196  18.232  28.082   4.171
86849W        W59197  17.153  15.587  11.449
86850W        W59198   1.302  44.920  10.514
86851W        W59199   2.861  39.913   0.326
86852W        W59200  15.150  42.851   2.858
86853W        W59201  35.370  15.245  13.517
86854W        W59202  20.203  17.782  11.475
86855W        W59203  36.399  42.006  13.358
86856W        W59204  29.954   6.785  12.029
86857W        W59205  23.503  22.041  13.471
86858W        W59206  16.096   3.441   2.691
86859W        W59207  11.370   7.398  11.047
86860W        W59208  25.963  37.337   0.883
86861W        W59209  37.539  12.821  13.371
86862W        W59210  42.431  43.332   3.706
86863W        W59211   5.710  15.223  10.991
86864W        W59212  34.562   0.324  14.983
86865W        W59213   5.911  34.557  10.502
86866W        W59214  40.835   9.890  11.021
86867W        W59215  31.981  29.489  11.584
86868W        W59216  30.438  36.380  11.073
86869W        W59217  16.813  17.076   3.667
86870W        W59218  25.176   2.232   0.334
86871W        W59219  33.544   6.363   3.296
86872W        W59220  19.071  30.632   4.201
86873W        W59221  37.967   9.188   2.181
86874W        W59222  19.220  42.498   0.895
86875W        W59223   5.843  32.445   3.202
86876W        W59224  10.758  39.831  13.018
86877W        W59225  10.274   5.797   1.390
86878W        W59226  22.149  20.533   0.314
86879W        W59227  36.428  20.098   2.882
86880W        W59228   7.689  37.545  10.513
86881W        W59229   1.757  12.235   0.898
86882W        W59230  29.568  26.617   4.204
86883W        W59231   9.790  28.089  11.067
86884W        W59232  24.140  23.136   0.437
86885W        W59233  17.225  27.010   9.952
86886W        W59234  32.002  40.909  11.088
86887W        W59235  29.139   4.385   1.739
86888W        W59236  30.916  38.352   2.240
86889W        W59237   8.375  20.527   5.585
86890W        W59238  19.234  34.494   1.781
86891W        W59239   2.289  32.398  11.594
86892W        W59240  28.552   2.936   1.739
86893W        W59241  14.283  39.365  11.407
86894W        W59242   4.911   8.240   4.619
86895W        W59243  19.703  21.754  12.931
86896W        W59244  42.318   0.946   2.350
86897W        W59245  38.037  31.953  12.449
86898W        W59246  13.296  35.494   2.883
86899W        W59247  26.625  17.177  13.505
86900W        W59248  11.801  41.528  13.928
86901W        W59249   5.298   1.788  13.366
86902W        W59250  39.936   5.924   4.310
86903W        W59251  32.996  42.333  13.036
86904W        W59252  29.158  20.059   2.871
86905W        W59253  14.270  32.973   1.842
86906W        W59254  27.107  24.534  12.834
86907W        W59255  16.170  16.758   3.653
86908W        W59256  28.960  32.506  13.877
86909W        W59257  10.244  43.343  13.929
86910W        W59258  44.473  24.124  13.027
86911W        W59259  17.227  19.674   2.899
86912W        W59260  32.438   6.406   0.437
86913W        W59261  40.343   7.311  14.375
86914W        W59262  12.612  13.666  14.473
86915W        W59263  27.678  42.921   1.782
86916W        W59264  41.788   5.292  13.461
86917W        W59265  41.513  12.641  12.037
86918W        W59266  39.455  24.681   0.735
86919W        W59267  10.144  10.821   1.224
86920W        W59268   5.868   0.425  12.380
86921W        W59269   0.988   4.352   1.910
86922W        W59270  44.841  21.535   3.867
86923W        W59271  23.054  23.614   4.249
86924W        W59272  23.135  23.724   0.914
86925W        W59273  25.962   8.312   0.423
86926W        W59274  12.774  35.882   1.923
86927W        W59275  36.001  26.048  12.462
86928W        W59276   3.389   2.768   4.341
86929W        W59277   2.311   6.298  10.965
86930W        W59278   1.430  28.567  14.920
86931W        W59279  11.355  26.658   0.288
86932W        W59280  34.414  31.137   0.806
86933W        W59281  42.402  43.769  12.499
86934W        W59282  41.892  32.507   0.737
86935W        W59283  12.308  16.280  11.449
86936W        W59284  39.472  12.335  13.043
86937W        W59285  41.360  25.622  11.479
86938W        W59286  20.272   2.373  14.318
86939W        W59287  34.089  33.056   0.910
86940W        W59288  20.264  29.085  13.526
86941W        W59289   8.829  11.282   2.694
86942W        W59290  14.732  41.033  13.542
86943W        W59291  37.453   2.298  12.525
86944W        W59292  35.396  26.975   2.714
86945W        W59293  38.419  43.333  11.505
86946W        W59294  44.992  16.207   1.719
86947W        W59295  21.569  31.105  11.042
86948W        W59296  16.088  31.034   2.803
86949W        W59297  19.049   8.406   1.374
86950W        W59298  29.654  34.030   0.732
86951W        W59299   2.777  17.672   3.204
86952W        W59300   5.805  13.205   0.847
86953W        W59301  13.187  28.047   3.329
86954W        W59302   0.411  34.607  10.971
86955W        W59303  13.808  30.088   1.740
86956W        W59304  24.072  33.618  10.499
86957W        W59305   5.730  36.933  11.492
86958W        W59306  14.267   8.727   4.598
86959W        W59307  37.961  14.272   1.319
86960W        W59308  35.444   5.381   5.255
86961W        W59309  41.884  17.615   2.222
86962W        W59310  21.189  16.677  14.940
86963W        W59311  20.198  12.611  13.953
86964W        W59312  18.768   7.247  13.520
86965W        W59313  39.940   2.292  11.569
86966W        W59314  31.417  39.862  14.320
86967W        W59315  11.137  15.807  13.790
86968W        W59316  13.266  44.864   3.268
86969W        W59317   5.774  34.947   1.796
86970W        W59318  21.686  22.517   9.973
86971W        W59319  21.127  26.051  11.084
86972W        W59320  32.958   0.929   3.750
86973W        W59321  31.103  22.059   0.311
86974W        W59322   0.348  44.821  10.476
86975W        W59323  40.885  40.990   1.903
86976W        W59324  38.841  22.680  10.589
86977W        W59325  11.797  38.057  11.380
86978W        W59326  17.171   5.222   2.699
86979W        W59327  16.268   1.432   3.797
86980W        W59328  35.452   5.286  13.317
86981W        W59329  36.996   2.295  13.542
86982W        W59330  36.871  23.051   0.786
86983W        W59331  43.492  12.197   0.338
86984W        W59332  27.097  10.285   0.946
86985W        W59333  22.717  33.113   3.380
86986W        W59334   6.411  41.446   1.364
86987W        W59335   6.827  32.462  12.049
86988W        W59336  16.746  34.965  13.455
86989W        W59337  14.217  28.959  13.370
86990W        W59338  10.318  43.968   3.348
86991W        W59339   6.741  32.486   3.148
86992W        W59340   4.256  26.537   0.852
86993W        W59341   8.288  18.246  10.945
86994W        W59342  18.217  40.946  10.507
86995W        W59343  34.894   8.787   4.316
86996W        W59344  24.986  44.436  11.962
86997W        W59345  24.694   6.864   3.659
86998W        W59346  17.723  18.146  11.875
86999W        W59347  43.843  43.311  13.342
87000W        W59348  20.654  37.495  13.485
87001W        W59349  24.083  30.141   3.759
87002W        W59350   2.352   9.886   0.429
87003W        W59351  23.022   5.359  13.918
87004W        W59352  19.072  32.586   3.684
87005W        W59353   2.278  13.341  14.928
87006W        W59354  39.464  32.921  13.854
87007W        W59355  20.726  10.281   2.383
87008W        W59356  38.056  39.377   1.395
87009W        W59357  23.153   4.392   4.136
87010W        W59358  16.603   1.288  14.439
87011W        W59359  30.045   6.226   0.805
87012W        W59360   5.344  28.618   1.314
87013W        W59361  36.937  19.066  12.970
87014W        W59362   2.390   3.862   4.213
87015W        W59363  38.442  40.447   3.643
87016W        W59364  13.224  27.597  13.813
87017W        W59365   3.775  19.130  13.987
87018W        W59366  34.370  40.376  14.981
87019W        W59367  21.139  16.730   0.760
87020W        W59368  44.970  37.396   3.752
87021W        W59369  33.116  28.067   2.192
87022W        W59370  16.146  14.113   5.112
87023W        W59371  14.185  38.822   4.322
87024W        W59372  40.044   2.273   0.878
87025W        W59373  39.923  10.660  12.064
87026W        W59374  44.908  11.638  10.999
87027W        W59375   2.949  13.228   1.881
87028W        W59376   2.301   9.382  13.540
87029W        W59377   8.754  25.111  12.957
87030W        W59378  14.306  10.366   2.273
87031W        W59379  14.824   5.353  12.534
87032W        W59380  35.533  23.597  13.949
87033W        W59381  35.472  42.389  12.949
87034W        W59382  29.543  43.809  13.482
87035W        W59383  42.353  37.896  11.126
87036W        W59384  27.965  15.611   1.807
87037W        W59385  28.496  12.844   3.713
87038W        W59386  21.640  20.141   2.761
87039W        W59387   0.464  13.216  11.504
87040W        W59388  30.530  33.461  13.440
87041W        W59389  28.614  16.693  13.806
87042W        W59390   1.261  28.043  11.488
87043W        W59391   8.735  31.104  13.843
87044W        W59392  44.868   5.243   1.286
87045W        W59393  29.011  22.086   4.800
87046W        W59394   1.899  18.067  13.427
87047W        W59395  20.561  35.459  13.944
87048W        W59396  13.832  40.935   4.143
87049W        W59397  14.625   4.340   3.742
87050W        W59398   0.379  22.076  10.452
87051W        W59399  39.003   1.441   2.871
87052W        W59400  34.998  11.663  12.340
87053W        W59401  21.624  35.023  12.569
87054W        W59402  27.530  27.195   2.249
87055W        W59403  31.504   3.778  14.031
87056W        W59404   4.795  34.926  12.504
87057W        W59405  17.101  31.540  14.865
87058W        W59406  43.999  18.246   2.273
87059W        W59407  13.286  13.722   3.190
87060W        W59408  15.215  24.660  11.939
87061W        W59409   6.241  24.199   2.794
87062W        W59410  33.009  18.633   0.478
87063W        W59411   2.235  36.013   1.433
87064W        W59412   5.873  30.118   1.924
87065W        W59413  23.557   0.261  13.348
87066W        W59414   4.754  43.809   1.842
87067W        W59415  29.550  21.137  12.025
87068W        W59416  39.369  20.541   1.713
87069W        W59417  24.085  20.107  12.010
87070W        W59418  21.586   3.775  10.621
87071W        W59419  27.619  26.079   3.870
87072W        W59420  22.997  13.122   1.422
87073W        W59421  18.074  43.516   0.397
87074W        W59422  37.938  36.007  13.019
87075W        W59423  31.414  30.658   0.352
87076W        W59424  15.674  40.529  10.118
87077W        W59425  37.461  19.262   1.348
87078W        W59426  37.414   7.683  11.907
87079W        W59427  44.290  38.495   2.861
87080W        W59428  20.598  34.109   1.719
87081W        W59429  41.837  41.292  14.978
87082W        W59430  39.551  21.096   4.802
87083W        W59431  27.508  22.635   0.360
87084W        W59432   4.784  20.686  14.907
87085W        W59433  18.148  31.901  12.382
87086W        W59434   3.317  16.787   0.859
87087W        W59435  23.161  32.499  12.045
87088W        W59436  29.557   9.742   3.213
87089W        W59437  22.112  30.105   4.296
87090W        W59438  25.092   3.431  14.991
87091W        W59439  25.055  21.260   0.859
87092W        W59440  40.329   5.917  13.998
87093W        W59441  10.259  11.673   2.789
87094W        W59442  28.572  22.689   1.355
87095W        W59443   0.311  40.423   2.361
87096W        W59444  20.648  16.300  13.024
87097W        W59445  17.742  16.793   3.866
87098W        W59446  33.572  22.679   2.239
87099W        W59447  39.957   2.267  12.855
87100W        W59448  10.657  13.843  12.877
87101W        W59449  26.149  22.218   3.227
87102W        W59450  29.627   5.926  11.401
87103W        W59451  23.998   4.373  13.447
87104W        W59452   7.772  33.949   9.923
87105W        W59453  27.160  21.181  11.075
87106W        W59454  43.335  16.803  12.083
87107W        W59455  44.463  15.179  12.879
87108W        W59456  17.622  14.677   2.398
87109W        W59457  17.141  23.235   2.247
87110W        W59458  15.780   5.832  11.461
87111W        W59459   8.398  12.683   1.921
87112W        W59460  23.526  22.181   1.931
87113W        W59461  33.081  18.633   0.797
87114W        W59462  32.109  17.077   1.225
87115W        W59463   9.779  21.185  14.501
87116W        W59464  22.678  11.766   2.264
87117W        W59465   8.276   0.333   0.754
87118W        W59466  14.657  27.672  13.841
87119W        W59467  25.176  21.236  11.037
87120W        W59468  13.779  12.334   3.867
87121W        W59469  18.647   7.681   2.734
87122W        W59470  41.826  20.720  14.513
87123W        W59471  27.075  23.142  11.541
87124W        W59472   0.838  17.148   2.402
87125W        W59473  32.068  34.478  13.843
87126W        W59474  33.962  39.346  13.349
87127W        W59475  30.014  40.939  10.411
87128W        W59476  44.953  44.329  14.940
87129W        W59477  15.123  34.518   3.178
87130W        W59478  14.254  22.243  12.412
87131W        W59479  25.481  33.603   2.253
87132W        W59480  38.498  27.107  11.992
87133W        W59481  41.891  17.253  11.904
87134W        W59482  39.528   7.703  13.465
87135W        W59483  10.748  30.450   0.873
87136W        W59484  29.606   3.953   1.248
87137W        W59485  14.332   4.722   2.248
87138W        W59486  36.079   4.278   2.695
87139W        W59487  35.909  27.149  12.443
87140W        W59488  31.460   6.862   2.204
87141W        W59489  13.222  31.495   2.781
87142W        W59490  35.051  30.492   4.629
87143W        W59491  44.973  35.013   4.783
87144W        W59492  37.083   2.446   3.346
87145W        W59493   4.824  44.944  11.036
87146W        W59494   0.405  15.303  13.903
87147W        W59495  36.049  19.570   4.249
87148W        W59496  22.064  19.777  11.505
87149W        W59497  31.538   7.187  14.396
87150W        W59498  32.092  34.401  14.821
87151W        W59499  34.068  15.163   1.239
87152W        W59500   7.744  30.964  13.798
87153W        W59501  30.439  23.725  10.625
87154W        W59502   9.812  12.737   3.870
87155W        W59503  16.111  22.175   4.344
87156W        W59504   5.749  19.217   4.326
87157W        W59505  39.883  14.759   4.198
87158W        W59506  41.527   4.718   3.312
87159W        W59507  41.853  24.020   4.618
87160W        W59508   7.754  36.353   0.874
87161W        W59509  39.332  40.535   4.655
87162W        W59510  39.350  31.072  11.458
87163W        W59511  20.752  37.977   4.668
87164W        W59512  14.233   0.405  13.868
87165W        W59513  38.927  39.904   2.298
87166W        W59514  38.347   5.865  10.456
87167W        W59515  37.852   7.366   3.750
87168W        W59516   0.401  20.535  14.474
87169W        W59517  42.285  28.948   3.744
87170W        W59518  25.026  17.289   1.239
87171W        W59519   2.845   4.316   2.297
87172W        W59520  42.980  44.008  11.397
87173W        W59521  37.063   3.841  13.393
87174W        W59522  30.042  22.622   2.778
87175W        W59523  40.302   5.421  11.981
87176W        W59524   1.824  10.732   3.698
87177W        W59525   6.427  10.871  11.884
87178W        W59526   5.704  11.649  12.850
87179W        W59527  38.018  32.498   2.298
87180W        W59528   9.377  32.574  13.344
87181W        W59529  12.635  35.940   2.349
87182W        W59530  23.636   9.263   9.488
87183W        W59531   3.779  22.159  14.415
87184W        W59532  32.142  12.203   0.440
87185W        W59533  29.071  36.002  12.954
87186W        W59534  11.313   6.691  10.076
87187W        W59535  34.377  24.013   3.651
87188W        W59536  31.466  15.707   3.209
87189W        W59537  32.576  42.429   2.822
87190W        W59538  15.765  23.126   2.184
87191W        W59539  39.960  44.503  10.920
87192W        W59540   0.350  16.606  10.892
87193W        W59541   1.308   3.264   4.119
87194W        W59542   2.460  38.956   1.835
87195W        W59543  38.992  43.433  13.446
87196W        W59544   4.251  35.051   2.395
87197W        W59545  38.508   9.664   3.785
87198W        W59546  15.726   4.428  12.824
87199W        W59547   2.464  18.116   3.273
87200W        W59548  37.082  19.607  14.785
87201W        W59549  39.341  44.974   1.859
87202W        W59550  25.534   8.772   0.281
87203W        W59551  29.073  16.776  14.513
87204W        W59552  38.448  39.847  11.570
87205W        W59553  32.452  30.073   4.805
87206W        W59554  37.942   2.389  11.997
87207W        W59555  26.142  32.951  13.459
87208W        W59556  20.550   0.252   1.388
87209W        W59557  21.661  28.577  10.414
87210W        W59558  13.341  15.621  10.073
87211W        W59559   4.225  15.717   5.161
87212W        W59560  23.510   9.157   2.345
87213W        W59561  39.046   1.481  10.555
87214W        W59562  37.356   6.921   3.247
87215W        W59563  15.609  38.532  13.352
87216W        W59564   7.259  15.223  12.956
87217W        W59565   6.768  13.219   4.649
87218W        W59566  18.194   4.827   0.814
87219W        W59567  36.544  27.647  11.862
87220W        W59568  37.417  40.367  14.021
87221W        W59569  39.522  34.449   2.184
87222W        W59570  30.116  19.721   2.828
87223W        W59571  25.975  22.221  11.122
87224W        W59572  32.132   6.779  14.351
87225W        W59573   5.341  14.589  13.824
87226W        W59574  19.271   1.837  10.492
87227W        W59575   7.314  44.370  11.569
87228W        W59576  38.336  40.528  12.020
87229W        W59577  11.631  39.035  14.766
87230W        W59578  22.656   0.747   4.204
87231W        W59579  13.745  39.841  11.932
87232W        W59580  35.421  14.313   3.702
87233W        W59581  24.536  22.577  10.637
87234W        W59582  22.177  26.137   1.416
87235W        W59583  23.024  19.591   2.747
87236W        W59584  36.498  16.189   1.432
87237W        W59585   1.238   6.338  11.906
87238W        W59586   1.298  24.540   4.610
87239W        W59587  19.729   6.370   4.618
87240W        W59588  37.370   1.477  11.606
87241W        W59589  32.637  28.035  13.937
87242W        W59590  14.814  24.076   2.819
87243W        W59591  33.593  28.599   4.665
87244W        W59592   5.299  34.865   2.328
87245W        W59593  14.785  29.564  13.329
87246W        W59594  40.381  40.941  11.406
87247W        W59595  35.882   2.724  11.417
87248W        W59596  42.526  26.466   2.247
87249W        W59597  12.702  40.019  14.499
87250W        W59598   0.345  34.611   4.346
87251W        W59599  12.656   6.373  12.469
87252W        W59600  11.265  26.145   0.827
87253W        W59601  18.617   7.308  10.995
87254W        W59602  23.518  21.745   1.930
87255W        W59603  40.541   5.407   4.621
87256W        W59604  22.744  35.861  11.898
87257W        W59605  34.086   5.222  11.045
87258W        W59606  11.324  44.892   1.379
87259W        W59607   9.706  37.522   4.711
87260W        W59608  18.268   9.866   2.857
87261W        W59609  21.607  38.001   2.400
87262W        W59610   3.734  30.127  14.917
87263W        W59611  32.581  32.994   1.748
87264W        W59612   2.850   4.914   3.669
87265W        W59613  41.358  32.914   3.319
87266W        W59614   9.379  22.734   4.801
87267W        W59615  22.135  24.212   3.178
87268W        W59616   6.203  23.240  12.360
87269W        W59617  25.027  17.688  14.872
87270W        W59618   9.671  13.720  14.284
87271W        W59619   1.740  13.681  12.441
87272W        W59620  16.185  40.832   0.447
87273W        W59621   4.709  15.714   5.142
87274W        W59622  31.966  35.991  12.908
87275W        W59623  40.351  42.837   5.198
87276W        W59624   2.331   6.685  14.964
87277W        W59625   3.453  30.587   0.269
87278W        W59626   6.685  19.588   1.730
87279W        W59627  32.901  41.459  12.354
87280W        W59628   0.355  38.888  10.541
87281W        W59629   4.821   0.437   2.874
87282W        W59630  42.022  40.371   1.337
87283W        W59631  43.943  10.806   3.748
87284W        W59632  18.611  42.416  10.997
87285W        W59633   2.894  22.662  12.368
87286W        W59634  21.581   8.265   4.706
87287W        W59635  20.211   4.762  14.812
87288W        W59636   7.704  42.410  10.564
87289W        W59637  15.597  10.710   3.297
87290W        W59638  15.192  33.598  10.606
87291W        W59639  12.835  41.370  10.411
87292W        W59640  37.378  28.939   0.410
87293W        W59641  44.331  27.037   0.898
87294W        W59642  39.487  34.079   4.204
87295W        W59643   8.358  31.111  10.994
87296W        W59644  22.190  16.092  14.433
87297W        W59645   2.867  16.204   4.734
87298W        W59646  14.623  33.431  10.903
87299W        W59647   3.816  22.183  14.023
87300W        W59648  13.210  39.042  12.454
87301W        W59649  33.428  16.811   0.253
87302W        W59650  29.611   7.230  12.502
87303W        W59651  15.709  40.381  13.791
87304W        W59652   8.773  24.527   0.906
87305W        W59653   7.859  13.165   4.643
87306W        W59654   1.418  23.006  14.388
87307W        W59655  32.925  39.553   4.611
87308W        W59656   3.264  26.954  12.573
87309W        W59657  43.912  26.498  10.901
87310W        W59658   5.312   6.301  12.880
87311W        W59659   4.211  24.061   1.895
87312W        W59660  11.789  22.009   0.895
87313W        W59661  27.625  18.572  10.499
87314W        W59662  22.172  14.146  11.905
87315W        W59663  24.000  39.058   5.121
87316W        W59664  33.927  43.457  14.909
87317W        W59665  42.981  18.102   2.263
87318W        W59666  35.368  43.965  11.393
87319W        W59667  44.403  37.075  11.405
87320W        W59668   9.760   5.834   0.884
87321W        W59669   4.861  34.528   1.450
87322W        W59670  18.614  13.701   3.366
87323W        W59671   2.813  32.020   4.650
87324W        W59672  41.795   4.767  14.505
87325W        W59673  38.830  29.008  11.518
87326W        W59674   0.285  30.458  14.004
87327W        W59675   3.726   6.782   0.933
87328W        W59676  22.617   1.375  13.998
87329W        W59677  23.051  36.021   1.397
87330W        W59678  43.961   6.828  14.379
87331W        W59679   8.824   6.425  13.413
87332W        W59680  24.033  14.617   0.318
87333W        W59681  27.036  30.523   1.769
87334W        W59682  24.975  29.604   1.419
87335W        W59683  19.679  20.587  13.036
87336W        W59684  25.664  43.500   4.335
87337W        W59685  13.154  24.169   4.192
87338W        W59686  36.384  29.036   1.884
87339W        W59687   4.276   3.741  11.596
87340W        W59688  17.176  25.537   4.757
87341W        W59689  35.855  12.653  13.452
87342W        W59690  21.046  37.947  10.640
87343W        W59691  36.031  36.416  11.878
87344W        W59692  37.840  21.072  12.846
87345W        W59693  19.551  42.293   3.173
87346W        W59694  26.162  23.087   3.355
87347W        W59695   6.355  43.329   0.271
87348W        W59696   6.250  38.916   0.244
87349W        W59697  11.176  38.876   4.277
87350W        W59698  33.534  44.482   0.414
87351W        W59699  21.678  10.294   1.921
87352W        W59700  16.714  25.622  13.339
87353W        W59701  20.089  44.867  12.532
87354W        W59702   3.457  40.347   1.259
87355W        W59703  37.868  34.467   3.826
87356W        W59704   3.734  44.827  12.411
87357W        W59705  35.906  41.489   3.321
87358W        W59706  11.134  16.090  13.059
87359W        W59707  28.087  31.089   4.331
87360W        W59708  28.143  25.035   5.131
87361W        W59709  43.487   3.367   4.743
87362W        W59710  31.114  35.919   2.861
87363W        W59711   3.814   9.854   4.733
87364W        W59712  31.542  29.479   0.374
87365W        W59713  16.076  11.236  13.528
87366W        W59714  18.172  37.492  11.064
87367W        W59715  40.545  41.886   3.179
87368W        W59716  23.099   8.764  14.789
87369W        W59717   5.700  28.517  10.894
87370W        W59718  41.327  40.411   2.302
87371W        W59719   5.265  33.052   2.227
87372W        W59720  16.091  41.507   3.687
87373W        W59721  32.921  14.190   3.647
87374W        W59722   4.413  29.429  11.916
87375W        W59723  38.948   5.427   0.910
87376W        W59724  13.202   6.311  10.984
87377W        W59725   3.885  44.982  12.090
87378W        W59726  18.779   5.905  10.622
87379W        W59727  36.947  14.301   0.727
87380W        W59728  40.855  28.179  10.420
87381W        W59729   3.425  32.455   3.845
87382W        W59730  23.141  25.029  14.835
87383W        W59731   4.386  20.101   1.232
87384W        W59732  12.754  37.466  12.088
87385W        W59733   6.290  25.059   0.419
87386W        W59734  33.493  43.442   0.914
87387W        W59735  21.086  13.732   1.363
87388W        W59736  19.620   0.478  12.947
87389W        W59737   1.777  39.896   0.869
87390W        W59738   2.412   2.770   4.241
87391W        W59739  24.991  38.435   4.829
87392W        W59740  41.341  43.872  12.065
87393W        W59741  40.948  30.532   4.157
87394W        W59742   8.728   6.755   3.734
87395W        W59743  37.972  16.661  10.470
87396W        W59744  14.318  34.041   4.666
87397W        W59745   4.856  42.870   4.120
87398W        W59746   4.821   8.326  10.504
87399W        W59747  19.177  35.602  14.340
87400W        W59748  42.293  27.488  14.301
87401W        W59749  22.575  12.223   3.681
87402W        W59750  13.726  23.636   0.759
87403W        W59751  34.885  19.060   0.409
87404W        W59752  34.904  19.058   2.363
87405W        W59753  21.224  37.976   0.931
87406W        W59754   0.421   0.841  14.845
87407W        W59755  32.068  33.385  10.601
87408W        W59756  22.172  15.658   2.185
87409W        W59757  29.088   6.202   2.707
87410W        W59758  15.661   1.843  11.956
87411W        W59759  35.031   3.365   0.961
87412W        W59760  34.545   3.717  12.565
87413W        W59761   2.302  44.316   1.802
87414W        W59762  26.485  16.801   2.303
87415W        W59763  39.329  27.486   3.810
87416W        W59764   5.811  20.753  11.598
87417W        W59765  27.083  37.387   1.264
87418W        W59766  26.078  36.987   1.830
87419W        W59767   8.770  30.060   1.935
87420W        W59768  43.291  31.015  12.915
87421W        W59769  33.938  10.700  10.917
87422W        W59770  19.754  39.846  10.534
87423W        W59771  30.529  24.689   3.729
87424W        W59772  40.986  18.764  14.294
87425W        W59773  36.449  19.770  13.519
87426W        W59774   0.449  21.182   0.399
87427W        W59775  39.812  13.269   0.821
87428W        W59776  12.284   4.396   1.212
87429W        W59777  15.304  37.538   2.180
87430W        W59778   8.266  40.460   0.909
87431W        W59779  11.638  23.216  12.947
87432W        W59780   7.693   6.891  11.482
87433W        W59781  41.857  41.924   1.835
87434W        W59782  11.147   7.815   1.859
87435W        W59783  16.728  22.171  14.315
87436W        W59784   3.823  35.061  10.601
87437W        W59785  27.098  43.388   0.314
87438W        W59786  24.605   8.383  12.894
87439W        W59787  40.049  18.210   3.303
87440W        W59788  42.886  10.663   3.630
87441W        W59789  40.958  24.029   1.805
87442W        W59790  40.808   3.839  13.009
87443W        W59791  41.408  10.838  14.798
87444W        W59792  19.614  11.284   9.970
87445W        W59793  18.093   5.718   1.267
87446W        W59794  28.943   7.865   4.834
87447W        W59795   4.434  42.315  10.570
87448W        W59796   6.425  25.018   1.441
87449W        W59797   7.338  13.752   4.324
87450W        W59798  18.623  16.176   2.828
87451W        W59799   9.850  10.378  13.980
87452W        W59800  21.606  35.498  14.848
87453W        W59801  18.765  39.021  13.425
87454W        W59802  37.054  37.453  10.940
87455W        W59803  18.249  41.474   4.176
87456W        W59804  18.608  33.958  11.000
87457W        W59805  18.067  30.487  12.825
87458W        W59806   7.349  20.747  11.426
87459W        W59807  16.155  30.077  11.382
87460W        W59808  29.594  41.874   2.278
87461W        W59809  39.057  25.073  11.453
87462W        W59810  23.585   5.311   0.425
87463W        W59811  17.570  34.541  14.885
87464W        W59812  26.004   4.432   4.259
87465W        W59813  20.623   4.742  14.376
87466W        W59814   8.358  18.588   2.321
87467W        W59815   6.919  24.674  10.895
87468W        W59816  33.397  14.276  11.532
87469W        W59817  16.119   5.703  10.497
87470W        W59818  14.594  35.588  14.999
87471W        W59819  39.954  31.966   1.387
87472W        W59820  40.993  15.150   4.176
87473W        W59821  35.059  30.647   3.383
87474W        W59822  15.313  22.205  11.013
87475W        W59823  30.095  24.162   4.342
87476W        W59824   8.708  44.276   4.761
87477W        W59825  13.147  14.176  13.442
87478W        W59826  32.593   4.403  13.467
87479W        W59827  36.464  19.730   3.818
87480W        W59828  26.506  44.765  12.470
87481W        W59829   0.840  17.223  13.800
87482W        W59830   6.261  22.242  13.824
87483W        W59831  27.061  32.540   4.256
87484W        W59832  13.767   8.326   3.799
87485W        W59833   5.305  35.603   0.426
87486W        W59834  19.180   4.731   3.629
87487W        W59835  35.525  30.454   4.723
87488W        W59836  24.033  28.111  11.391
87489W        W59837  42.466  24.208  10.608
87490W        W59838  33.043  18.573  12.978
87491W        W59839  10.159  44.925  13.860
87492W        W59840   9.203   7.257  14.773
87493W        W59841  17.658  15.693  12.580
87494W        W59842  16.574   0.467   2.834
87495W        W59843   8.214  22.647   0.966
87496W        W59844   7.257   7.703  12.999
87497W        W59845  19.250   9.822  12.535
87498W        W59846  44.909  12.199  12.961
87499W        W59847  30.156  22.581   0.907
87500W        W59848  34.410  40.882   3.851
87501W        W59849  26.638  19.692  12.938
87502W        W59850   3.329  41.528   0.861
87503W        W59851  22.168  42.485   1.215
87504W        W59852  27.142  27.526   2.342
87505W        W59853  32.991   2.869  12.930
87506W        W59854  28.139  31.465   1.233
87507W        W59855  41.469  32.109   1.329
87508W        W59856  44.300  30.930   3.214
87509W        W59857  15.309  40.925   0.863
87510W        W59858   7.346   0.896   0.251
87511W        W59859  23.180  13.271  12.017
87512W        W59860  18.173  25.604   0.320
87513W        W59861  24.066  42.924   4.270
87514W        W59862  36.061  29.458  10.892
87515W        W59863  16.299   6.255   4.128
87516W        W59864  24.689   3.266   3.330
87517W        W59865  21.720  18.277   2.412
87518W        W59866   7.249  38.453  14.332
87519W        W59867  17.633  19.546  14.408
87520W        W59868  33.549   7.252  13.034
87521W        W59869  36.033   6.339  14.479
87522W        W59870   4.414  28.182  13.027
87523W        W59871   2.951  41.946  11.097
87524W        W59872  32.613  11.841   1.241
87525W        W59873  35.357  16.225   4.692
87526W        W59874  21.657  44.338  11.444
87527W        W59875  23.736  32.418   1.213
87528W        W59876  12.651  31.902   4.328
87529W        W59877  36.540  39.540   0.865
87530W        W59878   9.800  36.059   4.223
87531W        W59879  18.697  37.903  10.463
87532W        W59880   2.273  43.804   1.324
87533W        W59881  41.478   9.827   3.791
87534W        W59882  43.398  27.128   0.948
87535W        W59883  29.667  17.114   4.832
87536W        W59884  44.384  25.485  12.922
87537W        W59885  11.261  41.361   1.392
87538W        W59886  21.708  27.048  14.361
87539W        W59887   5.193  34.530  10.931
87540W        W59888  15.324   7.685  10.572
87541W        W59889   0.868  44.919  11.867
87542W        W59890   4.339  21.094  13.425
87543W        W59891   6.224  27.549   0.345
87544W        W59892  43.509   7.185   1.350
87545W        W59893  15.269  23.728  14.921
87546W        W59894  40.996   4.755  13.002
87547W        W59895   6.307  10.733  12.431
87548W        W59896   6.214   9.237  12.947
87549W        W59897   1.383  19.616   1.768
87550W        W59898  40.904  34.901   2.359
87551W        W59899   1.848   5.714  13.946
87552W        W59900  41.315  36.949   1.853
87553W        W59901  34.043   3.750  11.422
87554W        W59902  12.218  28.547  13.960
87555W        W59903  17.641  20.619   3.669
87556W        W59904  32.974   7.744  14.920
87557W        W59905  23.646  10.229   3.644
87558W        W59906  41.908  36.499   1.218
87559W        W59907  24.025   8.786  14.867
87560W        W59908  11.178  10.202  10.901
87561W        W59909  15.292  18.109  13.983
87562W        W59910  20.086  34.452  10.427
87563W        W59911  34.539  15.654   0.918
87564W        W59912  25.115  20.070   1.759
87565W        W59913  13.603  43.994  11.895
87566W        W59914  24.213  16.200   1.933
87567W        W59915  33.003  32.508   2.726
87568W        W59916  33.428  28.057  12.508
87569W        W59917  14.198  28.492   0.472
87570W        W59918  27.549  11.757  13.062
87571W        W59919  37.978  42.871  13.395
87572W        W59920   2.397   1.804  10.035
87573W        W59921  41.797  33.520   2.742
87574W        W59922   4.711  28.080  13.356
87575W        W59923  12.199  31.551   3.362
87576W        W59924  16.723   2.869  14.025
87577W        W59925  14.333  34.524   4.279
87578W        W59926   2.790  32.456  12.080
87579W        W59927  39.059  11.314   4.238
87580W        W59928  34.887   6.268   1.827
87581W        W59929  11.633  36.965  14.516
87582W        W59930  39.549  25.980  12.030
87583W        W59931   1.973  36.865  10.511
87584W        W59932  32.509  26.603  12.487
87585W        W59933   6.800  29.550   4.732
87586W        W59934   7.844  38.427   3.742
87587W        W59935  26.697   5.383   4.637
87588W        W59936  17.671  31.495   1.747
87589W        W59937  30.967  26.130  14.911
87590W        W59938   8.713  30.567   0.264
87591W        W59939  17.746  14.122   1.233
87592W        W59940   8.392  33.048   1.867
87593W        W59941  17.625  44.382  12.860
87594W        W59942   2.451  32.047  14.761
87595W        W59943   6.260   8.392   3.770
87596W        W59944  39.467  43.978   2.702
87597W        W59945   5.319  21.562   3.184
87598W        W59946  42.863  15.746  12.835
87599W        W59947  27.040   3.383   1.736
87600W        W59948  26.208  11.172   1.222
87601W        W59949  26.188  42.527   2.838
87602W        W59950  11.651  11.326  12.823
87603W        W59951   9.197  38.342   2.835
87604W        W59952  26.074  39.945   4.838
87605W        W59953   8.249  17.202   3.711
87606W        W59954   3.927  25.065  14.813
87607W        W59955   2.941  23.648  12.354
87608W        W59956  13.257  28.503   4.765
87609W        W59957  21.178  32.084  11.574
87610W        W59958   3.384  10.242   0.797
87611W        W59959  39.824   9.714   0.414
87612W        W59960  44.388  37.566  14.763
87613W        W59961  38.014  11.717   9.958
87614W        W59962  25.987  16.148   3.669
87615W        W59963  12.803  21.045  10.965
87616W        W59964  14.627  14.598   2.366
87617W        W59965  12.855  21.204  12.430
87618W        W59966  31.565  23.569  10.523
87619W        W59967  35.977  18.708   0.269
87620W        W59968  27.646  39.321   3.382
87621W        W59969  13.338  33.594   1.376
87622W        W59970  22.220   3.799  10.423
87623W        W59971  41.313  21.177   1.710
87624W        W59972  18.759  25.178  14.834
87625W        W59973  21.156   0.387  12.529
87626W        W59974  32.592  30.585   0.270
87627W        W59975  12.227  21.668   0.840
87628W        W59976   5.771  37.832  13.337
87629W        W59977   4.889  44.906  12.443
87630W        W59978   8.761  35.509  10.520
87631W        W59979  35.377   3.829  10.973
87632W        W59980  29.427  41.506  10.449
87633W        W59981  41.042  34.911   1.776
87634W        W59982  31.447  40.482  13.485
87635W        W59983  19.231  12.345  11.995
87636W        W59984  43.886  32.910   0.924
87637W        W59985  26.053  22.036   0.808
87638W        W59986  35.967  40.931   3.849
87639W        W59987   9.752  35.378   4.794
87640W        W59988   3.237  31.410   4.767
87641W        W59989   7.906  36.903  13.907
87642W        W59990  11.274   4.731  11.384
87643W        W59991  40.466  12.646   0.433
87644W        W59992  12.162  11.691   0.260
87645W        W59993  29.454  16.245  11.495
87646W        W59994  26.183   5.349  10.534
87647W        W59995   5.311  12.757  10.583
87648W        W59996  38.328  27.671   1.408
87649W        W59997   7.845  11.289   3.249
87650W        W59998   0.939  33.127   3.688
87651W        W59999  29.932  32.425   4.299
87652W        W60000  38.537  38.975   4.794
87653W        W60001  38.833  25.071  10.462
87654W        W60002   1.948  43.926  12.004
87655W        W60003   2.962  12.744   2.808
87656W        W60004   9.776  34.966   3.704
87657W        W60005  12.211  23.499   4.609
87658W        W60006  27.959   6.856  11.122
87659W        W60007   6.772  13.690  11.053
87660W        W60008   5.716  24.723   0.268
87661W        W60009  24.483  32.547  12.031
87662W        W60010  12.626  12.746  12.578
87663W        W60011  24.561  22.593  13.848
87664W        W60012  19.202  26.208  13.946
87665W        W60013  17.303  26.565   0.338
87666W        W60014  40.367  22.735   5.243
87667W        W60015  10.819  31.502   3.376
87668W        W60016  11.820  13.756   1.816
87669W        W60017  42.363   4.736   3.775
87670W        W60018  16.679  23.045   3.319
87671W        W60019  11.768   8.400  13.326
87672W        W60020  31.466  35.980  10.896
87673W        W60021   7.319  30.655  14.442
87674W        W60022  34.409   0.426  11.551
87675W        W60023  43.390  11.648   2.347
87676W        W60024  18.661  31.584  12.486
87677W        W60025   7.891  21.124   3.239
87678W        W60026   1.748   2.458   1.382
87679W        W60027  18.665  30.033  11.403
87680W        W60028   8.354  21.561   4.636
87681W        W60029  33.021  22.702   1.419
87682W        W60030  17.228  14.316   0.403
87683W        W60031  37.892  33.996  12.385
87684W        W60032  25.027   5.419  11.414
87685W        W60033   9.749  40.394   0.879
87686W        W60034   5.723  36.919   4.674
87687W        W60035  40.351  34.944  11.939
87688W        W60036  36.011  22.130   4.752
87689W        W60037  27.606  12.316   0.938
87690W        W60038  18.550  43.358   0.477
87691W        W60039  40.865  11.847   4.185
87692W        W60040   9.825  29.554  14.819
87693W        W60041  23.199   4.332   1.773
87694W        W60042   0.385  20.163   3.636
87695W        W60043   4.339   3.918   1.323
87696W        W60044  32.500   2.438   3.725
87697W        W60045   7.676  43.771   4.815
87698W        W60046  37.982  16.135  13.815
87699W        W60047  33.414  10.373   4.130
87700W        W60048  25.490  43.459   1.916
87701W        W60049   6.720   8.248   2.372
87702W        W60050  23.992  27.502   3.705
87703W        W60051  38.067  40.035  13.799
87704W        W60052  15.274  41.792  11.058
87705W        W60053   8.779  23.995  14.973
87706W        W60054  39.465  25.191  12.074
87707W        W60055  20.088   2.402   1.835
87708W        W60056   6.378  11.811   3.715
87709W        W60057  28.442  37.570  12.827
87710W        W60058  32.468  43.406  12.986
87711W        W60059  19.171  28.602  13.846
87712W        W60060  19.724  26.028   0.748
87713W        W60061  43.413  39.457   0.252
87714W        W60062  39.014  26.035   1.372
87715W        W60063   3.270  40.896  12.838
87716W        W60064   4.924  43.514   0.868
87717W        W60065  13.233  26.176   3.731
87718W        W60066   0.353  12.815   4.226
87719W        W60067  32.987  13.186   2.354
87720W        W60068  36.390   8.729  11.011
87721W        W60069  12.677  32.518   4.194
87722W        W60070  18.646  26.557  10.456
87723W        W60071  42.784  24.170   4.684
87724W        W60072  19.741  14.782   2.246
87725W        W60073  15.712  17.094   3.807
87726W        W60074  44.856  33.498   1.383
87727W        W60075  20.687  28.672  11.911
87728W        W60076   5.873  37.979   3.845
87729W        W60077  36.539  15.218   0.356
87730W        W60078  14.132  37.873   4.628
87731W        W60079  14.334   6.676  11.914
87732W        W60080  20.730  43.856  12.467
87733W        W60081  21.723  20.548   1.397
87734W        W60082  43.330  36.017  12.520
87735W        W60083  42.994   9.872   0.439
87736W        W60084  41.931  10.781   4.119
87737W        W60085  42.925   6.875   1.879
87738W        W60086   3.312  24.154   1.364
87739W        W60087  23.029  14.612  12.016
87740W        W60088   9.780   8.301  14.296
87741W        W60089   2.315  24.001   4.723
87742W        W60090  29.150  33.402  13.959
87743W        W60091  14.598  14.292   9.501
87744W        W60092  35.438   3.230  11.052
87745W        W60093   1.459  15.306  13.871
87746W        W60094  24.711  11.652   3.353
87747W        W60095  34.462  21.091  10.591
87748W        W60096  12.346  25.676   3.208
87749W        W60097  44.370   1.910  11.106
87750W        W60098  44.951   3.813  14.962
87751W        W60099  41.038  13.767  14.513
87752W        W60100   0.363   0.403   2.411
87753W        W60101   7.779  14.334   4.324
87754W        W60102  17.122  10.200   3.696
87755W        W60103  26.541  30.928  11.486
87756W        W60104  12.198   6.211   3.841
87757W        W60105  30.468  20.249   1.752
87758W        W60106   4.914  18.262   3.226
87759W        W60107   4.782   9.285   0.385
87760W        W60108  21.585  30.650   3.821
87761W        W60109   6.384  12.826  12.478
87762W        W60110   8.219   4.275  10.563
87763W        W60111  24.071  16.721  13.859
87764W        W60112  10.155  16.741  12.411
87765W        W60113  39.882  39.496  12.922
87766W        W60114  20.528  12.725  13.354
87767W        W60115  34.546  20.163   0.735
87768W        W60116  36.384  35.039   9.999
87769W        W60117  24.645  22.586  11.033
87770W        W60118   2.439  39.953   2.770
87771W        W60119   2.925  24.178  13.978
87772W        W60120  19.201  40.928   1.332
87773W        W60121   2.378   3.727   2.240
87774W        W60122  27.153  44.799  12.580
87775W        W60123  27.977  18.073   5.199
87776W        W60124  40.924  43.990  11.485
87777W        W60125   4.807  11.748   3.634
87778W        W60126   9.675  25.173  13.443
87779W        W60127  34.437  42.358   0.829
87780W        W60128  28.670   5.860  14.843
87781W        W60129  37.022  19.735  14.400
87782W        W60130  23.227  29.475  14.284
87783W        W60131  25.549  17.672   4.137
87784W        W60132  17.736  38.462  11.462
87785W        W60133  10.789  27.593  14.421
87786W        W60134  40.046   0.282  11.607
87787W        W60135  13.711  36.463  11.521
87788W        W60136  33.603  17.159   4.666
87789W        W60137  29.532  42.293  10.413
87790W        W60138   6.891  31.623  14.277
87791W        W60139   6.875   2.922   1.759
87792W        W60140  29.001  20.672   0.948
87793W        W60141  21.093   3.911   4.614
87794W        W60142  11.760   3.766  13.391
87795W        W60143  12.236  15.234  12.021
87796W        W60144  12.805  21.219  11.435
87797W        W60145  27.501  32.635  12.093
87798W        W60146   8.205  31.152  12.022
87799W        W60147  42.776   8.332   3.815
87800W        W60148  27.642  25.202   2.847
87801W        W60149  36.090  31.029   0.430
87802W        W60150   4.914  22.153   1.894
87803W        W60151  40.873  40.935  12.059
87804W        W60152  32.410  12.271  12.085
87805W        W60153  27.659   2.904  12.912
87806W        W60154  33.516  15.797   3.774
87807W        W60155  29.550  17.128  14.862
87808W        W60156  19.772   9.310  14.840
87809W        W60157  40.858  23.706  13.455
87810W        W60158  11.197  42.379  13.972
87811W        W60159  18.684  32.963   3.374
87812W        W60160  29.429  31.542   0.906
87813W        W60161  44.495   2.322  10.420
87814W        W60162  19.713  24.224   1.443
87815W        W60163  12.823  13.600  13.509
87816W        W60164  21.262   9.752   3.778
87817W        W60165  15.596   8.248   4.278
87818W        W60166  27.954  26.015   0.871
87819W        W60167  26.003  18.280  13.507
87820W        W60168  16.647  24.652  11.978
87821W        W60169   5.816  39.362  14.890
87822W        W60170   8.168   1.883   0.947
87823W        W60171  20.085  23.156  11.993
87824W        W60172  13.239  14.191  14.826
87825W        W60173  34.000  19.115  11.479
87826W        W60174  11.794  32.000   0.948
87827W        W60175  29.581  22.134   3.705
87828W        W60176  20.764  37.957  11.534
87829W        W60177  22.688  18.273  14.933
87830W        W60178   8.743  22.584  12.005
87831W        W60179  36.390   5.247   5.132
87832W        W60180   8.236  11.639  13.341
87833W        W60181  26.631  27.575   3.866
87834W        W60182  35.550  44.965   3.200
87835W        W60183  35.996  35.089  13.869
87836W        W60184  17.582   2.842   3.275
87837W        W60185  20.644   7.315  13.349
87838W        W60186  19.050   4.786  14.306
87839W        W60187   7.313  42.474   4.323
87840W        W60188   7.679  24.689  14.475
87841W        W60189   9.225  34.445   0.470
87842W        W60190   8.347  25.038   3.646
87843W        W60191  44.877  39.954  11.566
87844W        W60192  31.914  32.904  14.946
87845W        W60193  44.382  18.705   0.374
87846W        W60194   1.268  23.612  13.889
87847W        W60195  32.999   1.753  13.505
87848W        W60196  17.758  18.290   4.324
87849W        W60197   5.295  44.334   2.689
87850W        W60198  30.927  24.542  12.856
87851W        W60199  26.176   3.432  11.475
87852W        W60200   4.284  25.166  13.818
87853W        W60201   3.419   3.296  10.108
87854W        W60202  43.379  16.273  12.003
87855W        W60203  19.690  30.507   2.355
87856W        W60204  31.420  24.098   1.862
87857W        W60205  14.120   5.747   1.400
87858W        W60206  20.658   8.322   0.255
87859W        W60207  41.329  42.359  14.810
87860W        W60208  38.459  21.136   4.809
87861W        W60209   2.254  21.036  12.474
87862W        W60210  10.329  31.574  12.014
87863W        W60211  34.903  32.613   3.736
87864W        W60212  38.441  15.158  13.430
87865W        W60213   2.335  12.673   0.878
87866W        W60214   9.225  15.681  14.954
87867W        W60215  38.469  40.315   2.344
87868W        W60216  12.284  43.465   3.816
87869W        W60217  24.500   2.413  13.434
87870W        W60218  25.050  44.352   4.343
87871W        W60219   9.826  11.788   1.728
87872W        W60220  40.049  40.364   4.329
87873W        W60221  13.232  37.022  12.978
87874W        W60222  41.512  41.495  13.491
87875W        W60223   2.402  39.502   4.309
87876W        W60224  28.977   2.847  13.513
87877W        W60225  20.134  32.435   2.393
87878W        W60226   7.856  10.693   2.320
87879W        W60227  33.381   7.412   2.866
87880W        W60228  43.379   0.251   2.413
87881W        W60229  34.102  43.485  14.453
87882W        W60230   3.929  15.182  10.442
87883W        W60231  37.919   7.707   5.298
87884W        W60232  29.652  44.786   4.757
87885W        W60233  39.512   5.931   4.613
87886W        W60234  17.140   2.932   0.968
87887W        W60235  39.873   2.771  14.801
87888W        W60236  23.053  41.900  10.994
87889W        W60237  36.073  40.983   1.309
87890W        W60238  44.432   9.152  12.503
87891W        W60239  13.629  15.216  14.893
87892W        W60240  25.667  25.964   2.321
87893W        W60241  18.146   3.330   3.792
87894W        W60242   2.924  13.641   2.337
87895W        W60243  12.838  15.625  14.303
87896W        W60244   6.855  11.657  10.988
87897W        W60245  39.489   6.217  14.411
87898W        W60246  41.837  15.232   1.931
87899W        W60247  21.263   9.341  12.876
87900W        W60248  36.468  20.694  11.918
87901W        W60249   3.348  14.649  10.495
87902W        W60250  27.609  41.485   1.804
87903W        W60251  36.877  14.165  14.494
87904W        W60252  13.327  27.614   4.223
87905W        W60253   8.297  37.881  14.333
87906W        W60254  13.305  31.039   3.151
87907W        W60255  19.710   6.293   2.860
87908W        W60256  35.397  31.977   1.917
87909W        W60257  28.668  41.038   1.709
87910W        W60258  17.781  40.812  13.424
87911W        W60259  15.682  26.956   4.160
87912W        W60260  41.981  16.719  13.312
87913W        W60261  11.698  33.611  13.480
87914W        W60262   5.908  10.638   4.303
87915W        W60263  32.509  37.566   3.386
87916W        W60264  30.427   2.722   3.153
87917W        W60265   2.415  24.210  14.504
87918W        W60266   7.305  26.505   3.187
87919W        W60267  40.929  18.146   0.262
87920W        W60268  27.101  21.082  10.424
87921W        W60269  24.075  18.224  11.606
87922W        W60270  41.294  36.357  11.578
87923W        W60271  25.037  39.039  13.365
87924W        W60272  31.131  25.570  14.866
87925W        W60273  11.287  23.196   4.162
87926W        W60274  15.316  17.149  12.554
87927W        W60275  18.124  18.679  13.009
87928W        W60276  28.563  29.090   3.829
87929W        W60277  21.078  22.614  14.415
87930W        W60278  17.655  27.587  11.058
87931W        W60279  11.190  32.029  14.872
87932W        W60280  25.136  22.515   2.211
87933W        W60281  29.562  44.280   4.234
87934W        W60282  40.524  27.193   2.857
87935W        W60283  30.953  14.217   0.466
87936W        W60284   7.705  12.146  13.511
87937W        W60285  31.428  28.962  12.928
87938W        W60286  30.998  38.381  13.009
87939W        W60287   8.696  31.563  11.037
87940W        W60288  35.602  18.765  12.886
87941W        W60289  27.557   6.817  14.356
87942W        W60290  12.654  37.879  13.514
87943W        W60291  42.347  36.470  12.006
87944W        W60292  28.022  11.837  11.578
87945W        W60293  13.764  23.027   1.443
87946W        W60294   2.350  15.819  12.061
87947W        W60295  10.302  25.651   1.404
87948W        W60296  36.908  20.075  13.854
87949W        W60297  27.161  40.468  14.812
87950W        W60298  30.139   7.324   3.189
87951W        W60299   6.848  44.941   2.190
87952W        W60300  40.959  10.698  12.358
87953W        W60301  17.263   0.393  12.824
87954W        W60302  19.192   1.778  12.467
87955W        W60303  32.912  41.009  10.632
87956W        W60304  31.480   5.702   3.166
87957W        W60305  41.366  20.170   0.948
87958W        W60306  13.846  14.792  11.894
87959W        W60307   0.753  20.217   0.247
87960W        W60308  16.698  38.411  13.806
87961W        W60309  31.441  39.038   3.263
87962W        W60310  18.670   8.883   3.748
87963W        W60311  18.256  14.742  11.897
87964W        W60312   5.268  31.921   4.730
87965W        W60313  35.598  41.467  13.538
87966W        W60314  19.208  33.515   2.867
87967W        W60315  39.893  28.952   3.213
87968W        W60316  12.314   6.290   4.614
87969W        W60317  22.627  26.119  13.398
87970W        W60318  16.623  12.338  13.516
87971W        W60319  22.730  43.482   2.843
87972W        W60320  36.442  28.935   3.682
87973W        W60321  37.560  25.140  10.460
87974W        W60322  29.142   1.956   0.392
87975W        W60323  31.636   6.345  12.964
87976W        W60324  35.045  26.688   9.992
87977W        W60325  16.711  40.515  12.841
87978W        W60326  44.277  12.780   0.967
87979W        W60327   3.941  28.063   3.150
87980W        W60328  14.259  24.063   4.229
87981W        W60329  37.855  42.927  14.834
87982W        W60330  23.593  37.048   3.279
87983W        W60331  19.556  30.029  13.455
87984W        W60332   2.941  38.511   4.764
87985W        W60333  33.516  15.781  14.922
87986W        W60334  11.151   3.403   4.761
87987W        W60335  38.913  39.453  14.911
87988W        W60336   9.881   8.843   4.626
87989W        W60337  40.541  31.900   5.283
87990W        W60338  22.091  13.214   3.187
87991W        W60339  25.476  33.064   2.323
87992W        W60340  36.424   9.693  14.023
87993W        W60341  10.726   4.912   4.349
87994W        W60342   0.802  37.902  11.969
87995W        W60343  20.055  18.223  11.116
87996W        W60344  17.615  23.986   1.789
87997W        W60345  32.438  10.866   2.362
87998W        W60346  37.373  23.693   2.328
87999W        W60347  42.944  23.063  14.019
88000W        W60348  31.003  27.185  11.022
88001W        W60349   9.271  37.009   4.735
88002W        W60350   4.403   0.849   4.654
88003W        W60351  35.082  43.926   0.854
88004W        W60352  22.600  36.396   1.743
88005W        W60353   3.290  30.956  11.858
88006W        W60354  32.932   8.857   0.246
88007W        W60355  20.091  12.119  11.427
88008W        W60356   1.254  32.588   1.861
88009W        W60357  17.679  42.456   1.703
88010W        W60358  25.194   5.909   2.757
88011W        W60359  14.193  40.991   4.775
88012W        W60360  25.962  10.824   1.379
88013W        W60361   2.844  14.123  13.458
88014W        W60362  39.046  28.092  14.463
88015W        W60363  13.653   8.674   2.671
88016W        W60364  35.441  31.064   3.186
88017W        W60365  26.147  35.459   0.334
88018W        W60366  42.854  29.541  10.960
88019W        W60367  30.459  14.588  13.485
88020W        W60368  16.768  35.894   1.901
88021W        W60369  25.149  28.630  13.533
88022W        W60370   1.466  43.780  12.000
88023W        W60371  24.612  43.898  14.366
88024W        W60372   9.287  42.354  11.507
88025W        W60373   6.688  33.115   2.811
88026W        W60374  28.619  18.115  12.453
88027W        W60375  38.409  20.557  10.477
88028W        W60376  15.723  30.122   2.266
88029W        W60377  16.638  20.554   2.840
88030W        W60378  27.062  20.217  10.919
88031W        W60379  25.219  18.557   2.272
88032W        W60380  34.496  36.443   5.244
88033W        W60381  29.428  11.258   0.444
88034W        W60382  40.324  32.508   1.217
88035W        W60383  34.401  10.375   0.379
88036W        W60384  34.106  32.582  12.578
88037W        W60385  30.958  15.303  13.445
88038W        W60386  22.021  39.056   3.194
88039W        W60387  37.406  16.803  10.569
88040W        W60388  30.532  40.321   1.433
88041W        W60389  40.429  34.004  11.550
88042W        W60390  39.387  21.135  14.437
88043W        W60391  16.801  21.577   2.375
88044W        W60392   8.835  14.699   1.722
88045W        W60393  36.939   6.887  10.550
88046W        W60394  11.725   7.666  10.136
88047W        W60395  25.634  23.721  13.962
88048W        W60396  26.196   3.737   3.665
88049W        W60397   9.769  26.069  11.552
88050W        W60398  25.662   5.269   0.432
88051W        W60399  31.484  43.857  11.530
88052W        W60400  26.083  36.550  10.929
88053W        W60401  27.103  41.980   1.439
88054W        W60402  30.091   5.367   2.348
88055W        W60403  37.366  21.046   2.205
88056W        W60404  32.572  26.106  12.087
88057W        W60405   2.961   9.326  12.857
88058W        W60406  13.304  12.730  12.522
88059W        W60407  21.742  39.050   3.272
88060W        W60408  27.448  37.978   4.737
88061W        W60409  44.483  23.119  13.372
88062W        W60410   0.899  19.645   1.790
88063W        W60411  43.813   2.760   1.843
88064W        W60412   5.266   9.835   3.824
88065W        W60413  35.579  19.614   3.150
88066W        W60414   3.790  21.747   3.282
88067W        W60415  41.505   6.913   2.259
88068W        W60416   7.236  41.813  14.483
88069W        W60417   7.703  17.616  13.993
88070W        W60418   7.670  31.950   0.308
88071W        W60419  23.057  39.496  11.023
88072W        W60420  12.741   3.825   0.816
88073W        W60421  24.553  23.730  11.034
88074W        W60422  29.020  43.345  12.085
88075W        W60423  36.902  15.226  13.834
88076W        W60424  23.219  27.606   1.819
88077W        W60425  24.638   1.954   4.680
88078W        W60426  37.036   7.734  10.460
88079W        W60427   4.432  22.650   2.405
88080W        W60428  20.579  12.142  13.401
88081W        W60429  12.854  28.044  13.874
88082W        W60430  15.090  32.392   1.301
88083W        W60431  26.183  17.716  12.826
88084W        W60432   7.732  28.036   4.668
88085W        W60433  41.475  24.099   2.306
88086W        W60434  25.531  36.081   3.200
88087W        W60435  19.779  41.943   4.797
88088W        W60436  17.170  37.491   1.415
88089W        W60437   7.690   5.795   1.409
88090W        W60438  10.292  11.832  14.439
88091W        W60439  28.089  38.832   0.962
88092W        W60440  16.722  15.608   0.452
88093W        W60441  37.887  26.526  13.994
88094W        W60442  40.997   0.288  10.481
88095W        W60443  26.480  33.421  12.998
88096W        W60444  28.558  33.980  12.521
88097W        W60445  31.617  42.850   2.767
88098W        W60446   3.310  30.603  12.005
88099W        W60447  35.552  34.912  12.470
88100W        W60448  25.068   4.826  10.011
88101W        W60449  33.598   9.818   3.236
88102W        W60450  30.944  36.067   4.811
88103W        W60451  27.067  39.946  13.827
88104W        W60452  36.882  20.626   0.735
88105W        W60453  43.511  30.555   2.219
88106W        W60454  20.153  13.814   0.941
88107W        W60455   7.903  17.257   2.679
88108W        W60456  23.070  26.572  14.031
88109W        W60457  38.827   7.258  13.503
88110W        W60458  31.562  39.817  13.547
88111W        W60459   5.932  24.576   1.913
88112W        W60460  10.799  18.643  12.494
88113W        W60461  35.942  37.380  10.610
88114W        W60462  13.209  25.633   4.317
88115W        W60463   5.309  38.398   1.721
88116W        W60464  24.191   0.439   3.777
88117W        W60465  23.133  15.184  11.492
88118W        W60466  32.505  33.086  10.518
88119W        W60467   0.323   8.264  11.092
88120W        W60468  17.271  20.663  12.958
88121W        W60469   4.944  20.205  13.037
88122W        W60470   9.151   2.830   4.202
88123W        W60471  35.934  18.147  14.923
88124W        W60472  42.788  11.356  13.860
88125W        W60473  44.783  10.375   2.836
88126W        W60474  36.002  10.763  13.343
88127W        W60475  10.864   9.872  12.033
88128W        W60476  32.397  19.116  14.307
88129W        W60477  14.811  39.351  13.927
88130W        W60478   9.330  31.998  10.489
88131W        W60479  22.123  42.510   2.683
88132W        W60480  35.100  39.509  14.465
88133W        W60481  21.689  35.429  14.025
88134W        W60482  24.005   8.726  11.458
88135W        W60483  29.625   0.370   3.381
88136W        W60484  31.905  24.645  12.997
88137W        W60485  41.029  25.133  12.955
88138W        W60486  35.025  21.075   4.647
88139W        W60487  34.892  32.003   1.213
88140W        W60488  39.024  23.584  11.560
88141W        W60489  17.300  27.053   1.836
88142W        W60490  34.966   0.817   1.732
88143W        W60491  30.593  36.080  10.509
88144W        W60492   8.188  40.852   3.835
88145W        W60493   8.821  15.711   3.288
88146W        W60494  39.900   5.358   0.335
88147W        W60495  33.943  16.283   0.861
88148W        W60496   6.707  11.209  12.433
88149W        W60497  37.464  11.186   3.271
88150W        W60498  39.034  40.309  11.440
88151W        W60499  25.001  42.520   3.314
88152W        W60500  40.374   4.934   4.771
88153W        W60501  25.980   4.357  12.458
88154W        W60502   1.870  12.628   0.293
88155W        W60503  28.031  17.661   1.791
88156W        W60504  35.093  30.046  12.485
88157W        W60505   0.412   6.302   3.637
88158W        W60506   7.770  24.599   3.738
88159W        W60507  11.859  13.749  14.454
88160W        W60508  10.773   7.753  11.407
88161W        W60509  28.680  42.385   4.163
88162W        W60510  30.928  39.990   1.804
88163W        W60511  36.090  17.248  12.832
88164W        W60512  36.442   0.885  10.458
88165W        W60513  38.939   2.282  11.525
88166W        W60514  41.462   4.825   0.366
88167W        W60515   9.890  26.073  14.330
88168W        W60516  41.919  36.065   0.826
88169W        W60517  27.050   5.197  11.512
88170W        W60518  25.010  42.488  10.910
88171W        W60519  30.616   8.772   0.466
88172W        W60520  24.052  32.988   2.363
88173W        W60521  11.676  14.649  12.034
88174W        W60522  32.142  17.800  11.049
88175W        W60523  21.213  30.589  12.561
88176W        W60524  18.550   4.911   1.770
88177W        W60525  17.662   4.742   3.149
88178W        W60526   4.924  14.733  14.394
88179W        W60527   5.257   5.772  13.881
88180W        W60528  34.606  21.036  13.063
88181W        W60529  19.677  35.891  14.907
88182W        W60530  31.118  19.129  13.904
88183W        W60531  38.340  15.303  11.017
88184W        W60532  40.542  35.461   3.359
88185W        W60533  43.347  19.103   3.287
88186W        W60534  44.335  44.451   1.747
88187W        W60535  14.210  28.148   3.670
88188W        W60536  26.028  28.500   2.716
88189W        W60537  10.735  38.484   1.721
88190W        W60538  23.097  25.615   3.303
88191W        W60539  23.658  12.679  14.844
88192W        W60540   3.787  40.908  12.907
88193W        W60541  22.647  10.338   0.852
88194W        W60542   9.707  14.785  11.990
88195W        W60543  41.021  13.834   2.841
88196W        W60544  11.164  32.015  12.071
88197W        W60545  26.173  31.052  12.027
88198W        W60546  33.965  19.611   3.269
88199W        W60547   0.917  42.482  12.505
88200W        W60548  27.588  12.806   4.208
88201W        W60549   9.274  34.578  11.892
88202W        W60550  19.216  22.601   0.919
88203W        W60551  33.082  10.747  12.911
88204W        W60552  11.152  24.129  10.549
88205W        W60553  11.192  22.172  11.056
88206W        W60554  35.582   0.842   0.368
88207W        W60555  30.964  40.499   2.373
88208W        W60556   7.239  43.413  13.814
88209W        W60557  38.002   1.913   5.094
88210W        W60558   3.774  22.163  14.840
88211W        W60559  30.588   8.777  14.275
88212W        W60560  41.490   3.815  10.965
88213W        W60561  36.572   3.899  13.461
88214W        W60562  33.111  39.881  11.946
88215W        W60563  27.557  44.879  11.393
88216W        W60564  15.291  29.157   1.828
88217W        W60565  26.109  33.497  11.048
88218W        W60566  39.464  40.808   0.784
88219W        W60567  19.696  14.205   3.267
88220W        W60568  15.814   9.280   4.209
88221W        W60569  38.049  42.447   4.663
88222W        W60570   8.260  11.749  10.906
88223W        W60571  17.696  36.946   1.770
88224W        W60572  40.400   4.782  14.460
88225W        W60573   6.293  24.513  13.838
88226W        W60574  14.128  10.154  10.143
88227W        W60575  37.580  26.133  13.410
88228W        W60576  12.173  34.545  10.956
88229W        W60577  34.900  20.099   0.743
88230W        W60578  36.013  25.094   0.309
88231W        W60579  25.511   5.240  11.514
88232W        W60580  13.236  17.203  11.129
88233W        W60581  18.191  32.636   4.139
88234W        W60582  10.637  30.631   0.423
88235W        W60583  30.470  34.034   3.776
88236W        W60584  11.256   5.802  11.545
88237W        W60585  24.638  42.491   2.393
88238W        W60586  28.005  28.076   3.745
88239W        W60587   1.451   4.211  11.420
88240W        W60588  22.064  29.514  14.295
88241W        W60589  15.305  10.647   2.284
88242W        W60590  23.048   1.811   0.876
88243W        W60591  27.943   1.973  14.296
88244W        W60592  30.617  29.151   3.763
88245W        W60593  29.646   9.867   4.285
88246W        W60594  42.788  37.949  12.009
88247W        W60595  20.165   3.393  12.436
88248W        W60596  38.950  36.874  13.524
88249W        W60597  21.664   4.370   0.357
88250W        W60598  44.953  26.016   1.335
88251W        W60599   9.813  27.516   2.775
88252W        W60600  24.530  21.044   1.757
88253W        W60601   5.439  30.555   1.841
88254W        W60602  23.538  28.656  14.028
88255W        W60603  44.294  40.535  10.555
88256W        W60604  39.395  26.131  10.436
88257W        W60605  26.479  10.186  11.096
88258W        W60606  41.312   1.389  14.851
88259W        W60607   9.751  16.182   1.694
88260W        W60608  22.680  34.469  10.423
88261W        W60609  42.847  43.778   1.874
88262W        W60610   7.293  43.452   0.907
88263W        W60611  34.479  35.868  10.016
88264W        W60612  42.522  10.341  10.427
88265W        W60613   7.740   6.337   0.890
88266W        W60614  34.445   3.918  12.033
88267W        W60615   9.385  27.154  11.911
88268W        W60616   2.346  31.113  12.858
88269W        W60617   2.761  29.554   1.811
88270W        W60618  36.585  20.220  12.096
88271W        W60619  24.083  38.860  11.560
88272W        W60620   9.689  29.142   1.263
88273W        W60621  35.590  41.019  11.876
88274W        W60622  32.082  21.622   3.343
88275W        W60623  12.164  33.069   1.711
88276W        W60624  23.204  15.589   2.708
88277W        W60625  21.637   6.426  10.582
88278W        W60626  12.652   9.710  13.030
88279W        W60627  16.306   8.382  13.909
88280W        W60628   6.747  44.485  10.525
88281W        W60629  13.208  23.637  12.002
88282W        W60630  11.646  29.654  13.975
88283W        W60631  25.702  27.026   4.292
88284W        W60632  41.883  27.082   0.874
88285W        W60633  15.238  28.956  12.493
88286W        W60634  34.932  42.441  12.520
88287W        W60635  33.587   8.856   2.814
88288W        W60636  25.987  36.582   1.305
88289W        W60637  18.568  31.445   0.769
88290W        W60638  22.564  37.504   4.781
88291W        W60639  27.087  20.112  14.470
88292W        W60640  25.583  40.316   2.823
88293W        W60641  19.592  15.129  10.431
88294W        W60642  33.021  37.387  11.020
88295W        W60643  21.094  14.097  11.487
88296W        W60644  34.566  19.672   3.385
88297W        W60645  44.755  38.451   4.234
88298W        W60646  42.505   1.733  13.930
88299W        W60647   7.306  22.544   1.722
88300W        W60648   0.816  24.725   0.903
88301W        W60649  17.179  11.301   0.438
88302W        W60650  20.568  31.442  13.006
88303W        W60651  25.989  11.201  12.377
88304W        W60652  31.596  41.342   2.379
88305W        W60653  38.517  39.459  13.377
88306W        W60654   1.275  36.911   4.771
88307W        W60655  26.976  26.651  12.492
88308W        W60656  32.494  34.111   2.734
88309W        W60657  23.709  30.487  11.091
88310W        W60658  26.993  15.673   9.940
88311W        W60659  23.735  23.575   0.927
88312W        W60660   2.815   9.183   4.769
88313W        W60661  44.309  13.274  13.467
88314W        W60662   7.216   1.909   3.153
88315W        W60663  28.601  39.938  12.516
88316W        W60664  41.938   7.404  13.449
88317W        W60665  37.533  17.598   1.821
88318W        W60666  36.392  41.336   3.676
88319W        W60667  34.500   9.349   0.863
88320W        W60668  32.920   9.362   1.324
88321W        W60669  14.782  44.361   2.711
88322W        W60670  39.467  12.639   0.435
88323W        W60671  35.586   7.672   4.814
88324W        W60672  40.502  33.499   4.766
88325W        W60673  42.954  23.535   4.778
88326W        W60674  18.225  39.008  14.852
88327W        W60675  34.048  10.803   2.187
88328W        W60676  34.492  42.013   4.223
88329W        W60677   9.279   6.865  10.966
88330W        W60678  36.859  26.535  13.908
88331W        W60679  23.120  11.160   2.182
88332W        W60680  24.529  26.522  12.342
88333W        W60681  24.074   9.780   2.860
88334W        W60682   9.880   8.861  10.953
88335W        W60683  40.507  27.004  11.579
88336W        W60684   3.320  23.054   2.740
88337W        W60685  36.924  19.120   3.258
88338W        W60686  27.671   6.345  13.997
88339W        W60687  37.361  39.018   1.750
88340W        W60688  24.708  44.791  11.498
88341W        W60689  44.999  21.513   0.363
88342W        W60690  26.981  35.553   3.273
88343W        W60691  26.477  35.853  11.579
88344W        W60692  13.805  44.979   3.260
88345W        W60693  37.084  21.246   1.441
88346W        W60694  34.583   0.869   3.282
88347W        W60695  21.640  19.760  13.858
88348W        W60696  33.605  42.436  12.495
88349W        W60697  14.746  16.599  14.002
88350W        W60698   5.406  34.506  13.899
88351W        W60699   7.736   4.301   2.395
88352W        W60700   3.862   8.764   4.825
88353W        W60701  31.004  23.198  11.393
88354W        W60702  15.752  10.871  11.097
88355W        W60703  23.240   7.754  13.967
88356W        W60704  13.804  42.328  11.090
88357W        W60705  32.525  33.624   4.179
88358W        W60706  21.589  26.055  11.876
88359W        W60707  14.682  10.303   3.844
88360W        W60708  42.424  33.514  10.928
88361W        W60709  19.644  43.324   3.654
88362W        W60710   3.803  15.655  13.918
88363W        W60711  15.760  24.110   1.392
88364W        W60712  39.891  17.102  13.906
88365W        W60713  31.514   8.777   3.755
88366W        W60714   8.854  20.072   0.467
88367W        W60715  42.350   3.904   0.374
88368W        W60716   4.295   2.934  11.884
88369W        W60717  34.954  25.613   3.332
88370W        W60718   0.989  34.984   4.348
88371W        W60719  38.832  38.853   4.224
88372W        W60720  10.746   6.376  12.926
88373W        W60721  11.207  44.449   3.777
88374W        W60722  15.181   2.387   3.364
88375W        W60723   0.971  41.439  13.925
88376W        W60724   1.796  42.284   4.167
88377W        W60725  33.489  33.891   0.335
88378W        W60726  31.899  22.077  11.496
88379W        W60727  25.528  26.135  13.429
88380W        W60728  17.736   9.171   3.689
88381W        W60729  22.212  25.545  13.343
88382W        W60730  25.152  44.986   1.861
88383W        W60731  12.133  38.518   1.214
88384W        W60732  31.130  38.979   2.746
88385W        W60733  41.828  24.638  12.530
88386W        W60734   7.872  30.908   3.253
88387W        W60735  22.576  36.367  12.538
88388W        W60736  11.177  38.859  10.576
88389W        W60737  19.264  37.430  13.821
88390W        W60738  11.188   7.200   0.850
88391W        W60739  11.744   5.791  10.979
88392W        W60740  13.649  20.548   3.755
88393W        W60741   4.795   8.231  11.102
88394W        W60742  35.411  22.663   9.631
88395W        W60743  37.457   3.324  10.033
88396W        W60744   2.412  31.932  10.938
88397W        W60745  29.651   1.442   0.927
88398W        W60746  40.978   1.785  13.840
88399W        W60747  32.580  36.502  11.430
88400W        W60748  18.745  30.451   2.743
88401W        W60749  15.587   8.809  12.507
88402W        W60750  35.963  28.070  13.051
88403W        W60751   7.394  37.947   1.908
88404W        W60752  44.357  42.448   1.789
88405W        W60753  18.548  25.533   2.692
88406W        W60754  26.695  22.651  12.854
88407W        W60755   2.374  10.282  12.398
88408W        W60756   7.373  44.784  13.024
88409W        W60757   4.859   5.412  12.988
88410W        W60758  36.563  39.469   3.854
88411W        W60759   5.275  43.299   4.222
88412W        W60760  42.019  18.094   0.466
88413W        W60761   2.932  37.340   0.258
88414W        W60762  13.828  29.592   0.857
88415W        W60763  26.671  35.952  14.797
88416W        W60764  18.731  11.325   0.948
88417W        W60765  41.408  33.052  14.417
88418W        W60766  36.425  18.713  11.981
88419W        W60767  13.178  14.113  13.833
88420W        W60768  24.610  21.225  12.403
88421W        W60769   5.354  14.156   1.757
88422W        W60770  17.624  20.029  13.387
88423W        W60771  44.265  20.597  12.390
88424W        W60772  26.091  32.404  12.387
88425W        W60773  33.958  26.046   4.745
88426W        W60774  20.532  32.064   0.802
88427W        W60775  39.894  16.729   0.796
88428W        W60776   4.311  22.092  12.016
88429W        W60777  11.770   5.343   4.354
88430W        W60778  29.447  34.060  14.811
88431W        W60779  22.525  14.822  10.465
88432W        W60780  31.585   8.867   2.189
88433W        W60781  31.013   9.256   0.966
88434W        W60782  22.696  12.134  13.509
88435W        W60783  38.016  11.265   4.225
88436W        W60784  18.142  22.742   0.366
88437W        W60785   4.225   9.862  14.899
88438W        W60786  43.280  38.399   2.413
88439W        W60787  30.631  33.028   4.214
88440W        W60788   4.820  12.797   0.415
88441W        W60789  25.592  18.773  12.417
88442W        W60790  14.829  27.064  11.430
88443W        W60791  13.602  17.206   2.675
88444W        W60792  25.992  40.972  12.964
88445W        W60793   7.366  26.015  10.511
88446W        W60794  35.471  35.428  12.016
88447W        W60795  25.007  15.682   4.153
88448W        W60796   8.721  38.885   1.339
88449W        W60797  24.033  40.909   1.419
88450W        W60798   6.757  24.132   0.756
88451W        W60799  31.032  34.004   1.873
88452W        W60800   6.248  24.978  12.012
88453W        W60801   1.953   6.841  14.909
88454W        W60802   7.846  38.495  10.576
88455W        W60803   0.931  13.718  11.428
88456W        W60804  41.852  35.388   0.274
88457W        W60805  30.625  22.667   3.759
88458W        W60806  19.223  43.987  14.497
88459W        W60807  24.655   2.920  11.870
88460W        W60808  34.531  32.032  13.794
88461W        W60809  40.352   7.811   1.849
88462W        W60810  17.787  29.568   5.681
88463W        W60811  44.934  34.894   1.706
88464W        W60812  37.502   2.797   3.722
88465W        W60813  17.271  22.139  10.560
88466W        W60814  21.559  13.742  14.984
88467W        W60815   3.752   6.273  12.865
88468W        W60816  38.853  43.857  13.962
88469W        W60817  24.205  10.355  14.321
88470W        W60818  32.999  38.044   4.792
88471W        W60819  38.904  16.646   0.429
88472W        W60820   3.370  43.501   4.349
88473W        W60821  31.972   8.329   9.449
88474W        W60822  29.059  29.071  10.629
88475W        W60823  28.153  26.123  12.830
88476W        W60824  20.128  12.672  11.040
88477W        W60825   5.235  14.606   2.847
88478W        W60826   7.771  12.801   2.804
88479W        W60827   9.817  37.894  14.796
88480W        W60828  20.587  26.126   3.784
88481W        W60829  10.221  44.383   1.895
88482W        W60830   9.832  19.600  10.605
88483W        W60831  27.602  44.918   4.195
88484W        W60832  28.468   7.265  10.562
88485W        W60833  38.881  11.826  10.091
88486W        W60834  12.252  21.643  11.945
88487W        W60835  42.845  11.808   5.223
88488W        W60836  12.614  30.971  10.979
88489W        W60837  38.919   8.817   2.334
88490W        W60838  24.175  19.046   1.363
88491W        W60839  15.645  14.301  13.848
88492W        W60840  32.945   7.705  11.410
88493W        W60841  41.852  19.117   3.832
88494W        W60842   7.354  38.917  14.393
88495W        W60843  38.050  42.499   2.309
88496W        W60844  11.810  13.210   2.345
88497W        W60845  13.828  44.314   1.304
88498W        W60846  41.309  12.281   1.806
88499W        W60847  37.030  35.035   1.314
88500W        W60848  29.516  32.114   5.109
88501W        W60849   9.750  17.169   3.240
88502W        W60850  37.436   3.221   4.277
88503W        W60851  28.123  17.213  14.793
88504W        W60852  24.691  33.099   3.369
88505W        W60853  30.152  11.217  14.805
88506W        W60854  19.594  23.630  14.476
88507W        W60855  13.223  33.024  14.760
88508W        W60856   8.190  34.119  11.909
88509W        W60857   0.947  22.218  14.808
88510W        W60858  25.195  28.588  10.897
88511W        W60859  16.699  12.763  14.815
88512W        W60860  41.511  16.147  10.629
88513W        W60861  19.076  28.595  11.126
88514W        W60862  25.682  21.713  13.937
88515W        W60863  40.442   3.367   2.847
88516W        W60864  29.595  15.664   5.174
88517W        W60865  38.987  21.539   0.372
88518W        W60866  15.762  13.214  14.392
88519W        W60867  33.060  23.566  11.888
88520W        W60868  29.652   4.327   3.865
88521W        W60869  29.523  25.532   2.771
88522W        W60870  24.556  17.740  14.357
88523W        W60871   3.384  22.006  11.374
88524W        W60872  32.495  10.799   1.368
88525W        W60873  19.240  35.036  13.419
88526W        W60874  22.040  22.165  14.921
88527W        W60875  42.405   9.215  10.491
88528W        W60876   9.290  44.275   3.776
88529W        W60877  41.421   8.701   0.957
88530W        W60878  34.561  12.777  12.900
88531W        W60879  15.716  15.724  11.551
88532W        W60880   1.454  16.305   3.671
88533W        W60881   9.886  14.114  14.295
88534W        W60882  34.479  17.711   3.195
88535W        W60883  14.752  26.695  12.344
88536W        W60884  35.522  12.848   1.388
88537W        W60885  37.886  15.240  14.949
88538W        W60886  14.122  31.917   2.293
88539W        W60887  30.439  29.056  12.360
88540W        W60888  24.722   6.294   0.256
88541W        W60889   1.739  26.536  14.889
88542W        W60890  39.440   7.394   3.282
88543W        W60891   6.923  27.538  14.835
88544W        W60892  17.600  14.248   2.214
88545W        W60893  23.237  44.386  11.913
88546W        W60894  36.017   2.723  12.471
88547W        W60895   5.369   5.920   0.339
88548W        W60896   2.243  43.905  11.003
88549W        W60897  22.109  40.829  11.475
88550W        W60898   9.790  16.725   2.300
88551W        W60899  26.130   1.380   1.720
88552W        W60900   2.449  33.881  10.452
88553W        W60901  26.565  11.339   4.196
88554W        W60902  39.395  27.025   1.768
88555W        W60903  43.912  33.887  14.019
88556W        W60904  37.474  12.804   2.843
88557W        W60905  44.946  19.139   4.719
88558W        W60906  11.237  14.340   4.204
88559W        W60907  24.983  39.964  13.954
88560W        W60908  44.300   3.833   2.338
88561W        W60909  31.023  32.423  11.946
88562W        W60910  14.180  11.175   1.934
88563W        W60911  20.700  17.557   1.697
88564W        W60912  33.626  22.614  14.341
88565W        W60913   1.342  44.863  13.964
88566W        W60914  36.068   5.894  12.917
88567W        W60915  27.690  37.484   5.255
88568W        W60916  38.401   1.736   2.825
88569W        W60917  25.629   0.751  13.455
88570W        W60918  38.435  30.648  13.804
88571W        W60919   9.867  28.979   0.890
88572W        W60920   6.733  19.747  10.479
88573W        W60921  35.503   8.855   3.289
88574W        W60922  39.931  23.605  10.516
88575W        W60923  28.014  28.635  14.871
88576W        W60924  20.219  27.993  11.946
88577W        W60925   4.203  37.391  12.994
88578W        W60926  29.138  24.981   0.877
88579W        W60927   6.378  14.153   4.115
88580W        W60928  21.518  38.475  12.019
88581W        W60929  42.791  39.493  14.301
88582W        W60930   7.892  42.010   3.184
88583W        W60931  29.666  26.666  14.318
88584W        W60932  31.519  41.941  12.848
88585W        W60933  30.438  17.216  12.864
88586W        W60934  28.072  16.632  13.340
88587W        W60935  23.074   9.889   2.765
88588W        W60936  10.357  42.494   2.312
88589W        W60937  10.315  11.813   4.644
88590W        W60938   9.301  29.090   1.699
88591W        W60939  13.162  21.591  12.356
88592W        W60940  34.476  20.268   4.144
88593W        W60941  22.641  11.787  14.847
88594W        W60942  19.565  29.999  13.978
88595W        W60943  28.632  26.971  12.341
88596W        W60944  16.778  26.485  10.155
88597W        W60945   3.949  35.528   3.303
88598W        W60946  30.595  14.832   5.209
88599W        W60947   7.911  19.646  14.953
88600W        W60948   3.826  25.688  12.936
88601W        W60949  17.679  32.994   0.324
88602W        W60950  12.126  22.725   4.723
88603W        W60951   6.207  33.963   4.267
88604W        W60952   1.805   9.294   0.451
88605W        W60953  25.101  23.173  12.449
88606W        W60954  11.133  34.595   0.369
88607W        W60955  35.047   9.248   4.113
88608W        W60956  31.571  42.794  14.884
88609W        W60957  14.224  18.119   4.769
88610W        W60958   5.794  18.232  13.029
88611W        W60959  20.248  29.082   3.745
88612W        W60960   3.783  30.949  12.856
88613W        W60961   7.806  26.662   4.352
88614W        W60962  27.970  11.773   0.411
88615W        W60963   9.171  44.841  12.374
88616W        W60964  41.382  16.084  12.020
88617W        W60965  14.173  13.724   3.314
88618W        W60966  21.023  18.216   3.295
88619W        W60967  23.171   1.764  14.367
88620W        W60968  20.247  16.574   4.801
88621W        W60969  17.776  26.652  11.052
88622W        W60970   8.659  14.123   3.327
88623W        W60971  33.987   2.755  12.415
88624W        W60972  37.571  12.730   4.749
88625W        W60973  36.469  38.388  13.819
88626W        W60974   7.823  16.774  12.529
88627W        W60975  42.912  20.523  11.378
88628W        W60976   3.449   2.366  13.973
88629W        W60977  34.999   7.897   0.780
88630W        W60978  29.503   2.416   3.354
88631W        W60979  17.593  10.364   1.327
88632W        W60980  20.697  26.663  10.551
88633W        W60981  33.539  12.825   4.724
88634W        W60982  41.488  23.159   4.253
88635W        W60983  12.671  38.347   3.869
88636W        W60984   2.346  26.638  14.352
88637W        W60985   8.229   7.690  11.942
88638W        W60986  22.218  14.330   4.187
88639W        W60987   1.300  36.056   0.276
88640W        W60988  24.172  24.974   2.274
88641W        W60989  31.073  32.629   0.920
88642W        W60990  43.337   6.264   0.346
88643W        W60991  39.466  23.656  11.106
88644W        W60992  34.381   0.292   1.824
88645W        W60993  20.591  16.109   2.871
88646W        W60994   8.783  10.851  13.989
88647W        W60995  19.771  30.587  11.105
88648W        W60996  21.644  32.436   2.892
88649W        W60997  18.293   9.364  10.498
88650W        W60998  33.098  13.799  11.490
88651W        W60999  43.315   0.436   3.192
88652W        W61000  35.482  23.220   3.280
88653W        W61001   1.850   5.916  13.404
88654W        W61002   3.793  38.504  11.078
88655W        W61003  31.436  36.498   9.593
88656W        W61004   3.285  24.113   3.728
88657W        W61005  32.918  32.900   3.671
88658W        W61006   5.883  30.520   3.775
88659W        W61007   3.911  12.668  10.979
88660W        W61008  11.676  27.144  13.983
88661W        W61009  36.562  43.850   2.304
88662W        W61010  28.540  25.635  13.434
88663W        W61011  42.288  31.506   3.668
88664W        W61012  10.832   7.732   0.791
88665W        W61013  43.457  31.031  12.536
88666W        W61014  40.322  41.525   1.818
88667W        W61015   0.413  11.731  12.577
88668W        W61016  10.713  21.576   2.790
88669W        W61017  29.089   3.237  10.488
88670W        W61018  23.495  40.430  14.468
88671W        W61019  23.726   7.774  12.486
88672W        W61020  25.657  12.309   0.754
88673W        W61021  32.558   6.817  14.765
88674W        W61022  37.938  22.528   0.903
88675W        W61023  13.830  21.028  14.920
88676W        W61024  41.796   8.814  10.051
88677W        W61025   8.369  37.057  13.388
88678W        W61026  28.983   0.419  11.911
88679W        W61027  40.991  12.729   2.217
88680W        W61028  24.514  24.214  13.830
88681W        W61029   0.428  35.462  11.070
88682W        W61030   9.697  10.764  10.549
88683W        W61031  35.060  23.005   0.814
88684W        W61032   9.735  38.419  14.032
88685W        W61033   8.207   8.371  11.111
88686W        W61034  32.490   9.826   1.408
88687W        W61035  41.014  26.701  14.999
88688W        W61036  28.075  41.802  14.831
88689W        W61037  32.541   2.894  10.456
88690W        W61038  37.381  19.537   4.195
88691W        W61039   6.288   1.299  12.357
88692W        W61040   6.224  12.709  13.513
88693W        W61041  38.029  36.098   3.355
88694W        W61042  42.374   1.818   3.664
88695W        W61043  33.016  17.584  11.925
88696W        W61044  16.799   8.783   2.246
88697W        W61045   6.354  12.721   4.690
88698W        W61046  42.902  35.922  12.900
88699W        W61047  33.919  25.681   0.339
88700W        W61048  14.153   4.889  12.466
88701W        W61049  32.026  11.212  11.439
88702W        W61050  40.465  31.997   2.713
88703W        W61051  31.549  13.252   0.746
88704W        W61052  33.450  11.247  12.893
88705W        W61053  26.583  22.022   3.760
88706W        W61054  31.044   8.275  10.628
88707W        W61055  20.670  12.240   1.697
88708W        W61056  31.049  38.850   3.222
88709W        W61057   5.791   6.706  11.529
88710W        W61058  22.251  23.003   2.267
88711W        W61059   4.857  15.725  13.374
88712W        W61060  34.047  10.384   0.480
88713W        W61061  24.574  14.196   3.170
88714W        W61062  32.629  23.520   3.213
88715W        W61063  39.454   8.219   1.437
88716W        W61064  15.301  34.440   1.289
88717W        W61065  29.516   0.989  12.967
88718W        W61066  25.201  39.449   2.248
88719W        W61067  14.103  40.885  12.834
88720W        W61068  14.328  16.706  13.523
88721W        W61069  11.363  13.813   1.752
88722W        W61070   4.707  31.451   0.262
88723W        W61071   3.823  27.476  13.360
88724W        W61072  27.169  11.152  14.920
88725W        W61073   8.757  39.328   2.315
88726W        W61074  42.430  38.927  14.298
88727W        W61075  22.532  36.391   3.685
88728W        W61076  32.898  26.069   1.729
88729W        W61077  19.754  37.480   4.817
88730W        W61078  13.135  13.660  11.603
88731W        W61079  18.233   7.368   3.814
88732W        W61080  28.531   2.290   0.439
88733W        W61081  19.228  37.503   4.125
88734W        W61082   2.230   5.838  13.012
88735W        W61083  42.383  23.732  12.562
88736W        W61084  12.712   9.243   2.259
88737W        W61085  11.648  30.523   1.905
88738W        W61086  43.775  38.936   2.259
88739W        W61087  42.487   3.900   1.820
88740W        W61088  10.167  37.926   5.151
88741W        W61089   1.848  44.952   0.329
88742W        W61090  43.800  17.087  11.107
88743W        W61091  21.633  12.838  11.986
88744W        W61092   3.719   5.694   1.368
88745W        W61093  18.575  16.161  10.929
88746W        W61094  27.135   6.425   3.674
88747W        W61095   8.202  18.598  12.908
88748W        W61096  21.024  35.884   0.392
88749W        W61097   0.845  10.288  14.834
88750W        W61098  27.078   1.411  10.932
88751W        W61099  32.396  42.519   4.223
88752W        W61100  18.769  25.524   4.348
88753W        W61101  18.654   8.657  12.520
88754W        W61102   1.281   4.446  10.617
88755W        W61103  32.006  20.028   4.758
88756W        W61104   1.746  41.381   3.157
88757W        W61105  42.914  37.983  11.487
88758W        W61106  40.841  26.144  13.965
88759W        W61107  33.582  20.683   0.827
88760W        W61108  16.125  10.711   0.481
88761W        W61109  27.494  25.690   3.860
88762W        W61110  25.085  28.971  13.814
88763W        W61111  40.911  41.987  10.966
88764W        W61112  19.740   6.313  12.431
88765W        W61113  14.655   4.844  12.511
88766W        W61114  32.581  29.049   2.880
88767W        W61115  28.489   6.762  11.468
88768W        W61116  18.264  14.317  10.584
88769W        W61117  37.969  41.909  11.092
88770W        W61118  33.608  15.164   3.865
88771W        W61119  34.498  18.258   0.909
88772W        W61120  33.922   3.907   4.607
88773W        W61121  36.456  17.302   3.340
88774W        W61122   7.364   4.934  12.014
88775W        W61123  44.469  21.690  13.795
88776W        W61124  11.723  32.893   4.672
88777W        W61125  22.145   7.666   3.808
88778W        W61126  37.568  11.354  11.460
88779W        W61127  28.466  36.931  11.589
88780W        W61128  18.710  42.345   2.825
88781W        W61129  26.509  19.535   5.130
88782W        W61130   5.314  32.549  10.409
88783W        W61131  31.094   9.796  12.429
88784W        W61132  22.173  24.105  13.377
88785W        W61133  22.517   3.315  10.616
88786W        W61134  27.470  31.427  14.499
88787W        W61135  40.527  18.086  14.462
88788W        W61136   4.765   4.377   1.785
88789W        W61137  26.184  15.822   4.802
88790W        W61138  43.292  25.977  14.917
88791W        W61139  23.117   3.423  13.907
88792W        W61140  23.704  32.138  11.966
88793W        W61141  27.005  18.631   1.317
88794W        W61142  37.962   0.315  14.380
88795W        W61143  40.804  30.561  13.869
88796W        W61144  19.751  23.044   3.677
88797W        W61145  40.319  13.683  11.897
88798W        W61146  26.457  38.073  11.863
88799W        W61147  34.384  10.294  13.362
88800W        W61148  36.080  27.941   0.904
88801W        W61149  42.820   9.347  10.538
88802W        W61150   6.184  21.263  12.515
88803W        W61151   3.808  44.765   1.447
88804W        W61152  39.976  11.666  10.921
88805W        W61153  36.355  14.764   3.691
88806W        W61154  38.890  31.452   2.343
88807W        W61155   9.856  15.198  13.002
88808W        W61156  35.908  10.645   3.771
88809W        W61157  22.522  23.130   4.790
88810W        W61158  19.654  19.111   4.144
88811W        W61159  14.283  32.575  10.517
88812W        W61160   4.310  12.346  11.108
88813W        W61161   0.402   7.842  12.461
88814W        W61162  44.261  13.757  14.026
88815W        W61163   2.431  32.579  14.386
88816W        W61164  44.442  36.579   2.704
88817W        W61165  42.302   5.264  13.798
88818W        W61166  38.395  27.126   4.330
88819W        W61167  26.493  26.148  13.534
88820W        W61168   3.794   9.253  14.937
88821W        W61169  30.622  18.074  14.952
88822W        W61170  20.216  43.282  14.321
88823W        W61171  40.518  36.030   4.125
88824W        W61172  33.393  44.958  14.510
88825W        W61173  21.018  21.667   1.380
88826W        W61174  16.690   5.890  14.491
88827W        W61175   2.336  10.355  11.035
88828W        W61176  33.540  31.059  11.062
88829W        W61177  26.005   5.813  12.378
88830W        W61178   5.352   8.737   0.780
88831W        W61179  29.173  38.983  14.885
88832W        W61180   4.840   9.873   4.799
88833W        W61181  18.265  18.137   2.348
88834W        W61182  17.111   9.679   2.797
88835W        W61183  33.044  31.479  11.967
88836W        W61184   2.425  30.952   2.707
88837W        W61185  42.480  41.468  13.060
88838W        W61186  15.724  27.018  12.899
88839W        W61187  25.652  36.445  14.841
88840W        W61188  41.044  17.794   1.935
88841W        W61189   3.435  28.597  11.582
88842W        W61190  44.906  35.940  14.827
88843W        W61191   1.434  37.063  12.088
88844W        W61192  11.244  12.740   2.255
88845W        W61193  32.074  12.670  13.004
88846W        W61194  15.246  13.325   2.772
88847W        W61195  35.942   7.289  14.946
88848W        W61196  43.796  44.908  11.602
88849W        W61197   0.293   9.882   1.882
88850W        W61198  32.061   5.338   3.753
88851W        W61199  30.091  21.527  12.573
88852W        W61200   4.755  21.064  12.866
88853W        W61201   6.239  25.218   0.941
88854W        W61202   2.450  17.667   1.449
88855W        W61203  31.903  10.788  13.811
88856W        W61204  21.168  27.153   2.707
88857W        W61205  23.189  37.933  14.893
88858W        W61206  17.150  12.277  11.483
88859W        W61207  18.552  23.585   4.702
88860W        W61208   9.267  42.809  13.538
88861W        W61209  22.112   7.767  10.062
88862W        W61210  40.849  42.308  13.360
88863W        W61211  27.965  28.094  14.816
88864W        W61212  10.741  10.139   3.382
88865W        W61213  40.975  25.624   2.223
88866W        W61214  38.388   0.960   1.732
88867W        W61215   7.821  12.833  14.458
88868W        W61216  13.831  30.496   1.396
88869W        W61217  13.652   7.870  10.596
88870W        W61218   6.781  21.183  11.056
88871W        W61219  30.132  43.769   1.294
88872W        W61220  38.000  22.165  14.811
88873W        W61221  23.031  18.740  12.509
88874W        W61222  18.668   5.811  10.913
88875W        W61223   5.366   8.179   2.242
88876W        W61224  44.276  16.172  14.360
88877W        W61225  13.317  14.124   5.154
88878W        W61226  21.593  10.798   4.787
88879W        W61227  12.653  23.666  11.928
88880W        W61228  43.447  43.454  13.864
88881W        W61229   2.768  40.871   0.453
88882W        W61230  10.311  21.043  13.890
88883W        W61231  28.041  29.435   3.794
88884W        W61232   3.276  43.822  14.990
88885W        W61233  31.011  42.346  13.324
88886W        W61234   1.261  24.512   3.692
88887W        W61235  11.179  25.162   3.857
88888W        W61236  26.165   9.239  14.949
88889W        W61237  31.600  29.644   2.831
88890W        W61238  36.398  27.489   0.452
88891W        W61239  10.778  10.725   0.342
88892W        W61240  24.496  18.291  14.473
88893W        W61241  38.073   7.703  11.479
88894W        W61242   6.847  41.975  10.426
88895W        W61243  11.163  16.640  13.365
88896W        W61244  19.764  24.205   5.153
88897W        W61245  43.801  39.433  11.494
88898W        W61246  27.509   1.408  13.024
88899W        W61247  36.991   4.793   9.966
88900W        W61248  25.967  15.314   3.781
88901W        W61249  43.812  32.005   1.399
88902W        W61250  22.541  21.685   3.185
88903W        W61251  35.553  44.401  13.491
88904W        W61252  24.485  24.169   1.805
88905W        W61253   6.786   2.966  11.082
88906W        W61254   6.724  21.643   2.342
88907W        W61255  30.656  30.132  11.374
88908W        W61256  12.687  15.630  13.357
88909W        W61257  35.004  38.542  14.973
88910W        W61258   7.802  13.253   2.798
88911W        W61259  33.080  29.004  11.046
88912W        W61260  10.370  30.952  13.855
88913W        W61261  12.182  24.181   2.848
88914W        W61262  43.979  18.172   1.248
88915W        W61263  22.647  29.077   4.331
88916W        W61264  40.832   4.942   0.898
88917W        W61265  42.472  27.109  10.969
88918W        W61266  26.124  27.174  11.928
88919W        W61267  10.140  40.946   3.308
88920W        W61268   4.443  26.540  13.831
88921W        W61269  35.551   6.873   5.662
88922W        W61270  33.978   2.262  13.477
88923W        W61271  42.941   2.330  11.435
88924W        W61272  24.166  13.677   2.188
88925W        W61273  22.057  25.184   2.694
88926W        W61274  21.156  36.036  13.405
88927W        W61275  23.577  37.918  11.514
88928W        W61276  40.378   2.448  14.791
88929W        W61277   4.898  30.923  12.572
88930W        W61278  20.546  42.921  12.519
88931W        W61279   7.770  37.426  10.970
88932W        W61280  36.854  37.465   3.378
88933W        W61281  22.137  29.607   1.804
88934W        W61282  26.088  35.914   2.249
88935W        W61283  44.842  41.890  10.568
88936W        W61284  29.151  36.883   3.280
88937W        W61285  39.873  29.175  14.467
88938W        W61286   0.258   2.320   0.814
88939W        W61287  25.560  19.726   0.321
88940W        W61288  26.687  42.929   0.823
88941W        W61289   2.926  36.590   4.184
88942W        W61290  13.812  15.232   4.697
88943W        W61291  30.421  28.965   4.259
88944W        W61292   0.359  19.694   5.276
88945W        W61293  33.068  16.580   4.118
88946W        W61294   8.717  29.023  14.808
88947W        W61295  25.081  26.686  11.415
88948W        W61296  35.082  15.225  12.996
88949W        W61297   0.270  11.653  14.019
88950W        W61298   0.267  27.534  13.382
88951W        W61299  11.800   6.226  10.980
88952W        W61300  17.749  31.617  13.962
88953W        W61301  24.162  27.994   5.094
88954W        W61302   9.238   7.898   3.737
88955W        W61303  26.549   1.456  13.930
88956W        W61304   8.705  23.708  14.920
88957W        W61305  36.092  36.060  13.943
88958W        W61306   8.884  25.047   3.223
88959W        W61307  21.590  13.243  13.041
88960W        W61308   8.869  26.544   2.201
88961W        W61309  33.987  41.456  13.348
88962W        W61310  34.552  16.775   1.212
88963W        W61311  31.095  20.635  14.441
88964W        W61312  11.635  42.011  10.428
88965W        W61313  15.583  26.531   4.304
88966W        W61314  15.751  25.136  10.463
88967W        W61315  12.300   0.759  10.969
88968W        W61316  10.831  42.310   1.266
88969W        W61317  13.325  31.129  14.308
88970W        W61318  28.149   2.920   4.128
88971W        W61319  22.676  14.196  12.873
88972W        W61320  24.493   1.423  13.400
88973W        W61321   3.308  40.838   3.835
88974W        W61322   2.928  13.317  10.962
88975W        W61323  22.108  11.835  13.794
88976W        W61324  32.075  16.295  10.983
88977W        W61325  16.205  25.649   1.307
88978W        W61326  25.107   0.345  12.447
88979W        W61327  24.702  36.546  10.544
88980W        W61328  16.643   7.791  13.886
88981W        W61329  15.743   2.737  10.970
88982W        W61330  34.579   7.817   4.313
88983W        W61331   9.199  32.444   0.333
88984W        W61332  10.280  33.937   3.254
88985W        W61333  33.426  13.166   4.783
88986W        W61334  24.161  19.143   1.838
88987W        W61335   2.928  40.375  12.528
88988W        W61336  40.486  42.487   3.792
88989W        W61337   4.421  16.115   3.654
88990W        W61338  29.925   2.743   2.823
88991W        W61339  30.962  30.006   3.745
88992W        W61340  16.151  31.142  13.350
88993W        W61341   3.745  34.032  11.943
88994W        W61342  18.603  44.385   5.231
88995W        W61343  41.308  17.296  13.915
88996W        W61344  16.801  37.551  10.133
88997W        W61345  44.991  43.908  11.048
88998W        W61346  32.925   5.707  10.969
88999W        W61347   5.838  10.167  12.486
89000W        W61348  24.090  44.785   2.391
89001W        W61349   3.714   1.777   2.257
89002W        W61350  37.867  27.967   2.364
89003W        W61351  31.904  39.850  11.012
89004W        W61352   1.862  13.199  10.569
89005W        W61353   7.718  40.992   0.848
89006W        W61354   8.341  21.597   0.330
89007W        W61355  16.636  16.284  14.905
89008W        W61356  39.397  23.992  11.450
89009W        W61357  31.577  42.820   2.412
89010W        W61358  17.253  14.295   2.683
89011W        W61359  10.687   4.221   3.804
89012W        W61360   3.379  43.869   1.860
89013W        W61361  27.577  36.454   1.300
89014W        W61362  44.874   3.260   4.258
89015W        W61363  38.479  38.980  11.499
89016W        W61364  22.655  23.147   2.216
89017W        W61365   4.854  20.055   0.741
89018W        W61366  26.953  13.616   3.149
89019W        W61367  31.138  23.519  13.899
89020W        W61368  29.054  24.085  11.092
89021W        W61369  28.681  19.726  11.969
89022W        W61370  12.336  12.181  12.413
89023W        W61371   3.883  29.470  14.008
89024W        W61372  31.117   7.768   5.262
89025W        W61373  28.629  38.445  13.507
89026W        W61374  33.018  26.131  10.940
89027W        W61375  31.621  43.290   2.277
89028W        W61376  37.438  30.128   1.850
89029W        W61377  13.261  15.277  13.799
89030W        W61378  43.856   1.878  13.328
89031W        W61379  14.597  33.464  14.499
89032W        W61380  29.622  40.006  12.549
89033W        W61381  30.949   1.319   3.714
89034W        W61382  12.278  43.845  10.604
89035W        W61383   0.907  32.444  13.433
89036W        W61384  24.077  14.119  13.420
89037W        W61385   8.253  35.592  12.427
89038W        W61386  11.162  43.465   0.891
89039W        W61387   9.793  18.750  13.981
89040W        W61388   2.868  17.087  14.795
89041W        W61389  40.482  39.524  13.009
89042W        W61390  15.818  23.553   3.811
89043W        W61391   5.860  36.375   2.881
89044W        W61392   6.378  36.410   3.308
89045W        W61393  20.540  34.896  11.048
89046W        W61394  18.763  11.791  14.417
89047W        W61395  21.033  23.198  13.347
89048W        W61396  35.598  11.327   0.382
89049W        W61397  34.929  28.979   0.937
89050W        W61398   8.378  44.334   1.423
89051W        W61399   2.798  35.500   2.358
89052W        W61400  44.286   1.466  12.542
89053W        W61401  15.677  42.847   5.124
89054W        W61402  38.352  34.562  11.906
89055W        W61403  11.148  22.519   4.161
89056W        W61404   2.468  29.665   1.857
89057W        W61405  16.288  36.393   4.693
89058W        W61406  34.103   2.379   0.745
89059W        W61407  24.052  18.777  12.058
89060W        W61408  27.994  29.483   2.214
89061W        W61409   5.877  32.613  13.989
89062W        W61410  39.389  15.093  14.474
89063W        W61411  20.146  10.365   1.833
89064W        W61412   1.822  14.240   2.278
89065W        W61413  39.417  41.408  11.515
89066W        W61414   3.716  11.337   0.960
89067W        W61415  18.628  13.683   2.206
89068W        W61416  16.730   0.897   4.835
89069W        W61417   5.389   6.287  13.840
89070W        W61418  10.830  43.809  12.350
89071W        W61419  39.836  36.528  12.027
89072W        W61420  23.496  41.337  13.852
89073W        W61421   5.736   7.818   3.868
89074W        W61422  42.947  36.546   1.917
89075W        W61423  40.418  29.430   1.748
89076W        W61424  30.551   8.339  11.904
89077W        W61425  22.721  29.989   0.440
89078W        W61426  18.091   6.767   1.739
89079W        W61427  26.649  33.892  12.039
89080W        W61428  39.541  40.018  14.447
89081W        W61429  39.944  39.848   0.806
89082W        W61430  17.661   8.391  13.887
89083W        W61431  34.369  23.242  12.432
89084W        W61432  43.003   8.359  10.542
89085W        W61433  12.326  38.404   0.271
89086W        W61434  35.876   3.850   4.268
89087W        W61435   2.883  23.153   1.771
89088W        W61436  24.642   2.424   0.775
89089W        W61437  24.570   4.357  12.876
89090W        W61438  18.077  34.434  13.903
89091W        W61439  33.126   9.791  13.949
89092W        W61440  41.926  38.979  11.935
89093W        W61441  27.961   5.272  11.869
89094W        W61442  37.399  31.511   4.145
89095W        W61443  33.898   7.289  12.536
89096W        W61444  41.974  18.574   3.212
89097W        W61445   4.725   5.727   1.365
89098W        W61446  12.122  29.038  12.443
89099W        W61447  17.226  28.617   3.835
89100W        W61448  17.797  41.849   3.225
89101W        W61449  43.299   7.346  13.349
89102W        W61450  18.158   1.761   0.464
89103W        W61451  15.800  10.200  12.972
89104W        W61452   2.755  28.536   2.863
89105W        W61453  21.522  35.448  12.416
89106W        W61454  28.082  41.891  10.445
89107W        W61455  20.175  10.760   1.714
89108W        W61456  19.210  24.974   0.914
89109W        W61457   1.397  43.287  14.433
89110W        W61458  24.028  37.028  14.785
89111W        W61459  35.418  15.222  11.047
89112W        W61460  43.998  44.360  10.518
89113W        W61461   6.200  40.429  11.955
89114W        W61462   8.687  31.081   2.858
89115W        W61463  15.277   8.741   1.353
89116W        W61464  26.985  42.903  10.441
89117W        W61465   2.413  14.154  13.967
89118W        W61466  20.086  31.446  11.524
89119W        W61467  16.791   7.236  12.054
89120W        W61468  39.978   2.742  13.048
89121W        W61469  13.835  31.066   4.597
89122W        W61470  21.041  27.117  14.492
89123W        W61471  25.102   9.305   0.936
89124W        W61472   1.922  31.448   4.135
89125W        W61473  32.036  14.187   3.751
89126W        W61474   2.827  14.175   4.783
89127W        W61475  32.111  44.963  14.012
89128W        W61476  23.659  15.768   0.390
89129W        W61477  35.901   5.254  13.456
89130W        W61478  28.181  37.347   3.816
89131W        W61479  24.642   4.916  12.055
89132W        W61480  38.854  42.019  14.954
89133W        W61481  41.804  29.664   1.438
89134W        W61482  44.457  10.845  13.505
89135W        W61483  32.430   0.830   1.888
89136W        W61484  32.526  32.958   0.456
89137W        W61485  24.025   9.268   0.890
89138W        W61486  28.956  41.949   3.298
89139W        W61487  23.172   0.310  13.841
89140W        W61488  37.999  42.022  13.972
89141W        W61489  25.579  35.052  13.408
89142W        W61490  39.817   7.721  13.025
89143W        W61491  25.686  40.361  11.865
89144W        W61492  21.229   1.412  13.024
89145W        W61493  36.048  23.579  14.836
89146W        W61494  33.387   6.323   2.318
89147W        W61495   2.729  22.689  12.828
89148W        W61496  13.751  25.623  12.432
89149W        W61497  44.820  28.589   4.673
89150W        W61498  23.547  29.074  10.643
89151W        W61499  10.317  14.682  13.940
89152W        W61500  28.647  15.266  12.058
89153W        W61501  40.464  40.836   2.407
89154W        W61502  38.825  44.306   3.192
89155W        W61503  23.036  32.105  12.462
89156W        W61504  15.678  13.210   2.255
89157W        W61505  42.442  15.594   2.365
89158W        W61506  13.236  18.079   2.342
89159W        W61507  10.333  27.175  10.581
89160W        W61508  20.694  30.953  10.431
89161W        W61509  34.399  32.067   4.136
89162W        W61510  20.069  38.874   3.636
89163W        W61511   9.795  31.522  13.793
89164W        W61512  35.874  26.071  10.484
89165W        W61513  26.969  19.076  10.538
89166W        W61514  44.807   4.868   4.141
89167W        W61515  12.708  12.124   0.264
89168W        W61516  42.871  32.996  14.296
89169W        W61517  30.558  27.990  12.953
89170W        W61518  38.950  33.904   3.859
89171W        W61519   0.868  43.494  13.370
89172W        W61520  35.556  11.853  14.793
89173W        W61521  24.698  15.304  11.994
89174W        W61522   4.204   2.822   3.378
89175W        W61523  30.513  41.861   2.730
89176W        W61524  42.012  40.958   4.134
89177W        W61525  25.704  35.514   4.298
89178W        W61526  38.460  34.113  12.911
89179W        W61527  16.757  36.456  13.846
89180W        W61528  40.988   9.274  12.063
89181W        W61529  15.633  39.000   3.353
89182W        W61530   3.272  21.207  11.535
89183W        W61531   2.738   4.377  12.500
89184W        W61532   6.297  30.484  12.443
89185W        W61533  40.981  25.713   4.172
89186W        W61534  41.529  42.008  14.317
89187W        W61535  31.552  27.158  14.975
89188W        W61536   3.343  30.017  10.926
89189W        W61537  22.644  27.948  12.978
89190W        W61538  26.169   8.292  10.568
89191W        W61539  13.770   1.834   3.827
89192W        W61540  28.065  37.437  11.542
89193W        W61541  24.683  39.838   4.705
89194W        W61542  32.117  33.080  12.049
89195W        W61543  42.321  26.553  13.927
89196W        W61544  11.764  21.140  12.517
89197W        W61545  41.828   1.274  13.340
89198W        W61546  41.837  15.762   0.435
89199W        W61547   7.713  31.949   1.222
89200W        W61548  29.978  11.288   0.892
89201W        W61549  35.024  14.139   1.341
89202W        W61550  19.087   8.769   0.842
89203W        W61551  25.178  32.543   1.381
89204W        W61552  15.177  41.383   0.912
89205W        W61553  10.877  35.993   2.313
89206W        W61554  17.270  35.522  14.798
89207W        W61555  38.498  30.054  13.340
89208W        W61556  14.711  22.727   0.823
89209W        W61557   7.187  12.123  11.582
89210W        W61558  32.569  38.555   0.374
89211W        W61559  41.915   3.405  13.417
89212W        W61560  30.044  22.557  14.282
89213W        W61561  42.816  19.152   2.714
89214W        W61562  38.541  30.517  13.017
89215W        W61563  21.728  21.234  10.906
89216W        W61564  21.713   3.245  11.033
89217W        W61565  37.929  11.322   4.733
89218W        W61566  33.583  26.540   2.334
89219W        W61567  34.533   5.367  11.566
89220W        W61568  20.643   1.453   0.367
89221W        W61569  26.676   9.861  12.906
89222W        W61570   6.375  32.954  10.470
89223W        W61571  16.091  36.480  13.885
89224W        W61572  13.205  16.812  12.009
89225W        W61573  32.094   8.370   5.121
89226W        W61574   4.405   2.894   1.756
89227W        W61575  11.259  21.574  12.859
89228W        W61576   5.781  26.062  14.877
89229W        W61577  18.216  38.498  12.027
89230W        W61578  35.450  38.502   4.638
89231W        W61579  10.695   6.856   0.305
89232W        W61580  13.845  11.286   0.471
89233W        W61581  31.588  44.863  13.381
89234W        W61582  23.543  11.691   3.703
89235W        W61583  20.539   0.861   1.744
89236W        W61584  20.571  31.061  14.957
89237W        W61585   1.813  15.259  10.588
89238W        W61586  29.107  26.009  11.516
89239W        W61587   6.915  20.761  13.308
89240W        W61588  34.595  10.216  12.386
89241W        W61589  39.356  13.306  14.864
89242W        W61590   9.336  23.014   0.911
89243W        W61591  27.000  43.817   0.447
89244W        W61592  26.193  25.119  11.602
89245W        W61593  28.612  44.400   2.838
89246W        W61594  16.200  44.893  11.091
89247W        W61595  11.178   2.748   1.768
89248W        W61596  42.909  21.602  14.802
89249W        W61597  41.871  30.108  14.952
89250W        W61598  24.720  32.414  14.956
89251W        W61599  17.253  30.536   1.323
89252W        W61600  22.242   5.909  10.947
89253W        W61601  25.011  39.347   1.335
89254W        W61602  38.419  16.636  12.455
89255W        W61603   7.299  10.243   3.662
89256W        W61604   7.348  31.473  13.468
89257W        W61605  31.111  41.827   4.195
89258W        W61606  16.640  41.377  13.536
89259W        W61607  31.617  43.320   1.312
89260W        W61608  17.095  41.922  13.006
89261W        W61609  22.629   1.973  10.023
89262W        W61610   2.948  27.972  11.430
89263W        W61611  14.777  19.744  11.048
89264W        W61612  36.896  21.255  14.283
89265W        W61613   1.483  25.151   0.435
89266W        W61614  19.192  42.519  14.813
89267W        W61615  15.747  23.569   2.788
89268W        W61616  16.275  30.151   0.791
89269W        W61617  14.260  24.533  11.013
89270W        W61618  37.338  36.857  11.477
89271W        W61619  30.527  15.136   1.799
89272W        W61620  13.696   6.762  14.391
89273W        W61621  22.540  40.486  11.442
89274W        W61622  31.935  14.284   4.675
89275W        W61623   3.859  33.928   4.191
89276W        W61624  25.128  33.968  13.059
89277W        W61625   2.415  24.631   0.409
89278W        W61626   6.270  24.146  12.446
89279W        W61627   6.678  34.455  10.455
89280W        W61628  28.954  41.948   3.741
89281W        W61629  18.192  43.999  12.495
89282W        W61630  23.679   3.784  13.064
89283W        W61631   9.337   9.712   2.853
89284W        W61632   6.301   6.778  10.619
89285W        W61633  26.481  29.611   0.820
89286W        W61634  29.637  11.233  10.404
89287W        W61635  23.658  19.038   1.279
89288W        W61636  38.012  28.967  12.045
89289W        W61637  40.365  23.175  11.447
89290W        W61638  19.069  24.114   4.205
89291W        W61639  43.776  18.176  13.505
89292W        W61640  44.972  22.074  11.914
89293W        W61641  27.066  10.720  10.980
89294W        W61642  15.585  18.644  14.445
89295W        W61643  39.393  36.065  12.933
89296W        W61644  22.569  42.434  14.827
89297W        W61645  35.018   7.725   3.315
89298W        W61646  10.253   5.258  14.025
89299W        W61647  30.988  18.242  10.152
89300W        W61648  18.071   4.773  13.457
89301W        W61649   9.785   4.776  12.900
89302W        W61650  35.026  31.497  13.381
89303W        W61651   0.445  21.205  11.896
89304W        W61652  23.039  15.610  13.837
89305W        W61653  14.151  41.511  11.945
89306W        W61654  25.099   9.791   9.653
89307W        W61655   1.426  33.911  12.934
89308W        W61656   8.786   2.400   4.651
89309W        W61657  18.640   8.672   2.360
89310W        W61658  36.949  34.052   4.288
89311W        W61659  38.361  27.616  10.497
89312W        W61660  18.602  23.039  12.041
89313W        W61661   1.256  31.544  13.946
89314W        W61662  39.062  18.177  13.457
89315W        W61663   1.411  40.327  11.971
89316W        W61664  25.126  33.883   2.351
89317W        W61665  16.110   8.893   2.227
89318W        W61666  34.965  12.147  11.933
89319W        W61667   5.238  42.795  11.580
89320W        W61668  23.090  25.163   3.815
89321W        W61669  17.143  38.890  12.555
89322W        W61670  44.420  44.392   3.631
89323W        W61671  20.726  42.862   4.700
89324W        W61672  18.115  29.440  14.398
89325W        W61673  14.651   6.382   3.284
89326W        W61674  40.014   9.712   4.768
89327W        W61675   8.810  38.437   0.297
89328W        W61676  20.048  21.711   2.402
89329W        W61677   3.247  13.709   3.233
89330W        W61678  20.571  16.185  11.875
89331W        W61679  21.237  17.758  11.576
89332W        W61680  18.145  31.445   9.584
89333W        W61681  36.035   2.831   0.364
89334W        W61682  24.562  28.466   1.280
89335W        W61683  35.500  23.062  13.458
89336W        W61684   0.884  25.693   0.333
89337W        W61685  24.486   1.439  13.883
89338W        W61686  12.279  42.847  10.043
89339W        W61687  31.511  24.668  14.300
89340W        W61688   6.872  30.091  14.483
89341W        W61689  15.667  12.706  11.872
89342W        W61690   2.813   7.395   0.242
89343W        W61691  18.656   5.926  13.055
89344W        W61692  18.087  26.574  10.547
89345W        W61693  43.380  34.452   0.924
89346W        W61694   7.238  16.318  14.005
89347W        W61695  40.370  38.442  14.967
89348W        W61696   2.814  15.787   3.188
89349W        W61697   3.822   6.265  14.293
89350W        W61698  28.161  19.113  12.909
89351W        W61699   2.929  40.389  10.981
89352W        W61700  42.971  13.274  11.534
89353W        W61701  44.291  40.933  12.027
89354W        W61702   8.721   4.843  13.492
89355W        W61703  30.556  11.173  14.914
89356W        W61704   2.288   3.268   2.690
89357W        W61705   4.208   8.672   3.349
89358W        W61706  18.629  26.616   5.157
89359W        W61707  44.409   0.932   2.797
89360W        W61708  15.274   7.261  13.982
89361W        W61709  26.173  15.286   0.446
89362W        W61710  39.479  31.555  11.570
89363W        W61711  44.420   0.381  14.393
89364W        W61712  16.676   3.860  10.583
89365W        W61713  36.016  33.605   3.236
89366W        W61714  30.519  22.730  10.408
89367W        W61715   9.685   3.845   1.730
89368W        W61716   7.879  16.612   0.364
89369W        W61717   2.953   6.840   3.737
89370W        W61718  23.068  33.116  11.095
89371W        W61719  36.574  22.069   2.358
89372W        W61720  24.087  21.632  11.511
89373W        W61721  16.734  42.870  14.022
89374W        W61722  38.821  17.710   2.271
89375W        W61723   7.667   7.769   0.357
89376W        W61724  20.137  28.604  11.965
89377W        W61725  44.923  29.606  10.451
89378W        W61726  18.746  26.051  13.315
89379W        W61727  28.554  33.958  12.839
89380W        W61728  43.841  25.006   4.203
89381W        W61729  15.142   1.412   0.742
89382W        W61730  16.779   2.332  14.764
89383W        W61731  12.845  29.461  12.057
89384W        W61732  38.837  13.795  11.974
89385W        W61733  15.577  15.092   5.776
89386W        W61734  38.998  40.819   2.835
89387W        W61735   7.844  15.117  10.530
89388W        W61736   6.181   0.966   2.818
89389W        W61737  24.614  16.792  10.909
89390W        W61738  41.316  27.678  10.891
89391W        W61739  18.715  30.514  14.498
89392W        W61740  13.783   8.656   4.709
89393W        W61741  15.108   2.335   2.709
89394W        W61742  36.393  29.542   4.787
89395W        W61743  39.331   4.369   1.397
89396W        W61744  17.101  36.876  12.456
89397W        W61745  11.657  20.550   3.870
89398W        W61746   8.685  24.624   4.734
89399W        W61747   2.911   5.278   0.301
89400W        W61748  39.973  11.825  11.389
89401W        W61749  38.972  28.015  10.596
89402W        W61750  44.773  21.088   4.128
89403W        W61751  15.809  24.635  12.556
89404W        W61752  34.073  25.207  11.937
89405W        W61753  37.047  29.937  12.974
89406W        W61754  28.548  15.734  10.905
89407W        W61755  27.965  10.677  11.040
89408W        W61756  17.725  24.118   4.759
89409W        W61757  27.625  16.086  14.503
89410W        W61758  36.922  20.570  13.795
89411W        W61759  17.266   4.255   1.876
89412W        W61760   6.875  34.900   4.322
89413W        W61761  29.443  34.499   4.686
89414W        W61762  14.810  38.837  10.995
89415W        W61763  26.568  43.469  14.889
89416W        W61764  43.363  12.224  11.952
89417W        W61765  42.337  33.927  10.965
89418W        W61766   5.699  39.856   3.635
89419W        W61767   6.351  26.571   1.446
89420W        W61768  15.808   3.850   2.719
89421W        W61769  40.349  42.895  11.082
89422W        W61770  12.750  28.506  14.421
89423W        W61771  27.982  39.379  11.552
89424W        W61772  12.217   1.770  14.934
89425W        W61773  16.254   5.395  11.372
89426W        W61774  19.086   5.723   4.338
89427W        W61775  30.941  26.699  10.496
89428W        W61776  32.492  23.194  14.796
89429W        W61777  31.944  41.040  11.378
89430W        W61778  33.390   8.877  12.920
89431W        W61779  36.880  30.158  12.023
89432W        W61780  34.969   0.356   4.351
89433W        W61781   5.833  21.212  12.379
89434W        W61782   8.740  35.028  11.474
89435W        W61783  37.874  17.634   3.696
89436W        W61784   6.688   8.735   0.858
89437W        W61785   7.413  33.078  14.815
89438W        W61786  40.376   2.772   3.189
89439W        W61787  34.962  16.568   1.884
89440W        W61788   8.659   8.356   4.773
89441W        W61789  20.267  15.199   0.378
89442W        W61790  20.098  35.458  14.842
89443W        W61791   1.770  13.178   1.715
89444W        W61792  12.650  16.626  12.965
89445W        W61793  10.284  18.774  14.368
89446W        W61794  29.017  13.283  11.552
89447W        W61795  36.970  19.629   1.891
89448W        W61796  17.105   8.193  11.469
89449W        W61797  18.217  31.026  12.387
89450W        W61798  44.938  27.115   0.420
89451W        W61799   0.374   5.274   1.841
89452W        W61800  10.743  34.893  14.351
89453W        W61801  38.885  37.517   0.336
89454W        W61802   3.808  26.606  13.975
89455W        W61803  41.419   3.865   3.683
89456W        W61804   2.326   5.424  11.915
89457W        W61805  31.644   1.369  10.999
89458W        W61806  15.580  13.212  14.885
89459W        W61807  43.935  29.972   0.803
89460W        W61808   8.870   6.911  14.869
89461W        W61809  30.541  18.076   4.216
89462W        W61810   9.277  16.303  12.575
89463W        W61811  31.911  29.080  11.982
89464W        W61812  39.874  39.038  14.962
89465W        W61813  39.006  24.596   4.153
89466W        W61814   8.874  11.686   3.298
89467W        W61815  32.048   7.838   2.199
89468W        W61816  38.395  34.049  10.580
89469W        W61817  37.508  10.328  10.022
89470W        W61818  40.840  19.112   0.317
89471W        W61819  27.654  13.761  13.851
89472W        W61820  20.088   2.734  14.804
89473W        W61821   9.832   0.332   2.903
89474W        W61822  33.112  44.463  11.508
89475W        W61823   6.258   3.215   4.625
89476W        W61824  28.490  13.270  10.994
89477W        W61825   9.756  41.838  13.431
89478W        W61826  21.589  40.309   4.750
89479W        W61827  11.799  23.158   0.332
89480W        W61828  40.053  37.920  13.334
89481W        W61829  19.573   5.722   4.292
89482W        W61830  19.719  40.931   0.925
89483W        W61831  12.795  39.327  12.472
89484W        W61832  17.769  21.624  14.896
89485W        W61833  36.014  25.978   2.900
89486W        W61834   5.838  42.359  10.629
89487W        W61835  10.772  27.942  12.398
89488W        W61836  16.633  13.626   4.674
89489W        W61837   6.871  22.674  11.495
89490W        W61838  35.572  20.656   1.698
89491W        W61839  43.764   8.656   2.709
89492W        W61840  38.349  32.571  10.899
89493W        W61841  19.218  30.438   2.309
89494W        W61842   8.737  25.583  13.999
89495W        W61843  28.167   9.392  10.498
89496W        W61844  14.781   2.891   4.716
89497W        W61845  33.020  31.059  13.883
89498W        W61846  44.927  29.450   1.362
89499W        W61847  38.853  26.692   4.302
89500W        W61848  36.541  21.706  12.961
89501W        W61849  44.854  43.367  11.482
89502W        W61850  32.025  40.848   4.724
89503W        W61851  34.423  16.650  11.940
89504W        W61852  24.573  11.317  13.350
89505W        W61853  20.695  42.321   4.192
89506W        W61854   0.856  36.465  14.405
89507W        W61855  16.304  28.652  13.308
89508W        W61856  36.405   0.274   3.630
89509W        W61857  15.242  39.525   4.191
89510W        W61858  27.105  37.472  11.453
89511W        W61859  14.686  30.421   0.896
89512W        W61860  29.535  23.095  14.392
89513W        W61861  17.146  37.574   4.786
89514W        W61862  17.262   1.467   1.847
89515W        W61863   8.195  15.727  11.439
89516W        W61864   7.676  18.076   0.911
89517W        W61865   6.387  33.538  13.318
89518W        W61866  23.597  41.490  13.319
89519W        W61867  12.272  21.026  13.968
89520W        W61868  17.558  39.398   3.258
89521W        W61869  27.964  34.900  11.431
89522W        W61870  15.690   9.223  14.378
89523W        W61871  25.111  16.669   3.291
89524W        W61872  36.092  33.069  11.866
89525W        W61873  41.519  38.510   2.699
89526W        W61874  36.562  19.709   1.779
89527W        W61875   8.671  17.098   2.672
89528W        W61876  33.023   9.207  13.511
89529W        W61877  35.907  16.691   0.333
89530W        W61878  36.950   7.335   4.649
89531W        W61879  32.044  21.099   4.616
89532W        W61880  16.673  40.922   3.637
89533W        W61881   1.407  25.492   3.642
89534W        W61882  42.008  31.092   4.173
89535W        W61883  21.717  37.445  13.403
89536W        W61884  16.251  43.510  12.349
89537W        W61885  39.346   6.330  10.463
89538W        W61886   4.757   6.278   0.959
89539W        W61887  24.521   0.814   0.754
89540W        W61888   1.454  23.495   3.785
89541W        W61889  30.076  25.680  12.388
89542W        W61890  13.809  16.756   0.936
89543W        W61891  44.480  14.619  14.837
89544W        W61892  21.547  28.093  14.899
89545W        W61893  35.892  41.343   1.338
89546W        W61894  39.001  44.383   0.832
89547W        W61895  22.153  42.891   2.351
89548W        W61896  41.864  16.236  14.983
89549W        W61897  24.990  17.239   3.722
89550W        W61898  37.391  28.068   2.261
89551W        W61899  14.640   8.706   1.407
89552W        W61900   1.799  26.560   3.717
89553W        W61901  13.732  29.995  12.399
89554W        W61902  30.038  33.020  13.438
89555W        W61903  11.643  18.100  10.592
89556W        W61904  30.482  36.923   2.822
89557W        W61905  37.975  40.965  14.418
89558W        W61906   1.935  42.001   4.304
89559W        W61907  27.523  23.036  12.927
89560W        W61908  22.666  32.936   3.767
89561W        W61909  25.664   5.253  12.423
89562W        W61910   4.428   4.350   3.717
89563W        W61911   9.215  25.520  11.613
89564W        W61912   5.769  24.542   4.211
89565W        W61913  32.088  36.995  12.349
89566W        W61914  44.971   0.835  11.918
89567W        W61915   3.944  43.343  12.348
89568W        W61916  30.646   2.280  11.054
89569W        W61917  13.329  29.136   4.124
89570W        W61918   0.931   0.410   4.227
89571W        W61919  28.109  24.659  14.004
89572W        W61920  23.218  23.237   2.262
89573W        W61921  36.956  16.576  12.405
89574W        W61922   7.890   5.255   4.783
89575W        W61923   9.316  18.738   1.230
89576W        W61924  33.106  13.105   4.748
89577W        W61925  18.183  44.995   4.280
89578W        W61926  39.496  26.105   4.647
89579W        W61927   5.332   5.748  11.423
89580W        W61928  27.024  35.970   0.823
89581W        W61929  42.857   0.984   1.824
89582W        W61930  25.553   8.252  14.017
89583W        W61931  12.134  17.080  14.302
89584W        W61932  43.961  43.329   0.259
89585W        W61933  42.468   2.242   4.153
89586W        W61934  17.708  35.534   0.902
89587W        W61935  41.791   8.288   0.424
89588W        W61936  10.637  14.700   4.654
89589W        W61937  34.020   9.320   4.706
89590W        W61938   4.445  27.965  14.811
89591W        W61939  42.815  13.778   3.240
89592W        W61940  21.088   8.261  11.569
89593W        W61941  29.533   2.820   1.273
89594W        W61942  18.548  14.796  14.405
89595W        W61943  32.552  42.472  13.799
89596W        W61944  10.811   8.218   1.912
89597W        W61945  14.134   4.888  13.791
89598W        W61946  26.991  24.006   1.793
89599W        W61947  38.059  40.828   4.282
89600W        W61948  22.738  44.792   1.422
89601W        W61949   8.669  11.627   4.325
89602W        W61950  42.812  42.026   5.185
89603W        W61951  23.208   5.726  13.400
89604W        W61952  29.155  43.994  10.467
89605W        W61953   0.363  20.111   1.344
89606W        W61954   6.230  27.454  14.793
89607W        W61955   5.253  27.187   1.333
89608W        W61956   2.766  43.363   4.192
89609W        W61957  39.522  26.963   3.218
89610W        W61958  30.915  35.388   3.709
89611W        W61959   5.317  25.970   1.906
89612W        W61960  34.903  42.942   5.274
89613W        W61961  16.073  14.691   5.241
89614W        W61962  34.982  28.562  10.566
89615W        W61963  19.664  10.216  11.406
89616W        W61964  17.723  12.316  14.846
89617W        W61965  28.466  32.567   4.638
89618W        W61966  33.571  14.326   1.866
89619W        W61967  21.512  21.028   0.313
89620W        W61968   4.888  44.763   1.829
89621W        W61969  22.061  44.825  13.363
89622W        W61970  25.499  38.359   3.255
89623W        W61971  12.636   5.782   4.232
89624W        W61972  33.449   6.906  11.405
89625W        W61973  38.363  22.227  12.487
89626W        W61974  18.682  18.695   4.788
89627W        W61975   3.928   7.251   3.858
89628W        W61976  23.652  44.989  11.414
89629W        W61977   9.823  33.470   5.322
89630W        W61978  26.575  16.609   4.709
89631W        W61979   1.898  42.425  10.601
89632W        W61980  31.622  15.703   2.729
89633W        W61981  17.179  41.396  12.467
89634W        W61982   6.280  23.190  14.978
89635W        W61983   1.748  21.119  14.351
89636W        W61984  35.522  26.087  12.010
89637W        W61985  40.455  25.661   1.795
89638W        W61986  16.622  40.831   2.714
89639W        W61987  14.330  11.779   4.208
89640W        W61988  18.221  22.614   3.265
89641W        W61989   9.714  12.343  14.780
89642W        W61990   6.398   6.355   0.746
89643W        W61991  19.162  43.327  10.917
89644W        W61992  16.165  32.920  13.475
89645W        W61993   4.826  12.116   2.385
89646W        W61994  41.920  23.543   0.901
89647W        W61995  27.621   2.273  12.834
89648W        W61996   7.843  15.243  13.531
89649W        W61997  36.572  14.325  14.388
89650W        W61998  32.547  12.850   0.388
89651W        W61999  10.717  19.644  11.892
89652W        W62000  23.697  35.050   0.964
89653W        W62001   5.363  20.691  10.554
89654W        W62002  12.652  41.337   1.234
89655W        W62003   5.324   0.817   0.883
89656W        W62004  26.646  15.254   1.371
89657W        W62005  14.717  13.652   2.674
89658W        W62006   3.234  17.615   3.859
89659W        W62007  35.093  12.770  14.475
89660W        W62008   6.790  32.535  14.946
89661W        W62009   6.765  10.854  13.828
89662W        W62010  10.241  34.463  12.528
89663W        W62011   5.718  31.506   2.686
89664W        W62012  36.416  15.238  11.978
89665W        W62013  10.699   0.424   3.648
89666W        W62014  18.769   5.704  12.455
89667W        W62015  39.995  22.572  14.330
89668W        W62016  19.722  13.111  13.429
89669W        W62017  37.867   6.816  10.084
89670W        W62018   8.382  28.661   4.659
89671W        W62019  15.100  23.514   4.648
89672W        W62020   8.868   8.690   3.225
89673W        W62021  42.450  39.403  14.414
89674W        W62022   1.738  37.033  11.490
89675W        W62023   3.719   4.845  10.004
89676W        W62024  18.570   8.370  14.885
89677W        W62025  22.693  12.650  14.832
89678W        W62026  19.638  40.387   0.896
89679W        W62027  18.111   7.898  11.070
89680W        W62028  39.836  22.090   1.446
89681W        W62029  19.263  32.048  13.877
89682W        W62030  17.185  35.009   1.794
89683W        W62031  35.975  22.723  14.952
89684W        W62032   0.922  20.211   3.737
89685W        W62033  15.743  28.170  14.394
89686W        W62034  23.499  14.817  14.945
89687W        W62035  43.969   7.409  14.498
89688W        W62036  44.867   5.763   1.278
89689W        W62037  36.000  24.636  11.495
89690W        W62038   9.255   5.198   1.223
89691W        W62039  19.163   7.244   2.665
89692W        W62040  35.083  40.529   3.297
89693W        W62041  31.105   8.203  14.290
89694W        W62042  14.592  10.144  12.061
89695W        W62043  16.696  13.296  14.985
89696W        W62044   1.332  43.496  14.960
89697W        W62045  29.947  30.920  12.395
89698W        W62046   1.840  13.703   3.701
89699W        W62047  10.813  38.981   0.388
89700W        W62048  35.998  15.800  13.377
89701W        W62049  16.587   0.249   3.251
89702W        W62050   0.984  11.315  10.536
89703W        W62051  17.164  10.657  12.888
89704W        W62052  11.171   3.866   1.317
89705W        W62053  35.547  34.120  11.939
89706W        W62054   8.295   4.217   2.262
89707W        W62055   2.857  11.254  12.546
89708W        W62056  40.522  30.082  13.453
89709W        W62057   8.738  18.089  12.485
89710W        W62058   9.167  25.004  10.108
89711W        W62059   9.326  41.947   3.733
89712W        W62060  27.004  41.899  11.958
89713W        W62061  11.223  29.022   0.417
89714W        W62062  20.042  37.346  14.428
89715W        W62063   3.765   2.908   3.802
89716W        W62064   8.328  25.483  14.974
89717W        W62065   8.278  43.421   0.251
89718W        W62066  13.649  34.471  14.339
89719W        W62067  24.106  24.607   2.794
89720W        W62068  25.655  35.512   3.690
89721W        W62069   1.250  12.643   0.438
89722W        W62070  13.136  39.031   3.702
89723W        W62071  11.704   1.976  10.138
89724W        W62072  15.224  35.519  13.856
89725W        W62073   3.906   7.701   3.720
89726W        W62074   4.785  16.315  12.917
89727W        W62075  29.661  36.084   4.762
89728W        W62076  25.500  20.108   3.841
89729W        W62077  27.988  19.643  12.954
89730W        W62078  14.186   4.323  14.407
89731W        W62079  43.831  38.033  10.911
89732W        W62080  40.940  33.990   1.783
89733W        W62081  13.664  33.944  13.843
89734W        W62082  19.088  11.219  13.399
89735W        W62083  42.031  22.202   0.835
89736W        W62084  24.643  11.746  14.900
89737W        W62085  29.956  37.932  15.000
89738W        W62086  12.324  33.946   2.753
89739W        W62087   7.390  25.555   1.748
89740W        W62088   0.377   1.817  11.592
89741W        W62089  20.133   3.217  11.001
89742W        W62090  21.753  15.197   4.280
89743W        W62091  24.060  29.083  12.506
89744W        W62092  10.231  40.385   4.209
89745W        W62093  22.684   0.904  13.860
89746W        W62094  37.479  31.627   3.272
89747W        W62095  33.521  13.267   2.220
89748W        W62096  34.381  32.102  14.296
89749W        W62097  22.724  32.132   3.740
89750W        W62098  30.587  35.526  11.588
89751W        W62099  20.524   2.870   4.706
89752W        W62100   8.760  38.513   1.332
89753W        W62101  25.670   6.423   2.271
89754W        W62102   9.817  35.870   0.289
89755W        W62103  37.928   4.926   4.251
89756W        W62104  10.812  39.448  12.892
89757W        W62105  19.261   7.705  14.886
89758W        W62106  28.597  27.510   0.344
89759W        W62107   5.405   6.413   4.679
89760W        W62108  17.794  25.968  10.522
89761W        W62109  30.622  13.690  13.542
89762W        W62110  28.052   2.380   0.386
89763W        W62111  26.636   8.747  12.461
89764W        W62112  39.821  25.015  11.502
89765W        W62113  21.524  22.510   3.306
89766W        W62114  21.099  28.992  12.414
89767W        W62115  34.505  43.460   1.212
89768W        W62116   6.808  26.970   0.483
89769W        W62117  18.202  11.849   0.897
89770W        W62118  30.953  43.765   0.472
89771W        W62119  24.714  22.590   0.360
89772W        W62120   8.742  43.464  11.590
89773W        W62121   7.849  22.102  14.398
89774W        W62122   9.369   5.902   0.791
89775W        W62123  32.045   3.260  13.865
89776W        W62124  14.791  21.192  14.312
89777W        W62125   8.396  40.937   4.353
89778W        W62126  40.386   8.224   3.858
89779W        W62127   5.231  32.009  12.890
89780W        W62128  42.414  38.883  10.454
89781W        W62129  34.914  10.313   2.307
89782W        W62130  30.024  14.633  10.618
89783W        W62131  36.572  36.477  10.967
89784W        W62132  41.795   6.795  11.866
89785W        W62133   6.769  30.431  10.462
89786W        W62134  19.545  28.661  13.474
89787W        W62135   9.152  26.701   1.354
89788W        W62136  32.509  33.564   2.380
89789W        W62137  11.682  41.360   1.334
89790W        W62138  41.793  12.173  13.330
89791W        W62139   2.322  21.053  11.424
89792W        W62140  44.788  11.368   2.829
89793W        W62141  27.489  23.221   2.885
89794W        W62142  31.454  20.191  13.038
89795W        W62143  26.063  11.756  14.822
89796W        W62144  40.000   4.311  13.413
89797W        W62145  13.632  27.178   2.858
89798W        W62146  16.229  28.572   4.170
89799W        W62147  20.699   0.430  13.532
89800W        W62148  29.499  27.512   4.661
89801W        W62149  29.161  21.197   2.666
89802W        W62150  43.867   7.849  12.963
89803W        W62151  10.777  27.115  13.896
89804W        W62152  35.439  14.103  12.511
89805W        W62153  14.181  24.485  12.502
89806W        W62154  26.081  22.504   0.899
89807W        W62155  15.166  30.590   2.878
89808W        W62156  12.207  35.916   3.378
89809W        W62157   0.425  37.074  12.951
89810W        W62158  13.749  27.012  14.367
89811W        W62159  41.478   1.255  13.343
89812W        W62160  25.171  24.527   1.826
89813W        W62161  38.534  25.003  13.507
89814W        W62162  16.125  26.134   4.721
89815W        W62163  30.584  38.564   0.855
89816W        W62164  19.222  41.459   2.357
89817W        W62165  14.624   7.742  11.000
89818W        W62166  35.032  39.395   3.167
89819W        W62167  22.734  31.636  14.793
89820W        W62168  27.049  29.998   1.865
89821W        W62169  23.087   9.774   5.159
89822W        W62170  27.453   4.896  13.026
89823W        W62171  27.502   6.208   1.908
89824W        W62172  27.107  13.331   0.841
89825W        W62173  29.134   2.419   0.766
89826W        W62174  40.306  33.970  10.469
89827W        W62175  33.495  37.427  11.117
89828W        W62176  18.117  30.111  13.942
89829W        W62177   1.949   9.267   2.735
89830W        W62178  18.130  19.281   2.783
89831W        W62179  20.556  12.713  10.914
89832W        W62180  11.651   3.912   0.889
89833W        W62181   9.253   1.766   5.205
89834W        W62182  11.184  15.245   0.331
89835W        W62183   7.813  19.263  10.574
89836W        W62184   0.757  29.618   4.697
89837W        W62185  31.432   7.718   3.202
89838W        W62186  10.656   0.453   4.694
89839W        W62187  35.385  38.836  13.315
89840W        W62188   1.247  39.529  14.779
89841W        W62189   7.410  10.808   3.818
89842W        W62190  20.527  38.991   0.377
89843W        W62191  28.615  41.900   4.645
89844W        W62192  32.032  40.493   4.616
89845W        W62193  22.065  42.468  11.531
89846W        W62194   9.241  34.950  12.927
89847W        W62195  29.079   5.781  11.455
89848W        W62196  43.285   8.255  11.565
89849W        W62197   9.671  24.012  13.955
89850W        W62198  33.624  33.449  14.873
89851W        W62199  23.640  30.626   1.262
89852W        W62200  35.473  16.685  12.438
89853W        W62201  19.102  35.499  13.468
89854W        W62202  11.133  15.301  12.528
89855W        W62203  12.822  10.278  12.920
89856W        W62204  29.450  30.521   4.693
89857W        W62205  19.104   6.702  11.467
89858W        W62206  43.784   4.348   1.740
89859W        W62207  29.114  35.547  12.949
89860W        W62208  13.731  29.091   0.892
89861W        W62209   5.697  11.815   2.686
89862W        W62210  15.207  27.664  14.359
89863W        W62211  17.175   7.716  11.607
89864W        W62212  36.924  26.078  13.452
89865W        W62213  36.445  32.086   0.454
89866W        W62214  10.659  19.694  12.992
89867W        W62215  40.917  10.798  13.992
89868W        W62216  14.101   1.831   0.413
89869W        W62217  15.640  44.952   2.396
89870W        W62218  11.246  20.239  10.442
89871W        W62219  21.039  34.950   2.254
89872W        W62220  34.059  24.047   1.431
89873W        W62221  19.104   9.761   2.723
89874W        W62222  34.897  21.592  10.409
89875W        W62223  12.222  15.776   2.708
89876W        W62224  33.438  42.828   2.800
89877W        W62225  32.988  36.926   2.249
89878W        W62226  28.643  42.501  11.970
89879W        W62227  10.239  23.051   3.264
89880W        W62228  26.505  39.411   0.927
89881W        W62229  24.975  12.741  12.993
89882W        W62230  36.483  43.275   3.846
89883W        W62231  17.152  23.733   2.779
89884W        W62232   7.176  21.555   2.188
89885W        W62233  25.024   8.294  14.835
89886W        W62234  38.431  25.548   2.841
89887W        W62235   6.804  30.556   2.291
89888W        W62236  42.931   3.449  11.907
89889W        W62237  37.942  31.080  13.023
89890W        W62238   8.768  41.953   2.276
89891W        W62239  25.657  44.486   0.452
89892W        W62240   4.326  41.461  12.401
89893W        W62241  15.686  24.097  13.926
89894W        W62242   9.775  39.507  14.311
89895W        W62243   7.743  34.568  13.852
89896W        W62244  41.345  24.690  12.976
89897W        W62245  37.490  42.868   0.734
89898W        W62246   2.780  19.101   4.127
89899W        W62247   2.228  25.693   0.808
89900W        W62248  44.001   3.899   3.285
89901W        W62249  16.589   7.385   2.189
89902W        W62250   7.409  15.155  11.383
89903W        W62251  22.717  14.732  12.046
89904W        W62252   2.230  13.327  13.030
89905W        W62253  29.662  34.380  14.457
89906W        W62254  36.983  39.839   1.753
89907W        W62255  35.576  44.998  13.438
89908W        W62256   3.382  13.123   4.294
89909W        W62257  20.249  31.941   1.244
89910W        W62258  41.361  36.427   4.753
89911W        W62259  17.648   1.890   1.332
89912W        W62260  17.257  41.469  10.553
89913W        W62261  12.239  20.606   3.229
89914W        W62262  12.319  20.544  11.391
89915W        W62263  26.204   9.392   1.251
89916W        W62264  31.579  22.101   2.824
89917W        W62265   3.338  12.179  10.543
89918W        W62266  44.946  28.985  13.378
89919W        W62267  34.950  15.295   0.870
89920W        W62268  41.792  19.138   2.662
89921W        W62269  24.162  37.438  13.009
89922W        W62270   3.807  20.189   3.258
89923W        W62271  29.028  43.307  14.380
89924W        W62272  28.603   7.195   0.253
89925W        W62273  29.629  12.664   1.420
89926W        W62274  38.028  11.160   0.915
89927W        W62275  34.533   0.260   4.224
89928W        W62276  37.361  23.992  14.388
89929W        W62277   6.197   6.704   3.701
89930W        W62278  19.751   5.875  11.881
89931W        W62279   1.296  32.516   4.674
89932W        W62280   7.177  35.370   0.422
89933W        W62281  44.864  26.656   4.267
89934W        W62282  29.559  13.298   2.662
89935W        W62283  30.020  14.251  11.080
89936W        W62284  28.590  40.427  11.912
89937W        W62285  41.371  32.046   2.287
89938W        W62286  24.500  37.955  12.059
89939W        W62287  20.729   6.771  12.094
89940W        W62288  26.072  35.025   1.423
89941W        W62289  30.630  30.050   3.282
89942W        W62290  24.092  20.150   2.419
89943W        W62291  25.028  34.091  13.476
89944W        W62292  28.463  32.962  13.506
89945W        W62293  15.622  29.573   4.343
89946W        W62294  41.813  15.782   4.826
89947W        W62295  36.495   2.855  10.513
89948W        W62296  14.140   9.270   0.244
89949W        W62297  31.442  13.302  14.003
89950W        W62298   7.334  31.074   4.193
89951W        W62299  33.916   9.663   0.274
89952W        W62300   5.699  22.223  14.442
89953W        W62301  19.160  23.554  13.328
89954W        W62302  21.648  25.492  13.014
89955W        W62303  30.635  21.179   0.763
89956W        W62304  12.735  40.492   0.954
89957W        W62305  14.736   1.938  13.439
89958W        W62306  30.910   5.925   5.146
89959W        W62307  16.583  41.958   0.810
89960W        W62308   1.855   1.794  11.379
89961W        W62309  42.431   8.194   3.363
89962W        W62310  30.913  25.014   9.930
89963W        W62311  32.446  40.350   0.950
89964W        W62312  16.190  33.090  14.826
89965W        W62313   8.330  43.488  14.467
89966W        W62314  22.184  28.939   4.286
89967W        W62315  44.862   9.337   1.792
89968W        W62316  19.140   9.874   0.907
89969W        W62317   0.295  19.227  13.833
89970W        W62318  39.481  36.491   0.776
89971W        W62319  28.667  18.273  10.627
89972W        W62320   5.896  33.113   4.682
89973W        W62321  36.513  24.196  12.394
89974W        W62322  32.917  41.325   1.224
89975W        W62323  24.033  32.592  10.609
89976W        W62324  14.775  31.080   2.417
89977W        W62325   0.332  39.988  12.085
89978W        W62326  11.187  41.359  12.466
89979W        W62327   2.844   9.656   0.447
89980W        W62328  10.206  38.985  12.495
89981W        W62329  43.502   6.196   1.256
89982W        W62330   0.312  18.769  12.552
89983W        W62331  32.526  15.793  10.510
89984W        W62332   9.765  22.665  11.422
89985W        W62333  13.673  12.135   2.282
89986W        W62334  24.709  25.601   0.281
89987W        W62335   6.204  29.577  14.980
89988W        W62336  19.600   7.183   4.129
89989W        W62337   8.192   4.441   0.309
89990W        W62338   9.255   4.849  12.030
89991W        W62339  26.077  35.862  13.421
89992W        W62340  20.176  43.338   0.839
89993W        W62341   2.408   0.398   1.348
89994W        W62342  10.739   1.274   4.676
89995W        W62343  22.176  35.983  14.345
89996W        W62344  39.396  15.758   3.652
89997W        W62345   7.310  12.662  14.451
89998W        W62346   9.702   0.463   3.245
89999W        W62347  35.361  39.370  12.842
90000W        W62348  37.931  41.339  11.114
90001W        W62349  42.483  10.827   2.809
90002W        W62350  34.605  20.060   1.869
90003W        W62351  36.891  18.771   1.808
90004W        W62352   3.312  12.775   4.354
90005W        W62353  22.722  10.290   3.209
90006W        W62354  19.601  15.636   4.218
90007W        W62355   1.770  32.005  13.007
90008W        W62356  16.210  25.609   0.894
90009W        W62357  29.628  14.271   5.149
90010W        W62358   3.216  30.543  13.793
90011W        W62359  35.883  41.890   0.742
90012W        W62360  24.508  17.288  14.012
90013W        W62361  44.942  14.249   2.901
90014W        W62362  43.874  21.242   2.361
90015W        W62363   7.191  23.589   4.237
90016W        W62364   4.876  22.213  11.985
90017W        W62365  30.451  37.870  12.572
90018W        W62366  24.207  29.986   1.283
90019W        W62367  27.984   1.365  11.128
90020W        W62368  10.308  33.613   2.803
90021W        W62369   6.795  34.385  11.533
90022W        W62370  39.045  38.022  12.539
90023W        W62371  14.147  42.314  11.119
90024W        W62372  31.499  43.500  13.466
90025W        W62373   7.909  10.693   1.737
90026W        W62374  37.342   4.756   1.701
90027W        W62375   4.211  20.060   1.784
90028W        W62376  14.161  20.688   4.667
90029W        W62377  23.010  13.110   4.242
90030W        W62378  39.901  27.137   2.191
90031W        W62379   3.796  16.247   3.199
90032W        W62380  25.160  24.531   3.323
90033W        W62381  44.494  10.379   3.265
90034W        W62382  23.692  39.841   3.697
90035W        W62383  33.481  39.818   0.484
90036W        W62384  12.751   4.890   2.410
90037W        W62385  17.075   0.354   0.293
90038W        W62386  20.627  21.622  11.396
90039W        W62387  21.122   5.743   4.214
90040W        W62388  18.141  41.425  13.868
90041W        W62389  19.601  33.018   3.338
90042W        W62390   5.691  12.242  13.887
90043W        W62391   0.759   3.261  12.422
90044W        W62392  25.694   2.296  10.595
90045W        W62393  36.414  20.690   4.205
90046W        W62394  10.648  33.900   4.781
90047W        W62395  11.781   6.868  11.087
90048W        W62396  13.234  14.809   1.898
90049W        W62397  37.381  18.578   0.336
90050W        W62398  17.584  34.585  11.970
90051W        W62399  29.434  18.771   1.393
90052W        W62400  11.684  11.668   4.343
90053W        W62401  42.425  27.188  13.373
90054W        W62402  23.995  11.761  14.424
90055W        W62403  39.346  38.559   0.914
90056W        W62404   5.391   8.876  13.501
90057W        W62405  13.176   8.798  12.369
90058W        W62406   6.821  38.359   1.791
90059W        W62407  35.491  24.027  14.841
90060W        W62408  42.928  19.629  14.822
90061W        W62409  16.615   6.844  11.493
90062W        W62410   8.174  29.481   3.344
90063W        W62411  19.175  41.026   4.292
90064W        W62412   3.757  13.768   3.713
90065W        W62413   3.725   9.315  11.073
90066W        W62414  18.721  33.412   1.736
90067W        W62415  37.030  14.133  12.391
90068W        W62416  41.342  25.666  12.864
90069W        W62417  34.019  11.217   3.869
90070W        W62418  34.508  35.536  10.590
90071W        W62419  36.922  41.028  14.488
90072W        W62420  30.913   9.725  12.838
90073W        W62421  14.152  15.673  14.451
90074W        W62422  41.918   4.233  14.443
90075W        W62423  25.157   2.777  10.433
90076W        W62424  16.617   8.165   3.822
90077W        W62425  18.277  37.482   2.831
90078W        W62426   6.408  18.627  11.612
90079W        W62427   3.359  29.567  14.810
90080W        W62428  19.230   2.755   0.782
90081W        W62429  29.527  10.296   0.372
90082W        W62430   7.810  12.301   0.315
90083W        W62431  28.137  20.247   3.721
90084W        W62432  37.053   0.788   1.914
90085W        W62433   1.781  31.914   3.644
90086W        W62434  33.061  44.329   2.228
90087W        W62435  30.936   6.410   1.917
90088W        W62436   9.743  20.584  14.806
90089W        W62437  19.588   2.813  12.416
90090W        W62438  21.626  19.727   3.277
90091W        W62439   0.261  31.104   2.881
90092W        W62440  35.047  26.094   0.869
90093W        W62441  14.662   0.272  12.862
90094W        W62442  38.046  22.102  12.964
90095W        W62443  27.541  26.469  11.884
90096W        W62444  33.513  16.786  12.508
90097W        W62445  19.682  20.213   3.161
90098W        W62446  26.680  23.639   1.273
90099W        W62447  32.046  12.315  11.463
90100W        W62448  42.846  13.212  14.422
90101W        W62449  35.051  43.804   4.665
90102W        W62450  14.235  14.817  12.399
90103W        W62451  31.632   2.292   0.402
90104W        W62452  42.031   3.459  13.796
90105W        W62453  11.711  28.655  12.076
90106W        W62454   8.269   3.326   3.639
90107W        W62455  41.855  10.286   2.853
90108W        W62456  44.003  38.436  11.391
90109W        W62457  19.642   8.823  13.042
90110W        W62458   4.882   2.888   1.342
90111W        W62459  16.308  10.682  12.553
90112W        W62460  15.601  31.063   3.794
90113W        W62461   1.971  10.711   0.798
90114W        W62462  26.669  32.524   0.415
90115W        W62463  19.056  17.635  10.629
90116W        W62464  13.766  17.576   1.308
90117W        W62465  31.012  36.552   3.819
90118W        W62466  30.045  35.981  12.435
90119W        W62467  10.380  29.063  14.396
90120W        W62468   7.355  40.308  14.297
90121W        W62469  28.474  25.028   0.402
90122W        W62470  26.627   3.733   0.785
90123W        W62471   9.199  31.899  11.860
90124W        W62472   3.904  26.953  10.917
90125W        W62473  41.321   9.235   4.660
90126W        W62474  10.380  23.705   2.292
90127W        W62475  26.135  29.121  14.936
90128W        W62476  14.159  23.577  10.634
90129W        W62477  10.792  20.138  13.995
90130W        W62478  23.174  18.099  11.383
90131W        W62479  34.993  36.384   3.174
90132W        W62480   7.213   0.388  12.377
90133W        W62481  25.610  27.941   4.352
90134W        W62482  18.243  34.870  13.461
90135W        W62483  22.008  35.561  12.012
90136W        W62484  29.552   0.302  11.967
90137W        W62485   3.217  32.912  14.491
90138W        W62486  20.087  18.211  10.601
90139W        W62487  24.134   7.769  14.918
90140W        W62488  22.603  31.520  13.929
90141W        W62489   0.427  17.643  12.855
90142W        W62490  40.477   1.466  13.350
90143W        W62491  20.700  42.415  10.559
90144W        W62492  32.518  22.996   4.668
90145W        W62493   7.304   4.398  11.959
90146W        W62494   1.440   0.987  12.056
90147W        W62495  16.121  30.549   3.828
90148W        W62496  16.780  38.332  14.806
90149W        W62497  41.527  34.473  11.049
90150W        W62498  34.602  32.987   2.883
90151W        W62499  29.105  37.556   2.897
90152W        W62500   2.283  43.410  12.907
90153W        W62501  22.599  28.520  11.958
90154W        W62502  40.439  27.463  11.994
90155W        W62503  14.296  19.667   4.331
90156W        W62504   9.810  41.380   0.242
90157W        W62505  33.876  40.401   0.856
90158W        W62506  26.067   3.916   4.753
90159W        W62507   0.865  36.998   1.221
90160W        W62508  26.665  30.980   2.236
90161W        W62509  43.358   1.947  11.057
90162W        W62510  16.279   4.362  12.022
90163W        W62511  26.173  26.472  14.304
90164W        W62512  21.655  28.015  13.823
90165W        W62513  34.118  21.535   2.722
90166W        W62514  33.910  10.765   3.239
90167W        W62515  13.654  25.143   3.149
90168W        W62516  27.565  27.534   1.218
90169W        W62517  33.023   5.340  12.400
90170W        W62518  15.214  42.371  14.881
90171W        W62519  36.956  23.016  10.491
90172W        W62520  23.991  31.941  12.495
90173W        W62521  15.654  41.469  14.833
90174W        W62522  11.699  10.352  10.025
90175W        W62523  39.863  44.392  11.879
90176W        W62524   3.856   5.246   1.917
90177W        W62525  31.431   2.432  14.352
90178W        W62526   2.377  10.715  14.425
90179W        W62527  38.451  44.785   2.893
90180W        W62528  12.739  41.532   2.842
90181W        W62529  22.529  14.111   5.242
90182W        W62530  36.856  39.922  13.807
90183W        W62531  19.284  18.178  11.009
90184W        W62532  32.421   4.226  13.050
90185W        W62533   0.819  39.538   2.409
90186W        W62534  34.965   6.923  13.023
90187W        W62535  18.707  37.984  13.840
90188W        W62536  11.728  23.565  14.387
90189W        W62537  18.149  25.051   0.960
90190W        W62538   0.470  20.196   4.746
90191W        W62539  33.017  10.374   1.356
90192W        W62540  11.804   7.736   2.837
90193W        W62541   9.250  36.093  12.462
90194W        W62542  13.743  29.470  13.035
90195W        W62543   3.357  18.071   9.935
90196W        W62544  16.114  44.867  14.958
90197W        W62545  44.886  13.730   0.377
90198W        W62546  17.772  33.896   0.434
90199W        W62547  34.992  17.748   3.357
90200W        W62548  29.543  33.438   0.273
90201W        W62549  22.039  20.542  13.797
90202W        W62550  40.000  18.159   3.734
90203W        W62551  40.836   5.774   3.156
90204W        W62552  44.308  17.644  12.959
90205W        W62553  28.135   6.351   3.828
90206W        W62554  12.612  27.634   0.817
90207W        W62555  10.173  42.446   1.389
90208W        W62556  19.233   4.736  11.017
90209W        W62557  38.336  13.186  10.432
90210W        W62558  10.870   6.920   4.319
90211W        W62559  19.630  36.587  14.001
90212W        W62560  21.596  24.228  10.493
90213W        W62561  39.981  22.581   4.343
90214W        W62562  18.126  30.137   4.654
90215W        W62563   1.847  27.675   4.214
90216W        W62564  37.379  20.553  13.844
90217W        W62565  28.677  15.329   3.826
90218W        W62566  34.870  15.803   2.824
90219W        W62567   2.958  19.721  14.780
90220W        W62568  18.577  40.495   2.862
90221W        W62569  19.668  21.084   0.961
90222W        W62570  28.603  26.582  11.591
90223W        W62571  28.990   4.808   3.673
90224W        W62572  35.965  16.152  14.775
90225W        W62573  29.575  32.420  14.862
90226W        W62574   1.443  40.925  10.898
90227W        W62575   1.815   4.438   4.131
90228W        W62576   6.710  31.026  11.401
90229W        W62577   5.245  42.954  13.984
90230W        W62578  16.181   0.844  11.933
90231W        W62579  34.091   2.889  14.983
90232W        W62580  33.986  32.549  12.037
90233W        W62581  43.868  33.491  13.454
90234W        W62582  35.573  30.639  12.384
90235W        W62583  37.481  11.226   0.859
90236W        W62584  41.841   3.374   4.826
90237W        W62585  26.096   7.299   3.381
90238W        W62586  21.516  33.592  10.031
90239W        W62587  11.713  30.063   3.235
90240W        W62588  36.513   0.743   1.894
90241W        W62589  35.455   2.323  12.093
90242W        W62590  20.047   2.291  13.422
90243W        W62591  43.005  42.470  10.428
90244W        W62592  33.471  11.257  12.472
90245W        W62593  23.241   1.956  12.368
90246W        W62594  23.573   0.462   1.271
90247W        W62595  25.561  17.768   1.761
90248W        W62596  41.981   6.827   1.773
90249W        W62597  26.154  18.270   3.314
90250W        W62598  35.577  39.009  10.900
90251W        W62599  15.724  31.626   1.275
90252W        W62600   2.423   8.891  13.832
90253W        W62601  44.373  13.255  12.956
90254W        W62602  42.920  15.296   3.672
90255W        W62603  38.877  27.522   4.735
90256W        W62604  26.990  22.089   0.318
90257W        W62605  18.279  44.304  13.352
90258W        W62606  28.048  27.151   0.826
90259W        W62607  35.394  12.773   0.349
90260W        W62608   4.860   4.437   0.813
90261W        W62609  29.961   1.237  11.573
90262W        W62610  23.671   1.895   1.248
90263W        W62611  20.144  11.867  11.961
90264W        W62612  15.610  32.906   3.386
90265W        W62613  10.379  41.816   0.794
90266W        W62614  37.430  26.041  13.025
90267W        W62615   6.882  11.140   0.933
90268W        W62616  39.863   4.214   4.266
90269W        W62617  29.920  16.226   4.297
90270W        W62618  21.643  37.547  14.855
90271W        W62619   9.800  31.973  14.964
90272W        W62620  25.624  38.420   3.727
90273W        W62621   2.743  42.457   0.840
90274W        W62622  17.069   3.260   3.657
90275W        W62623  30.959  18.744   3.801
90276W        W62624  22.709   4.324  10.122
90277W        W62625  14.627  39.404   3.375
90278W        W62626  17.272   1.899  14.896
90279W        W62627  31.909  19.275   2.852
90280W        W62628  27.055  26.468   4.341
90281W        W62629  30.092  26.951  13.870
90282W        W62630  21.518  32.055  12.082
90283W        W62631  31.919   5.738   4.180
90284W        W62632  19.248  19.582   3.323
90285W        W62633  31.558  40.832  12.576
90286W        W62634  39.860  33.080   1.830
90287W        W62635  13.825  28.576   3.238
90288W        W62636  13.701  17.179  14.290
90289W        W62637  21.127  42.014  10.959
90290W        W62638   7.673   3.241  14.781
90291W        W62639  10.849  34.559   3.308
90292W        W62640  22.572   8.725  13.308
90293W        W62641  28.071  27.608   4.215
90294W        W62642  20.648  25.123   2.393
90295W        W62643  40.888  27.503   4.756
90296W        W62644   0.869  17.683   0.833
90297W        W62645  19.127   6.841   2.304
90298W        W62646  38.066   8.348  11.500
90299W        W62647  36.872  44.351  10.622
90300W        W62648   3.422  33.541   0.739
90301W        W62649  31.590   5.756   0.305
90302W        W62650   2.825  43.892   2.407
90303W        W62651   6.889  27.575  14.392
90304W        W62652   3.759  12.617   0.465
90305W        W62653  10.267  36.434   0.447
90306W        W62654  14.828  25.581  12.547
90307W        W62655  16.759  19.705  14.327
90308W        W62656  28.556  25.114   3.725
90309W        W62657   3.312  41.995  10.971
90310W        W62658  42.308  12.229   1.342
90311W        W62659  25.529  36.881  14.943
90312W        W62660   4.252  32.597   1.435
90313W        W62661  24.132   7.364  13.498
90314W        W62662  25.555  12.616  11.419
90315W        W62663   1.788  29.132   2.224
90316W        W62664  15.726  38.359  12.941
90317W        W62665  24.084  40.926   1.705
90318W        W62666  17.590  27.025   1.288
90319W        W62667  34.108   3.387  14.396
90320W        W62668   5.326  18.120   3.267
90321W        W62669   3.726   9.753   0.916
90322W        W62670  12.150  17.562   1.226
90323W        W62671  16.265  29.577   3.652
90324W        W62672  34.035  36.096  13.512
90325W        W62673  11.329  10.878   3.351
90326W        W62674   4.253  29.025   3.313
90327W        W62675  24.662   3.431   0.898
90328W        W62676  11.221  33.990   4.788
90329W        W62677   5.855  22.626  13.460
90330W        W62678  19.693  30.503   4.685
90331W        W62679  23.594  27.463   2.376
90332W        W62680  40.355  14.288  12.919
90333W        W62681  23.113  31.141   3.688
90334W        W62682  17.263   8.346  11.108
90335W        W62683  42.830  23.691  11.478
90336W        W62684  11.676  28.436  13.907
90337W        W62685  19.763  12.643   1.764
90338W        W62686   5.731   2.341   0.793
90339W        W62687  20.192   9.349  12.921
90340W        W62688  15.151  37.416   0.904
90341W        W62689  17.257  11.350  13.373
90342W        W62690   2.874   7.695   3.683
90343W        W62691   2.274  37.022  12.036
90344W        W62692   5.378  12.724   0.334
90345W        W62693  13.333  27.565   3.265
90346W        W62694  13.766  26.523   3.680
90347W        W62695  36.484  16.147  13.401
90348W        W62696   7.717  27.610   2.861
90349W        W62697  14.275  19.209   4.197
90350W        W62698  21.219  17.108   4.831
90351W        W62699  39.350   4.755   4.115
90352W        W62700  15.268   5.693   3.373
90353W        W62701  24.511  26.659  12.845
90354W        W62702  17.733  15.590  14.920
90355W        W62703   2.275  10.370  13.484
90356W        W62704  24.015   5.368  12.570
90357W        W62705  31.443  17.746  11.977
90358W        W62706  25.524   2.779   4.826
90359W        W62707  16.678  38.860  13.976
90360W        W62708  13.657  23.111   3.213
90361W        W62709  33.418  39.931   5.261
90362W        W62710  33.883  24.662   1.282
90363W        W62711  33.524  11.830  10.069
90364W        W62712   1.452  11.285   3.868
90365W        W62713  29.043  39.914  10.640
90366W        W62714  26.066  30.418  14.512
90367W        W62715  23.015  14.752   2.867
90368W        W62716  30.068   7.285   5.117
90369W        W62717  17.111   9.658   4.634
90370W        W62718  30.136  21.223  11.408
90371W        W62719   4.250  26.062  11.128
90372W        W62720  34.914  35.020   1.892
90373W        W62721   5.690  23.078  14.487
90374W        W62722   8.661  13.161   2.862
90375W        W62723  40.500  23.668  13.885
90376W        W62724  26.467  39.982  14.292
90377W        W62725  37.439  12.291   2.331
90378W        W62726  25.137   8.232   0.743
90379W        W62727  34.868  26.033  11.466
90380W        W62728  44.875  11.179  12.895
90381W        W62729  44.442   1.323   2.215
90382W        W62730  17.707  43.841  10.561
90383W        W62731  33.450  32.626  12.448
90384W        W62732  37.043  35.979  14.907
90385W        W62733  26.641   2.863  14.450
90386W        W62734  29.558  36.041   3.771
90387W        W62735   5.267  11.238  14.489
90388W        W62736   2.797  19.159  13.431
90389W        W62737  36.058   9.180   0.340
90390W        W62738  21.663  27.656  10.643
90391W        W62739  23.631  35.082   4.684
90392W        W62740  29.464  26.071   4.150
90393W        W62741  38.905  23.213   1.217
90394W        W62742  30.044  42.300  10.459
90395W        W62743   2.283  27.548  11.515
90396W        W62744  33.095  24.572   4.313
90397W        W62745  42.387  31.595   1.821
90398W        W62746   4.388  18.644  12.572
90399W        W62747  37.376   7.774  13.363
90400W        W62748  21.102  21.549  14.803
90401W        W62749  43.461  20.141  11.571
90402W        W62750  35.574   8.189  13.445
90403W        W62751  42.498  12.794  14.406
90404W        W62752  34.074   7.835   1.395
90405W        W62753   2.355  20.135  11.467
90406W        W62754   8.342  42.389   2.364
90407W        W62755  10.290  24.600  13.479
90408W        W62756  37.420  28.676  11.001
90409W        W62757  16.084  27.597  11.483
90410W        W62758  15.158  26.516   0.865
90411W        W62759   3.301  20.128  10.892
90412W        W62760  38.885  31.126   2.398
90413W        W62761  10.252  25.611   3.642
90414W        W62762  31.135  28.982   0.897
90415W        W62763  38.819  18.592   0.953
90416W        W62764   0.491   9.821  14.898
90417W        W62765  42.885  30.126   1.876
90418W        W62766  14.800  16.570   3.343
90419W        W62767  22.628   2.325  11.535
90420W        W62768  10.258  21.543   0.748
90421W        W62769   2.874  13.661  10.471
90422W        W62770   9.309  43.283   1.383
90423W        W62771  20.094  10.263   4.262
90424W        W62772  28.602  40.380   2.894
90425W        W62773   4.808  15.814   2.869
90426W        W62774  44.419   3.461  10.920
90427W        W62775   6.845  19.561  11.891
90428W        W62776  36.904  15.094  10.955
90429W        W62777  11.644  29.078   2.754
90430W        W62778  30.599  15.794  11.050
90431W        W62779  31.012  43.332  13.335
90432W        W62780  32.613  24.117  14.317
90433W        W62781  20.119  23.078   3.808
90434W        W62782  24.714   8.871   5.159
90435W        W62783  41.415   8.656  12.522
90436W        W62784  27.957   6.325  10.089
90437W        W62785  33.107  23.591   4.769
90438W        W62786  32.519  38.855  12.490
90439W        W62787   9.768   4.258  10.405
90440W        W62788  31.102  16.301  13.535
90441W        W62789   2.889  41.039  14.346
90442W        W62790   1.952  14.771   2.806
90443W        W62791  12.123  35.917   2.682
90444W        W62792  17.109  29.460  12.945
90445W        W62793  25.999  16.178  12.439
90446W        W62794  13.834   6.731   2.902
90447W        W62795   9.248  26.110   4.709
90448W        W62796   8.298  37.530   2.721
90449W        W62797  25.629  12.842  13.001
90450W        W62798  17.302  33.987  14.020
90451W        W62799  10.255  40.411   4.599
90452W        W62800  36.538  11.801  14.922
90453W        W62801  44.448  41.356   5.122
90454W        W62802  19.131  14.636   1.913
90455W        W62803  25.548   1.890  11.578
90456W        W62804   6.422  23.201  10.028
90457W        W62805  31.140   8.196   5.249
90458W        W62806   9.808  31.955   4.279
90459W        W62807  42.815  26.559  10.978
90460W        W62808  36.588  44.408   1.422
90461W        W62809  11.725  34.594   2.402
90462W        W62810   7.402  19.587   4.203
90463W        W62811  37.021  30.618   1.780
90464W        W62812  24.995  41.993  13.909
90465W        W62813  23.213  38.010   3.184
90466W        W62814  29.981  18.714   1.239
90467W        W62815   0.841   6.812   2.856
90468W        W62816  14.242  18.702   5.218
90469W        W62817   2.281   6.816  10.606
90470W        W62818  40.527   6.246  13.316
90471W        W62819   8.790  18.751   1.387
90472W        W62820  24.494  43.961   3.820
90473W        W62821  32.501  23.635   0.838
90474W        W62822  35.402  32.468  11.456
90475W        W62823   6.839  40.811  14.007
90476W        W62824  29.593   7.262   4.653
90477W        W62825  24.055  30.939   4.322
90478W        W62826  40.497  24.008   0.377
90479W        W62827  10.721  24.485   4.780
90480W        W62828  20.578   7.909  13.540
90481W        W62829   5.379   9.686   0.887
90482W        W62830  13.205  29.556   0.884
90483W        W62831   3.775   6.399   0.393
90484W        W62832  24.681  28.015   2.809
90485W        W62833   8.205   2.731   4.264
90486W        W62834  12.183  32.579  11.438
90487W        W62835  25.057  34.526   2.876
90488W        W62836  15.743   3.277  12.870
90489W        W62837   2.933  20.744   4.266
90490W        W62838   0.744  29.656  12.860
90491W        W62839  34.584   1.263   3.757
90492W        W62840  19.679  13.760  13.791
90493W        W62841  34.542  33.486   2.669
90494W        W62842  29.516  29.599   2.896
90495W        W62843  30.933  12.701   3.845
90496W        W62844   0.435  29.118  13.517
90497W        W62845   8.772  18.072  10.555
90498W        W62846   6.734  19.556   0.417
90499W        W62847  32.935  29.646   0.376
90500W        W62848  19.044   0.978  14.960
90501W        W62849  11.239  20.546  12.513
90502W        W62850  42.317   3.284  14.877
90503W        W62851   6.920  33.012  10.094
90504W        W62852  39.502  38.887  11.015
90505W        W62853   6.253  14.291   0.765
90506W        W62854  14.193   2.310   3.182
90507W        W62855  33.027  38.564  13.382
90508W        W62856  42.491  18.656  11.572
90509W        W62857  23.228  20.534   0.948
90510W        W62858  27.617  21.608  10.969
90511W        W62859  27.187  21.583  13.353
90512W        W62860   0.300   4.329   2.223
90513W        W62861  40.478  35.094   3.663
90514W        W62862  20.119  28.545  12.968
90515W        W62863  10.717  40.999   0.365
90516W        W62864  23.514   9.869  13.938
90517W        W62865  31.406  19.705   4.325
90518W        W62866  34.478  25.601   4.317
90519W        W62867  14.590   5.421   0.855
90520W        W62868  36.869  35.415   2.232
90521W        W62869  22.654  25.613  10.899
90522W        W62870  38.895   5.698   1.928
90523W        W62871  24.510  14.654  11.090
90524W        W62872   9.207   2.777  11.449
90525W        W62873   8.307  15.305   0.827
90526W        W62874  12.710  25.677   2.669
90527W        W62875   8.204  17.581  12.915
90528W        W62876  29.647  43.812  11.898
90529W        W62877  22.186  17.164  14.957
90530W        W62878   3.236  25.632   1.357
90531W        W62879  18.648  32.546   2.231
90532W        W62880  19.184  26.183  12.944
90533W        W62881  18.115   7.719  13.423
90534W        W62882  38.531  44.479  13.987
90535W        W62883  29.922  40.006   2.769
90536W        W62884   3.315   7.696  12.529
90537W        W62885  18.206  34.470   1.276
90538W        W62886  22.075  11.287  11.533
90539W        W62887  37.948  11.166  10.420
90540W        W62888   0.895  21.581  13.059
90541W        W62889  12.780  22.129  12.841
90542W        W62890  42.416  33.987  10.434
90543W        W62891  26.698  14.332   5.183
90544W        W62892  26.121  17.773  13.798
90545W        W62893   6.907  42.527   3.326
90546W        W62894  17.157   6.891  13.867
90547W        W62895  44.982   8.173   0.827
90548W        W62896  23.001  11.183  11.612
90549W        W62897  28.435  38.843  10.593
90550W        W62898  13.199  39.842  12.545
90551W        W62899   4.396   4.871   4.805
90552W        W62900  33.577   9.883   0.838
90553W        W62901  21.060   0.806   5.174
90554W        W62902  30.948  41.898  14.866
90555W        W62903  38.895  43.437   1.830
90556W        W62904  27.187  17.716  10.530
90557W        W62905  18.149   5.340  14.904
90558W        W62906  40.441  31.153  12.872
90559W        W62907  30.157  37.031  11.928
90560W        W62908  15.778  43.014   9.972
90561W        W62909  33.491   8.270  14.966
90562W        W62910  34.038  12.133  11.428
90563W        W62911  13.119  43.348  11.039
90564W        W62912  12.806  32.501   3.650
90565W        W62913  22.523  40.803   0.786
90566W        W62914  40.373  18.268  13.961
90567W        W62915   1.744  14.252   2.896
90568W        W62916  30.556  11.632   0.410
90569W        W62917  28.503  34.053  11.075
90570W        W62918  35.598  18.182  12.361
90571W        W62919  20.139  31.141   5.676
90572W        W62920   4.803   8.211  14.490
90573W        W62921  32.509  17.581   4.716
90574W        W62922  38.508  11.182  14.022
90575W        W62923  36.920  27.558  10.496
90576W        W62924  10.349   6.378   3.348
90577W        W62925  21.077  10.703   2.276
90578W        W62926  24.529  11.643  13.309
90579W        W62927   4.261   7.886  14.309
90580W        W62928  39.484  29.947  12.487
90581W        W62929  13.302  35.976  12.345
90582W        W62930  27.950   0.981   5.299
90583W        W62931   1.243  38.917   1.769
90584W        W62932  36.411  32.103   1.745
90585W        W62933  42.937  41.995  13.894
90586W        W62934  42.840   2.340   1.233
90587W        W62935  11.645  34.917  10.056
90588W        W62936   6.827  32.586  11.108
90589W        W62937  29.579   4.344  14.356
90590W        W62938  40.933  19.765   1.223
90591W        W62939  24.003  10.756  13.969
90592W        W62940  11.774  41.532  10.432
90593W        W62941  12.119   1.259   2.359
90594W        W62942  40.834   4.916  12.528
90595W        W62943  28.468  10.756  13.945
90596W        W62944  20.749  20.085  14.799
90597W        W62945  17.161  15.768  12.470
90598W        W62946  30.578   7.725   2.233
90599W        W62947  29.430  11.326  14.896
90600W        W62948  43.289  44.983   4.201
90601W        W62949  41.892  27.973  10.143
90602W        W62950  11.685  43.288  14.984
90603W        W62951  25.131  42.390  12.838
90604W        W62952  26.129  16.683  13.441
90605W        W62953  19.656  30.443  10.553
90606W        W62954  11.239  28.592   4.784
90607W        W62955  37.833  28.502   3.248
90608W        W62956   2.902  20.209   3.291
90609W        W62957  20.100  39.530   2.843
90610W        W62958   4.885   7.252   3.268
90611W        W62959  11.210   9.668  12.994
90612W        W62960  44.793  39.477  12.007
90613W        W62961   0.774  34.889   0.332
90614W        W62962  12.703   1.444   4.318
90615W        W62963  15.164  23.538  10.932
90616W        W62964   2.735  44.423  12.068
90617W        W62965  22.150  22.721   2.829
90618W        W62966  44.453  44.378   4.717
90619W        W62967  32.527  42.287  11.534
90620W        W62968  12.219  12.836   3.327
90621W        W62969  32.097   6.814   1.713
90622W        W62970  11.337  25.007   1.343
90623W        W62971  27.036  13.671   1.226
90624W        W62972  20.253  28.119   4.319
90625W        W62973  16.663  25.633   2.679
90626W        W62974  22.584  34.031   3.716
90627W        W62975  35.909   4.747  12.922
90628W        W62976  19.219   8.176  10.419
90629W        W62977   8.233  24.162   3.368
90630W        W62978  25.473   0.954  10.420
90631W        W62979  23.154  32.112   4.781
90632W        W62980   8.667  37.000   2.881
90633W        W62981  10.719  31.929   1.892
90634W        W62982  41.023   0.472  14.500
90635W        W62983  19.194  24.042  10.409
90636W        W62984  38.561   8.339   4.241
90637W        W62985  21.211  44.353   4.264
90638W        W62986   3.773  44.377  10.027
90639W        W62987  37.837  18.733  13.383
90640W        W62988   6.274   8.717   5.137
90641W        W62989   2.883  14.641  11.549
90642W        W62990  39.945  42.838  10.552
90643W        W62991  18.693  15.177   2.740
90644W        W62992  32.092  32.547  12.053
90645W        W62993  21.134  28.536  14.304
90646W        W62994   7.836  34.004   2.355
90647W        W62995  30.524   2.744  13.823
90648W        W62996  19.642   9.224   5.305
90649W        W62997  11.355  27.654   3.637
90650W        W62998  30.984  22.182   2.276
90651W        W62999  21.666   6.757   3.167
90652W        W63000  40.510  42.850  14.809
90653W        W63001   0.331  30.942  14.834
90654W        W63002  44.841  33.426  11.869
90655W        W63003  25.476  27.464   0.247
90656W        W63004  22.561  18.744  12.002
90657W        W63005  24.531  27.162  13.802
90658W        W63006  29.965  21.028  13.039
90659W        W63007  24.031  10.740  11.592
90660W        W63008  36.382  19.616  14.287
90661W        W63009  22.530  39.972  13.822
90662W        W63010  15.280  31.087  10.993
90663W        W63011  32.988  15.666  11.932
90664W        W63012  38.495   6.819   5.096
90665W        W63013  13.621  24.215   1.401
90666W        W63014  35.450  26.971   4.631
90667W        W63015  21.694  29.551  14.473
90668W        W63016  22.503   3.745  11.019
90669W        W63017   8.702  13.654   3.189
90670W        W63018  26.031  36.358  14.947
90671W        W63019  34.868  20.553   4.258
90672W        W63020  20.539   2.310   3.308
90673W        W63021  21.100  28.015  14.301
90674W        W63022  25.160  28.961   4.613
90675W        W63023  39.848  18.283   4.713
90676W        W63024   3.336   2.967  14.958
90677W        W63025  11.751  24.520  12.439
90678W        W63026   6.891  44.396  11.002
90679W        W63027  42.956  20.616  10.643
90680W        W63028  14.677  33.019   4.308
90681W        W63029   1.247  26.614   4.344
90682W        W63030   0.431  42.017   0.320
90683W        W63031  44.467  29.141  12.094
90684W        W63032  15.253  12.728   0.903
90685W        W63033   5.869  29.995  14.860
90686W        W63034  25.049  41.331  14.795
90687W        W63035  40.860   0.926   2.751
90688W        W63036  20.769   9.654   3.868
90689W        W63037  27.566  34.110   3.369
90690W        W63038  31.466  28.962   2.826
90691W        W63039   6.244  33.091  12.073
90692W        W63040  21.190  31.974   0.920
90693W        W63041  31.991  44.948  14.997
90694W        W63042  37.924  32.039   0.875
90695W        W63043  36.520  15.233   4.679
90696W        W63044  32.564  22.183   1.802
90697W        W63045  41.301   1.769  11.015
90698W        W63046  30.530  36.406  14.849
90699W        W63047  44.302  16.157  11.601
90700W        W63048   7.854  17.654   0.920
90701W        W63049  20.129   5.404   4.199
90702W        W63050  13.322  35.440  13.855
90703W        W63051  19.088  40.950  12.402
90704W        W63052   5.295   9.311  11.937
90705W        W63053  26.695  18.268   0.408
90706W        W63054  17.638  26.504   3.167
90707W        W63055   8.315  34.065  12.826
90708W        W63056  20.245  31.641  14.882
90709W        W63057  22.090   6.417  10.509
90710W        W63058  35.100  38.329   3.758
90711W        W63059  40.387  17.713   0.325
90712W        W63060  28.129  18.628  10.612
90713W        W63061   8.750  39.053   3.852
90714W        W63062   9.357   3.235   3.864
90715W        W63063   6.886   3.234  11.095
90716W        W63064  17.061  37.027  14.301
90717W        W63065  15.183  10.295  12.391
90718W        W63066   3.340  19.269  12.851
90719W        W63067  39.464   9.731  14.905
90720W        W63068  35.027  40.877  10.529
90721W        W63069  35.106  21.076  12.502
90722W        W63070  11.183  28.517   4.182
90723W        W63071  30.564  10.716  11.078
90724W        W63072  35.082  37.038  14.016
90725W        W63073   9.655  19.216  12.526
90726W        W63074   9.786   0.340  14.904
90727W        W63075  18.786  10.695   0.453
90728W        W63076  30.593  23.065   4.287
90729W        W63077   0.325  20.596   0.917
90730W        W63078   1.311  28.005   2.856
90731W        W63079  44.392  37.920   1.807
90732W        W63080  41.980  30.472  13.911
90733W        W63081  27.188   1.921   1.749
90734W        W63082  35.512  22.538  13.858
90735W        W63083   7.761  41.526  10.997
90736W        W63084  32.473  40.969   0.873
90737W        W63085  26.633  32.990   2.699
90738W        W63086  32.921  29.161  12.447
90739W        W63087   6.413  38.370   0.954
90740W        W63088  29.549  38.882   1.749
90741W        W63089  21.104  41.882  13.947
90742W        W63090  24.499  41.824  14.439
90743W        W63091  41.438  10.819   0.958
90744W        W63092  26.167   7.223   4.146
90745W        W63093  17.796  29.118  11.579
90746W        W63094  13.254  43.491   4.287
90747W        W63095  14.604  25.564   2.883
90748W        W63096  33.409  28.156   2.227
90749W        W63097   9.715  26.103  12.025
90750W        W63098   3.807   8.814   3.631
90751W        W63099  35.516  41.821  11.025
90752W        W63100  23.676  22.604   4.681
90753W        W63101  20.545  33.517   3.356
90754W        W63102   0.924  36.057   9.954
90755W        W63103   5.896   8.729  10.573
90756W        W63104  21.545  30.620  14.435
90757W        W63105  24.171  22.663   0.407
90758W        W63106  41.356  41.817   0.746
90759W        W63107  27.018   1.429  11.541
90760W        W63108  40.884  40.006  11.115
90761W        W63109  12.169  20.607  14.422
90762W        W63110  21.623  37.490  13.044
90763W        W63111  22.569  31.113   1.908
90764W        W63112  38.051   6.250  11.129
90765W        W63113  13.278  35.006   5.211
90766W        W63114  12.179  14.702  12.397
90767W        W63115  37.445  36.992  12.053
90768W        W63116  29.175  44.988   2.258
90769W        W63117  15.648  41.414   1.359
90770W        W63118   4.863  32.083  12.932
90771W        W63119  30.057   8.234  13.957
90772W        W63120  33.606  36.429   4.341
90773W        W63121  33.936  43.439   1.349
90774W        W63122   4.335  25.132  10.447
90775W        W63123   8.662  14.249   3.850
90776W        W63124  18.782  33.102   2.226
90777W        W63125  38.342  29.438   4.196
90778W        W63126  40.048   1.282  14.926
90779W        W63127  41.434   7.699   3.197
90780W        W63128  38.017  16.091   4.666
90781W        W63129  18.545  31.468   0.368
90782W        W63130  14.272   3.825   3.177
90783W        W63131   5.394  18.106   2.360
90784W        W63132  43.892  37.507  10.998
90785W        W63133  14.672  25.565   1.773
90786W        W63134  30.616  41.509   4.806
90787W        W63135  35.526  29.633   1.864
90788W        W63136   1.969  41.975   2.681
90789W        W63137  11.703  11.363   3.266
90790W        W63138  39.812  12.336   3.195
90791W        W63139   5.888   6.292  11.940
90792W        W63140  23.558  28.576  14.422
90793W        W63141  38.972   7.875  10.594
90794W        W63142  38.027  31.949  13.340
90795W        W63143  36.861   1.761   3.184
90796W        W63144  21.718   5.751  13.309
90797W        W63145  12.173  42.517  12.423
90798W        W63146  33.486  37.360  14.295
90799W        W63147  24.061  27.197   0.800
90800W        W63148  34.025  44.414   4.805
90801W        W63149  36.525  23.680   9.935
90802W        W63150  44.259  25.540   4.818
90803W        W63151   9.740  14.669   3.368
90804W        W63152  22.108  20.697  10.980
90805W        W63153  32.016  15.238  12.016
90806W        W63154  38.553  42.321  13.972
90807W        W63155   3.244  19.595   3.210
90808W        W63156   8.809   7.352  13.988
90809W        W63157  21.242  39.891  12.525
90810W        W63158  23.651  41.497  12.550
90811W        W63159  36.474  12.159  11.515
90812W        W63160   0.481  35.373  11.462
90813W        W63161  34.579  17.747  11.605
90814W        W63162  27.035  13.844   1.838
90815W        W63163  36.858  17.788  11.025
90816W        W63164   9.240   2.725   1.775
90817W        W63165  11.764  34.451  12.880
90818W        W63166  13.802  17.152  12.428
90819W        W63167  31.515  24.497  11.110
90820W        W63168  34.545   0.862   2.219
90821W        W63169  32.990  12.323   4.243
90822W        W63170  40.909   6.810   2.242
90823W        W63171  10.243  40.955   1.929
90824W        W63172  32.919  30.610  13.392
90825W        W63173  39.463  30.123  11.495
90826W        W63174   8.351   3.728  14.025
90827W        W63175  44.846   8.296  13.008
90828W        W63176   4.207  27.112   3.738
90829W        W63177   7.242   8.312   1.779
90830W        W63178  25.587  18.264   3.227
90831W        W63179  41.488  37.519  14.925
90832W        W63180  32.493  11.156   0.753
90833W        W63181  26.102  19.695   3.327
90834W        W63182  43.351  31.129   3.150
90835W        W63183  29.007  36.583  14.784
90836W        W63184  44.806  38.938  11.504
90837W        W63185  26.585  30.412   1.220
90838W        W63186  44.954  36.418   1.292
90839W        W63187  37.355  39.410   1.377
90840W        W63188  24.551  29.125  10.458
90841W        W63189  37.460   9.245   1.756
90842W        W63190  20.032  10.383   3.666
90843W        W63191   2.883   0.287   3.705
90844W        W63192  23.083  11.711  11.388
90845W        W63193   3.941  32.441  11.111
90846W        W63194  28.086  12.253  10.927
90847W        W63195  42.894  33.390  12.964
90848W        W63196  25.112   4.841  12.346
90849W        W63197   6.919  22.192   0.284
90850W        W63198  38.893  35.554   1.392
90851W        W63199  25.538   3.863  10.620
90852W        W63200  35.550   7.319   0.750
90853W        W63201  38.332  18.554  13.466
90854W        W63202  40.384   8.260  13.538
90855W        W63203  26.974  27.093  11.907
90856W        W63204  24.716  15.620  12.060
90857W        W63205  21.589  16.635  14.013
90858W        W63206  39.519  28.528   1.846
90859W        W63207  24.187  18.273  14.313
90860W        W63208  42.783  42.496  13.377
90861W        W63209  44.011  15.766  13.435
90862W        W63210   3.758  39.434  13.915
90863W        W63211  11.671  32.075  13.462
90864W        W63212  31.125   8.190   3.371
90865W        W63213  25.157  43.317  13.813
90866W        W63214  40.024   3.313   4.234
90867W        W63215  16.310  43.827  13.989
90868W        W63216  25.643   0.459  10.575
90869W        W63217   7.882  26.588  10.081
90870W        W63218  34.470  26.972  12.837
90871W        W63219  15.726   3.710  14.903
90872W        W63220  34.991  17.758  11.012
90873W        W63221   8.789  21.196   1.828
90874W        W63222  25.999  38.377   4.264
90875W        W63223  18.570  23.021   3.241
90876W        W63224  37.989   2.358  13.863
90877W        W63225  38.487  13.842   2.378
90878W        W63226   8.797  41.531  14.777
90879W        W63227  40.345  11.351   3.281
90880W        W63228  21.180   5.196   3.255
90881W        W63229   4.887  41.380  14.026
90882W        W63230  42.325  14.746  11.930
90883W        W63231  42.470  18.080   1.304
90884W        W63232  37.472   4.845  10.029
90885W        W63233  38.845  27.036  13.863
90886W        W63234  22.047  28.508  11.050
90887W        W63235   6.702  30.561  14.515
90888W        W63236   4.919  40.424   2.303
90889W        W63237  23.104  13.673  10.428
90890W        W63238  25.056  35.535   0.343
90891W        W63239  22.640   7.226  10.613
90892W        W63240  36.516  26.203   2.805
90893W        W63241  22.503  21.584   4.209
90894W        W63242  35.442  40.966  14.294
90895W        W63243  31.534   9.836  11.499
90896W        W63244   1.451  31.902  13.060
90897W        W63245   2.809  10.825   2.713
90898W        W63246  39.442  12.160   1.332
90899W        W63247  38.881  38.990   5.129
90900W        W63248  18.704  42.806  12.028
90901W        W63249  39.494  44.430  13.505
90902W        W63250  32.920  19.666  13.376
90903W        W63251  34.491  12.851  14.764
90904W        W63252  25.988  21.145   0.445
90905W        W63253  22.012  23.039   4.315
90906W        W63254  41.871  23.671  11.561
90907W        W63255  32.527   9.880   1.754
90908W        W63256  16.263  37.956  13.970
90909W        W63257  25.060  44.303   2.409
90910W        W63258  24.981  11.266  14.971
90911W        W63259  23.060  42.294   3.823
90912W        W63260  30.615  23.211  11.431
90913W        W63261  17.199   3.825   3.767
90914W        W63262  41.030  27.037   0.782
90915W        W63263   7.307  10.710   0.380
90916W        W63264  18.145  22.234  10.983
90917W        W63265  43.948  29.615  12.574
90918W        W63266  11.682  16.666  14.340
90919W        W63267   1.974   2.283  11.000
90920W        W63268   8.695   0.976  12.958
90921W        W63269  21.160  13.168   3.825
90922W        W63270  22.183  43.366  12.022
90923W        W63271  20.268  36.093   3.366
90924W        W63272  37.551  29.083   4.239
90925W        W63273   8.721   5.202  12.863
90926W        W63274  31.039  24.503  11.577
90927W        W63275   0.296  40.045  13.332
90928W        W63276  23.003  41.043   1.749
90929W        W63277  25.557  11.336   0.796
90930W        W63278  40.844  30.463  12.507
90931W        W63279  31.099  27.085   4.661
90932W        W63280  23.497  19.734  10.572
90933W        W63281  27.127  27.071   3.674
90934W        W63282  33.474  43.986   4.309
90935W        W63283  20.545  33.044   0.907
90936W        W63284  10.717  12.325   3.715
90937W        W63285  20.539   0.881   3.252
90938W        W63286  33.443   4.327  13.008
90939W        W63287  35.388  13.191  12.936
90940W        W63288  23.732  28.180   4.714
90941W        W63289  34.014  16.673   1.769
90942W        W63290   1.412  22.658   3.220
90943W        W63291  28.023   9.694   0.289
90944W        W63292  15.810  36.397  11.998
90945W        W63293  29.582  39.541   2.370
90946W        W63294  32.066  13.675   4.627
90947W        W63295  22.553  24.117  12.973
90948W        W63296  10.869   8.163  13.832
90949W        W63297  22.159  14.150  13.428
90950W        W63298  44.335  40.024  14.819
90951W        W63299   4.908  16.152  10.930
90952W        W63300  42.480  15.100  14.027
90953W        W63301  40.938  29.156   4.785
90954W        W63302  20.642  10.666   1.813
90955W        W63303  20.722  34.541   3.677
90956W        W63304  38.405  44.996   3.720
90957W        W63305  36.386  14.307   0.390
90958W        W63306  31.921  31.617  12.424
90959W        W63307  17.161  32.606  12.369
90960W        W63308  33.897   9.162   3.636
90961W        W63309  10.367  37.954   4.624
90962W        W63310  36.918   3.438  14.798
90963W        W63311  22.520  11.834   3.232
90964W        W63312   2.420  18.689  13.527
90965W        W63313  25.493  25.038   3.192
90966W        W63314  37.357   4.321  11.451
90967W        W63315  41.456   1.245  13.846
90968W        W63316   9.726  22.681   5.116
90969W        W63317  16.693  35.571  12.921
90970W        W63318  10.304  13.335  10.594
90971W        W63319  23.579  22.668   1.244
90972W        W63320  30.450  34.530   4.344
90973W        W63321  29.058  14.237  10.411
90974W        W63322  38.998  16.660  10.442
90975W        W63323  41.409  34.564   3.761
90976W        W63324  14.321   8.868   2.793
90977W        W63325  11.739  26.520   1.367
90978W        W63326  27.505  14.236  12.906
90979W        W63327  20.601  16.621  10.414
90980W        W63328  44.847   6.221  13.815
90981W        W63329  14.334  38.482   0.341
90982W        W63330  16.659  32.077  11.948
90983W        W63331  40.509  15.672  12.950
90984W        W63332  31.948  12.145   0.764
90985W        W63333  43.319  10.859  13.807
90986W        W63334  30.435  11.732  14.275
90987W        W63335  42.360  25.062  13.843
90988W        W63336  35.388  27.184   3.719
90989W        W63337  28.515  14.194  10.471
90990W        W63338   3.457   7.746  14.887
90991W        W63339  18.096  32.885   2.401
90992W        W63340  43.974  14.142  12.851
90993W        W63341  33.566  21.579  13.048
90994W        W63342  24.091  37.380   2.811
90995W        W63343   5.302  41.909   2.262
90996W        W63344  10.235   6.368  13.331
90997W        W63345  35.997  31.413   2.251
90998W        W63346  32.027  32.946   2.316
90999W        W63347  42.406  13.319   0.750
91000W        W63348  29.609  34.997  14.806
91001W        W63349  16.169  41.882  12.510
91002W        W63350  43.815  31.635  11.107
91003W        W63351  21.169  34.039   2.230
91004W        W63352  41.891  11.169  13.895
91005W        W63353  32.948   2.376   4.644
91006W        W63354  25.204   5.797   3.717
91007W        W63355   4.748  42.402  11.450
91008W        W63356  26.194  44.995   4.752
91009W        W63357  35.596  32.942   1.923
91010W        W63358   7.278  25.544   0.932
91011W        W63359  25.212   8.873   1.929
91012W        W63360  36.036   6.288   4.724
91013W        W63361  22.546  12.160   4.341
91014W        W63362  29.458  34.500   1.861
91015W        W63363   9.282   8.292   0.819
91016W        W63364  30.492  19.732   1.347
91017W        W63365   0.343  44.260  14.387
91018W        W63366   3.752  30.457   0.803
91019W        W63367   8.827  20.163   5.109
91020W        W63368  20.752  39.810  13.431
91021W        W63369  40.807  11.168   2.384
91022W        W63370   8.822   7.383   1.931
91023W        W63371  44.887  17.254  13.509
91024W        W63372  28.455  11.813   0.758
91025W        W63373  36.550  13.251   4.249
91026W        W63374  31.442  10.672   2.266
91027W        W63375   5.859   1.808   0.366
91028W        W63376  36.377  25.075   0.957
91029W        W63377   7.274  16.229  12.860
91030W        W63378  10.211   6.329  11.100
91031W        W63379  30.628   3.222   0.293
91032W        W63380  11.320  33.443   3.338
91033W        W63381  35.086  18.241   0.810
91034W        W63382  27.073  17.283  11.470
91035W        W63383  18.283   0.249   1.715
91036W        W63384  32.054  30.515   4.708
91037W        W63385   9.880  36.530  12.442
91038W        W63386  38.829   1.969   2.793
91039W        W63387  32.423  31.012   1.432
91040W        W63388  25.163  15.117  10.640
91041W        W63389  29.513  29.478   0.750
91042W        W63390   1.430  21.660  13.042
91043W        W63391   1.739   8.306   4.180
91044W        W63392  18.200  35.862   0.754
91045W        W63393  24.536  14.330  12.929
91046W        W63394  20.196  33.894  12.443
91047W        W63395  13.198   8.824   3.381
91048W        W63396  37.034  41.952  11.511
91049W        W63397  23.550   4.334  12.004
91050W        W63398  40.828  41.913   2.769
91051W        W63399  13.314  41.843  14.291
91052W        W63400  18.232  40.982   4.739
91053W        W63401  11.734  24.707  10.919
91054W        W63402  16.702  36.056   0.952
91055W        W63403  29.669   7.369  10.982
91056W        W63404  35.358  15.258  11.404
91057W        W63405  35.933  18.251   3.165
91058W        W63406  39.027  39.538  10.431
91059W        W63407  44.313   6.901  13.013
91060W        W63408  37.010   2.440   1.812
91061W        W63409  33.459  11.843  13.387
91062W        W63410  43.869  32.000  14.838
91063W        W63411  19.752   8.666  10.007
91064W        W63412  42.498  10.143   4.161
91065W        W63413   3.348  33.496  12.014
91066W        W63414  41.813   0.789  10.082
91067W        W63415  28.568  44.431   1.839
91068W        W63416  38.009   3.932  12.033
91069W        W63417  21.175  21.232   4.683
91070W        W63418  25.022  32.476  14.969
91071W        W63419  16.114  23.522   4.205
91072W        W63420  20.263  17.721  12.060
91073W        W63421  26.519  34.445  11.910
91074W        W63422  36.519   9.808   4.143
91075W        W63423  14.652  10.365   2.324
91076W        W63424  37.869  12.665  12.502
91077W        W63425  12.756  42.016  14.298
91078W        W63426  15.667  12.613  10.029
91079W        W63427  20.113   8.715   0.391
91080W        W63428   7.784  19.222   3.806
91081W        W63429  20.738   8.289   3.675
91082W        W63430   8.240   5.767   0.277
91083W        W63431  39.382  24.114   0.294
91084W        W63432  23.651  44.481   9.955
91085W        W63433  13.642  28.626   1.213
91086W        W63434  16.150  23.176  14.501
91087W        W63435  30.657   2.786   4.697
91088W        W63436  10.275  35.914  12.938
91089W        W63437  40.346  10.788   3.825
91090W        W63438  29.622  39.886   0.855
91091W        W63439  16.264   3.714   1.263
91092W        W63440  16.133  40.496  13.883
91093W        W63441  35.891  16.810  13.855
91094W        W63442  31.944   2.356  14.323
91095W        W63443  19.562  38.540  13.941
91096W        W63444   5.744  21.218  10.105
91097W        W63445  20.043  10.652   0.304
91098W        W63446  17.255  16.194  12.567
91099W        W63447  29.954  44.925   3.663
91100W        W63448  13.816  33.981  14.361
91101W        W63449  13.286  16.260   4.703
91102W        W63450   0.313  33.913  10.588
91103W        W63451  36.978  34.569  11.568
91104W        W63452  42.820  17.119   0.789
91105W        W63453  15.285   7.258   0.432
91106W        W63454   6.769  14.787   1.921
91107W        W63455  22.063  35.454  13.841
91108W        W63456  22.169  31.405  12.503
91109W        W63457  36.942  26.151  11.110
91110W        W63458  35.935  44.850   4.254
91111W        W63459  43.870  15.141  12.377
91112W        W63460  34.450  36.429  11.542
91113W        W63461  43.459  37.552  11.372
91114W        W63462   5.839  27.689  11.973
91115W        W63463   9.817  17.710   2.864
91116W        W63464  44.493   5.316  14.461
91117W        W63465  40.991  15.098  10.960
91118W        W63466   5.850   5.727   0.449
91119W        W63467   9.262  13.310   1.909
91120W        W63468  40.976  13.788  13.829
91121W        W63469  41.969  22.236   3.808
91122W        W63470   8.233  23.615   0.318
91123W        W63471  31.053  32.465   3.343
91124W        W63472  10.195   7.344   5.299
91125W        W63473  24.123  24.482   0.387
91126W        W63474  41.795  22.643   2.293
91127W        W63475   6.812  44.373  13.322
91128W        W63476  29.066   2.426  11.912
91129W        W63477  22.505  13.166  13.851
91130W        W63478   2.940  30.592   2.215
91131W        W63479  13.603  24.022   4.665
91132W        W63480  39.902  13.735   3.862
91133W        W63481  28.058  24.715  13.421
91134W        W63482  28.025  26.510   3.378
91135W        W63483  18.246  44.956  13.970
91136W        W63484   8.328  33.549   1.750
91137W        W63485  29.959  20.714  10.898
91138W        W63486  23.557  21.232   0.889
91139W        W63487   1.903  37.031   4.622
91140W        W63488  31.121  28.973   4.286
91141W        W63489   2.406   8.277   0.944
91142W        W63490  41.977   2.461   0.314
91143W        W63491   0.422  34.573  13.481
91144W        W63492  26.177  37.406   1.786
91145W        W63493  14.813  27.549   2.681
91146W        W63494  14.628  13.106  13.028
91147W        W63495  38.973  10.864  12.560
91148W        W63496  29.617  34.377   2.687
91149W        W63497  44.356   5.729  11.375
91150W        W63498   0.973  26.651   2.274
91151W        W63499  30.452  35.358   3.853
91152W        W63500  12.306  43.508  12.854
91153W        W63501   7.848   2.809  12.390
91154W        W63502  29.002   3.915  12.479
91155W        W63503  26.684  35.442   2.322
91156W        W63504  36.974  20.744   5.289
91157W        W63505  23.691  22.711  12.884
91158W        W63506  20.167  21.224  14.329
91159W        W63507  26.017  16.778   4.217
91160W        W63508  44.912  19.595   1.425
91161W        W63509  20.164  21.046   4.780
91162W        W63510  10.254  30.499   1.251
91163W        W63511  23.526  23.650   2.726
91164W        W63512  39.463   6.265   4.299
91165W        W63513  38.336  18.777   1.407
91166W        W63514  31.931  35.416  12.401
91167W        W63515  25.211  36.986  11.572
91168W        W63516   1.420   6.211   0.260
91169W        W63517   6.815  20.562   1.834
91170W        W63518  43.320   5.892  12.520
91171W        W63519  24.718  20.229   3.663
91172W        W63520  23.206  28.033   1.386
91173W        W63521  24.196   8.352  14.417
91174W        W63522   1.453   4.390  12.506
91175W        W63523   3.947  12.328  10.614
91176W        W63524  25.152  17.084   1.740
91177W        W63525  25.992  27.603   0.877
91178W        W63526  10.638  24.711   1.222
91179W        W63527  32.618  33.546   3.763
91180W        W63528  31.064   3.379   0.933
91181W        W63529  33.457  22.575   5.300
91182W        W63530  14.730  38.327   3.668
91183W        W63531  29.614  22.216   2.683
91184W        W63532  31.424  25.605   3.172
91185W        W63533  21.643  14.812   0.375
91186W        W63534   2.835   8.232  12.527
91187W        W63535   3.756  38.050   3.292
91188W        W63536  44.768  28.070   0.315
91189W        W63537  11.130  10.749   2.411
91190W        W63538  13.126  13.719  14.426
91191W        W63539  12.221  43.321   3.301
91192W        W63540  11.656  11.224  13.934
91193W        W63541   7.887  23.213   4.739
91194W        W63542   5.932   1.796  11.020
91195W        W63543  32.068   9.336   4.128
91196W        W63544   9.235  23.672  12.485
91197W        W63545   1.927  15.748   0.458
91198W        W63546  26.544  11.354  13.323
91199W        W63547   2.944  39.442  11.562
91200W        W63548  44.307  17.656   0.400
91201W        W63549  43.314  29.111  12.953
91202W        W63550   4.333  16.128  14.415
91203W        W63551  10.355  30.048   2.847
91204W        W63552  42.508  34.034   0.389
91205W        W63553  22.629   0.767   5.235
91206W        W63554  35.003  12.797  14.925
91207W        W63555  37.069  23.055  11.483
91208W        W63556  10.815  24.047  11.024
91209W        W63557  40.923  20.576   4.351
91210W        W63558  12.243  32.403   3.677
91211W        W63559  21.632  38.852   4.237
91212W        W63560  33.892  28.562   4.307
91213W        W63561  11.651  19.735   5.289
91214W        W63562  34.986  13.685   3.285
91215W        W63563   5.334   5.754   4.312
91216W        W63564   6.735  16.225   3.364
91217W        W63565  36.013   6.318  12.994
91218W        W63566   8.730  36.047  14.768
91219W        W63567  14.265  44.989  13.013
91220W        W63568  41.925   9.313   4.250
91221W        W63569  27.011  14.743  10.478
91222W        W63570  36.003  41.465  12.043
91223W        W63571  24.040  29.531   1.771
91224W        W63572  29.070  31.945   0.299
91225W        W63573  23.047   1.734   3.763
91226W        W63574  13.284  44.332   0.771
91227W        W63575   4.217  27.112   0.333
91228W        W63576  13.280  34.516  14.370
91229W        W63577  25.612  29.082  11.029
91230W        W63578  20.632  42.836   1.361
91231W        W63579  33.002  35.573   3.157
91232W        W63580  38.515  13.193  14.441
91233W        W63581  41.884  16.301   2.816
91234W        W63582  14.320  15.668  12.043
91235W        W63583  17.068  38.834   2.254
91236W        W63584   6.348  33.030   4.177
91237W        W63585  11.861  16.229   1.828
91238W        W63586  29.663  17.721   2.303
91239W        W63587   9.308  31.560  14.317
91240W        W63588   6.262   3.805  12.019
91241W        W63589  17.164   5.419  12.860
91242W        W63590  16.777  24.615   3.760
91243W        W63591  11.775  39.029   2.898
91244W        W63592  31.633  43.914  13.461
91245W        W63593   0.492  10.854  14.332
91246W        W63594  35.932  23.624  11.020
91247W        W63595   7.761  36.550  13.496
91248W        W63596   9.826  19.683   4.743
91249W        W63597  41.923  29.061   1.227
91250W        W63598  11.738  39.949   2.673
91251W        W63599   8.673  17.739  11.992
91252W        W63600  25.698  29.958   2.338
91253W        W63601  36.032  11.263  12.354
91254W        W63602  30.436  41.823   4.140
91255W        W63603   0.442  27.527   0.902
91256W        W63604   3.218  34.531  14.872
91257W        W63605  38.991  15.697  14.318
91258W        W63606  39.816  28.083  13.321
91259W        W63607   1.889   5.409  12.054
91260W        W63608  16.587  24.641  13.025
91261W        W63609  38.027  33.905   4.352
91262W        W63610  14.740  40.533  13.481
91263W        W63611  36.423   5.932  10.564
91264W        W63612  18.675  44.780   2.386
91265W        W63613   4.434  37.881  12.538
91266W        W63614  16.718  25.184   4.833
91267W        W63615  29.510   0.411   4.686
91268W        W63616   1.799  23.630   2.703
91269W        W63617   8.376  27.630   2.282
91270W        W63618   6.249  37.503  14.386
91271W        W63619  33.407  12.226   1.728
91272W        W63620  44.475  14.807  12.961
91273W        W63621  39.827   8.700  10.935
91274W        W63622  15.255  16.609   0.780
91275W        W63623  13.185   3.795   2.789
91276W        W63624  11.145  32.618   4.762
91277W        W63625   2.299  27.193   3.721
91278W        W63626  41.978  14.320  12.558
91279W        W63627  44.984   5.319  13.887
91280W        W63628  20.650  22.717  12.856
91281W        W63629  10.788  16.676   0.732
91282W        W63630  31.449  39.404  11.869
91283W        W63631  42.929  16.198  12.975
91284W        W63632  15.302  38.401   3.662
91285W        W63633   1.841  35.083   2.787
91286W        W63634  18.053   4.768   3.653
91287W        W63635  16.812  12.203  10.472
91288W        W63636  44.753  30.138  12.475
91289W        W63637  30.971  35.998   0.754
91290W        W63638  41.440   1.247   3.716
91291W        W63639   4.907  12.691  11.027
91292W        W63640   1.778  17.083  13.850
91293W        W63641   7.217  16.611  14.356
91294W        W63642  15.289  30.158  13.807
91295W        W63643   0.768  28.988   2.186
91296W        W63644  26.521   8.697   2.835
91297W        W63645  32.617  21.141  11.981
91298W        W63646  30.135  40.864  13.504
91299W        W63647   4.401  32.564  12.842
91300W        W63648  14.334  35.914  13.859
91301W        W63649  26.185  16.761  14.376
91302W        W63650  32.027  15.740   2.745
91303W        W63651  18.142  31.931  14.836
91304W        W63652  43.988   9.659   0.451
91305W        W63653  35.455  11.774  11.934
91306W        W63654   4.889   3.405   4.243
91307W        W63655  20.217   9.219  11.052
91308W        W63656  15.792  15.652  10.981
91309W        W63657   3.908  38.822   2.206
91310W        W63658  12.180  28.974   4.622
91311W        W63659  35.424   7.332   0.387
91312W        W63660   4.249  26.668  11.571
91313W        W63661  41.801  17.120  10.627
91314W        W63662   1.818  14.224  13.391
91315W        W63663  26.511   8.823   3.201
91316W        W63664  11.250  29.598  11.963
91317W        W63665   4.804  25.601  11.981
91318W        W63666  29.066  14.705   0.381
91319W        W63667  37.349  43.488  13.307
91320W        W63668  20.725  38.065  14.481
91321W        W63669  20.201  12.190   4.660
91322W        W63670  21.550  25.642  11.481
91323W        W63671   4.755  35.082   2.888
91324W        W63672  15.611  25.499   5.318
91325W        W63673  16.274   1.415   4.268
91326W        W63674  22.996  10.640   5.194
91327W        W63675  40.815  17.177  14.506
91328W        W63676  32.001   2.810   3.269
91329W        W63677  22.102  38.439  12.094
91330W        W63678  28.934  35.983  10.585
91331W        W63679  20.714   9.348  14.941
91332W        W63680  30.916  39.533  13.544
91333W        W63681  31.504  38.866  10.513
91334W        W63682   3.269  14.757   1.903
91335W        W63683  19.571  20.714   2.337
91336W        W63684   0.303  20.702  12.945
91337W        W63685  10.293  25.056  14.907
91338W        W63686  20.093   4.783  14.365
91339W        W63687   4.253  15.707   2.678
91340W        W63688   4.353  32.126   4.167
91341W        W63689   9.691  27.124   1.876
91342W        W63690  35.897  25.142   4.620
91343W        W63691   8.900  39.542   2.736
91344W        W63692  22.585  11.717  14.343
91345W        W63693  33.477  12.616   1.865
91346W        W63694  13.651  11.138  11.951
91347W        W63695  34.445  14.188   1.381
91348W        W63696  19.148  21.587   1.697
91349W        W63697  43.964   5.330  14.309
91350W        W63698  37.022  37.001  14.405
91351W        W63699  37.547  42.933   4.661
91352W        W63700   8.689  41.006  14.493
91353W        W63701  17.106  32.922  13.803
91354W        W63702  33.505  38.046  13.325
91355W        W63703  29.435   8.896  14.954
91356W        W63704  34.091  20.240   3.358
91357W        W63705  20.076   2.743  12.028
91358W        W63706  13.793   4.713   4.167
91359W        W63707   1.311  40.539   1.252
91360W        W63708  11.284  32.110  13.836
91361W        W63709  36.037   2.231  12.060
91362W        W63710  13.790  17.793  12.842
91363W        W63711   8.732  20.219  10.412
91364W        W63712  42.420  31.648   4.757
91365W        W63713  17.175  26.612   0.936
91366W        W63714   2.847  42.394  13.983
91367W        W63715  26.155   9.383  13.853
91368W        W63716  44.876  11.771  13.817
91369W        W63717  29.176  25.473  14.507
91370W        W63718  16.146  31.981   3.763
91371W        W63719  33.094  41.451   2.849
91372W        W63720  35.591  35.080   3.364
91373W        W63721  36.580  12.721   2.346
91374W        W63722  17.668  29.588   0.255
91375W        W63723  40.540   8.233  12.473
91376W        W63724  38.037  21.712  10.447
91377W        W63725   4.757  23.108   0.268
91378W        W63726  23.010   6.348  10.416
91379W        W63727  36.461  11.801   0.261
91380W        W63728  18.140  13.321  11.068
91381W        W63729  38.400  44.010   0.753
91382W        W63730  39.031   4.715   3.323
91383W        W63731  33.385  38.974  13.366
91384W        W63732  27.546  19.573  13.842
91385W        W63733  26.496  32.408   2.359
91386W        W63734  23.720  41.489  10.578
91387W        W63735  40.819   0.491   1.803
91388W        W63736   3.876  29.061  11.859
91389W        W63737  40.374   4.416  12.426
91390W        W63738  17.657   4.873  14.865
91391W        W63739   6.285  15.301   9.978
91392W        W63740  41.034   8.752  14.372
91393W        W63741   1.366  37.480  14.818
91394W        W63742  37.508   8.713   2.318
91395W        W63743  25.019   7.369   4.253
91396W        W63744  33.097  38.526  12.414
91397W        W63745  39.987   2.228   3.777
91398W        W63746  15.100  11.342   1.727
91399W        W63747  29.019   7.377  12.018
91400W        W63748  12.666  38.052   0.737
91401W        W63749  15.762  26.499   3.297
91402W        W63750  35.384  15.814   3.298
91403W        W63751  42.835  23.564   4.135
91404W        W63752  13.172   4.380   5.209
91405W        W63753  27.979   3.333  10.467
91406W        W63754   3.712  12.254   1.390
91407W        W63755  21.597  10.147   2.222
91408W        W63756  38.339  38.498   2.260
91409W        W63757  28.133  12.668   4.604
91410W        W63758  25.030  20.680  11.411
91411W        W63759   3.387  34.955   3.740
91412W        W63760  41.026   8.302  12.434
91413W        W63761   2.465  29.021   4.218
91414W        W63762   4.282  31.638   1.390
91415W        W63763  15.636   4.901  12.851
91416W        W63764  21.545  16.257   4.712
91417W        W63765   3.265   7.713  11.381
91418W        W63766   0.902  24.228   1.290
91419W        W63767  17.146  26.519  11.523
91420W        W63768  42.362   4.876  12.946
91421W        W63769  32.479  44.776   1.768
91422W        W63770   0.795  20.245  11.993
91423W        W63771  29.647  20.214  10.509
91424W        W63772  39.452  22.505   4.836
91425W        W63773  41.831  30.970  10.483
91426W        W63774  37.910   0.863   4.286
91427W        W63775  23.143  29.149  11.596
91428W        W63776   1.940   1.924   2.901
91429W        W63777  25.032  32.068   1.335
91430W        W63778  20.709  38.045   1.376
91431W        W63779  40.429   0.788  11.889
91432W        W63780  14.097   4.265  10.407
91433W        W63781  38.391  44.796  10.556
91434W        W63782  24.711  32.469  12.988
91435W        W63783  10.210  20.256   0.832
91436W        W63784  41.362  13.105   5.180
91437W        W63785   5.199   8.865  12.343
91438W        W63786  16.581  35.038   1.316
91439W        W63787  22.138  25.564  12.443
91440W        W63788  38.418  25.586  14.947
91441W        W63789  41.363  40.846  13.970
91442W        W63790  26.114   0.421   1.248
91443W        W63791  26.067  23.700  14.793
91444W        W63792  24.614  42.306   4.679
91445W        W63793  39.013  20.614   1.789
91446W        W63794   4.826  28.530  11.396
91447W        W63795  38.344  10.250   0.353
91448W        W63796  42.473  33.981   1.910
91449W        W63797  40.401  17.230  11.610
91450W        W63798  15.815  43.473  12.922
91451W        W63799   8.735  25.054  14.007
91452W        W63800   8.251   6.753  13.832
91453W        W63801  16.254  15.690   0.951
91454W        W63802  44.438  10.193  13.474
91455W        W63803  23.566   3.379  13.803
91456W        W63804  25.493   7.811   2.198
91457W        W63805  33.057  41.033  12.555
91458W        W63806  36.368  40.843  14.822
91459W        W63807  14.726  24.003   4.324
91460W        W63808  35.431  15.747  11.384
91461W        W63809  31.096  28.029   1.857
91462W        W63810   9.201  32.930   2.772
91463W        W63811  36.445  26.029  12.040
91464W        W63812   5.864  44.963  14.434
91465W        W63813  13.666  11.675   3.261
91466W        W63814   9.653  35.556   0.379
91467W        W63815  44.389  15.232   3.265
91468W        W63816  29.564  38.379  12.348
91469W        W63817   6.414  30.523  14.917
91470W        W63818  28.540   7.245  11.996
91471W        W63819  35.360  23.066  11.435
91472W        W63820  12.692  13.220   1.372
91473W        W63821   7.899  40.374  14.294
91474W        W63822  19.179  39.841   2.299
91475W        W63823  25.027  34.518  13.980
91476W        W63824  34.399  11.181  12.986
91477W        W63825  38.057   8.720  13.505
91478W        W63826  38.439   3.883   4.260
91479W        W63827  34.983  11.792   2.804
91480W        W63828  31.430   0.470   3.684
91481W        W63829  43.492  44.786   2.761
91482W        W63830  24.093  17.190   3.345
91483W        W63831  37.876  36.398  11.396
91484W        W63832   5.322  17.285   0.403
91485W        W63833  16.655  23.664  10.408
91486W        W63834  42.337  44.473   0.750
91487W        W63835  16.106  19.559  12.354
91488W        W63836  31.645   2.966   2.317
91489W        W63837  27.087   3.789   0.317
91490W        W63838  34.918  11.138  10.641
91491W        W63839  41.467   2.913  10.521
91492W        W63840  28.056  23.185   3.721
91493W        W63841  40.054   2.381  13.393
91494W        W63842  32.412   4.322  14.009
91495W        W63843  17.719  38.347   3.158
91496W        W63844  12.237  26.698  14.903
91497W        W63845  19.585  39.856   0.383
91498W        W63846   5.915  38.942  10.629
91499W        W63847  23.135   3.781   4.704
91500W        W63848   7.206   9.723   0.372
91501W        W63849  19.192   1.355  12.538
91502W        W63850   1.794  25.181   0.463
91503W        W63851  21.733  37.080   4.798
91504W        W63852   0.258  28.940   3.660
91505W        W63853  40.455   8.252  14.341
91506W        W63854  12.246   9.243  11.544
91507W        W63855  35.943  21.697   1.814
91508W        W63856  38.355  19.100  11.456
91509W        W63857  16.692  44.342  13.416
91510W        W63858  14.755  44.482   3.248
91511W        W63859  34.005   6.884   1.799
91512W        W63860  29.954  13.690  10.971
91513W        W63861  26.056  17.788  11.550
91514W        W63862  15.804  29.457  13.528
91515W        W63863   1.949  28.588   1.423
91516W        W63864   2.469  17.612  12.358
91517W        W63865   5.267   1.447  12.955
91518W        W63866  22.685  10.641  11.957
91519W        W63867  44.843  44.997  10.967
91520W        W63868   9.275  34.920  11.506
91521W        W63869  34.951  26.115  14.819
91522W        W63870  13.620  16.161  11.419
91523W        W63871  12.117  44.293   2.191
91524W        W63872  24.014  29.470  10.548
91525W        W63873  13.783   1.265   0.925
91526W        W63874   6.302  41.504  10.427
91527W        W63875  15.282  38.451   0.899
91528W        W63876  26.495  25.102   4.628
91529W        W63877  42.032  43.863  12.874
91530W        W63878  37.021  24.537   1.731
91531W        W63879  26.608  35.481   4.212
91532W        W63880  35.852   1.880  11.494
91533W        W63881   5.236  11.330   0.437
91534W        W63882   4.321  40.468   3.240
91535W        W63883   0.803  30.440  14.412
91536W        W63884  33.043  32.094   2.385
91537W        W63885  37.344   8.358  11.530
91538W        W63886  24.091  35.369  14.780
91539W        W63887  11.259  34.454  12.842
91540W        W63888  26.209   8.342   1.870
91541W        W63889  31.904   8.775  13.043
91542W        W63890  21.057  36.444  13.342
91543W        W63891   3.418  17.087   0.308
91544W        W63892  19.178  34.614   4.809
91545W        W63893  28.496  39.503  11.429
91546W        W63894  13.142  25.087   3.294
91547W        W63895  22.502  40.012  11.051
91548W        W63896  14.311  16.614  12.948
91549W        W63897  25.531   5.807  11.518
91550W        W63898   8.225  22.604  11.869
91551W        W63899   4.387  21.689   0.447
91552W        W63900  13.188   6.721  10.002
91553W        W63901  41.854  39.457   0.748
91554W        W63902  17.289  15.608  10.570
91555W        W63903   7.379  14.804  13.825
91556W        W63904  32.616  29.606   2.360
91557W        W63905   7.912  30.046   4.732
91558W        W63906  21.248  33.022   0.782
91559W        W63907  20.256  31.468   2.411
91560W        W63908  31.584  17.609   4.815
91561W        W63909   6.204  39.063  13.374
91562W        W63910  24.207  31.956   2.389
91563W        W63911  20.098  25.178  13.539
91564W        W63912  16.293  15.662   3.683
91565W        W63913   3.452  29.969   3.745
91566W        W63914  30.510  24.168  14.958
91567W        W63915  22.638  26.093   1.295
91568W        W63916  10.217  27.499   0.744
91569W        W63917  11.795  29.934   1.412
91570W        W63918  33.481  21.621   0.806
91571W        W63919  21.107  13.614  13.461
91572W        W63920  30.421  39.875   0.907
91573W        W63921   5.759  18.234   4.626
91574W        W63922  28.971  18.648   3.209
91575W        W63923  10.213   8.246   3.710
91576W        W63924  41.357  31.593   0.453
91577W        W63925  15.199   1.932  11.451
91578W        W63926  39.963  43.293   3.164
91579W        W63927  44.315  13.293   1.341
91580W        W63928   7.755  36.591  12.985
91581W        W63929  41.475   5.756   1.745
91582W        W63930  35.044  27.058  11.881
91583W        W63931  34.590  25.162   4.673
91584W        W63932  11.311  22.650  10.041
91585W        W63933  23.510  18.202   3.307
91586W        W63934   3.927  31.547  10.487
91587W        W63935  37.420   6.741   5.216
91588W        W63936  11.140  39.909   3.280
91589W        W63937   5.766   5.227   2.308
91590W        W63938   6.837  33.069  13.793
91591W        W63939  20.588   6.357  13.460
91592W        W63940   0.361   3.344   2.837
91593W        W63941  44.881  10.314  12.510
91594W        W63942   2.966   4.333   3.672
91595W        W63943  29.470  40.918   3.251
91596W        W63944  44.264  30.645  14.021
91597W        W63945  34.015  44.356   2.200
91598W        W63946   3.436  34.415  12.059
91599W        W63947   7.279  33.007   3.860
91600W        W63948  38.400  31.052  13.483
91601W        W63949  35.572  28.029  14.793
91602W        W63950  22.517  35.481   4.305
91603W        W63951  25.191  18.233  13.064
91604W        W63952  25.174  39.922  10.602
91605W        W63953   7.680  38.898  11.570
91606W        W63954  19.073  23.178  10.933
91607W        W63955  22.152   5.734   0.860
91608W        W63956  28.010   0.410   2.351
91609W        W63957  33.611  23.118  11.041
91610W        W63958   6.676  39.030   3.664
91611W        W63959   0.902  28.170   5.096
91612W        W63960   2.842  19.571   3.261
91613W        W63961  31.993  44.413   4.662
91614W        W63962  42.911  43.500   4.297
91615W        W63963  16.293  14.795  11.086
91616W        W63964  34.016  12.198  13.874
91617W        W63965   9.677  43.353  14.383
91618W        W63966  18.687  29.168  13.524
91619W        W63967   4.426   0.925   1.922
91620W        W63968  34.460  10.834   0.435
91621W        W63969   2.260  26.554   0.913
91622W        W63970  22.662  17.242   9.945
91623W        W63971  44.009   5.814   0.750
91624W        W63972  44.362   1.797   1.748
91625W        W63973  16.172  28.113   2.901
91626W        W63974  16.714  13.773   1.797
91627W        W63975  27.562  18.762  12.890
91628W        W63976  44.324  41.869   4.316
91629W        W63977  32.114  38.008   9.937
91630W        W63978   4.827  26.981  11.119
91631W        W63979  36.944   5.687   2.722
91632W        W63980  20.525  13.255  13.855
91633W        W63981   2.309  35.487   2.675
91634W        W63982  11.144  42.987   3.788
91635W        W63983   6.232  39.525   1.860
91636W        W63984  21.035  40.367  14.367
91637W        W63985   2.916  31.899   4.174
91638W        W63986  19.639  14.697   1.316
91639W        W63987  23.217  18.731   3.696
91640W        W63988   8.190  41.332   4.152
91641W        W63989  18.722  19.598   5.109
91642W        W63990  43.479  28.084  11.499
91643W        W63991  42.810  31.436  12.511
91644W        W63992  40.832  27.598  10.890
91645W        W63993  16.768  24.556   3.348
91646W        W63994  31.126  15.262   3.866
91647W        W63995   0.837   7.727   2.831
91648W        W63996  34.025  33.947  10.103
91649W        W63997   6.328  22.537   0.367
91650W        W63998  24.627  34.541  10.464
91651W        W63999  25.105  44.430   3.230
91652W        W64000  29.161   3.717  13.368
91653W        W64001  24.041  39.060  13.948
91654W        W64002   2.233  25.010   1.215
91655W        W64003  39.012  38.886   1.797
91656W        W64004  12.719  24.028   2.881
91657W        W64005  27.012   7.845   3.834
91658W        W64006  31.927  37.420   4.226
91659W        W64007  35.878  16.208   2.321
91660W        W64008  38.058  14.147  11.898
91661W        W64009  31.062  23.703  11.110
91662W        W64010  28.092  12.312   2.780
91663W        W64011  42.470   3.951  13.378
91664W        W64012  18.120  37.845   0.792
91665W        W64013  31.147  39.983  13.473
91666W        W64014  13.732  39.813   1.783
91667W        W64015  14.680  27.080  10.632
91668W        W64016  25.566  35.412  13.886
91669W        W64017  12.292  10.735  12.523
91670W        W64018  43.889  31.542  11.517
91671W        W64019   6.824   7.328  14.371
91672W        W64020  15.168  37.528  11.522
91673W        W64021   6.221  22.189  13.058
91674W        W64022   1.905  27.626  14.470
91675W        W64023   4.728  24.704   1.703
91676W        W64024  39.517  10.308   1.251
91677W        W64025   5.253   6.817  10.891
91678W        W64026  31.534  14.221   4.248
91679W        W64027  12.843  33.028   3.212
91680W        W64028  34.408  29.109   4.306
91681W        W64029   6.358  18.136   4.724
91682W        W64030  19.582  28.442  12.824
91683W        W64031   5.727  25.523   3.366
91684W        W64032   5.233   0.980   4.800
91685W        W64033  12.722  29.920  10.964
91686W        W64034  18.120  35.440  10.988
91687W        W64035  31.412  21.032   4.281
91688W        W64036  12.263  31.120  12.910
91689W        W64037  13.673  42.834   3.378
91690W        W64038   6.799  29.490   4.189
91691W        W64039  44.869  23.187  14.321
91692W        W64040   2.409  41.446   4.792
91693W        W64041   0.819  22.725   4.830
91694W        W64042   3.934  37.831  10.995
91695W        W64043   1.937  18.265   2.314
91696W        W64044  13.325  32.632  13.982
91697W        W64045   8.856  44.945   1.238
91698W        W64046   6.750  12.838   4.831
91699W        W64047   9.706   9.682  12.883
91700W        W64048  25.614  19.145   3.381
91701W        W64049  14.197  14.125   4.312
91702W        W64050  17.155   0.810   4.294
91703W        W64051  44.414   1.375   3.708
91704W        W64052   7.337   8.191   3.761
91705W        W64053  32.901  15.736   1.822
91706W        W64054  12.720  23.694  13.971
91707W        W64055  19.092   3.371  13.889
91708W        W64056  17.242  22.744   0.864
91709W        W64057   7.333  21.523   1.868
91710W        W64058   3.897  39.846  11.044
91711W        W64059  15.196  20.267  14.303
91712W        W64060   7.668  35.494  12.468
91713W        W64061   1.816  27.488  10.527
91714W        W64062  23.642  15.239  12.961
91715W        W64063   0.925  34.930   3.745
91716W        W64064   2.825   9.731   3.351
91717W        W64065  13.732  30.616  13.348
91718W        W64066  35.033  30.943  12.951
91719W        W64067  30.538   3.414   2.680
91720W        W64068   9.689   1.287  14.275
91721W        W64069  19.771   7.714  14.950
91722W        W64070   1.271  29.528   0.336
91723W        W64071   2.359  31.939   3.805
91724W        W64072  28.667  26.159   1.915
91725W        W64073  18.134   5.856  11.894
91726W        W64074  17.664  43.855   2.339
91727W        W64075  13.284  15.229  11.516
91728W        W64076  41.355  24.725   2.230
91729W        W64077   9.175   8.314   3.355
91730W        W64078  13.812   6.233   3.795
91731W        W64079  42.939  24.080  10.985
91732W        W64080  22.544  29.174   2.881
91733W        W64081  23.694  33.431   2.799
91734W        W64082  12.796   3.398  10.897
91735W        W64083  35.996  42.903  11.471
91736W        W64084  31.572  14.259  11.979
91737W        W64085  16.743  38.446  10.889
91738W        W64086   2.922   5.375   3.347
91739W        W64087   6.347  41.879   2.222
91740W        W64088  32.418  42.836  13.366
91741W        W64089  38.443  23.694   0.460
91742W        W64090   0.753  19.604  14.485
91743W        W64091   9.753   6.284   2.667
91744W        W64092  29.125  13.800   1.345
91745W        W64093  23.086  37.833   1.713
91746W        W64094  32.053  11.663  11.415
91747W        W64095  20.654   2.310   2.847
91748W        W64096  14.789   2.820   4.116
91749W        W64097  31.937   5.808  13.518
91750W        W64098  42.482  42.450  12.470
91751W        W64099  41.467  42.516  14.508
91752W        W64100  32.494  16.304   3.218
91753W        W64101  39.984  40.979  13.363
91754W        W64102  19.250   0.881   3.273
91755W        W64103   9.747   3.309  11.963
91756W        W64104  11.821   7.193   4.251
91757W        W64105  42.871  25.483  10.987
91758W        W64106  38.404   0.772  11.595
91759W        W64107  33.601  24.614   1.744
91760W        W64108   0.966  30.488  13.331
91761W        W64109  24.987   0.276  11.993
91762W        W64110  13.639  27.624  10.475
91763W        W64111   1.795  29.992  14.888
91764W        W64112   4.865  32.569  14.285
91765W        W64113  35.100  18.588   2.408
91766W        W64114  20.615   6.379   4.228
91767W        W64115  22.180  11.240  13.330
91768W        W64116  17.709  17.675   1.217
91769W        W64117  28.479  14.736  14.408
91770W        W64118  12.169  27.101  10.557
91771W        W64119  24.706  13.744   1.292
91772W        W64120  26.494  38.819   5.315
91773W        W64121  16.590   6.875  12.015
91774W        W64122  21.103  30.590  13.839
91775W        W64123  14.313  11.219   0.880
91776W        W64124  25.971  33.070  10.946
91777W        W64125  18.062   1.466  14.409
91778W        W64126  15.597   2.918   2.774
91779W        W64127   2.898  28.572  10.949
91780W        W64128  17.782  25.559  10.518
91781W        W64129  26.643  29.004  13.916
91782W        W64130  20.697   4.419   4.756
91783W        W64131  37.950  44.801   0.317
91784W        W64132  26.063  38.330  10.476
91785W        W64133  30.932  31.499   2.255
91786W        W64134  22.544  16.770   2.736
91787W        W64135  16.301  24.147   0.857
91788W        W64136  25.486  39.064  12.955
91789W        W64137  36.371  24.062  13.949
91790W        W64138   5.786   7.261   1.932
91791W        W64139  14.131  22.704   3.293
91792W        W64140   5.777   5.365  14.764
91793W        W64141  12.735  10.779  12.496
91794W        W64142  38.957   9.713  10.115
91795W        W64143  12.642  11.265  14.812
91796W        W64144  23.544  40.489  12.023
91797W        W64145  23.653   5.296   4.800
91798W        W64146  17.729  11.220  12.017
91799W        W64147  14.599  37.356   2.778
91800W        W64148   6.291  12.216  13.840
91801W        W64149   0.310   0.810  12.577
91802W        W64150  26.686  10.338   3.743
91803W        W64151  43.355  13.758  10.578
91804W        W64152  16.318  43.427   4.701
91805W        W64153   3.269  21.748   2.202
91806W        W64154  31.995  29.136  10.993
91807W        W64155  28.587   3.760  11.104
91808W        W64156  11.168  34.607   1.929
91809W        W64157   0.466  44.932  11.516
91810W        W64158  39.442  40.954   3.233
91811W        W64159   2.261  31.546  13.915
91812W        W64160  25.095  43.977  14.442
91813W        W64161  43.927  14.767  12.551
91814W        W64162  31.983  24.715  14.795
91815W        W64163  30.553  43.377  14.929
91816W        W64164   6.365  14.173   1.728
91817W        W64165   4.318   8.233   4.351
91818W        W64166  10.165  10.292  10.641
91819W        W64167   3.455  42.823  14.371
91820W        W64168  38.421  28.186  14.482
91821W        W64169   4.936   6.730   0.366
91822W        W64170  29.628  36.994  11.563
91823W        W64171  16.690   1.750  14.395
91824W        W64172  29.105  44.863  14.324
91825W        W64173  30.049  31.952   4.266
91826W        W64174  17.084  30.630  12.871
91827W        W64175  19.674   3.407  12.885
91828W        W64176  26.472  34.450   3.164
91829W        W64177  41.336  11.667   5.096
91830W        W64178  18.744   2.438   1.447
91831W        W64179  35.554  29.639  10.550
91832W        W64180  15.156   9.720   4.238
91833W        W64181   7.272  35.887   3.190
91834W        W64182  42.844  42.812  14.945
91835W        W64183  15.209  18.733  10.552
91836W        W64184  25.655   7.227  10.551
91837W        W64185  32.520  24.989  12.506
91838W        W64186  26.008  34.894  13.846
91839W        W64187  16.797  32.042  10.960
91840W        W64188   6.901  41.389   1.879
91841W        W64189  17.166   2.329  10.605
91842W        W64190   2.853  24.639  11.099
91843W        W64191  44.295   3.368  11.977
91844W        W64192  41.299  22.705   0.838
91845W        W64193  33.907  43.367  13.499
91846W        W64194  25.069   2.273   3.153
91847W        W64195   6.910  22.579  12.566
91848W        W64196  41.510   9.752   1.778
91849W        W64197  38.936  40.930  10.442
91850W        W64198  36.040  20.060   2.297
91851W        W64199  21.106  39.522  14.019
91852W        W64200  17.642  12.690   1.254
91853W        W64201  12.158  19.133   0.778
91854W        W64202  38.894  12.190   4.798
91855W        W64203  42.490  36.478  14.855
91856W        W64204  12.697   4.316  10.420
91857W        W64205  33.456  18.603  13.933
91858W        W64206  37.848  29.619   4.170
91859W        W64207  36.950   6.816   2.866
91860W        W64208   9.294  26.676  11.010
91861W        W64209  37.351  14.793  13.041
91862W        W64210  43.795   9.213  10.527
91863W        W64211   7.274   5.283  10.602
91864W        W64212   9.682  32.105   9.620
91865W        W64213   3.293  37.408   4.133
91866W        W64214  19.267  22.728  14.962
91867W        W64215   8.682   3.449  13.031
91868W        W64216  18.778  25.182  10.598
91869W        W64217  36.475  15.266   4.150
91870W        W64218  18.766   1.301  10.565
91871W        W64219  26.137  34.947  13.356
91872W        W64220  27.526   9.349  11.502
91873W        W64221   6.307   9.824   4.759
91874W        W64222  34.548  13.177  11.463
91875W        W64223   7.298  26.698  14.848
91876W        W64224  35.948  42.956   2.733
91877W        W64225  33.954   0.438  13.021
91878W        W64226  26.697   4.919  12.029
91879W        W64227  42.392  22.136   2.336
91880W        W64228  31.631   0.452  13.009
91881W        W64229  38.519  28.964   3.300
91882W        W64230  29.577  12.201  12.375
91883W        W64231  26.629   1.933  14.415
91884W        W64232  23.655  33.443   1.228
91885W        W64233  24.987  17.222  10.485
91886W        W64234   8.846  23.640  11.071
91887W        W64235  17.286  10.825   1.442
91888W        W64236  22.998   4.774   4.288
91889W        W64237   2.787   0.823   3.291
91890W        W64238  22.131  22.197   3.374
91891W        W64239  39.556  42.392   0.426
91892W        W64240  18.070   1.422   1.728
91893W        W64241   7.369  23.683  11.511
91894W        W64242  28.616  36.419  10.427
91895W        W64243   1.836  36.517   4.188
91896W        W64244  27.161  17.229   0.387
91897W        W64245  23.671  11.856  10.963
91898W        W64246  15.640  30.966   3.194
91899W        W64247  37.835  33.080  13.923
91900W        W64248  37.349   2.446   5.181
91901W        W64249  23.170  21.184  14.863
91902W        W64250  14.168  19.228  11.118
91903W        W64251  41.503   8.185  14.477
91904W        W64252  36.865  42.001  13.013
91905W        W64253  35.884   8.248   1.214
91906W        W64254   5.924  19.701  14.804
91907W        W64255   2.285  43.955  12.458
91908W        W64256  16.196  38.353  11.522
91909W        W64257  24.608  19.150  14.431
91910W        W64258  11.336  13.650  14.921
91911W        W64259   0.467  21.624   4.756
91912W        W64260  33.975  42.451   1.928
91913W        W64261  24.507  26.546   0.455
91914W        W64262  34.576  23.655  12.383
91915W        W64263   5.326  39.507  12.864
91916W        W64264  20.747  31.053   5.144
91917W        W64265   4.439  44.816   4.735
91918W        W64266  36.999  41.529  11.019
91919W        W64267  32.085  14.178  13.394
91920W        W64268  37.442   5.734  13.512
91921W        W64269   7.361  42.496  14.849
91922W        W64270   5.919  39.050  14.907
91923W        W64271  20.648  20.083   3.856
91924W        W64272   0.903  28.105  11.440
91925W        W64273   4.265  28.665  10.428
91926W        W64274  14.766  32.090   1.908
91927W        W64275  44.408   3.424   5.266
91928W        W64276  35.044  37.038  11.950
91929W        W64277  10.333  41.868   2.383
91930W        W64278   7.187  29.010  14.296
91931W        W64279   6.199  43.411   3.179
91932W        W64280  23.064   9.755  11.900
91933W        W64281  18.250   2.725   3.635
91934W        W64282  41.311  43.473  14.948
91935W        W64283  24.108  15.780  11.904
91936W        W64284  20.728  40.856  13.060
91937W        W64285  10.635   7.233   2.360
91938W        W64286  15.703  33.919  14.466
91939W        W64287  19.127   8.773  10.462
91940W        W64288  19.560  11.301  11.982
91941W        W64289   1.469   6.227  10.970
91942W        W64290  44.924   2.937   3.674
91943W        W64291  21.131  40.958  12.508
91944W        W64292   4.318  34.098   3.639
91945W        W64293  32.617  10.288  14.347
91946W        W64294  39.822   1.955   4.153
91947W        W64295  23.733  28.930  13.791
91948W        W64296  18.789  30.590  12.868
91949W        W64297   5.881  35.379  10.567
91950W        W64298  39.507  37.067   2.370
91951W        W64299  21.145   8.216   0.863
91952W        W64300  38.980   9.280  10.938
91953W        W64301   7.894   1.874   3.856
91954W        W64302  14.680   6.304  13.865
91955W        W64303  11.742  15.111   4.126
91956W        W64304  32.586   7.301   1.291
91957W        W64305  35.946  15.247   2.313
91958W        W64306  36.926  29.047  12.066
91959W        W64307  39.932   5.417   3.311
91960W        W64308  21.752  38.981   2.195
91961W        W64309  29.569  32.575  13.834
91962W        W64310  25.020  38.380   2.243
91963W        W64311  37.495  24.668   2.744
91964W        W64312   2.807  14.735  12.552
91965W        W64313  32.042  43.292   1.392
91966W        W64314  29.055   3.221  11.519
91967W        W64315   0.406  13.673   3.350
91968W        W64316  42.325  43.465  12.862
91969W        W64317  35.576  24.662  14.466
91970W        W64318  15.668  41.807   3.815
91971W        W64319  20.233  14.118   2.719
91972W        W64320   4.780  38.861   9.985
91973W        W64321  23.119  10.755  10.100
91974W        W64322  25.559  11.768  10.433
91975W        W64323  38.371  33.083  14.922
91976W        W64324  28.509   1.960  10.493
91977W        W64325  31.602   1.934   4.133
91978W        W64326  21.111  39.954   2.839
91979W        W64327  18.261  29.099   5.232
91980W        W64328  39.009  31.614  12.471
91981W        W64329  17.287  25.043   3.631
91982W        W64330   1.261  42.901   4.175
91983W        W64331   7.718  42.906  12.044
91984W        W64332  12.343  29.582   1.323
91985W        W64333   4.757  12.650   4.238
91986W        W64334   2.352   5.743   3.863
91987W        W64335  40.016  34.089  12.859
91988W        W64336  38.952   5.259  14.514
91989W        W64337  34.024  39.810  11.498
91990W        W64338   1.752  20.252   2.394
91991W        W64339  13.200  16.705  13.377
91992W        W64340   9.165  31.446   2.329
91993W        W64341  21.613  19.595   0.412
91994W        W64342  16.703  31.529   0.352
91995W        W64343  25.523  12.117  14.300
91996W        W64344  19.568  12.119   4.238
91997W        W64345  12.712  38.341   2.837
91998W        W64346  16.660   2.901   3.686
91999W        W64347  16.201  34.101   3.843
92000W        W64348  41.933  42.016  14.412
92001W        W64349  10.240  42.994   4.173
92002W        W64350  38.442  10.679   0.372
92003W        W64351  31.553  16.634  12.560
92004W        W64352  43.907   3.856  12.078
92005W        W64353   8.769  12.352   2.327
92006W        W64354  44.758  25.011   2.861
92007W        W64355  35.515   4.942   4.134
92008W        W64356  13.219  30.945   1.237
92009W        W64357  26.630   6.682   4.681
92010W        W64358  23.732  23.067  14.872
92011W        W64359   7.699  27.579   4.164
92012W        W64360  25.027   3.222  11.500
92013W        W64361  30.511   8.796  10.563
92014W        W64362  32.088  25.992  10.410
92015W        W64363  17.659   8.382   2.350
92016W        W64364   7.712   3.914   1.711
92017W        W64365  14.142   0.856  13.009
92018W        W64366  41.816  16.774   0.884
92019W        W64367  44.809   7.210   0.307
92020W        W64368  41.350   2.415  12.520
92021W        W64369  28.037  11.849  14.977
92022W        W64370   9.243  25.128   5.291
92023W        W64371  29.111  40.412  13.816
92024W        W64372  43.450  30.448   1.924
92025W        W64373  10.792   6.883  11.050
92026W        W64374  25.966  30.456   1.741
92027W        W64375  40.540  24.712   0.471
92028W        W64376   3.261  11.776   2.847
92029W        W64377  14.677   3.411   2.722
92030W        W64378   7.215  32.559   4.218
92031W        W64379  14.180  28.147  12.422
92032W        W64380  37.338  27.959  11.898
92033W        W64381  43.939  22.562   4.186
92034W        W64382  37.450   2.847  13.868
92035W        W64383  21.214  31.932  10.914
92036W        W64384  11.713   2.358   4.762
92037W        W64385  28.529  19.598   1.387
92038W        W64386  30.607  29.579  10.556
92039W        W64387   4.795  14.649   1.284
92040W        W64388  44.391   6.847  10.618
92041W        W64389  14.822   2.266   1.882
92042W        W64390  35.363   4.746   3.793
92043W        W64391  12.326  22.188   3.179
92044W        W64392  11.736  23.682  10.644
92045W        W64393   1.286  30.140   2.686
92046W        W64394   3.368  15.742  12.576
92047W        W64395  26.519   9.748   0.768
92048W        W64396  29.978  12.347   4.703
92049W        W64397   2.373   7.415  13.472
92050W        W64398  11.358  10.735   4.317
92051W        W64399  19.128  26.963  11.572
92052W        W64400  34.595  12.229   1.811
92053W        W64401  44.846  41.839   0.263
92054W        W64402  24.110  37.519  11.409
92055W        W64403  22.252  20.601  11.449
92056W        W64404   1.477  10.168  12.428
92057W        W64405   6.336  23.550  13.438
92058W        W64406  43.434  20.712   4.186
92059W        W64407  18.691  43.505  12.524
92060W        W64408  38.067  26.960  14.849
92061W        W64409   3.778  21.059   4.726
92062W        W64410   3.860  41.360  13.934
92063W        W64411  43.492  41.941  10.492
92064W        W64412  38.492   7.742   3.239
92065W        W64413  15.273   7.215   0.931
92066W        W64414   1.930  13.603  10.423
92067W        W64415  12.714   1.931   3.837
92068W        W64416   1.380   0.806  14.032
92069W        W64417  44.892  24.059  13.014
92070W        W64418   7.867  43.391   3.690
92071W        W64419  31.142  30.132  14.337
92072W        W64420  22.159   3.859   2.798
92073W        W64421   1.744  31.146  13.307
92074W        W64422  15.692  34.981  13.458
92075W        W64423  15.774   6.385   4.291
92076W        W64424   6.321  17.616   1.416
92077W        W64425   3.382   6.334  11.870
92078W        W64426  11.859   5.233   9.936
92079W        W64427  16.791  41.429  10.643
92080W        W64428   3.751  21.512   1.888
92081W        W64429  15.243  35.467  11.935
92082W        W64430  26.664  20.722  10.422
92083W        W64431  42.403  16.144   2.383
92084W        W64432  37.458  16.798   2.682
92085W        W64433  39.989  11.268  14.996
92086W        W64434   8.206  12.822  10.548
92087W        W64435  32.915  18.250  14.365
92088W        W64436  42.337   9.715  12.083
92089W        W64437   7.397   6.367  13.014
92090W        W64438  18.146  20.263  11.419
92091W        W64439   7.404  12.225   1.923
92092W        W64440  14.731  19.588  10.553
92093W        W64441  42.492  35.039  14.830
92094W        W64442  14.734  15.722   0.876
92095W        W64443  40.909  28.474  12.430
92096W        W64444  14.164  16.727   1.310
92097W        W64445  38.894  37.998  11.117
92098W        W64446  36.438  38.952  13.860
92099W        W64447   6.358  33.501   9.921
92100W        W64448  22.235   3.251  11.946
92101W        W64449  18.555  40.377  10.603
92102W        W64450   3.346  30.627  10.534
92103W        W64451  16.631   8.786  14.496
92104W        W64452  33.082  34.544  11.896
92105W        W64453  34.400  29.049  11.412
92106W        W64454  12.292  37.071   0.907
92107W        W64455  43.503  35.890  13.049
92108W        W64456   3.842  40.360  11.462
92109W        W64457   9.812  44.495  10.031
92110W        W64458  17.079   6.848   2.853
92111W        W64459   4.337  43.909   3.804
92112W        W64460  18.718  40.429   1.758
92113W        W64461  24.163  18.632   4.344
92114W        W64462  38.454  23.581   3.720
92115W        W64463   6.309   0.363  13.823
92116W        W64464   0.815   3.946  10.432
92117W        W64465  42.029  38.506  12.037
92118W        W64466   7.385  36.531   2.219
92119W        W64467  26.555   7.349   2.181
92120W        W64468  30.107  24.115  12.529
92121W        W64469  43.445  41.373   1.285
92122W        W64470  40.839  44.450  14.288
92123W        W64471  28.542  36.574  11.535
92124W        W64472   9.362  25.198  10.429
92125W        W64473  15.601  20.156  14.299
92126W        W64474  29.427   9.869   0.480
92127W        W64475  37.579  19.238  12.382
92128W        W64476  31.977  40.850  14.486
92129W        W64477  35.927  43.927  14.774
92130W        W64478  20.597  15.216   0.807
92131W        W64479  29.121  21.032  10.501
92132W        W64480  17.277  25.709  13.334
92133W        W64481  13.217  41.987  13.439
92134W        W64482  40.988  27.092   4.222
92135W        W64483  34.932  42.904   1.883
92136W        W64484  25.059  42.890  11.503
92137W        W64485  28.446  17.678  12.960
92138W        W64486  32.006  28.667  14.848
92139W        W64487   3.348  22.733  13.060
92140W        W64488   8.861  22.178  13.998
92141W        W64489  32.953   9.866   4.597
92142W        W64490  26.562  18.790  10.892
92143W        W64491  38.065  32.513   0.257
92144W        W64492   7.214  43.414   2.724
92145W        W64493   3.938   6.356   1.769
92146W        W64494  24.018   0.805  10.607
92147W        W64495  18.584   7.696   4.794
92148W        W64496  21.570  42.344   4.173
92149W        W64497  34.016   2.751  10.414
92150W        W64498  30.004  22.061   4.683
92151W        W64499   4.342  14.304   2.363
92152W        W64500  23.590  32.450   4.143
92153W        W64501  37.001  40.471  12.416
92154W        W64502   7.773  25.041   4.144
92155W        W64503  43.504  28.100   1.934
92156W        W64504   3.442  20.716   4.805
92157W        W64505  37.459  36.034  11.976
92158W        W64506  44.429  41.930   2.682
92159W        W64507  44.434   3.811  12.083
92160W        W64508  18.153  28.996  13.526
92161W        W64509  24.594   2.343  11.963
92162W        W64510  35.059   4.341  11.990
92163W        W64511  10.707   6.900  12.969
92164W        W64512  39.051   5.790  12.468
92165W        W64513   1.824  23.655   4.320
92166W        W64514  28.573   9.328   3.236
92167W        W64515   6.321   5.414  12.505
92168W        W64516  35.526  22.040   4.601
92169W        W64517  19.080  35.545   2.894
92170W        W64518  41.882  34.491   2.865
92171W        W64519  22.056  18.074   2.703
92172W        W64520   1.238  18.687   4.250
92173W        W64521   3.417  28.952  11.411
92174W        W64522  15.294  19.231   3.153
92175W        W64523  26.515  38.351   0.804
92176W        W64524  29.938  20.615   4.706
92177W        W64525  13.809  34.930   3.247
92178W        W64526  39.323  34.111   2.893
92179W        W64527  15.106  21.241  13.970
92180W        W64528  43.890  17.764   0.779
92181W        W64529  32.582  26.589  10.487
92182W        W64530  27.463  21.108   1.331
92183W        W64531  32.411  37.390   5.152
92184W        W64532  20.069  43.020   3.723
92185W        W64533  16.215  10.843   2.344
92186W        W64534  34.909   6.256   0.869
92187W        W64535  11.833   8.736   9.942
92188W        W64536  37.057  17.647  13.876
92189W        W64537   9.393  33.621  11.575
92190W        W64538   1.289  13.802  11.074
92191W        W64539  36.359   6.751   5.796
92192W        W64540  30.975  14.663  13.849
92193W        W64541  34.939  41.915   2.880
92194W        W64542  43.789   1.940  12.078
92195W        W64543  35.478  43.344  12.981
92196W        W64544  21.650   4.205   4.724
92197W        W64545   7.692  29.656  11.048
92198W        W64546  18.050  11.745  10.624
92199W        W64547  44.318   1.292   3.216
92200W        W64548  43.858  26.187  11.048
92201W        W64549  14.674  21.085  11.090
92202W        W64550  14.212  11.828   2.735
92203W        W64551  11.360   3.279  11.457
92204W        W64552  21.257  10.687   4.705
92205W        W64553   8.247   2.352   2.721
92206W        W64554  18.129  12.798   1.897
92207W        W64555   7.215   0.358  12.043
92208W        W64556  35.886   2.808  12.001
92209W        W64557  34.409  18.206  13.056
92210W        W64558  15.737  40.893   2.827
92211W        W64559  43.835  11.859  14.435
92212W        W64560  41.970   4.698  11.475
92213W        W64561   9.690  14.824   4.691
92214W        W64562  12.843   4.859  10.511
92215W        W64563  35.081  43.866   4.164
92216W        W64564   2.896  42.907  12.530
92217W        W64565  34.457  30.113   0.343
92218W        W64566  13.285  18.722  13.320
92219W        W64567   8.257   8.202   3.271
92220W        W64568   2.947  11.127   2.242
92221W        W64569  38.893   8.304   4.329
92222W        W64570  13.179  26.982   3.809
92223W        W64571  14.636  14.602   2.762
92224W        W64572  20.604  21.180  13.876
92225W        W64573  16.310  34.574   0.365
92226W        W64574  18.142  36.485   3.382
92227W        W64575  14.803  24.620  10.895
92228W        W64576  35.551   4.347   3.817
92229W        W64577  26.554  12.315  13.409
92230W        W64578  41.033  12.620   3.209
92231W        W64579   9.345   1.811   1.892
92232W        W64580   5.702  37.088  13.322
92233W        W64581  16.659   4.446  12.051
92234W        W64582   3.793  28.933  13.451
92235W        W64583  36.421  42.909  11.983
92236W        W64584  36.931   3.329  10.580
92237W        W64585  43.421  38.904   4.122
92238W        W64586  15.803  40.377   4.285
92239W        W64587  14.721  29.065  12.923
92240W        W64588  43.019  36.857  14.341
92241W        W64589  21.724  40.804   0.374
92242W        W64590  27.139  43.447   2.808
92243W        W64591  37.848   3.301  11.479
92244W        W64592  21.515  30.910   3.336
92245W        W64593  10.719  38.365  10.524
92246W        W64594  35.992  21.622  11.565
92247W        W64595  35.956  12.622   0.352
92248W        W64596   1.339   8.887  10.412
92249W        W64597  32.508   5.921  11.070
92250W        W64598  15.748  24.981   1.784
92251W        W64599  14.758  43.295  11.601
92252W        W64600  17.188  32.928   0.409
92253W        W64601  27.663   0.379  10.436
92254W        W64602   2.799  12.758   0.440
92255W        W64603  30.005  26.196   1.394
92256W        W64604   5.886  18.667  13.524
92257W        W64605   6.913  16.749   2.881
92258W        W64606  30.998  36.550   0.402
92259W        W64607  23.180  15.628  12.378
92260W        W64608  43.870  30.481  13.825
92261W        W64609  17.301  39.482   2.363
92262W        W64610  25.208   4.728   0.900
92263W        W64611  17.790   6.765  14.498
92264W        W64612   6.329  44.482  11.416
92265W        W64613  27.645  27.978  14.815
92266W        W64614  37.399   6.690  10.136
92267W        W64615   4.896  10.764   0.850
92268W        W64616   2.944  13.633  14.814
92269W        W64617   5.332  28.938   3.263
92270W        W64618  29.166  10.704   2.777
92271W        W64619  24.693   4.253   2.785
92272W        W64620  28.079  21.252   0.283
92273W        W64621  42.818   9.308   4.285
92274W        W64622  24.605  39.930   1.915
92275W        W64623  20.540  11.237  14.432
92276W        W64624   3.282  11.704  12.417
92277W        W64625  19.577  42.977   3.182
92278W        W64626  36.941  38.065  10.984
92279W        W64627   6.703   2.374  11.417
92280W        W64628  14.277  41.980  14.775
92281W        W64629  40.382  37.049   4.670
92282W        W64630  13.632  27.953   0.803
92283W        W64631   5.425  33.067  10.945
92284W        W64632  40.511  38.446   4.140
92285W        W64633  21.070  23.993  14.798
92286W        W64634  10.139  28.138  11.372
92287W        W64635  11.306  12.186   4.352
92288W        W64636  27.602  10.765   4.224
92289W        W64637  14.828  16.748  13.337
92290W        W64638  35.452   9.206   2.888
92291W        W64639   6.865  32.621  14.439
92292W        W64640  40.535   4.244   1.238
92293W        W64641  23.674  18.665   2.247
92294W        W64642  13.122  27.129  11.479
92295W        W64643  28.500  25.175   3.223
92296W        W64644  38.376  29.080   2.674
92297W        W64645   4.236  16.674  13.477
92298W        W64646  32.131  39.486   1.337
92299W        W64647  37.394  37.352  13.981
92300W        W64648  33.923  13.164  13.475
92301W        W64649  16.074  42.847   3.826
92302W        W64650  26.662  17.295   4.805
92303W        W64651  33.527  41.423   3.369
92304W        W64652  25.167  44.857  14.904
92305W        W64653   7.776  15.800  14.513
92306W        W64654  41.436  18.128   0.385
92307W        W64655  16.719  34.404   2.842
92308W        W64656  15.114  42.921  13.973
92309W        W64657  11.701  21.644   3.348
92310W        W64658   1.971  23.516   1.750
92311W        W64659   8.812  42.420   3.322
92312W        W64660  28.592  42.416  10.589
92313W        W64661  31.444  16.101  11.879
92314W        W64662  17.231  40.978  12.370
92315W        W64663  43.406  24.200   0.373
92316W        W64664   4.702  19.060   2.804
92317W        W64665  20.677   0.896  12.083
92318W        W64666  43.901  42.872   3.702
92319W        W64667  35.595  10.284   0.798
92320W        W64668  35.533  37.499  11.067
92321W        W64669  33.568   1.798   4.701
92322W        W64670  35.421  39.405   3.164
92323W        W64671  38.506  22.208   4.304
92324W        W64672  21.244  24.061   2.244
92325W        W64673  12.719  21.733   3.814
92326W        W64674  37.444   0.744  13.812
92327W        W64675  43.808  25.188  12.866
92328W        W64676   8.261   2.852   4.748
92329W        W64677  30.989  21.552   4.770
92330W        W64678  31.523   4.761  11.483
92331W        W64679  19.062  26.530   2.786
92332W        W64680  13.340  30.937   1.844
92333W        W64681  37.067  36.096   4.275
92334W        W64682  39.991  10.660   3.313
92335W        W64683   3.925  22.542   1.772
92336W        W64684  41.870  30.083   1.885
92337W        W64685   8.322  36.533   2.245
92338W        W64686  16.708  35.019  14.902
92339W        W64687  18.078  42.005  10.962
92340W        W64688   9.856   4.320  12.026
92341W        W64689  37.079  15.289   0.409
92342W        W64690  11.710  41.827  14.027
92343W        W64691   8.821   3.331   2.324
92344W        W64692   5.349  32.139   3.767
92345W        W64693  19.100  12.140   3.728
92346W        W64694  31.951  36.557   2.237
92347W        W64695  40.947  10.697   3.673
92348W        W64696  34.007  12.178   0.902
92349W        W64697  43.455  36.014   4.333
92350W        W64698  37.926  18.567   4.607
92351W        W64699  18.232   4.787  12.452
92352W        W64700  20.691   8.748   0.296
92353W        W64701  41.325  31.129  13.821
92354W        W64702   2.828  31.630   1.713
92355W        W64703   4.322  35.925   0.778
92356W        W64704  29.667  10.717   1.219
92357W        W64705  20.112  22.145   1.285
92358W        W64706   3.386  27.562  13.456
92359W        W64707  32.634  23.119  14.450
92360W        W64708  16.575  24.610  12.533
92361W        W64709   5.751  40.443   2.748
92362W        W64710   4.803  33.020  11.989
92363W        W64711  40.382  38.389   1.369
92364W        W64712   3.418  18.155   1.927
92365W        W64713  17.225   4.847   5.290
92366W        W64714   6.906  13.828   3.764
92367W        W64715  29.954  26.090   3.678
92368W        W64716  26.675  39.877   3.208
92369W        W64717   9.860  21.054  11.404
92370W        W64718  20.113  39.438   0.867
92371W        W64719  14.294  31.053  10.918
92372W        W64720   8.803  40.012  11.597
92373W        W64721  14.607   9.856   4.298
92374W        W64722  12.723  30.613  13.447
92375W        W64723  31.456   4.396   3.175
92376W        W64724  31.548  14.096  10.534
92377W        W64725  14.218  44.429  14.964
92378W        W64726  31.548  34.946  11.455
92379W        W64727  27.080  17.104  13.520
92380W        W64728   1.403   9.669  11.395
92381W        W64729  30.515  22.070   0.967
92382W        W64730  34.505   9.747  14.800
92383W        W64731  23.240   6.692  13.831
92384W        W64732  41.944  14.799   2.208
92385W        W64733  21.113  27.642   4.270
92386W        W64734  12.347   8.160  13.996
92387W        W64735  13.157  34.557  11.545
92388W        W64736   3.950   5.432   1.402
92389W        W64737   3.413  30.570  13.391
92390W        W64738  17.070   2.265  12.084
92391W        W64739  36.458  27.992   1.260
92392W        W64740  30.146  17.736   1.752
92393W        W64741  20.649  33.950  14.947
92394W        W64742  36.091   3.308  10.920
92395W        W64743  20.667  33.544   2.762
92396W        W64744  25.002  23.019   0.924
92397W        W64745   8.216  27.161   3.719
92398W        W64746  28.120  18.233  10.992
92399W        W64747  17.635  36.416  12.428
92400W        W64748  24.148   6.375  11.483
92401W        W64749  13.283  36.363  13.398
92402W        W64750  35.405   1.457   0.271
92403W        W64751  43.973  29.442  13.807
92404W        W64752  35.996  27.014   0.876
92405W        W64753  23.491  30.076  11.444
92406W        W64754  31.077  11.759  13.954
92407W        W64755  25.127  16.208   4.639
92408W        W64756  17.714  41.997   4.158
92409W        W64757  38.860  21.059  12.579
92410W        W64758  34.012  21.035  14.327
92411W        W64759   5.754  32.599  11.984
92412W        W64760   2.849   1.957  11.437
92413W        W64761   5.689   2.875   4.132
92414W        W64762  12.175  41.297  10.895
92415W        W64763  14.331   8.768   4.347
92416W        W64764  28.934  19.165   2.324
92417W        W64765  36.006  18.237  11.459
92418W        W64766  19.669   3.434   0.467
92419W        W64767  15.208  21.245   0.941
92420W        W64768  27.644  27.117  12.385
92421W        W64769  32.541  33.048   3.379
92422W        W64770  40.543  43.790  10.630
92423W        W64771   0.873  43.850  12.985
92424W        W64772  39.392   4.292   2.186
92425W        W64773  35.086  18.654  12.516
92426W        W64774   6.246  35.952  13.811
92427W        W64775  24.172  32.481   2.879
92428W        W64776  14.768  41.923  14.809
92429W        W64777   8.167   2.361   0.761
92430W        W64778   0.444   9.792  12.011
92431W        W64779   4.943   5.432   1.710
92432W        W64780  19.670  31.410  13.935
92433W        W64781   9.746  22.726   2.693
92434W        W64782  39.872  44.795  13.486
92435W        W64783  16.232  14.327  12.361
92436W        W64784  44.378   9.232   2.794
92437W        W64785   2.837  15.186   0.856
92438W        W64786  15.748  14.283   2.798
92439W        W64787  18.574   3.718   0.843
92440W        W64788   5.253  28.033   4.830
92441W        W64789   5.372   4.904   2.889
92442W        W64790  41.535  34.079  14.474
92443W        W64791  41.808  28.997  13.863
92444W        W64792   0.889  22.037  13.349
92445W        W64793   7.236  22.055   0.458
92446W        W64794  37.855  24.653   4.167
92447W        W64795  12.292   9.687   3.752
92448W        W64796   9.801   0.485  10.491
92449W        W64797   1.884  26.103   3.182
92450W        W64798  41.367  28.997  11.033
92451W        W64799   7.807  17.669  14.362
92452W        W64800  31.980  42.288  10.946
92453W        W64801  26.966   7.417   0.844
92454W        W64802   5.923  18.553  14.915
92455W        W64803  17.595  28.167  12.015
92456W        W64804  23.519  33.620  12.874
92457W        W64805  17.212   4.246  14.503
92458W        W64806   1.479  32.451   3.772
92459W        W64807  38.072   3.713   5.239
92460W        W64808  27.038  27.491  12.358
92461W        W64809  36.934  16.719  14.371
92462W        W64810  40.846  29.606  11.992
92463W        W64811  16.678  25.603   3.769
92464W        W64812  33.392   8.852   2.269
92465W        W64813   8.720   0.473   1.436
92466W        W64814  25.542  20.587  11.553
92467W        W64815  38.936  36.397  13.873
92468W        W64816   3.894  17.752   2.700
92469W        W64817  33.585  21.122  11.564
92470W        W64818   5.384  31.425  12.859
92471W        W64819  15.142  25.521  13.937
92472W        W64820  13.717  30.441   4.263
92473W        W64821   6.230  43.290   4.118
92474W        W64822  16.619  33.066  12.472
92475W        W64823  31.640  41.994  14.789
92476W        W64824   6.411  36.041   1.291
92477W        W64825  44.288  31.029  11.109
92478W        W64826  43.498  23.573  10.096
92479W        W64827  30.113  38.328   3.235
92480W        W64828  42.497   8.376   1.904
92481W        W64829  29.589  41.026  12.490
92482W        W64830  35.852  44.407  12.911
92483W        W64831  41.325   5.342   4.277
92484W        W64832  14.295   4.822   0.876
92485W        W64833  33.027  36.566  13.988
92486W        W64834   7.848   4.258  13.407
92487W        W64835  22.242   1.450   4.182
92488W        W64836  40.906   2.838  14.443
92489W        W64837  32.567  11.629  13.930
92490W        W64838  25.179  29.591  13.400
92491W        W64839   0.371  16.650  11.402
92492W        W64840  17.605  42.867  10.475
92493W        W64841   7.891  28.491   3.248
92494W        W64842  14.297  12.625   9.606
92495W        W64843  43.871  15.284   4.230
92496W        W64844  15.581  13.627   1.222
92497W        W64845  44.416  15.242  12.378
92498W        W64846  12.640  13.311  11.013
92499W        W64847  17.586  38.485  13.518
92500W        W64848  21.163   1.437  13.408
92501W        W64849   0.273   3.259  11.421
92502W        W64850  30.459   2.933   2.397
92503W        W64851  28.056  30.930   3.355
92504W        W64852  37.453  30.150  12.879
92505W        W64853  37.927  43.951  11.551
92506W        W64854   2.780  44.904   2.836
92507W        W64855  32.496  18.260  14.387
92508W        W64856  22.731  17.587   1.852
92509W        W64857  12.240  14.614  14.372
92510W        W64858   8.248  20.249  11.570
92511W        W64859  28.559  13.681  12.362
92512W        W64860  10.238  24.578  10.476
92513W        W64861  13.652  31.629  12.081
92514W        W64862   5.714  43.328  10.484
92515W        W64863   6.218  38.896  12.484
92516W        W64864  31.979  21.037  13.393
92517W        W64865  12.296  13.706   1.765
92518W        W64866  18.285   6.275   0.434
92519W        W64867  30.559   0.911   1.743
92520W        W64868  32.423   8.779  14.833
92521W        W64869  22.199  35.072  10.483
92522W        W64870  16.087  36.497   0.312
92523W        W64871  28.171  40.883   3.186
92524W        W64872   1.806  29.423  12.999
92525W        W64873  20.570   9.823  14.459
92526W        W64874  25.020  37.379   4.763
92527W        W64875  27.186   5.224  12.023
92528W        W64876  30.433  41.010  14.401
92529W        W64877  29.488  26.559  13.050
92530W        W64878  40.514  34.527  13.529
92531W        W64879  37.886  44.992   3.296
92532W        W64880  13.164  24.603   1.367
92533W        W64881  41.853  39.950  11.377
92534W        W64882  30.633  18.212   3.655
92535W        W64883  10.827  25.606  10.980
92536W        W64884  36.380  38.381  14.768
92537W        W64885   5.358  15.313   4.801
92538W        W64886  29.982  37.024   0.818
92539W        W64887   7.330  25.692  10.978
92540W        W64888  14.640  10.173  10.485
92541W        W64889  25.032  16.316  10.489
92542W        W64890   2.266  25.556   4.199
92543W        W64891  15.271  23.164   0.395
92544W        W64892  15.782  29.582   3.783
92545W        W64893  26.113  40.307   3.285
92546W        W64894  22.635  16.204   4.761
92547W        W64895   3.356  18.093  11.576
92548W        W64896  25.070  40.939  14.808
92549W        W64897  29.099   5.860  12.426
92550W        W64898  15.691  24.543  11.544
92551W        W64899  21.656   1.276   2.900
92552W        W64900   8.385  23.226  10.967
92553W        W64901  40.924  28.676   3.651
92554W        W64902  28.993   6.775   3.147
92555W        W64903  18.269  42.452  14.334
92556W        W64904  29.609  18.717  14.910
92557W        W64905  35.082  25.190   0.306
92558W        W64906  14.705  35.401   4.635
92559W        W64907   9.786  20.127  14.472
92560W        W64908  22.119  10.356   0.267
92561W        W64909  10.802   5.925   1.893
92562W        W64910  34.976  27.673  10.995
92563W        W64911  10.704  12.650  10.624
92564W        W64912   4.891  16.203  10.643
92565W        W64913   4.427   5.869  11.123
92566W        W64914  24.090  42.284   1.883
92567W        W64915  36.428  33.040   2.291
92568W        W64916  13.687   9.802  13.927
92569W        W64917  19.581  30.123   2.344
92570W        W64918  29.993  34.967   3.647
92571W        W64919   5.728  39.503  12.914
92572W        W64920  30.512  19.070   2.219
92573W        W64921  43.977  13.211  14.513
92574W        W64922  20.693  20.176  12.003
92575W        W64923  36.923  30.641   3.281
92576W        W64924  25.032  21.621   0.947
92577W        W64925  29.095  22.588   1.339
92578W        W64926  27.966  24.593  10.895
92579W        W64927  10.241  20.255  10.442
92580W        W64928  14.763  40.338   4.639
92581W        W64929  44.370  41.970   0.349
92582W        W64930  27.636   3.907   3.158
92583W        W64931  28.171  32.614   3.175
92584W        W64932   9.232  26.971   2.197
92585W        W64933   5.264   1.240  13.848
92586W        W64934  18.653  28.520   4.156
92587W        W64935  20.132  25.996  14.977
92588W        W64936   6.204   8.211  13.443
92589W        W64937  33.501  15.663   0.940
92590W        W64938  10.297  25.646  14.947
92591W        W64939  10.173   7.824  13.940
92592W        W64940   9.648  17.637   3.798
92593W        W64941  44.006  34.028   3.854
92594W        W64942  39.889  14.730  13.308
92595W        W64943  26.168  33.494   3.838
92596W        W64944  44.311   4.247  10.035
92597W        W64945   6.761  10.203  12.541
92598W        W64946   1.786  14.262   5.222
92599W        W64947   8.715  13.801  12.061
92600W        W64948   3.786   0.467   0.947
92601W        W64949  32.446  31.633  13.484
92602W        W64950   7.693  26.176   1.856
92603W        W64951  27.986  38.840   2.800
92604W        W64952  36.028  29.519  14.908
92605W        W64953  31.151  20.723  12.419
92606W        W64954   5.244   3.454  11.903
92607W        W64955   9.184  29.636   2.870
92608W        W64956   9.166  30.573   0.934
92609W        W64957   3.872   6.728  13.815
92610W        W64958  42.514   4.449   1.346
92611W        W64959  40.945  29.028  12.058
92612W        W64960  18.154  41.815  14.279
92613W        W64961  25.104   1.903   4.333
92614W        W64962  19.689   9.307  14.306
92615W        W64963   4.753  17.630   0.862
92616W        W64964  31.543  28.977  11.951
92617W        W64965  18.160  10.292   1.259
92618W        W64966   5.437  22.047  10.559
92619W        W64967  34.058  35.907   5.686
92620W        W64968  14.123  17.091   3.771
92621W        W64969  35.483  11.668  11.532
92622W        W64970   4.338  25.173   0.837
92623W        W64971  12.312  24.133  12.048
92624W        W64972  15.244  30.149  12.458
92625W        W64973  44.829  14.821  10.561
92626W        W64974  29.109  11.625   2.819
92627W        W64975  19.773   1.315   1.245
92628W        W64976  16.256  14.223   1.417
92629W        W64977  15.782  28.633  13.892
92630W        W64978   2.798   8.749  12.083
92631W        W64979  17.168  12.317   1.806
92632W        W64980   9.645   7.389  14.027
92633W        W64981   6.788   3.456  14.922
92634W        W64982  24.684   1.324  11.474
92635W        W64983  14.706   4.896   4.140
92636W        W64984  14.824  43.919  10.930
92637W        W64985  21.602  41.522   4.158
92638W        W64986   3.305  20.250   4.122
92639W        W64987  11.217  37.386   2.823
92640W        W64988  43.281  22.637  10.513
92641W        W64989  38.842  37.978   3.337
92642W        W64990   6.853  20.701  14.495
92643W        W64991  39.005  20.534   4.730
92644W        W64992  13.209   3.867  10.961
92645W        W64993  30.520  42.388   0.339
92646W        W64994  20.701   2.917  11.917
92647W        W64995   6.387  41.956  14.819
92648W        W64996  26.550  22.038  11.430
92649W        W64997   5.218  26.481  11.453
92650W        W64998  20.113  44.342   4.629
92651W        W64999   7.912  37.071   3.796
92652W        W65000   1.407  10.762  14.925
92653W        W65001  17.628  21.099  14.367
92654W        W65002   3.789  29.097   3.754
92655W        W65003   8.367  33.085  14.481
92656W        W65004  27.607  42.786   4.743
92657W        W65005  23.195  41.406   4.675
92658W        W65006  23.575   9.317  11.519
92659W        W65007  22.099  26.664  11.050
92660W        W65008  26.525  18.566  11.946
92661W        W65009  24.136   0.441  14.337
92662W        W65010  24.213  19.648  11.508
92663W        W65011  30.963  26.988   4.327
92664W        W65012  41.521  15.252  11.575
92665W        W65013  22.613   4.291   2.301
92666W        W65014   9.291   1.389  10.546
92667W        W65015   0.380  43.828   0.737
92668W        W65016  23.109  35.513   4.243
92669W        W65017   0.840   2.748  12.924
92670W        W65018  26.978   8.899   3.751
92671W        W65019  41.821  41.902   2.308
92672W        W65020  42.487   7.755   0.393
92673W        W65021  22.195  34.435  11.576
92674W        W65022  14.117  16.149  11.007
92675W        W65023  29.031   8.382  11.440
92676W        W65024  16.791  21.181  14.863
92677W        W65025   4.264   4.394  10.453
92678W        W65026  30.110   5.388   4.309
92679W        W65027  22.173  29.112   1.708
92680W        W65028   0.309  16.248  13.925
92681W        W65029  43.348  32.612   0.950
92682W        W65030  18.051  10.707   0.887
92683W        W65031  38.819   4.326  11.951
92684W        W65032  27.493   0.280  11.082
92685W        W65033  13.222  14.791  11.052
92686W        W65034  24.616  38.990  13.990
92687W        W65035  25.044  41.538   2.380
92688W        W65036  20.552  24.088   3.270
92689W        W65037  30.578   6.738   3.834
92690W        W65038  44.308  27.069   2.377
92691W        W65039  16.671  12.298   5.806
92692W        W65040   1.871  35.495  13.833
92693W        W65041  30.931   6.350  14.327
92694W        W65042  31.021   6.706   4.809
92695W        W65043  43.869  14.749   4.605
92696W        W65044   6.791  30.602   0.303
92697W        W65045  33.488  35.950   2.731
92698W        W65046  26.539   2.296  14.891
92699W        W65047  32.003  26.603   3.178
92700W        W65048   0.485  24.500   4.300
92701W        W65049  26.127  20.559  14.910
92702W        W65050   8.261  15.153   1.894
92703W        W65051  25.547  22.706  12.487
92704W        W65052  43.405   7.669  12.855
92705W        W65053  36.994  11.640   4.746
92706W        W65054  42.851  44.285  10.951
92707W        W65055  16.719  24.103   2.348
92708W        W65056   0.750   7.345  11.059
92709W        W65057   3.766  13.170  10.950
92710W        W65058  29.612   5.232  13.347
92711W        W65059   7.872  44.980   1.811
92712W        W65060  29.526  25.992   3.702
92713W        W65061  23.583  33.132  13.027
92714W        W65062  22.540   9.184  13.500
92715W        W65063  33.047   1.290   2.667
92716W        W65064  42.328   3.877   0.769
92717W        W65065   7.289   7.694   0.729
92718W        W65066  28.937  44.280  13.870
92719W        W65067   5.895  14.779   4.339
92720W        W65068   2.809  43.464   0.316
92721W        W65069  26.208  19.541   0.917
92722W        W65070  23.686  14.195   1.702
92723W        W65071  15.289   6.841  14.006
92724W        W65072  20.685  33.028   4.736
92725W        W65073  27.563  42.024   2.748
92726W        W65074  31.126   7.340   3.186
92727W        W65075  10.366  13.266  10.898
92728W        W65076  42.394   4.281  11.065
92729W        W65077   9.869  26.568   4.622
92730W        W65078  12.733  17.148  13.909
92731W        W65079  37.903  23.703   2.281
92732W        W65080  42.870  13.617  11.384
92733W        W65081  37.008  38.037   2.191
92734W        W65082   9.163  16.123   0.395
92735W        W65083  18.610  29.608   4.218
92736W        W65084  37.986  18.760  10.907
92737W        W65085  23.992   2.895   4.626
92738W        W65086   9.369  34.482   3.296
92739W        W65087  19.557  18.684  13.481
92740W        W65088   2.723   8.239   0.806
92741W        W65089   2.363   6.769  13.861
92742W        W65090  13.140  38.003  10.436
92743W        W65091  27.525  42.387   3.326
92744W        W65092  12.305  43.343   2.747
92745W        W65093  24.186  11.249   2.874
92746W        W65094  25.980  23.208   4.739
92747W        W65095  38.053  42.930  10.635
92748W        W65096  42.317  15.280   2.225
92749W        W65097  20.086  13.775   0.273
92750W        W65098  30.986  21.570  11.554
92751W        W65099  25.048  19.601  12.424
92752W        W65100  28.528   3.827  11.572
92753W        W65101   5.921   1.928   1.245
92754W        W65102  12.126  29.142  11.589
92755W        W65103  27.614  25.202  13.428
92756W        W65104   0.396  44.929  12.094
92757W        W65105   1.934  26.969  13.485
92758W        W65106  32.935   3.403   1.712
92759W        W65107  44.390  42.490  10.622
92760W        W65108   7.772  27.988  11.456
92761W        W65109   4.431  30.002  13.536
92762W        W65110   9.798   7.895   4.195
92763W        W65111  24.105  18.788  11.577
92764W        W65112  16.183  17.638  14.899
92765W        W65113  11.624  43.487  12.894
92766W        W65114  43.419  42.458  11.926
92767W        W65115  44.790  43.396   4.729
92768W        W65116   0.489  32.615  13.350
92769W        W65117  19.186  27.141   4.349
92770W        W65118   6.253   7.346   0.880
92771W        W65119  39.441   3.265  13.064
92772W        W65120  23.685   6.789   3.748
92773W        W65121   4.863  28.106   9.949
92774W        W65122  18.050  25.576  13.890
92775W        W65123   7.379   3.930  12.957
92776W        W65124  17.712   0.410   3.173
92777W        W65125  25.522  13.635   3.250
92778W        W65126  25.057  19.157   0.834
92779W        W65127  42.392  37.494  13.905
92780W        W65128  18.158  18.182  10.914
92781W        W65129  16.704  26.198  13.850
92782W        W65130  18.729  17.573  13.407
92783W        W65131   9.297  20.666   1.764
92784W        W65132   6.821   9.281  10.475
92785W        W65133   0.847  27.030  13.810
92786W        W65134  18.736   7.247  13.916
92787W        W65135  37.509  40.982  11.536
92788W        W65136   8.761  44.912   3.750
92789W        W65137   6.786  25.035  13.813
92790W        W65138  41.912  30.955   0.306
92791W        W65139  10.356   7.722   2.320
92792W        W65140  40.007  21.198  13.351
92793W        W65141  33.458   3.954  13.371
92794W        W65142   3.256  43.976  12.365
92795W        W65143  33.522   0.764  13.884
92796W        W65144  19.220  23.502   0.961
92797W        W65145  21.635  15.320   2.331
92798W        W65146  12.271  34.049   4.223
92799W        W65147  29.990   3.419   1.243
92800W        W65148  15.129   5.747   0.936
92801W        W65149  42.982   1.359  14.765
92802W        W65150  30.131   9.214   0.399
92803W        W65151  20.086  30.627   0.828
92804W        W65152  31.099  42.860  12.420
92805W        W65153   9.694  22.023  12.015
92806W        W65154  28.656  37.842   2.411
92807W        W65155  28.038  13.300   3.847
92808W        W65156   8.750  41.463   3.235
92809W        W65157  43.377  16.310  12.398
92810W        W65158  33.024  36.846  12.922
92811W        W65159  17.221  20.084   0.945
92812W        W65160  23.489   7.357  13.998
92813W        W65161  11.187   1.240   0.450
92814W        W65162  19.127  39.038   3.296
92815W        W65163  10.773   3.750   1.418
92816W        W65164  11.348   2.405   0.920
92817W        W65165  21.209   1.741  10.941
92818W        W65166   0.794  18.691   0.880
92819W        W65167  17.762  14.314  14.003
92820W        W65168  33.006  23.189  12.961
92821W        W65169  32.625  24.543   2.280
92822W        W65170   8.275  26.979  14.337
92823W        W65171  12.138  24.140  13.369
92824W        W65172  29.619  26.988  14.921
92825W        W65173  37.957   6.762  14.305
92826W        W65174   7.817   7.770  14.281
92827W        W65175   0.337   5.875   0.359
92828W        W65176   0.967  42.787   4.246
92829W        W65177  41.410  17.090  10.407
92830W        W65178  23.056   2.318   1.895
92831W        W65179  26.148  23.618  14.400
92832W        W65180  12.765  42.824   0.423
92833W        W65181   2.294   1.783  12.998
92834W        W65182   1.294  26.530  12.040
92835W        W65183  16.205  10.327   2.740
92836W        W65184  21.051  12.838   4.214
92837W        W65185  24.566   0.376   4.116
92838W        W65186  21.068  39.058   1.824
92839W        W65187  14.226  23.586   4.652
92840W        W65188   5.287  12.725  13.454
92841W        W65189  24.587  16.112  11.069
92842W        W65190  11.161  28.047  10.593
92843W        W65191  11.742  20.091  13.357
92844W        W65192   6.363  16.265   3.855
92845W        W65193   0.910   9.392   2.809
92846W        W65194  13.128  36.067   0.372
92847W        W65195  38.076  25.551   1.804
92848W        W65196  36.496   9.231  12.975
92849W        W65197  41.372   8.875   1.223
92850W        W65198   3.460  16.734  12.558
92851W        W65199   6.271  22.598  11.855
92852W        W65200  15.132  16.198  10.994
92853W        W65201  18.729   6.838  14.876
92854W        W65202  30.108  22.717  11.417
92855W        W65203   5.265  35.969   0.392
92856W        W65204  12.203  41.517  14.366
92857W        W65205  33.971   5.267   3.213
92858W        W65206  18.581  27.564  14.297
92859W        W65207   1.375  42.370  12.536
92860W        W65208   4.233  13.837   3.817
92861W        W65209  36.064  25.991  14.432
92862W        W65210  37.034  22.120   9.973
92863W        W65211  39.809  30.642  14.948
92864W        W65212  25.487   2.814  14.454
92865W        W65213   8.381  29.926   5.122
92866W        W65214  37.958  33.975   3.802
92867W        W65215   0.361  31.115   3.354
92868W        W65216   9.723   9.679  11.898
92869W        W65217  30.080  27.483   1.789
92870W        W65218  18.203  43.415  10.636
92871W        W65219  43.384  41.853   4.616
92872W        W65220  32.090  11.859  11.966
92873W        W65221  29.431  35.930   2.306
92874W        W65222  10.266  42.914   0.447
92875W        W65223   8.788  19.093   0.790
92876W        W65224   2.863  37.843   4.824
92877W        W65225  32.999  42.779   4.769
92878W        W65226  24.583  35.414  13.943
92879W        W65227  38.062  16.625  13.417
92880W        W65228  22.536  17.072   2.878
92881W        W65229  35.535  38.498   0.282
92882W        W65230  22.122  28.582  12.941
92883W        W65231  29.570  20.209  11.005
92884W        W65232  31.142   6.893  12.476
92885W        W65233  37.027  23.165   3.373
92886W        W65234  13.715  31.637   2.883
92887W        W65235  26.500  42.960   1.729
92888W        W65236  25.107  16.633   0.347
92889W        W65237  12.839  16.075  11.857
92890W        W65238   9.675  15.636  14.899
92891W        W65239   1.829  31.445   2.392
92892W        W65240  14.231  26.067  13.510
92893W        W65241   5.328   1.477   0.462
92894W        W65242  29.146  33.470  12.987
92895W        W65243   8.698  25.029   2.705
92896W        W65244  23.996   1.826  10.964
92897W        W65245   7.261  20.120   2.788
92898W        W65246   9.230  38.538   1.893
92899W        W65247  17.189  18.669   2.274
92900W        W65248  36.865  24.149   3.157
92901W        W65249   4.231  10.223  11.977
92902W        W65250  44.862  12.298   2.257
92903W        W65251  28.983  17.128   4.809
92904W        W65252  32.894  24.017  12.568
92905W        W65253  28.620   6.326   1.812
92906W        W65254   1.334  26.701   2.280
92907W        W65255  43.944  36.051  12.022
92908W        W65256   4.285  15.752   1.777
92909W        W65257  28.088   0.330   2.692
92910W        W65258  26.062  14.803  11.469
92911W        W65259  42.961   1.250  14.415
92912W        W65260   2.954  43.430   3.305
92913W        W65261  28.106   0.490  12.502
92914W        W65262   5.373  14.775   2.199
92915W        W65263  10.289  17.576  11.071
92916W        W65264  22.709   1.331   2.740
92917W        W65265  36.524  13.782  12.977
92918W        W65266  30.063  14.160  11.439
92919W        W65267   0.268  18.619   4.330
92920W        W65268  22.110  34.389  11.903
92921W        W65269   6.772  30.602   4.706
92922W        W65270   5.212  37.578   1.397
92923W        W65271   1.820   3.240  14.020
92924W        W65272  12.118  37.010  12.902
92925W        W65273  21.126  12.274  12.456
92926W        W65274  41.924  35.061  13.822
92927W        W65275  40.520  41.295   0.276
92928W        W65276  14.242  41.944  10.547
92929W        W65277  17.178  39.839  14.971
92930W        W65278  41.448  24.138   0.385
92931W        W65279   7.295  30.093  13.996
92932W        W65280  42.815  38.973   4.217
92933W        W65281  37.339  15.292   2.192
92934W        W65282  10.236  35.422   3.673
92935W        W65283  15.127  12.650  13.349
92936W        W65284  36.935  10.697   3.737
92937W        W65285  37.386   8.365   2.671
92938W        W65286   7.875  35.066  13.959
92939W        W65287  18.082  21.534  14.817
92940W        W65288  28.534  24.584   3.635
92941W        W65289  32.566  17.155  10.643
92942W        W65290  10.359  11.364   3.200
92943W        W65291  30.067  33.056   2.714
92944W        W65292  14.303  15.791   2.767
92945W        W65293  40.916   1.791  11.555
92946W        W65294  14.206   0.301  10.147
92947W        W65295  14.830  13.841   1.417
92948W        W65296  38.891  36.942   2.706
92949W        W65297   8.280  10.370  10.140
92950W        W65298  25.643  16.101   3.847
92951W        W65299  24.174   4.700   1.384
92952W        W65300  23.547  18.072  10.555
92953W        W65301  13.794  13.610  13.962
92954W        W65302  20.741  13.619   2.741
92955W        W65303  43.018  25.468   4.727
92956W        W65304  11.715  14.292  10.549
92957W        W65305  37.899   4.875   2.277
92958W        W65306  43.346  34.949  11.401
92959W        W65307  26.600  24.532   4.640
92960W        W65308  24.211  40.996  13.310
92961W        W65309  42.884  18.186  10.563
92962W        W65310  32.118  40.450   1.876
92963W        W65311  27.080  23.517   4.351
92964W        W65312   4.216  38.490  12.005
92965W        W65313  21.151  33.430   1.878
92966W        W65314  17.771  40.310   3.384
92967W        W65315  16.628   0.463   4.171
92968W        W65316   4.353  13.234  12.430
92969W        W65317  14.290  21.202  12.936
92970W        W65318  19.586  36.450   0.735
92971W        W65319   3.340  24.564   4.616
92972W        W65320  12.803  41.474   4.611
92973W        W65321   7.314  26.094  11.018
92974W        W65322  37.355   3.897   3.365
92975W        W65323   5.312  42.960   0.874
92976W        W65324   3.411  44.406   3.768
92977W        W65325  44.298  44.441   0.309
92978W        W65326  33.063  25.484  12.508
92979W        W65327   3.375  41.829  11.609
92980W        W65328  17.797  40.344   1.808
92981W        W65329  17.644  15.300  13.352
92982W        W65330  32.016   8.295   4.259
92983W        W65331   0.976   0.913  11.481
92984W        W65332   5.419  43.426   0.418
92985W        W65333  42.317  42.347   0.783
92986W        W65334  13.165  38.359  13.866
92987W        W65335  24.614  19.255  13.896
92988W        W65336  34.019  29.564  13.799
92989W        W65337   6.293  14.660  13.966
92990W        W65338  37.528  25.662  13.051
92991W        W65339  39.554  44.988   1.284
92992W        W65340   1.865  16.182  12.483
92993W        W65341  28.009  17.079   4.135
92994W        W65342  10.365   4.236  13.869
92995W        W65343  28.566  37.846   3.284
92996W        W65344   3.346   8.875  13.536
92997W        W65345  13.694  19.730   0.787
92998W        W65346  37.878  14.161   2.306
92999W        W65347  13.674  12.196  13.518
93000W        W65348  14.806  31.984   0.918
93001W        W65349  35.881  23.984  11.529
93002W        W65350  17.755  43.987   4.635
93003W        W65351  38.065   2.404   2.862
93004W        W65352  32.116  23.572   0.481
93005W        W65353  39.396   2.851   4.755
93006W        W65354   4.925  25.585   1.327
93007W        W65355   2.900  22.222  13.371
93008W        W65356   4.780  21.185   0.742
93009W        W65357  35.089  10.301   4.205
93010W        W65358   7.718   1.936   0.945
93011W        W65359  22.073  36.920  13.435
93012W        W65360  29.558  25.500  12.977
93013W        W65361   6.373  21.090  13.030
93014W        W65362  28.141   4.902   0.286
93015W        W65363   5.853  13.192  13.952
93016W        W65364  19.190  31.608  11.951
93017W        W65365  22.656   5.829  11.056
93018W        W65366   1.893   9.661  11.908
93019W        W65367  10.354  19.088   1.216
93020W        W65368   8.806   1.867   3.703
93021W        W65369  20.090  36.088  11.509
93022W        W65370  40.421  27.616  13.824
93023W        W65371   6.723   5.929  13.025
93024W        W65372  41.461   3.304  10.616
93025W        W65373   7.799   6.732  14.303
93026W        W65374   0.273  38.503   2.754
93027W        W65375  13.759   1.435  13.499
93028W        W65376  15.313  31.083  12.958
93029W        W65377  32.949  39.380   1.229
93030W        W65378  37.572  36.574   0.756
93031W        W65379   9.825  19.164  10.066
93032W        W65380  41.907  33.589   2.365
93033W        W65381   2.799  12.201  13.982
93034W        W65382   7.688  21.555  14.904
93035W        W65383  30.599   2.284  11.868
93036W        W65384  28.670   0.443   1.314
93037W        W65385   5.919  40.324   0.428
93038W        W65386  38.461   5.688   4.838
93039W        W65387  44.349  14.814  10.963
93040W        W65388   8.245  42.851  14.819
93041W        W65389  43.976  16.605  11.932
93042W        W65390  39.870  44.492  10.516
93043W        W65391  22.603  13.194  11.878
93044W        W65392  34.391  35.358   4.713
93045W        W65393  20.147  12.201   2.730
93046W        W65394  41.023   5.699  11.589
93047W        W65395   5.864  44.404  11.873
93048W        W65396  38.390   6.692   2.713
93049W        W65397  32.505   2.360   0.743
93050W        W65398   8.271  19.596  14.400
93051W        W65399  33.383  28.183   4.684
93052W        W65400  44.794  31.917   4.293
93053W        W65401  32.053  18.618  13.052
93054W        W65402  35.873  37.361   2.706
93055W        W65403  43.436  27.110   2.740
93056W        W65404   6.876  40.331  11.467
93057W        W65405  20.125  31.406   1.258
93058W        W65406  35.419  26.645   2.320
93059W        W65407  44.852  30.002   3.702
93060W        W65408  32.915  35.951   4.306
93061W        W65409  32.084  27.607  10.932
93062W        W65410   4.765   4.327  14.881
93063W        W65411  31.536  38.065  11.475
93064W        W65412  44.325  31.426   3.792
93065W        W65413   3.723  38.568  10.518
93066W        W65414  12.791  33.405   2.294
93067W        W65415  38.499  38.040   2.265
93068W        W65416  34.049  35.418  14.371
93069W        W65417  39.931  35.463  10.446
93070W        W65418  43.512  18.546  14.340
93071W        W65419  35.989  27.594   1.260
93072W        W65420  43.435  23.033  11.899
93073W        W65421   1.856   9.864  12.465
93074W        W65422   5.891  34.904   2.383
93075W        W65423   3.932   2.757   1.389
93076W        W65424   8.270  10.667   3.179
93077W        W65425  18.197  40.960   0.827
93078W        W65426  35.558  10.307  12.568
93079W        W65427   8.286  31.927  13.413
93080W        W65428  12.239  26.080  14.947
93081W        W65429   6.266  25.519  12.008
93082W        W65430  39.336  25.197  12.973
93083W        W65431  39.820  27.516  13.919
93084W        W65432   4.815  34.043   0.917
93085W        W65433  14.279   4.831   1.929
93086W        W65434  23.075  13.133   1.834
93087W        W65435   1.822  33.091   4.635
93088W        W65436  10.312  41.879   1.832
93089W        W65437   0.475  25.632  12.953
93090W        W65438   6.910  44.904  11.447
93091W        W65439   7.342  41.795  11.599
93092W        W65440  41.011  15.298   4.746
93093W        W65441   3.319  37.407   1.429
93094W        W65442  10.257  23.580   0.325
93095W        W65443  21.679   7.786  11.381
93096W        W65444  30.436  20.256   2.870
93097W        W65445   6.207   4.267  14.823
93098W        W65446  26.159  10.204   3.209
93099W        W65447  17.245   7.741  12.880
93100W        W65448  41.508  41.969   3.644
93101W        W65449  39.845  34.099  13.956
93102W        W65450   0.248  34.081  12.402
93103W        W65451  20.221  37.993   0.347
93104W        W65452  43.995  30.132  13.920
93105W        W65453  30.471  32.023  14.410
93106W        W65454   0.449  11.209  13.454
93107W        W65455  28.065  32.893   0.245
93108W        W65456  40.331   6.759  11.481
93109W        W65457  38.948  15.130   2.756
93110W        W65458  34.390  25.636  12.405
93111W        W65459  31.068   1.834   2.250
93112W        W65460  34.524  11.164   3.218
93113W        W65461   5.240   1.359  11.608
93114W        W65462  28.541   8.720   4.706
93115W        W65463  30.442  23.060  10.469
93116W        W65464  20.695  14.134  10.600
93117W        W65465  23.082   0.263   4.175
93118W        W65466  19.088  17.667   1.360
93119W        W65467  13.640  40.312   0.339
93120W        W65468  43.956  16.661   0.354
93121W        W65469   3.879  30.568   1.757
93122W        W65470  19.597  34.591  11.607
93123W        W65471  31.458   8.202  10.567
93124W        W65472  11.671  11.347  12.458
93125W        W65473   3.220   4.340  10.493
93126W        W65474  27.681  41.513  11.570
93127W        W65475  36.003  22.142  11.057
93128W        W65476  29.467   6.914   1.302
93129W        W65477  14.597  27.504   0.820
93130W        W65478  29.453   5.432   0.757
93131W        W65479  34.037   5.857   3.644
93132W        W65480  28.523  23.659  10.627
93133W        W65481   4.908   5.730  11.554
93134W        W65482  15.230  44.286  14.381
93135W        W65483  34.911  19.544  11.044
93136W        W65484  11.265  22.248   3.768
93137W        W65485  13.768   9.234   0.841
93138W        W65486  36.478  44.454   1.715
93139W        W65487  26.680  39.436  14.352
93140W        W65488  11.296  37.036   2.222
93141W        W65489  15.658  17.110   2.288
93142W        W65490  42.905   6.284  12.917
93143W        W65491   9.755  19.631  12.576
93144W        W65492  41.975  35.423   1.325
93145W        W65493  34.009  31.002   2.779
93146W        W65494  32.116  26.538  14.847
93147W        W65495  36.382  10.214   0.356
93148W        W65496  43.281   9.347  12.026
93149W        W65497   4.734   4.402   2.412
93150W        W65498  38.328   3.248   0.330
93151W        W65499   8.191  34.389  11.032
93152W        W65500   1.884   7.311   2.339
93153W        W65501  33.130  17.728   0.383
93154W        W65502   1.772  44.427   2.801
93155W        W65503  20.668   1.394  13.895
93156W        W65504  24.560  28.018  10.567
93157W        W65505  17.564   9.643   1.447
93158W        W65506  41.008  29.937   3.199
93159W        W65507  25.076   0.939   2.377
93160W        W65508  29.516  11.234  14.445
93161W        W65509   0.424  15.283   0.461
93162W        W65510  40.838  22.213  12.470
93163W        W65511  22.010   4.351  12.471
93164W        W65512  39.014  13.199  12.996
93165W        W65513  14.206  29.627  12.441
93166W        W65514  42.386  21.544  12.550
93167W        W65515   8.858  17.603   2.372
93168W        W65516  15.708  32.414  12.475
93169W        W65517  21.716  21.575  12.012
93170W        W65518  40.445   5.272  11.081
93171W        W65519  20.613  11.191  10.591
93172W        W65520  26.690  19.109   4.774
93173W        W65521  10.159   8.306   2.840
93174W        W65522  15.305  10.866   1.369
93175W        W65523  21.177  22.599  12.833
93176W        W65524  32.575  24.712   3.701
93177W        W65525  10.657  30.987  10.896
93178W        W65526  33.012  38.514  13.848
93179W        W65527  18.174  18.737  11.901
93180W        W65528  42.442  13.153   2.833
93181W        W65529  22.125   6.742  14.917
93182W        W65530  15.666  33.575  13.041
93183W        W65531   7.317  30.123  10.444
93184W        W65532  36.513  41.908   3.786
93185W        W65533  18.126  39.536   0.801
93186W        W65534   8.717  42.923   2.328
93187W        W65535   7.301  40.972   0.452
93188W        W65536  14.649  22.741  12.501
93189W        W65537  36.556  23.137   4.178
93190W        W65538   2.350  40.891   1.735
93191W        W65539   8.396   9.836  10.474
93192W        W65540   3.739  36.357  10.476
93193W        W65541  44.455  19.271   4.240
93194W        W65542  37.563  11.318   3.643
93195W        W65543  23.017  32.002  13.052
93196W        W65544  29.030  21.737   4.808
93197W        W65545   2.456  38.854  14.428
93198W        W65546  21.703  12.698   2.890
93199W        W65547  28.005   1.854   4.174
93200W        W65548  11.145  17.174   2.692
93201W        W65549   8.716  34.992   2.231
93202W        W65550  28.093  17.112  10.133
93203W        W65551  34.019  18.705   0.869
93204W        W65552  37.541  27.590  12.399
93205W        W65553  16.095   2.387  13.034
93206W        W65554   6.326  25.542   3.165
93207W        W65555  41.391   4.841   4.682
93208W        W65556  29.609  23.676  11.036
93209W        W65557   6.704  17.714  11.935
93210W        W65558   7.301  30.035   1.310
93211W        W65559  31.448  34.094  14.288
93212W        W65560  39.555  22.006  14.359
93213W        W65561   4.253   9.731   3.284
93214W        W65562   5.909  13.194  14.407
93215W        W65563  25.085  38.522  13.383
93216W        W65564   8.844  36.367   1.236
93217W        W65565   7.392   2.839  14.474
93218W        W65566  27.655  44.384  10.503
93219W        W65567  36.931  18.578  14.946
93220W        W65568  21.676  19.732   4.282
93221W        W65569  16.642   4.241   1.388
93222W        W65570  23.689  25.980  10.558
93223W        W65571   6.786   6.840   0.314
93224W        W65572  15.185  14.622  12.968
93225W        W65573  40.880  24.097  12.405
93226W        W65574  44.897  15.633  11.520
93227W        W65575  28.054   4.442  11.475
93228W        W65576  33.446  37.402   3.867
93229W        W65577  42.301   1.280  14.328
93230W        W65578  15.235  41.518  13.357
93231W        W65579  36.079  39.042   4.167
93232W        W65580  28.018  18.650  11.128
93233W        W65581  31.582   9.237   9.641
93234W        W65582  32.528  42.919   0.269
93235W        W65583  25.484  27.549  10.623
93236W        W65584   8.302   0.438  11.539
93237W        W65585  15.791  36.875   1.911
93238W        W65586  24.209  17.710  11.566
93239W        W65587  40.525  16.081   2.824
93240W        W65588  18.128  34.386   2.246
93241W        W65589  36.453  12.778   3.705
93242W        W65590  25.561  33.526  14.820
93243W        W65591  43.293   4.264  13.481
93244W        W65592  28.033   5.438   0.887
93245W        W65593  43.275  37.959  13.948
93246W        W65594  38.838  19.715   1.901
93247W        W65595  38.041  19.174  14.463
93248W        W65596   4.934  16.752  13.316
93249W        W65597  40.452  18.215   4.353
93250W        W65598  34.556   5.727  13.322
93251W        W65599  19.130   3.432   3.663
93252W        W65600  35.096  17.610   2.244
93253W        W65601  43.331   2.846  10.927
93254W        W65602   7.706  27.972  10.100
93255W        W65603  41.360  32.616   3.701
93256W        W65604   1.765  30.919  13.903
93257W        W65605  17.751  31.501   9.510
93258W        W65606   5.704  17.089  13.429
93259W        W65607  44.472  25.527  10.626
93260W        W65608  15.618  26.150  14.296
93261W        W65609  14.151  19.207  12.027
93262W        W65610  35.087  36.951   0.825
93263W        W65611  41.403  23.176  11.069
93264W        W65612   1.820  41.510  13.349
93265W        W65613  11.319  36.359   3.358
93266W        W65614  30.513  41.881   3.331
93267W        W65615  17.590  17.149   0.835
93268W        W65616  17.576   7.360  14.778
93269W        W65617  35.460   2.464  13.982
93270W        W65618  35.991  15.806  11.071
93271W        W65619   7.825  39.895  12.076
93272W        W65620  22.503  44.006  13.528
93273W        W65621  28.608  14.281  13.409
93274W        W65622   1.303  12.169  11.494
93275W        W65623   7.396  30.110  13.335
93276W        W65624  44.806  30.104   1.299
93277W        W65625  42.450  14.723   0.471
93278W        W65626  41.405  34.864   1.422
93279W        W65627  25.710  10.798   3.644
93280W        W65628  27.069  35.508   0.422
93281W        W65629  31.606  13.805  11.580
93282W        W65630  12.834  21.582   1.309
93283W        W65631  10.142  15.227   0.900
93284W        W65632   7.271  18.085   1.864
93285W        W65633  29.486  20.578   0.458
93286W        W65634  18.629  18.283   4.136
93287W        W65635  20.729   7.310  14.397
93288W        W65636  38.959   5.840   5.178
93289W        W65637  32.909   8.313  10.978
93290W        W65638  27.947   8.242   3.198
93291W        W65639  34.566  25.134  12.386
93292W        W65640  14.148  43.304  14.451
93293W        W65641  34.541  13.105  12.826
93294W        W65642  23.531  34.041  12.559
93295W        W65643   7.177  37.424  13.940
93296W        W65644  35.957  27.010   4.264
93297W        W65645  43.019  39.350  12.577
93298W        W65646   6.729  41.343  11.564
93299W        W65647  11.327  44.004  10.980
93300W        W65648   0.356   1.475   4.789
93301W        W65649   6.704   8.395   0.918
93302W        W65650  14.333  29.920   3.683
93303W        W65651  28.496   7.729  12.341
93304W        W65652  34.575  43.507  13.426
93305W        W65653   6.344  15.632  12.549
93306W        W65654  41.805   6.197   3.293
93307W        W65655  25.074   5.718  13.847
93308W        W65656  41.833  42.991   5.135
93309W        W65657  17.723  31.029  10.504
93310W        W65658  43.339   0.765   0.418
93311W        W65659  31.959  43.286   4.303
93312W        W65660  19.274  35.575   1.763
93313W        W65661  16.134  21.111   3.164
93314W        W65662  25.627  17.783  14.316
93315W        W65663  33.111  15.767   4.291
93316W        W65664  25.480  12.227  11.571
93317W        W65665  13.680   4.390   1.389
93318W        W65666  11.373  28.076   2.275
93319W        W65667  32.123  18.668  12.026
93320W        W65668  37.337   3.732   4.346
93321W        W65669  43.939   0.790   4.257
93322W        W65670  26.029  23.698  11.999
93323W        W65671  14.818  28.110  14.420
93324W        W65672  30.461  31.971  12.861
93325W        W65673  16.695  16.258  10.435
93326W        W65674   9.275  25.075  11.596
93327W        W65675   4.851   3.348  10.407
93328W        W65676   7.855  12.846   0.827
93329W        W65677  35.594  27.595   2.226
93330W        W65678   2.376   8.330  14.282
93331W        W65679   5.343  37.877   4.666
93332W        W65680   2.920  16.590   4.670
93333W        W65681  11.341  24.536  13.485
93334W        W65682  31.468  14.180   1.338
93335W        W65683  40.427  31.546  12.893
93336W        W65684  19.189  10.154  12.918
93337W        W65685   3.300   3.226  12.438
93338W        W65686  41.519  43.418   4.265
93339W        W65687   9.236   9.270   2.854
93340W        W65688  23.994  21.205   5.107
93341W        W65689  43.946  12.170   4.293
93342W        W65690  37.051   5.370  12.508
93343W        W65691  32.563  17.690  14.962
93344W        W65692   7.293  22.525   4.667
93345W        W65693  13.307  34.021  14.028
93346W        W65694  15.724  12.341   2.226
93347W        W65695  12.147  11.316   2.352
93348W        W65696  43.356  21.150   2.416
93349W        W65697  24.066  36.531   0.735
93350W        W65698  42.418  42.996  14.824
93351W        W65699  34.938  30.060  11.517
93352W        W65700  43.328  17.250  13.801
93353W        W65701   1.263  35.989  10.578
93354W        W65702   5.337  37.566   0.870
93355W        W65703   4.875  23.541   9.958
93356W        W65704  16.639  35.055   4.264
93357W        W65705  15.226   5.255  10.949
93358W        W65706  28.585  40.402  10.634
93359W        W65707   2.846  30.930  11.000
93360W        W65708   3.868   4.912  13.437
93361W        W65709  12.293  30.567   0.783
93362W        W65710  12.836  19.660  13.041
93363W        W65711   5.804  17.079   0.918
93364W        W65712  41.300  14.231   1.906
93365W        W65713  34.089  16.575  11.488
93366W        W65714  10.284   4.874   3.167
93367W        W65715  37.380  40.525   1.852
93368W        W65716  30.523   6.905   5.284
93369W        W65717  42.827  28.499   1.213
93370W        W65718  20.531  14.601   4.783
93371W        W65719   3.735  30.522  13.956
93372W        W65720  15.326   2.906  12.516
93373W        W65721   4.781  40.005   3.219
93374W        W65722  17.678  40.488  12.086
93375W        W65723  17.651  18.700   0.279
93376W        W65724  30.031  26.679  14.339
93377W        W65725   1.481  36.577  13.826
93378W        W65726  15.682  43.849  14.410
93379W        W65727   1.868   5.882  14.855
93380W        W65728  33.053   2.877   0.865
93381W        W65729  39.422  12.773  10.963
93382W        W65730  39.445  36.901   3.795
93383W        W65731  16.801  27.150  14.424
93384W        W65732  17.168  19.071  14.992
93385W        W65733  20.182  12.690   4.337
93386W        W65734   3.731  24.581  12.002
93387W        W65735  44.340  21.667   2.855
93388W        W65736  27.191  30.472  10.936
93389W        W65737  38.931  17.242   0.863
93390W        W65738   2.423  10.223   3.762
93391W        W65739  21.100  35.890   2.755
93392W        W65740  43.386  37.542   1.840
93393W        W65741  13.291  29.446   0.470
93394W        W65742  38.409   2.931   3.742
93395W        W65743  19.567  43.981   0.258
93396W        W65744  43.460   2.392   3.195
93397W        W65745  11.682  34.472  10.580
93398W        W65746  10.684  24.669  14.506
93399W        W65747   2.458  37.401  10.455
93400W        W65748  36.918  11.217   0.815
93401W        W65749  41.910  24.674   1.217
93402W        W65750   3.268  11.730  14.416
93403W        W65751  25.008   9.780  14.284
93404W        W65752  28.651  28.593   4.626
93405W        W65753   7.297  34.007   2.708
93406W        W65754  42.943   6.677  12.087
93407W        W65755  38.546   4.311   0.755
93408W        W65756  23.119   2.849   1.432
93409W        W65757  24.092  37.353  11.967
93410W        W65758  13.240   6.317   3.841
93411W        W65759   5.393  36.380  12.570
93412W        W65760  20.563   9.732   3.265
93413W        W65761  25.104   8.193   1.226
93414W        W65762  33.515   2.892  13.972
93415W        W65763  14.132  31.508  11.035
93416W        W65764  37.386  10.649  12.001
93417W        W65765  39.496  41.311  10.501
93418W        W65766   9.248  28.522   1.760
93419W        W65767  32.516  42.948  10.910
93420W        W65768  21.222  10.831  10.426
93421W        W65769  43.348  43.467  14.460
93422W        W65770  31.555   0.766  11.048
93423W        W65771   6.196  28.656  13.043
93424W        W65772  42.450  22.689   4.314
93425W        W65773   3.267  31.921  13.911
93426W        W65774  40.949  33.603   1.381
93427W        W65775  11.373  42.866  10.625
93428W        W65776   0.390  12.318  12.538
93429W        W65777  31.531  37.920  12.355
93430W        W65778  10.644  16.609   4.311
93431W        W65779  43.845  30.049   4.234
93432W        W65780   3.791  43.343   1.282
93433W        W65781   1.829  12.138   3.380
93434W        W65782  39.866  26.640  13.401
93435W        W65783  20.696  43.399  10.587
93436W        W65784  39.901  13.770   1.291
93437W        W65785  37.496  18.729   5.269
93438W        W65786   9.392   4.828  14.910
93439W        W65787  40.454  14.653  12.919
93440W        W65788  32.068   9.694  11.501
93441W        W65789  37.053  19.697  11.919
93442W        W65790   9.649  42.316  13.055
93443W        W65791  10.843  33.555   0.390
93444W        W65792  32.006  15.749  10.100
93445W        W65793  16.127  35.067   0.734
93446W        W65794   1.277   3.438  11.611
93447W        W65795  36.503  36.037  11.889
93448W        W65796  41.407   7.190   4.267
93449W        W65797  25.679  37.487  12.909
93450W        W65798  18.067  40.018   2.227
93451W        W65799  11.833  31.106  12.904
93452W        W65800   3.929   4.427  10.996
93453W        W65801  21.687  23.031   4.821
93454W        W65802  37.890  39.417   4.673
93455W        W65803   2.451   5.439  14.503
93456W        W65804  30.418   1.385   4.739
93457W        W65805  13.170  36.006  12.951
93458W        W65806   1.317   4.417   4.161
93459W        W65807  14.142  13.745  13.032
93460W        W65808   0.403  13.766   4.828
93461W        W65809  27.543  40.414  14.800
93462W        W65810  19.049   6.228  14.771
93463W        W65811  36.980  39.063  11.936
93464W        W65812  24.054  37.071   3.717
93465W        W65813  37.528  44.276   1.326
93466W        W65814   8.748  14.633   0.408
93467W        W65815  26.639  19.284  13.429
93468W        W65816  32.586   7.239   2.685
93469W        W65817   2.337  17.738  12.889
93470W        W65818  40.995   3.375   0.817
93471W        W65819  35.023  16.755   4.341
93472W        W65820  28.631  37.830   1.840
93473W        W65821  30.153  41.799   0.302
93474W        W65822  27.998  22.623   2.674
93475W        W65823   4.295  42.323  12.961
93476W        W65824  16.715  35.997  11.507
93477W        W65825   3.748   5.880  14.767
93478W        W65826  31.599  21.543   0.441
93479W        W65827  41.537   4.436  12.995
93480W        W65828  10.677  18.161   4.345
93481W        W65829  31.066  42.784  10.940
93482W        W65830  16.277  11.203   4.645
93483W        W65831  30.008  11.699  12.486
93484W        W65832  28.119   7.318  14.365
93485W        W65833  19.752   6.890  10.916
93486W        W65834   9.822   6.727   0.809
93487W        W65835   5.415  12.314  10.479
93488W        W65836   9.297   3.303  14.481
93489W        W65837  39.362   1.434   1.371
93490W        W65838  18.605  34.446   1.723
93491W        W65839  13.113  16.751  13.059
93492W        W65840  23.127   9.801   2.402
93493W        W65841  24.107   1.942   4.311
93494W        W65842  35.420   5.205  14.930
93495W        W65843   2.358  19.076   3.807
93496W        W65844  39.317   0.896  11.468
93497W        W65845  19.745   0.331  11.886
93498W        W65846   9.848  13.279  12.445
93499W        W65847  31.645   3.794  15.000
93500W        W65848  14.818   8.706  11.892
93501W        W65849  36.417   9.361  13.362
93502W        W65850  14.610  39.936   2.692
93503W        W65851   6.393  38.536  11.016
93504W        W65852   8.320  22.129  13.884
93505W        W65853  40.518  44.309   3.216
93506W        W65854  40.050  31.609   1.288
93507W        W65855  28.933  24.221  13.864
93508W        W65856  16.169  21.137   2.676
93509W        W65857  26.038  28.569  14.415
93510W        W65858   1.771  18.760  12.881
93511W        W65859  21.043  39.365  10.585
93512W        W65860  21.686  42.306   4.817
93513W        W65861  43.307  21.210   0.827
93514W        W65862  26.196  26.526   4.305
93515W        W65863  34.049  39.828  14.024
93516W        W65864  43.928  27.602  12.037
93517W        W65865   8.180  14.200  12.455
93518W        W65866  37.409  10.293   0.819
93519W        W65867   1.951  40.312   3.701
93520W        W65868  39.030   9.162   2.241
93521W        W65869  34.554  34.065  12.993
93522W        W65870   1.312  10.676   0.869
93523W        W65871  22.252  14.205  10.965
93524W        W65872  27.609  32.996  13.431
93525W        W65873  37.402  31.149   2.318
93526W        W65874  27.021  33.953  11.055
93527W        W65875  38.387  11.800   1.797
93528W        W65876  11.156   5.806  10.574
93529W        W65877  38.064   0.297  12.097
93530W        W65878  41.335   7.201   2.248
93531W        W65879  36.078  15.289  10.575
93532W        W65880  27.081  37.383  14.430
93533W        W65881  10.870  28.493  13.927
93534W        W65882  37.497  40.811  11.044
93535W        W65883   7.812   8.897  12.834
93536W        W65884  16.187   3.793  14.779
93537W        W65885  44.889   0.488  12.052
93538W        W65886   6.848  40.394  11.008
93539W        W65887  41.897  40.515   1.932
93540W        W65888  24.628  36.086   2.814
93541W        W65889  18.087  37.954  13.962
93542W        W65890  31.994   9.260   3.353
93543W        W65891  10.286  15.650  10.524
93544W        W65892  17.095  24.659   4.319
93545W        W65893  20.192  19.101   0.243
93546W        W65894  13.164  28.488   3.314
93547W        W65895   8.781   4.751  12.344
93548W        W65896  21.543   1.776   0.829
93549W        W65897   8.748  22.185  11.126
93550W        W65898   2.300   0.853  11.478
93551W        W65899   4.376   4.710  13.355
93552W        W65900  29.644  21.575   4.280
93553W        W65901  36.447  15.612  14.410
93554W        W65902  31.993  21.527  11.583
93555W        W65903  25.561  22.548   3.851
93556W        W65904  36.531  23.191  13.375
93557W        W65905  29.048  20.670  14.929
93558W        W65906  44.766   2.782   3.294
93559W        W65907  12.260  15.651   4.809
93560W        W65908  30.097  44.325  13.442
93561W        W65909  28.180  41.870  11.094
93562W        W65910   3.744  44.866   4.714
93563W        W65911   7.705  17.304  14.279
93564W        W65912  21.627  16.175   3.169
93565W        W65913  35.531   0.908  10.913
93566W        W65914   2.732  29.657  13.866
93567W        W65915   6.706  18.575   2.315
93568W        W65916  24.537  23.534   0.944
93569W        W65917  10.288  17.756   2.748
93570W        W65918  26.188  38.843  10.613
93571W        W65919  43.368  24.523   2.671
93572W        W65920   3.711   0.365  13.371
93573W        W65921  40.430  20.752  10.436
93574W        W65922  24.647  21.170   0.746
93575W        W65923  18.718  15.268   0.390
93576W        W65924  20.063  44.961   1.274
93577W        W65925  11.846  30.461  14.322
93578W        W65926   3.836  35.004   0.730
93579W        W65927  19.738  42.910   4.627
93580W        W65928  30.415  35.410  13.938
93581W        W65929  32.057  28.491   3.778
93582W        W65930   3.461  21.544   0.926
93583W        W65931  27.076  25.970  13.452
93584W        W65932   4.398  11.765   2.702
93585W        W65933  14.689  40.966  11.375
93586W        W65934  40.464  44.994  12.373
93587W        W65935  30.012  11.372   4.739
93588W        W65936  31.607  39.823   3.660
93589W        W65937   5.223  36.922  14.945
93590W        W65938  22.025  11.806  12.871
93591W        W65939  40.897  33.973   0.388
93592W        W65940  24.553  10.354  14.480
93593W        W65941  12.123   9.889   1.798
93594W        W65942  31.623  14.678   0.321
93595W        W65943  34.507  16.726  13.976
93596W        W65944   4.895  39.375  14.790
93597W        W65945  16.805  30.628  12.951
93598W        W65946   2.819  21.708   1.758
93599W        W65947  39.477  44.478  13.800
93600W        W65948  38.557   7.811  14.849
93601W        W65949  11.140  39.350   3.320
93602W        W65950  36.449  31.145  12.458
93603W        W65951  29.066  14.606  10.589
93604W        W65952  21.670  11.364   1.817
93605W        W65953  22.252  21.711  12.503
93606W        W65954  11.678  21.621  12.570
93607W        W65955  16.776  18.608  11.554
93608W        W65956   3.814  43.875  14.841
93609W        W65957  38.428  40.455   1.870
93610W        W65958  32.598   1.263   4.171
93611W        W65959  21.037   0.484   1.446
93612W        W65960  44.417  44.299   9.940
93613W        W65961  27.196  21.060   2.339
93614W        W65962  22.022  36.094   3.811
93615W        W65963  43.391  22.062   2.789
93616W        W65964  24.577  14.653   2.262
93617W        W65965  18.228  15.787   1.720
93618W        W65966  20.552   1.422   3.644
93619W        W65967  24.161   3.372  13.854
93620W        W65968  25.608  21.223   9.983
93621W        W65969  32.090  21.530   2.300
93622W        W65970  10.874   7.240  14.812
93623W        W65971  19.772  22.006   1.251
93624W        W65972   6.743  33.504   2.820
93625W        W65973  23.040  41.877   1.760
93626W        W65974  20.086  25.541  14.858
93627W        W65975  43.819   4.784   0.879
93628W        W65976  10.311   3.248  14.861
93629W        W65977  17.717  26.613   4.243
93630W        W65978  20.676  39.443   4.754
93631W        W65979   0.397  30.963  12.439
93632W        W65980   7.674  29.503  12.475
93633W        W65981  23.068   0.897   1.247
93634W        W65982  17.069  19.209  13.365
93635W        W65983  10.290   7.838   2.716
93636W        W65984  26.191  30.498  10.944
93637W        W65985  13.619  15.585  13.931
93638W        W65986  16.719  19.216   2.378
93639W        W65987  23.087   4.375   2.901
93640W        W65988  22.554   8.211   5.132
93641W        W65989  40.924  24.671  12.832
93642W        W65990  11.134  32.132   9.942
93643W        W65991  36.930  44.328  13.388
93644W        W65992  12.788  39.409  11.915
93645W        W65993  21.162  14.803  12.919
93646W        W65994  23.034  19.217  14.430
93647W        W65995   1.750  42.953   1.370
93648W        W65996  17.073  40.822  11.093
93649W        W65997  44.310  16.809  14.470
93650W        W65998  15.817  27.529  14.326
93651W        W65999  25.036  44.442  14.955
93652W        W66000  42.809   5.250  13.002
93653W        W66001   8.306  35.970  13.538
93654W        W66002  39.503  35.875  11.008
93655W        W66003  41.935  18.698   1.283
93656W        W66004  21.226   6.330  13.969
93657W        W66005  29.070  24.666  10.974
93658W        W66006  31.084   4.260   1.365
93659W        W66007   9.189  27.145   0.412
93660W        W66008  30.450   8.265   4.696
93661W        W66009  24.144   2.363  12.853
93662W        W66010  40.945   7.676  13.380
93663W        W66011   9.860  16.091  12.859
93664W        W66012  20.270  43.348  11.494
93665W        W66013  37.845  27.095   4.228
93666W        W66014  44.963  43.979  12.477
93667W        W66015  21.107  11.817  12.088
93668W        W66016   1.889  42.962  11.890
93669W        W66017   8.238  30.979  10.623
93670W        W66018  37.014  17.207   2.393
93671W        W66019  16.079   0.489   2.752
93672W        W66020  12.810  15.750  12.375
93673W        W66021  34.511  24.991   2.756
93674W        W66022  37.946   1.831   0.437
93675W        W66023  43.924  10.363   1.284
93676W        W66024   9.267  37.563  11.041
93677W        W66025  15.237  28.032   2.867
93678W        W66026  38.466  16.086  12.376
93679W        W66027   0.467  20.754   3.699
93680W        W66028  16.154   2.897  13.337
93681W        W66029  42.801   3.727  12.556
93682W        W66030   7.715  15.815  13.527
93683W        W66031  21.708   0.446   0.921
93684W        W66032   8.670  27.011  13.953
93685W        W66033  21.641  25.479   4.155
93686W        W66034  11.289   1.791  12.535
93687W        W66035  11.270  16.802  12.357
93688W        W66036  29.948  27.540   3.659
93689W        W66037  14.150  37.903   2.392
93690W        W66038   9.338   9.766   0.460
93691W        W66039  39.977  14.212  10.950
93692W        W66040  33.401  13.615   4.339
93693W        W66041  13.823  41.975  12.894
93694W        W66042  13.234  12.673  12.826
93695W        W66043  23.036   8.768   2.292
93696W        W66044  17.628  13.246  11.967
93697W        W66045   4.818  42.420   3.376
93698W        W66046  43.447  16.580   1.729
93699W        W66047  43.463  10.321  12.970
93700W        W66048   4.444  30.446   4.826
93701W        W66049  10.359  13.111  13.500
93702W        W66050  33.426  35.011  11.532
93703W        W66051  43.477  24.148   4.715
93704W        W66052  39.980  41.037   2.781
93705W        W66053  34.048   1.479  11.949
93706W        W66054   1.881   9.882   4.683
93707W        W66055   6.890  15.317   1.889
93708W        W66056  40.337  20.038  13.405
93709W        W66057  10.773  16.237   1.773
93710W        W66058   6.800   9.191  12.060
93711W        W66059  14.607  36.032  12.394
93712W        W66060   6.700   6.423  13.942
93713W        W66061  22.508  34.427   0.968
93714W        W66062  43.486  14.098   1.322
93715W        W66063  41.488  27.114  14.401
93716W        W66064  24.165  14.704   3.174
93717W        W66065  12.809   3.257  10.058
93718W        W66066  30.455  33.979   4.629
93719W        W66067  36.579   6.198  12.991
93720W        W66068  37.040  19.156  14.822
93721W        W66069   4.444   6.285  12.496
93722W        W66070   0.783  10.195   5.196
93723W        W66071  25.061  33.414   5.289
93724W        W66072  43.479  11.823   4.293
93725W        W66073  22.197  34.049   3.857
93726W        W66074  42.994  12.183   4.327
93727W        W66075   9.751  37.968   3.827
93728W        W66076  10.365  39.424  10.643
93729W        W66077  36.579  22.595   4.666
93730W        W66078  31.436  17.758   2.758
93731W        W66079  12.264  27.492  10.524
93732W        W66080  30.598  37.951   1.849
93733W        W66081  13.616  24.160  14.007
93734W        W66082   3.798  25.128   2.257
93735W        W66083  42.358  18.087   1.774
93736W        W66084  14.158  20.595  14.963
93737W        W66085  12.669  33.074  14.010
93738W        W66086  20.219  39.897   1.816
93739W        W66087  39.936   3.426  13.847
93740W        W66088  44.991   5.871   1.898
93741W        W66089  41.873  41.801  11.589
93742W        W66090  17.069  29.168  10.010
93743W        W66091  22.119  19.534   0.465
93744W        W66092   0.450   2.772   4.232
93745W        W66093   6.329  16.585  11.937
93746W        W66094  44.307   4.854  13.053
93747W        W66095  12.683  27.037   3.300
93748W        W66096  37.429  16.129   4.638
93749W        W66097  23.131  26.511   0.445
93750W        W66098  37.846   6.321  14.456
93751W        W66099  17.574  29.557   4.628
93752W        W66100  14.659  37.530  10.465
93753W        W66101   4.385  36.495  12.347
93754W        W66102  35.877  10.316  12.448
93755W        W66103  17.143  18.612  14.004
93756W        W66104  33.626  35.470  11.437
93757W        W66105  30.583   2.832  11.883
93758W        W66106  33.434  14.739   2.330
93759W        W66107  37.976   0.935   2.698
93760W        W66108   2.409   1.734   4.653
93761W        W66109  44.284  18.199  13.537
93762W        W66110  44.475  35.064   1.740
93763W        W66111   6.419  42.924  14.902
93764W        W66112  12.133  22.092   4.685
93765W        W66113  24.210  21.542   1.797
93766W        W66114  21.711  11.692  13.490
93767W        W66115  30.150  32.462   3.284
93768W        W66116  31.005  31.535  12.549
93769W        W66117  41.013  34.382  11.941
93770W        W66118  42.387   4.209  11.461
93771W        W66119  21.095  28.126   1.799
93772W        W66120  43.998  13.689   3.283
93773W        W66121  13.129  28.985  13.006
93774W        W66122   6.243  39.324  10.923
93775W        W66123   8.402   5.894   1.270
93776W        W66124  13.715   0.430   4.718
93777W        W66125  44.409  32.054  13.522
93778W        W66126  22.610  33.938   2.391
93779W        W66127   6.682  35.027  10.420
93780W        W66128  36.426  39.949   3.309
93781W        W66129  32.559   8.180  12.959
93782W        W66130  23.720   6.914   9.948
93783W        W66131   8.865  23.694   4.721
93784W        W66132  15.157  16.076  10.420
93785W        W66133  31.025  40.853  10.617
93786W        W66134  38.995  15.105   1.287
93787W        W66135  15.690  11.799   4.838
93788W        W66136   8.695  27.071  10.411
93789W        W66137  31.405  25.556  14.922
93790W        W66138  43.317  35.579   2.732
93791W        W66139  31.647  35.938   2.886
93792W        W66140  43.312   3.460   2.871
93793W        W66141  18.724   5.439  13.422
93794W        W66142  30.083  31.022   4.813
93795W        W66143  26.553  29.109  13.020
93796W        W66144  40.368  43.961  13.352
93797W        W66145  21.139  16.586   3.235
93798W        W66146  34.117  40.032  14.884
93799W        W66147  38.548  11.287   3.228
93800W        W66148   9.680   8.838   3.264
93801W        W66149  40.507  23.548   2.180
93802W        W66150  11.703  15.595   5.276
93803W        W66151   5.196   4.445   2.406
93804W        W66152  23.147  37.368  11.860
93805W        W66153  16.762  17.654  11.458
93806W        W66154  22.193  31.032   4.325
93807W        W66155  17.657  35.399  10.908
93808W        W66156  30.587   7.260   3.197
93809W        W66157   7.842  31.467  14.880
93810W        W66158  17.192  44.392  10.031
93811W        W66159  44.314   3.427   4.661
93812W        W66160  12.147  40.866   2.825
93813W        W66161  24.164  19.747   4.667
93814W        W66162  31.134  11.359   0.773
93815W        W66163  31.059  43.846   3.185
93816W        W66164   9.797  40.960   4.126
93817W        W66165  23.087   7.718   9.534
93818W        W66166  22.225  28.989  14.953
93819W        W66167   6.767   2.351  12.828
93820W        W66168  36.365   0.457   1.861
93821W        W66169  19.750  23.167  12.381
93822W        W66170  38.399  27.095   1.449
93823W        W66171   1.753  14.135   3.850
93824W        W66172   7.198   3.220   3.861
93825W        W66173  40.324  25.121  13.911
93826W        W66174   6.413  28.599   0.773
93827W        W66175  33.980  26.184  10.436
93828W        W66176   9.369  26.534  10.100
93829W        W66177  10.303  35.411   0.282
93830W        W66178  16.193  44.324   1.333
93831W        W66179   3.943  12.614   1.927
93832W        W66180  13.742  21.693   3.185
93833W        W66181   8.225  42.302  11.574
93834W        W66182  30.545  39.502  12.503
93835W        W66183  27.069   1.468   2.720
93836W        W66184  23.201   6.898  11.425
93837W        W66185  44.877  42.381  14.918
93838W        W66186  37.839  26.148   1.864
93839W        W66187  15.194  29.990   1.794
93840W        W66188  40.398  33.007  13.808
93841W        W66189  27.465   2.310   4.720
93842W        W66190  35.454   5.411   0.809
93843W        W66191  16.607  40.958  14.439
93844W        W66192  23.610  12.199   0.837
93845W        W66193  17.104  37.338   1.890
93846W        W66194  42.844   0.894   3.206
93847W        W66195  32.591  36.864  13.847
93848W        W66196  29.602  23.655  10.541
93849W        W66197  15.747  22.676   2.863
93850W        W66198   9.252  37.365  11.942
93851W        W66199  19.074   6.401  11.064
93852W        W66200  12.642  22.207   0.851
93853W        W66201  40.844   2.268  12.893
93854W        W66202  37.971  40.800  14.008
93855W        W66203  38.823  24.499  11.438
93856W        W66204  17.268  34.376  11.447
93857W        W66205  33.007  24.688   1.300
93858W        W66206  41.839  14.212  10.984
93859W        W66207  27.133  29.953   0.953
93860W        W66208  21.616   2.319  11.012
93861W        W66209  42.904   4.806  11.897
93862W        W66210   9.273  18.607  14.452
93863W        W66211  25.174   4.399   3.155
93864W        W66212  15.290  22.122   3.280
93865W        W66213  15.634  28.467  11.048
93866W        W66214  34.474  35.912   3.202
93867W        W66215  30.532  31.485   1.746
93868W        W66216  43.814  24.146   4.791
93869W        W66217  17.724  44.011   1.925
93870W        W66218  11.206  11.801  14.777
93871W        W66219  41.376  27.069   2.274
93872W        W66220  26.598  34.871  10.893
93873W        W66221  40.357  23.715  12.084
93874W        W66222  11.136  13.190   1.783
93875W        W66223   6.844   7.252   4.305
93876W        W66224  35.047  32.930  14.761
93877W        W66225  31.041  20.532  13.407
93878W        W66226   4.247  35.938  12.028
93879W        W66227  30.623  10.766   1.704
93880W        W66228  15.795  10.361   4.263
93881W        W66229  41.913   3.319  11.971
93882W        W66230  26.508  21.089   0.748
93883W        W66231  38.420  43.358  10.461
93884W        W66232  31.059  11.284  12.068
93885W        W66233  30.437  19.721  11.607
93886W        W66234   6.828  42.375  10.517
93887W        W66235   7.703  19.153   0.433
93888W        W66236  31.145  29.053   4.785
93889W        W66237   8.238  33.994   0.919
93890W        W66238  38.056  43.999   3.356
93891W        W66239  12.764   8.784  13.545
93892W        W66240  14.277  11.683  11.520
93893W        W66241  39.810  34.107   0.784
93894W        W66242  41.427   2.945  14.363
93895W        W66243  40.946  19.136   3.818
93896W        W66244  31.639  34.390   1.727
93897W        W66245   2.920  41.791   0.908
93898W        W66246   8.358  10.378   1.811
93899W        W66247  21.037  17.205  12.825
93900W        W66248   7.673  35.925   4.235
93901W        W66249  24.080  31.517  10.547
93902W        W66250  13.125  17.624  14.975
93903W        W66251   2.312  41.002   2.417
93904W        W66252  43.474  21.128  14.870
93905W        W66253  18.071  27.115  12.836
93906W        W66254   0.358  42.335  12.875
93907W        W66255  43.973  21.555  10.504
93908W        W66256  11.290  14.699   3.184
93909W        W66257  23.518  41.927  11.431
93910W        W66258   8.708  42.940  13.930
93911W        W66259  33.903  34.102   5.234
93912W        W66260  26.693  36.047  12.904
93913W        W66261  43.812  18.070  14.924
93914W        W66262   2.911  11.698   2.367
93915W        W66263  37.970  33.511  11.909
93916W        W66264  34.600  20.619   3.362
93917W        W66265  23.723  36.881  13.995
93918W        W66266  30.586  44.882  11.515
93919W        W66267   5.923   0.893  11.415
93920W        W66268   6.320   7.905   2.899
93921W        W66269  37.879  18.253  12.880
93922W        W66270  30.656  18.561   0.431
93923W        W66271  37.877  18.262   3.229
93924W        W66272   8.402  28.943  14.913
93925W        W66273  35.100  39.046  14.308
93926W        W66274  11.232  40.891  10.445
93927W        W66275   4.281   3.268  13.863
93928W        W66276  29.998  36.091   0.776
93929W        W66277   5.697  17.069   4.171
93930W        W66278  44.384  14.331   3.793
93931W        W66279  24.019  15.654   2.890
93932W        W66280  27.483   8.689   3.748
93933W        W66281  37.452   3.856   2.741
93934W        W66282  42.980  19.653   1.281
93935W        W66283  41.926  30.021  10.996
93936W        W66284  18.159  41.463  10.915
93937W        W66285  21.237  27.072  13.483
93938W        W66286  14.679  32.082  14.951
93939W        W66287  17.279   2.287  14.406
93940W        W66288  32.579  14.118  10.569
93941W        W66289  35.453  20.217   4.754
93942W        W66290  28.998   0.458   2.299
93943W        W66291   7.285  29.154  13.792
93944W        W66292   1.779  10.332  13.058
93945W        W66293  15.277   3.926   3.172
93946W        W66294  33.968  32.011   2.876
93947W        W66295  27.463  44.789  14.470
93948W        W66296   1.268  31.618  12.088
93949W        W66297   3.261  20.652   4.212
93950W        W66298  35.529  15.705   4.312
93951W        W66299  33.108  32.554   2.224
93952W        W66300  12.209  25.555   4.226
93953W        W66301  26.126  43.955  14.968
93954W        W66302  18.059  11.332  12.339
93955W        W66303   0.278  19.121  14.287
93956W        W66304   2.341  11.749  12.579
93957W        W66305   9.772  38.570  13.416
93958W        W66306   1.379  24.220  12.537
93959W        W66307  44.496  35.876   9.981
93960W        W66308  11.258  12.361  10.968
93961W        W66309  22.028   7.706  10.948
93962W        W66310  24.694  30.537   4.277
93963W        W66311   9.273  31.639  12.474
93964W        W66312  42.381   1.864   0.833
93965W        W66313  27.531  44.941  13.311
93966W        W66314  42.808  39.359  14.009
93967W        W66315  35.879  19.654  12.575
93968W        W66316  38.065  42.823  14.306
93969W        W66317  21.581  40.872   3.723
93970W        W66318  39.870  37.582  13.975
93971W        W66319  22.124  15.687  13.892
93972W        W66320  13.324   4.933   2.346
93973W        W66321  28.482   0.407   3.648
93974W        W66322  13.832  29.117   3.680
93975W        W66323   7.898   8.402  14.507
93976W        W66324  42.842  12.736   3.321
93977W        W66325  19.703  34.935   1.813
93978W        W66326  12.332  24.183  11.577
93979W        W66327  25.626  24.723   0.942
93980W        W66328  17.136  41.343   1.230
93981W        W66329   6.284  35.969   0.797
93982W        W66330  14.628   0.804   2.259
93983W        W66331  16.697  13.706  11.123
93984W        W66332   8.815  12.151  11.112
93985W        W66333   5.777  42.435  13.893
93986W        W66334  38.956  36.985   3.675
93987W        W66335  32.118  12.221  12.413
93988W        W66336  14.224   1.886   0.736
93989W        W66337  30.585  19.232  14.498
93990W        W66338  25.039   0.262   3.694
93991W        W66339  20.031  37.563  14.945
93992W        W66340  21.630   9.154   4.237
93993W        W66341  21.716  38.426  12.469
93994W        W66342   4.860   7.221  10.038
93995W        W66343   2.855  35.584   1.798
93996W        W66344  42.460  21.220  12.524
93997W        W66345   0.463  38.017   4.228
93998W        W66346  13.757  38.458   0.392
93999W        W66347  38.027  10.308  13.542
94000W        W66348  21.225  43.017  13.045
94001W        W66349  21.699  25.187   1.308
94002W        W66350  39.542  27.076  10.948
94003W        W66351  16.223  10.256  14.014
94004W        W66352  18.225  24.989  11.046
94005W        W66353  11.191  14.656  10.919
94006W        W66354  10.775  12.652  11.496
94007W        W66355  30.108  33.503  11.096
94008W        W66356   7.302  26.611   1.723
94009W        W66357   0.466  22.580  12.847
94010W        W66358   8.344  44.334   3.719
94011W        W66359  14.675  42.914   3.158
94012W        W66360  39.933  44.942   4.715
94013W        W66361  36.436  24.209  11.593
94014W        W66362  44.755   9.291   1.289
94015W        W66363  18.660  10.266   1.927
94016W        W66364  40.979  44.981   3.831
94017W        W66365  23.083   2.317   2.756
94018W        W66366  14.622  44.919  13.059
94019W        W66367  19.761  33.100  13.443
94020W        W66368   3.423  29.957  10.605
94021W        W66369  29.540  39.926   2.832
94022W        W66370   3.858  32.508  13.047
94023W        W66371  37.838   9.723   0.273
94024W        W66372   6.410  20.068   1.851
94025W        W66373   3.454  14.818  14.345
94026W        W66374  35.879  22.132   3.345
94027W        W66375  22.252  20.231  11.105
94028W        W66376   6.810  36.483   2.743
94029W        W66377   2.365  37.949  13.467
94030W        W66378  28.078   4.441  12.030
94031W        W66379  11.285  21.089   2.685
94032W        W66380  17.092  43.361   4.230
94033W        W66381   7.718  32.514  14.861
94034W        W66382  36.957  43.006  11.883
94035W        W66383  22.608  37.922  14.908
94036W        W66384  43.445  26.026  13.919
94037W        W66385  30.988  21.035   0.906
94038W        W66386   8.829  25.662  13.344
94039W        W66387  24.705   9.180   1.300
94040W        W66388   1.335  22.569  10.643
94041W        W66389  44.900  39.427   2.860
94042W        W66390  34.568  12.715  12.570
94043W        W66391  20.081   5.884   2.308
94044W        W66392  40.834  41.798  13.546
94045W        W66393  18.746  31.402   3.273
94046W        W66394  24.143   8.859   9.983
94047W        W66395  12.220  32.934  12.362
94048W        W66396   8.725  35.581   0.774
94049W        W66397  24.532  12.202   2.320
94050W        W66398  33.474  33.947   2.209
94051W        W66399   9.878   0.925   3.679
94052W        W66400  12.700  16.289   0.327
94053W        W66401   2.768  24.534  13.964
94054W        W66402  34.075  21.149  13.036
94055W        W66403   4.243  36.504   1.882
94056W        W66404  23.636   1.406  14.911
94057W        W66405  34.914  25.194  12.523
94058W        W66406  36.067   1.862   3.824
94059W        W66407  41.425  25.038  10.955
94060W        W66408  30.513   7.259   1.896
94061W        W66409  11.179  27.098  11.050
94062W        W66410  31.588  17.628   1.762
94063W        W66411  20.092  27.551   0.357
94064W        W66412  23.236   9.167  10.049
94065W        W66413  29.946  22.630   4.708
94066W        W66414  17.076  44.264   4.265
94067W        W66415  23.089  14.588  12.485
94068W        W66416  15.728  28.027   2.380
94069W        W66417  13.746  35.867   0.292
94070W        W66418  43.010  44.349   1.406
94071W        W66419  41.798  33.080  14.403
94072W        W66420   9.770   1.392   4.201
94073W        W66421  16.650  38.464   3.656
94074W        W66422  43.329  40.952  13.470
94075W        W66423  14.606  31.958  14.477
94076W        W66424  35.067  17.636   0.377
94077W        W66425  44.802  15.166  11.971
94078W        W66426   8.860  16.630   4.735
94079W        W66427  13.730  35.054   0.410
94080W        W66428   4.448  39.478  14.940
94081W        W66429   1.818  31.475   4.623
94082W        W66430  23.068  23.634   2.211
94083W        W66431  39.408  27.584   3.324
94084W        W66432  22.081  26.698   0.891
94085W        W66433  36.054  15.263  13.400
94086W        W66434  29.455  14.738   3.314
94087W        W66435  26.037  24.715  11.070
94088W        W66436   5.891  16.205   1.440
94089W        W66437  41.387  34.607  14.406
94090W        W66438  37.981  33.477  12.574
94091W        W66439  15.293   9.777  14.394
94092W        W66440  29.932  14.606   3.647
94093W        W66441  13.184  37.060   4.196
94094W        W66442  41.302   2.958   0.306
94095W        W66443  38.550  39.388  12.825
94096W        W66444  42.390  26.698   1.917
94097W        W66445  11.169  43.510  14.471
94098W        W66446  40.339  10.230   0.796
94099W        W66447  44.280  22.545  13.919
94100W        W66448   8.236  40.831  14.470
94101W        W66449   5.320  18.751   4.326
94102W        W66450  32.073  37.348  13.435
94103W        W66451   2.752  16.713   2.703
94104W        W66452  35.959  30.065   1.933
94105W        W66453  14.113  38.498   0.793
94106W        W66454  27.517  43.935   2.240
94107W        W66455  16.257  35.440   3.253
94108W        W66456  31.466  40.461  13.025
94109W        W66457  17.109  10.732  11.388
94110W        W66458  44.329   1.819  10.104
94111W        W66459   0.339  36.574  11.591
94112W        W66460   0.405  10.325   2.300
94113W        W66461  38.055  41.507   2.712
94114W        W66462  33.474  18.143   2.673
94115W        W66463  31.897  22.252   4.190
94116W        W66464   1.788   0.473   0.463
94117W        W66465  33.551  43.362   2.794
94118W        W66466  34.545  30.147  14.466
94119W        W66467   1.379  42.496   4.235
94120W        W66468  34.552   6.417  11.922
94121W        W66469  40.816  29.085  12.824
94122W        W66470  10.636  12.259  13.996
94123W        W66471  22.168  37.953  13.526
94124W        W66472   5.697  41.468  14.365
94125W        W66473  21.166  35.906  14.439
94126W        W66474  41.355  13.192   3.237
94127W        W66475  32.459  22.722   3.376
94128W        W66476  38.913  13.772   2.802
94129W        W66477   5.844  37.835   2.380
94130W        W66478  14.323  38.014   4.207
94131W        W66479  25.212   4.742   0.474
94132W        W66480  10.334  17.594  12.835
94133W        W66481  40.816   6.260  11.385
94134W        W66482  17.607   1.288   0.827
94135W        W66483  36.432  39.060  12.423
94136W        W66484  43.440  14.823   0.764
94137W        W66485  16.778  11.279  10.642
94138W        W66486  44.758   0.280   1.403
94139W        W66487  33.884   4.801  14.277
94140W        W66488  13.802  23.519  11.505
94141W        W66489  35.016  18.222  12.890
94142W        W66490  10.354  34.428  10.434
94143W        W66491   3.794  37.931  14.490
94144W        W66492   7.711  38.943   0.864
94145W        W66493  12.270  36.946  11.084
94146W        W66494   8.821   8.174   0.370
94147W        W66495   5.817   6.908   2.203
94148W        W66496  18.775  28.025  10.550
94149W        W66497   1.949  44.938   1.262
94150W        W66498  23.674  39.401  10.425
94151W        W66499   6.369  29.935   0.964
94152W        W66500  29.580  24.564  12.529
94153W        W66501  21.590  34.089  13.962
94154W        W66502   5.930  37.468   4.290
94155W        W66503   1.296  31.565   1.917
94156W        W66504   2.373  28.669   0.304
94157W        W66505  36.556   4.401  14.760
94158W        W66506  18.651  19.585  13.491
94159W        W66507  39.475  38.958   3.363
94160W        W66508  13.660   8.254   0.960
94161W        W66509  13.655  25.999  11.588
94162W        W66510   7.873  31.105   1.259
94163W        W66511   3.897  17.645   3.642
94164W        W66512  26.980   3.861  11.122
94165W        W66513  14.624   7.339  11.578
94166W        W66514  10.817  17.192   3.808
94167W        W66515  33.507  16.794  12.036
94168W        W66516  12.761  19.042  14.303
94169W        W66517  30.915  39.494  14.441
94170W        W66518   5.887  36.387   2.227
94171W        W66519   8.899  35.907   2.270
94172W        W66520   3.901  43.949   4.178
94173W        W66521  19.718  38.478   2.814
94174W        W66522  31.903   6.375   5.226
94175W        W66523   9.740  21.524   4.276
94176W        W66524  11.769  23.712  11.861
94177W        W66525  40.536  31.054  11.102
94178W        W66526   6.703  39.488  12.016
94179W        W66527  37.980  26.171  12.486
94180W        W66528   1.887  41.393   0.374
94181W        W66529  19.164  21.731  13.887
94182W        W66530  44.812  37.077   4.779
94183W        W66531   9.704   7.220   0.287
94184W        W66532  37.361  31.931   0.374
94185W        W66533  27.529  30.649   3.294
94186W        W66534  30.536  22.073  13.979
94187W        W66535  17.643   7.354  12.016
94188W        W66536  14.656   1.404   0.335
94189W        W66537  15.207  44.336  10.567
94190W        W66538  36.875  23.620  11.377
94191W        W66539  17.193  28.019  14.017
94192W        W66540  14.675   5.249   4.290
94193W        W66541  37.050  37.049   2.199
94194W        W66542  34.057  39.531   3.721
94195W        W66543  21.628  33.387   2.851
94196W        W66544  31.060  30.972   3.213
94197W        W66545  11.199  19.679   1.361
94198W        W66546  43.342  20.566   0.870
94199W        W66547  13.203   0.850   4.660
94200W        W66548  12.633   3.344   1.417
94201W        W66549  14.186  41.794   0.799
94202W        W66550  15.297  38.925  13.052
94203W        W66551  42.475  42.514  14.355
94204W        W66552  43.853  13.831   0.756
94205W        W66553  40.957   4.244  13.809
94206W        W66554  19.733  32.972   2.882
94207W        W66555  38.861  24.495  12.873
94208W        W66556  13.290  31.483   3.171
94209W        W66557  30.079   4.424  12.393
94210W        W66558  31.409  20.678  10.578
94211W        W66559  30.588   6.781  13.437
94212W        W66560  16.571  35.038  10.584
94213W        W66561  21.630   9.315   4.735
94214W        W66562   9.652  37.395   2.845
94215W        W66563  39.554   0.415  11.992
94216W        W66564  13.304   1.853   1.292
94217W        W66565  22.143  10.755   1.892
94218W        W66566  31.514  11.863   4.693
94219W        W66567  33.516  17.598   0.918
94220W        W66568  35.015  11.139  11.542
94221W        W66569  15.684   9.815   2.219
94222W        W66570  16.591   3.835  12.846
94223W        W66571  24.594  10.306  11.901
94224W        W66572   3.934  11.815   1.913
94225W        W66573  41.304  11.649   4.324
94226W        W66574  39.527  36.360  12.376
94227W        W66575  40.817  40.958  13.838
94228W        W66576  24.525   3.363  12.555
94229W        W66577  16.587  38.914   3.769
94230W        W66578  44.384  36.011  12.578
94231W        W66579  34.503  14.758  11.078
94232W        W66580  29.530  30.472   0.902
94233W        W66581  29.052  21.677   0.370
94234W        W66582  10.187  24.526  14.333
94235W        W66583  25.091  41.997   1.814
94236W        W66584  40.832  20.622   3.659
94237W        W66585  36.490  35.376   3.826
94238W        W66586  35.507  16.808   2.295
94239W        W66587   5.808  32.404  14.828
94240W        W66588  39.972   8.782   1.746
94241W        W66589  21.092  13.127  14.817
94242W        W66590  29.663  14.599  10.459
94243W        W66591   2.359   4.800   4.334
94244W        W66592   3.398  20.750  12.556
94245W        W66593  13.115  44.284   5.172
94246W        W66594  44.002  28.600  11.963
94247W        W66595  41.035  23.677   0.868
94248W        W66596  37.459  26.050  11.899
94249W        W66597   2.808  42.942   2.763
94250W        W66598  20.252  10.811  11.498
94251W        W66599  37.344  31.460   2.329
94252W        W66600  37.058  42.822   0.785
94253W        W66601  36.888   7.334  13.798
94254W        W66602  43.013  34.096  13.874
94255W        W66603  29.460  19.662  14.490
94256W        W66604  16.640  18.154  14.871
94257W        W66605  42.392  21.528  13.546
94258W        W66606  20.247  43.388   0.424
94259W        W66607  35.019   5.741  13.363
94260W        W66608   4.365   8.200   1.253
94261W        W66609  28.054  32.968   3.694
94262W        W66610  14.667  17.276  13.816
94263W        W66611  14.747  43.391   0.792
94264W        W66612   5.714  20.660  11.060
94265W        W66613   0.892   4.748  11.571
94266W        W66614  42.326  35.009  10.527
94267W        W66615  38.053  13.631   1.373
94268W        W66616   0.870  12.183  14.953
94269W        W66617  35.536  21.069  12.041
94270W        W66618   2.417  22.558   0.479
94271W        W66619  29.576  28.122   2.315
94272W        W66620  35.990  15.314  11.449
94273W        W66621  41.961  24.620   0.262
94274W        W66622  29.033  20.243   3.195
94275W        W66623   7.378  13.344   0.308
94276W        W66624  11.182  33.072  13.928
94277W        W66625  26.116  20.612   3.158
94278W        W66626   4.321  36.027  11.400
94279W        W66627  10.191  21.100  10.427
94280W        W66628   2.415  28.474   3.264
94281W        W66629  44.477  38.067  13.840
94282W        W66630   2.318  26.703  13.451
94283W        W66631   3.328  38.054   2.843
94284W        W66632  41.503  24.594  10.498
94285W        W66633  35.916   8.340  12.498
94286W        W66634  25.128  41.922  14.350
94287W        W66635  27.094  16.210  14.892
94288W        W66636  11.348   0.341   4.722
94289W        W66637  35.455  16.720  14.763
94290W        W66638   0.848  10.341   4.261
94291W        W66639  12.129  40.306  10.994
94292W        W66640  18.225  38.513   3.331
94293W        W66641  37.485  20.251   4.239
94294W        W66642  35.077  34.903   3.822
94295W        W66643  14.304  27.195   0.372
94296W        W66644  10.823  23.699  11.926
94297W        W66645  25.647  42.392  11.591
94298W        W66646   7.761  26.667   1.815
94299W        W66647  42.341   7.209  12.510
94300W        W66648  44.910  42.854   2.299
94301W        W66649   8.235  44.869  12.872
94302W        W66650  34.084  35.077   5.307
94303W        W66651  24.621  28.939  11.516
94304W        W66652  25.630  37.008  10.583
94305W        W66653  38.972  14.223   2.355
94306W        W66654  15.717  37.904  11.886
94307W        W66655  43.805  17.254  14.448
94308W        W66656  31.019  26.593   4.210
94309W        W66657  12.288  19.057   3.192
94310W        W66658  44.943  44.370   0.293
94311W        W66659  30.058   7.294   3.738
94312W        W66660  30.000  44.268  12.451
94313W        W66661  30.939  21.537   1.399
94314W        W66662  41.031  37.441   1.429
94315W        W66663  41.875  28.064   1.761
94316W        W66664   7.843  24.697  12.500
94317W        W66665  22.047   9.725   3.346
94318W        W66666  24.197  10.254  11.986
94319W        W66667  24.077  26.155  12.512
94320W        W66668  18.569  28.034  14.324
94321W        W66669  21.159   7.217  10.926
94322W        W66670  17.282   9.335   4.293
94323W        W66671  15.739  14.812  12.919
94324W        W66672  33.059  23.144   0.401
94325W        W66673  28.080  23.624   4.709
94326W        W66674  33.063   5.340  10.471
94327W        W66675  16.267  33.950  10.555
94328W        W66676   1.733  43.990   2.820
94329W        W66677  43.819  39.400   0.840
94330W        W66678  15.617  21.626   3.653
94331W        W66679  28.472  11.161   3.193
94332W        W66680  37.003   0.285   0.399
94333W        W66681  15.610  15.230  12.534
94334W        W66682  18.189  38.050   0.270
94335W        W66683  10.194  41.891  11.859
94336W        W66684  35.102   3.758   2.897
94337W        W66685  38.828  33.543   0.355
94338W        W66686  29.116   2.292   4.183
94339W        W66687  41.005   6.227  10.904
94340W        W66688  40.511  12.676   4.205
94341W        W66689  10.233  13.112  11.375
94342W        W66690   6.714   7.187   2.838
94343W        W66691   3.721   2.321   4.218
94344W        W66692  38.038  17.703   1.759
94345W        W66693   4.907  24.567  13.535
94346W        W66694  29.493  25.488   1.843
94347W        W66695  11.716  33.974   1.274
94348W        W66696   6.279  21.137  12.086
94349W        W66697  20.075  25.714   0.825
94350W        W66698  25.709  37.887  11.059
94351W        W66699   0.980  19.771   0.727
94352W        W66700  19.654  25.662  11.873
94353W        W66701   3.461  43.293  11.582
94354W        W66702  44.400   7.808   4.705
94355W        W66703  23.547   8.289   2.780
94356W        W66704   3.253  43.930   4.240
94357W        W66705  18.190  26.647  10.973
94358W        W66706  20.601  22.720  11.440
94359W        W66707  39.009   4.940   5.211
94360W        W66708   2.415  14.809   4.768
94361W        W66709  30.636  41.914  11.922
94362W        W66710   1.755  13.740   0.913
94363W        W66711  36.894  35.013   0.417
94364W        W66712  21.663   1.934  11.409
94365W        W66713  14.750  30.484  12.532
94366W        W66714  19.056  16.286   4.239
94367W        W66715  25.655  18.113   0.730
94368W        W66716   7.212  30.957   1.400
94369W        W66717   8.856  23.168   3.717
94370W        W66718  11.369  35.456  14.916
94371W        W66719  16.122   5.774  13.464
94372W        W66720  37.349  18.104  12.498
94373W        W66721  32.596  36.041  14.872
94374W        W66722  40.834  21.669   0.369
94375W        W66723  44.268  34.892  13.025
94376W        W66724   9.268  18.214   0.384
94377W        W66725  28.143  19.176  11.949
94378W        W66726  13.149  41.528  10.143
94379W        W66727  36.031  34.915  14.846
94380W        W66728  15.610  43.805   0.428
94381W        W66729  10.757  22.025  13.888
94382W        W66730  38.872   3.314   4.832
94383W        W66731  28.501  22.657  12.853
94384W        W66732  29.081   9.808  14.826
94385W        W66733  39.903  30.446   3.694
94386W        W66734  32.561  41.940  14.319
94387W        W66735  23.651  27.049   3.355
94388W        W66736  32.913  24.511  11.474
94389W        W66737  35.478  14.628  12.489
94390W        W66738   9.720   2.939   1.797
94391W        W66739   9.660   0.463   0.374
94392W        W66740  31.536   7.833  10.452
94393W        W66741  25.148   9.717   5.770
94394W        W66742  12.139  39.041   4.343
94395W        W66743   7.771  23.223  11.504
94396W        W66744   8.191  10.256  10.991
94397W        W66745  25.080   4.333   4.346
94398W        W66746  18.078  38.064  14.478
94399W        W66747  42.493  17.757   1.393
94400W        W66748  37.353  10.878   1.930
94401W        W66749   6.222  19.149   1.694
94402W        W66750   8.322  21.549  13.517
94403W        W66751   8.738  42.969   3.771
94404W        W66752   0.399  33.935   0.448
94405W        W66753  34.873   2.849   3.805
94406W        W66754  43.824   6.828  13.449
94407W        W66755  12.724  19.701   0.312
94408W        W66756  40.344  29.166  11.855
94409W        W66757   0.374  21.199   3.819
94410W        W66758  31.002  20.700   0.908
94411W        W66759  38.547  16.750  13.804
94412W        W66760  27.516   6.829  13.491
94413W        W66761  30.063  36.363   0.316
94414W        W66762  38.553   0.387   2.689
94415W        W66763  21.684  44.326  12.565
94416W        W66764  41.532  26.590  10.516
94417W        W66765  36.571  14.622   3.159
94418W        W66766  33.391  37.064  11.871
94419W        W66767  43.009   0.265   3.701
94420W        W66768  26.684   0.774   2.221
94421W        W66769  40.871  14.271  14.020
94422W        W66770  39.367  15.297  12.463
94423W        W66771  33.583   7.335   2.353
94424W        W66772  19.273  41.509  11.494
94425W        W66773  41.496  31.139   2.180
94426W        W66774  20.594  19.062   1.859
94427W        W66775  22.105  43.489  10.574
94428W        W66776  31.935  17.293   1.840
94429W        W66777  24.212  37.080  10.489
94430W        W66778  17.590  31.545   3.262
94431W        W66779  34.469   1.841  12.496
94432W        W66780   4.829  30.088  14.403
94433W        W66781  31.591  20.549   0.392
94434W        W66782  15.820   7.379  12.982
94435W        W66783  37.465  40.409  13.332
94436W        W66784  40.527  28.497   4.269
94437W        W66785  32.074   8.385  14.389
94438W        W66786   4.396  28.124   0.317
94439W        W66787  36.521   2.893   4.730
94440W        W66788  31.053  30.998   1.241
94441W        W66789  36.504   3.244  14.434
94442W        W66790  35.397  22.738   2.342
94443W        W66791   9.358  40.819   4.195
94444W        W66792  31.918   0.331   2.406
94445W        W66793  25.043  31.079   5.201
94446W        W66794  16.695   4.812  13.357
94447W        W66795  14.231  41.960  12.824
94448W        W66796  17.209   4.753   1.321
94449W        W66797   6.779  20.232   4.220
94450W        W66798  43.485   8.248  13.884
94451W        W66799  38.458  12.849  11.122
94452W        W66800  31.553  35.370  12.071
94453W        W66801   3.430  20.067   4.786
94454W        W66802  31.617  29.627   1.905
94455W        W66803  36.383  19.269  14.844
94456W        W66804  28.950  17.595  11.470
94457W        W66805  14.828   4.218  12.986
94458W        W66806  34.413  42.496  10.490
94459W        W66807  20.651   0.387   4.321
94460W        W66808  33.031  25.645  13.423
94461W        W66809   0.394   3.327   0.774
94462W        W66810   6.812  39.345   1.892
94463W        W66811  18.264  24.010   3.631
94464W        W66812   9.742   4.347  10.929
94465W        W66813  41.426  27.613   2.276
94466W        W66814  20.534  29.638   1.935
94467W        W66815   5.232  31.496   2.736
94468W        W66816  15.583  22.641  14.422
94469W        W66817  33.486   0.930   1.280
94470W        W66818  12.294  19.763  14.960
94471W        W66819  22.507  30.602   3.321
94472W        W66820  37.455   3.912  13.059
94473W        W66821  26.525   1.947   3.801
94474W        W66822  18.175   5.270   4.752
94475W        W66823  32.515  28.617   1.720
94476W        W66824  29.642  13.215   0.844
94477W        W66825  44.450  31.138  10.490
94478W        W66826  33.582  38.923   1.241
94479W        W66827  20.691  10.783  12.093
94480W        W66828   1.971   1.757  13.933
94481W        W66829  38.397  32.956   4.634
94482W        W66830  42.444  28.051  12.551
94483W        W66831  19.569  44.471   5.215
94484W        W66832  18.581  19.276   2.258
94485W        W66833   4.773  42.031   0.953
94486W        W66834   1.880   1.950   1.423
94487W        W66835   5.311  35.441   4.242
94488W        W66836  24.011  32.410   4.834
94489W        W66837  34.369   5.234   0.915
94490W        W66838  17.254  27.448   2.815
94491W        W66839  21.518  39.343  11.081
94492W        W66840  18.166   9.344  11.068
94493W        W66841  17.243  26.568   1.236
94494W        W66842  22.710  39.961  14.481
94495W        W66843  31.639  39.820  13.962
94496W        W66844   2.298  15.670  10.980
94497W        W66845  30.512  13.120  11.904
94498W        W66846  17.593   5.927  11.101
94499W        W66847   2.720  16.149  11.123
94500W        W66848   2.395   8.197  12.919
94501W        W66849  21.675  12.162  12.844
94502W        W66850  30.649  32.127   1.893
94503W        W66851  22.627  10.165   1.370
94504W        W66852  28.606  10.836   2.663
94505W        W66853  25.705  44.853   0.420
94506W        W66854  15.227  13.141   1.756
94507W        W66855  34.047   0.473   3.662
94508W        W66856  26.585  30.474  14.423
94509W        W66857  28.165   4.229   2.306
94510W        W66858  29.474  36.935  14.988
94511W        W66859  10.227  28.105   2.287
94512W        W66860  39.006  20.062  13.401
94513W        W66861  38.366  13.283   4.722
94514W        W66862  44.418  37.523  12.976
94515W        W66863  12.618  22.732  14.026
94516W        W66864  44.451  20.740   4.790
94517W        W66865   6.906  29.175   0.954
94518W        W66866  18.218   6.285   0.756
94519W        W66867  19.078  28.469   9.969
94520W        W66868   3.781   5.319  14.760
94521W        W66869   8.310   5.907  10.911
94522W        W66870  34.463  19.076  11.045
94523W        W66871  44.483  32.921   1.702
94524W        W66872  26.593  41.484  11.077
94525W        W66873  18.574  14.285  11.080
94526W        W66874  18.728  25.077  12.876
94527W        W66875  16.591  36.553   2.394
94528W        W66876  15.794  32.901  14.974
94529W        W66877  10.692  27.527   0.426
94530W        W66878  10.863  23.164  11.106
94531W        W66879  18.687  26.654  13.845
94532W        W66880   3.930  32.935  14.319
94533W        W66881  32.482  29.537  13.440
94534W        W66882  16.709  24.082  10.975
94535W        W66883  41.022  16.717  10.978
94536W        W66884  16.074   6.912   3.814
94537W        W66885  37.062  30.064   2.239
94538W        W66886  43.478  23.195   3.865
94539W        W66887  44.418  24.694  13.974
94540W        W66888  23.573  10.851  12.536
94541W        W66889  29.945  43.325   4.321
94542W        W66890  36.347  42.505  12.959
94543W        W66891  30.128  14.710   1.344
94544W        W66892  36.386   7.184  10.974
94545W        W66893  24.224  43.410  12.358
94546W        W66894  23.187   3.248   1.285
94547W        W66895   9.756  43.920   4.810
94548W        W66896  32.608   5.404   5.671
94549W        W66897  27.627  15.779  11.891
94550W        W66898  22.574  44.444   3.152
94551W        W66899   3.225  25.578   0.483
94552W        W66900  25.101  24.172   3.696
94553W        W66901  16.074  34.044  14.447
94554W        W66902  14.737  17.063   4.597
94555W        W66903  18.556  44.967   4.731
94556W        W66904  14.616   2.345   2.232
94557W        W66905  19.581  42.493  10.621
94558W        W66906  18.621  34.908   4.718
94559W        W66907  10.341  43.396  14.323
94560W        W66908  20.758  10.754  13.063
94561W        W66909  14.276   5.248  12.383
94562W        W66910   6.207  24.113  12.025
94563W        W66911  39.336  26.017   1.799
94564W        W66912   0.805  36.530   3.313
94565W        W66913  43.398  22.663  14.932
94566W        W66914  28.586   4.376  14.445
94567W        W66915  40.919  21.646   3.635
94568W        W66916  40.001  25.514   0.756
94569W        W66917   0.464  38.426   1.221
94570W        W66918  30.463  28.094   3.150
94571W        W66919  11.299  42.505   4.797
94572W        W66920  22.121   9.880  10.609
94573W        W66921   3.277  21.086  13.423
94574W        W66922  32.135  25.479  13.495
94575W        W66923  42.030  12.653  14.280
94576W        W66924  38.929   6.287   2.399
94577W        W66925  12.234   8.782   4.622
94578W        W66926   9.870  34.472  11.428
94579W        W66927  26.093  44.889  12.944
94580W        W66928  18.547   1.834   0.391
94581W        W66929  44.931  34.377  12.063
94582W        W66930  10.240  12.801  11.051
94583W        W66931   5.864   2.929  14.843
94584W        W66932  28.601  10.195  14.985
94585W        W66933  34.900  32.068  12.496
94586W        W66934  29.012  17.619   1.920
94587W        W66935   2.827  33.422   4.272
94588W        W66936  37.033  31.598   0.318
94589W        W66937  42.453  41.859  10.579
94590W        W66938  29.921  24.227  13.019
94591W        W66939   3.923  32.941  12.067
94592W        W66940   8.171  38.035  13.340
94593W        W66941  14.735  44.007  12.941
94594W        W66942  16.694   3.943  12.339
94595W        W66943  19.096   8.354  12.349
94596W        W66944   5.925  44.497  12.557
94597W        W66945  23.039  26.973  12.526
94598W        W66946   3.294   9.374   1.734
94599W        W66947  37.489   8.321  10.014
94600W        W66948  42.515   1.780   4.258
94601W        W66949  22.695  33.876  12.542
94602W        W66950   3.369  18.771   1.886
94603W        W66951   0.306  10.339  11.884
94604W        W66952  29.146  40.403   2.400
94605W        W66953   9.299   1.249   4.732
94606W        W66954   7.270  31.494  11.548
94607W        W66955  12.678   7.286  14.300
94608W        W66956  31.547  36.542   4.156
94609W        W66957   4.333  34.015   1.365
94610W        W66958  13.221  12.136   1.732
94611W        W66959  14.147  21.582  14.339
94612W        W66960   3.903  40.381   2.291
94613W        W66961  21.700  18.675   3.231
94614W        W66962  23.013  44.493  10.506
94615W        W66963  34.870  17.271  10.564
94616W        W66964  30.923  21.735   1.729
94617W        W66965  38.343  11.158   2.752
94618W        W66966  31.095  21.261  13.974
94619W        W66967  31.990  40.867  10.414
94620W        W66968   0.857  28.180  10.129
94621W        W66969  18.611  15.086   3.206
94622W        W66970  23.086  38.441  13.944
94623W        W66971  36.996   3.246  13.975
94624W        W66972  15.112   2.757  10.498
94625W        W66973  40.332  27.955  11.017
94626W        W66974   5.366  27.120  11.896
94627W        W66975  32.432  28.173  13.548
94628W        W66976  21.225  18.232  11.940
94629W        W66977  33.561  18.696   0.453
94630W        W66978   5.885  28.656   2.186
94631W        W66979  27.145   7.287  12.476
94632W        W66980  32.479  26.457  11.893
94633W        W66981  14.269   0.445   4.119
94634W        W66982  37.531  34.495  11.470
94635W        W66983  18.694   2.741   2.702
94636W        W66984  32.474   7.239   0.475
94637W        W66985  12.357  23.009   3.691
94638W        W66986  27.553  39.036   2.833
94639W        W66987  31.936  37.021  13.421
94640W        W66988  16.617  43.470  10.499
94641W        W66989  39.541  42.433   3.291
94642W        W66990  18.681  16.296  11.925
94643W        W66991  43.945  19.224   2.705
94644W        W66992   9.316  13.283   2.745
94645W        W66993  13.157  23.513   3.372
94646W        W66994  21.097  13.807  13.999
94647W        W66995  18.613  22.182   3.758
94648W        W66996  17.715   0.928  10.497
94649W        W66997  13.163  13.177   2.810
94650W        W66998  10.205  16.260  11.443
94651W        W66999  17.707  14.798   0.761
94652W        W67000  43.330   3.423   4.313
94653W        W67001   0.268  20.564   4.792
94654W        W67002  42.356  12.637   0.339
94655W        W67003  28.149  37.881   4.247
94656W        W67004  42.314  30.574   2.261
94657W        W67005  38.442  25.073   4.644
94658W        W67006  38.418  23.163   2.746
94659W        W67007  37.490  25.022  10.095
94660W        W67008  25.647   4.307   4.133
94661W        W67009   6.428  19.243   3.760
94662W        W67010  42.935  29.613   4.633
94663W        W67011  38.515  42.322  12.534
94664W        W67012  34.023  19.742  14.797
94665W        W67013   1.349   7.281   2.732
94666W        W67014  41.538  18.297   2.782
94667W        W67015  44.453  19.098   2.342
94668W        W67016  33.585  25.154  14.830
94669W        W67017  19.550  11.181  13.505
94670W        W67018  36.573  28.993   2.739
94671W        W67019  13.623  15.710   3.296
94672W        W67020  31.982  13.705  14.499
94673W        W67021   9.745  39.329   4.812
94674W        W67022  33.384   4.328   4.728
94675W        W67023   1.482  32.982   1.856
94676W        W67024  19.271  12.618  13.348
94677W        W67025  29.138  34.112   4.234
94678W        W67026  40.334  10.288   0.339
94679W        W67027  33.121  26.554  13.879
94680W        W67028  15.605   6.416  13.339
94681W        W67029  14.716  28.601   4.746
94682W        W67030   6.764  33.036  10.910
94683W        W67031  13.826  16.193   1.212
94684W        W67032  28.020  24.569  10.529
94685W        W67033  30.053  27.138  12.079
94686W        W67034  33.112   1.974   4.789
94687W        W67035  26.103   6.284  13.408
94688W        W67036  17.782  41.879  13.868
94689W        W67037  17.125  23.552  14.853
94690W        W67038   3.947  30.044   3.731
94691W        W67039  26.078   5.855   2.349
94692W        W67040  16.162  15.171   2.765
94693W        W67041  26.564  20.536   2.700
94694W        W67042  22.674  34.972   0.934
94695W        W67043  10.842  14.654   3.811
94696W        W67044  44.754  36.464   1.749
94697W        W67045  13.232  14.773   2.742
94698W        W67046   4.735   4.833  13.310
94699W        W67047  37.831  14.645  10.900
94700W        W67048  30.133  16.227  12.524
94701W        W67049  37.412  43.769   2.733
94702W        W67050   9.194  23.186  14.796
94703W        W67051  13.341  42.928   3.329
94704W        W67052  23.555   6.780  13.817
94705W        W67053   8.712  42.478   0.472
94706W        W67054  17.574   9.730  12.524
94707W        W67055  19.065  27.673  11.038
94708W        W67056  29.053  22.106  13.944
94709W        W67057  42.936  20.273   4.734
94710W        W67058  19.664  27.570   1.398
94711W        W67059   9.272   9.323  13.057
94712W        W67060  38.472   6.250   0.433
94713W        W67061  29.604  19.268   4.348
94714W        W67062  25.019  39.950   0.742
94715W        W67063  19.187  21.038  14.386
94716W        W67064  10.353   9.733  13.437
94717W        W67065  29.011  24.162   2.317
94718W        W67066   1.959  21.592   3.817
94719W        W67067  41.882  20.207  11.916
94720W        W67068  34.915  29.610  13.929
94721W        W67069   5.689  40.445  14.329
94722W        W67070   1.316  26.086   1.230
94723W        W67071  33.534  37.951   5.113
94724W        W67072  12.344   3.341   4.812
94725W        W67073  36.870  30.496   1.437
94726W        W67074  33.416  40.369   2.731
94727W        W67075  41.003  27.032  11.934
94728W        W67076  28.110  25.699  13.821
94729W        W67077   0.417  21.736  11.448
94730W        W67078  26.678  22.713   0.813
94731W        W67079  44.267  14.762  12.427
94732W        W67080  42.984  21.250   1.382
94733W        W67081  36.053  23.993   3.272
94734W        W67082  21.710   0.251  14.920
94735W        W67083  27.951  36.484   2.893
94736W        W67084  43.770  23.515   4.708
94737W        W67085  25.157  28.493  12.091
94738W        W67086  25.047   4.800  13.001
94739W        W67087  39.947  13.688   1.699
94740W        W67088   1.454  43.485  10.598
94741W        W67089   8.769  20.056   1.242
94742W        W67090  24.146  23.700   4.711
94743W        W67091  30.569   1.864   0.827
94744W        W67092  21.129  44.951   1.403
94745W        W67093  21.077   9.802  12.972
94746W        W67094  43.811   9.662  10.973
94747W        W67095  23.020  15.766   4.127
94748W        W67096  43.360  25.094   3.166
94749W        W67097   3.881  37.530   9.977
94750W        W67098   8.212  44.925  14.454
94751W        W67099  21.619  25.063  10.479
94752W        W67100   3.373  29.091  13.949
94753W        W67101  19.582  29.650   2.872
94754W        W67102  18.250  36.066   4.330
94755W        W67103   6.297  12.161  14.513
94756W        W67104  34.512  32.418   4.779
94757W        W67105  12.748  39.521  10.543
94758W        W67106  22.514  40.407   0.432
94759W        W67107  19.735  24.712  13.978
94760W        W67108  18.220  10.698  14.881
94761W        W67109  12.210  17.717   4.318
94762W        W67110   9.828  12.212  12.933
94763W        W67111   7.794  23.579  14.950
94764W        W67112  15.294  16.770  12.854
94765W        W67113  40.523  24.704   1.871
94766W        W67114   4.301   9.370   2.805
94767W        W67115   6.301   5.431   1.364
94768W        W67116  31.973   2.458  13.973
94769W        W67117  27.512  34.545  12.931
94770W        W67118  18.545  23.724  14.417
94771W        W67119   2.418  22.581  10.629
94772W        W67120   7.834  34.404   4.814
94773W        W67121  22.108  35.084   2.257
94774W        W67122  36.489  44.296   4.218
94775W        W67123  19.601   2.351   5.256
94776W        W67124  16.187   0.431   3.651
94777W        W67125  13.292  42.502   0.817
94778W        W67126  15.117  23.146  14.819
94779W        W67127  29.483  41.349  11.557
94780W        W67128   0.844  40.808   2.348
94781W        W67129  25.532  11.305   0.304
94782W        W67130  10.268  36.970   3.782
94783W        W67131   0.306  17.244   4.113
94784W        W67132  23.071  30.994   0.787
94785W        W67133  22.020  37.549   4.269
94786W        W67134  18.142  35.981  14.003
94787W        W67135  31.058   3.224   4.666
94788W        W67136   4.418  34.386  13.961
94789W        W67137  44.951   5.778  14.819
94790W        W67138   6.696   3.391   1.451
94791W        W67139  25.517  27.493   4.636
94792W        W67140  12.703   7.391  11.917
94793W        W67141  12.849  33.946   0.770
94794W        W67142  20.100   3.884   1.750
94795W        W67143  19.156  13.334  13.007
94796W        W67144  12.343   8.172  14.931
94797W        W67145  28.974  44.312   3.179
94798W        W67146   8.764  14.142   4.758
94799W        W67147  43.801  42.329  12.961
94800W        W67148   9.302  11.643   0.373
94801W        W67149   0.352  27.651   1.899
94802W        W67150  39.980  16.311  12.438
94803W        W67151  37.453  17.157   2.202
94804W        W67152  25.198  43.784  12.519
94805W        W67153   0.972   6.426  13.006
94806W        W67154  13.768  41.999   1.335
94807W        W67155   2.441  28.597  11.893
94808W        W67156  16.752  24.161  11.877
94809W        W67157  12.693  19.634   4.598
94810W        W67158  27.952  18.170  11.913
94811W        W67159  42.932  28.499   3.358
94812W        W67160  28.057  27.961   0.798
94813W        W67161   2.754   3.755  13.500
94814W        W67162  10.662  18.204   4.760
94815W        W67163  32.108   4.435   3.691
94816W        W67164  18.683   4.310  12.007
94817W        W67165   9.230  29.658  14.918
94818W        W67166   6.755  27.110  11.604
94819W        W67167  15.114   3.909   4.634
94820W        W67168  42.527  34.004  11.988
94821W        W67169  30.039   3.936  13.476
94822W        W67170  30.948  34.486   0.841
94823W        W67171  28.970   9.269   1.364
94824W        W67172  35.931  36.849   2.793
94825W        W67173  38.539  22.515   5.258
94826W        W67174  37.579  33.570   0.332
94827W        W67175  14.163  32.491  14.955
94828W        W67176   6.331   0.350   2.740
94829W        W67177   5.837  36.454  13.490
94830W        W67178  30.605   3.285  14.908
94831W        W67179   3.826   0.471  11.537
94832W        W67180   3.810  40.463   1.747
94833W        W67181  38.466  19.118   2.360
94834W        W67182   5.695  15.282   2.820
94835W        W67183  28.168   1.297   4.271
94836W        W67184  13.138  27.042  13.403
94837W        W67185  43.826   1.438  14.312
94838W        W67186  36.460  44.871  14.806
94839W        W67187  25.552  39.010  10.984
94840W        W67188   8.791  30.536  14.458
94841W        W67189   0.971  24.059  11.945
94842W        W67190  39.022  14.136  13.538
94843W        W67191  30.540  34.520  14.947
94844W        W67192  26.470  39.440  11.578
94845W        W67193  11.769   9.303  12.477
94846W        W67194  27.688  13.136  12.016
94847W        W67195  37.853   0.357   1.416
94848W        W67196  25.598  33.513  11.095
94849W        W67197  26.004  40.464  11.531
94850W        W67198  12.116   8.302   2.731
94851W        W67199   9.370  27.666  14.842
94852W        W67200  12.810   9.799   0.860
94853W        W67201  10.224  15.120   4.804
94854W        W67202   7.388  19.201   1.390
94855W        W67203  19.746   4.288  10.895
94856W        W67204   8.289  10.367   1.415
94857W        W67205  40.917   2.292  10.930
94858W        W67206  13.681  40.887  11.480
94859W        W67207  25.634  24.153  14.873
94860W        W67208  32.119  36.519  12.352
94861W        W67209   4.224  21.187   2.760
94862W        W67210  34.405   5.697  11.391
94863W        W67211  41.439  11.639  13.347
94864W        W67212  41.822   0.890  14.502
94865W        W67213  17.080  40.043   1.429
94866W        W67214  37.579  43.891   2.366
94867W        W67215  29.099   8.717   4.755
94868W        W67216   1.946  39.361  12.095
94869W        W67217   8.236   0.747  13.861
94870W        W67218  14.811  21.593   0.271
94871W        W67219   3.414  44.400   5.320
94872W        W67220  26.200  26.058  11.555
94873W        W67221  24.225  23.566   1.339
94874W        W67222  35.522  11.154  12.461
94875W        W67223   0.471   9.196   3.245
94876W        W67224  37.086   9.209   3.224
94877W        W67225  12.130   6.773  12.580
94878W        W67226   1.899  17.603   3.323
94879W        W67227  22.517   7.821   4.233
94880W        W67228  39.995  11.369  12.531
94881W        W67229  34.114  34.897  14.944
94882W        W67230  27.530  15.252  14.500
94883W        W67231  40.455  12.715   0.863
94884W        W67232  30.569  31.631  14.837
94885W        W67233  40.332  37.539  13.037
94886W        W67234   7.416   6.807  14.507
94887W        W67235  32.032   7.802  11.887
94888W        W67236  25.571  25.698   2.728
94889W        W67237  44.989  19.196   0.836
94890W        W67238  14.169  42.466   4.243
94891W        W67239  37.831  38.561   1.251
94892W        W67240  21.743   7.230   1.714
94893W        W67241  14.772  22.692  10.461
94894W        W67242   2.915  44.823   4.609
94895W        W67243  22.611   1.294   0.332
94896W        W67244  43.273  44.826   0.799
94897W        W67245  34.462   5.831   1.864
94898W        W67246  30.558   3.217   0.864
94899W        W67247   5.720  13.736  14.945
94900W        W67248  11.317   2.800   3.855
94901W        W67249  36.010  33.966   4.167
94902W        W67250   4.820  32.473  10.508
94903W        W67251   4.872   4.226  14.372
94904W        W67252   7.888   3.384  10.042
94905W        W67253  21.182   8.305   2.220
94906W        W67254  22.598  42.991   9.969
94907W        W67255  27.953  15.178   3.756
94908W        W67256  28.159  26.059  10.969
94909W        W67257  35.423  21.693  13.460
94910W        W67258   1.475  25.651  14.489
94911W        W67259  20.149  28.627  14.338
94912W        W67260  39.365  13.171   1.369
94913W        W67261   1.931  35.447  12.934
94914W        W67262   0.328  14.787  14.444
94915W        W67263  26.062  24.194  13.351
94916W        W67264  39.964   6.325   2.820
94917W        W67265  25.542   5.757  13.901
94918W        W67266   2.434  23.199   1.318
94919W        W67267   3.793  17.608  11.981
94920W        W67268   2.234  15.678   5.081
94921W        W67269  33.072   0.878   2.184
94922W        W67270  28.117  25.036   3.784
94923W        W67271   5.764  26.458   4.123
94924W        W67272  24.681  16.214  10.483
94925W        W67273   0.985  17.088   2.898
94926W        W67274   0.789  23.614   2.254
94927W        W67275  17.697  17.087   4.250
94928W        W67276  10.706  29.506   1.328
94929W        W67277  15.649  30.431  14.405
94930W        W67278  40.503   7.188   2.833
94931W        W67279   8.826  25.573  12.858
94932W        W67280  17.215   0.341  13.493
94933W        W67281  17.661  43.455   4.188
94934W        W67282  34.059  38.942  10.897
94935W        W67283   3.725   4.876  12.434
94936W        W67284  27.118   3.412   4.125
94937W        W67285  28.435  12.804  14.378
94938W        W67286   5.372  38.024   4.207
94939W        W67287  19.556  41.829  10.560
94940W        W67288   3.243  18.649  14.863
94941W        W67289  21.122  21.258  13.939
94942W        W67290  37.986  16.275   1.399
94943W        W67291  23.667   3.424   4.137
94944W        W67292  33.895   7.869  10.077
94945W        W67293  30.545  14.141   3.178
94946W        W67294  19.270  38.854   3.743
94947W        W67295   1.954   7.201  10.474
94948W        W67296  44.829  43.767   1.243
94949W        W67297  31.959  13.722   2.868
94950W        W67298  39.054  38.830  12.917
94951W        W67299  37.031  15.270   0.876
94952W        W67300  35.055  22.062  13.419
94953W        W67301   0.421  19.235   1.723
94954W        W67302  44.877  18.176  13.477
94955W        W67303  10.270  40.871   4.819
94956W        W67304  16.184  18.576   1.380
94957W        W67305  26.976   9.650  10.602
94958W        W67306  28.589  28.084  12.446
94959W        W67307   0.404  19.262  11.011
94960W        W67308  10.747  40.800   3.644
94961W        W67309  31.026  44.763  11.535
94962W        W67310  37.055  14.834   1.776
94963W        W67311  25.486  23.554   5.117
94964W        W67312  19.178  20.168  14.343
94965W        W67313  40.432   4.306  13.374
94966W        W67314  36.457   9.863   3.856
94967W        W67315   5.872  30.112  11.903
94968W        W67316  30.435  38.366  13.413
94969W        W67317  36.382  16.246  13.921
94970W        W67318   6.407  21.535   3.338
94971W        W67319  23.522  26.606  14.772
94972W        W67320  32.462  27.673   2.308
94973W        W67321  10.760  43.458  12.437
94974W        W67322  40.841  40.497  12.869
94975W        W67323  13.712  28.569  12.553
94976W        W67324  13.695  33.382  13.945
94977W        W67325  16.638  25.630  11.440
94978W        W67326   4.826   8.663   3.689
94979W        W67327  28.971  29.564  10.418
94980W        W67328  34.576  39.009   4.804
94981W        W67329  43.839  40.335  13.508
94982W        W67330   4.427  19.625  13.012
94983W        W67331  43.961  12.185  13.794
94984W        W67332  42.963   8.810   1.727
94985W        W67333  34.459  18.646  12.021
94986W        W67334  12.684  14.284  13.317
94987W        W67335   1.847   8.342  13.825
94988W        W67336  20.163  37.427  13.981
94989W        W67337  22.616  43.996  12.037
94990W        W67338  32.441   4.357   1.270
94991W        W67339  21.718   5.861   4.711
94992W        W67340  40.943  29.023   0.269
94993W        W67341  22.245  29.646  13.053
94994W        W67342  30.026  11.752   3.156
94995W        W67343  11.693  38.328  13.020
94996W        W67344  14.117   8.263   1.799
94997W        W67345  20.581  42.332  13.038
94998W        W67346   2.732  12.203  11.511
94999W        W67347  31.561  36.919   5.609
95000W        W67348  15.763  26.473  14.474
95001W        W67349  40.825  21.222   0.311
95002W        W67350  40.894  32.995  14.480
95003W        W67351  31.146  41.426  14.458
95004W        W67352  43.813  10.874   1.252
95005W        W67353   4.706  22.601  14.907
95006W        W67354  23.570  41.022  13.473
95007W        W67355  41.799  20.729  11.060
95008W        W67356  41.954  42.321   2.322
95009W        W67357  38.897  32.516   4.624
95010W        W67358  44.322   5.268  10.596
95011W        W67359   8.778  16.680   4.197
95012W        W67360  31.404  36.987  10.989
95013W        W67361  32.952   6.370   2.757
95014W        W67362  32.077   1.480  13.997
95015W        W67363  34.964  18.670  14.918
95016W        W67364  22.546   6.318  14.877
95017W        W67365   1.760  41.921  11.507
95018W        W67366  40.540  39.022   3.725
95019W        W67367  20.647  38.022   4.208
95020W        W67368  13.271  12.736   1.785
95021W        W67369  11.704  42.847   3.243
95022W        W67370   2.341   6.223   0.872
95023W        W67371  14.785  14.117  11.484
95024W        W67372  31.532  35.938  13.825
95025W        W67373   1.837  33.995  12.414
95026W        W67374  41.391  22.013   1.801
95027W        W67375  11.818  15.114   2.883
95028W        W67376  20.077  26.522  12.457
95029W        W67377  30.511  11.790   1.246
95030W        W67378  34.459  33.605   0.416
95031W        W67379  38.421  40.969   1.286
95032W        W67380  26.655  15.223  14.766
95033W        W67381  27.073  37.857  10.522
95034W        W67382  35.939  36.380   1.416
95035W        W67383  24.165   7.232   2.383
95036W        W67384  28.536  30.602  11.416
95037W        W67385  14.227   1.441   4.724
95038W        W67386  25.151  23.228  12.879
95039W        W67387  30.033  17.613  11.998
95040W        W67388  18.105  13.695  10.431
95041W        W67389  36.950  12.143   1.426
95042W        W67390   1.414  44.278   0.948
95043W        W67391   7.272   8.328   2.240
95044W        W67392   7.317   2.729  11.860
95045W        W67393  13.836  13.802  10.435
95046W        W67394  28.175  32.482  14.958
95047W        W67395  25.489   2.295   0.752
95048W        W67396  36.983  10.315  14.336
95049W        W67397  30.118  32.460   1.924
95050W        W67398  10.859  41.302  13.979
95051W        W67399  26.468  11.728   1.370
95052W        W67400  41.041  36.529  10.988
95053W        W67401  15.697  36.960  14.773
95054W        W67402  22.712  35.020  13.488
95055W        W67403  31.548  31.542  10.619
95056W        W67404   1.347  43.986   4.161
95057W        W67405  17.151  10.851   4.610
95058W        W67406  35.394  41.511  14.448
95059W        W67407  44.424  26.617   5.268
95060W        W67408  41.399   3.768  11.948
95061W        W67409  36.425  39.996   4.335
95062W        W67410  15.638  17.158  14.340
95063W        W67411   7.681  14.679  12.056
95064W        W67412  13.678  39.367  12.432
95065W        W67413  22.602  41.953  12.868
95066W        W67414  10.202  18.625  13.533
95067W        W67415   3.315   9.848   3.760
95068W        W67416  41.999   0.910   0.878
95069W        W67417  39.929  16.654   3.376
95070W        W67418   2.298   3.722  10.436
95071W        W67419  31.028   6.784   3.698
95072W        W67420  16.165  23.208  12.512
95073W        W67421  20.269   3.272  11.859
95074W        W67422  42.961   5.436   1.762
95075W        W67423   5.723  20.105  11.868
95076W        W67424   2.777  20.646  13.982
95077W        W67425  44.001  26.000   1.738
95078W        W67426  37.059  37.423  14.460
95079W        W67427  11.278  28.948  10.571
95080W        W67428  31.514  19.708  12.970
95081W        W67429  15.328  29.062  10.642
95082W        W67430  37.453  14.629   4.690
95083W        W67431   7.347  17.140   2.393
95084W        W67432  17.602  24.123   4.219
95085W        W67433   3.226   1.303  11.568
95086W        W67434   8.667  36.911   1.806
95087W        W67435  38.347  24.715   4.165
95088W        W67436  36.353  25.097   1.859
95089W        W67437  42.811  36.528   2.278
95090W        W67438  22.168   0.384  14.787
95091W        W67439  38.875  36.084   4.758
95092W        W67440  11.804  35.566   1.224
95093W        W67441  23.573  12.201   4.142
95094W        W67442  36.969  18.262   3.281
95095W        W67443   8.686  43.321  14.276
95096W        W67444  35.410  23.238  11.993
95097W        W67445   1.806  17.667   0.778
95098W        W67446  26.674  31.990   0.247
95099W        W67447  33.028  10.236   2.857
95100W        W67448  29.455  32.906  12.578
95101W        W67449  31.010  40.924  14.984
95102W        W67450  12.714  22.021  14.293
95103W        W67451   6.404  34.955   3.763
95104W        W67452  17.077  26.064  14.968
95105W        W67453   2.266  19.688   0.912
95106W        W67454   7.734  20.100   1.304
95107W        W67455  28.164  15.229  13.021
95108W        W67456  28.509  25.139  11.382
95109W        W67457  33.024  22.198  14.872
95110W        W67458   8.301  34.064  11.123
95111W        W67459  25.566   6.278  13.328
95112W        W67460   5.713  17.147  13.040
95113W        W67461  22.541  32.434  13.791
95114W        W67462   4.891  23.599   1.352
95115W        W67463  17.068   8.845  12.576
95116W        W67464  44.784  12.271  13.542
95117W        W67465   2.834  25.139  14.801
95118W        W67466   9.864  27.597   1.218
95119W        W67467  39.052  11.741  10.930
95120W        W67468  33.388  23.999  10.918
95121W        W67469  44.796  24.087  14.001
95122W        W67470  44.921   5.333   2.749
95123W        W67471   8.277  16.093  11.506
95124W        W67472  41.485   2.287   0.890
95125W        W67473  36.044  31.480  11.385
95126W        W67474   1.374  17.609  12.042
95127W        W67475  12.846  29.033  11.459
95128W        W67476  13.750   0.810  14.320
95129W        W67477   6.303  22.617   2.194
95130W        W67478  21.126   2.877   1.321
95131W        W67479  44.339  10.278  10.130
95132W        W67480  32.518   4.873  14.772
95133W        W67481   7.215  27.981  11.109
95134W        W67482  35.460   9.697  12.847
95135W        W67483   9.208  39.876   4.271
95136W        W67484  21.582  15.198   3.805
95137W        W67485  16.695   0.283   3.674
95138W        W67486  28.011  31.445  10.042
95139W        W67487   9.703  32.128  10.029
95140W        W67488  37.905  34.463  12.015
95141W        W67489  13.345  21.756   3.148
95142W        W67490  13.287  17.663  11.373
95143W        W67491  16.072  23.674  10.476
95144W        W67492   0.383  30.562   2.853
95145W        W67493   3.359  31.527   4.316
95146W        W67494  42.434  19.200  11.878
95147W        W67495  39.880  32.552   4.228
95148W        W67496  26.170  18.561   3.209
95149W        W67497  10.875  34.530   4.831
95150W        W67498  33.895  43.861   3.230
95151W        W67499  12.350  35.076  10.589
95152W        W67500  25.546  43.511  14.356
95153W        W67501  12.779  19.262   4.684
95154W        W67502   6.314  17.621   3.648
95155W        W67503  39.972  28.636  14.825
95156W        W67504  25.070  27.071  11.901
95157W        W67505  34.041  17.728  12.883
95158W        W67506  30.152  11.793  10.508
95159W        W67507   6.284  10.172   2.877
95160W        W67508  35.595  39.469   1.431
95161W        W67509  21.112  39.951  14.983
95162W        W67510  35.891  34.503   1.746
95163W        W67511  23.498  38.487  13.960
95164W        W67512  39.428  30.090   1.789
95165W        W67513  23.020   7.887  11.128
95166W        W67514  17.103  17.564  13.515
95167W        W67515  20.271   6.286  14.956
95168W        W67516   0.328   0.276   4.638
95169W        W67517  32.013  41.463  11.919
95170W        W67518  42.932  43.968  14.463
95171W        W67519   4.780   5.391   1.353
95172W        W67520  13.293  27.605  11.007
95173W        W67521  33.890  30.969   0.325
95174W        W67522  17.715   0.465  13.310
95175W        W67523  43.282  14.657  14.344
95176W        W67524  22.057   9.316   3.782
95177W        W67525  22.085  20.255  10.630
95178W        W67526  27.034  14.727   4.232
95179W        W67527   8.843  23.585   0.330
95180W        W67528  23.211  40.389  11.004
95181W        W67529  16.295   4.764  10.913
95182W        W67530  23.705  37.474  13.526
95183W        W67531   3.748  32.458   3.648
95184W        W67532  26.198  26.636  12.077
95185W        W67533  22.671  18.284   3.731
95186W        W67534  11.144  42.924   2.866
95187W        W67535  35.565  29.112  13.947
95188W        W67536  35.468  16.574   3.276
95189W        W67537  31.091   0.824   1.377
95190W        W67538  10.843  43.944   0.931
95191W        W67539   8.373  40.311  12.468
95192W        W67540  42.359  44.992  10.629
95193W        W67541  34.891  41.337   4.670
95194W        W67542  20.268  22.572  14.995
95195W        W67543  43.446   4.788   3.671
95196W        W67544  13.822  26.530  13.987
95197W        W67545  32.441   0.902  11.446
95198W        W67546  36.063  30.479  10.525
95199W        W67547  12.224   2.284  11.963
95200W        W67548  44.756  24.483   2.779
95201W        W67549  26.154  28.965  12.463
95202W        W67550  28.522  31.057   4.201
95203W        W67551  10.875  30.458  11.585
95204W        W67552  18.276  32.122   4.738
95205W        W67553   9.392  30.947   3.636
95206W        W67554   3.734  42.520   2.803
95207W        W67555  31.012  10.754  14.803
95208W        W67556  42.374  22.516   1.232
95209W        W67557  10.353  12.736  13.814
95210W        W67558  28.603  21.102   1.846
95211W        W67559  17.578  31.525   0.965
95212W        W67560   6.902  18.056  11.909
95213W        W67561  24.980  12.319  13.483
95214W        W67562  39.003  13.603   1.450
95215W        W67563  36.908  22.060   0.459
95216W        W67564  13.291  23.068   3.648
95217W        W67565  17.744  17.615  12.550
95218W        W67566  39.840  30.069  14.890
95219W        W67567  18.559   5.225   0.315
95220W        W67568  22.522   6.764  11.899
95221W        W67569  25.149  14.611  13.331
95222W        W67570  41.315  44.994   2.843
95223W        W67571  33.588  19.219   0.756
95224W        W67572   9.382   6.825  12.900
95225W        W67573   6.876  28.064   3.259
95226W        W67574  29.610  21.121   1.740
95227W        W67575   8.691  37.531   1.724
95228W        W67576  23.689  26.609  14.389
95229W        W67577  40.019  35.444  12.076
95230W        W67578   2.244  33.022   3.732
95231W        W67579  24.169  39.817  13.997
95232W        W67580  15.104  25.702   0.832
95233W        W67581  38.945  34.518   0.256
95234W        W67582  31.490  11.372   1.363
95235W        W67583  28.603  41.490   3.653
95236W        W67584  29.026   4.918  13.518
95237W        W67585  30.997  10.144  10.016
95238W        W67586  39.389  32.635  13.032
95239W        W67587  10.329   4.345   4.762
95240W        W67588  13.815  21.048  11.456
95241W        W67589  44.884  36.055  10.960
95242W        W67590  22.724  33.029  10.463
95243W        W67591   0.953  19.155   4.128
95244W        W67592  33.071  29.009  12.930
95245W        W67593  28.044   9.752  13.535
95246W        W67594   2.357  21.526   2.399
95247W        W67595  34.900  22.604  14.299
95248W        W67596   6.406  37.955   2.705
95249W        W67597  24.621  25.666   4.698
95250W        W67598   2.270  17.592   0.396
95251W        W67599   9.261  42.951   2.876
95252W        W67600  43.298  14.743   3.663
95253W        W67601  13.218  35.420  11.563
95254W        W67602  10.254  10.820  13.825
95255W        W67603  39.027  11.722   0.296
95256W        W67604  21.614   1.448   1.248
95257W        W67605   8.214  24.485   2.835
95258W        W67606  32.636  44.372   2.902
95259W        W67607  11.231  19.124   3.726
95260W        W67608  34.087  24.664   3.857
95261W        W67609  42.357  25.021  12.367
95262W        W67610  22.108  11.721  12.523
95263W        W67611  41.854  29.113  14.367
95264W        W67612  44.994  10.144   4.793
95265W        W67613  24.559  29.475   3.305
95266W        W67614  25.968  14.752  13.332
95267W        W67615  37.897  41.302  11.382
95268W        W67616  13.232   2.935  14.381
95269W        W67617  44.902  17.724  11.008
95270W        W67618   4.428  36.533  13.859
95271W        W67619  44.010  34.054   0.764
95272W        W67620  25.171   1.470  11.931
95273W        W67621  18.574   6.287   4.608
95274W        W67622  12.717  42.401   2.237
95275W        W67623  21.051  20.619   4.331
95276W        W67624  22.111  33.127   4.257
95277W        W67625  19.748  34.112  14.959
95278W        W67626  27.641   9.847   4.116
95279W        W67627  16.699  41.988  11.437
95280W        W67628   2.778  22.550  14.023
95281W        W67629  23.598   3.885  12.450
95282W        W67630  27.168  19.221   0.765
95283W        W67631   1.976   7.711  10.991
95284W        W67632  35.037  12.686   2.213
95285W        W67633   1.324   1.365   1.925
95286W        W67634  20.523  12.347  11.858
95287W        W67635  31.612  22.741   2.772
95288W        W67636  15.240   3.859  14.357
95289W        W67637  12.620  10.711   4.148
95290W        W67638  38.442   2.232   0.883
95291W        W67639  37.046  30.937   2.303
95292W        W67640  15.162  13.164   2.345
95293W        W67641   8.693  10.851   0.283
95294W        W67642  12.809  44.359   2.895
95295W        W67643  15.775  39.391  12.561
95296W        W67644   1.296  41.825   3.165
95297W        W67645   3.863  10.831  11.059
95298W        W67646   0.823  22.044   3.370
95299W        W67647  24.572  39.317   4.267
95300W        W67648   9.648  21.593   2.411
95301W        W67649  23.672  39.841  14.825
95302W        W67650  26.171  37.849   3.802
95303W        W67651  38.381  41.797  12.001
95304W        W67652  34.541  19.258   4.831
95305W        W67653  29.076  42.787  10.550
95306W        W67654  10.817  33.381  13.411
95307W        W67655  37.082  43.456  13.409
95308W        W67656  17.265  33.091   3.684
95309W        W67657  33.420  15.818  13.398
95310W        W67658  17.713   4.917  12.411
95311W        W67659  38.921  10.784  11.918
95312W        W67660  12.282  22.511   2.864
95313W        W67661  22.687  27.636   2.820
95314W        W67662  43.396  16.739  13.361
95315W        W67663  38.539  11.167   4.245
95316W        W67664  39.819   5.914   0.935
95317W        W67665  18.640  19.150  11.515
95318W        W67666  25.653  15.181  13.823
95319W        W67667  40.822  20.178  13.513
95320W        W67668  34.011  28.979  11.391
95321W        W67669  39.481  42.833   0.952
95322W        W67670  40.457   7.206  11.931
95323W        W67671   2.254  16.590   4.748
95324W        W67672  37.495  39.344  10.496
95325W        W67673  41.997  10.848   1.865
95326W        W67674  34.484  35.090  14.986
95327W        W67675  35.072  36.991  14.909
95328W        W67676  44.397  31.514   1.779
95329W        W67677  40.882  29.129   2.373
95330W        W67678  24.701  26.161   4.663
95331W        W67679  38.326  32.094  14.845
95332W        W67680  18.683  16.162  11.388
95333W        W67681   2.332  14.162   0.896
95334W        W67682  36.364  13.192   2.371
95335W        W67683  34.967  18.751   0.775
95336W        W67684   0.898  20.065  13.874
95337W        W67685  29.023  17.780  14.880
95338W        W67686  29.125  13.150  12.057
95339W        W67687  44.456  29.049   2.187
95340W        W67688  20.085  32.444  14.830
95341W        W67689   3.926  42.462  13.325
95342W        W67690  20.687  13.741   0.774
95343W        W67691  37.973   8.215   9.538
95344W        W67692  18.583   2.336  11.012
95345W        W67693  32.922   5.718  12.363
95346W        W67694   8.867  31.075   5.630
95347W        W67695  38.967  40.868  12.556
95348W        W67696  14.125   3.883   2.889
95349W        W67697  18.751  21.062   2.717
95350W        W67698   0.397  38.918  13.057
95351W        W67699  38.968  10.843  11.111
95352W        W67700  22.209  28.045  13.368
95353W        W67701  31.083   6.237   1.244
95354W        W67702   6.216  14.247  10.964
95355W        W67703   6.234  20.258   0.330
95356W        W67704   0.926   6.680  13.522
95357W        W67705   6.830  34.471  12.890
95358W        W67706  15.779  42.988   1.820
95359W        W67707  24.641  42.878  14.010
95360W        W67708  41.400  32.974   4.710
95361W        W67709  12.856  32.947   1.350
95362W        W67710  26.126  10.834  13.534
95363W        W67711  44.334   3.817   1.225
95364W        W67712  20.625   4.779  14.783
95365W        W67713  44.901  34.007   0.456
95366W        W67714  42.490  32.437  12.926
95367W        W67715  30.470   8.217   4.217
95368W        W67716  38.015  24.692  10.425
95369W        W67717  30.115  26.100   2.895
95370W        W67718  34.030  18.231   3.168
95371W        W67719  37.992   4.389   5.104
95372W        W67720  37.962  32.496   2.727
95373W        W67721  30.923  12.648   0.834
95374W        W67722  15.799  27.041   1.826
95375W        W67723  19.728   7.716   1.345
95376W        W67724  27.198  16.749   0.399
95377W        W67725  13.705  36.426  13.891
95378W        W67726  35.487   6.690   1.699
95379W        W67727  16.628  35.364  12.023
95380W        W67728   0.947   7.784   4.266
95381W        W67729  14.722  35.080   2.294
95382W        W67730  28.003  16.586   1.816
95383W        W67731  29.009  20.547   3.146
95384W        W67732  30.519  22.141   4.273
95385W        W67733  24.585  44.437  11.397
95386W        W67734   8.866   6.700  13.434
95387W        W67735   7.405  34.524   1.910
95388W        W67736  14.231  22.533  10.518
95389W        W67737  28.508  22.109  13.512
95390W        W67738  32.014  36.966   1.348
95391W        W67739  36.912  22.068   4.260
95392W        W67740   1.400   4.734   2.857
95393W        W67741  35.058  31.436  11.028
95394W        W67742   1.874  16.598   3.201
95395W        W67743  25.502  17.206  10.496
95396W        W67744   2.403  12.166   0.860
95397W        W67745   0.979  24.617  10.981
95398W        W67746   2.790   0.898  13.466
95399W        W67747  34.989  31.519   3.264
95400W        W67748  23.992  43.885   0.270
95401W        W67749  19.621  38.836  13.887
95402W        W67750  38.022  11.849   4.706
95403W        W67751   4.338  12.702   1.890
95404W        W67752  23.600  12.693  13.527
95405W        W67753  31.528  10.184  10.444
95406W        W67754  29.622   9.737  10.957
95407W        W67755   9.363  32.965  14.989
95408W        W67756   2.379  22.658  12.411
95409W        W67757  25.981  14.654  14.002
95410W        W67758  18.289  35.035  10.562
95411W        W67759  28.521   1.341  12.538
95412W        W67760  14.117  18.139  12.936
95413W        W67761  43.372  26.500  13.806
95414W        W67762   1.468   1.355   1.346
95415W        W67763  33.064  14.170  14.032
95416W        W67764  43.985  35.091  12.442
95417W        W67765  21.615  21.119   2.352
95418W        W67766   5.742  41.353  13.844
95419W        W67767  44.876  20.700  13.802
95420W        W67768  22.126  16.811  14.281
95421W        W67769  40.017  28.545  10.638
95422W        W67770  21.130   3.834   9.936
95423W        W67771  28.018  26.617   2.665
95424W        W67772  30.015  38.075  11.983
95425W        W67773  29.618  44.851  13.809
95426W        W67774  27.618  28.964   0.444
95427W        W67775  15.736  37.353   4.277
95428W        W67776  27.955  39.822  10.988
95429W        W67777  24.598  27.493  11.971
95430W        W67778  43.848  38.036   2.405
95431W        W67779  29.081  29.089  12.359
95432W        W67780  39.419  37.433  14.340
95433W        W67781  43.785  29.992  13.520
95434W        W67782   3.908   5.866   2.696
95435W        W67783  31.614  38.398  14.311
95436W        W67784  27.146  40.524  10.117
95437W        W67785   9.736  20.213   2.840
95438W        W67786   6.699  13.272   1.299
95439W        W67787  41.033  13.144  10.947
95440W        W67788  28.171  25.038  14.281
95441W        W67789   2.806   5.723   2.900
95442W        W67790   4.367  21.243  12.964
95443W        W67791  23.006   2.351  11.931
95444W        W67792  24.199  36.395   1.805
95445W        W67793  41.392  16.213   4.715
95446W        W67794  44.772  19.694  12.965
95447W        W67795  30.034  35.987   4.754
95448W        W67796  16.297   2.877   4.204
95449W        W67797  30.100  32.011  10.546
95450W        W67798  37.401  42.348  12.049
95451W        W67799  26.463  13.163   4.656
95452W        W67800   6.792   9.196   1.261
95453W        W67801  44.273  37.542   0.336
95454W        W67802  33.955  20.707   2.226
95455W        W67803  24.210  42.820  11.931
95456W        W67804  27.523  25.159  11.558
95457W        W67805  35.100  34.879   9.950
95458W        W67806  40.854   6.898  11.461
95459W        W67807   0.976  28.094   2.707
95460W        W67808   5.252  32.975  14.397
95461W        W67809  22.039  33.037   2.804
95462W        W67810  33.068  28.981   0.440
95463W        W67811  36.050  10.727  14.475
95464W        W67812  13.107   7.876   3.314
95465W        W67813  12.824  40.890  14.002
95466W        W67814  39.040  41.976   1.754
95467W        W67815  44.841  19.074  11.372
95468W        W67816   3.894   1.419  10.623
95469W        W67817  23.234  19.745  14.405
95470W        W67818  44.870  19.578   4.713
95471W        W67819  30.428  40.536  12.443
95472W        W67820   7.343  42.011  13.508
95473W        W67821   5.422  10.690  14.819
95474W        W67822  31.414  24.009  11.010
95475W        W67823  38.570  21.172   0.396
95476W        W67824  23.602  37.924  13.498
95477W        W67825  22.680  12.214  11.068
95478W        W67826   8.720  40.855   3.759
95479W        W67827  15.250  28.468   3.189
95480W        W67828  29.086   0.455   1.818
95481W        W67829  28.622   9.363   4.640
95482W        W67830  21.080   1.927   4.632
95483W        W67831  11.670  16.791   0.262
95484W        W67832  37.398  22.027  14.454
95485W        W67833  21.624  43.302   3.861
95486W        W67834  36.473  30.489   1.778
95487W        W67835   1.901  22.118   0.391
95488W        W67836  32.515   3.819  12.538
95489W        W67837  36.986   9.356  13.864
95490W        W67838   0.772  22.241  12.547
95491W        W67839  21.564   9.822  14.891
95492W        W67840  27.651  37.548   3.165
95493W        W67841  11.802   4.742  13.384
95494W        W67842  25.063  34.485  14.365
95495W        W67843  28.539  27.621   2.849
95496W        W67844   6.414  35.423   1.248
95497W        W67845  25.581  30.121  14.011
95498W        W67846  17.168  13.740  13.873
95499W        W67847   7.763  18.579  12.387
95500W        W67848  20.659   6.410  13.055
95501W        W67849   2.824   3.711  14.376
95502W        W67850  22.184   1.263  10.964
95503W        W67851   8.299   3.436   2.853
95504W        W67852   2.269  38.001  12.879
95505W        W67853  27.192  38.977   1.780
95506W        W67854  10.823  36.493   4.624
95507W        W67855  32.925  25.566   3.662
95508W        W67856   9.221   3.312   0.790
95509W        W67857  19.560  26.130   2.230
95510W        W67858  28.655  10.142   0.369
95511W        W67859   3.450  25.486   4.229
95512W        W67860  23.498  10.824   5.622
95513W        W67861  27.977   3.753   3.748
95514W        W67862  15.738  23.232  11.911
95515W        W67863  11.279  25.545   0.393
95516W        W67864  15.617   3.321   5.190
95517W        W67865   7.686   6.271   4.329
95518W        W67866  21.665  44.366  14.366
95519W        W67867  13.840  30.486  10.627
95520W        W67868  23.231  33.466   0.790
95521W        W67869   1.843  38.495   2.223
95522W        W67870  19.278  27.166   2.726
95523W        W67871  19.672   0.832  11.544
95524W        W67872  23.572  39.325   2.253
95525W        W67873   3.713  38.537  12.465
95526W        W67874  19.538   6.413   1.739
95527W        W67875  18.074   3.427   4.144
95528W        W67876  34.090  37.553   0.793
95529W        W67877  23.206   4.870   3.755
95530W        W67878  39.862  29.546  13.988
95531W        W67879  32.426  32.099   0.936
95532W        W67880  23.560  21.255   3.379
95533W        W67881  35.558  15.711   0.759
95534W        W67882  42.998  24.047   2.825
95535W        W67883   5.395  11.232  10.519
95536W        W67884  16.285  16.240   3.161
95537W        W67885  30.994  16.272  11.432
95538W        W67886  39.411  24.485   3.212
95539W        W67887   5.848   4.352  10.580
95540W        W67888   6.414   8.694   3.757
95541W        W67889   8.390  44.496   2.697
95542W        W67890  17.245  18.082  11.545
95543W        W67891  19.085  37.871  10.560
95544W        W67892  29.515  32.560   1.804
95545W        W67893  26.523  41.826   0.369
95546W        W67894  38.484  16.775  10.977
95547W        W67895  40.800   8.269   3.293
95548W        W67896  19.186  15.282   0.945
95549W        W67897   2.320  11.268   2.382
95550W        W67898  17.605  18.221   3.202
95551W        W67899   1.977  21.544  13.896
95552W        W67900  25.697   0.869   2.362
95553W        W67901  10.705  35.038   1.334
95554W        W67902  37.370   9.378   0.829
95555W        W67903  32.060  32.136  11.502
95556W        W67904  28.017   2.907  14.283
95557W        W67905  38.504  16.097  14.505
95558W        W67906  13.838  15.698   2.662
95559W        W67907  21.632  17.074   1.890
95560W        W67908  44.766  30.449  11.998
95561W        W67909   2.371  26.087   1.235
95562W        W67910   8.657  35.391   1.824
95563W        W67911  28.496  26.202   3.656
95564W        W67912  22.609  19.702   2.371
95565W        W67913  37.547  31.648  13.498
95566W        W67914  19.567   6.226   3.207
95567W        W67915  17.066  12.736  14.771
95568W        W67916  21.755  32.633  12.053
95569W        W67917   0.750  13.139   1.705
95570W        W67918   1.338  14.318  12.092
95571W        W67919   7.763  30.530   0.797
95572W        W67920  21.103  41.378   0.828
95573W        W67921   0.806  28.677   1.310
95574W        W67922   2.383  36.013  13.384
95575W        W67923  28.607   6.733  14.015
95576W        W67924  30.925  28.646  13.912
95577W        W67925  30.983  18.090  10.955
95578W        W67926  12.284   1.260   0.268
95579W        W67927  14.242  33.068  13.861
95580W        W67928  44.848  21.638  13.442
95581W        W67929   2.819  40.922  10.623
95582W        W67930  19.718  16.194  12.900
95583W        W67931   5.876  17.169   3.312
95584W        W67932  17.219  10.382  13.383
95585W        W67933  11.333  14.221  14.939
95586W        W67934  30.975  36.360  12.908
95587W        W67935  22.072  44.502  11.396
95588W        W67936  31.449  22.606  13.324
95589W        W67937  38.950   8.798  12.484
95590W        W67938  15.284  23.001  11.009
95591W        W67939   6.728  41.349  13.954
95592W        W67940  30.641  37.577   0.387
95593W        W67941   2.812  23.521  12.924
95594W        W67942   9.844  24.198   4.308
95595W        W67943  41.935   8.221   1.878
95596W        W67944  18.581  19.115  11.041
95597W        W67945  38.540  30.444   3.245
95598W        W67946   5.283  29.608  14.299
95599W        W67947  25.628  31.989  11.119
95600W        W67948  12.631  41.039   2.295
95601W        W67949  40.804  30.986  11.907
95602W        W67950  13.237  10.153   2.783
95603W        W67951  33.502  14.773  11.083
95604W        W67952  21.713  11.849   1.412
95605W        W67953  34.957  28.114  10.419
95606W        W67954  10.306  20.583  10.889
95607W        W67955  16.597  40.324   3.292
95608W        W67956   5.316  14.245   2.885
95609W        W67957  37.557  34.940  12.970
95610W        W67958  41.853  25.964   3.156
95611W        W67959  24.160   1.348   3.335
95612W        W67960  30.481   4.936  11.876
95613W        W67961  44.480  25.102  10.465
95614W        W67962  42.954  42.001   3.645
95615W        W67963  35.437  24.528   0.324
95616W        W67964  20.681  35.913  11.019
95617W        W67965  21.706  20.180  11.862
95618W        W67966   5.346   7.301   3.757
95619W        W67967  17.703  14.638  12.417
95620W        W67968  17.157  18.086  14.989
95621W        W67969  16.076   5.702  10.944
95622W        W67970  29.557   5.831  10.427
95623W        W67971   6.698  19.181   3.630
95624W        W67972   9.185  22.101  11.520
95625W        W67973  14.639  28.637   4.333
95626W        W67974  12.238  19.091  13.540
95627W        W67975  44.332  15.088   1.412
95628W        W67976  13.144  15.177  10.425
95629W        W67977  41.349  27.168  11.034
95630W        W67978   5.392  20.241  12.482
95631W        W67979  15.092  44.923   1.450
95632W        W67980  11.329   9.167  12.480
95633W        W67981  15.587   5.756   2.776
95634W        W67982  43.891  24.701  11.888
95635W        W67983  27.080  18.740  10.639
95636W        W67984  40.407  39.478   3.784
95637W        W67985   2.326  20.222  14.978
95638W        W67986  27.456  43.326   1.856
95639W        W67987  29.996  28.081  14.395
95640W        W67988  20.108  41.963  12.546
95641W        W67989  35.026   9.755  11.571
95642W        W67990  44.393   9.768   1.805
95643W        W67991   5.311  17.250   4.645
95644W        W67992   7.689  25.634   1.333
95645W        W67993  31.624  21.695   2.399
95646W        W67994  20.181  34.894   2.300
95647W        W67995  38.074  16.708  13.807
95648W        W67996  27.988   9.156  12.974
95649W        W67997  38.400  17.698  10.986
95650W        W67998   9.365  28.674   2.861
95651W        W67999   2.447  12.798  13.328
95652W        W68000  12.261  30.493   2.331
95653W        W68001   8.325   7.754   4.648
95654W        W68002  22.692   6.872   2.841
95655W        W68003  21.705  11.355   3.303
95656W        W68004  41.333   5.350   1.814
95657W        W68005  36.918  30.625  14.496
95658W        W68006  12.160  38.361   0.961
95659W        W68007  10.349  25.542  11.035
95660W        W68008  43.967   2.892  13.888
95661W        W68009  21.632   2.849   4.614
95662W        W68010   6.306   9.356  10.585
95663W        W68011   2.238  21.603  10.608
95664W        W68012  28.169  44.313  11.983
95665W        W68013  30.979  41.830   1.839
95666W        W68014   7.201   0.410  14.958
95667W        W68015   7.889  35.931  13.486
95668W        W68016  10.688  19.675  13.470
95669W        W68017  33.623  21.193   5.206
95670W        W68018  23.139  19.543  14.901
95671W        W68019  23.024  21.186  11.043
95672W        W68020  19.067  39.371  13.429
95673W        W68021  33.568  12.183   4.829
95674W        W68022  11.682  43.429   1.349
95675W        W68023  13.332   8.340   0.801
95676W        W68024  28.442  42.927  13.859
95677W        W68025  11.825  44.355  14.938
95678W        W68026  26.696  15.813  13.836
95679W        W68027  27.130   0.982   2.805
95680W        W68028   4.259  32.121   0.892
95681W        W68029   1.888  33.585  14.831
95682W        W68030  26.604  23.612   0.349
95683W        W68031  28.530   3.229   4.236
95684W        W68032  35.591   8.231   3.317
95685W        W68033  36.926  25.964   2.715
95686W        W68034  14.293  31.962   3.361
95687W        W68035  21.180  17.734   0.803
95688W        W68036  41.839  38.981  13.850
95689W        W68037  27.188  40.914  10.620
95690W        W68038  23.713  37.031   4.124
95691W        W68039  40.919  39.390  14.940
95692W        W68040  32.125   1.793  14.453
95693W        W68041  28.135  24.610   0.786
95694W        W68042  12.144  42.959   4.118
95695W        W68043  34.956  32.023   3.779
95696W        W68044  35.415   6.724   2.692
95697W        W68045  13.760  36.563  10.489
95698W        W68046  28.138  13.173  11.611
95699W        W68047  25.049  41.005   0.404
95700W        W68048  31.619   3.937   2.308
95701W        W68049   7.726   7.777  13.517
95702W        W68050  10.150  39.338   0.924
95703W        W68051   2.376   9.701   0.739
95704W        W68052  17.600   5.383  11.987
95705W        W68053   1.826  38.895  12.085
95706W        W68054  24.483  28.017  14.412
95707W        W68055   6.222  10.802   3.785
95708W        W68056  16.687  17.153   2.662
95709W        W68057  18.130  44.862   3.180
95710W        W68058  38.914  18.291   0.346
95711W        W68059   7.761   9.371   3.295
95712W        W68060  35.566  18.742  10.434
95713W        W68061   1.441  27.159   0.896
95714W        W68062  40.437  19.593  14.884
95715W        W68063   3.272  42.860  12.352
95716W        W68064  21.708  22.192   2.749
95717W        W68065  28.491  34.496  11.128
95718W        W68066  33.482  44.773  14.784
95719W        W68067  40.946  40.953  11.606
95720W        W68068   7.177   7.330   0.396
95721W        W68069  39.033  27.552   2.203
95722W        W68070  35.463  42.879  11.975
95723W        W68071  23.153  10.280  12.486
95724W        W68072   3.861  28.599   1.342
95725W        W68073   5.216  15.732  10.421
95726W        W68074  16.196   7.846  11.916
95727W        W68075  20.083   4.437  11.890
95728W        W68076  17.127  28.940  13.471
95729W        W68077  31.982   5.906   2.693
95730W        W68078  31.017  13.180   3.733
95731W        W68079   5.397   8.693   0.264
95732W        W68080  12.653  12.744   1.925
95733W        W68081   2.763   8.223  11.044
95734W        W68082  10.779   6.373  12.389
95735W        W68083  44.448  34.380  14.397
95736W        W68084  38.992  38.513   0.291
95737W        W68085  22.207   7.259   1.721
95738W        W68086  19.554  26.144  13.029
95739W        W68087  27.587  30.445  12.519
95740W        W68088  15.085  11.369   9.479
95741W        W68089  43.850   1.467   4.145
95742W        W68090  26.985  29.516  10.006
95743W        W68091  17.567  20.661   2.684
95744W        W68092   8.864  30.602   9.925
95745W        W68093   8.802  15.304  13.414
95746W        W68094   0.447  19.148  10.613
95747W        W68095  15.292   0.907  10.500
95748W        W68096  41.436  31.945   9.993
95749W        W68097  19.727  15.195  13.313
95750W        W68098  13.245  14.660  13.457
95751W        W68099  25.096  38.516   1.722
95752W        W68100  41.917   7.878   1.835
95753W        W68101  29.475   0.964  10.994
95754W        W68102  30.609  37.467   0.917
95755W        W68103   7.280  13.111  10.916
95756W        W68104  30.082  16.721   3.732
95757W        W68105   9.263  29.926  11.040
95758W        W68106  31.976  35.386   0.454
95759W        W68107  10.281  31.090   0.472
95760W        W68108  15.200   0.447   0.318
95761W        W68109  21.706  23.567   4.686
95762W        W68110  17.093   6.199   2.292
95763W        W68111  37.070  18.595  11.573
95764W        W68112  21.703  33.509  12.920
95765W        W68113  37.918  31.412  14.933
95766W        W68114  42.429  38.016   3.852
95767W        W68115  30.022  35.980  14.489
95768W        W68116   9.295  32.003   2.380
95769W        W68117  33.443   3.340   0.306
95770W        W68118  24.639  20.191  14.999
95771W        W68119  15.084  26.648  13.927
95772W        W68120  33.507  25.519  12.853
95773W        W68121  43.017  31.042  14.413
95774W        W68122  22.228  22.590  12.077
95775W        W68123  33.558  24.619  11.875
95776W        W68124  21.600  28.463   0.808
95777W        W68125  26.051   6.222  11.049
95778W        W68126  13.297  19.624  12.558
95779W        W68127   4.853  34.450  13.919
95780W        W68128  23.593   7.871   2.222
95781W        W68129  33.470  41.812  11.386
95782W        W68130   2.466  35.933   3.861
95783W        W68131  25.012  33.550   1.388
95784W        W68132  27.624  25.499  12.935
95785W        W68133   3.408  26.534   1.852
95786W        W68134  37.532  40.845   3.252
95787W        W68135   8.760  44.260   5.220
95788W        W68136  42.942  20.196  14.784
95789W        W68137  34.095  33.556   2.339
95790W        W68138   9.151   8.812  12.824
95791W        W68139  27.546  16.808  10.955
95792W        W68140   2.429  22.170   4.633
95793W        W68141  18.191  29.940  10.008
95794W        W68142  13.683   0.277  12.340
95795W        W68143  26.995  14.801  11.392
95796W        W68144  42.440  21.055   1.866
95797W        W68145   6.381  13.163   2.740
95798W        W68146  19.281  27.487   1.226
95799W        W68147  43.924  19.727   3.799
95800W        W68148   6.866  21.023   1.262
95801W        W68149  35.478   3.738   3.337
95802W        W68150   6.279   9.793   0.466
95803W        W68151   4.244  23.186   0.898
95804W        W68152  37.832  25.700   3.857
95805W        W68153   7.861  36.558   2.775
95806W        W68154   3.409  32.971   0.452
95807W        W68155  40.525  41.423  10.412
95808W        W68156  23.238  19.749  13.475
95809W        W68157  29.482  11.748  12.454
95810W        W68158  42.009  23.571   1.793
95811W        W68159   7.711  36.469  12.007
95812W        W68160  28.603   4.247   4.644
95813W        W68161   7.722  11.732  13.803
95814W        W68162  12.684  39.345   4.283
95815W        W68163   8.381  34.066  14.384
95816W        W68164   4.906  32.561   2.894
95817W        W68165  41.479  23.219  13.359
95818W        W68166   1.363  11.662   3.721
95819W        W68167  39.938  29.612   4.342
95820W        W68168  13.632   3.270  14.429
95821W        W68169   6.791   4.347  12.513
95822W        W68170  21.676  22.694   3.730
95823W        W68171   0.775  33.576  14.286
95824W        W68172  10.834  42.017  13.045
95825W        W68173  11.867  18.133  13.470
95826W        W68174  41.385  31.432  12.376
95827W        W68175  28.011  15.253   4.223
95828W        W68176  38.831  20.752  12.522
95829W        W68177  28.680  37.488  10.909
95830W        W68178  30.418   1.793   2.236
95831W        W68179  30.456  36.356   0.930
95832W        W68180  43.469  37.401   4.697
95833W        W68181  19.090  17.214   0.277
95834W        W68182  39.560  30.524   2.408
95835W        W68183  12.670  11.689   0.941
95836W        W68184  10.783   1.377  12.388
95837W        W68185  16.733  13.319   2.364
95838W        W68186   5.787  21.112   1.710
95839W        W68187  19.780  26.460   4.158
95840W        W68188   8.246  19.556  13.358
95841W        W68189   4.219  39.506  11.543
95842W        W68190  39.943   8.730   0.918
95843W        W68191  13.688   8.379   4.754
95844W        W68192  18.641   4.857  11.476
95845W        W68193   5.409  34.976  13.438
95846W        W68194  26.036  28.933  13.979
95847W        W68195   9.667   1.406  11.593
95848W        W68196  12.272  39.514  14.787
95849W        W68197  23.576  16.160   4.348
95850W        W68198  22.506  34.611   2.226
95851W        W68199   3.314  20.046  12.040
95852W        W68200  23.695   4.790   0.379
95853W        W68201  16.602  15.123   0.732
95854W        W68202  28.640  30.557  14.501
95855W        W68203  40.318  16.109   0.941
95856W        W68204  29.154  29.145  12.024
95857W        W68205  28.160   1.404  10.443
95858W        W68206  38.927  35.087  10.537
95859W        W68207  16.148  38.419   4.828
95860W        W68208  20.593  25.178  13.465
95861W        W68209   5.197   0.402  12.557
95862W        W68210  42.013   2.310  13.843
95863W        W68211  44.010  36.867  13.546
95864W        W68212  29.659  21.626   1.815
95865W        W68213   7.222  40.962   4.770
95866W        W68214  21.528  16.767   0.379
95867W        W68215  43.440  38.449   1.411
95868W        W68216  25.651  15.756   1.759
95869W        W68217  13.606  12.296   0.381
95870W        W68218   8.831  11.642  12.349
95871W        W68219  21.041  29.115   2.864
95872W        W68220  24.700  22.235  13.815
95873W        W68221  20.596  21.047  10.968
95874W        W68222   4.394   4.937   4.227
95875W        W68223   9.755  25.103  11.570
95876W        W68224  37.581  16.111   3.191
95877W        W68225  30.576  26.524  11.551
95878W        W68226  30.089  33.563   1.696
95879W        W68227  10.843  38.977   0.800
95880W        W68228  42.030  26.462   4.789
95881W        W68229  36.852  39.956  14.507
95882W        W68230  31.437   0.463  10.466
95883W        W68231  29.050  37.484  11.858
95884W        W68232  37.484  18.771   3.774
95885W        W68233   8.360  17.768   3.351
95886W        W68234   7.843  11.221   2.380
95887W        W68235  38.470  14.275   4.619
95888W        W68236  31.078  23.017  12.384
95889W        W68237  25.670  31.409   1.716
95890W        W68238  43.834   9.780   1.309
95891W        W68239  40.434  42.468   2.344
95892W        W68240  34.411  26.159   0.918
95893W        W68241  21.743  31.036   1.835
95894W        W68242  35.968  30.995  11.905
95895W        W68243  11.182  19.178  10.463
95896W        W68244  17.615  42.344  12.998
95897W        W68245   5.798  31.905  14.781
95898W        W68246  17.150  43.014  14.298
95899W        W68247   4.401  41.512   0.964
95900W        W68248   9.324  10.379   0.395
95901W        W68249  22.580  24.532   2.178
95902W        W68250  20.739   3.288  14.770
95903W        W68251  28.132  18.761   2.364
95904W        W68252  19.050  13.335  11.952
95905W        W68253  14.626  33.965   0.854
95906W        W68254  28.611  23.174  13.376
95907W        W68255  43.441  29.131  13.856
95908W        W68256  34.583  27.139   2.269
95909W        W68257  20.244   2.227  14.909
95910W        W68258  18.157  32.624   1.361
95911W        W68259  20.729  37.491  11.035
95912W        W68260  19.709  27.458  13.366
95913W        W68261  27.053  10.151  10.632
95914W        W68262  32.927   8.798   3.782
95915W        W68263  43.880  39.403  14.982
95916W        W68264  29.550  25.031  12.916
95917W        W68265   1.251  36.926  13.393
95918W        W68266   7.832  11.208   0.773
95919W        W68267  13.198   9.682  11.420
95920W        W68268  26.660  19.697   3.702
95921W        W68269   7.414  15.616   4.170
95922W        W68270  19.163  38.871   1.229
95923W        W68271  34.452  41.847   0.967
95924W        W68272  14.110   6.402   3.823
95925W        W68273  12.192  38.842  13.016
95926W        W68274   1.803  10.267   2.687
95927W        W68275  23.683  39.004   0.484
95928W        W68276  36.447  24.724  11.589
95929W        W68277  23.013  43.511  10.478
95930W        W68278  43.276  24.649  11.042
95931W        W68279  39.501   0.270  14.907
95932W        W68280  32.893  29.487  13.978
95933W        W68281  28.603  21.657  10.888
95934W        W68282  27.682   5.826  10.942
95935W        W68283  24.597   5.857  13.855
95936W        W68284   9.212  30.462   3.361
95937W        W68285   9.367  24.006  10.408
95938W        W68286  16.600  37.561  12.995
95939W        W68287  19.579  43.501  13.457
95940W        W68288  26.175  27.023  13.927
95941W        W68289  29.667  19.611  12.835
95942W        W68290  13.634  23.056  14.327
95943W        W68291  25.137  13.293  13.059
95944W        W68292  36.004  43.883  12.343
95945W        W68293   6.797  10.670   3.773
95946W        W68294  36.862  18.711  10.504
95947W        W68295  33.488  31.073   2.414
95948W        W68296  36.879  25.086  11.090
95949W        W68297  19.537  20.651  11.903
95950W        W68298  11.643  44.835   4.275
95951W        W68299  17.246   2.355  13.798
95952W        W68300   8.790  36.541   2.774
95953W        W68301  39.389  23.150   3.227
95954W        W68302  39.837  34.394  12.978
95955W        W68303   9.254  44.832   1.708
95956W        W68304  25.536  38.419   2.798
95957W        W68305  24.606  14.097  11.423
95958W        W68306  34.392  31.544   3.155
95959W        W68307  42.023  16.094   0.462
95960W        W68308  31.989   3.793   0.301
95961W        W68309  23.629  29.499  13.353
95962W        W68310  19.225   8.332   3.795
95963W        W68311  11.677  34.112   0.482
95964W        W68312  24.710   0.830  13.547
95965W        W68313  39.469  25.209  14.785
95966W        W68314  33.593  31.039  10.059
95967W        W68315   0.977  16.151   1.742
95968W        W68316  27.062   7.287  13.318
95969W        W68317  20.586  20.561  14.503
95970W        W68318  20.185  21.599   4.189
95971W        W68319   5.343  39.556  11.598
95972W        W68320   3.390  39.893   0.377
95973W        W68321   8.728  11.676  14.397
95974W        W68322   1.826  10.740  11.979
95975W        W68323  34.504  31.458   2.874
95976W        W68324  25.502  44.916   4.737
95977W        W68325  44.438  39.908   2.362
95978W        W68326   2.381  14.645   1.729
95979W        W68327   4.875  42.821  10.447
95980W        W68328  12.185  27.030   1.439
95981W        W68329   5.895  26.037   2.321
95982W        W68330   6.798  13.672   1.781
95983W        W68331  13.146  26.645  10.426
95984W        W68332  19.261  26.150   1.736
95985W        W68333  38.918  29.562  13.334
95986W        W68334  14.687  11.711  12.040
95987W        W68335  11.174  44.948   2.411
95988W        W68336   1.292  44.479  11.925
95989W        W68337  13.255  21.513   4.723
95990W        W68338   7.284  44.446   0.410
95991W        W68339   2.246   4.781   3.184
95992W        W68340  25.599  27.447   1.884
95993W        W68341  41.300  18.214  14.765
95994W        W68342   0.831   2.736   0.946
95995W        W68343  19.215  25.098   4.338
95996W        W68344   1.917   4.212   2.356
95997W        W68345  44.770  14.303  11.072
95998W        W68346  29.056  43.821  12.855
95999W        W68347  20.758  10.253   1.273
96000W        W68348  18.742  27.023   1.433
96001W        W68349   2.315  33.421  13.825
96002W        W68350   3.433  17.224  10.558
96003W        W68351   6.749   0.788  12.554
96004W        W68352  20.680  42.971  13.413
96005W        W68353  38.054  27.633  13.348
96006W        W68354  29.142  28.665   0.388
96007W        W68355  12.182  18.109   1.923
96008W        W68356  33.503  27.533   2.297
96009W        W68357  39.344  13.311  10.529
96010W        W68358  28.009  42.883   1.338
96011W        W68359  33.417  33.059  10.973
96012W        W68360   0.372  31.562   0.333
96013W        W68361  15.271   3.336  13.825
96014W        W68362  36.417  11.760   4.608
96015W        W68363  42.479  30.001  12.901
96016W        W68364  41.419  36.571  13.313
96017W        W68365   8.168  13.259  12.568
96018W        W68366  17.203  43.878  11.064
96019W        W68367  22.041  37.529   2.305
96020W        W68368  18.566   7.842   1.927
96021W        W68369  12.227   0.257   2.330
96022W        W68370   1.862  28.952   2.845
96023W        W68371  14.658  36.538   3.849
96024W        W68372  17.175   7.765   3.691
96025W        W68373  21.261   6.325  11.612
96026W        W68374   6.251   0.421  13.463
96027W        W68375   8.248  19.712   3.298
96028W        W68376  36.537  31.994   3.840
96029W        W68377   2.813  36.859   3.380
96030W        W68378  11.713   3.385  10.552
96031W        W68379  36.491  10.834  13.874
96032W        W68380  37.517  15.176  14.511
96033W        W68381  21.178  44.490  10.971
96034W        W68382  24.545  21.103  14.514
96035W        W68383  18.685  18.762   5.167
96036W        W68384   6.773  14.169   0.343
96037W        W68385   2.841  19.243   2.365
96038W        W68386  15.147  23.173   2.267
96039W        W68387  39.812  37.515   0.327
96040W        W68388  11.750  36.961   1.858
96041W        W68389   0.914  25.010  12.953
96042W        W68390  18.612  20.575  14.301
96043W        W68391  31.911  37.403  10.431
96044W        W68392  40.330  11.165   0.890
96045W        W68393  28.113  24.227  12.984
96046W        W68394  24.601   2.934  12.427
96047W        W68395   9.661   1.407   4.681
96048W        W68396  25.053  12.673  10.937
96049W        W68397   8.833  39.343  10.451
96050W        W68398  37.533   0.359   3.221
96051W        W68399  10.288  32.118  13.529
96052W        W68400  19.103  16.240  11.536
96053W        W68401  21.711  18.140  14.407
96054W        W68402  37.059   8.391   0.729
96055W        W68403  41.368   2.282  14.515
96056W        W68404  22.536   1.267   4.250
96057W        W68405   5.856  12.648  10.953
96058W        W68406  39.963  16.179  13.848
96059W        W68407  24.027  27.574  13.350
96060W        W68408  17.654  26.958  11.390
96061W        W68409  19.690  25.670   1.861
96062W        W68410  38.359  36.905   1.233
96063W        W68411  13.236  37.477   1.358
96064W        W68412  44.495  16.106   0.436
96065W        W68413  32.893   6.280   3.236
96066W        W68414  15.800  44.366   3.269
96067W        W68415   2.370  34.446  11.081
96068W        W68416  44.945  36.039  11.537
96069W        W68417  24.028   5.930  11.548
96070W        W68418   3.722  28.636  12.087
96071W        W68419   5.934   5.394   1.907
96072W        W68420   7.764  11.652   2.807
96073W        W68421  35.570  29.074   4.804
96074W        W68422  17.655  31.025   1.715
96075W        W68423  27.089  12.275  11.503
96076W        W68424  12.733   4.322   4.216
96077W        W68425  39.544  31.481   4.311
96078W        W68426  16.238   4.395  12.948
96079W        W68427  22.161  18.664   0.368
96080W        W68428  19.249  22.049   0.268
96081W        W68429   4.831  17.604   1.446
96082W        W68430  35.588  32.037   1.214
96083W        W68431  12.796  38.035  12.473
96084W        W68432  16.732  18.723   0.313
96085W        W68433  27.670  28.614  11.522
96086W        W68434   3.947   3.405  12.480
96087W        W68435  20.545  32.023  14.388
96088W        W68436  27.193  23.612  10.033
96089W        W68437   9.192  29.508  13.933
96090W        W68438  15.292  23.171   4.244
96091W        W68439  38.531  37.351  13.479
96092W        W68440   5.212  32.081  14.032
96093W        W68441   5.895   9.768   3.246
96094W        W68442  17.736  39.037  12.402
96095W        W68443  25.116  44.961   2.693
96096W        W68444  42.442  36.572   1.764
96097W        W68445  15.191  24.695   2.722
96098W        W68446  38.890   5.209   5.149
96099W        W68447  17.266  20.133   3.230
96100W        W68448   3.309  17.707   3.295
96101W        W68449  28.143  18.147  11.452
96102W        W68450  24.088  23.050  14.986
96103W        W68451   9.821  43.507  10.477
96104W        W68452  20.667  17.072  12.033
96105W        W68453  10.782   4.730   3.229
96106W        W68454   4.906  40.463  14.335
96107W        W68455  14.741  12.626   1.908
96108W        W68456  23.037  39.379   3.751
96109W        W68457  17.747   0.471   2.282
96110W        W68458  34.934  38.025   3.766
96111W        W68459   4.873  36.909   3.222
96112W        W68460  24.045  11.295  13.038
96113W        W68461  29.976  30.963   0.732
96114W        W68462  18.554  11.697   3.782
96115W        W68463  13.734  27.524  13.357
96116W        W68464  35.458   3.367   2.399
96117W        W68465  37.414  29.592  10.446
96118W        W68466  12.817  16.302  14.963
96119W        W68467  35.429   9.246  11.597
96120W        W68468  32.967  24.642  14.012
96121W        W68469  34.494  35.073   9.987
96122W        W68470  37.363  31.579  10.543
96123W        W68471  24.513  16.702   3.317
96124W        W68472  24.572  43.292   1.420
96125W        W68473  27.645  34.012  14.347
96126W        W68474  39.435  25.638   4.770
96127W        W68475  10.310   2.729  12.414
96128W        W68476   2.249  12.657   4.815
96129W        W68477  19.713  12.302   1.824
96130W        W68478   1.384  19.064  14.884
96131W        W68479  40.508  26.190  14.445
96132W        W68480   0.890  26.510  10.895
96133W        W68481  16.646  15.691   4.783
96134W        W68482  12.141  17.259  13.456
96135W        W68483  37.842  27.674   1.825
96136W        W68484  15.316  42.360   1.811
96137W        W68485  32.100  44.406   0.846
96138W        W68486  32.039  40.522   3.156
96139W        W68487  39.335  10.685   2.254
96140W        W68488  17.778   9.775   3.307
96141W        W68489  20.266  11.294  13.482
96142W        W68490  32.061  36.373  11.961
96143W        W68491   4.926  15.213   0.823
96144W        W68492  11.658  43.993  10.973
96145W        W68493  35.599  35.879   4.603
96146W        W68494   8.726  16.217  14.924
96147W        W68495  11.735   0.486  11.994
96148W        W68496   3.795  16.751   3.245
96149W        W68497  36.049  36.027   0.276
96150W        W68498  25.525  42.982   0.442
96151W        W68499  29.643  14.718  14.779
96152W        W68500  40.411  12.641  12.346
96153W        W68501  43.879  31.524  14.292
96154W        W68502  33.533  11.343  11.859
96155W        W68503   6.261  35.423   0.863
96156W        W68504  37.928  28.999   1.229
96157W        W68505  29.136  10.765  14.889
96158W        W68506  34.870  35.408  10.598
96159W        W68507  34.421  32.906   1.696
96160W        W68508  32.483  39.389  14.851
96161W        W68509  26.036   4.438   2.365
96162W        W68510  42.005  13.628  14.400
96163W        W68511  42.834   0.432  14.840
96164W        W68512  25.661  31.982  12.575
96165W        W68513   1.368  24.071  11.528
96166W        W68514  42.991  14.717   3.281
96167W        W68515   1.360  31.112  13.995
96168W        W68516  29.426  14.739   3.738
96169W        W68517  44.465  29.053   4.214
96170W        W68518  30.612  42.022   2.268
96171W        W68519  20.245   6.319  13.962
96172W        W68520  35.547  17.680   4.211
96173W        W68521  29.430   5.921  12.014
96174W        W68522  36.031   4.797  10.439
96175W        W68523  12.739  33.492   4.657
96176W        W68524  40.437  13.835   0.352
96177W        W68525  35.483  39.972  13.865
96178W        W68526  29.956  26.533  13.930
96179W        W68527  38.924  22.725   1.388
96180W        W68528  43.961   9.650  13.988
96181W        W68529  29.438  31.020  13.942
96182W        W68530  43.433  12.748   0.754
96183W        W68531  37.874  44.482   4.688
96184W        W68532  12.645  26.965   4.142
96185W        W68533  15.820   6.807   4.346
96186W        W68534  38.998  25.710   2.192
96187W        W68535  32.098  17.097  14.368
96188W        W68536  13.846  41.952   3.159
96189W        W68537  13.214  17.692   2.214
96190W        W68538   7.757  29.446   1.706
96191W        W68539   5.790  19.079  13.039
96192W        W68540  42.407  18.573   0.398
96193W        W68541  18.244   3.245   0.313
96194W        W68542  25.073  30.156   4.795
96195W        W68543  24.082  15.105  13.425
96196W        W68544   3.326  20.709  14.429
96197W        W68545  31.921  44.891   0.925
96198W        W68546  10.762  12.762   0.838
96199W        W68547  15.278   7.240   1.378
96200W        W68548   6.224  20.705  13.797
96201W        W68549  11.346  32.397  14.880
96202W        W68550  38.495  31.573  14.807
96203W        W68551  26.653  44.950   0.909
96204W        W68552  25.670  39.908   3.737
96205W        W68553  35.573  30.651   4.236
96206W        W68554  10.331  22.074  10.596
96207W        W68555   0.253  16.775   0.409
96208W        W68556  37.554  36.555   3.730
96209W        W68557   1.481   6.736  14.392
96210W        W68558   1.798  22.042   0.762
96211W        W68559  36.550  20.041   4.833
96212W        W68560  13.193  15.773   1.741
96213W        W68561   4.701  16.204  11.513
96214W        W68562  43.932  14.176  10.629
96215W        W68563  34.428   5.712  12.403
96216W        W68564  44.287  43.764   2.258
96217W        W68565  21.067  33.464   0.364
96218W        W68566  44.878  11.300   0.345
96219W        W68567  24.489  39.505  14.391
96220W        W68568  29.062  13.317  10.435
96221W        W68569  17.150  27.528  10.453
96222W        W68570  28.537  17.145  14.296
96223W        W68571   8.222  26.083  13.955
96224W        W68572   4.902  32.074  14.960
96225W        W68573  21.635   7.806  14.030
96226W        W68574   4.881  36.037  13.510
96227W        W68575   5.324   3.889  13.539
96228W        W68576  31.072  35.573  12.884
96229W        W68577  42.510  20.171   2.356
96230W        W68578  30.545  33.076  10.537
96231W        W68579  15.816  34.463  14.771
96232W        W68580  12.807   0.266   2.249
96233W        W68581   2.782   9.834   1.331
96234W        W68582  41.893  38.913  13.044
96235W        W68583  35.357   0.877  12.903
96236W        W68584  20.153  33.562  12.548
96237W        W68585  30.015  24.020  13.536
96238W        W68586   7.888  40.942  10.557
96239W        W68587  12.674  25.705  14.910
96240W        W68588  25.037   4.268   1.732
96241W        W68589   8.768  15.803   4.231
96242W        W68590   1.348  17.082  10.458
96243W        W68591  29.095  40.885  13.454
96244W        W68592  14.132   8.687  11.995
96245W        W68593  39.401  36.867  10.523
96246W        W68594  27.552  23.097   1.730
96247W        W68595   5.748  34.115  14.333
96248W        W68596  32.476  32.997  11.005
96249W        W68597   7.229   0.863  12.947
96250W        W68598   7.706   8.324  12.533
96251W        W68599   9.688   6.796   3.830
96252W        W68600  13.680  28.476   2.837
96253W        W68601  42.928  26.691  14.761
96254W        W68602  22.136  12.763   4.158
96255W        W68603   3.262   8.212  12.972
96256W        W68604   9.662  13.795  14.969
96257W        W68605  11.825  43.396  11.859
96258W        W68606  14.154  15.212  13.429
96259W        W68607  16.214  38.380   3.190
96260W        W68608  14.722  38.011   2.759
96261W        W68609  42.981   3.338   4.787
96262W        W68610  15.649  21.077  12.952
96263W        W68611   2.747  30.110   0.813
96264W        W68612   3.942   8.202   1.723
96265W        W68613   8.210  30.647   4.161
96266W        W68614  22.505  33.098   0.390
96267W        W68615  27.147  34.424  14.400
96268W        W68616  40.854   1.825  12.080
96269W        W68617   8.231  28.005   3.639
96270W        W68618   4.419   6.249   4.651
96271W        W68619   7.813   7.358   2.379
96272W        W68620  28.953  31.933  13.062
96273W        W68621  33.987  28.551  11.490
96274W        W68622  28.614  21.176   2.900
96275W        W68623  32.611  10.694   0.419
96276W        W68624  29.435   4.360  14.842
96277W        W68625  11.270  26.606  14.014
96278W        W68626  37.980   7.668   2.794
96279W        W68627   8.392  24.610  11.894
96280W        W68628  42.871  30.041   3.292
96281W        W68629  20.133  16.303  11.398
96282W        W68630  41.792  42.386   4.807
96283W        W68631  32.105  35.097   5.212
96284W        W68632   1.930  32.448  11.570
96285W        W68633   7.678  12.613   1.447
96286W        W68634  28.468  32.993  12.846
96287W        W68635  13.707  40.840   1.388
96288W        W68636  12.696  34.993   2.829
96289W        W68637   8.841  19.739   4.693
96290W        W68638  19.712  38.034   0.852
96291W        W68639  10.223  41.964  12.927
96292W        W68640  38.859  24.527   1.313
96293W        W68641  19.594  24.096   2.738
96294W        W68642  27.460   6.423   2.780
96295W        W68643  33.400  39.849  10.931
96296W        W68644  39.357  42.302   4.653
96297W        W68645   0.349  36.003  14.395
96298W        W68646  22.729  30.953   2.401
96299W        W68647  27.576  13.663   3.273
96300W        W68648   6.240   5.370  11.528
96301W        W68649  40.404  16.166   1.351
96302W        W68650   7.178  17.258   2.824
96303W        W68651   9.247  31.541   3.814
96304W        W68652  37.534  33.405  11.371
96305W        W68653  35.035  13.833  10.450
96306W        W68654  11.158  18.744   4.629
96307W        W68655  11.670  42.847   2.247
96308W        W68656   8.258  33.952  13.985
96309W        W68657  11.848  30.618  10.061
96310W        W68658  29.104  34.420   3.763
96311W        W68659  16.093   1.470  13.501
96312W        W68660  19.577   8.763  13.930
96313W        W68661   0.483  11.352   0.395
96314W        W68662  11.189  20.581   0.958
96315W        W68663  13.794  11.191   1.727
96316W        W68664  43.884  32.925  13.415
96317W        W68665  43.363  24.195  10.435
96318W        W68666  13.223   1.276  12.918
96319W        W68667  41.799  31.087   2.227
96320W        W68668  22.167  33.472  14.368
96321W        W68669  22.530   4.387  13.377
96322W        W68670  33.891  44.944  11.072
96323W        W68671  37.476   4.912  10.948
96324W        W68672  23.527  36.361   3.860
96325W        W68673  28.542  44.419  13.886
96326W        W68674  41.483  16.217  13.906
96327W        W68675  19.126  16.284  14.819
96328W        W68676  20.036  35.889  13.412
96329W        W68677  22.573   1.971  11.441
96330W        W68678  18.098  17.239   4.781
96331W        W68679  14.176   6.735   1.745
96332W        W68680  23.046  41.950   3.279
96333W        W68681   2.359   7.686   3.335
96334W        W68682  17.641  25.978   2.866
96335W        W68683  10.271  35.013   3.258
96336W        W68684  10.281  13.826  14.276
96337W        W68685   3.776  24.019   4.229
96338W        W68686  33.472  35.884   3.239
96339W        W68687  12.270  20.662  13.872
96340W        W68688   8.352   1.931  13.807
96341W        W68689   5.859  38.415  13.388
96342W        W68690   5.865  10.195   4.702
96343W        W68691  13.644  15.300   2.204
96344W        W68692  22.609  20.675  14.859
96345W        W68693   4.911  32.534   0.773
96346W        W68694  17.255  19.572   3.358
96347W        W68695  14.719  38.566  13.972
96348W        W68696  27.017  22.186  10.582
96349W        W68697   3.402  11.181  10.888
96350W        W68698  33.479  20.119   4.752
96351W        W68699  10.828  20.050   3.290
96352W        W68700  17.228   4.899  10.433
96353W        W68701  20.063  41.347   3.346
96354W        W68702  23.031  21.215  11.939
96355W        W68703  10.860  34.926  11.949
96356W        W68704  17.190  28.938   1.870
96357W        W68705   0.479  18.555   0.462
96358W        W68706  33.929   2.463   3.849
96359W        W68707  42.030   1.945   5.289
96360W        W68708  28.084   8.364  12.991
96361W        W68709  32.605   6.326  12.530
96362W        W68710   3.811  24.026  12.973
96363W        W68711  33.888  43.922   0.874
96364W        W68712  40.520  33.468  13.959
96365W        W68713  18.064  11.333  12.949
96366W        W68714   1.760  35.452   1.899
96367W        W68715  24.160  42.344  12.999
96368W        W68716  22.062  43.774   0.830
96369W        W68717  40.991  37.533   5.102
96370W        W68718  20.252   5.865  10.936
96371W        W68719  34.867  17.176   3.253
96372W        W68720  11.248  17.658   2.403
96373W        W68721  29.458  28.173   0.783
96374W        W68722  42.476   7.391   1.698
96375W        W68723  11.667   8.732  14.030
96376W        W68724   1.841  12.195  11.601
96377W        W68725  38.963  29.624  14.343
96378W        W68726  26.114  36.016  12.993
96379W        W68727   5.906  19.575   2.226
96380W        W68728   3.740  29.470   1.763
96381W        W68729  18.268  23.499  12.879
96382W        W68730  17.684   0.913  11.612
96383W        W68731  24.562  30.576   2.341
96384W        W68732  23.240   6.813  10.014
96385W        W68733  36.976  44.762   1.314
96386W        W68734  30.049   1.827   1.882
96387W        W68735  36.430  34.468  13.494
96388W        W68736  30.594  40.887  11.519
96389W        W68737  32.960  43.365  11.860
96390W        W68738  33.453  32.139   3.658
96391W        W68739  35.051  38.922   3.218
96392W        W68740   1.354  34.909  13.326
96393W        W68741  42.028  34.516  10.098
96394W        W68742  37.951   5.763  10.901
96395W        W68743   9.846  15.805  11.123
96396W        W68744  22.524   7.224  12.830
96397W        W68745  32.610   5.352   3.186
96398W        W68746   7.665   8.264   4.803
96399W        W68747   6.764  23.054   1.912
96400W        W68748  30.969  21.137  10.606
96401W        W68749  12.337  28.528   2.741
96402W        W68750  33.067  43.306   2.700
96403W        W68751  36.419  43.271   4.639
96404W        W68752  17.208  44.817  14.851
96405W        W68753  27.490   7.701   1.313
96406W        W68754  21.748  41.518   1.222
96407W        W68755  31.450  44.372  11.549
96408W        W68756  10.282   8.871  10.014
96409W        W68757   6.358  26.178  10.915
96410W        W68758  14.193  43.394  12.529
96411W        W68759  13.271   7.797   2.359
96412W        W68760  43.445  28.506  11.392
96413W        W68761  37.025  12.680   4.129
96414W        W68762   5.232  25.562   3.297
96415W        W68763  14.664  39.328   0.746
96416W        W68764  16.654  35.569  13.391
96417W        W68765   3.437   9.394  12.426
96418W        W68766  31.457   3.328   3.387
96419W        W68767  33.443  31.421   2.679
96420W        W68768  34.503  17.756   0.483
96421W        W68769  31.112  16.804  11.534
96422W        W68770   3.350  42.290   1.826
96423W        W68771  38.373  38.026  11.378
96424W        W68772  41.514  24.610   4.160
96425W        W68773   2.299  16.698  11.001
96426W        W68774  22.688  25.573  13.827
96427W        W68775   5.419  14.129   4.718
96428W        W68776  42.477  38.495   4.236
96429W        W68777  22.705  18.076   9.945
96430W        W68778  29.493  26.004   1.427
96431W        W68779  25.629   1.931   1.402
96432W        W68780  11.761  11.363   0.264
96433W        W68781  11.860  12.761  14.813
96434W        W68782  44.786   7.802   1.838
96435W        W68783  44.868  26.457  11.000
96436W        W68784  43.341  22.739   1.769
96437W        W68785  30.018  14.709  11.898
96438W        W68786  32.523  14.155   2.726
96439W        W68787  32.923  34.080   3.850
96440W        W68788   2.314  20.542  13.473
96441W        W68789  11.169  17.158   0.252
96442W        W68790   3.942   6.870  10.571
96443W        W68791  21.115  15.773   2.415
96444W        W68792  35.403   2.336   2.888
96445W        W68793  36.397  12.684  10.118
96446W        W68794  11.143  33.470   4.325
96447W        W68795  19.109  11.763  11.961
96448W        W68796   4.756  13.626   4.618
96449W        W68797   9.319  25.472   3.773
96450W        W68798  23.107  34.517   0.353
96451W        W68799  11.662  40.968  11.065
96452W        W68800   1.368   6.784  12.991
96453W        W68801  36.575  43.291  10.542
96454W        W68802   9.708  27.550   3.255
96455W        W68803  43.374  42.868  11.608
96456W        W68804  44.926  39.942  12.987
96457W        W68805  24.151  18.772   4.700
96458W        W68806  14.641  40.443   0.864
96459W        W68807  40.912  29.095   1.394
96460W        W68808  27.584   8.391   1.896
96461W        W68809  32.902   4.334  10.639
96462W        W68810   3.739  42.958  13.949
96463W        W68811  19.742  39.350   3.300
96464W        W68812   6.403  15.298   0.891
96465W        W68813  27.634  24.108  12.535
96466W        W68814  21.152  17.068   1.300
96467W        W68815  18.613  13.843   1.425
96468W        W68816  26.532   7.219   0.900
96469W        W68817   0.828  18.084   4.810
96470W        W68818   2.422   7.412  12.483
96471W        W68819  42.434  27.660   0.269
96472W        W68820  37.040  12.329  12.059
96473W        W68821  21.055  29.076  10.633
96474W        W68822   8.801  17.103  13.810
96475W        W68823  10.327  21.674   2.278
96476W        W68824  19.636  44.467   4.762
96477W        W68825  33.938  40.837  11.050
96478W        W68826  41.025   8.293  13.019
96479W        W68827   4.393  30.547   3.279
96480W        W68828  13.217   0.259  13.825
96481W        W68829  25.103   4.261  11.015
96482W        W68830   1.952  10.683   1.398
96483W        W68831  41.845  13.783   3.646
96484W        W68832  24.007   8.713   1.334
96485W        W68833  22.728  40.848   3.274
96486W        W68834  14.337  10.181   1.856
96487W        W68835   1.458  36.484   2.388
96488W        W68836   8.734  10.381   2.254
96489W        W68837  34.923  44.302   0.812
96490W        W68838   2.463  28.624   3.636
96491W        W68839  10.860  16.214  13.981
96492W        W68840   8.166   1.336   1.707
96493W        W68841  37.337  11.809  14.774
96494W        W68842  38.974  24.045  10.060
96495W        W68843  43.450   8.380  13.524
96496W        W68844  21.669   3.771   2.357
96497W        W68845   2.942   9.302   1.818
96498W        W68846  14.793  39.532   2.324
96499W        W68847  26.699  11.666   3.852
96500W        W68848  24.154   6.906  10.554
96501W        W68849  13.351  42.326  12.397
96502W        W68850  10.731  20.263  12.432
96503W        W68851  29.522   3.248   4.258
96504W        W68852  10.357  17.585  11.474
96505W        W68853  20.763  30.453  13.922
96506W        W68854  42.928  40.320  13.463
96507W        W68855  11.168  20.250   2.730
96508W        W68856   5.850  15.784  13.386
96509W        W68857  23.221  32.056   1.292
96510W        W68858  14.151   4.875   4.221
96511W        W68859  32.049  20.209   2.389
96512W        W68860   7.845  15.134   2.710
96513W        W68861  39.382  38.047  13.821
96514W        W68862   6.420   7.733  11.506
96515W        W68863  11.716  17.293   0.270
96516W        W68864  34.994  18.565  11.395
96517W        W68865   1.455  15.112  11.387
96518W        W68866  20.130   2.778  11.429
96519W        W68867  36.349  40.975   2.178
96520W        W68868  35.043  33.559  14.365
96521W        W68869  41.911  10.298  11.527
96522W        W68870  26.590   1.442  13.044
96523W        W68871  30.910  14.595   3.715
96524W        W68872  42.923  44.388   2.775
96525W        W68873  42.480  38.049   4.619
96526W        W68874  14.118  29.162   1.759
96527W        W68875   0.910   7.351   4.829
96528W        W68876  12.806  27.499   2.756
96529W        W68877  25.126  32.933  12.528
96530W        W68878  37.369   4.775   0.784
96531W        W68879  22.511   7.779  14.345
96532W        W68880  26.162  21.092  13.353
96533W        W68881  14.750  27.492  14.434
96534W        W68882  19.634   5.359   2.323
96535W        W68883  30.062  25.525  11.121
96536W        W68884   9.361   6.881   4.833
96537W        W68885  32.486  25.499   4.236
96538W        W68886  42.851  10.224  12.432
96539W        W68887   9.691  16.252   3.263
96540W        W68888  44.266  23.731   2.339
96541W        W68889  38.472  34.984   3.668
96542W        W68890  31.424  38.360  13.454
96543W        W68891   7.216  17.205  12.539
96544W        W68892  20.079   3.268   3.763
96545W        W68893  22.633  19.721  12.878
96546W        W68894   4.318  14.632  14.432
96547W        W68895  14.690   9.691   0.445
96548W        W68896  19.660  19.259  12.091
96549W        W68897   5.909  19.616   1.757
96550W        W68898  37.987  31.409  10.468
96551W        W68899  43.454   6.744   2.380
96552W        W68900   0.354  43.961   1.349
96553W        W68901  20.672   9.176  10.569
96554W        W68902  30.438  12.346  10.489
96555W        W68903  28.600  41.449  14.989
96556W        W68904   3.326  16.580   1.324
96557W        W68905  30.078   4.300  11.603
96558W        W68906   8.702  41.429   0.763
96559W        W68907   9.265  37.007  12.834
96560W        W68908  35.024  22.223   5.104
96561W        W68909  30.516  28.093   2.795
96562W        W68910  20.604  15.089   1.304
96563W        W68911  13.254  19.609   3.223
96564W        W68912  36.932  41.393   2.218
96565W        W68913  33.936  28.039  10.483
96566W        W68914  20.111  43.918  14.797
96567W        W68915   3.370  42.393  10.414
96568W        W68916  39.953  38.942  13.821
96569W        W68917  24.682   9.866  10.971
96570W        W68918   4.365  26.171  12.915
96571W        W68919  31.471   4.778   3.240
96572W        W68920   7.752  27.068  12.919
96573W        W68921  13.211  31.587   1.903
96574W        W68922  10.346  30.512  11.446
96575W        W68923  18.686   9.392  12.355
96576W        W68924  34.541  32.624  14.841
96577W        W68925   9.888  28.575  12.943
96578W        W68926   5.735  12.808  10.551
96579W        W68927  11.246   4.310   0.950
96580W        W68928   4.814   4.759   2.288
96581W        W68929  33.081  33.600  13.975
96582W        W68930  24.579   2.350   4.297
96583W        W68931  38.394  36.382   3.793
96584W        W68932   6.268  29.591  10.471
96585W        W68933  13.235  20.102   1.276
96586W        W68934  30.496  28.548   1.747
96587W        W68935   8.197  12.765   0.788
96588W        W68936  28.118  41.295   3.165
96589W        W68937  21.115  11.256   2.411
96590W        W68938  37.433  10.322   4.227
96591W        W68939  20.272  12.696  10.645
96592W        W68940  13.130  21.703  10.997
96593W        W68941  25.592  32.450   4.190
96594W        W68942  31.632  26.002   1.774
96595W        W68943  37.985  16.280  12.034
96596W        W68944  34.463  14.155   2.277
96597W        W68945  39.429  26.506  11.534
96598W        W68946  33.883   2.292  12.405
96599W        W68947   7.744  19.744   9.938
96600W        W68948  19.218  16.121   4.694
96601W        W68949  20.144  16.788   0.867
96602W        W68950  36.070  30.541  13.812
96603W        W68951  16.240  11.278  10.599
96604W        W68952  31.055  29.566  13.548
96605W        W68953  14.715  24.988  14.997
96606W        W68954  21.693  30.423   5.287
96607W        W68955  31.538   5.764   9.508
96608W        W68956  40.477   9.343  12.347
96609W        W68957  41.420  27.112  12.563
96610W        W68958   5.697  39.523   1.408
96611W        W68959  29.025   2.360   1.768
96612W        W68960  38.545  32.886   3.663
96613W        W68961   2.432   3.460   4.329
96614W        W68962  44.867  15.296   1.426
96615W        W68963  12.838  33.471  12.376
96616W        W68964  43.841  22.245   1.917
96617W        W68965  40.008  10.252  14.770
96618W        W68966  30.055  32.943  12.359
96619W        W68967  36.091  19.224   3.318
96620W        W68968   9.307  20.658  10.026
96621W        W68969   3.899  42.832   2.830
96622W        W68970  19.724  36.507  11.923
96623W        W68971  11.712  20.583   9.932
96624W        W68972  15.237  26.080   2.762
96625W        W68973   4.267  44.947  11.094
96626W        W68974  20.715  29.119  13.052
96627W        W68975  40.973  11.283  10.931
96628W        W68976   6.331  15.119  10.961
96629W        W68977  26.628  25.103   2.321
96630W        W68978  41.403  43.011   2.665
96631W        W68979   8.832   1.397  14.959
96632W        W68980  27.563   1.760   1.866
96633W        W68981   7.310  10.758  10.584
96634W        W68982   8.313   4.735  14.852
96635W        W68983   4.753  42.437   1.838
96636W        W68984  35.508  43.861  14.872
96637W        W68985  37.899  41.414  13.881
96638W        W68986  15.099  12.834  10.583
96639W        W68987  38.976  32.986  13.985
96640W        W68988  32.016  15.761  13.820
96641W        W68989  16.174  31.048  14.774
96642W        W68990  18.692  10.291   2.697
96643W        W68991  31.503  21.512  11.964
96644W        W68992  18.654  22.625  10.586
96645W        W68993  39.012  37.578  13.455
96646W        W68994  11.136  36.442   4.195
96647W        W68995  31.553   7.266  14.924
96648W        W68996  30.628  27.155  11.445
96649W        W68997  34.373  42.928  10.530
96650W        W68998  25.594  14.132   1.831
96651W        W68999  43.308  28.103  10.455
96652W        W69000  19.213  21.063  10.912
96653W        W69001  17.260  24.614  13.346
96654W        W69002  17.103   1.238  11.611
96655W        W69003  40.835  20.170   3.680
96656W        W69004   4.908  43.325   3.205
96657W        W69005  40.476   5.395   1.698
96658W        W69006  11.160  16.300   3.248
96659W        W69007   8.358  19.719  10.139
96660W        W69008  39.335   4.297  12.391
96661W        W69009  39.889   2.958   0.302
96662W        W69010   0.361  39.907   4.307
96663W        W69011  16.721  21.686  10.632
96664W        W69012  28.070   5.736  11.481
96665W        W69013  14.817  14.104   4.347
96666W        W69014  34.446   3.341   2.698
96667W        W69015  41.483  34.869   4.687
96668W        W69016  41.992   3.231  10.005
96669W        W69017  26.502   5.318   3.329
96670W        W69018  20.249  14.234  11.442
96671W        W69019  10.366   3.423   3.304
96672W        W69020   8.765  27.101   1.267
96673W        W69021  36.484  35.370  14.299
96674W        W69022  27.562  24.030   4.756
96675W        W69023   7.849  24.488  13.413
96676W        W69024  18.198  22.582  11.379
96677W        W69025   5.434  18.636  14.965
96678W        W69026  44.493  40.471  11.983
96679W        W69027  27.553  35.366  11.933
96680W        W69028  17.124  23.677  13.352
96681W        W69029  39.032  21.663  14.343
96682W        W69030  33.902  41.001  12.030
96683W        W69031  43.829  36.361   1.421
96684W        W69032  34.468  17.664  11.011
96685W        W69033  26.199  13.321  12.094
96686W        W69034  22.730  20.560   2.394
96687W        W69035  41.358  32.002  13.419
96688W        W69036  33.449  10.148   3.740
96689W        W69037  17.188  25.102   0.329
96690W        W69038  37.398  44.907  14.500
96691W        W69039  32.487  41.461   4.632
96692W        W69040  14.112  11.328  12.434
96693W        W69041  43.270  28.476   2.184
96694W        W69042  22.661  26.543   1.447
96695W        W69043   9.307  38.482   3.655
96696W        W69044  38.907  35.597  14.448
96697W        W69045  10.268  18.681   5.183
96698W        W69046  12.636  38.427   4.269
96699W        W69047  22.210  26.554   4.285
96700W        W69048  42.984  25.019  10.064
96701W        W69049  25.026  37.502  13.544
96702W        W69050  23.102   1.787  11.026
96703W        W69051  37.373  34.092   4.597
96704W        W69052   0.871  25.699  12.092
96705W        W69053  15.734   4.421  12.362
96706W        W69054  38.034   8.717   1.262
96707W        W69055  22.620  27.549  12.001
96708W        W69056  24.707  19.736   2.843
96709W        W69057  27.962  30.029   1.261
96710W        W69058  39.417  35.600   0.832
96711W        W69059  22.528  34.007   3.384
96712W        W69060  15.582  24.692   4.639
96713W        W69061  15.253  23.220  13.899
96714W        W69062   3.403  11.827  10.958
96715W        W69063  30.103  18.268   2.757
96716W        W69064   1.255  14.743  13.025
96717W        W69065  37.920  20.102  14.417
96718W        W69066  24.544  20.733   1.774
96719W        W69067  16.770  40.851   3.146
96720W        W69068  44.260   7.358  12.839
96721W        W69069  30.505  33.949  11.858
96722W        W69070  33.604   3.788  14.765
96723W        W69071  23.588  23.164  11.502
96724W        W69072   7.826   9.777  13.808
96725W        W69073  14.702  26.153  11.431
96726W        W69074  39.035  10.210  12.408
96727W        W69075  36.061  21.182  14.816
96728W        W69076   8.203  21.216   5.194
96729W        W69077  19.746   5.764  12.568
96730W        W69078  19.054  29.651   0.350
96731W        W69079  39.984  36.968   1.343
96732W        W69080   7.759  29.943  10.923
96733W        W69081   8.843  26.018  14.329
96734W        W69082  41.026  33.887   3.329
96735W        W69083  13.811   9.206   1.267
96736W        W69084  15.096   7.271  12.890
96737W        W69085   7.238  26.473   4.193
96738W        W69086  33.025  12.815   4.142
96739W        W69087  11.814  35.547   3.355
96740W        W69088  21.605  41.512   2.895
96741W        W69089  22.252  40.363   4.236
96742W        W69090  11.178   0.396   3.848
96743W        W69091  35.948  13.701   2.297
96744W        W69092  37.957  33.015  13.407
96745W        W69093  40.896  16.742   4.348
96746W        W69094  10.806  22.050  10.927
96747W        W69095  30.422   1.424  12.018
96748W        W69096   2.844  16.768  12.910
96749W        W69097  13.748  29.476  11.541
96750W        W69098  14.110  43.993  13.029
96751W        W69099  27.115   3.898   2.743
96752W        W69100   3.914  22.605   2.199
96753W        W69101   5.389   0.965  13.036
96754W        W69102  34.901  21.184   1.436
96755W        W69103  37.528  28.098  10.477
96756W        W69104  15.635  23.132  14.000
96757W        W69105  30.929  17.104  12.045
96758W        W69106  37.362  20.080   5.085
96759W        W69107  11.726  25.062  10.097
96760W        W69108  38.481   7.791   5.670
96761W        W69109  35.569  42.451  11.551
96762W        W69110  22.738  35.986   1.782
96763W        W69111  37.376  36.036  11.596
96764W        W69112  19.130  33.122  14.293
96765W        W69113  44.383   8.166   4.804
96766W        W69114  43.308  25.123   1.450
96767W        W69115  35.060  39.937   4.137
96768W        W69116  30.105   9.387  14.798
96769W        W69117  42.282  27.073   2.666
96770W        W69118  25.676   9.808  13.918
96771W        W69119  40.436  12.277  11.496
96772W        W69120  43.416  28.656  14.414
96773W        W69121  25.687  21.149   1.797
96774W        W69122   9.373   3.877  14.808
96775W        W69123  27.456  20.218   2.329
96776W        W69124  25.704  28.161   3.856
96777W        W69125  26.019  39.498   0.901
96778W        W69126  26.572  12.637  10.635
96779W        W69127  22.573  11.238   3.381
96780W        W69128  40.826  26.987   3.672
96781W        W69129  10.250   9.844  14.854
96782W        W69130   3.306  19.553  10.053
96783W        W69131  43.908   7.377   3.240
96784W        W69132  41.493  37.519   5.158
96785W        W69133   8.310  15.237  14.475
96786W        W69134  42.913  18.196  11.008
96787W        W69135   2.876  28.444  11.406
96788W        W69136   9.678  30.978   3.285
96789W        W69137   9.347  43.499   3.265
96790W        W69138  41.466  10.332  13.825
96791W        W69139  31.418  35.569  12.951
96792W        W69140  18.199  15.630  11.881
96793W        W69141  34.991  31.639   2.298
96794W        W69142  19.751  17.586  14.428
96795W        W69143  15.308  30.457  13.891
96796W        W69144  36.514  32.078  14.408
96797W        W69145  24.004  29.547  13.434
96798W        W69146  11.638  22.249   1.278
96799W        W69147  36.040  20.699   2.708
96800W        W69148  30.517  13.625  12.088
96801W        W69149  35.363  44.792   4.715
96802W        W69150   8.350  37.936  11.120
96803W        W69151  42.961  39.808  10.621
96804W        W69152  25.083  10.691   3.276
96805W        W69153  13.670   1.351  11.534
96806W        W69154   4.273  31.961  14.342
96807W        W69155  31.131  19.117  10.581
96808W        W69156  26.516  27.647   4.277
96809W        W69157  16.761  18.150   3.264
96810W        W69158  31.135   0.281  13.940
96811W        W69159  36.430  42.481   1.273
96812W        W69160  16.812  25.138   0.325
96813W        W69161   9.330  43.349  14.908
96814W        W69162  44.904  38.921   0.858
96815W        W69163  31.963   7.306   0.799
96816W        W69164   8.358  38.919  11.451
96817W        W69165  30.450  30.544  12.497
96818W        W69166   6.266  28.118  12.053
96819W        W69167  44.970  27.058   4.738
96820W        W69168   0.859  40.498  13.521
96821W        W69169  34.576   3.313  12.492
96822W        W69170  30.072   3.423  13.884
96823W        W69171  44.992  41.916  14.003
96824W        W69172  22.246  15.192  12.430
96825W        W69173  36.059  23.096   5.805
96826W        W69174  38.988  30.579   0.892
96827W        W69175  40.914  44.374  11.077
96828W        W69176   9.692  30.961  12.358
96829W        W69177  42.521  35.435   2.674
96830W        W69178  14.701  37.859   1.929
96831W        W69179   1.791  29.156   1.788
96832W        W69180  30.566  28.474  12.863
96833W        W69181  12.286  27.942   3.338
96834W        W69182  36.974   6.872  11.863
96835W        W69183  34.915  35.980   3.756
96836W        W69184  29.568  42.987   5.267
96837W        W69185  30.163  33.408  14.956
96838W        W69186  36.059   1.866  14.944
96839W        W69187  27.165  17.180   9.977
96840W        W69188  32.557  40.878   0.471
96841W        W69189  37.406  34.909  12.423
96842W        W69190  42.987  44.410   4.125
96843W        W69191   1.959  11.852  10.975
96844W        W69192  42.361  14.115  13.421
96845W        W69193  37.419  13.266   2.722
96846W        W69194  30.449  29.513  13.895
96847W        W69195   4.705  26.198   0.288
96848W        W69196  15.269  22.228   4.321
96849W        W69197  28.151   9.703   4.114
96850W        W69198  33.945  38.386   1.897
96851W        W69199  29.984  17.584  11.041
96852W        W69200  10.828   5.365   5.243
96853W        W69201  44.322   7.873  13.523
96854W        W69202  30.123  15.304  13.049
96855W        W69203  37.373   3.778  11.584
96856W        W69204   7.844  39.844  14.860
96857W        W69205  14.137  20.073  14.963
96858W        W69206  20.642   2.247   1.386
96859W        W69207   1.374  37.499   2.793
96860W        W69208   5.409  23.067  12.460
96861W        W69209  32.581   0.839  10.015
96862W        W69210  22.595  15.305   3.754
96863W        W69211  23.620  36.505   2.267
96864W        W69212  35.891  23.526  11.875
96865W        W69213  30.995  31.908  10.896
96866W        W69214   9.240  15.321   1.280
96867W        W69215  22.668  19.563   3.632
96868W        W69216   8.319  22.132  11.885
96869W        W69217  18.706  23.701   9.958
96870W        W69218  22.080  41.902   2.399
96871W        W69219  26.698  26.586   0.302
96872W        W69220   3.333  27.103   2.264
96873W        W69221  16.769  26.606   1.385
96874W        W69222  33.530  14.595  11.587
96875W        W69223  15.663  21.033   9.925
96876W        W69224  33.442  38.066   2.277
96877W        W69225  44.469  12.331   2.179
96878W        W69226  40.439  29.146  10.104
96879W        W69227   4.391   1.802   4.131
96880W        W69228  13.205   5.715  14.794
96881W        W69229  11.679  29.973   1.907
96882W        W69230   9.772   0.788  10.967
96883W        W69231   1.394  37.485  10.632
96884W        W69232  17.628  43.778   0.960
96885W        W69233  35.465   2.810   3.175
96886W        W69234  39.020  11.800   1.266
96887W        W69235  16.309  29.513  12.949
96888W        W69236  43.795   0.267  11.910
96889W        W69237  44.269  18.601  11.046
96890W        W69238  41.460  24.585   4.795
96891W        W69239  27.467  37.877   0.409
96892W        W69240  38.514  34.607   0.935
96893W        W69241  23.004   9.873  10.989
96894W        W69242  34.535  17.748  14.464
96895W        W69243   8.874  37.367   4.277
96896W        W69244   8.685  42.406   1.429
96897W        W69245   9.353  43.862   4.253
96898W        W69246   8.277   1.805  12.527
96899W        W69247  28.576  30.586  10.894
96900W        W69248   6.359  38.533  11.404
96901W        W69249  21.578  42.982   5.285
96902W        W69250  29.007  36.908   4.769
96903W        W69251  37.581  33.053  13.974
96904W        W69252  44.481  23.996   1.804
96905W        W69253  39.549  44.322   4.608
96906W        W69254  42.284  28.563   1.423
96907W        W69255  14.206  29.501  11.425
96908W        W69256  38.433  44.367   0.892
96909W        W69257  31.526   1.794  12.916
96910W        W69258  43.937  22.105  13.350
96911W        W69259  35.877  18.763   2.385
96912W        W69260   0.986  17.153   1.238
96913W        W69261  19.757  10.342   3.717
96914W        W69262  18.750   9.221   3.650
96915W        W69263  19.722   5.788   3.332
96916W        W69264  42.873  40.491  12.936
96917W        W69265  14.735  42.786  11.460
96918W        W69266  25.605  37.845  12.443
96919W        W69267  30.071   0.838  14.510
96920W        W69268   7.297   4.408   4.771
96921W        W69269  13.604  30.583  13.877
96922W        W69270  44.784  18.764  10.978
96923W        W69271   6.263   7.901  13.930
96924W        W69272  25.144  41.855   4.268
96925W        W69273   2.277  37.445  12.429
96926W        W69274  35.063  22.197   0.247
96927W        W69275  16.230  43.960   1.918
96928W        W69276  32.012  31.967   5.148
96929W        W69277   1.834   1.383  14.446
96930W        W69278  22.546  38.023   0.759
96931W        W69279   5.266   2.814   0.293
96932W        W69280  10.357  30.107   0.296
96933W        W69281  31.614  22.090  14.980
96934W        W69282  30.599  36.371  10.578
96935W        W69283  32.468  30.082   3.286
96936W        W69284   1.378  26.147   3.865
96937W        W69285   8.683   8.806   4.283
96938W        W69286  40.854  22.600   3.292
96939W        W69287  31.974  28.139  12.414
96940W        W69288   7.876  22.548   3.284
96941W        W69289   6.212  20.651  11.515
96942W        W69290  12.156  10.214  12.365
96943W        W69291  21.252   9.802  10.422
96944W        W69292   4.847  22.586  11.526
96945W        W69293  13.335   5.863  10.042
96946W        W69294  13.240  41.991  10.639
96947W        W69295  40.942  12.783   2.824
96948W        W69296  18.100  41.032  12.429
96949W        W69297  43.802  10.304   2.206
96950W        W69298  34.497  44.343  14.908
96951W        W69299  16.791  38.989   2.206
96952W        W69300   8.365   1.925  14.439
96953W        W69301  26.598  21.748  11.434
96954W        W69302   5.824  24.140  10.946
96955W        W69303  43.308   5.776  14.765
96956W        W69304   8.285  40.401   3.351
96957W        W69305  23.594  25.017   3.705
96958W        W69306   3.418   9.711  13.913
96959W        W69307  29.500  43.280  14.355
96960W        W69308  38.938  37.021  14.319
96961W        W69309  42.430  43.011   3.712
96962W        W69310  35.064   4.382   2.288
96963W        W69311  11.167   0.786   4.764
96964W        W69312  17.786  14.238   2.699
96965W        W69313  26.014  32.910   1.286
96966W        W69314   3.319  17.602  14.368
96967W        W69315  18.760  42.855   1.301
96968W        W69316   4.856  42.889  14.460
96969W        W69317  28.048  42.321   0.924
96970W        W69318  30.011  27.593  12.357
96971W        W69319  42.842  19.640   2.413
96972W        W69320  12.362  32.084  10.921
96973W        W69321  24.987  26.676  14.360
96974W        W69322  20.580   2.467   1.711
96975W        W69323  20.744  30.519   9.443
96976W        W69324  14.236   1.884  12.538
96977W        W69325  30.953  35.471   4.173
96978W        W69326  23.042  16.672   0.746
96979W        W69327  39.018  30.089  14.406
96980W        W69328  44.988  16.587   1.890
96981W        W69329  29.928   3.387  12.521
96982W        W69330   4.916  44.362   0.728
96983W        W69331   2.444  33.124   1.279
96984W        W69332  41.028  14.165   2.814
96985W        W69333  36.014  33.449   0.304
96986W        W69334  11.639  30.979   3.647
96987W        W69335  39.996  38.544  14.459
96988W        W69336  26.664   4.932  12.991
96989W        W69337  14.295   0.358  14.440
96990W        W69338  19.551  42.941   5.082
96991W        W69339  40.350   0.846  12.395
96992W        W69340  20.699  39.438  12.826
96993W        W69341   8.381  35.930   3.208
96994W        W69342   1.842   0.961  14.319
96995W        W69343  34.521  34.974   5.252
96996W        W69344  31.071  18.568   1.695
96997W        W69345   6.853  38.975  11.586
96998W        W69346  11.226  30.944   2.403
96999W        W69347   7.803   8.364   1.289
97000W        W69348  37.416  37.978   2.883
97001W        W69349   4.878   2.865   3.293
97002W        W69350  11.150  31.525  10.624
97003W        W69351  21.103  15.200   2.762
97004W        W69352  18.062  33.973   3.677
97005W        W69353   2.418  33.475  14.941
97006W        W69354  28.567  13.216  12.526
97007W        W69355  10.669  33.977  14.783
97008W        W69356  11.771  44.857  13.888
97009W        W69357  32.014  39.356  12.058
97010W        W69358   7.861  39.500  12.509
97011W        W69359  19.536   9.201  12.432
97012W        W69360  37.960  13.195   3.656
97013W        W69361  30.991  40.317   3.207
97014W        W69362  17.117  18.592   4.151
97015W        W69363  31.964  40.966   1.293
97016W        W69364   3.375  39.348   1.846
97017W        W69365  19.133  25.133  13.058
97018W        W69366  31.956   0.377  11.906
97019W        W69367   7.377  14.637   1.359
97020W        W69368  17.288  42.936  11.937
97021W        W69369   4.259  11.657   0.427
97022W        W69370  41.870  10.187  13.964
97023W        W69371   0.979   4.349   2.662
97024W        W69372   3.256   7.710  14.419
97025W        W69373  26.528  37.393   2.722
97026W        W69374  25.560  14.819   4.240
97027W        W69375  31.961  36.476  14.809
97028W        W69376  26.033  16.603  11.559
97029W        W69377   9.805  21.032   3.282
97030W        W69378   5.311   9.235   2.313
97031W        W69379  19.710   9.879   0.370
97032W        W69380  26.084  18.627  14.297
97033W        W69381  27.125   0.477  14.382
97034W        W69382  42.943  15.791  11.858
97035W        W69383  35.580   8.707   4.681
97036W        W69384  38.417  32.923   4.304
97037W        W69385  28.018  28.115  10.609
97038W        W69386  11.257   4.414  13.917
97039W        W69387  11.677  44.500   5.285
97040W        W69388  44.392  11.369  13.022
97041W        W69389   0.277  35.418   4.208
97042W        W69390  43.486  33.420   4.231
97043W        W69391  24.162   8.818   0.861
97044W        W69392  14.681  41.978  13.954
97045W        W69393   9.825  31.120   4.651
97046W        W69394  18.739  35.987  13.846
97047W        W69395  19.257  17.190   4.176
97048W        W69396  43.509  21.028  13.327
97049W        W69397  40.829  11.155   2.844
97050W        W69398  25.672  42.979  11.113
97051W        W69399   9.195  13.242   4.240
97052W        W69400  42.374  14.275  13.868
97053W        W69401  13.285   4.815   1.851
97054W        W69402  27.154   5.924  13.041
97055W        W69403   8.748  37.503  12.342
97056W        W69404  23.108  27.638  12.942
97057W        W69405   5.731  11.779   4.752
97058W        W69406  18.687  37.026   4.615
97059W        W69407  22.204  16.114  13.399
97060W        W69408   2.367  42.972   0.297
97061W        W69409  39.815   7.394   4.822
97062W        W69410  36.580   0.327   0.253
97063W        W69411  21.638  42.946   4.606
97064W        W69412  28.563  20.607   1.802
97065W        W69413  11.138  44.265  11.376
97066W        W69414  24.071  28.677  14.949
97067W        W69415  33.074  40.947   2.875
97068W        W69416  28.041  15.279   0.939
97069W        W69417  13.163  32.416  12.912
97070W        W69418  30.593  10.820   3.360
97071W        W69419  28.580  20.204   0.779
97072W        W69420  10.866   8.859  13.534
97073W        W69421  39.541   9.752   1.210
97074W        W69422  25.034  24.625   2.880
97075W        W69423  37.382  24.169  12.054
97076W        W69424  28.980  22.740   1.721
97077W        W69425   5.318   7.218  11.422
97078W        W69426  17.600   4.915   4.190
97079W        W69427  17.202  15.278   3.746
97080W        W69428  18.166  38.032  14.921
97081W        W69429  32.914   8.892   4.810
97082W        W69430  39.526  22.143   0.941
97083W        W69431  22.059  10.814   3.654
97084W        W69432  27.016  35.580  13.335
97085W        W69433  28.501  28.020   3.736
97086W        W69434  29.490  30.585  14.342
97087W        W69435  39.900   7.405  10.546
97088W        W69436  12.647  18.612  14.020
97089W        W69437   2.417  18.738   2.892
97090W        W69438  29.620  32.615   4.353
97091W        W69439  18.635  14.216   0.271
97092W        W69440  20.124   7.830   3.207
97093W        W69441  37.040  10.372  13.354
97094W        W69442  26.532  24.696   0.948
97095W        W69443  41.931  42.374   1.366
97096W        W69444  44.978   9.757  13.416
97097W        W69445  44.892  36.555  14.799
97098W        W69446  33.049  22.540   4.321
97099W        W69447   5.314  24.155  11.986
97100W        W69448  16.629   2.327   0.924
97101W        W69449  38.501  20.540   2.375
97102W        W69450  34.101  40.936  13.923
97103W        W69451  37.445  10.265  13.901
97104W        W69452   0.929  13.216   2.715
97105W        W69453  22.691  10.691   3.222
97106W        W69454  41.361  29.136   1.385
97107W        W69455  14.097  29.656   2.801
97108W        W69456  12.669  41.388   2.201
97109W        W69457  22.723  26.107   0.852
97110W        W69458   8.825   8.363  14.771
97111W        W69459   3.388  43.885   0.295
97112W        W69460  20.098   3.727  14.789
97113W        W69461  13.743  17.559  14.894
97114W        W69462  29.154  43.786   2.863
97115W        W69463  18.289  23.570   3.387
97116W        W69464  37.379  40.514  11.048
97117W        W69465  36.974   5.704   4.176
97118W        W69466  23.184  43.474   2.373
97119W        W69467  37.461  44.926  10.419
97120W        W69468  23.605  27.576  10.950
97121W        W69469  15.728   5.922   3.190
97122W        W69470  37.452  32.028  11.470
97123W        W69471  31.494  39.982   0.829
97124W        W69472  20.076  43.791  10.447
97125W        W69473  14.160  24.202   3.294
97126W        W69474   5.735  36.398  11.059
97127W        W69475   3.892  21.034   4.235
97128W        W69476  16.184  37.510   1.257
97129W        W69477  18.250  29.505  11.080
97130W        W69478  15.303  23.050   1.748
97131W        W69479   9.260  35.079  13.371
97132W        W69480  35.038  39.485  13.532
97133W        W69481  29.496  40.974   4.714
97134W        W69482  21.166  32.969  14.920
97135W        W69483  17.617   0.773   1.842
97136W        W69484   9.180  18.270   4.249
97137W        W69485  16.266  42.465   0.768
97138W        W69486  11.631   2.370   4.354
97139W        W69487  31.466  15.132   4.212
97140W        W69488  16.139   5.319   2.674
97141W        W69489   6.353  17.781   0.309
97142W        W69490  41.994   4.720  10.617
97143W        W69491  40.502  27.584   4.653
97144W        W69492  22.240  19.554   4.750
97145W        W69493   9.722   1.463  12.965
97146W        W69494  38.992  44.276  12.480
97147W        W69495   8.192  11.351   2.850
97148W        W69496   8.721   5.742  14.995
97149W        W69497  29.076  17.707  10.910
97150W        W69498  15.652  34.102  12.036
97151W        W69499  12.695   6.699   2.311
97152W        W69500  10.263   2.892   1.839
97153W        W69501   1.777  32.051  10.011
97154W        W69502   0.427  43.890   4.267
97155W        W69503  40.883  23.118   2.212
97156W        W69504  11.286  36.904  14.459
97157W        W69505  27.580   0.350  13.051
97158W        W69506  29.529  34.067   2.747
97159W        W69507  33.581   4.333   5.224
97160W        W69508   7.689  17.607  11.947
97161W        W69509  22.679   5.855  13.824
97162W        W69510  11.197  34.981  14.314
97163W        W69511  38.494  42.904   2.902
97164W        W69512   1.256  32.420  14.938
97165W        W69513  15.205  21.645   4.625
97166W        W69514   7.314  32.435   1.744
97167W        W69515  29.541   1.806   1.419
97168W        W69516  19.685  13.128   4.255
97169W        W69517  31.459  18.177  11.523
97170W        W69518   1.789  43.002  11.046
97171W        W69519  37.854   4.783   2.852
97172W        W69520  25.488  34.876   1.437
97173W        W69521  24.100  23.542   1.814
97174W        W69522   7.235   3.786   2.183
97175W        W69523   8.660  23.024   2.322
97176W        W69524  22.569  18.287   1.830
97177W        W69525   9.275   6.219   2.372
97178W        W69526  11.823  41.447   2.311
97179W        W69527   6.823  22.213   4.678
97180W        W69528  13.184  36.377   1.720
97181W        W69529   8.830  37.340  10.109
97182W        W69530  25.589   8.257  12.993
97183W        W69531  35.576  25.029  14.838
97184W        W69532   7.741   9.864   0.805
97185W        W69533   0.448  42.982  14.844
97186W        W69534  39.884  25.650   2.814
97187W        W69535  33.449  32.444   1.302
97188W        W69536   4.735  41.910   1.759
97189W        W69537  42.373  32.893   0.961
97190W        W69538  15.622  15.117  12.010
97191W        W69539  40.398  24.975  13.007
97192W        W69540  28.070  44.952   3.237
97193W        W69541  27.017  36.367  11.486
97194W        W69542  43.791  29.129   0.377
97195W        W69543  34.931  24.217  14.957
97196W        W69544  42.870  10.636   2.698
97197W        W69545   5.866  42.780  12.905
97198W        W69546  30.986  44.306  10.012
97199W        W69547  12.167  41.468   4.711
97200W        W69548   6.395   3.333  10.074
97201W        W69549  27.106  16.207   2.689
97202W        W69550  11.193  30.459  13.884
97203W        W69551  11.706  17.582   2.228
97204W        W69552  41.464   4.328   3.148
97205W        W69553  40.940  29.028  10.540
97206W        W69554  33.067  34.517  12.499
97207W        W69555   4.875  27.465  10.999
97208W        W69556  24.140   9.745  10.558
97209W        W69557   3.830  37.935  11.598
97210W        W69558  26.558  28.942   4.174
97211W        W69559  26.458  44.920   0.298
97212W        W69560  28.582  33.488   4.702
97213W        W69561  44.261  40.988  10.506
97214W        W69562  30.975  43.403  14.479
97215W        W69563  10.832   7.750  13.481
97216W        W69564  35.963  16.126  13.894
97217W        W69565  10.816  41.311   2.781
97218W        W69566   4.235  33.105   1.865
97219W        W69567  44.930  31.130   2.307
97220W        W69568  27.576  37.336  14.357
97221W        W69569  32.516   3.388  11.922
97222W        W69570  30.958  15.230  14.305
97223W        W69571  44.883  40.511   3.187
97224W        W69572  36.978  37.476  10.484
97225W        W69573  20.183  32.629  13.836
97226W        W69574  15.632  21.029   2.405
97227W        W69575  42.956  14.798  11.863
97228W        W69576  12.303  22.544  12.465
97229W        W69577   5.756  39.411  12.036
97230W        W69578  33.077  30.111   0.782
97231W        W69579  42.950  34.986   2.393
97232W        W69580   0.340  14.324  13.474
97233W        W69581  12.695  40.432  13.999
97234W        W69582  34.887  11.233   1.923
97235W        W69583   3.798   9.285   1.377
97236W        W69584  19.570  34.085  11.960
97237W        W69585  39.510  44.972  12.409
97238W        W69586   2.316  38.546   4.333
97239W        W69587  21.589   8.866   3.838
97240W        W69588  27.037  13.287   2.262
97241W        W69589  28.945  19.746  14.359
97242W        W69590  36.381  23.647   0.323
97243W        W69591  18.704   7.254   1.338
97244W        W69592  33.006  10.764   1.409
97245W        W69593  24.155   7.172  10.573
97246W        W69594  35.593   0.303  12.425
97247W        W69595  42.521  37.026   4.134
97248W        W69596  38.455  38.910  11.971
97249W        W69597  31.424  35.999   1.243
97250W        W69598  30.611  11.815   2.758
97251W        W69599   2.767   7.408  13.517
97252W        W69600  21.040   2.936   0.396
97253W        W69601  23.503  14.611   2.687
97254W        W69602  17.077   6.415  12.414
97255W        W69603  16.653   6.789   3.777
97256W        W69604  42.296  21.138  12.861
97257W        W69605   8.223  33.975  13.394
97258W        W69606  10.189  36.409   1.260
97259W        W69607  44.822  35.532   1.735
97260W        W69608  43.776  24.595   4.233
97261W        W69609  32.078  41.387  11.042
97262W        W69610  22.040  30.604   1.831
97263W        W69611  11.258  19.275  12.560
97264W        W69612  17.149  43.425   2.711
97265W        W69613  22.193  12.813   0.391
97266W        W69614  44.401  26.003   3.815
97267W        W69615  16.615   4.418  11.025
97268W        W69616   1.456  27.194   2.753
97269W        W69617  38.847  40.323   2.846
97270W        W69618  43.298   8.724   3.357
97271W        W69619  33.080   1.470  12.576
97272W        W69620   6.394  44.793  14.888
97273W        W69621  41.326  13.625   1.911
97274W        W69622   2.880  19.125   1.237
97275W        W69623  18.666   2.281  11.497
97276W        W69624  35.598  44.283  11.499
97277W        W69625  19.140  12.624  14.405
97278W        W69626  43.949  18.564  14.825
97279W        W69627  17.229  14.791  14.467
97280W        W69628   4.249  34.901  13.942
97281W        W69629  17.131  23.570   1.738
97282W        W69630  25.023  30.650   3.753
97283W        W69631   6.742   7.720  14.365
97284W        W69632   9.314  43.284  12.075
97285W        W69633  29.658  20.578   2.213
97286W        W69634  24.102  20.215  14.940
97287W        W69635  13.840  42.891  14.952
97288W        W69636  28.480  23.509   4.772
97289W        W69637  13.663  15.291   3.238
97290W        W69638   3.336  21.635  14.444
97291W        W69639  43.456   1.880  10.011
97292W        W69640  32.527  20.635  12.354
97293W        W69641  34.388  37.839   1.338
97294W        W69642  12.313  35.358   2.794
97295W        W69643   5.281  14.244  14.993
97296W        W69644   0.807  29.137  14.861
97297W        W69645  35.002   9.238   2.720
97298W        W69646  43.455  35.969  14.510
97299W        W69647  20.602   7.890   3.682
97300W        W69648  33.610  12.718  14.836
97301W        W69649  25.998   8.800   1.825
97302W        W69650  36.348  12.261  10.926
97303W        W69651  36.848  39.402   3.658
97304W        W69652  35.445  25.478  11.951
97305W        W69653  10.699   9.736  10.543
97306W        W69654  15.798  22.530  11.473
97307W        W69655   8.164  30.156  13.508
97308W        W69656  20.619  27.157   3.176
97309W        W69657  18.224  35.087   4.793
97310W        W69658  40.940  18.768  12.438
97311W        W69659  31.914  15.610   4.829
97312W        W69660   0.804  44.811   3.242
97313W        W69661  27.082  29.933  13.370
97314W        W69662  20.194  13.631   2.869
97315W        W69663  30.460  32.449   1.421
97316W        W69664   5.867   2.423   2.342
97317W        W69665   1.866  27.007  12.826
97318W        W69666  38.364  26.190   0.727
97319W        W69667   7.698  18.686  13.921
97320W        W69668  18.068  24.032   2.716
97321W        W69669  31.982   8.404   0.473
97322W        W69670   5.728  38.452   3.187
97323W        W69671  20.529  29.103   2.281
97324W        W69672  16.191  13.643   4.281
97325W        W69673   6.393   8.268   2.795
97326W        W69674  18.645   1.278   2.858
97327W        W69675  30.973  25.707   2.410
97328W        W69676  17.673  13.631   4.259
97329W        W69677  42.428  15.306  13.425
97330W        W69678  12.220  33.991   2.205
97331W        W69679  42.485  36.516   2.393
97332W        W69680  19.722  44.919  10.890
97333W        W69681  25.039  20.099   3.245
97334W        W69682  26.586  31.998   2.738
97335W        W69683  23.127  32.052   2.359
97336W        W69684  12.692  27.172   2.895
97337W        W69685  43.383   6.212  13.818
97338W        W69686  10.247  23.008  10.898
97339W        W69687  32.049  20.710   2.310
97340W        W69688  26.100  27.041   4.176
97341W        W69689   2.259   9.664  12.949
97342W        W69690  33.557   4.932   1.245
97343W        W69691  23.634  26.556   2.209
97344W        W69692  26.204   0.411  14.947
97345W        W69693  21.178  31.126   0.285
97346W        W69694  44.424  33.119  11.998
97347W        W69695   2.875  22.182  12.419
97348W        W69696   8.264  15.725   2.243
97349W        W69697  18.564   5.413  10.491
97350W        W69698  31.042  22.513   3.145
97351W        W69699  31.899  10.172  12.403
97352W        W69700   9.664   5.737   3.753
97353W        W69701   7.757  31.903  10.579
97354W        W69702   6.388  16.789  12.548
97355W        W69703  29.998  41.944  14.414
97356W        W69704  42.966  36.526  12.072
97357W        W69705  41.908  38.538   2.394
97358W        W69706  31.529  19.111   1.863
97359W        W69707  32.584   8.719   5.581
97360W        W69708  41.037  33.093  12.976
97361W        W69709   3.280   0.749   0.437
97362W        W69710   1.443   7.204  10.519
97363W        W69711  15.631  40.861   3.719
97364W        W69712   0.744  20.081   2.787
97365W        W69713   2.820  14.295  10.458
97366W        W69714  43.882  23.190   4.728
97367W        W69715   3.791  41.859  12.089
97368W        W69716  12.236   4.439  12.402
97369W        W69717  37.014  11.324  11.518
97370W        W69718  11.657   7.736   0.748
97371W        W69719   5.857  23.212  10.959
97372W        W69720  14.822  30.492  14.828
97373W        W69721  16.675   9.703   1.922
97374W        W69722   1.399  24.093   4.749
97375W        W69723  23.617  27.478   4.693
97376W        W69724   4.303   3.359  12.028
97377W        W69725  18.203  17.221   3.651
97378W        W69726  20.762  40.548  14.353
97379W        W69727  42.304  24.549   1.695
97380W        W69728  39.365  32.564  13.475
97381W        W69729  40.414  23.652   3.721
97382W        W69730  12.615  19.155  14.878
97383W        W69731  31.997  22.237  14.965
97384W        W69732   9.226  12.831  13.479
97385W        W69733   9.706   0.466   1.752
97386W        W69734   2.810   1.825  13.388
97387W        W69735  42.798  33.508   4.652
97388W        W69736  28.139  28.444   0.846
97389W        W69737   3.395  25.082   1.435
97390W        W69738  32.106  21.176   0.385
97391W        W69739  14.190  22.577   5.229
97392W        W69740  11.291   5.308   0.441
97393W        W69741  32.608  27.967  10.986
97394W        W69742   4.383  20.652  14.383
97395W        W69743  14.294  26.061   2.788
97396W        W69744   9.392  43.328   0.828
97397W        W69745  25.701  22.740  13.859
97398W        W69746  11.646  15.268  14.762
97399W        W69747   2.440  18.574  10.951
97400W        W69748  37.939  29.111   4.770
97401W        W69749  23.665  33.519  12.083
97402W        W69750  24.168  18.664  10.550
97403W        W69751  27.482  38.052   1.890
97404W        W69752   0.794  21.041   5.148
97405W        W69753  19.201  21.515   0.873
97406W        W69754  10.863   4.362   0.454
97407W        W69755  17.783  38.052   1.724
97408W        W69756  22.230  34.891  11.937
97409W        W69757   9.169   0.785  12.024
97410W        W69758  35.100  11.128  13.927
97411W        W69759  44.753   6.312  10.160
97412W        W69760   1.788   1.478  12.928
97413W        W69761  24.073   3.729   4.662
97414W        W69762   1.953  44.759   4.617
97415W        W69763   1.977   6.259  14.499
97416W        W69764  33.419  20.272  13.919
97417W        W69765  44.808  37.864  10.409
97418W        W69766  11.330  16.737   1.235
97419W        W69767  41.894  10.698  10.625
97420W        W69768   2.899  33.082  11.560
97421W        W69769  20.626   7.197   2.399
97422W        W69770   1.801  29.491  13.427
97423W        W69771  35.852  26.963  10.588
97424W        W69772  14.706   7.727  14.945
97425W        W69773  27.092  15.273   3.666
97426W        W69774  25.130  17.632  12.885
97427W        W69775   6.847  27.526  12.510
97428W        W69776  21.078  39.058  13.935
97429W        W69777  20.532  19.538  11.905
97430W        W69778  21.610   5.743   3.260
97431W        W69779  36.387  22.735   5.260
97432W        W69780  14.262  29.166   2.773
97433W        W69781   5.404  42.795  14.791
97434W        W69782  11.300  21.645   4.640
97435W        W69783  11.251  26.089   1.234
97436W        W69784  36.931  25.669  11.863
97437W        W69785   4.866  32.101   9.948
97438W        W69786   2.816  22.609   3.673
97439W        W69787   9.253  30.591  12.064
97440W        W69788  35.401   8.318   1.844
97441W        W69789   7.280  20.734  14.299
97442W        W69790  37.337  25.963   1.820
97443W        W69791  18.722  17.655  14.917
97444W        W69792  25.145  29.627  11.088
97445W        W69793  26.147  18.175   4.223
97446W        W69794  41.865  20.588   4.175
97447W        W69795  37.457  17.306  11.106
97448W        W69796   6.877  35.883  14.828
97449W        W69797  38.919   6.754  10.539
97450W        W69798  27.642  41.399  14.771
97451W        W69799   1.775  20.220  12.880
97452W        W69800   1.279  37.067  11.594
97453W        W69801  16.306  26.475  11.047
97454W        W69802  21.226  11.737  11.129
97455W        W69803  34.062  33.111   4.292
97456W        W69804  23.657  14.331   4.220
97457W        W69805  12.841  35.486   1.236
97458W        W69806   5.408  21.543   4.279
97459W        W69807  19.244  17.742  11.875
97460W        W69808  26.641  15.698  13.487
97461W        W69809   6.222  38.002   1.736
97462W        W69810  24.176  13.125   0.292
97463W        W69811  16.642  11.212  11.389
97464W        W69812  19.084  40.306  11.864
97465W        W69813  18.607  32.593   5.087
97466W        W69814  35.932   4.343  12.562
97467W        W69815  24.059  27.649   1.749
97468W        W69816  36.956  39.856   4.643
97469W        W69817  42.853  18.245  11.938
97470W        W69818  27.078   7.730  10.463
97471W        W69819  14.179  30.976  12.945
97472W        W69820   5.347   6.317  11.049
97473W        W69821  33.923  32.090   3.793
97474W        W69822  40.312  28.438  13.444
97475W        W69823  43.903  31.983  12.034
97476W        W69824  29.926  24.998  13.851
97477W        W69825   9.737  34.003  10.921
97478W        W69826   3.291  42.360   0.271
97479W        W69827  41.332  38.346   0.342
97480W        W69828  35.469   7.392  12.356
97481W        W69829  41.903  20.658   3.743
97482W        W69830  44.866   6.378   4.793
97483W        W69831  20.761   1.893  10.979
97484W        W69832  38.834  44.774  13.398
97485W        W69833  15.255  10.676   2.817
97486W        W69834  27.195   8.708  12.928
97487W        W69835  36.068  13.318   0.939
97488W        W69836  10.303  30.948   5.111
97489W        W69837   9.838  28.502   3.648
97490W        W69838  38.046  34.962  10.565
97491W        W69839  27.065  20.099   0.898
97492W        W69840   1.749  24.005  12.962
97493W        W69841  43.938  13.191   0.917
97494W        W69842  17.271  44.488  11.128
97495W        W69843  41.983  35.421  12.967
97496W        W69844   2.729  10.867  13.921
97497W        W69845  27.149   8.269  14.375
97498W        W69846   3.802  44.260  11.953
97499W        W69847  20.259  14.782   3.731
97500W        W69848  34.951   6.893  11.589
97501W        W69849  38.364  28.118  13.543
97502W        W69850  32.442  35.421  12.829
97503W        W69851  25.017  42.889   1.706
97504W        W69852   9.843  16.086   2.823
97505W        W69853  19.040  26.105   0.897
97506W        W69854  29.607  17.295  11.940
97507W        W69855  11.302  22.512  11.998
97508W        W69856  34.077  15.798  10.952
97509W        W69857  15.794   3.288   1.829
97510W        W69858  22.606  19.119   2.774
97511W        W69859  27.984  40.376   2.785
97512W        W69860   9.283   0.413   4.787
97513W        W69861  19.046  11.163  11.011
97514W        W69862  28.082   3.358  13.525
97515W        W69863  29.067  29.662  12.406
97516W        W69864  37.573  13.744  11.420
97517W        W69865  40.967  39.499  12.465
97518W        W69866   4.326   1.277   2.199
97519W        W69867  35.018  20.044  13.813
97520W        W69868  38.555  42.972  14.341
97521W        W69869  28.639   4.866  13.522
97522W        W69870   2.883   5.316  12.982
97523W        W69871  19.683   0.867  12.487
97524W        W69872  20.092  26.160   3.681
97525W        W69873  26.987  28.443   3.754
97526W        W69874  32.908  16.166   3.862
97527W        W69875  37.406  41.838   3.360
97528W        W69876  19.699  39.902  12.862
97529W        W69877  44.348  10.232  11.113
97530W        W69878  14.753  27.163   3.732
97531W        W69879  35.439   8.325  11.054
97532W        W69880  28.101  37.357   4.633
97533W        W69881  17.595  43.864   3.844
97534W        W69882   8.872   6.856   0.462
97535W        W69883  41.985   1.844   0.443
97536W        W69884  31.431  26.035  11.489
97537W        W69885  25.680  16.097   0.810
97538W        W69886  43.936  13.669   4.684
97539W        W69887  16.259  38.047   1.418
97540W        W69888   3.713  24.024   1.406
97541W        W69889   8.887  36.875  11.532
97542W        W69890  18.615  41.787  12.010
97543W        W69891  18.197  25.983  10.534
97544W        W69892  32.885  24.211  14.302
97545W        W69893  27.984  44.897  12.949
97546W        W69894  12.351  31.026   4.646
97547W        W69895  27.581  11.341  10.426
97548W        W69896   8.768   5.767   2.840
97549W        W69897  36.422  38.541  11.965
97550W        W69898  30.144   3.375  14.324
97551W        W69899  31.137  26.641  12.394
97552W        W69900  32.103  43.772  12.500
97553W        W69901   4.383  39.913  13.038
97554W        W69902  14.617  23.067   4.233
97555W        W69903   0.757  12.771   4.121
97556W        W69904  12.310  16.317  14.819
97557W        W69905  21.092  29.582  12.975
97558W        W69906   9.844  21.543   2.800
97559W        W69907   0.781  37.892  11.487
97560W        W69908  10.308  21.685  10.543
97561W        W69909  29.973  37.562   3.265
97562W        W69910  41.468  14.596   2.728
97563W        W69911  42.828   2.887  13.872
97564W        W69912  11.802  34.595  10.913
97565W        W69913  37.044  25.215   0.944
97566W        W69914  30.591  13.663   3.236
97567W        W69915   6.799  10.639  12.408
97568W        W69916  10.679   0.879   0.884
97569W        W69917  24.203  44.801   0.287
97570W        W69918  14.238  38.832   1.385
97571W        W69919  30.957  41.942  10.589
97572W        W69920   4.420  19.590   4.321
97573W        W69921   4.701  19.705  14.020
97574W        W69922  39.968  15.808   1.356
97575W        W69923  22.218   9.732  14.001
97576W        W69924   1.293  42.460   3.857
97577W        W69925  18.163  33.950  14.483
97578W        W69926  13.664  11.834   0.770
97579W        W69927  30.062  21.165   2.403
97580W        W69928  40.312  29.081   4.792
97581W        W69929  22.685   3.828   1.376
97582W        W69930   2.904   3.293   1.721
97583W        W69931  29.497  26.570   1.801
97584W        W69932  16.585  24.047   0.435
97585W        W69933   0.941  33.508  11.999
97586W        W69934  42.365  10.722   0.913
97587W        W69935   5.925  15.667   3.728
97588W        W69936  21.236  28.452   2.190
97589W        W69937  39.893  35.015   3.819
97590W        W69938  29.585   2.924   3.197
97591W        W69939  43.960  22.712   1.781
97592W        W69940  14.652   1.865   1.878
97593W        W69941  33.971   9.347   1.764
97594W        W69942  12.719  18.254  11.409
97595W        W69943  20.542  16.165  12.510
97596W        W69944  18.137  18.658  13.361
97597W        W69945  21.570  36.364  14.429
97598W        W69946   5.873  42.804   4.691
97599W        W69947  42.989   3.334  15.000
97600W        W69948  37.879   9.764  11.946
97601W        W69949  38.434  42.398   3.344
97602W        W69950  20.185  25.705  12.975
97603W        W69951  11.335  30.638   4.756
97604W        W69952  25.594  35.431   2.839
97605W        W69953  22.050  15.278  11.481
97606W        W69954  17.203  42.521  12.400
97607W        W69955  12.333  31.017   3.738
97608W        W69956  41.356  17.644   2.330
97609W        W69957  16.160  32.487  13.381
97610W        W69958   1.255  38.827  13.476
97611W        W69959  17.594  17.269  11.967
97612W        W69960   9.810  22.198   5.690
97613W        W69961  16.666  18.776   2.386
97614W        W69962   0.744   0.269   2.286
97615W        W69963  19.764   4.726  11.532
97616W        W69964  14.597  16.598   1.417
97617W        W69965  23.024  42.851  10.049
97618W        W69966   4.263   6.794  13.058
97619W        W69967   4.330   7.294   2.724
97620W        W69968  15.089  23.211  10.423
97621W        W69969   5.204   9.185  11.079
97622W        W69970   1.867  19.129  12.511
97623W        W69971  23.032  39.436   2.901
97624W        W69972  32.569  44.820  11.041
97625W        W69973  26.659  26.131   2.841
97626W        W69974  15.770  24.639   1.870
97627W        W69975  39.861  16.132  12.097
97628W        W69976  41.861  10.146   1.806
97629W        W69977  43.462  27.026   3.712
97630W        W69978  17.268  40.028   4.779
97631W        W69979  22.704  16.123  13.967
97632W        W69980  26.164  29.662  14.316
97633W        W69981  38.000  29.498  11.606
97634W        W69982   7.385  12.713  12.494
97635W        W69983   3.249  17.092  12.844
97636W        W69984   6.893   8.197  12.999
97637W        W69985  39.970  29.144  12.951
97638W        W69986  30.471  20.766   3.849
97639W        W69987  36.873  36.993   1.884
97640W        W69988  32.399   1.471  13.923
97641W        W69989  34.585  33.389   3.820
97642W        W69990   3.873  39.469  14.955
97643W        W69991   5.362  36.362  11.532
97644W        W69992  39.463  28.547   0.370
97645W        W69993  32.107  28.506   2.706
97646W        W69994  23.634  16.636  11.383
97647W        W69995  14.610   0.285   2.776
97648W        W69996  27.684   1.947  10.556
97649W        W69997  23.208   6.686   9.461
97650W        W69998  14.180   8.759  10.508
97651W        W69999  32.504  15.648  12.546
97652W        W70000  16.651  21.726   0.381
97653W        W70001   1.770  23.588  14.348
97654W        W70002  22.151  15.138  13.385
97655W        W70003   2.966  42.889  12.049
97656W        W70004  36.953   2.730   0.872
97657W        W70005   0.321  24.083   4.235
97658W        W70006   9.836   2.942   0.949
97659W        W70007  39.899  37.979   2.848
97660W        W70008   5.783  43.771  10.472
97661W        W70009   5.861  31.494   3.331
97662W        W70010  21.722  20.686  10.935
97663W        W70011  32.405  21.239  12.843
97664W        W70012  14.729  10.714   1.235
97665W        W70013  43.834  43.892   4.718
97666W        W70014  30.997  43.444   1.831
97667W        W70015  36.033   0.924   2.415
97668W        W70016  24.105  30.447  13.495
97669W        W70017   8.302  26.978  13.544
97670W        W70018  22.639   0.894   1.767
97671W        W70019   2.897  25.070   0.443
97672W        W70020  31.521  25.079  10.929
97673W        W70021  38.344   4.703   2.748
97674W        W70022  22.131   0.378   1.226
97675W        W70023  38.960   4.423   3.824
97676W        W70024   7.694  34.438  13.378
97677W        W70025   1.936  39.391  14.414
97678W        W70026  11.165   5.273  12.492
97679W        W70027  35.507   7.757   3.248
97680W        W70028   4.315   4.204   3.338
97681W        W70029   1.470  39.538   1.425
97682W        W70030   8.317  11.821   3.182
97683W        W70031  14.794   9.318  14.431
97684W        W70032  34.519  44.428   4.186
97685W        W70033  37.549  33.959  14.365
97686W        W70034   8.242   2.914   3.346
97687W        W70035  13.717  31.630  13.399
97688W        W70036   5.862  12.218  12.856
97689W        W70037  35.929   3.935   0.309
97690W        W70038  43.820  25.483  14.331
97691W        W70039  35.964   4.422  14.326
97692W        W70040   4.332  23.192  11.503
97693W        W70041  36.901  20.231   9.670
97694W        W70042  12.650   2.962   0.450
97695W        W70043  29.171  29.425   0.296
97696W        W70044  17.129  20.698  10.606
97697W        W70045  34.948  21.102  10.068
97698W        W70046  18.055  24.178  13.404
97699W        W70047   6.327  18.237  10.430
97700W        W70048   9.759  10.335   0.416
97701W        W70049   2.838  28.644   0.921
97702W        W70050   1.400  39.035  13.993
97703W        W70051   7.413  22.644   0.351
97704W        W70052  31.520  18.210   2.709
97705W        W70053  40.958  23.050  10.510
97706W        W70054  37.832  41.990  13.024
97707W        W70055  29.649  41.016  11.439
97708W        W70056  14.733  14.640  13.876
97709W        W70057  26.591  35.569  13.013
97710W        W70058   7.863   6.820  12.367
97711W        W70059  37.973  32.082   2.872
97712W        W70060  28.616   9.689  11.402
97713W        W70061  39.001  40.480   4.117
97714W        W70062  27.177  21.237   4.825
97715W        W70063  28.942  24.113  13.350
97716W        W70064   5.222  22.670  10.927
97717W        W70065  37.906  27.018   0.332
97718W        W70066   5.862  42.019   1.444
97719W        W70067  23.014   6.234  12.482
97720W        W70068  18.176  29.600  13.418
97721W        W70069   1.847   7.758   4.639
97722W        W70070   8.358  36.057  11.521
97723W        W70071   3.718  30.083  11.519
97724W        W70072   8.302  40.038  13.063
97725W        W70073  44.438   2.857  11.600
97726W        W70074  40.402  28.623  12.540
97727W        W70075   7.266  36.028   2.263
97728W        W70076   2.838   1.739   1.932
97729W        W70077  23.548  31.611   3.283
97730W        W70078  27.563   1.407   0.730
97731W        W70079  30.010  30.005  14.389
97732W        W70080  35.368  37.397  10.517
97733W        W70081   3.447  18.776  12.954
97734W        W70082  14.116  26.541   1.798
97735W        W70083  24.213   4.373   1.784
97736W        W70084  16.812   1.267   3.673
97737W        W70085  13.683   7.862   3.858
97738W        W70086  25.995  31.970  14.869
97739W        W70087  12.675   5.343   0.345
97740W        W70088   1.259  15.635   0.461
97741W        W70089  15.757  39.011   4.683
97742W        W70090  26.592  22.682   4.290
97743W        W70091   3.882  37.551   2.356
97744W        W70092  11.724  17.763   0.766
97745W        W70093   5.226  43.430  11.888
97746W        W70094  19.702  18.118  12.355
97747W        W70095   1.938  42.009   1.833
97748W        W70096  16.717  20.254  11.470
97749W        W70097  31.514  39.324  14.857
97750W        W70098  34.081  14.766   3.687
97751W        W70099  29.502  20.157   2.667
97752W        W70100  16.602   3.460  10.978
97753W        W70101  14.307   6.707   3.763
97754W        W70102   4.280   2.405  10.574
97755W        W70103   7.244   4.284   1.377
97756W        W70104  20.095  23.507  10.098
97757W        W70105  44.868  16.103  13.888
97758W        W70106  28.577  42.317   2.682
97759W        W70107  29.458  16.576  14.501
97760W        W70108  36.536  20.137   9.964
97761W        W70109  15.100  17.126   1.247
97762W        W70110  44.273  28.013   0.256
97763W        W70111  23.007  13.143   2.270
97764W        W70112  38.432  30.945   0.808
97765W        W70113   8.690   8.272  10.560
97766W        W70114  44.988   2.294  14.970
97767W        W70115   4.388   2.390   2.847
97768W        W70116  31.935  21.610  13.352
97769W        W70117  12.129   9.761   1.317
97770W        W70118   5.426  36.021  12.996
97771W        W70119  39.420  11.241   4.752
97772W        W70120  41.394  15.282  14.335
97773W        W70121  12.755  33.522   5.114
97774W        W70122   2.315  17.107  12.363
97775W        W70123  32.040  38.930   3.339
97776W        W70124  31.416  37.027   4.817
97777W        W70125  29.040   0.252   1.296
97778W        W70126  38.545  23.999  10.561
97779W        W70127  24.129  29.972  13.420
97780W        W70128  32.437  30.913   0.246
97781W        W70129   0.391  12.124  11.572
97782W        W70130  14.613  41.445  12.390
97783W        W70131  34.951  13.185  11.591
97784W        W70132  43.834  33.032  13.031
97785W        W70133   3.875  14.786   4.633
97786W        W70134  25.558  26.459  14.276
97787W        W70135   9.387  21.516  10.539
97788W        W70136  12.182   1.445  12.353
97789W        W70137  20.554  25.096  10.482
97790W        W70138  37.995  40.030   3.204
97791W        W70139  19.550   0.857   5.124
97792W        W70140   3.403  35.922   2.818
97793W        W70141  20.156  27.519  13.870
97794W        W70142  37.024  19.119   1.321
97795W        W70143  18.140  22.154  13.053
97796W        W70144   3.868  38.358  13.375
97797W        W70145  24.101   5.251  11.461
97798W        W70146  13.220  43.314   2.675
97799W        W70147  35.040  30.099  14.021
97800W        W70148  42.373  31.973  10.996
97801W        W70149  23.729  28.646  11.914
97802W        W70150  22.106   8.779  14.819
97803W        W70151  42.873  10.775  14.893
97804W        W70152  21.513   6.681  12.023
97805W        W70153  32.092   9.270  14.895
97806W        W70154  29.124  41.480   0.755
97807W        W70155  31.057  29.580  12.902
97808W        W70156  21.193  12.846  11.987
97809W        W70157  32.120  36.843  11.942
97810W        W70158  30.129  15.238   4.637
97811W        W70159  19.166   1.346   3.834
97812W        W70160  27.478  36.575  13.961
97813W        W70161   6.682  31.945  14.990
97814W        W70162  16.593  21.744  12.411
97815W        W70163  36.961  33.874   1.315
97816W        W70164  12.249   0.886  10.450
97817W        W70165  35.086  33.582   2.409
97818W        W70166  34.041  11.804   4.197
97819W        W70167  37.966  44.338  14.397
97820W        W70168  31.985  36.417  13.377
97821W        W70169   7.244  38.991  10.441
97822W        W70170  29.957  30.554   1.870
97823W        W70171   6.801   9.348   3.644
97824W        W70172  42.978  35.571  10.590
97825W        W70173  22.054   1.804  10.897
97826W        W70174   6.223  35.466   4.142
97827W        W70175  25.166  21.749  14.814
97828W        W70176  24.144   9.789  13.422
97829W        W70177  10.690   8.321  12.056
97830W        W70178  18.294  20.116   3.779
97831W        W70179  17.587  37.013  13.804
97832W        W70180   8.826   7.416  12.875
97833W        W70181  25.640  34.951  10.893
97834W        W70182  37.837   6.364   3.201
97835W        W70183  22.036  29.473  11.603
97836W        W70184  26.139  15.750  14.458
97837W        W70185  26.607  38.476   1.728
97838W        W70186   6.705   3.734   4.186
97839W        W70187  22.143  14.807  11.860
97840W        W70188  18.704  44.768  11.423
97841W        W70189  42.402  29.147  13.353
97842W        W70190  26.000  25.082   4.196
97843W        W70191  38.857  12.156   0.892
97844W        W70192  36.874  14.246  14.991
97845W        W70193  29.617   0.358   1.355
97846W        W70194  44.972   4.910  12.510
97847W        W70195  22.623  23.011  10.412
97848W        W70196  44.816  34.505   0.906
97849W        W70197  18.637  18.126  14.909
97850W        W70198  27.972  44.294   0.811
97851W        W70199  35.960  44.817   3.666
97852W        W70200  30.456  18.068  11.609
97853W        W70201  44.809   8.752  10.640
97854W        W70202  14.613  33.423  13.310
97855W        W70203  20.535  25.500  10.954
97856W        W70204   0.452  17.163  13.978
97857W        W70205   4.778  10.275   5.256
97858W        W70206  40.846  37.391   3.288
97859W        W70207  43.866  25.623  12.096
97860W        W70208  38.894   4.705  13.026
97861W        W70209  12.237  18.609   2.381
97862W        W70210  32.121  35.412   1.374
97863W        W70211   6.270  21.610   4.224
97864W        W70212  36.895   3.817   9.940
97865W        W70213  44.398  14.096  12.444
97866W        W70214  11.214  11.783  12.357
97867W        W70215  28.523  20.648  14.858
97868W        W70216  25.489  23.563   1.419
97869W        W70217  41.366  20.727  12.365
97870W        W70218  17.283  19.585   1.352
97871W        W70219  24.191  15.095  10.905
97872W        W70220  26.558  30.582  10.627
97873W        W70221   4.803   9.328  12.001
97874W        W70222  22.179  19.731  10.948
97875W        W70223  38.384  37.059   3.774
97876W        W70224  28.124  37.856  14.806
97877W        W70225   7.331  35.925  13.482
97878W        W70226  22.200  20.766  12.530
97879W        W70227  13.149  27.165   0.291
97880W        W70228  35.020  23.509  13.902
97881W        W70229  31.587  25.517  14.452
97882W        W70230  35.968  40.941  10.526
97883W        W70231   6.742   0.448   0.967
97884W        W70232  33.390  38.843   3.744
97885W        W70233  44.487  40.003  13.544
97886W        W70234  33.616   7.389   9.940
97887W        W70235   2.454  17.611   4.664
97888W        W70236  26.649   4.720  10.141
97889W        W70237   8.785  32.404  12.032
97890W        W70238  35.939  30.635   1.327
97891W        W70239  36.452   2.923   1.794
97892W        W70240  30.541   7.817  13.390
97893W        W70241  32.021   5.204  10.541
97894W        W70242  35.558  44.488   0.962
97895W        W70243   8.246  23.615   2.884
97896W        W70244  43.345   6.737   2.685
97897W        W70245  34.601  20.090   2.206
97898W        W70246  10.643   9.269   1.812
97899W        W70247  44.400  14.235  10.053
97900W        W70248  19.603  35.971   2.354
97901W        W70249   6.708  25.201   2.864
97902W        W70250  38.445  44.489   1.748
97903W        W70251  24.201   9.711   2.225
97904W        W70252   5.302  26.595  12.006
97905W        W70253  17.753  28.539   0.907
97906W        W70254  10.659   0.473   2.843
97907W        W70255  39.529  44.777   3.156
97908W        W70256  27.584   2.458   1.818
97909W        W70257  39.475  37.856  14.514
97910W        W70258  44.000  28.495  13.020
97911W        W70259   5.730   0.461   2.840
97912W        W70260   2.814  19.257   1.808
97913W        W70261  29.431  30.526  11.437
97914W        W70262   1.775  27.616  13.423
97915W        W70263  34.875  35.466  10.990
97916W        W70264  14.653  22.108  12.994
97917W        W70265  21.625  24.001  14.387
97918W        W70266  37.020   2.819   4.681
97919W        W70267  31.988  27.142   1.780
97920W        W70268  32.054  35.485   2.227
97921W        W70269  10.214  24.145  12.395
97922W        W70270  19.567  43.836  14.858
97923W        W70271  36.560   2.803  14.310
97924W        W70272  31.624   2.870  14.026
97925W        W70273  23.127  41.326   4.192
97926W        W70274   7.363  34.096  10.034
97927W        W70275  26.639   4.214   4.615
97928W        W70276  38.014  28.581   1.796
97929W        W70277  22.628  26.004   0.404
97930W        W70278  11.335   0.492   4.219
97931W        W70279  18.628  37.040   0.778
97932W        W70280  24.030  15.260   4.303
97933W        W70281  12.652  26.649   0.890
97934W        W70282  20.128   3.417   4.814
97935W        W70283  21.258   0.912  12.029
97936W        W70284   3.744  10.302   4.621
97937W        W70285  11.727  16.727  10.589
97938W        W70286  30.588  41.820  12.990
97939W        W70287  14.807   9.370  11.119
97940W        W70288  12.129  39.010   2.379
97941W        W70289  11.235  18.708   4.154
97942W        W70290  11.325  28.512  11.042
97943W        W70291  19.689  23.636  10.613
97944W        W70292  22.607   9.650   0.892
97945W        W70293   4.894  17.203  14.290
97946W        W70294   0.360  40.364   2.807
97947W        W70295  10.204   4.405  12.037
97948W        W70296  13.813  16.173   0.753
97949W        W70297  19.225  16.076   2.241
97950W        W70298   3.954  25.695   2.181
97951W        W70299  23.677   3.447   2.694
97952W        W70300  39.063  26.512  13.547
97953W        W70301  35.359  42.929   4.223
97954W        W70302  34.991  43.437  13.508
97955W        W70303  11.257  10.339  11.607
97956W        W70304  17.225  43.275  13.971
97957W        W70305  35.961   2.735   2.862
97958W        W70306  37.021  43.014  12.436
97959W        W70307  31.605  34.516  11.026
97960W        W70308   7.696  31.100   1.796
97961W        W70309  18.554   0.421   1.445
97962W        W70310  28.990  38.454  12.341
97963W        W70311  42.775   7.326   1.700
97964W        W70312   6.316  16.309  10.556
97965W        W70313   7.183  39.485   0.311
97966W        W70314  17.257  42.375   3.276
97967W        W70315  12.644  40.446   1.845
97968W        W70316  39.853  14.333  14.789
97969W        W70317  21.030  29.114  11.986
97970W        W70318  40.331   3.863   4.348
97971W        W70319  10.753  28.520  12.529
97972W        W70320   7.209  42.476   3.759
97973W        W70321  36.086  20.146  13.883
97974W        W70322  27.142  38.968  12.489
97975W        W70323  22.627  28.054   1.918
97976W        W70324  31.447  37.531   4.140
97977W        W70325  22.162  33.882  13.313
97978W        W70326  30.949  15.653   3.691
97979W        W70327   1.458  29.668   2.754
97980W        W70328  11.289   7.279  10.038
97981W        W70329  30.595   7.171   4.696
97982W        W70330   2.301  33.037   4.671
97983W        W70331   2.769  16.297   1.280
97984W        W70332  12.316   2.421   1.290
97985W        W70333  13.336  25.975  14.894
97986W        W70334  39.816  42.295   4.616
97987W        W70335   5.263   6.808  10.518
97988W        W70336  26.476  36.417   2.328
97989W        W70337  39.469   6.336   2.722
97990W        W70338  36.417   7.866   4.777
97991W        W70339   2.905   6.349  12.037
97992W        W70340  42.825  19.099  10.491
97993W        W70341  33.469  32.914   1.286
97994W        W70342  20.660  27.102   4.235
97995W        W70343  25.204  24.568  10.480
97996W        W70344  25.199  14.602   3.217
97997W        W70345  15.650   2.469   4.277
97998W        W70346  22.719   9.841   1.304
97999W        W70347  22.643  35.463   2.737
98000W        W70348  12.637  24.638  11.041
98001W        W70349  42.846  26.056   0.396
98002W        W70350  42.870   3.867  14.880
98003W        W70351   9.857  40.549  13.793
98004W        W70352   2.885  26.177  13.497
98005W        W70353   0.387  40.467   1.439
98006W        W70354  26.465  20.586  11.902
98007W        W70355  38.539  15.687   2.390
98008W        W70356  29.129  34.865   1.412
98009W        W70357  25.206  13.170   2.289
98010W        W70358  34.047  15.723   0.380
98011W        W70359   1.357   5.933  10.890
98012W        W70360  14.296  11.201   3.157
98013W        W70361  25.082  42.524   0.385
98014W        W70362   6.221  32.487  14.920
98015W        W70363  11.737  30.485   4.683
98016W        W70364  13.181  15.591  12.868
98017W        W70365  38.007  41.818  11.591
98018W        W70366   6.839  39.981  14.356
98019W        W70367   9.732   4.316   5.771
98020W        W70368  13.788  21.724   1.321
98021W        W70369  32.129   9.804   2.726
98022W        W70370   9.273  23.660  11.402
98023W        W70371  42.876  37.474   2.279
98024W        W70372  10.238   0.908   2.752
98025W        W70373   3.718  19.258  10.900
98026W        W70374  20.562  15.610  10.637
98027W        W70375  17.621   2.323   1.714
98028W        W70376   3.380   4.417   3.837
98029W        W70377  33.131  42.958  11.553
98030W        W70378  23.631  39.853  13.494
98031W        W70379  30.556   8.312   0.326
98032W        W70380  27.163  20.110  13.334
98033W        W70381  36.466   8.207   0.449
98034W        W70382  35.556  38.984  11.418
98035W        W70383  18.697  14.811  12.963
98036W        W70384  37.989  12.132   4.802
98037W        W70385  13.338  33.002  12.857
98038W        W70386   2.371  12.170   0.406
98039W        W70387  33.080  16.626   3.383
98040W        W70388  12.809  41.828  11.482
98041W        W70389  39.850  13.844   2.354
98042W        W70390  15.328  27.176  13.521
98043W        W70391   0.399  24.122   3.283
98044W        W70392  21.142  13.216   4.756
98045W        W70393  35.862  30.150  10.433
98046W        W70394  18.620  11.206  10.984
98047W        W70395   8.173  38.523  14.785
98048W        W70396   3.286   1.313   3.806
98049W        W70397   2.422  39.061   4.696
98050W        W70398  40.040  35.574  11.476
98051W        W70399  43.432  16.641   4.351
98052W        W70400  44.980  11.359  12.509
98053W        W70401  17.079  13.606  14.800
98054W        W70402   9.874  36.500   2.855
98055W        W70403   4.268   0.917  11.449
98056W        W70404  24.074   3.338  10.086
98057W        W70405  30.066  13.227  13.423
98058W        W70406  12.305   7.697  12.996
98059W        W70407  42.836  31.440   4.226
98060W        W70408  39.968  41.358   4.183
98061W        W70409  37.482   0.269  13.061
98062W        W70410  36.880   9.833  14.879
98063W        W70411   1.476  22.112  13.523
98064W        W70412  22.515  30.647  12.904
98065W        W70413  40.401  13.255   1.711
98066W        W70414   8.292  30.493   2.227
98067W        W70415  23.088  25.092   1.849
98068W        W70416  37.931   8.192  14.481
98069W        W70417  11.789  35.989  11.926
98070W        W70418  36.416  11.254  12.843
98071W        W70419  27.459  28.993   1.422
98072W        W70420   7.821  19.177  14.368
98073W        W70421  10.712  20.154   1.267
98074W        W70422  44.955  14.660   1.372
98075W        W70423   4.750  13.766   3.206
98076W        W70424  29.954  11.839   0.729
98077W        W70425   5.819  18.600   3.773
98078W        W70426   7.364  30.099  12.068
98079W        W70427  28.450   9.274  13.844
98080W        W70428   7.254  26.041   2.817
98081W        W70429   1.257  30.091   0.836
98082W        W70430   3.779   5.425   0.287
98083W        W70431  40.992  44.829   0.925
98084W        W70432  34.030  37.341  13.818
98085W        W70433  12.765  22.647  13.372
98086W        W70434  38.460  27.654  14.011
98087W        W70435   1.781  12.261   3.679
98088W        W70436   8.215  42.431   1.390
98089W        W70437  28.132  40.959  11.071
98090W        W70438  18.734  39.861   1.855
98091W        W70439  14.824  18.651   3.732
98092W        W70440  30.610  16.250   2.251
98093W        W70441  28.478  21.712   4.813
98094W        W70442  15.255  15.626  14.925
98095W        W70443  27.057  11.284  11.074
98096W        W70444  38.506   2.763  14.818
98097W        W70445  21.027  38.061   4.639
98098W        W70446   1.324   3.738  10.449
98099W        W70447  27.534  14.737   3.346
98100W        W70448  38.985  40.451   4.796
98101W        W70449   8.802  31.115  14.424
98102W        W70450  41.501   0.382   1.413
98103W        W70451  26.998  30.949   3.273
98104W        W70452  37.336   2.862   4.199
98105W        W70453  18.292  17.660  14.489
98106W        W70454  39.945   7.850   3.825
98107W        W70455   4.213  37.863  13.347
98108W        W70456  42.819  26.612   3.830
98109W        W70457  40.544  44.838  12.900
98110W        W70458   0.355  14.645  11.015
98111W        W70459  33.468  22.709  12.955
98112W        W70460  27.569  23.563  14.819
98113W        W70461  24.199  10.753   1.342
98114W        W70462  38.532  35.430  10.584
98115W        W70463   5.392  16.085  12.574
98116W        W70464  38.347  16.239  10.929
98117W        W70465  18.108  20.114   2.733
98118W        W70466   9.376  19.091  12.574
98119W        W70467  42.887   4.844  12.826
98120W        W70468   3.903  16.220  11.078
98121W        W70469  23.594  40.461  13.405
98122W        W70470  15.680   2.314   5.233
98123W        W70471  10.799  39.060  11.584
98124W        W70472  17.691  35.005   1.796
98125W        W70473  39.326   5.303  12.996
98126W        W70474  34.059  33.400   1.846
98127W        W70475  21.245   8.721  14.336
98128W        W70476  22.168  26.654   0.306
98129W        W70477   5.689  25.641  11.499
98130W        W70478  27.512  33.599  14.859
98131W        W70479  32.637  25.615  11.479
98132W        W70480   8.888   1.466   0.870
98133W        W70481  35.862  31.060   1.383
98134W        W70482   9.383  29.013  14.963
98135W        W70483  14.681   1.358  14.759
98136W        W70484  22.132  38.906  13.540
98137W        W70485  19.163   4.209   4.288
98138W        W70486  15.297   5.329  12.848
98139W        W70487  19.723  23.633   4.351
98140W        W70488   7.842  40.359   1.930
98141W        W70489  36.060  43.777  13.417
98142W        W70490  16.296  42.917  10.965
98143W        W70491   5.346   3.845  10.924
98144W        W70492  15.747  41.028  12.535
98145W        W70493  43.860  11.303  13.985
98146W        W70494  33.005  35.407   0.837
98147W        W70495  19.218   0.836  12.854
98148W        W70496   5.901  43.904  11.395
98149W        W70497  12.743  25.116  11.439
98150W        W70498   6.805   2.915  13.350
98151W        W70499  31.457  32.066   0.838
98152W        W70500  20.116   5.840  13.800
98153W        W70501   2.278  38.004   2.191
98154W        W70502   1.785  18.255   0.810
98155W        W70503  33.443  30.928   0.326
98156W        W70504  23.199  40.428  12.828
98157W        W70505  40.516  20.180   1.327
98158W        W70506  34.053  12.694   3.260
98159W        W70507  14.626  25.982  10.446
98160W        W70508  16.702  17.672   2.894
98161W        W70509  15.315  25.570  10.512
98162W        W70510  13.219  33.404   1.695
98163W        W70511  18.606  19.165  12.965
98164W        W70512  13.625   9.324  14.409
98165W        W70513  17.292  40.018   4.227
98166W        W70514  40.424  28.543  10.466
98167W        W70515  43.498  40.335  13.425
98168W        W70516  43.946  31.913  10.587
98169W        W70517   0.429  26.580  14.344
98170W        W70518   2.919   6.281   4.248
98171W        W70519  12.323  18.669  13.888
98172W        W70520   4.770  42.329  12.044
98173W        W70521  36.585   5.436  13.946
98174W        W70522  38.884  14.321  14.818
98175W        W70523  15.308  44.483   4.122
98176W        W70524  12.191  36.364   0.884
98177W        W70525  17.799  36.573  13.486
98178W        W70526   1.238  43.871  13.837
98179W        W70527   5.285  44.402  13.875
98180W        W70528   3.866  10.835  12.368
98181W        W70529  33.093   5.265  12.036
98182W        W70530  35.913  35.598   4.169
98183W        W70531   0.792  16.719   3.356
98184W        W70532   3.954  32.972   1.896
98185W        W70533  37.907  33.567  11.584
98186W        W70534  24.063  25.000   4.600
98187W        W70535  27.446  31.077   1.859
98188W        W70536  39.484  38.826   1.830
98189W        W70537  36.412  32.015   4.257
98190W        W70538   9.785   4.761   1.916
98191W        W70539  42.493  34.420  11.072
98192W        W70540  32.549  41.510  11.555
98193W        W70541  32.072  32.578  13.872
98194W        W70542  35.452  33.502   4.326
98195W        W70543  35.109  32.551  14.381
98196W        W70544  21.071  24.083   1.428
98197W        W70545  35.997  15.720   4.332
98198W        W70546  43.416   5.213  13.935
98199W        W70547  32.444   3.851  10.475
98200W        W70548  38.464  43.791   2.812
98201W        W70549  36.482  22.517   3.790
98202W        W70550  13.769  27.677   1.450
98203W        W70551  41.454  34.114   2.275
98204W        W70552   5.915  25.106   3.710
98205W        W70553  20.620  21.134   0.825
98206W        W70554  29.504  17.685   2.715
98207W        W70555  11.263  14.766   4.601
98208W        W70556  38.968  39.480   3.261
98209W        W70557  26.041  18.737   4.302
98210W        W70558  37.953  31.003  11.052
98211W        W70559  37.962  25.542   2.890
98212W        W70560   4.259  37.471   1.873
98213W        W70561   3.865  20.207   0.920
98214W        W70562  27.685  30.432  14.949
98215W        W70563   5.215  15.104  10.889
98216W        W70564   0.368   3.863   0.407
98217W        W70565  43.820  14.711  14.966
98218W        W70566  25.687  39.850   4.682
98219W        W70567  24.633  42.776  14.383
98220W        W70568  14.300  17.154  12.940
98221W        W70569  33.969  36.478  14.768
98222W        W70570   4.432  30.543  12.834
98223W        W70571  39.360  41.861   2.210
98224W        W70572   6.850   6.322   4.285
98225W        W70573  36.863  38.520   3.172
98226W        W70574  21.193  34.009  13.451
98227W        W70575   9.773   3.229  14.444
98228W        W70576  14.704  26.487   4.241
98229W        W70577  21.247  19.162   0.364
98230W        W70578  33.404   9.683  14.011
98231W        W70579  29.066   8.351   3.297
98232W        W70580  33.483  40.891   4.603
98233W        W70581  14.690  39.894   3.375
98234W        W70582   5.435  40.345   1.281
98235W        W70583  17.079  38.943  14.920
98236W        W70584  27.622  34.549  11.975
98237W        W70585  38.499  42.788  12.400
98238W        W70586  21.208  33.938   0.794
98239W        W70587  19.199  28.054   1.733
98240W        W70588  36.541  44.505  13.933
98241W        W70589  23.730  16.751  12.047
98242W        W70590  12.804  44.283   3.829
98243W        W70591  32.891  30.604   4.785
98244W        W70592  14.716  39.913   2.400
98245W        W70593  35.534  27.650  13.833
98246W        W70594  23.106  37.367   1.770
98247W        W70595   5.732  33.043   3.761
98248W        W70596  17.140   3.234   2.887
98249W        W70597  24.158  33.468   2.213
98250W        W70598  40.979  40.337  13.323
98251W        W70599  23.689  17.117  14.451
98252W        W70600  35.043  37.558   4.814
98253W        W70601  18.716  17.734  11.961
98254W        W70602  32.474   5.918  12.037
98255W        W70603  27.447   2.828  13.377
98256W        W70604  13.827  16.645  11.859
98257W        W70605  27.953  11.739   1.795
98258W        W70606  36.006  37.968  14.809
98259W        W70607  20.208  35.055   0.959
98260W        W70608  39.330  20.552   2.367
98261W        W70609   2.821   4.282  13.474
98262W        W70610   1.432  26.021   0.250
98263W        W70611   6.749  25.062  10.607
98264W        W70612  44.318  30.998  13.025
98265W        W70613   0.309   5.843   1.368
98266W        W70614   8.335  26.048   2.390
98267W        W70615  16.768  15.279  11.000
98268W        W70616  31.049  26.491   1.242
98269W        W70617  16.743   5.827   0.361
98270W        W70618  25.666   3.438  10.430
98271W        W70619  17.234   3.929  13.938
98272W        W70620  40.031  10.236  12.068
98273W        W70621  31.579  27.984   4.272
98274W        W70622  33.560  37.581   1.829
98275W        W70623  40.344   3.710   4.738
98276W        W70624   7.877  37.473   0.804
98277W        W70625  41.492  18.083  10.509
98278W        W70626  19.197  28.116  14.766
98279W        W70627   0.420  37.995  13.900
98280W        W70628  14.700  37.886  14.363
98281W        W70629  43.394  30.939   1.828
98282W        W70630  36.901  40.986  11.944
98283W        W70631   8.661  44.270  10.437
98284W        W70632  40.373  37.524  10.946
98285W        W70633  11.698  14.624  11.458
98286W        W70634  38.077  33.004   3.283
98287W        W70635  41.527  43.383   0.467
98288W        W70636  18.605   4.805   3.661
98289W        W70637  20.590  44.337   2.844
98290W        W70638  20.066   7.214   3.754
98291W        W70639  10.820   2.848  14.349
98292W        W70640   7.246  30.453   4.810
98293W        W70641  41.946   5.821  12.088
98294W        W70642   1.300  13.251   2.378
98295W        W70643   1.977  18.556   4.713
98296W        W70644   0.756  25.167  13.537
98297W        W70645  31.511  36.428  11.468
98298W        W70646  36.505   6.236   4.772
98299W        W70647  41.313  16.799   3.178
98300W        W70648  39.548  31.977  14.351
98301W        W70649  44.448  33.078  10.576
98302W        W70650   5.350  42.459   1.744
98303W        W70651  44.886   2.721  12.414
98304W        W70652  22.156  17.221   3.194
98305W        W70653  28.632  41.357  10.409
98306W        W70654  19.771  41.865  13.905
98307W        W70655  28.452  40.988   2.679
98308W        W70656  25.166  33.954  10.474
98309W        W70657   2.802  11.805   3.361
98310W        W70658  29.553  18.096  10.623
98311W        W70659  42.964  38.895  14.780
98312W        W70660   6.262   1.363  11.984
98313W        W70661  32.090  37.884  13.883
98314W        W70662  28.078  36.521  11.867
98315W        W70663  19.773  44.763  10.540
98316W        W70664  37.554  12.205   1.921
98317W        W70665  43.435  25.039  10.966
98318W        W70666  34.610  15.643  11.977
98319W        W70667   5.328  11.251   4.774
98320W        W70668  11.165  30.912  13.477
98321W        W70669  20.115  14.741  13.422
98322W        W70670  20.225  28.566   3.794
98323W        W70671  28.942  17.279  11.412
98324W        W70672  35.435   3.455   0.741
98325W        W70673   8.299  41.482   3.328
98326W        W70674  40.939  36.072   0.458
98327W        W70675  31.570  18.061  12.545
98328W        W70676  33.981  41.401   3.147
98329W        W70677  29.577  28.174  11.941
98330W        W70678  42.790   3.332   5.208
98331W        W70679  22.227  14.189   2.404
98332W        W70680  33.124  18.069   3.759
98333W        W70681  22.717   8.180   4.744
98334W        W70682   1.281   2.923  12.935
98335W        W70683  18.786  11.176  13.494
98336W        W70684  35.438  12.678  14.995
98337W        W70685   8.261  25.185   0.821
98338W        W70686  37.356  31.976   2.854
98339W        W70687  41.430  39.024  11.129
98340W        W70688  15.735  23.108   4.697
98341W        W70689  42.421  10.865  10.946
98342W        W70690  35.062  11.289  11.956
98343W        W70691   0.947  29.155   4.749
98344W        W70692  38.992   8.284  10.929
98345W        W70693  12.346  26.602   2.706
98346W        W70694  35.943   6.422  10.950
98347W        W70695  17.750  25.164  14.812
98348W        W70696   5.803  25.499  12.389
98349W        W70697  38.419  36.930   0.795
98350W        W70698  42.930  42.855   2.245
98351W        W70699  13.124  34.937   2.190
98352W        W70700  32.450  42.363   3.692
98353W        W70701   0.905  30.491   5.225
98354W        W70702  44.416  17.733   3.164
98355W        W70703  11.769  31.074   2.729
98356W        W70704  12.702  38.888  13.355
98357W        W70705  42.432  13.652  14.884
98358W        W70706  11.189  16.108   4.708
98359W        W70707  35.510   4.294   4.230
98360W        W70708  44.498  29.969  12.895
98361W        W70709  26.514   8.252   3.809
98362W        W70710  15.755  40.382   0.374
98363W        W70711  15.097  37.921   0.904
98364W        W70712  11.247   7.805  13.391
98365W        W70713  18.226  27.658  13.989
98366W        W70714  17.100   7.312  10.159
98367W        W70715  20.120  32.615   0.432
98368W        W70716  23.636  27.125  14.938
98369W        W70717  32.043   8.799  12.002
98370W        W70718  20.635  34.419  12.491
98371W        W70719  32.557  29.436  14.855
98372W        W70720  10.178  26.683  13.457
98373W        W70721  27.566  16.621  13.455
98374W        W70722  14.650  30.940   1.366
98375W        W70723  13.302  23.020   3.284
98376W        W70724  19.649  22.236   4.181
98377W        W70725  25.615  22.231  10.483
98378W        W70726  20.082  43.775   1.341
98379W        W70727  18.133   3.452  11.907
98380W        W70728  26.059  29.498  10.434
98381W        W70729  19.691  33.980  13.430
98382W        W70730  28.045  34.447   2.854
98383W        W70731  14.826  21.615   2.708
98384W        W70732  22.535  28.988  11.581
98385W        W70733  43.854   3.743  12.538
98386W        W70734   5.411  20.654  11.404
98387W        W70735   0.965  31.106  13.830
98388W        W70736   2.246   6.913   2.250
98389W        W70737  41.986  17.776   0.889
98390W        W70738  28.578  31.029  12.048
98391W        W70739  19.674  22.217   0.424
98392W        W70740  30.528   2.792  12.415
98393W        W70741  25.056  14.094   2.391
98394W        W70742   7.910   6.853   3.685
98395W        W70743  25.179  35.398  12.841
98396W        W70744  17.556  12.823  13.467
98397W        W70745  14.248  43.307   3.812
98398W        W70746  12.361  35.977   4.695
98399W        W70747  44.931  33.013  14.296
98400W        W70748  26.564  12.668  14.799
98401W        W70749  26.593   4.882   2.673
98402W        W70750  13.637  44.862   2.757
98403W        W70751  27.476  40.329   4.185
98404W        W70752  34.018  36.095  13.994
98405W        W70753   2.962  43.381  13.062
98406W        W70754  42.403  17.115  12.451
98407W        W70755  24.481  22.503   4.267
98408W        W70756   6.382  28.626   3.825
98409W        W70757  35.469  21.252   0.318
98410W        W70758  34.496  15.103  13.338
98411W        W70759  30.622  40.971   0.823
98412W        W70760  32.893  44.982  12.079
98413W        W70761  34.061  20.274   1.409
98414W        W70762  33.449   1.884   3.187
98415W        W70763  12.253  20.162  12.553
98416W        W70764  30.026  20.116  14.770
98417W        W70765  18.090  24.546   2.868
98418W        W70766  27.081  21.096  10.092
98419W        W70767  20.583  27.557   1.770
98420W        W70768   7.191   5.358   0.902
98421W        W70769  12.783   8.721  10.463
98422W        W70770  35.874   4.403  10.586
98423W        W70771  36.932  30.042   1.396
98424W        W70772   6.821  39.882  12.889
98425W        W70773  11.358   2.909   1.322
98426W        W70774  20.035  35.915  11.104
98427W        W70775  10.754  41.355  14.837
98428W        W70776  44.262  37.510   2.264
98429W        W70777  40.501  36.002   1.815
98430W        W70778  34.032   9.812  12.546
98431W        W70779  41.894  13.747   0.468
98432W        W70780   4.711   5.299  14.994
98433W        W70781  10.731  44.902  10.937
98434W        W70782  16.771  13.670  10.412
98435W        W70783   4.277   1.321  14.004
98436W        W70784  28.448   4.425   4.273
98437W        W70785  41.317  19.720  14.351
98438W        W70786  26.466   5.916   3.820
98439W        W70787  36.841   7.720   2.741
98440W        W70788  29.997  13.195  11.109
98441W        W70789  11.762   2.421   2.690
98442W        W70790  40.861  21.222   2.830
98443W        W70791  10.648  21.050   3.724
98444W        W70792   0.269  36.931  14.843
98445W        W70793  24.003  25.669  10.968
98446W        W70794  25.110  23.157  11.485
98447W        W70795   7.406   8.670   4.272
98448W        W70796  37.454  39.407  14.386
98449W        W70797  28.601  35.882   1.893
98450W        W70798  13.623  35.962   1.827
98451W        W70799  32.062  41.471   1.803
98452W        W70800  18.178   3.346   0.940
98453W        W70801  11.353  23.239   0.289
98454W        W70802  26.088   8.712  10.637
98455W        W70803  43.349  40.943   2.876
98456W        W70804  19.579  30.489   1.296
98457W        W70805  41.522  11.688  10.497
98458W        W70806  40.046  26.139  12.436
98459W        W70807  12.281  14.194  14.294
98460W        W70808   8.692  39.406  10.898
98461W        W70809   8.830  42.287  13.512
98462W        W70810   6.389  40.841   1.721
98463W        W70811   6.707   6.896  13.439
98464W        W70812  14.645  21.592  12.041
98465W        W70813   3.240   5.358  12.972
98466W        W70814  33.127  29.952   1.228
98467W        W70815  17.249   8.302   4.124
98468W        W70816  15.671  34.120   2.299
98469W        W70817  27.078  10.788  11.400
98470W        W70818  24.009  26.459   2.707
98471W        W70819  20.675  18.228   4.176
98472W        W70820  34.397  25.135  11.607
98473W        W70821   1.432  22.599  14.480
98474W        W70822  28.994  43.491  12.516
98475W        W70823  13.315   7.799   0.827
98476W        W70824   4.899  15.683  10.971
98477W        W70825   1.874   2.916   4.705
98478W        W70826  19.681   3.257  14.984
98479W        W70827  16.764   5.440   3.686
98480W        W70828  43.004   8.884  10.970
98481W        W70829  15.098  14.598   4.289
98482W        W70830  32.117  29.600   0.872
98483W        W70831  13.676  34.448  10.973
98484W        W70832  37.985  32.597  14.902
98485W        W70833  30.023   7.821  12.524
98486W        W70834  21.666  37.083  12.461
98487W        W70835  10.847  40.864  12.993
98488W        W70836  11.746  40.955  10.539
98489W        W70837  14.598  14.634   0.928
98490W        W70838  29.978  34.372  12.041
98491W        W70839  30.577  12.182   4.323
98492W        W70840  23.550  34.584   3.302
98493W        W70841  38.035   5.808  13.020
98494W        W70842  24.064   9.674  11.125
98495W        W70843  22.675  42.026  14.011
98496W        W70844   9.269  23.014  10.492
98497W        W70845   3.367   8.382   4.132
98498W        W70846  20.545  30.642  13.483
98499W        W70847   6.213  35.032   4.772
98500W        W70848  19.262  17.736  12.996
98501W        W70849  27.549  24.700  13.315
98502W        W70850  40.851  31.980   4.838
98503W        W70851   2.461  10.299   2.806
98504W        W70852   4.877  43.972  11.922
98505W        W70853  11.331   1.814   0.278
98506W        W70854  28.935  43.282  10.483
98507W        W70855  40.015  18.259   1.410
98508W        W70856  13.199  30.007  14.420
98509W        W70857  26.518  25.500  13.015
98510W        W70858  41.303  28.032   2.791
98511W        W70859  32.391  43.016   4.247
98512W        W70860  42.474   6.427  14.845
98513W        W70861  28.172  44.416  10.431
98514W        W70862  10.282   1.426  14.785
98515W        W70863  33.958  17.610  12.560
98516W        W70864  11.841  14.255  14.809
98517W        W70865  21.728   7.413   2.283
98518W        W70866  25.537  22.105   4.750
98519W        W70867  29.436  29.176  10.614
98520W        W70868  28.171  44.296   1.408
98521W        W70869  37.532   7.314  11.961
98522W        W70870  40.428  29.423  13.048
98523W        W70871  12.342   2.936  12.886
98524W        W70872  24.604  21.224   4.807
98525W        W70873  35.380  44.939   3.844
98526W        W70874  38.946  38.003  13.027
98527W        W70875  15.688   5.284  13.979
98528W        W70876   9.260   1.252   4.179
98529W        W70877   0.270   6.898   3.201
98530W        W70878  42.901  24.158   1.400
98531W        W70879  43.840  15.153   2.416
98532W        W70880   3.922  41.395   4.252
98533W        W70881   9.151  11.652  12.546
98534W        W70882  43.313  38.488   3.759
98535W        W70883   4.282  27.139  14.472
98536W        W70884   4.919  17.150   2.200
98537W        W70885  38.990   2.436   4.226
98538W        W70886  18.689  15.790   4.245
98539W        W70887  37.864   6.406   4.679
98540W        W70888  26.077   1.297  13.910
98541W        W70889  21.031  37.944  12.487
98542W        W70890  27.135  29.026   3.663
98543W        W70891  14.728  40.872  14.024
98544W        W70892  42.340   4.777   4.290
98545W        W70893   4.820  31.085   0.278
98546W        W70894   1.917  33.098  10.635
98547W        W70895  43.437  42.515   0.883
98548W        W70896  44.404  30.528   4.760
98549W        W70897  38.480  19.651  11.425
98550W        W70898  16.700  21.597  10.978
98551W        W70899   9.851  44.292  13.027
98552W        W70900   2.289  25.178   0.367
98553W        W70901  25.121   0.493   4.232
98554W        W70902  43.831  11.292   4.781
98555W        W70903  29.634  35.101   2.253
98556W        W70904  10.160  39.814   1.767
98557W        W70905   1.340   4.357  14.391
98558W        W70906  26.632  11.315  12.370
98559W        W70907  24.608  18.544   0.312
98560W        W70908  29.499  18.699   1.798
98561W        W70909  39.464  41.335   1.718
98562W        W70910  33.449  10.726  11.064
98563W        W70911  25.078  35.041  11.611
98564W        W70912  42.828  13.341   0.747
98565W        W70913   2.809  24.699  10.526
98566W        W70914  31.572  43.803   3.854
98567W        W70915  25.170  15.692  11.953
98568W        W70916  40.843  21.749  11.038
98569W        W70917  23.732   8.307   4.629
98570W        W70918  11.182  33.907  11.549
98571W        W70919  36.422   7.320  10.555
98572W        W70920   3.938  30.056   0.888
98573W        W70921  28.444  27.194   3.656
98574W        W70922  44.495  17.657  13.449
98575W        W70923  38.449  24.588  13.491
98576W        W70924  27.681   5.310   4.803
98577W        W70925  13.652  19.593  12.858
98578W        W70926   9.670   8.396   4.180
98579W        W70927   8.783  20.145  12.427
98580W        W70928   0.309  36.585   1.436
98581W        W70929   1.914  31.409  12.911
98582W        W70930   9.802   3.731  13.539
98583W        W70931  28.603  11.158   1.781
98584W        W70932  34.512   2.445  10.472
98585W        W70933   6.395   7.280  11.535
98586W        W70934  30.495  28.452   4.626
98587W        W70935  38.978   5.888  10.110
98588W        W70936  14.109  13.185  12.450
98589W        W70937  43.279  10.750   3.290
98590W        W70938  39.950  19.661   3.266
98591W        W70939  13.731   8.769  13.032
98592W        W70940   9.357  12.269   3.706
98593W        W70941  25.080  27.192  13.981
98594W        W70942  33.490  15.640   3.320
98595W        W70943  30.047  16.647  10.572
98596W        W70944   0.761  44.858  10.438
98597W        W70945   8.222   7.884  13.443
98598W        W70946   3.456  35.567  13.516
98599W        W70947   9.666  17.097  11.545
98600W        W70948   5.802  41.416   2.902
98601W        W70949   3.787   4.224   4.635
98602W        W70950   7.314  39.410   2.271
98603W        W70951  44.935  27.451   4.623
98604W        W70952  41.453   8.329   2.870
98605W        W70953   5.695  10.317   2.319
98606W        W70954  21.046  28.486   0.763
98607W        W70955   7.242   7.899   5.119
98608W        W70956   9.760   4.330   0.422
98609W        W70957   2.859  27.110   2.726
98610W        W70958  38.360  30.133  10.483
98611W        W70959   7.814   7.678   2.189
98612W        W70960  24.226  41.351  12.442
98613W        W70961  44.445   0.482  12.385
98614W        W70962  39.547  12.831   4.343
98615W        W70963  11.183  12.235  14.312
98616W        W70964   9.667  35.543   3.332
98617W        W70965   8.337  24.006   1.909
98618W        W70966  22.713  23.530   0.375
98619W        W70967  32.516  38.989   0.348
98620W        W70968  43.466  13.244   2.867
98621W        W70969  14.666  41.348  14.477
98622W        W70970  20.251   2.310   2.687
98623W        W70971  40.451  26.548  13.911
98624W        W70972  43.309   4.425  12.552
98625W        W70973  27.514  26.076   4.775
98626W        W70974  30.540   6.391  14.911
98627W        W70975   8.874   1.743  10.140
98628W        W70976   9.301  41.890  10.610
98629W        W70977   5.322  23.079  13.361
98630W        W70978  27.486  33.017  14.304
98631W        W70979  29.918  31.531   4.744
98632W        W70980  10.332  12.635   2.819
98633W        W70981  43.451   8.667  11.464
98634W        W70982  10.637   9.212  14.968
98635W        W70983  27.675  22.615   4.146
98636W        W70984  41.418   8.713  12.081
98637W        W70985  38.905  37.454   4.647
98638W        W70986  16.240  11.714   0.918
98639W        W70987   9.151  41.455   2.364
98640W        W70988   8.398  25.156   1.783
98641W        W70989  20.222  27.084  12.864
98642W        W70990  12.300  41.295   3.772
98643W        W70991   7.345   9.797   2.296
98644W        W70992   0.766  18.214  14.312
98645W        W70993  28.592  17.661  10.584
98646W        W70994  21.099  26.667   4.231
98647W        W70995  12.748  42.294   3.189
98648W        W70996   0.978  23.675  13.474
98649W        W70997   4.764  29.088  13.791
98650W        W70998  43.952  24.487   3.752
98651W        W70999  28.660  25.585  14.765
98652W        W71000  10.157   8.210  10.936
98653W        W71001  40.017   6.217  13.827
98654W        W71002  16.269  14.707   3.206
98655W        W71003  34.491   8.838  10.543
98656W        W71004  12.163  15.696   5.131
98657W        W71005  19.074   5.825  12.509
98658W        W71006  39.035  29.487  12.832
98659W        W71007  36.069   8.783  11.102
98660W        W71008  31.550  37.991  10.995
98661W        W71009  39.931  34.087  11.573
98662W        W71010  14.302  30.484  10.934
98663W        W71011  14.794  20.186   2.297
98664W        W71012  33.556  30.133   1.886
98665W        W71013  24.479  34.566   2.191
98666W        W71014  19.119  32.621   1.349
98667W        W71015  25.667  32.016  10.046
98668W        W71016  42.467   0.745   4.315
98669W        W71017  15.812   5.922   0.816
98670W        W71018  29.502  29.544   3.345
98671W        W71019   5.277  44.479   4.660
98672W        W71020  35.101  44.948  12.943
98673W        W71021  16.599  40.406   2.275
98674W        W71022  26.104  13.710  14.322
98675W        W71023   7.772  10.867   4.328
98676W        W71024  39.461   4.852  12.341
98677W        W71025  18.762  35.527   3.365
98678W        W71026  19.584  17.114   4.782
98679W        W71027  21.620   0.357   2.376
98680W        W71028  36.962  15.249   3.220
98681W        W71029  14.820  23.084  12.973
98682W        W71030  10.802   4.430  12.410
98683W        W71031   0.761   5.758   2.294
98684W        W71032   9.293  39.940   1.841
98685W        W71033  41.920  12.830   2.667
98686W        W71034  15.267  24.093  13.838
98687W        W71035  21.736  42.396   1.848
98688W        W71036  17.641  37.418  11.526
98689W        W71037  29.461  17.761   4.764
98690W        W71038  33.115  37.564   3.360
98691W        W71039  31.467  15.611   4.658
98692W        W71040  41.412   3.225  12.932
98693W        W71041  42.307  22.608   1.807
98694W        W71042  43.482  25.063   2.380
98695W        W71043   9.843  11.684   4.599
98696W        W71044  18.295  15.780   2.206
98697W        W71045  12.153  35.078  11.399
98698W        W71046  14.768  44.951  11.945
98699W        W71047  20.153  35.379   3.338
98700W        W71048  25.493  29.602   3.269
98701W        W71049  24.703   1.243   3.818
98702W        W71050  37.578  21.569   1.437
98703W        W71051  18.188  15.782   9.936
98704W        W71052  25.693   9.300   3.261
98705W        W71053  38.858  33.594  13.990
98706W        W71054   2.283  17.660  10.913
98707W        W71055   2.930  34.050   3.281
98708W        W71056   8.260  23.642  12.868
98709W        W71057   1.968   6.706   2.894
98710W        W71058  26.528  23.152  10.556
98711W        W71059  20.035  31.574  14.383
98712W        W71060   6.239  39.927   0.739
98713W        W71061  16.241  13.816   1.293
98714W        W71062  18.632  32.140   5.235
98715W        W71063   7.289  10.263  14.309
98716W        W71064  19.714  29.992  11.579
98717W        W71065  18.291  40.885   0.456
98718W        W71066  37.399  22.691  13.913
98719W        W71067   9.688   9.343   1.448
98720W        W71068  18.767  35.964  10.560
98721W        W71069  41.960  38.486  12.520
98722W        W71070  44.489  30.546   9.989
98723W        W71071  11.635  13.298   4.597
98724W        W71072  31.561  18.200  14.420
98725W        W71073   6.826   6.402   2.686
98726W        W71074   4.715  40.303   2.857
98727W        W71075   6.852   9.185  10.888
98728W        W71076  12.355  35.075   1.433
98729W        W71077  14.276  16.591  11.471
98730W        W71078  13.197  19.569   0.930
98731W        W71079  17.229  12.210   9.946
98732W        W71080  14.159   1.810  14.329
98733W        W71081   3.417  23.016   4.614
98734W        W71082  37.831  17.704  13.498
98735W        W71083  13.698  35.088  14.764
98736W        W71084   4.377  19.087   1.838
98737W        W71085  22.702  41.416   1.291
98738W        W71086  25.097  29.959  10.995
98739W        W71087  36.552  29.542   2.273
98740W        W71088  14.107  27.034   0.953
98741W        W71089  12.706  43.991  13.374
98742W        W71090  37.519   4.418  13.798
98743W        W71091  11.183  27.037  12.452
98744W        W71092   4.909   5.196   0.471
98745W        W71093   2.389  15.714  13.988
98746W        W71094  21.241  21.560  13.847
98747W        W71095  34.413  13.331  14.009
98748W        W71096   0.305   9.211  14.351
98749W        W71097   4.708  34.053  10.889
98750W        W71098  16.790  37.532  11.945
98751W        W71099  14.642  43.351  14.873
98752W        W71100  24.491  17.796  13.907
98753W        W71101  40.398  26.608   9.969
98754W        W71102  38.973  42.309  13.034
98755W        W71103  23.549  29.634  11.608
98756W        W71104  34.487  39.441  11.960
98757W        W71105   9.696  29.057   2.250
98758W        W71106  18.668   0.392   9.973
98759W        W71107  22.598  41.501   2.289
98760W        W71108  40.962  24.523   2.224
98761W        W71109  28.965  35.061   1.749
98762W        W71110   6.349  37.496  10.989
98763W        W71111   7.839  15.809  12.466
98764W        W71112  19.565  13.608   2.895
98765W        W71113   3.780  38.567   3.679
98766W        W71114  41.505  41.445  11.401
98767W        W71115  43.806  10.375   2.823
98768W        W71116  21.729  31.638   3.361
98769W        W71117  16.106  27.968  12.986
98770W        W71118   5.925  24.663  11.486
98771W        W71119  11.796   9.728   4.820
98772W        W71120   1.463  16.314  13.371
98773W        W71121  44.475   5.716  13.360
98774W        W71122  40.914   4.367  13.478
98775W        W71123  39.970  28.565  13.993
98776W        W71124   7.692  27.658   1.334
98777W        W71125  38.020  30.490  12.955
98778W        W71126  17.148  21.043  12.522
98779W        W71127  30.473  27.487   1.726
98780W        W71128   2.432  23.666  14.968
98781W        W71129  43.902   4.702   0.409
98782W        W71130  14.809  18.251  10.623
98783W        W71131  40.527  20.254  11.414
98784W        W71132  12.805  22.202   3.265
98785W        W71133  12.230  38.526  14.389
98786W        W71134  19.679   0.368   4.310
98787W        W71135   8.756  17.142  12.413
98788W        W71136  27.585   2.729  11.859
98789W        W71137   2.404  26.490   2.292
98790W        W71138  28.468  24.177   3.327
98791W        W71139   2.738  25.536   2.862
98792W        W71140  44.395  42.374   3.201
98793W        W71141  18.716   4.870  12.439
98794W        W71142  10.385  35.980  12.547
98795W        W71143   9.316  44.950   0.884
98796W        W71144   6.346   3.414   1.344
98797W        W71145  23.706   8.316  12.561
98798W        W71146  34.881  16.313  11.015
98799W        W71147  15.682  38.900   3.832
98800W        W71148  39.875  27.479   2.410
98801W        W71149  17.193  44.982  14.507
98802W        W71150   6.344  15.655  11.953
98803W        W71151  20.035  27.462   3.226
98804W        W71152   1.776  13.310  11.899
98805W        W71153  34.600  26.063   1.302
98806W        W71154  10.332   4.375   1.770
98807W        W71155  37.538  30.122  13.984
98808W        W71156  33.034  32.084  13.820
98809W        W71157  20.091  42.335  11.991
98810W        W71158   8.370  41.895  12.380
98811W        W71159  21.221  10.229  10.950
98812W        W71160   9.382  18.143  11.006
98813W        W71161  18.740   5.907  13.997
98814W        W71162  34.429  44.263   2.297
98815W        W71163  35.904  34.414  14.896
98816W        W71164  19.754  15.217   2.883
98817W        W71165  15.806  11.277  14.875
98818W        W71166  36.352  19.267   4.805
98819W        W71167  25.657  32.624   0.733
98820W        W71168  15.083  20.542   2.705
98821W        W71169  30.441  23.157   2.258
98822W        W71170  23.531   1.766  12.904
98823W        W71171  30.621   1.375   1.290
98824W        W71172  41.423  44.485   2.262
98825W        W71173  12.242  26.640   1.935
98826W        W71174  41.532  36.471  11.856
98827W        W71175  36.555  17.220  11.862
98828W        W71176   0.810  18.143  12.979
98829W        W71177  41.477  38.442  14.475
98830W        W71178  15.131  32.591  12.833
98831W        W71179  10.369  24.081  11.400
98832W        W71180  43.769  43.835  14.425
98833W        W71181  25.579   9.853  14.881
98834W        W71182   1.953  29.093   1.432
98835W        W71183   1.410  22.684   1.847
98836W        W71184  10.237   0.382   0.290
98837W        W71185  42.450   3.449  11.967
98838W        W71186  30.087  37.921   0.931
98839W        W71187  26.114  32.448   2.384
98840W        W71188  25.965  12.837   0.473
98841W        W71189  39.369   8.849   0.774
98842W        W71190  16.586  44.376   1.828
98843W        W71191  12.356   2.824  12.069
98844W        W71192  29.080  32.021   3.643
98845W        W71193  15.771   8.671   1.747
98846W        W71194  35.437  37.338   5.254
98847W        W71195  30.521  33.875  10.529
98848W        W71196  16.269   9.155   0.877
98849W        W71197   6.917  18.604  13.512
98850W        W71198   9.678   1.821  10.578
98851W        W71199   1.345  43.384  11.503
98852W        W71200   2.240  18.633  12.470
98853W        W71201   9.259  37.962   2.196
98854W        W71202   9.208  43.289   1.879
98855W        W71203  26.134  40.984   3.725
98856W        W71204  24.980   7.714   2.344
98857W        W71205  14.594  23.109  11.029
98858W        W71206  12.285  40.045  12.907
98859W        W71207  36.922  14.715   0.346
98860W        W71208  34.088  15.288   0.806
98861W        W71209  16.285  41.381  14.020
98862W        W71210  12.166  16.603   2.830
98863W        W71211  17.739   0.429   0.264
98864W        W71212  15.672  35.996  11.128
98865W        W71213  29.138   9.385   2.394
98866W        W71214  36.890  13.661   0.336
98867W        W71215  18.132   9.276  12.494
98868W        W71216  20.164  30.494  11.960
98869W        W71217  11.277  43.019   4.605
98870W        W71218  20.089  41.459  11.901
98871W        W71219  43.422   5.733  13.916
98872W        W71220   0.895  14.311  11.587
98873W        W71221  30.036  41.867   2.787
98874W        W71222  24.550   1.473   4.785
98875W        W71223  32.006  43.858  13.428
98876W        W71224  11.136  28.176   3.232
98877W        W71225   5.919  10.656   4.806
98878W        W71226  26.540   6.886  14.348
98879W        W71227  33.983  27.991  12.870
98880W        W71228  18.245  31.464  11.993
98881W        W71229  15.185  19.185   1.284
98882W        W71230  31.424  14.673  14.030
98883W        W71231   6.783   1.408   3.247
98884W        W71232  35.917   4.411   1.296
98885W        W71233  15.708  23.231  10.590
98886W        W71234   2.416  21.060  14.879
98887W        W71235  38.452   4.727  10.623
98888W        W71236  43.334  24.982   3.753
98889W        W71237  38.366  25.554  14.294
98890W        W71238  20.171  25.028  11.031
98891W        W71239  10.261  28.633   2.859
98892W        W71240  33.939  10.691  10.442
98893W        W71241   3.219  29.040   0.883
98894W        W71242  39.838  21.519   3.651
98895W        W71243  33.497  19.702  10.426
98896W        W71244  28.528  37.843  11.495
98897W        W71245  11.750  42.346  11.998
98898W        W71246  43.839  36.859   2.217
98899W        W71247  19.220   1.957   0.293
98900W        W71248  19.572  44.447   3.373
98901W        W71249   9.198   8.760  11.932
98902W        W71250   2.388  15.190  12.464
98903W        W71251  18.281  31.085   3.276
98904W        W71252  24.168  19.110  11.412
98905W        W71253  32.542  44.768  13.037
98906W        W71254   3.761  14.140  11.467
98907W        W71255   8.323  12.205  12.580
98908W        W71256   9.347  12.616  14.429
98909W        W71257  14.631  34.021   0.449
98910W        W71258  24.614  35.098   0.482
98911W        W71259  43.309   1.932   3.149
98912W        W71260  11.725   5.235   2.720
98913W        W71261  31.935   8.891   2.240
98914W        W71262  32.552  30.427   3.217
98915W        W71263  41.831  25.091   2.196
98916W        W71264  15.627  26.541   2.880
98917W        W71265  30.994  14.820  13.523
98918W        W71266  11.812   2.331  13.917
98919W        W71267   9.739   1.834   2.812
98920W        W71268   2.753  40.334   2.823
98921W        W71269   8.834   6.195   0.293
98922W        W71270  34.925  22.047  13.963
98923W        W71271  17.063  43.797  13.040
98924W        W71272  39.835  37.997  11.909
98925W        W71273  33.456  12.295  13.338
98926W        W71274  41.032  36.052   3.309
98927W        W71275  25.486  29.087   3.825
98928W        W71276  14.816  14.687  11.013
98929W        W71277  18.682   9.164   4.632
98930W        W71278  23.043  33.406  12.084
98931W        W71279   0.272  12.706   0.766
98932W        W71280  32.526  34.501   4.326
98933W        W71281  33.417  29.541  13.809
98934W        W71282  11.129   8.719   4.283
98935W        W71283  24.682   8.771   1.695
98936W        W71284  23.059  22.054   4.113
98937W        W71285  12.273  43.300   0.480
98938W        W71286   6.411   6.217   3.265
98939W        W71287  33.011  20.629   3.813
98940W        W71288  21.164  38.355   2.741
98941W        W71289   7.294  26.967   2.206
98942W        W71290  23.233  44.781  10.427
98943W        W71291   7.332   4.269   0.259
98944W        W71292  12.747  16.696  13.904
98945W        W71293  43.767  44.386  11.887
98946W        W71294  12.677  25.975  13.851
98947W        W71295  43.880  11.674  12.348
98948W        W71296  23.602   4.409   2.388
98949W        W71297   4.401  26.145  14.427
98950W        W71298  14.139  31.408  13.923
98951W        W71299   0.822  13.341  11.569
98952W        W71300  28.026  40.037   0.312
98953W        W71301  30.974  20.076   4.178
98954W        W71302  13.244   4.305   9.921
98955W        W71303   9.761   2.915   3.308
98956W        W71304  21.123   7.308   2.348
98957W        W71305   1.378  41.872   1.306
98958W        W71306  31.443   6.329  14.276
98959W        W71307  34.398  24.648   1.735
98960W        W71308  40.817  42.381   0.929
98961W        W71309   0.809  29.576   3.644
98962W        W71310  32.479  19.712  10.008
98963W        W71311   0.396  17.655  12.072
98964W        W71312  12.703   3.843   2.762
98965W        W71313   5.344   2.867   4.719
98966W        W71314  22.657  29.632  14.786
98967W        W71315  36.098  41.384  13.031
98968W        W71316  18.228  19.096  13.792
98969W        W71317  35.852  42.812   3.285
98970W        W71318  29.661  39.378   1.737
98971W        W71319  31.974  20.638   2.895
98972W        W71320   9.860   7.903  13.362
98973W        W71321   8.831  35.024  14.283
98974W        W71322  38.339  30.450  12.357
98975W        W71323  16.753  37.443   3.189
98976W        W71324  27.549  24.154   2.841
98977W        W71325   4.779   4.852  12.388
98978W        W71326   4.912  35.027   2.359
98979W        W71327  30.432  28.089  14.902
98980W        W71328  42.921  28.100   2.365
98981W        W71329   9.679  44.390  12.462
98982W        W71330   6.871  17.795   0.875
98983W        W71331   7.686  24.981  14.887
98984W        W71332  31.093  18.717  10.616
98985W        W71333  19.120   8.184   3.352
98986W        W71334  20.251   3.344   2.262
98987W        W71335  41.981  41.399  11.985
98988W        W71336  14.800   9.839   4.737
98989W        W71337  23.617  13.693  12.979
98990W        W71338   3.276  13.176  10.580
98991W        W71339   5.285   9.727  14.793
98992W        W71340  32.041  40.986  13.804
98993W        W71341   0.350  11.695   3.171
98994W        W71342  14.330  26.986   3.701
98995W        W71343   5.761   8.296  12.909
98996W        W71344  44.270   0.421  11.014
98997W        W71345  15.146  15.317   1.859
98998W        W71346  15.702  11.659  12.963
98999W        W71347  30.956   8.715   1.807
99000W        W71348   3.371  22.703  12.530
99001W        W71349  28.586  26.068  12.903
99002W        W71350  26.632  40.387   4.632
99003W        W71351  35.927   5.856   0.754
99004W        W71352  30.014  33.092  11.572
99005W        W71353  28.665  24.584  10.501
99006W        W71354   9.225  36.929  14.459
99007W        W71355   0.849  35.878   3.867
99008W        W71356  19.185  36.964  11.897
99009W        W71357  26.506  37.055  13.335
99010W        W71358  34.582  25.216   0.957
99011W        W71359   4.902   1.300   4.219
99012W        W71360  37.530  12.219  11.021
99013W        W71361   9.312  32.400  12.378
99014W        W71362  12.812  26.993  11.424
99015W        W71363  39.056   8.697  13.051
99016W        W71364  11.829  41.311   4.273
99017W        W71365  24.626   0.289   3.349
99018W        W71366  21.207  42.320  13.411
99019W        W71367  25.569  44.978   1.226
99020W        W71368   8.790  34.446  11.012
99021W        W71369  14.733   4.233  10.611
99022W        W71370  17.109   3.745  13.479
99023W        W71371  19.713  26.482   0.411
99024W        W71372  28.626  17.565   0.380
99025W        W71373   6.703  38.476   2.295
99026W        W71374   5.787   0.964  14.356
99027W        W71375  13.763  38.857  10.551
99028W        W71376  23.574  26.114  11.428
99029W        W71377  38.825   6.862  11.575
99030W        W71378  18.652  23.050  11.511
99031W        W71379  17.113   2.881  14.353
99032W        W71380  36.854   3.308  12.470
99033W        W71381   0.767   0.986   3.231
99034W        W71382  29.530  12.700  12.876
99035W        W71383  38.520   1.927  10.548
99036W        W71384  12.257  38.889   0.904
99037W        W71385  40.910  33.097  14.893
99038W        W71386  25.530  38.480  14.958
99039W        W71387   8.303   2.457   3.855
99040W        W71388  29.619  23.181   0.957
99041W        W71389  28.130  30.593  11.938
99042W        W71390   8.801   5.831  13.895
99043W        W71391  38.551  26.200  12.467
99044W        W71392  22.026  26.115  12.346
99045W        W71393  13.327  30.024  11.983
99046W        W71394  37.563  42.438  12.561
99047W        W71395  26.593  26.131  14.821
99048W        W71396  19.582  10.659   1.259
99049W        W71397   9.274  20.538   2.265
99050W        W71398   6.206   2.860   1.312
99051W        W71399  23.183  43.365   4.713
99052W        W71400   8.247   5.354  13.351
99053W        W71401   9.359   4.415   2.701
99054W        W71402  21.020  26.153   0.786
99055W        W71403  39.948  42.501   0.330
99056W        W71404  28.578  32.948   0.287
99057W        W71405   3.927  18.288  13.530
99058W        W71406  18.101  32.115   3.342
99059W        W71407  40.429  41.936   4.634
99060W        W71408   0.757  10.157   0.363
99061W        W71409  24.124  19.651   1.422
99062W        W71410  40.423  30.509   0.472
99063W        W71411   2.462  38.477   3.323
99064W        W71412   9.191  35.366  14.308
99065W        W71413  25.688   0.401   0.457
99066W        W71414  20.214   1.790  14.444
99067W        W71415  27.527   5.288   2.223
99068W        W71416  31.020  35.470   5.102
99069W        W71417  11.643  36.475  10.637
99070W        W71418  37.896  22.146  14.400
99071W        W71419  39.996   9.872   3.265
99072W        W71420  30.073   9.377  13.433
99073W        W71421  42.384  19.196  10.578
99074W        W71422  40.894  11.243  12.544
99075W        W71423  43.273  22.042   1.786
99076W        W71424  24.570   5.794  12.935
99077W        W71425   8.764  40.006   0.814
99078W        W71426  26.648  19.196   4.249
99079W        W71427  32.895  12.667  14.286
99080W        W71428  32.506  31.600  11.422
99081W        W71429   9.156  24.717  11.038
99082W        W71430  37.470  43.315   4.350
99083W        W71431  24.106  31.413  14.952
99084W        W71432  34.963  41.326   0.837
99085W        W71433  34.446  36.072  10.973
99086W        W71434  12.742  15.763  14.913
99087W        W71435  15.766  11.868   2.820
99088W        W71436  33.966  34.983   5.674
99089W        W71437  15.128  11.250  12.088
99090W        W71438  31.639   1.458   0.732
99091W        W71439  34.550  43.320   3.381
99092W        W71440  35.912  20.764   1.823
99093W        W71441  36.591  33.460   0.792
99094W        W71442  29.660   3.414  10.017
99095W        W71443  19.673  28.021   3.276
99096W        W71444  17.202  34.084   0.407
99097W        W71445  18.622   7.789   1.367
99098W        W71446   6.210  24.682   4.134
99099W        W71447   2.412  29.919   3.364
99100W        W71448   5.237   1.309  10.506
99101W        W71449  14.281   7.829   2.261
99102W        W71450  26.656  13.681  13.050
99103W        W71451  36.961   4.305   9.550
99104W        W71452  41.974  30.114  14.474
99105W        W71453  31.504   4.698   3.739
99106W        W71454  14.593  37.545  10.920
99107W        W71455  30.983  37.458   1.700
99108W        W71456  31.981  13.250  13.886
99109W        W71457  21.726  28.547  14.001
99110W        W71458  13.728  37.335  11.887
99111W        W71459   7.836  21.245   0.363
99112W        W71460  21.107  44.888  14.904
99113W        W71461  41.041  22.666   0.252
99114W        W71462  34.874  23.053  13.806
99115W        W71463   3.923   6.693   3.704
99116W        W71464  42.927  31.530  10.439
99117W        W71465   8.662  25.644   0.326
99118W        W71466  24.613  37.431   2.778
99119W        W71467   8.792  32.097   2.399
99120W        W71468  44.893  39.947  13.816
99121W        W71469   9.704  12.193   4.117
99122W        W71470  22.055  39.858   3.238
99123W        W71471  13.262  28.450  11.915
99124W        W71472  34.401   8.389  12.002
99125W        W71473  14.129   5.882   0.251
99126W        W71474  35.546   6.326   3.741
99127W        W71475  21.518  33.023   1.309
99128W        W71476  18.232  31.097   5.186
99129W        W71477  19.638  34.114  11.042
99130W        W71478   4.842   8.879  12.901
99131W        W71479  39.828  29.623  11.469
99132W        W71480  42.520  11.669   0.923
99133W        W71481  26.606  24.208   2.201
99134W        W71482  26.486   9.183  14.771
99135W        W71483  30.630  10.752   0.347
99136W        W71484   8.403   9.254   1.434
99137W        W71485  38.399  35.408  13.548
99138W        W71486  26.626  29.596  12.531
99139W        W71487   5.347  25.073  13.487
99140W        W71488  38.466  10.223   2.236
99141W        W71489  38.848   1.854  11.860
99142W        W71490  41.850  41.399   0.471
99143W        W71491  20.200  17.261  13.344
99144W        W71492  18.662  39.387  14.783
99145W        W71493  42.941  28.007   2.673
99146W        W71494   1.417  44.849   2.668
99147W        W71495  43.410  16.574  11.397
99148W        W71496  39.363   6.198  10.027
99149W        W71497  17.093  13.835   1.279
99150W        W71498   1.363  10.730  13.872
99151W        W71499  14.693  15.235   2.250
99152W        W71500   0.298   7.800  10.577
99153W        W71501  11.180   6.814   2.393
99154W        W71502  30.061  28.678  14.008
99155W        W71503  21.521  29.136   4.688
99156W        W71504  21.549  14.828   1.403
99157W        W71505  36.970   4.857  14.502
99158W        W71506   5.880  36.965  11.931
99159W        W71507  21.232  39.049   3.376
99160W        W71508  32.567  18.568   4.291
99161W        W71509  18.121  36.382  12.453
99162W        W71510   2.940  22.681  13.361
99163W        W71511  32.067  37.849  14.347
99164W        W71512  27.138  38.379   0.296
99165W        W71513  20.215   4.313  13.907
99166W        W71514  23.673  30.079  12.038
99167W        W71515  32.890   7.288   2.355
99168W        W71516  44.876  31.479   0.733
99169W        W71517  41.804  35.362  12.017
99170W        W71518  29.466  41.482   0.390
99171W        W71519  21.548  41.916  13.920
99172W        W71520  14.834   8.740   4.246
99173W        W71521  34.603   2.272   4.630
99174W        W71522  33.496   8.261  11.924
99175W        W71523   0.403  10.259   3.724
99176W        W71524   6.231  22.185  12.362
99177W        W71525  25.676  10.733   1.217
99178W        W71526  19.266  10.756  11.095
99179W        W71527  21.067   2.402   0.467
99180W        W71528  13.714  20.095   0.345
99181W        W71529  44.445   1.772  12.472
99182W        W71530  41.440  33.948  11.458
99183W        W71531   8.323  32.937   4.702
99184W        W71532   1.867  24.190  11.459
99185W        W71533  10.852   7.296   4.260
99186W        W71534   5.419  11.657  13.451
99187W        W71535  26.479  28.159  13.523
99188W        W71536  24.998   8.765  12.020
99189W        W71537  44.439  27.083   3.291
99190W        W71538  10.144  29.492  14.957
99191W        W71539  35.392  30.986   2.222
99192W        W71540  20.584  40.011  13.859
99193W        W71541  36.879  32.605   0.783
99194W        W71542   4.827  28.661  11.920
99195W        W71543  14.184  23.635   0.477
99196W        W71544  14.159   9.773   3.302
99197W        W71545  34.914  22.070  14.432
99198W        W71546  39.430  12.232  13.493
99199W        W71547  34.888  31.951  12.070
99200W        W71548  27.120   5.377  12.836
99201W        W71549  31.948   1.288   0.309
99202W        W71550  38.937  21.046  12.895
99203W        W71551  30.126  30.460   3.250
99204W        W71552  14.628  19.225  13.028
99205W        W71553  31.420   0.249  12.417
99206W        W71554  35.875  42.786  13.015
99207W        W71555  36.529  37.406   2.250
99208W        W71556  39.507  23.145   2.837
99209W        W71557  26.151  37.056  13.887
99210W        W71558  44.277   5.317  13.465
99211W        W71559  44.842  28.141   0.790
99212W        W71560  32.592  36.966   1.213
99213W        W71561  16.296  32.916   0.299
99214W        W71562   9.327   3.313  13.861
99215W        W71563  35.873  44.837   0.796
99216W        W71564  43.933  19.266   2.298
99217W        W71565  34.972  22.518  10.942
99218W        W71566   6.771  32.909   4.178
99219W        W71567  41.391  10.818   1.325
99220W        W71568   3.870   6.708  11.915
99221W        W71569  27.067  13.737  12.041
99222W        W71570   1.819   1.242  13.307
99223W        W71571  24.696  29.108  14.500
99224W        W71572  24.204   4.232  14.439
99225W        W71573  17.089   4.341  12.478
99226W        W71574   3.262  21.208  14.308
99227W        W71575  23.009   8.730   0.454
99228W        W71576  10.749  32.045   4.837
99229W        W71577   3.752  14.317   4.762
99230W        W71578  31.927   9.290  13.922
99231W        W71579  29.428  16.270   3.803
99232W        W71580   0.420  31.952   4.141
99233W        W71581  34.112  29.113  13.986
99234W        W71582  12.133   5.783  14.973
99235W        W71583  41.807  35.402   0.739
99236W        W71584   7.362  33.975  12.441
99237W        W71585  33.496  34.099   3.176
99238W        W71586   6.283  29.451  11.384
99239W        W71587  30.429  17.735  12.394
99240W        W71588   3.448   3.905   1.930
99241W        W71589  33.908  38.444  12.868
99242W        W71590   4.718  40.348  13.374
99243W        W71591  32.014  13.183  12.903
99244W        W71592   4.220  38.014   0.910
99245W        W71593  39.016  31.424   4.788
99246W        W71594   3.767  32.926  11.471
99247W        W71595   5.831  24.166  14.404
99248W        W71596  18.710  13.199   4.324
99249W        W71597  24.035   2.313   0.367
99250W        W71598  24.137  22.584  12.920
99251W        W71599   2.445  10.842   3.341
99252W        W71600   3.416  43.507  14.767
99253W        W71601  11.861  43.877  13.933
99254W        W71602  17.653  10.677  12.018
99255W        W71603   4.890  43.289   3.815
99256W        W71604  25.544  44.815   0.808
99257W        W71605  14.646  32.517   0.951
99258W        W71606   9.714   5.876   0.253
99259W        W71607   9.868   9.787   0.476
99260W        W71608  35.518   9.244   3.757
99261W        W71609  33.890  30.497   0.942
99262W        W71610  39.905  41.042  12.978
99263W        W71611  39.864   4.829   2.692
99264W        W71612  10.150  42.420   0.808
99265W        W71613  43.374  33.518   0.301
99266W        W71614  15.276  41.455   2.220
99267W        W71615  14.252  13.322  14.012
99268W        W71616  18.747  17.225   2.724
99269W        W71617  23.055  39.544   4.154
99270W        W71618  33.972   8.839   2.717
99271W        W71619   5.337  14.637   3.706
99272W        W71620  38.326  29.467   2.349
99273W        W71621  40.939  32.516   2.198
99274W        W71622  16.705  23.122   0.758
99275W        W71623  26.471   1.952  12.524
99276W        W71624  38.340   6.207   2.769
99277W        W71625  39.888  44.857  11.960
99278W        W71626  22.215   1.441   2.813
99279W        W71627  32.597  37.444   9.943
99280W        W71628  31.453  12.215  12.482
99281W        W71629  12.798  13.664  11.492
99282W        W71630  37.529  26.984   4.611
99283W        W71631   5.704   9.744   0.246
99284W        W71632  43.368  26.188   3.866
99285W        W71633  24.088   5.293  13.312
99286W        W71634  32.472   1.750   0.798
99287W        W71635   3.928  39.553  10.496
99288W        W71636  28.537  17.684  11.391
99289W        W71637   8.756  33.054   3.188
99290W        W71638  36.846  15.749  12.828
99291W        W71639  17.576  31.136   2.804
99292W        W71640  27.969  43.936  14.898
99293W        W71641  30.147  23.036  14.456
99294W        W71642  40.315  21.558  10.902
99295W        W71643  40.041  39.971   4.818
99296W        W71644  20.741  40.530   2.731
99297W        W71645  21.074  29.575   4.619
99298W        W71646  28.670  11.741  14.399
99299W        W71647  12.685  17.155   2.815
99300W        W71648  24.641  19.267  13.481
99301W        W71649   5.928  32.966   3.251
99302W        W71650  43.000  14.192  14.805
99303W        W71651   4.809  19.618  11.406
99304W        W71652  11.722   9.198  10.564
99305W        W71653  31.496  41.498   3.647
99306W        W71654   5.866  40.011   4.807
99307W        W71655  34.870  28.529  12.572
99308W        W71656   0.901  34.554  14.380
99309W        W71657  18.256  36.019  11.489
99310W        W71658  11.339  22.686  13.918
99311W        W71659  28.996  30.963   2.708
99312W        W71660  29.972   7.900   5.322
99313W        W71661  39.320  35.403   3.164
99314W        W71662  41.482  10.647   3.793
99315W        W71663  37.979  22.141   4.709
99316W        W71664  40.859  21.186   3.793
99317W        W71665  30.565  31.069  11.379
99318W        W71666  23.519  16.237  13.413
99319W        W71667  20.180  24.580   3.855
99320W        W71668   1.292  40.995   4.299
99321W        W71669  20.677  32.489   3.653
99322W        W71670   1.287  41.978  13.993
99323W        W71671  29.633   1.764   2.795
99324W        W71672  43.275  30.072  14.404
99325W        W71673  37.836   3.943   0.793
99326W        W71674   1.859  10.672  10.636
99327W        W71675  39.389   6.322  12.452
99328W        W71676  23.076   1.371  13.836
99329W        W71677   4.888   3.280  14.909
99330W        W71678  42.335   1.349   0.423
99331W        W71679  42.016  38.937   4.257
99332W        W71680  33.117  30.497   2.847
99333W        W71681  37.023  12.214  14.954
99334W        W71682   5.822  22.056  11.439
99335W        W71683  44.800  33.077  13.481
99336W        W71684  18.568  30.487   1.852
99337W        W71685  44.375  14.670  13.863
99338W        W71686  12.652  19.553  10.987
99339W        W71687  21.655  38.962  13.846
99340W        W71688   7.261   6.342  13.488
99341W        W71689   9.726  44.366   0.897
99342W        W71690  32.897   9.375  13.028
99343W        W71691  36.020  40.546   3.754
99344W        W71692  25.708  28.184  12.521
99345W        W71693  23.122  44.988   4.336
99346W        W71694   1.332  38.820  11.493
99347W        W71695  40.495  32.465   1.935
99348W        W71696   7.887  33.581   4.812
99349W        W71697   1.439   0.966  13.048
99350W        W71698   3.914   3.905   3.780
99351W        W71699  27.078  33.105   2.869
99352W        W71700  40.471  40.424  13.350
99353W        W71701  29.133  18.274   2.901
99354W        W71702  19.579  43.803  11.462
99355W        W71703  30.115   2.838  13.527
99356W        W71704  15.776  37.923  10.957
99357W        W71705   3.899  13.159   2.827
99358W        W71706  18.778   4.837   4.625
99359W        W71707  32.488  44.949  11.584
99360W        W71708  33.007  26.074  14.807
99361W        W71709   4.764   8.812   1.244
99362W        W71710  24.224  39.505  13.501
99363W        W71711  26.996   9.250  12.555
99364W        W71712  32.577  11.270  11.512
99365W        W71713  43.978   7.768   1.378
99366W        W71714   4.747   1.920   9.993
99367W        W71715   3.397  37.434  13.482
99368W        W71716   3.295   0.265  14.965
99369W        W71717   1.947   3.947  11.407
99370W        W71718  19.125  22.142  10.508
99371W        W71719  38.849  42.321   4.217
99372W        W71720  32.119  33.092  11.415
99373W        W71721  39.822  13.788   3.263
99374W        W71722  19.713  41.979   2.300
99375W        W71723  13.292  42.927   4.794
99376W        W71724  30.646  24.980  12.036
99377W        W71725   9.860  24.709   2.739
99378W        W71726  28.680  17.253  12.833
99379W        W71727  34.510   9.729  10.583
99380W        W71728  30.000  35.500   2.255
99381W        W71729  14.128  18.113  13.332
99382W        W71730  25.014  15.285  13.474
99383W        W71731  17.184  14.610   3.254
99384W        W71732  31.573  42.490   4.612
99385W        W71733   6.356   4.217   2.792
99386W        W71734   1.379  35.408   3.157
99387W        W71735  28.048   8.387  10.520
99388W        W71736  44.308   4.293  14.023
99389W        W71737  15.146  28.676  12.372
99390W        W71738  34.376  17.616   4.826
99391W        W71739  14.280  10.810  10.931
99392W        W71740  44.451  41.321  13.880
99393W        W71741  25.615  25.148   2.854
99394W        W71742   3.379  23.179  11.055
99395W        W71743  19.108  15.761  11.987
99396W        W71744  20.584  12.330  10.562
99397W        W71745  20.257  23.061   0.893
99398W        W71746   6.841  17.742   2.777
99399W        W71747  11.862  41.432  12.882
99400W        W71748  44.416  38.995  11.045
99401W        W71749  10.275   1.909  13.399
99402W        W71750  32.937  39.475   3.263
99403W        W71751  17.246  21.240   3.259
99404W        W71752  22.037  10.718   3.338
99405W        W71753   8.311  25.671  11.975
99406W        W71754  28.988  16.242  12.501
99407W        W71755   3.949   1.801  11.900
99408W        W71756  32.469  16.646   2.678
99409W        W71757   7.225  27.677  10.943
99410W        W71758  34.091  27.110   0.794
99411W        W71759  29.608  34.505  14.771
99412W        W71760  31.070  34.906  10.609
99413W        W71761   8.857   4.215  13.907
99414W        W71762  15.687  13.700  14.303
99415W        W71763  26.604  12.831   0.355
99416W        W71764  30.544   8.286  14.773
99417W        W71765  24.082  22.057  10.942
99418W        W71766  36.361   8.338  12.889
99419W        W71767  39.030  34.377   1.224
99420W        W71768  10.345  20.158  12.392
99421W        W71769  35.387   6.766  13.031
99422W        W71770  19.766  12.807  13.534
99423W        W71771  27.531  14.654  12.350
99424W        W71772  15.779  43.813   4.745
99425W        W71773   3.738  11.161   2.197
99426W        W71774  30.639  17.707  11.929
99427W        W71775  38.433   8.889  11.057
99428W        W71776  13.337  37.048   2.844
99429W        W71777  42.466  31.906   1.786
99430W        W71778  12.654  41.861  13.377
99431W        W71779  43.996  18.263   4.717
99432W        W71780   3.831  33.915   4.640
99433W        W71781   6.320   4.936   1.391
99434W        W71782  28.551  34.401  13.983
99435W        W71783  35.430  29.082   0.339
99436W        W71784  32.619  26.964   2.763
99437W        W71785  19.554  31.002   3.149
99438W        W71786  27.054  42.306  11.552
99439W        W71787  25.091  29.997   0.474
99440W        W71788  17.799  20.251   2.743
99441W        W71789  33.010   4.769   1.854
99442W        W71790   4.703   3.872  11.119
99443W        W71791  42.982  12.755   2.699
99444W        W71792   1.953  31.566   2.801
99445W        W71793   6.398   4.717   0.324
99446W        W71794  35.105  42.348   0.394
99447W        W71795  25.694  19.118   4.123
99448W        W71796  22.562  34.916  10.031
99449W        W71797   2.386  14.595  14.911
99450W        W71798  27.968  10.380   0.342
99451W        W71799  37.987  22.561   5.691
99452W        W71800   0.843   1.953   0.902
99453W        W71801   4.892  26.510  13.859
99454W        W71802  13.273  41.341  12.835
99455W        W71803  33.092  15.661  13.926
99456W        W71804   0.746  10.735   4.189
99457W        W71805   0.797  35.530   4.329
99458W        W71806  37.426  30.496  11.022
99459W        W71807  11.300   3.794   2.772
99460W        W71808   2.341  13.219  13.484
99461W        W71809  38.978   4.366   3.340
99462W        W71810  39.363  16.139  14.975
99463W        W71811   3.711  20.612   1.213
99464W        W71812   3.346  38.911  10.510
99465W        W71813  34.504   3.446  10.465
99466W        W71814  35.452  34.464   0.888
99467W        W71815  24.553  30.639  12.824
99468W        W71816   5.226   0.256   3.213
99469W        W71817  39.935  19.052  10.614
99470W        W71818   8.879  36.399   2.337
99471W        W71819  35.913  37.466   4.278
99472W        W71820  10.309   8.736   0.941
99473W        W71821  22.631   5.765  11.922
99474W        W71822  42.323  24.991   0.786
99475W        W71823  37.484  13.189  14.969
99476W        W71824  19.581  10.236  10.520
99477W        W71825  22.521   5.245   9.981
99478W        W71826  32.525   5.717   3.182
99479W        W71827  12.645  36.983   2.239
99480W        W71828  12.739  23.715  12.902
99481W        W71829  26.118  41.835  10.906
99482W        W71830  43.408  33.406  10.634
99483W        W71831  40.356  30.627  13.447
99484W        W71832  27.151  36.377   1.813
99485W        W71833  20.170  39.870  10.968
99486W        W71834  24.976  22.606  14.797
99487W        W71835  13.828  21.610   4.288
99488W        W71836  28.100  38.567  10.582
99489W        W71837  19.692  41.786   4.201
99490W        W71838  27.513  20.645  11.927
99491W        W71839  38.928  30.551  11.600
99492W        W71840   1.395  44.277  11.411
99493W        W71841  44.368  31.956   4.654
99494W        W71842   2.323  27.621   2.783
99495W        W71843  20.263  18.550  11.513
99496W        W71844  25.132  12.282   3.308
99497W        W71845   0.294  42.384  12.002
99498W        W71846   9.302  30.936   4.837
99499W        W71847  21.620  35.946   0.474
99500W        W71848   6.707  26.577   4.279
99501W        W71849  15.202  21.026   5.129
99502W        W71850  34.880  33.896   3.155
99503W        W71851  15.690   2.259   0.864
99504W        W71852  20.173  21.086   3.309
99505W        W71853  31.897   2.407   3.369
99506W        W71854  14.650  22.546  13.861
99507W        W71855  23.698   9.150   1.739
99508W        W71856  20.752  23.035   0.427
99509W        W71857  23.131  25.650   0.419
99510W        W71858   0.325  36.988   3.770
99511W        W71859  17.255   7.853   2.678
99512W        W71860  33.550  34.606   2.408
99513W        W71861  38.551  15.120  11.372
99514W        W71862  11.687  22.556   4.302
99515W        W71863  25.609   5.854   1.813
99516W        W71864  29.439  29.589   4.803
99517W        W71865  12.143  41.313   4.284
99518W        W71866  12.806  19.249   4.245
99519W        W71867  30.439  25.134  12.424
99520W        W71868   8.344  25.701   4.339
99521W        W71869  31.955  39.033   2.852
99522W        W71870  11.365  23.510  11.462
99523W        W71871  27.540  15.084  12.831
99524W        W71872   2.248  41.458   3.642
99525W        W71873  11.144  12.144  10.571
99526W        W71874  19.723  37.080   4.800
99527W        W71875  28.951  24.995  10.899
99528W        W71876  33.570  40.838   0.740
99529W        W71877  18.552  23.166  12.341
99530W        W71878   9.854  16.141   2.344
99531W        W71879  23.516  11.289  11.994
99532W        W71880  44.775  23.712   3.705
99533W        W71881  33.912   3.866   0.838
99534W        W71882  21.719  39.002   3.675
99535W        W71883  43.407  35.894   0.359
99536W        W71884  40.352  14.277  14.876
99537W        W71885  33.541  33.554  13.014
99538W        W71886  39.870  25.612  13.540
99539W        W71887  30.637  14.241  12.882
99540W        W71888  40.446  37.076   3.696
99541W        W71889  22.536   9.364  13.049
99542W        W71890   4.839   8.372   2.857
99543W        W71891  44.893  21.219  14.344
99544W        W71892  12.241  25.604   4.699
99545W        W71893  25.097   8.899   0.377
99546W        W71894  36.357   6.753  12.845
99547W        W71895   9.168  39.895  12.066
99548W        W71896  12.216  20.652   0.880
99549W        W71897  38.054  16.700  13.020
99550W        W71898  31.557   8.664   5.250
99551W        W71899  35.930  23.526   3.387
99552W        W71900  26.171  37.978  13.927
99553W        W71901  38.389  33.923   3.709
99554W        W71902  23.072  25.071  12.919
99555W        W71903  10.663  37.052   3.168
99556W        W71904   4.418  31.443  11.030
99557W        W71905  40.454  39.947   3.257
99558W        W71906  27.976  34.560  10.053
99559W        W71907  39.423  37.458   3.870
99560W        W71908  21.140  16.739  11.119
99561W        W71909   3.773  34.377  13.994
99562W        W71910  15.112  25.693   2.223
99563W        W71911  26.459  23.224  14.449
99564W        W71912  39.924  26.566  14.352
99565W        W71913   4.348  37.940   0.363
99566W        W71914  39.024  30.989   0.263
99567W        W71915  24.171  22.521  11.440
99568W        W71916  27.609  35.519  14.898
99569W        W71917  13.311  13.765   4.288
99570W        W71918   2.796  20.711  11.595
99571W        W71919  26.623   2.255  10.558
99572W        W71920  33.535  30.050  14.839
99573W        W71921   0.946  33.944  13.833
99574W        W71922   6.428   5.432   2.798
99575W        W71923  22.552  30.451  11.878
99576W        W71924  19.590   0.782  12.030
99577W        W71925  22.999  26.634   2.759
99578W        W71926   6.891  10.638   3.355
99579W        W71927   1.371  10.220  12.824
99580W        W71928   7.349  16.139   3.163
99581W        W71929   1.877  44.010  14.364
99582W        W71930  28.599  32.503  14.440
99583W        W71931  40.465  41.864   2.706
99584W        W71932  12.832  39.022   1.290
99585W        W71933  43.309  19.255  10.417
99586W        W71934  25.209  13.650  13.517
99587W        W71935   8.751   6.337  14.367
99588W        W71936   4.700  42.827  11.945
99589W        W71937  11.705  35.040  10.991
99590W        W71938  24.016   9.731   4.743
99591W        W71939   9.294  17.163   3.781
99592W        W71940  15.168  11.686  12.935
99593W        W71941  16.636   3.786  11.043
99594W        W71942  20.564  30.968  12.442
99595W        W71943  28.538  28.610  13.364
99596W        W71944  32.586  22.025  13.801
99597W        W71945   6.839   2.340  10.897
99598W        W71946  22.077  42.322   1.847
99599W        W71947  34.593  24.084  11.437
99600W        W71948  12.118  12.687   0.853
99601W        W71949  21.073  13.775  14.310
99602W        W71950  19.161  27.614  14.930
99603W        W71951  27.557  40.520  13.936
99604W        W71952  32.128  30.544   4.159
99605W        W71953   7.345  25.533  14.966
99606W        W71954   0.969  29.468   0.447
99607W        W71955  39.864   2.414   3.381
99608W        W71956  44.831  28.962   4.317
99609W        W71957   4.766  15.750   1.275
99610W        W71958  19.663  30.464   0.258
99611W        W71959  18.586  43.995  10.938
99612W        W71960  34.038  38.476  10.939
99613W        W71961  44.362   5.862   2.246
99614W        W71962  39.401  30.055   0.750
99615W        W71963  24.993  23.035   1.277
99616W        W71964  18.782  27.459  11.438
99617W        W71965  44.898  24.083   4.702
99618W        W71966  39.367   6.826  14.857
99619W        W71967  30.160  34.068  14.487
99620W        W71968  19.551   5.762   1.807
99621W        W71969  13.107   0.315  14.467
99622W        W71970  40.423  41.010  14.454
99623W        W71971  43.772   7.287   4.695
99624W        W71972  26.678  32.004  11.087
99625W        W71973  15.651  33.400   4.291
99626W        W71974   7.342   3.923  11.124
99627W        W71975   1.337  30.992   3.286
99628W        W71976  35.935  43.825   0.364
99629W        W71977  10.656  35.364  14.274
99630W        W71978  16.176   0.270   2.371
99631W        W71979  35.543   5.804   0.329
99632W        W71980  39.322   1.862  12.913
99633W        W71981  13.622  11.368   3.766
99634W        W71982   3.331  28.006  11.434
99635W        W71983  10.246  27.143   0.916
99636W        W71984  14.175  33.479  10.622
99637W        W71985  29.466  41.813   0.372
99638W        W71986  39.019  24.499  14.783
99639W        W71987  11.681  41.525   1.918
99640W        W71988  15.152   6.379   1.856
99641W        W71989  27.110  21.704  12.931
99642W        W71990  39.844  28.160   1.793
99643W        W71991  24.100  40.513   1.406
99644W        W71992  23.097  10.797  12.355
99645W        W71993  38.507  44.774  14.390
99646W        W71994  24.116  39.965   3.226
99647W        W71995  23.226  32.968   2.412
99648W        W71996  18.244  21.529   3.179
99649W        W71997   0.411  41.960  14.833
99650W        W71998  38.348  24.003   4.245
99651W        W71999  18.241   9.294   3.310
99652W        W72000   8.280  19.052  10.507
99653W        W72001   4.703  40.010  12.433
99654W        W72002  31.086  29.605  10.435
99655W        W72003   5.269  34.068   2.896
99656W        W72004  15.591   0.476   3.776
99657W        W72005  25.030  18.268  10.897
99658W        W72006  44.883   8.374   2.795
99659W        W72007  13.707   8.273   0.462
99660W        W72008  32.439  28.074   1.220
99661W        W72009  33.548  20.749  11.990
99662W        W72010   4.347  22.165  11.597
99663W        W72011  15.146   6.794   1.745
99664W        W72012  28.010  33.119  10.892
99665W        W72013   7.859   8.778  11.982
99666W        W72014  31.560  25.495   2.796
99667W        W72015  28.634   2.873   2.239
99668W        W72016  41.385   8.397   1.257
99669W        W72017  12.219  26.138   4.286
99670W        W72018   4.346  29.529  14.997
99671W        W72019  30.496  11.769  14.025
99672W        W72020  28.490  36.462   2.191
99673W        W72021  26.659  19.659  10.442
99674W        W72022   2.348   8.369  11.386
99675W        W72023  27.021  44.351  11.110
99676W        W72024  19.102  40.316  11.564
99677W        W72025  28.559  31.985  11.550
99678W        W72026  34.473  42.416   2.283
99679W        W72027   8.357  19.716   2.674
99680W        W72028  17.761  43.441   2.208
99681W        W72029   3.356  10.738   4.268
99682W        W72030  30.018  21.719   0.343
99683W        W72031  25.049   4.355  14.876
99684W        W72032  44.817  38.884   2.868
99685W        W72033  26.166  38.845   4.148
99686W        W72034  14.100  34.953   3.198
99687W        W72035   4.855  35.451   1.705
99688W        W72036  22.218  19.589  13.343
99689W        W72037   1.470  18.278   1.774
99690W        W72038   2.388  13.321   2.764
99691W        W72039  11.308  23.589  12.370
99692W        W72040  33.115   6.377   4.809
99693W        W72041  33.937  10.138   4.631
99694W        W72042  20.084  35.568  10.476
99695W        W72043  35.990  18.271  13.044
99696W        W72044  24.604   8.214   0.789
99697W        W72045  29.458  37.830  11.555
99698W        W72046  31.624  30.104   1.895
99699W        W72047  18.754  28.090   2.254
99700W        W72048  34.043  23.491  14.380
99701W        W72049   3.801   8.265   4.145
99702W        W72050  26.622  23.489  12.380
99703W        W72051  36.881   8.246   2.203
99704W        W72052  26.538   0.833   3.202
99705W        W72053  35.366  18.668   2.179
99706W        W72054  32.406   9.652  11.583
99707W        W72055  14.142   9.309  11.020
99708W        W72056  41.825  44.268   3.340
99709W        W72057  36.556  26.537  10.472
99710W        W72058  14.311   3.940   4.192
99711W        W72059  36.436  30.419  14.839
99712W        W72060  42.339  33.568   1.899
99713W        W72061  23.075  27.462  14.010
99714W        W72062  20.593  27.033   1.870
99715W        W72063  22.180   4.369   3.377
99716W        W72064   7.347  28.144  11.413
99717W        W72065  13.772  37.388  11.045
99718W        W72066  13.688  21.124   4.716
99719W        W72067  26.972   8.327   0.777
99720W        W72068  24.194  34.971   4.736
99721W        W72069  34.035   8.355   0.763
99722W        W72070  39.406  13.818  11.388
99723W        W72071  10.845  36.994  14.884
99724W        W72072  41.460  13.647  14.028
99725W        W72073  42.840  35.906   0.289
99726W        W72074  16.726  12.642   2.193
99727W        W72075  31.103   3.285  14.791
99728W        W72076  35.053  29.131   2.717
99729W        W72077  43.938  28.174  14.332
99730W        W72078  19.711  19.775   4.786
99731W        W72079  18.168   4.900  10.515
99732W        W72080  23.020   9.217  12.412
99733W        W72081  40.440  15.169  12.873
99734W        W72082  10.153  32.998  12.835
99735W        W72083  32.473   5.775   5.164
99736W        W72084  25.066  10.284  12.366
99737W        W72085   4.799   8.729   4.290
99738W        W72086  32.626  15.223  13.444
99739W        W72087  42.508   1.889  14.781
99740W        W72088  35.577  43.311  14.293
99741W        W72089  13.299  11.830  14.367
99742W        W72090   9.695  43.393   0.295
99743W        W72091  44.428  34.976   4.753
99744W        W72092   2.339  23.066  11.979
99745W        W72093  25.710  27.092  11.929
99746W        W72094  19.579  43.274  14.453
99747W        W72095  11.284  24.713  13.043
99748W        W72096   0.748  22.735   0.338
99749W        W72097  32.550  14.117   3.282
99750W        W72098  26.122  34.076   1.798
99751W        W72099  36.510  30.652   5.162
99752W        W72100  10.827  10.292   0.475
99753W        W72101  37.841  18.598  12.891
99754W        W72102   6.193  32.563  12.413
99755W        W72103  20.526  39.041   2.339
99756W        W72104  42.972   8.246   2.822
99757W        W72105  34.024  24.014   2.743
99758W        W72106  11.823   0.361   0.430
99759W        W72107  24.511   5.323   3.766
99760W        W72108  29.955  37.526   4.805
99761W        W72109  39.396  21.625  13.847
99762W        W72110  43.983  10.675   4.611
99763W        W72111  17.261  19.250  11.895
99764W        W72112   5.406   5.690  10.961
99765W        W72113  40.802  42.895  14.485
99766W        W72114  38.050  15.613  14.512
99767W        W72115  39.466  15.183   4.703
99768W        W72116  40.493   9.809  12.985
99769W        W72117  31.425  23.166   2.329
99770W        W72118   5.340  12.350   2.854
99771W        W72119  18.750  33.537   4.124
99772W        W72120  22.139  12.850  14.511
99773W        W72121   9.723  23.036   9.510
99774W        W72122   0.889  30.936  12.510
99775W        W72123  21.514  22.611  13.969
99776W        W72124   6.283  32.005   0.474
99777W        W72125  15.779  17.193  14.009
99778W        W72126  15.272  41.797  14.759
99779W        W72127   9.880  10.725   1.882
99780W        W72128  13.333  39.512  11.588
99781W        W72129  26.135  26.010   4.183
99782W        W72130  33.970  21.591   4.612
99783W        W72131   7.404  36.452   1.875
99784W        W72132  17.188  43.380   1.699
99785W        W72133  16.583   1.320   1.906
99786W        W72134  31.483  14.102   3.282
99787W        W72135  29.958  42.521   2.303
99788W        W72136  38.034  25.091   0.856
99789W        W72137  39.462  37.472   4.747
99790W        W72138   5.741  44.790  12.936
99791W        W72139  19.196   4.713  10.449
99792W        W72140  44.365  16.206  10.447
99793W        W72141  22.080  41.869  10.928
99794W        W72142  27.053   0.833  13.941
99795W        W72143  27.980  12.130  10.461
99796W        W72144  27.630   2.313   0.371
99797W        W72145   9.338  21.611  13.483
99798W        W72146  32.506  37.371   2.732
99799W        W72147   8.284   0.307   2.794
99800W        W72148   4.889  27.618   2.256
99801W        W72149  43.896  43.356  11.541
99802W        W72150  38.982  31.018  11.495
99803W        W72151  17.684   5.263   0.783
99804W        W72152  21.636  24.576  14.500
99805W        W72153  15.114  15.640  11.085
99806W        W72154  14.643  15.674  10.409
99807W        W72155  32.439   0.270  14.502
99808W        W72156   9.783  43.966   2.784
99809W        W72157  39.438  38.441   0.318
99810W        W72158  17.284  30.073  11.527
99811W        W72159   5.352  44.830   1.266
99812W        W72160  25.147  37.847  13.873
99813W        W72161  32.112  25.079  13.843
99814W        W72162   9.696  10.171  12.469
99815W        W72163  29.593  16.119   0.813
99816W        W72164   8.197   6.380  13.471
99817W        W72165   6.852  17.727  11.563
99818W        W72166  43.370  31.977  10.993
99819W        W72167  32.019   3.891  13.395
99820W        W72168  41.440  24.995  14.338
99821W        W72169  24.534   9.340   5.274
99822W        W72170  38.338  27.553  11.398
99823W        W72171   5.917  34.982   4.187
99824W        W72172  39.351  39.914  11.391
99825W        W72173   8.869  44.480  13.972
99826W        W72174  42.351  42.345   3.253
99827W        W72175  29.517  35.398  13.907
99828W        W72176   6.698  20.101   1.932
99829W        W72177  19.691  23.723  12.932
99830W        W72178  12.328  15.137   0.902
99831W        W72179   7.883   6.268  11.516
99832W        W72180   2.295   7.757  10.550
99833W        W72181  42.374  34.977  12.890
99834W        W72182  21.542  42.350   2.211
99835W        W72183  36.849  25.988   3.636
99836W        W72184  33.128  22.028   3.681
99837W        W72185  17.195  24.063  14.780
99838W        W72186   7.667  43.448   2.787
99839W        W72187  34.093   6.915  12.476
99840W        W72188   8.270  20.066  12.917
99841W        W72189  29.950  27.154   4.694
99842W        W72190   5.290  43.876   4.275
99843W        W72191  19.057   9.752  11.373
99844W        W72192  31.463  32.952  14.512
99845W        W72193   7.405  12.745  12.828
99846W        W72194  18.165   6.250   4.355
99847W        W72195  17.590   2.432  10.640
99848W        W72196  44.371  39.519   4.342
99849W        W72197  11.201  21.127   1.263
99850W        W72198  26.025  42.989  11.534
99851W        W72199   6.918  10.713   4.208
99852W        W72200  29.015   6.243   0.265
99853W        W72201  23.108  36.907   4.681
99854W        W72202  40.847  24.180   0.448
99855W        W72203  41.399   6.864   1.263
99856W        W72204   5.890  16.275  11.907
99857W        W72205   0.428  42.366   1.389
99858W        W72206  16.761   6.206   4.774
99859W        W72207   2.327  44.320   0.896
99860W        W72208  39.841  30.413   4.797
99861W        W72209  29.511  37.336   1.900
99862W        W72210  30.085  23.062  12.879
99863W        W72211  31.124  40.981  13.791
99864W        W72212  16.101  20.569   3.341
99865W        W72213  41.302  33.471  12.834
99866W        W72214  18.555  21.187  12.384
99867W        W72215  42.925  13.828  11.986
99868W        W72216  29.087  44.990   0.368
99869W        W72217  16.716  41.295  12.391
99870W        W72218  29.442  30.044  13.325
99871W        W72219  22.642  21.242   2.365
99872W        W72220  33.033   8.706   4.297
99873W        W72221  19.574  29.425  11.421
99874W        W72222  44.819   5.714  13.810
99875W        W72223  33.500  27.467   0.277
99876W        W72224  15.602  43.474   3.793
99877W        W72225   0.261  27.033   0.282
99878W        W72226   5.327  31.077   2.684
99879W        W72227   0.427  27.501   3.632
99880W        W72228  18.194  18.747  14.919
99881W        W72229  27.531  30.941   2.347
99882W        W72230  37.426  11.812  10.427
99883W        W72231  24.230  18.783   5.269
99884W        W72232   0.917  25.614  14.967
99885W        W72233  18.207  23.121  12.474
99886W        W72234  14.135  25.478   4.322
99887W        W72235  37.419  31.150  12.579
99888W        W72236  38.414  29.467   3.186
99889W        W72237   1.946  32.567  11.116
99890W        W72238  14.793  19.217   2.248
99891W        W72239  40.001  30.072   2.390
99892W        W72240  43.956  26.205   3.810
99893W        W72241  20.729   4.787  12.957
99894W        W72242   4.780   1.924   2.883
99895W        W72243  44.833  36.084   5.309
99896W        W72244  20.753   6.252   2.387
99897W        W72245   4.870  33.623   9.940
99898W        W72246  14.245  27.508   0.340
99899W        W72247   7.380   0.479   0.795
99900W        W72248   3.394  11.712   1.915
99901W        W72249  40.481  31.481  13.837
99902W        W72250  19.586  28.061   1.438
99903W        W72251  40.530   6.321   3.300
99904W        W72252   1.434  29.017  14.948
99905W        W72253  30.486  31.504   1.221
99906W        W72254  20.766  19.696  14.013
99907W        W72255  41.510  34.001   2.794
99908W        W72256  28.436  30.960   3.633
99909W        W72257  10.762  39.418  11.491
99910W        W72258  43.451   2.784  10.501
99911W        W72259  39.442  30.987  10.602
99912W        W72260  31.415  15.207  13.415
99913W        W72261  29.622   2.851  14.901
99914W        W72262  32.403  17.297  13.882
99915W        W72263  41.810  44.279   9.920
99916W        W72264  23.127  36.449  11.426
99917W        W72265  16.694  35.098  12.885
99918W        W72266  32.536  41.957   2.692
99919W        W72267   0.967  13.718   3.766
99920W        W72268  28.127  21.579  14.386
99921W        W72269  36.347   8.324  13.845
99922W        W72270   0.343  33.082  12.966
99923W        W72271  37.057   5.814   4.699
99924W        W72272   8.704  41.908   2.676
99925W        W72273   0.880  14.233   2.712
99926W        W72274   8.795  27.606   2.734
99927W        W72275  43.961  36.395  14.427
99928W        W72276  42.994  25.036   0.314
99929W        W72277  33.056  44.767   3.826
99930W        W72278  16.273   5.774   4.310
99931W        W72279   0.884  31.602  10.967
99932W        W72280  14.258   1.341  11.559
99933W        W72281  25.659   7.268   0.740
99934W        W72282  31.518  34.421   4.272
99935W        W72283  38.543  13.216  14.892
99936W        W72284   6.745  43.459   1.423
99937W        W72285  28.469  15.650  12.834
99938W        W72286  31.117  40.431  14.974
99939W        W72287  10.854  32.425  10.458
99940W        W72288  29.939  23.018  12.376
99941W        W72289  18.589   0.384  10.589
99942W        W72290  34.956  25.083   3.786
99943W        W72291  18.179   2.248   2.871
99944W        W72292   4.844  23.640  11.893
99945W        W72293  34.398  25.164   4.142
99946W        W72294   6.678  42.010  13.902
99947W        W72295  44.274  16.779   4.783
99948W        W72296  11.639  43.915  12.015
99949W        W72297  24.636  30.036   4.651
99950W        W72298  10.701   7.676  12.409
99951W        W72299   1.477  26.168  14.507
99952W        W72300  39.955   1.287   2.795
99953W        W72301  40.895  11.209   4.801
99954W        W72302  11.305   9.757  12.002
99955W        W72303  39.941   7.411  14.783
99956W        W72304  13.135  20.700  12.955
99957W        W72305  19.068  36.532   2.266
99958W        W72306  29.106  43.022  14.405
99959W        W72307   5.705   8.268  11.879
99960W        W72308  28.166  23.213  10.985
99961W        W72309  28.500  41.790   0.463
99962W        W72310  18.769  30.519  13.902
99963W        W72311  16.685   9.748  13.832
99964W        W72312   8.320  10.702  13.351
99965W        W72313   8.226   5.438   1.907
99966W        W72314   9.291  36.386   1.232
99967W        W72315  26.079   9.374   4.608
99968W        W72316  23.490   7.703   4.748
99969W        W72317   7.704  23.500  13.315
99970W        W72318  18.221  35.967   4.735
99971W        W72319  24.694  18.095   4.287
99972W        W72320   7.876  38.965  13.871
99973W        W72321  11.674  23.096  11.594
99974W        W72322  13.253  17.783  12.561
99975W        W72323   9.209  28.103   3.771
99976W        W72324  22.136  16.279   1.784
99977W        W72325  28.641  35.865  14.448
99978W        W72326  42.021  14.714   0.424
99979W        W72327  35.022  13.801  14.298
99980W        W72328   3.380  41.324   2.845
99981W        W72329   6.420  17.633  11.465
99982W        W72330   4.877  13.607  12.983
99983W        W72331  22.580  27.056   1.252
99984W        W72332  15.756  24.101  10.603
99985W        W72333  14.303  43.777   4.143
99986W        W72334  23.647  17.110  11.984
99987W        W72335  26.613  18.594  14.984
99988W        W72336   4.327  26.493  13.457
99989W        W72337  38.023  30.916  14.501
99990W        W72338  31.933  34.567   1.822
99991W        W72339  16.697  10.771   2.256
99992W        W72340  43.002   5.298  13.397
99993W        W72341  12.651  11.730   2.284
99994W        W72342  33.602   6.403  10.084
99995W        W72343  39.978  40.839   0.385
99996W        W72344   7.270  10.309  13.970
99997W        W72345  37.891   8.254  12.858
99998W        W72346  19.242  26.183   3.743
99999W        W72347  43.813  31.082   4.715
    0W        W72348  40.356  20.113   0.752
    1W        W72349  12.252  17.274  13.828
    2W        W72350  40.325  34.456   2.702
    3W        W72351  38.938  38.393  14.846
    4W        W72352  33.100  41.983   3.738
    5W        W72353  11.821  35.359  14.796
    6W        W72354  41.487  21.617   1.246
    7W        W72355  26.135  39.852  13.918
    8W        W72356   5.699  25.176  10.499
    9W        W72357  39.470   1.916  14.888
   10W        W72358  19.238  30.606  13.946
   11W        W72359  23.650  39.498   1.816
   12W        W72360   9.749  26.191   1.408
   13W        W72361   7.855  30.021   0.316
   14W        W72362  43.330  23.725   0.378
   15W        W72363  37.373  23.517  10.598
   16W        W72364  24.077  10.159   2.260
   17W        W72365  10.671   7.197   3.715
   18W        W72366   2.387  20.745  10.434
   19W        W72367  13.248   2.332   0.923
   20W        W72368  43.501   4.904  10.089
   21W        W72369   3.850  31.126  11.862
   22W        W72370  41.514  37.549  11.470
   23W        W72371   5.364   9.185   0.409
   24W        W72372  43.510  36.954   4.227
   25W        W72373  16.305  28.643  12.352
   26W        W72374   9.790  26.631  14.908
   27W        W72375  33.506  34.949   2.866
   28W        W72376  41.794  15.714   3.353
   29W        W72377  18.629  36.537   4.793
   30W        W72378   4.204  15.708  12.435
   31W        W72379  26.672  20.141   1.880
   32W        W72380  42.835  41.926  12.875
   33W        W72381  38.027  27.999   2.664
   34W        W72382  44.448  27.167  14.908
   35W        W72383  27.558  17.097  11.483
   36W        W72384  35.873  40.475  13.505
   37W        W72385  28.489  29.074  11.909
   38W        W72386  37.856  14.127  14.424
   39W        W72387  38.941   2.858   0.884
   40W        W72388  25.657  15.596  10.151
   41W        W72389  24.178  19.156   4.337
   42W        W72390  32.616  38.853  12.866
   43W        W72391   4.380  22.125   4.303
   44W        W72392   9.654  44.823   0.879
   45W        W72393  12.629  25.142  10.585
   46W        W72394  37.884  25.033  13.812
   47W        W72395  19.620   6.850  10.622
   48W        W72396  27.576  37.925  10.967
   49W        W72397  44.961  34.064  11.599
   50W        W72398  20.729  41.433  14.914
   51W        W72399  16.192  11.811  11.875
   52W        W72400  37.382  29.531   1.694
   53W        W72401  27.948  30.579   3.160
   54W        W72402  18.230  35.971  10.521
   55W        W72403  33.450  26.470  14.878
   56W        W72404  39.878  19.772  11.933
   57W        W72405  16.703  16.172  11.508
   58W        W72406  24.694  44.267   2.266
   59W        W72407  11.780  13.629  11.961
   60W        W72408  34.897  21.249  10.442
   61W        W72409  27.033  41.867   3.793
   62W        W72410  21.625  26.040  13.891
   63W        W72411  40.991  20.177   0.357
   64W        W72412  41.954  42.983   4.339
   65W        W72413   3.855  36.910   4.161
   66W        W72414  29.518  42.942   1.822
   67W        W72415  29.514  36.519   0.363
   68W        W72416  34.448  24.023   2.698
   69W        W72417  26.470  17.074   0.431
   70W        W72418   8.812   6.200  12.827
   71W        W72419  29.589  21.099   4.173
   72W        W72420  12.634   2.734  13.866
   73W        W72421  19.163  41.918  10.508
   74W        W72422  28.095  44.781  11.930
   75W        W72423  12.304  29.987  10.431
   76W        W72424  41.443  27.119   3.810
   77W        W72425   1.448   2.308   3.363
   78W        W72426  41.997  43.986   4.675
   79W        W72427  27.038  33.579  14.464
   80W        W72428  37.045   8.381   3.316
   81W        W72429  14.684   5.877  13.524
   82W        W72430  11.346  35.046  13.339
   83W        W72431  13.343  10.164  12.881
   84W        W72432   7.231  43.910  13.048
   85W        W72433  25.212  23.679   0.319
   86W        W72434  38.019  25.029   4.794
   87W        W72435  15.221  40.966  10.417
   88W        W72436  29.161  26.550   1.361
   89W        W72437  34.958  21.046   5.281
   90W        W72438  19.677  13.793   0.942
   91W        W72439  15.753   4.407  14.359
   92W        W72440  24.087  35.916   3.669
   93W        W72441  40.858  36.982  13.968
   94W        W72442  15.289  12.855  13.887
   95W        W72443  17.609  31.943   3.374
   96W        W72444  20.154  13.345  12.384
   97W        W72445   4.887  31.923  14.290
   98W        W72446  11.148  36.548  13.795
   99W        W72447  36.936  33.009  10.568
  100W        W72448  21.110  15.192   1.414
  101W        W72449  17.757   5.259  11.536
  102W        W72450  29.048  32.992  14.974
  103W        W72451  35.461  23.514   3.192
  104W        W72452   4.373   2.863  14.800
  105W        W72453  43.331  40.418  10.975
  106W        W72454  36.001  39.465   0.407
  107W        W72455  37.935  20.708   0.750
  108W        W72456  36.952  29.958   0.402
  109W        W72457  38.846   5.199   4.329
  110W        W72458  21.699  27.568  11.977
  111W        W72459   2.274   7.850   3.807
  112W        W72460  12.138  14.211  13.023
  113W        W72461  24.180   0.829   4.825
  114W        W72462  28.604  39.003  11.124
  115W        W72463  44.757  27.146  12.971
  116W        W72464  34.951   3.301  10.427
  117W        W72465  43.430   6.358  14.335
  118W        W72466  15.736  22.151   3.210
  119W        W72467   1.817  44.422  13.395
  120W        W72468  42.975  40.809   4.201
  121W        W72469   2.815  24.619  11.904
  122W        W72470  28.537  12.641  11.524
  123W        W72471  20.146   1.968   0.257
  124W        W72472  43.401   8.254   0.849
  125W        W72473  44.892   8.369  12.436
  126W        W72474  44.854  15.624  10.404
  127W        W72475   8.713  12.246  12.368
  128W        W72476   3.288  33.531   3.786
  129W        W72477   6.848   0.286   0.361
  130W        W72478  33.393  12.683   4.319
  131W        W72479  26.626  41.830   3.190
  132W        W72480  15.677   1.307  12.087
  133W        W72481   5.337  20.768  14.816
  134W        W72482   3.948  12.135   4.310
  135W        W72483  22.059  14.202   1.758
  136W        W72484  44.840  31.406   1.922
  137W        W72485  15.760   4.415  10.933
  138W        W72486  18.594  32.501   1.339
  139W        W72487  34.992  38.397  10.626
  140W        W72488  13.193   6.330   0.751
  141W        W72489  37.881  42.305  13.471
  142W        W72490   1.420  31.124   0.390
  143W        W72491  10.802  28.034   1.335
  144W        W72492  10.837  38.427  14.008
  145W        W72493  31.052  22.717  14.384
  146W        W72494  20.625   9.168   0.377
  147W        W72495  27.577  20.667   2.764
  148W        W72496  39.946   2.926  10.987
  149W        W72497  15.269   8.286   4.717
  150W        W72498  13.236  36.855  11.999
  151W        W72499  11.199  20.582   2.703
  152W        W72500   9.822  19.266   0.481
  153W        W72501  32.970   0.800  14.759
  154W        W72502  30.638  42.358   3.250
  155W        W72503  43.003  14.826   4.606
  156W        W72504  23.518  44.840  10.449
  157W        W72505   3.442   1.304   4.835
  158W        W72506   6.225   0.373   4.290
  159W        W72507  39.555  36.403  13.451
  160W        W72508  26.628  30.110   0.931
  161W        W72509  28.636  26.207   4.705
  162W        W72510  40.461  30.583   1.756
  163W        W72511   7.293  25.659   3.149
  164W        W72512   7.226  30.919   2.363
  165W        W72513  31.921   6.917  13.943
  166W        W72514  32.417  42.846  12.833
  167W        W72515  36.478  10.236  14.395
  168W        W72516  32.051  17.755  12.371
  169W        W72517  42.939   2.886  11.388
  170W        W72518  37.989   5.747   0.768
  171W        W72519  27.192  17.234   1.879
  172W        W72520  36.907  16.667  12.917
  173W        W72521  13.334  41.878   2.225
  174W        W72522  25.039  24.105   2.846
  175W        W72523  12.850   2.308  11.882
  176W        W72524  17.718  17.216   2.836
  177W        W72525  13.222  42.988  12.469
  178W        W72526  27.553   0.383   2.884
  179W        W72527  27.590  30.452   0.292
  180W        W72528  36.952  13.737   4.162
  181W        W72529   8.793  37.345   2.834
  182W        W72530  23.726   0.935  12.500
  183W        W72531  10.146  39.866  14.851
  184W        W72532  44.492   0.958   4.246
  185W        W72533  23.016  18.077   4.668
  186W        W72534  42.522   8.716  14.478
  187W        W72535  16.729  25.199  13.935
  188W        W72536  10.199  21.079   3.709
  189W        W72537  44.929  43.345  11.086
  190W        W72538  10.272  21.553  10.903
  191W        W72539  29.021  10.332   4.668
  192W        W72540  19.562  38.879   3.237
  193W        W72541  31.977  16.736   4.212
  194W        W72542  12.704  35.592   4.203
  195W        W72543  36.013  43.515   3.196
  196W        W72544  30.021  42.376   4.733
  197W        W72545   1.340   6.790   1.371
  198W        W72546  36.439  35.522  10.923
  199W        W72547  21.111  15.586   0.806
  200W        W72548  35.857  38.055  11.060
  201W        W72549  29.034  31.459  10.459
  202W        W72550   8.888  32.608  13.390
  203W        W72551  44.938  43.799   0.750
  204W        W72552   8.269   4.746   0.434
  205W        W72553  27.598  22.080  11.957
  206W        W72554  14.650  17.579  13.424
  207W        W72555   5.317  22.578   1.732
  208W        W72556  12.745   3.222  13.327
  209W        W72557   1.436  35.034  12.564
  210W        W72558  16.596  26.694   3.285
  211W        W72559   0.794   1.328  13.029
  212W        W72560  18.116  30.106  10.605
  213W        W72561   4.442  23.589   0.258
  214W        W72562  22.533  39.963  13.490
  215W        W72563  32.053   4.402   3.324
  216W        W72564  22.711   7.733   5.630
  217W        W72565  14.686  42.842  11.121
  218W        W72566  19.707  27.941  11.420
  219W        W72567  33.040   8.253  11.422
  220W        W72568  34.872  44.340  12.067
  221W        W72569  28.578  41.929  13.792
  222W        W72570   9.234   9.803   1.889
  223W        W72571  20.254  44.972   0.244
  224W        W72572   2.782  15.638  12.529
  225W        W72573  18.086  41.806  10.429
  226W        W72574  21.686  34.035   4.646
  227W        W72575  38.072  31.436   1.777
  228W        W72576  27.005   0.802   1.759
  229W        W72577  27.607  24.689  12.046
  230W        W72578  10.198   4.901  10.057
  231W        W72579  13.306  16.680  14.512
  232W        W72580  35.418  30.036   4.294
  233W        W72581  35.443  44.479  13.876
  234W        W72582  19.616   8.722   3.204
  235W        W72583  44.942  27.685   1.249
  236W        W72584  33.924  38.062  11.086
  237W        W72585   7.187   1.239  13.979
  238W        W72586  43.914  34.372   1.864
  239W        W72587  10.853   8.676   1.426
  240W        W72588  33.070  11.785  11.074
  241W        W72589   7.354  13.641   3.860
  242W        W72590  43.404  30.454  11.591
  243W        W72591  20.153   4.817  12.389
  244W        W72592  24.140  43.966   0.893
  245W        W72593  40.859   6.800   4.693
  246W        W72594   0.322  24.571   2.778
  247W        W72595  22.048  27.487  13.947
  248W        W72596   7.395  21.251   2.775
  249W        W72597  40.433  36.905  11.601
  250W        W72598  25.571  17.161   4.309
  251W        W72599  20.242  11.192   0.440
  252W        W72600   0.336   2.356   0.310
  253W        W72601   1.301  14.233  11.103
  254W        W72602  37.936  28.661   2.252
  255W        W72603  29.494  21.112  11.575
  256W        W72604  21.128   2.818  14.451
  257W        W72605  10.641  40.853   0.826
  258W        W72606   2.285  35.019   0.843
  259W        W72607   1.792  41.805   3.847
  260W        W72608  40.519  33.487   1.877
  261W        W72609  38.367  36.512   3.212
  262W        W72610  18.578   4.720  10.441
  263W        W72611  19.592  15.141  14.286
  264W        W72612  18.765   2.896   1.696
  265W        W72613  35.893  27.655  13.959
  266W        W72614  11.148  21.645   0.878
  267W        W72615  13.181   7.364   1.253
  268W        W72616  17.600  24.218  11.949
  269W        W72617  11.828  10.694   2.829
  270W        W72618   7.263  25.476   2.855
  271W        W72619   7.229  43.791   2.871
  272W        W72620  29.434  44.266   5.245
  273W        W72621  26.159  38.448   3.368
  274W        W72622  31.537  42.787   1.292
  275W        W72623  11.819  23.213   4.172
  276W        W72624  41.970  33.565  13.006
  277W        W72625   1.972  38.944   2.321
  278W        W72626  24.500   7.365   2.776
  279W        W72627  33.023  39.342  13.959
  280W        W72628  12.735   7.370   1.432
  281W        W72629  13.149  17.127  12.510
  282W        W72630   5.916  43.408  12.364
  283W        W72631  10.312  17.121   0.778
  284W        W72632   7.372  33.938  10.526
  285W        W72633  23.733  39.316  12.536
  286W        W72634  10.716  39.063  10.968
  287W        W72635  27.544  18.084  13.524
  288W        W72636   1.912  14.640  14.914
  289W        W72637  27.067  39.555   1.434
  290W        W72638  35.923  15.198  14.769
  291W        W72639  17.162   9.832   2.284
  292W        W72640  22.511  19.212   4.656
  293W        W72641  36.433  38.397  10.573
  294W        W72642  23.230  31.437   2.256
  295W        W72643  10.170  29.063   3.691
  296W        W72644  36.861  15.608  10.965
  297W        W72645  29.668  14.317   3.233
  298W        W72646  35.878  28.460   2.833
  299W        W72647  41.954  15.284  12.518
  300W        W72648  23.622  35.929  14.399
  301W        W72649  17.267  39.506   3.356
  302W        W72650  35.075  11.863   1.306
  303W        W72651  10.327  32.907   1.451
  304W        W72652  23.495  19.689   4.258
  305W        W72653   0.916   6.728   1.783
  306W        W72654  20.586  41.308  13.035
  307W        W72655   4.822  21.715  12.864
  308W        W72656   9.160  22.669   0.428
  309W        W72657  43.416  37.013   2.802
  310W        W72658  20.725  31.941   4.185
  311W        W72659  25.626  17.292  14.766
  312W        W72660  16.714  22.189   3.200
  313W        W72661  22.657  11.860   0.924
  314W        W72662  41.499  37.885  10.462
  315W        W72663  37.959  25.087   1.886
  316W        W72664  37.578  17.640   3.223
  317W        W72665   8.797  18.630  10.411
  318W        W72666  11.145  11.266   3.155
  319W        W72667   5.874  44.809   3.831
  320W        W72668  42.369  12.151  14.351
  321W        W72669   7.387  27.116  12.450
  322W        W72670  42.504  17.306  10.529
  323W        W72671   1.802  34.467  12.563
  324W        W72672  11.336  16.133   3.633
  325W        W72673   2.816  25.060   2.245
  326W        W72674  24.097   0.340  10.526
  327W        W72675  16.701   5.356   2.757
  328W        W72676  36.078  16.094   4.202
  329W        W72677  14.788  12.265   0.301
  330W        W72678  33.395   5.874   9.515
  331W        W72679   2.464  38.989  12.885
  332W        W72680   2.879  11.662  13.418
  333W        W72681   5.722  38.484  13.896
  334W        W72682  23.138   8.886   4.707
  335W        W72683  42.940  43.286  13.488
  336W        W72684  24.481  32.969  12.897
  337W        W72685  16.132  22.046   0.350
  338W        W72686   4.308  15.157   3.344
  339W        W72687  22.688  30.154  13.488
  340W        W72688  26.643  13.706   4.776
  341W        W72689   6.183  13.326   2.271
  342W        W72690  42.960   8.225   4.304
  343W        W72691  16.661  30.954  12.367
  344W        W72692  25.594  11.295  13.374
  345W        W72693  29.568   3.849  14.878
  346W        W72694  25.545   5.350  10.486
  347W        W72695  34.543  24.135   4.655
  348W        W72696  27.114  23.669   3.383
  349W        W72697  41.458  12.762   0.798
  350W        W72698  37.963  23.059   4.312
  351W        W72699   5.820  21.669  11.537
  352W        W72700  11.367  18.732  11.062
  353W        W72701   2.356  31.074  13.333
  354W        W72702   1.779  10.839  13.846
  355W        W72703   1.350   8.232   1.881
  356W        W72704   9.201  25.708   1.259
  357W        W72705  22.106  27.144  14.927
  358W        W72706  13.628   2.757   1.304
  359W        W72707  27.504  12.756   3.831
  360W        W72708  25.024  27.686  13.846
  361W        W72709   5.234   1.313  14.797
  362W        W72710  20.710  32.428   4.148
  363W        W72711  19.197  39.456   3.798
  364W        W72712  14.829  12.327  12.045
  365W        W72713  17.697  36.043   3.812
  366W        W72714  38.481  14.716   2.835
  367W        W72715   6.347  25.070   3.274
  368W        W72716   0.825  27.163  12.450
  369W        W72717  31.063  18.215   2.337
  370W        W72718  21.073  29.979   4.262
  371W        W72719  14.339  21.145  14.389
  372W        W72720  30.942  26.138   0.964
  373W        W72721  23.632  20.073  11.010
  374W        W72722  32.039  30.497  11.036
  375W        W72723  24.721  31.489   4.670
  376W        W72724  21.139   0.318   4.704
  377W        W72725  16.196  36.520  11.609
  378W        W72726  17.218  24.641   3.733
  379W        W72727  19.650  21.031   5.228
  380W        W72728   0.826  19.745  12.360
  381W        W72729  17.781  38.944  11.109
  382W        W72730  22.204  43.503  13.029
  383W        W72731  23.013  12.704   4.303
  384W        W72732  24.025  13.177   2.290
  385W        W72733  20.219  36.018  10.410
  386W        W72734   2.749  41.359  14.388
  387W        W72735  16.295   6.425   3.220
  388W        W72736   1.314  17.801   1.437
  389W        W72737  11.225  12.791   0.879
  390W        W72738  33.454  11.720   4.784
  391W        W72739   3.425  26.692   2.843
  392W        W72740   0.921   6.795   4.684
  393W        W72741  26.526   9.342  12.088
  394W        W72742   4.285  41.935   4.193
  395W        W72743  20.547  39.534   2.412
  396W        W72744  28.095  32.096  10.983
  397W        W72745  39.831  39.853  12.520
  398W        W72746   0.817  18.692  14.353
  399W        W72747  37.498  26.638   2.256
  400W        W72748   2.918  13.178   3.184
  401W        W72749   2.801  23.036   4.301
  402W        W72750  27.138  43.936  11.513
  403W        W72751  21.517  13.819   0.862
  404W        W72752  33.489  35.491  10.501
  405W        W72753  14.284  12.644  12.081
  406W        W72754  33.388  25.014  13.498
  407W        W72755  19.176  18.217   0.483
  408W        W72756  33.422   5.331   2.395
  409W        W72757   7.883   8.689  14.879
  410W        W72758  15.625  10.798  13.985
  411W        W72759  31.047   8.780  13.310
  412W        W72760   6.745  21.698   3.761
  413W        W72761   6.415  42.514   0.419
  414W        W72762   8.815  36.994   4.155
  415W        W72763  13.158  38.960  13.795
  416W        W72764  26.569   9.304   3.648
  417W        W72765   5.288  36.909  13.378
  418W        W72766  12.711   2.874   4.692
  419W        W72767  23.512  24.655   0.860
  420W        W72768  26.159  11.366   1.801
  421W        W72769   8.724  12.705  12.907
  422W        W72770  20.609  36.994  14.950
  423W        W72771  31.613  40.987  14.387
  424W        W72772  28.552   5.210  13.926
  425W        W72773   1.834  41.026  12.889
  426W        W72774  18.107  26.007   3.816
  427W        W72775  17.600  10.163   4.686
  428W        W72776  10.815  33.031  12.020
  429W        W72777  30.647  12.663  14.438
  430W        W72778  15.234  38.856   4.156
  431W        W72779   3.266  17.092   2.757
  432W        W72780  24.601  14.756  12.571
  433W        W72781  31.065  32.491  14.405
  434W        W72782  13.129   8.673   3.746
  435W        W72783  43.514  31.951   2.219
  436W        W72784  18.177   1.424  10.916
  437W        W72785  25.979  23.554   3.648
  438W        W72786  33.472  27.052  14.794
  439W        W72787  40.018  27.561   0.378
  440W        W72788  37.472  40.995   2.872
  441W        W72789  43.412  13.787  14.390
  442W        W72790   6.863  34.584   3.847
  443W        W72791   0.949  35.896  14.390
  444W        W72792  31.436  42.335  13.790
  445W        W72793   3.722  13.778   2.848
  446W        W72794  41.983  42.482   0.874
  447W        W72795  44.989  41.963  14.507
  448W        W72796  14.608  13.190  13.506
  449W        W72797  26.104   3.810  11.552
  450W        W72798  11.230  11.702  13.874
  451W        W72799  35.593  32.910   2.417
  452W        W72800  29.483   2.923   3.809
  453W        W72801  10.821  12.359   1.403
  454W        W72802   6.231  22.139   0.899
  455W        W72803   2.467  12.140  13.450
  456W        W72804  23.559   9.201  14.953
  457W        W72805  41.852  29.589  14.406
  458W        W72806   3.253   1.974   4.639
  459W        W72807  19.285  36.353  10.898
  460W        W72808   2.250   3.860   0.333
  461W        W72809  34.042  25.101  11.009
  462W        W72810  10.225  17.801   2.188
  463W        W72811  22.550  30.450   5.115
  464W        W72812  21.565  28.599   3.214
  465W        W72813   2.303  11.148   4.634
  466W        W72814  12.145  32.930   4.255
  467W        W72815  32.133  36.420  10.549
  468W        W72816  13.104  37.427   5.088
  469W        W72817  38.893  39.047  12.390
  470W        W72818  17.177  11.365   3.216
  471W        W72819  25.508  11.767   3.329
  472W        W72820   8.168  18.634   2.772
  473W        W72821  34.928  31.961  13.868
  474W        W72822  39.065  23.996   3.247
  475W        W72823  23.730  13.134   1.213
  476W        W72824  41.400  17.594  12.045
  477W        W72825  41.381   4.283   0.869
  478W        W72826  10.295  14.203   1.868
  479W        W72827   9.707  36.401  14.845
  480W        W72828   5.873   8.849   4.641
  481W        W72829  17.675  30.572   2.867
  482W        W72830  28.006   7.207   0.758
  483W        W72831   6.402  25.640  13.008
  484W        W72832   6.713  31.082  13.542
  485W        W72833   2.962  15.623  12.850
  486W        W72834  39.491  12.360   0.817
  487W        W72835  20.561  25.623  11.912
  488W        W72836  39.325  25.533   2.817
  489W        W72837  34.088   1.342  13.985
  490W        W72838   3.806   1.376  10.907
  491W        W72839  25.084  26.118  11.868
  492W        W72840  37.028   4.759   1.275
  493W        W72841   5.741  33.949   1.758
  494W        W72842  26.169  42.476  10.577
  495W        W72843  23.239  43.415  11.390
  496W        W72844   2.736  38.889   3.350
  497W        W72845  40.524   7.738  12.074
  498W        W72846  30.563  20.050   3.150
  499W        W72847  40.886  10.158   4.636
  500W        W72848  34.983  18.726   3.676
  501W        W72849  31.636  26.060  14.472
  502W        W72850  16.167  39.316  10.934
  503W        W72851   1.947  13.321  13.878
  504W        W72852  40.901  11.744  12.498
  505W        W72853   9.212  34.996  13.928
  506W        W72854  41.503  40.849  12.400
  507W        W72855   4.932  41.935   3.716
  508W        W72856  42.798  23.219  14.398
  509W        W72857  18.254  35.545   3.729
  510W        W72858  10.203   9.325  10.610
  511W        W72859  39.008  29.099   2.234
  512W        W72860   7.185  32.987  10.998
  513W        W72861  43.788  21.240   1.703
  514W        W72862  41.910  24.556   4.704
  515W        W72863  11.251  17.085  13.919
  516W        W72864  18.560  37.519  10.097
  517W        W72865   9.198  18.787  11.420
  518W        W72866   5.879  44.939   4.679
  519W        W72867  42.478  37.406  11.928
  520W        W72868  31.049  22.591   0.805
  521W        W72869  29.622  21.044  13.866
  522W        W72870  24.675   6.886  12.853
  523W        W72871  12.740  26.476   1.276
  524W        W72872  27.124  17.084  10.991
  525W        W72873   9.674  36.930   4.744
  526W        W72874   7.188  13.649   2.719
  527W        W72875   7.882  29.430  11.453
  528W        W72876  25.182  20.572  11.123
  529W        W72877  21.159  16.690   2.753
  530W        W72878  36.064  15.640   1.377
  531W        W72879  42.400  34.077  12.511
  532W        W72880  18.716   3.424   2.276
  533W        W72881   0.297  22.602  13.862
  534W        W72882  25.610  19.570  14.436
  535W        W72883  36.587   0.313   4.669
  536W        W72884  24.598  27.123  11.990
  537W        W72885  44.431  21.679  14.980
  538W        W72886   5.698  37.362   0.288
  539W        W72887  40.848  42.408   4.762
  540W        W72888  26.662  24.976  10.972
  541W        W72889  25.489  25.142   1.450
  542W        W72890   6.361  43.368  11.017
  543W        W72891  33.509  43.870   4.712
  544W        W72892  22.669  24.988   0.766
  545W        W72893   2.956  26.058  13.035
  546W        W72894  19.041  22.183   2.803
  547W        W72895   6.339  32.621  13.931
  548W        W72896  11.288  29.582  12.373
  549W        W72897  33.886   9.745   3.771
  550W        W72898  28.617   0.320  12.370
  551W        W72899  12.150  38.497  14.905
  552W        W72900  10.846  36.550   2.239
  553W        W72901   4.770  23.002   5.134
  554W        W72902  29.542  21.627   0.927
  555W        W72903  18.185   1.801   2.294
  556W        W72904  16.566  38.453  13.315
  557W        W72905  21.698  18.147   2.743
  558W        W72906  30.939  25.577  12.447
  559W        W72907  29.940  20.750   0.913
  560W        W72908  32.626  42.009   4.315
  561W        W72909  40.396  43.835   1.909
  562W        W72910  19.200  29.659  11.962
  563W        W72911  17.558  36.410   0.471
  564W        W72912  38.007  16.767   3.206
  565W        W72913   5.745  15.748   3.306
  566W        W72914  43.407   3.439  13.842
  567W        W72915  13.323   5.797   3.696
  568W        W72916   7.285  33.005   2.851
  569W        W72917  32.587  14.172  14.858
  570W        W72918  29.590  24.067   0.921
  571W        W72919   5.288  29.972   1.382
  572W        W72920  39.486   9.692   1.888
  573W        W72921  18.242  13.173  10.599
  574W        W72922  42.469  43.766  13.979
  575W        W72923  11.814   5.212   0.951
  576W        W72924  12.613  42.853   3.287
  577W        W72925  10.352  33.530   3.787
  578W        W72926  36.347   8.665   0.794
  579W        W72927  10.818  27.942   0.826
  580W        W72928  17.593  38.511  10.923
  581W        W72929   4.785   7.850   5.286
  582W        W72930   0.470   1.732   4.299
  583W        W72931  37.429   4.934  14.852
  584W        W72932  33.035   4.843   2.388
  585W        W72933  13.724  42.376  12.393
  586W        W72934  39.515   2.440   2.662
  587W        W72935  31.586   8.171   5.225
  588W        W72936  26.021   1.457  12.937
  589W        W72937  11.858  27.455  11.588
  590W        W72938  33.943  34.046  10.449
  591W        W72939  34.997  44.965  11.431
  592W        W72940   8.295  37.994   3.831
  593W        W72941  18.180   4.741   1.258
  594W        W72942  38.420  42.933   5.195
  595W        W72943   9.209   1.404  12.886
  596W        W72944  31.562  40.381  14.446
  597W        W72945  38.916  28.981   1.340
  598W        W72946  11.852   6.185   2.811
  599W        W72947  34.896  35.929   4.352
  600W        W72948   7.345  43.852   1.214
  601W        W72949   1.818  25.691   3.176
  602W        W72950   4.779  27.093   2.852
  603W        W72951  32.101  32.957   1.295
  604W        W72952  37.885  29.451   2.684
  605W        W72953  10.345   9.889  10.981
  606W        W72954  38.444  33.413  13.854
  607W        W72955  34.376  31.493   3.822
  608W        W72956  18.257  12.725   2.677
  609W        W72957   9.240  28.556   3.158
  610W        W72958  35.544  32.444  14.449
  611W        W72959   4.748  27.549  11.453
  612W        W72960  43.765  10.782   3.337
  613W        W72961  32.534  39.383   4.798
  614W        W72962  12.348  34.909  13.962
  615W        W72963  35.907  39.976   0.915
  616W        W72964  34.504   2.829   2.207
  617W        W72965   6.316   7.867   3.357
  618W        W72966  43.512  37.490  11.078
  619W        W72967   3.284   1.445  10.644
  620W        W72968  38.826  36.885  12.995
  621W        W72969  38.509  28.097   0.750
  622W        W72970  23.515   1.778   3.147
  623W        W72971  25.197   6.686   3.777
  624W        W72972   7.258  11.799  11.060
  625W        W72973  13.732  20.239  11.877
  626W        W72974  42.428  13.154  13.532
  627W        W72975   9.298  16.624  14.497
  628W        W72976  22.555   8.665  10.970
  629W        W72977  12.790  14.310  12.954
  630W        W72978   0.968   7.753  14.944
  631W        W72979   4.324  29.615  11.482
  632W        W72980   1.309  31.620   4.786
  633W        W72981  10.245  44.007   0.391
  634W        W72982  35.552  34.110  11.603
  635W        W72983  13.786  42.030  11.505
  636W        W72984  30.608  27.634   0.913
  637W        W72985  21.728  28.114  10.440
  638W        W72986  11.185  11.180  11.064
  639W        W72987  16.077  25.989   4.305
  640W        W72988  14.688  26.524   0.756
  641W        W72989  21.534  39.428   0.726
  642W        W72990  31.905   7.753   3.681
  643W        W72991  13.167  41.897  11.066
  644W        W72992  42.816  13.346  11.994
  645W        W72993  10.704   9.302  11.521
  646W        W72994   8.398  33.092  13.538
  647W        W72995  24.992  20.083   1.269
  648W        W72996  35.009  25.188  10.899
  649W        W72997  20.091   7.305   2.748
  650W        W72998  38.832   3.279  11.877
  651W        W72999  24.507   5.195  10.468
  652W        W73000  35.440  23.179  11.087
  653W        W73001  32.111   6.276  10.528
  654W        W73002  34.402  27.991   0.916
  655W        W73003  27.145  41.791  12.551
  656W        W73004  22.044  35.412   2.762
  657W        W73005  32.079  37.525   3.309
  658W        W73006  18.254  24.623  10.940
  659W        W73007  28.032  10.356  13.359
  660W        W73008  35.508   9.803   2.790
  661W        W73009  10.837  22.718  10.112
  662W        W73010   0.871  30.957  11.031
  663W        W73011  13.636  31.439   3.662
  664W        W73012  37.914  38.380   4.212
  665W        W73013   6.268   3.454  11.487
  666W        W73014  36.922  26.550   1.365
  667W        W73015  10.716   8.793   3.836
  668W        W73016   8.236  41.871   4.339
  669W        W73017  31.044  11.799  11.033
  670W        W73018  10.800  24.601  11.412
  671W        W73019   7.236  26.048  11.917
  672W        W73020  31.120  28.549   3.290
  673W        W73021  39.912  33.406  11.008
  674W        W73022  44.971  16.250  13.412
  675W        W73023   3.262  29.967   1.223
  676W        W73024  28.084   1.271  13.897
  677W        W73025  30.549  29.097   0.447
  678W        W73026  28.942  20.106   2.275
  679W        W73027   3.310  35.994  10.061
  680W        W73028  37.013  27.532   3.178
  681W        W73029  26.693   5.238   0.812
  682W        W73030  31.473  18.780   4.151
  683W        W73031  41.358  25.066   4.805
  684W        W73032  38.973  38.475  11.909
  685W        W73033  17.158  35.559   4.115
  686W        W73034  39.995  10.377   4.654
  687W        W73035  42.824  11.824  12.508
  688W        W73036  13.291  31.153  12.441
  689W        W73037   8.839  42.983  11.100
  690W        W73038  36.510  38.448  13.540
  691W        W73039  17.110  44.919   2.182
  692W        W73040  27.660  39.428   4.603
  693W        W73041  20.152  22.032   4.291
  694W        W73042   7.380  10.855  12.866
  695W        W73043   0.969  39.873   1.884
  696W        W73044  36.005   4.725  12.516
  697W        W73045  36.847  18.055  14.955
  698W        W73046  12.642   0.297  12.073
  699W        W73047  41.516  18.248  11.943
  700W        W73048  17.206  27.656   2.371
  701W        W73049  37.975  37.013   2.671
  702W        W73050  40.907  28.115  14.444
  703W        W73051   3.864  18.059   5.085
  704W        W73052  25.022  27.533   4.349
  705W        W73053  17.785  23.132   2.754
  706W        W73054  19.614  10.766   0.275
  707W        W73055  32.535   8.221   0.448
  708W        W73056  26.041  19.640  13.395
  709W        W73057  28.676  16.106  11.445
  710W        W73058  11.271  40.856  11.997
  711W        W73059  21.650  39.884  12.355
  712W        W73060  39.530  36.525  11.557
  713W        W73061  13.153  18.692   2.383
  714W        W73062  14.190  28.539  11.006
  715W        W73063  29.986  35.476   0.854
  716W        W73064   2.883  22.222   0.894
  717W        W73065  11.674  29.144  12.059
  718W        W73066  39.365  16.741  12.986
  719W        W73067  37.071   7.753   1.921
  720W        W73068   9.647  30.633   2.225
  721W        W73069  18.590  23.219   0.483
  722W        W73070  15.122   5.807  14.862
  723W        W73071  23.674  10.762  11.127
  724W        W73072   4.350  11.328   2.733
  725W        W73073   6.425   7.176   2.343
  726W        W73074  44.934  39.534   4.699
  727W        W73075   1.750  43.437  10.906
  728W        W73076   2.769  34.977  13.533
  729W        W73077  18.580  36.470  11.560
  730W        W73078  23.180  17.226   1.887
  731W        W73079  40.808  22.213   1.358
  732W        W73080  26.184  36.852   3.368
  733W        W73081  19.723  33.392  14.956
  734W        W73082  44.411  40.857  12.971
  735W        W73083   0.306   9.267   2.756
  736W        W73084  29.451  25.126   1.816
  737W        W73085  25.540  39.061   2.798
  738W        W73086  24.112  40.303   4.817
  739W        W73087  16.609   6.793   1.351
  740W        W73088  17.213  12.119   2.878
  741W        W73089   7.272  30.154  12.526
  742W        W73090  10.238  39.453   4.273
  743W        W73091  33.460  23.646  14.277
  744W        W73092   6.774  27.086  10.464
  745W        W73093  17.790  26.097   0.876
  746W        W73094  34.587  27.524   2.183
  747W        W73095  10.640  44.883  14.824
  748W        W73096   7.849   9.162  13.383
  749W        W73097  44.770   7.392  14.022
  750W        W73098  39.855  11.675   3.661
  751W        W73099   7.371  32.637  13.830
  752W        W73100  35.471  24.544  11.944
  753W        W73101  23.193  31.154   2.896
  754W        W73102  19.770   8.826  11.972
  755W        W73103  33.129  31.612   4.196
  756W        W73104  14.266  42.810   9.998
  757W        W73105  36.463   8.817   3.784
  758W        W73106  21.199  24.509  14.383
  759W        W73107   8.341  19.744  12.998
  760W        W73108  25.623  35.035  11.592
  761W        W73109  23.116  39.521  13.421
  762W        W73110  32.998   2.352   3.664
  763W        W73111  42.026  19.678  14.803
  764W        W73112   0.866  38.458  12.533
  765W        W73113   1.259   2.884   2.363
  766W        W73114  23.011  22.102   1.267
  767W        W73115  26.179  17.286  14.010
  768W        W73116  15.701  10.238  13.980
  769W        W73117  25.998  18.621   1.375
  770W        W73118  43.406  22.079  10.487
  771W        W73119   4.372  39.373  10.493
  772W        W73120  28.594   0.365   4.624
  773W        W73121  13.128  25.074   5.100
  774W        W73122  16.286   0.975  11.047
  775W        W73123  24.074  21.715   0.954
  776W        W73124  33.960  20.677  13.366
  777W        W73125   6.216  22.115   3.260
  778W        W73126  28.510  20.261  12.531
  779W        W73127  24.501  13.147  11.869
  780W        W73128  27.961   8.847  13.448
  781W        W73129  43.335  32.438   3.284
  782W        W73130  10.801  26.593  14.407
  783W        W73131  19.253   3.868   3.281
  784W        W73132  18.081   8.381  12.049
  785W        W73133   7.307  23.622  13.009
  786W        W73134  38.825  23.498   0.731
  787W        W73135   4.843  43.777  11.017
  788W        W73136  19.123   9.670  10.515
  789W        W73137   1.923  27.058   3.207
  790W        W73138  21.172  36.592   5.122
  791W        W73139  21.604  14.657  11.940
  792W        W73140  12.791   5.426  11.610
  793W        W73141  17.112  28.001  14.865
  794W        W73142  15.228   0.274   2.737
  795W        W73143  39.881   5.786   3.229
  796W        W73144  14.763  42.994   2.772
  797W        W73145  23.542   9.846  13.477
  798W        W73146   3.385  13.306  13.900
  799W        W73147  13.608   9.750  14.389
  800W        W73148  10.236  17.584   1.812
  801W        W73149  33.925   9.182  12.980
  802W        W73150  12.313  26.692   4.122
  803W        W73151  41.000   5.805   4.272
  804W        W73152  31.459  26.972  12.839
  805W        W73153   0.880  33.622   1.754
  806W        W73154  36.091   2.341  11.420
  807W        W73155  39.027  21.573   2.728
  808W        W73156  44.975  16.782  13.416
  809W        W73157  24.044  23.185  12.532
  810W        W73158  20.110  24.665  11.102
  811W        W73159  37.936  41.497   2.411
  812W        W73160  12.714  29.560   3.639
  813W        W73161  25.685  31.120  11.013
  814W        W73162  26.179   4.264  14.848
  815W        W73163   4.206  20.695   2.326
  816W        W73164  22.598  35.021  12.972
  817W        W73165  41.427  18.602   2.826
  818W        W73166  24.075  42.840  10.147
  819W        W73167  33.092   6.692   3.717
  820W        W73168  26.151  30.130  11.505
  821W        W73169  20.165   6.349   3.195
  822W        W73170   2.418  42.453   3.151
  823W        W73171  17.747  31.022   4.310
  824W        W73172   0.346   7.410   4.637
  825W        W73173  23.053   2.734  13.851
  826W        W73174  39.368  43.390  13.997
  827W        W73175  38.335  13.644   1.887
  828W        W73176   4.450   4.424   1.326
  829W        W73177  34.095   4.220   3.709
  830W        W73178  16.710   0.409   1.822
  831W        W73179  29.651  18.108  14.802
  832W        W73180  19.152  28.042  12.365
  833W        W73181  17.238  13.831  10.463
  834W        W73182  15.155   5.890   4.257
  835W        W73183  35.482  38.352  10.603
  836W        W73184  22.220  26.684   4.647
  837W        W73185  16.681  16.766   3.223
  838W        W73186  15.695  12.347   4.134
  839W        W73187  37.345  33.578  14.797
  840W        W73188  32.571  23.032   0.429
  841W        W73189  31.528  29.556  10.974
  842W        W73190  33.906  18.559   1.726
  843W        W73191  13.638  27.053   3.169
  844W        W73192  41.494  36.926   2.841
  845W        W73193   4.900  33.910  11.889
  846W        W73194  24.040  21.716   0.305
  847W        W73195  22.745   1.411  11.409
  848W        W73196  25.097   7.386  12.921
  849W        W73197   2.875  39.866   3.661
  850W        W73198   8.717  22.227   5.250
  851W        W73199  29.523  40.384  13.931
  852W        W73200  17.063  11.739  11.856
  853W        W73201  12.279  13.809   4.779
  854W        W73202  11.801  32.483   1.710
  855W        W73203  13.121  29.595   4.134
  856W        W73204   9.651  10.867   0.290
  857W        W73205  35.032  15.696   0.394
  858W        W73206  23.152  11.218  13.459
  859W        W73207  10.811  29.113  14.844
  860W        W73208   8.818  22.165  12.884
  861W        W73209  39.855  19.730   4.826
  862W        W73210   0.314  21.584  10.909
  863W        W73211  17.170  22.178   3.649
  864W        W73212  18.598  39.820  11.061
  865W        W73213  20.119  15.799  10.098
  866W        W73214  38.966  20.154   1.295
  867W        W73215   1.342  12.721   4.769
  868W        W73216  30.925   7.807  13.322
  869W        W73217  20.656   4.231   0.292
  870W        W73218  17.240   9.220  14.773
  871W        W73219   7.389  30.453   3.357
  872W        W73220  34.961  14.324  10.482
  873W        W73221  21.511  19.131  10.578
  874W        W73222   4.334  19.200  13.905
  875W        W73223  33.599  35.042  10.444
  876W        W73224  37.384  37.342   3.212
  877W        W73225  10.138  19.535  14.969
  878W        W73226  29.119   6.266  13.527
  879W        W73227   4.704  25.516   1.850
  880W        W73228  11.656  16.776  12.089
  881W        W73229  42.880  24.998  12.964
  882W        W73230  21.154  28.573   3.820
  883W        W73231  35.950   1.387   3.695
  884W        W73232  18.215  39.336  12.989
  885W        W73233  27.519  25.979   0.801
  886W        W73234  10.265   5.709  14.793
  887W        W73235  31.970  25.709  12.432
  888W        W73236  36.045  42.945   1.399
  889W        W73237  23.519   5.299  11.082
  890W        W73238  32.449  37.916   2.235
  891W        W73239  14.164  13.837   0.855
  892W        W73240  39.558  14.688  14.507
  893W        W73241  37.461   1.308   1.920
  894W        W73242  31.054  20.659  11.907
  895W        W73243  22.706   5.232  14.920
  896W        W73244  20.761   7.882  12.428
  897W        W73245  23.053  30.473   4.759
  898W        W73246  42.471  39.872  13.037
  899W        W73247  14.283  40.370  11.074
  900W        W73248  34.576  26.689  14.466
  901W        W73249  19.092  37.931   1.282
  902W        W73250  32.991  20.576  14.478
  903W        W73251  33.587  23.183  13.892
  904W        W73252  31.647  37.503   4.668
  905W        W73253   7.895  22.553   1.820
  906W        W73254  30.986  19.242   1.853
  907W        W73255  39.375  28.079  12.363
  908W        W73256  42.879  27.063  14.504
  909W        W73257  24.490   3.365  12.848
  910W        W73258   3.791  40.982   2.183
  911W        W73259  14.710   0.307   4.623
  912W        W73260  36.498   8.166  14.458
  913W        W73261   1.962  17.631  14.800
  914W        W73262  35.586  39.848   3.781
  915W        W73263  15.807  37.507   5.109
  916W        W73264   5.426  41.390   4.231
  917W        W73265  23.654  26.687  13.540
  918W        W73266  36.545  11.862  10.066
  919W        W73267  19.166  36.577  14.883
  920W        W73268  38.374  34.989  10.576
  921W        W73269  15.624  44.945  13.027
  922W        W73270  34.033  24.053  11.473
  923W        W73271   1.336  25.052  10.463
  924W        W73272  23.157  43.844   0.857
  925W        W73273  19.069   7.202   1.741
  926W        W73274  24.559  41.475   3.328
  927W        W73275   0.457  21.262   1.852
  928W        W73276  41.884  40.834   3.351
  929W        W73277  14.214  17.781   4.345
  930W        W73278   7.295  35.574   3.688
  931W        W73279  14.279  38.025   1.720
  932W        W73280  27.544  36.465   2.882
  933W        W73281  10.802   5.407   3.256
  934W        W73282  33.582  15.180  12.897
  935W        W73283  15.309  18.232   1.749
  936W        W73284  27.592   7.882  10.916
  937W        W73285   8.773   7.276  14.282
  938W        W73286  19.070  30.990  13.020
  939W        W73287   9.887  42.902   4.654
  940W        W73288  23.062   9.353   0.302
  941W        W73289  13.611  38.828   0.896
  942W        W73290   6.825   3.398  11.902
  943W        W73291  13.182  18.695   5.206
  944W        W73292  42.897  31.904   1.280
  945W        W73293  39.859  15.763  13.340
  946W        W73294   4.389  30.087  14.379
  947W        W73295  24.185  16.074  14.915
  948W        W73296  33.099  44.806  13.520
  949W        W73297  34.435  41.366  12.370
  950W        W73298  23.154   1.747  13.929
  951W        W73299   4.885  16.785   0.282
  952W        W73300  18.679  38.504   3.221
  953W        W73301   9.294  18.579   0.832
  954W        W73302  23.222  40.447  14.015
  955W        W73303  21.096   4.339   3.199
  956W        W73304  13.731  16.631   3.329
  957W        W73305  27.493  16.748   4.215
  958W        W73306   3.347  32.445   0.316
  959W        W73307   6.887  21.239   5.307
  960W        W73308  43.804  32.472   0.420
  961W        W73309  27.683  40.982  10.906
  962W        W73310  23.633  29.057   0.851
  963W        W73311  27.168  26.118  11.005
  964W        W73312   0.845  33.560  10.051
  965W        W73313  12.291  16.172   2.251
  966W        W73314   3.389  32.111  14.788
  967W        W73315  41.455   5.741  10.522
  968W        W73316  33.066  17.607  12.940
  969W        W73317  20.724   7.333  12.026
  970W        W73318   4.238  20.034  11.860
  971W        W73319   0.396   5.761  13.916
  972W        W73320  14.130  21.188   3.210
  973W        W73321  12.633   1.378  10.926
  974W        W73322   3.261  19.112  11.956
  975W        W73323  44.909  15.759   2.764
  976W        W73324  26.060   0.758  11.527
  977W        W73325  12.793  15.157   0.316
  978W        W73326  37.553  11.202   4.598
  979W        W73327  23.103  20.156   4.773
  980W        W73328  26.021  15.205  12.085
  981W        W73329  34.483  26.659   4.635
  982W        W73330  10.220  33.504   0.777
  983W        W73331   0.292   4.711   3.293
  984W        W73332  32.061  41.882   2.902
  985W        W73333  15.646   1.936   0.930
  986W        W73334  35.586   4.756  10.501
  987W        W73335  41.316  30.569  14.424
  988W        W73336  20.616  35.876   2.256
  989W        W73337  42.842   3.238  12.969
  990W        W73338  18.729  21.131   0.781
  991W        W73339  34.385  33.878   4.341
  992W        W73340  41.927  37.562  11.949
  993W        W73341  28.636  38.423  14.988
  994W        W73342  28.013  41.521  12.055
  995W        W73343  19.728  33.090   4.292
  996W        W73344  44.816  11.782   4.125
  997W        W73345   4.778  38.437  12.348
  998W        W73346  19.081  16.290   3.357
  999W        W73347  16.720  30.647  11.963
 1000W        W73348  31.528  29.094  14.915
 1001W        W73349  36.061  17.756  12.388
 1002W        W73350  33.598  10.797  13.812
 1003W        W73351  13.107  20.555   4.140
 1004W        W73352  33.570  43.017  10.157
 1005W        W73353   9.314  36.467  11.434
 1006W        W73354   7.272  14.710   0.367
 1007W        W73355   1.834  30.085  14.391
 1008W        W73356  22.159  35.411   1.855
 1009W        W73357  19.558  22.032   4.709
 1010W        W73358  15.582  18.782   2.839
 1011W        W73359  24.055   3.734  11.587
 1012W        W73360  39.492   2.406  13.909
 1013W        W73361   8.252  44.399   2.230
 1014W        W73362  13.122  41.500  11.491
 1015W        W73363  32.937  34.594   4.298
 1016W        W73364  37.000  32.890  11.501
 1017W        W73365  33.989  12.800   0.854
 1018W        W73366  12.753  23.231  13.890
 1019W        W73367   3.894  34.909  12.572
 1020W        W73368  36.348  22.679  12.911
 1021W        W73369   1.256  40.443   4.284
 1022W        W73370   1.477  28.179  12.434
 1023W        W73371  17.147  43.989   2.241
 1024W        W73372  42.355  27.028   3.213
 1025W        W73373  23.002  10.138  13.976
 1026W        W73374   3.840  23.120   2.259
 1027W        W73375  38.839  10.807  13.808
 1028W        W73376   4.326  28.075  10.633
 1029W        W73377  32.065  37.551   2.798
 1030W        W73378  22.186  38.421   2.675
 1031W        W73379  11.255  12.317   3.802
 1032W        W73380  37.369  44.006   3.321
 1033W        W73381  11.648  29.174  13.867
 1034W        W73382  40.328   3.804   0.393
 1035W        W73383  35.564   3.729  12.979
 1036W        W73384  38.546   9.860  13.016
 1037W        W73385  26.560   4.785  11.501
 1038W        W73386  12.618  36.520   0.737
 1039W        W73387  31.067  26.574   3.719
 1040W        W73388   5.764  21.141   1.338
 1041W        W73389   0.254  28.613   3.381
 1042W        W73390  33.548  26.691  10.525
 1043W        W73391  17.687  30.022   1.907
 1044W        W73392  44.331   5.281  10.080
 1045W        W73393   3.412  37.399  11.475
 1046W        W73394  17.103  16.750   4.330
 1047W        W73395  28.628  44.265  10.010
 1048W        W73396  40.033  24.517   0.462
 1049W        W73397  33.435  12.654   2.364
 1050W        W73398  37.483  27.124   0.444
 1051W        W73399   5.361  36.842   1.798
 1052W        W73400  14.748  29.073  10.508
 1053W        W73401   2.880  17.155  14.312
 1054W        W73402   5.860   6.406  10.982
 1055W        W73403   1.916   3.894  12.833
 1056W        W73404  25.195  18.704  13.965
 1057W        W73405  13.121  33.565  11.968
 1058W        W73406  14.245  14.239  14.951
 1059W        W73407  31.420  11.675   4.316
 1060W        W73408   2.229  17.146   3.812
 1061W        W73409  23.126  40.335   3.271
 1062W        W73410   6.408  10.228   3.319
 1063W        W73411   9.763  25.179  11.083
 1064W        W73412  10.759  31.582  13.385
 1065W        W73413  18.686   3.378  10.027
 1066W        W73414  11.775  34.008   0.879
 1067W        W73415   1.310  21.727  14.857
 1068W        W73416   8.669  34.599   2.393
 1069W        W73417  42.810  32.569  12.895
 1070W        W73418   2.799  40.303  14.356
 1071W        W73419  21.635  19.097  11.606
 1072W        W73420  22.093  28.079  14.315
 1073W        W73421  11.153  26.032  11.469
 1074W        W73422  30.617  24.492  10.908
 1075W        W73423  37.057  17.682   1.264
 1076W        W73424   9.176  24.081   3.717
 1077W        W73425   7.680  43.367  13.490
 1078W        W73426   1.796  25.965  14.923
 1079W        W73427  37.451   0.411   2.257
 1080W        W73428  13.195   2.353  14.402
 1081W        W73429  43.365   6.391   9.990
 1082W        W73430   0.769  25.572   2.201
 1083W        W73431   8.319  36.423  14.996
 1084W        W73432  11.788  43.373  10.594
 1085W        W73433  10.156   7.381  11.100
 1086W        W73434  38.031  42.331  10.414
 1087W        W73435  36.912  36.090   0.454
 1088W        W73436  12.834   6.730   4.747
 1089W        W73437  18.693  35.506  11.893
 1090W        W73438  36.954  25.187  12.407
 1091W        W73439  11.366   9.353   1.254
 1092W        W73440  17.729  16.084  14.510
 1093W        W73441  12.749   4.786   1.369
 1094W        W73442  31.547  10.784  13.011
 1095W        W73443  15.804  27.116   0.254
 1096W        W73444  11.623  24.556   4.697
 1097W        W73445  16.625  24.076  12.571
 1098W        W73446  26.590  23.063   2.187
 1099W        W73447   7.368  29.428  13.848
 1100W        W73448  16.086   5.762   3.375
 1101W        W73449  41.993  36.974   4.633
 1102W        W73450  36.590  39.340   2.671
 1103W        W73451  29.010  40.814  12.018
 1104W        W73452   7.311  16.654   1.703
 1105W        W73453  25.162  30.636  11.017
 1106W        W73454  20.073  15.227   3.211
 1107W        W73455  20.538  39.910  11.468
 1108W        W73456  13.290  26.474   4.837
 1109W        W73457  30.083   7.204  13.899
 1110W        W73458   2.450   3.261   0.810
 1111W        W73459  16.184  32.608  11.982
 1112W        W73460   7.282  12.269  13.886
 1113W        W73461  17.720   1.254   1.694
 1114W        W73462  10.665   6.724  12.089
 1115W        W73463  39.941  31.940   2.728
 1116W        W73464  24.697  26.188   1.754
 1117W        W73465   6.315  33.881   4.668
 1118W        W73466  20.541   6.418   1.431
 1119W        W73467  17.181  25.190   1.707
 1120W        W73468  10.641  20.156  14.987
 1121W        W73469  19.118  24.082   2.754
 1122W        W73470  38.914   7.836  14.838
 1123W        W73471  43.329  24.576  11.562
 1124W        W73472  39.013  37.877  14.437
 1125W        W73473  32.098  12.648   3.747
 1126W        W73474  23.616   0.932   1.318
 1127W        W73475  32.042  37.479  12.853
 1128W        W73476   5.335  32.390  14.315
 1129W        W73477  44.418  24.008  11.591
 1130W        W73478   2.236  11.824  13.431
 1131W        W73479  40.041  33.962  13.419
 1132W        W73480  44.462   5.356   3.688
 1133W        W73481  24.074  37.526  14.479
 1134W        W73482  33.556  31.989   1.736
 1135W        W73483   9.192  35.506   2.733
 1136W        W73484  13.273  28.984   5.215
 1137W        W73485  14.259  33.464   2.279
 1138W        W73486  19.120  26.626   4.616
 1139W        W73487  11.174  34.399  13.916
 1140W        W73488  18.746  42.954   5.288
 1141W        W73489  25.694  43.870   4.653
 1142W        W73490   6.739   7.208  10.955
 1143W        W73491   9.890   5.194  13.535
 1144W        W73492  22.501   7.326  11.103
 1145W        W73493  31.103   4.449  14.861
 1146W        W73494  27.957  31.900   0.877
 1147W        W73495  13.619  16.213  10.953
 1148W        W73496  28.067  29.526  10.623
 1149W        W73497  39.397  10.250  14.862
 1150W        W73498  38.552  39.392  12.472
 1151W        W73499  20.169  10.201  11.870
 1152W        W73500  16.749  29.054   1.896
 1153W        W73501  28.101  28.483  12.505
 1154W        W73502  26.051  10.661  12.060
 1155W        W73503  39.389  22.223  13.483
 1156W        W73504   3.844   3.734   3.304
 1157W        W73505   8.187  32.136   1.871
 1158W        W73506  30.944  13.266   4.630
 1159W        W73507  37.852   3.933  14.890
 1160W        W73508  33.613  35.921  10.111
 1161W        W73509  39.447  36.043   3.687
 1162W        W73510  40.865  22.107   4.218
 1163W        W73511  23.621  29.510   1.738
 1164W        W73512   9.743  43.919  13.853
 1165W        W73513  13.273  33.617  10.109
 1166W        W73514   1.333   7.772   4.301
 1167W        W73515  24.091  35.416  12.916
 1168W        W73516  33.874  14.635  11.551
 1169W        W73517   0.945  18.213   0.895
 1170W        W73518  42.882   0.470   4.835
 1171W        W73519   3.388  39.873  14.924
 1172W        W73520  37.409   1.247  13.048
 1173W        W73521  25.066  24.053  12.953
 1174W        W73522  13.261  26.562   1.923
 1175W        W73523  16.586  11.305   1.694
 1176W        W73524  25.522   3.906  13.976
 1177W        W73525  28.598  41.341  10.979
 1178W        W73526  17.115  30.139   5.703
 1179W        W73527   7.698  37.528   1.448
 1180W        W73528  26.098   8.671   4.764
 1181W        W73529  23.695   5.429   4.302
 1182W        W73530   8.359  39.878  13.840
 1183W        W73531  32.027   4.748  11.869
 1184W        W73532  27.692  11.824  12.356
 1185W        W73533   7.247  18.729  12.044
 1186W        W73534  41.838  27.079   2.809
 1187W        W73535  10.650  13.157  14.838
 1188W        W73536  36.360  20.073  12.884
 1189W        W73537  42.012  25.092   0.923
 1190W        W73538   2.793  40.821   3.868
 1191W        W73539  34.461   9.159   2.384
 1192W        W73540   2.805  42.920   2.331
 1193W        W73541  35.491  36.953  11.494
 1194W        W73542  37.466  27.135   4.308
 1195W        W73543  19.563   3.771   1.258
 1196W        W73544   3.371   1.254  14.342
 1197W        W73545  42.812   6.265  12.381
 1198W        W73546  32.081  13.822   3.699
 1199W        W73547  15.204  17.107   4.327
 1200W        W73548  31.020  29.452  14.891
 1201W        W73549  39.445  17.194   3.192
 1202W        W73550  38.027   3.776  12.342
 1203W        W73551  44.803  41.802   2.665
 1204W        W73552  17.802  27.470   2.330
 1205W        W73553  25.057  13.724  13.015
 1206W        W73554  37.058   0.281  10.597
 1207W        W73555   1.886  30.602   2.255
 1208W        W73556  29.011  20.054  11.033
 1209W        W73557  25.205  11.764  10.916
 1210W        W73558  38.920  42.824  12.052
 1211W        W73559  12.697  18.577   2.409
 1212W        W73560   4.385  13.810  13.931
 1213W        W73561  34.896  14.167   0.418
 1214W        W73562  41.489  40.348  13.532
 1215W        W73563  33.459  28.668   3.632
 1216W        W73564   7.352  18.619  11.048
 1217W        W73565  20.142  40.348  13.526
 1218W        W73566  26.000   4.286  13.350
 1219W        W73567  38.038  23.030  11.462
 1220W        W73568  28.453   0.869  12.904
 1221W        W73569  29.608   7.851  11.456
 1222W        W73570   8.741   2.433   1.835
 1223W        W73571  25.608  42.460  12.927
 1224W        W73572  23.497  28.150   4.182
 1225W        W73573  31.446  16.585   1.921
 1226W        W73574   0.944  20.560   3.808
 1227W        W73575   1.293  12.165  13.846
 1228W        W73576  25.059  36.056  14.984
 1229W        W73577  26.026  15.627  13.827
 1230W        W73578  13.206  43.849   1.320
 1231W        W73579  23.158  23.067  11.567
 1232W        W73580   3.270   5.375  11.522
 1233W        W73581   6.240   2.879   0.851
 1234W        W73582  33.525  37.939   3.259
 1235W        W73583  32.463  20.257   1.787
 1236W        W73584  18.281  26.984  13.544
 1237W        W73585  32.562  14.322   4.285
 1238W        W73586  43.939  24.157   2.208
 1239W        W73587  13.155   7.395   0.928
 1240W        W73588   4.791  37.990  14.831
 1241W        W73589  36.578   4.238  14.446
 1242W        W73590  42.012  36.420  11.951
 1243W        W73591   0.252  42.948  11.518
 1244W        W73592  42.378  34.037  14.413
 1245W        W73593  31.549  37.995   3.759
 1246W        W73594  21.203  28.083  12.964
 1247W        W73595   6.690  39.384  12.480
 1248W        W73596  38.822  39.516   3.725
 1249W        W73597  39.314  10.855  11.100
 1250W        W73598  22.743  23.116   1.825
 1251W        W73599  24.720  10.782  10.999
 1252W        W73600  35.999   2.312  14.947
 1253W        W73601  22.243  40.532  11.109
 1254W        W73602  18.121  19.228   4.708
 1255W        W73603  13.669  28.450  12.017
 1256W        W73604  15.653  28.537  13.444
 1257W        W73605  30.055  12.747   0.446
 1258W        W73606   2.912  33.943  11.114
 1259W        W73607  37.033  11.128  10.943
 1260W        W73608  24.636  13.340  13.966
 1261W        W73609   8.260   0.963   2.861
 1262W        W73610  38.570   4.277  10.495
 1263W        W73611   3.251  26.607  13.920
 1264W        W73612  24.021  15.106   4.695
 1265W        W73613  34.961  39.976  11.118
 1266W        W73614  25.078   4.391  11.481
 1267W        W73615  30.147   9.344   2.732
 1268W        W73616   5.301  12.258   0.324
 1269W        W73617  44.316  26.120   2.370
 1270W        W73618  30.552   4.307   0.336
 1271W        W73619  15.751  40.025   2.867
 1272W        W73620  27.470  13.317  14.841
 1273W        W73621  43.494  12.342  10.945
 1274W        W73622  28.582  40.500   3.815
 1275W        W73623  20.578  11.703   1.215
 1276W        W73624  32.967   7.741   3.269
 1277W        W73625  27.066  38.345   4.802
 1278W        W73626  27.458   8.887   3.331
 1279W        W73627   8.269  20.044   0.445
 1280W        W73628   8.766  10.815  10.606
 1281W        W73629  25.095  29.534  14.021
 1282W        W73630  39.852   4.402   3.233
 1283W        W73631  29.926  30.002   4.784
 1284W        W73632  14.650   3.298   5.292
 1285W        W73633   2.907  12.802   3.749
 1286W        W73634  29.475   5.318  12.454
 1287W        W73635   7.234  32.006  13.816
 1288W        W73636   6.711  43.892  13.890
 1289W        W73637  27.165  22.692   0.298
 1290W        W73638   8.244  42.287   1.892
 1291W        W73639  24.712  44.363   1.755
 1292W        W73640  18.161  30.603  11.878
 1293W        W73641   6.400  12.358   3.680
 1294W        W73642   8.218  12.690   3.300
 1295W        W73643  22.612  30.651   1.378
 1296W        W73644  37.541  25.975   3.373
 1297W        W73645   3.412  37.430   3.357
 1298W        W73646   9.365  35.564  10.512
 1299W        W73647   5.281  30.521   4.353
 1300W        W73648   8.235   4.331  14.024
 1301W        W73649  25.608  16.693  13.487
 1302W        W73650   7.688   5.880  14.444
 1303W        W73651   3.953   6.415  14.878
 1304W        W73652   7.320  32.437  11.073
 1305W        W73653  22.088  11.211  12.917
 1306W        W73654   2.445  10.335  11.977
 1307W        W73655   4.723  17.671  11.948
 1308W        W73656  44.482   2.947   1.735
 1309W        W73657   2.773   2.317   4.717
 1310W        W73658  23.656  42.970  11.596
 1311W        W73659  20.636  26.032   4.178
 1312W        W73660  18.710  31.010   3.825
 1313W        W73661  38.039  24.181  11.564
 1314W        W73662  20.662  19.227   3.267
 1315W        W73663  41.372  35.583   2.190
 1316W        W73664  37.547  18.266  13.428
 1317W        W73665   7.316  10.632   2.691
 1318W        W73666  22.121  19.241   1.399
 1319W        W73667  21.214   6.792   4.736
 1320W        W73668  21.102   6.362   0.338
 1321W        W73669   0.296  32.038   1.429
 1322W        W73670   1.339  30.937  12.561
 1323W        W73671  28.638   8.304  11.594
 1324W        W73672  35.102  29.001   4.340
 1325W        W73673  42.849  26.060   3.325
 1326W        W73674  29.074  12.669  12.022
 1327W        W73675   6.238  20.594  13.375
 1328W        W73676  41.373  29.449  12.823
 1329W        W73677  33.038  31.998  11.521
 1330W        W73678   3.952  18.745   4.635
 1331W        W73679  25.017  31.478  13.034
 1332W        W73680   3.448   2.760  11.980
 1333W        W73681  30.944  26.069  12.537
 1334W        W73682  27.150  19.591   4.164
 1335W        W73683   2.229   1.810   2.864
 1336W        W73684  24.095  32.963   3.817
 1337W        W73685   9.885   2.398   1.859
 1338W        W73686  24.675  42.519   0.814
 1339W        W73687  40.432  22.031  14.489
 1340W        W73688  28.171  39.393   3.384
 1341W        W73689  27.105  23.138  12.505
 1342W        W73690  42.393  44.322   4.711
 1343W        W73691  29.472  38.530  11.402
 1344W        W73692   5.930  12.243   0.755
 1345W        W73693   4.798   9.742  14.478
 1346W        W73694  11.220  18.212   1.409
 1347W        W73695  20.258  41.018   2.214
 1348W        W73696  21.204  21.024  10.887
 1349W        W73697  32.072  39.533  14.818
 1350W        W73698  22.683  34.976   3.269
 1351W        W73699  33.432  40.033  14.350
 1352W        W73700  18.107  19.687  10.918
 1353W        W73701   7.359  35.558   2.685
 1354W        W73702   2.464  33.452   2.257
 1355W        W73703  23.562  21.538   3.696
 1356W        W73704  17.608  42.786  11.878
 1357W        W73705  21.183  16.762  10.143
 1358W        W73706  26.066  33.448  12.478
 1359W        W73707  28.107  41.407   0.852
 1360W        W73708   4.235  43.315   4.144
 1361W        W73709  25.010  25.986   1.244
 1362W        W73710  12.249  20.207   4.312
 1363W        W73711  13.194  10.737   2.234
 1364W        W73712  19.212  18.711  12.540
 1365W        W73713  17.115  23.133  14.323
 1366W        W73714  35.373  33.608   0.801
 1367W        W73715  26.056  29.168  10.946
 1368W        W73716   6.692  31.417  13.418
 1369W        W73717  11.247  17.734  14.382
 1370W        W73718  32.521   7.778  12.540
 1371W        W73719  35.364  37.971   2.214
 1372W        W73720   5.227  35.523   2.673
 1373W        W73721  41.523  27.676  14.847
 1374W        W73722   9.296  17.680   2.216
 1375W        W73723  13.670  35.094  12.501
 1376W        W73724  11.658  40.513  14.776
 1377W        W73725  41.326  37.538   2.304
 1378W        W73726  38.408  15.180   4.656
 1379W        W73727  19.765  28.639  14.293
 1380W        W73728  17.109  35.092  10.027
 1381W        W73729   5.915  39.920  11.505
 1382W        W73730  36.573  29.168   4.269
 1383W        W73731   6.406  41.986   0.815
 1384W        W73732  38.991   7.337   1.449
 1385W        W73733  29.561  17.564  13.887
 1386W        W73734  36.401  11.181  13.857
 1387W        W73735  29.542  43.509   0.335
 1388W        W73736  41.903  30.924   4.752
 1389W        W73737  36.089   0.954  12.922
 1390W        W73738  18.196  23.231  14.882
 1391W        W73739  15.228  16.766   1.365
 1392W        W73740  12.746  18.772  12.019
 1393W        W73741  41.930   8.299  11.883
 1394W        W73742  19.646  15.724   2.901
 1395W        W73743   2.354  18.707   5.247
 1396W        W73744  27.568  31.500   4.770
 1397W        W73745   1.765  36.900  13.046
 1398W        W73746  43.353  20.639   4.699
 1399W        W73747  41.312  29.103   4.820
 1400W        W73748  24.696  19.637   1.860
 1401W        W73749  39.344  26.994   3.831
 1402W        W73750   3.265  31.965  14.447
 1403W        W73751  22.042  21.219   2.265
 1404W        W73752   7.377  36.407  11.433
 1405W        W73753  17.751   2.834   1.261
 1406W        W73754  10.842  19.189   1.896
 1407W        W73755  14.592  21.138   1.774
 1408W        W73756   6.296  44.418   1.886
 1409W        W73757   1.299   2.800   4.714
 1410W        W73758  17.087  14.697   1.873
 1411W        W73759  14.763  36.419  12.859
 1412W        W73760  14.715   3.734  12.948
 1413W        W73761  37.529   4.214  13.383
 1414W        W73762  27.995  22.187  11.458
 1415W        W73763  17.178  20.526  13.359
 1416W        W73764  18.752  36.964  11.029
 1417W        W73765  17.719  21.653  10.945
 1418W        W73766  17.126  40.501  11.859
 1419W        W73767  42.969  39.422   1.878
 1420W        W73768  36.968  23.499  14.409
 1421W        W73769   0.933  34.585  11.126
 1422W        W73770  32.600   9.744   4.118
 1423W        W73771  15.590   4.720   3.232
 1424W        W73772  41.839  11.770  12.458
 1425W        W73773  22.554  44.407   4.327
 1426W        W73774   9.693   0.848   4.829
 1427W        W73775   0.984  38.966  10.605
 1428W        W73776  44.317  12.246   5.278
 1429W        W73777  23.665  39.984  12.472
 1430W        W73778  33.564  20.600   2.806
 1431W        W73779  34.495  43.936   2.247
 1432W        W73780   0.931   3.811   3.158
 1433W        W73781  14.280  34.433   1.219
 1434W        W73782  17.188  34.424   3.305
 1435W        W73783  22.529  31.933  10.068
 1436W        W73784   6.206  16.081  12.829
 1437W        W73785  14.759  44.443  10.572
 1438W        W73786  32.900  35.096   4.696
 1439W        W73787  16.176  15.305   0.766
 1440W        W73788  41.525  25.553   0.897
 1441W        W73789  10.329   5.256   9.560
 1442W        W73790  30.112  23.070   3.194
 1443W        W73791  36.490  29.446   0.290
 1444W        W73792   2.449   1.469   0.409
 1445W        W73793  25.057  35.389   2.339
 1446W        W73794  20.612  31.138  13.941
 1447W        W73795  25.587  31.063  13.409
 1448W        W73796   8.404   5.282  12.575
 1449W        W73797  38.335   4.842  11.587
 1450W        W73798  12.851  25.623   2.371
 1451W        W73799  38.332   4.344  14.495
 1452W        W73800  20.646   6.361  14.489
 1453W        W73801  26.543  41.967   1.785
 1454W        W73802  24.681  37.458   3.386
 1455W        W73803   0.781  27.638  11.543
 1456W        W73804  38.381  20.649   2.812
 1457W        W73805  21.247  34.461   1.317
 1458W        W73806  29.618   2.354   2.713
 1459W        W73807  41.515  17.167  11.124
 1460W        W73808  13.743   0.790   2.876
 1461W        W73809  14.604  41.883  13.426
 1462W        W73810  37.425  35.922  13.987
 1463W        W73811  33.079   3.902  14.440
 1464W        W73812  12.327  33.963  11.489
 1465W        W73813  23.512  42.838   4.780
 1466W        W73814   1.768   8.740  13.528
 1467W        W73815  39.029  33.907   4.665
 1468W        W73816   2.831  26.957   4.320
 1469W        W73817  44.879  19.123  14.931
 1470W        W73818   9.806  42.411   4.740
 1471W        W73819  19.623  37.001  11.003
 1472W        W73820   0.914   3.460   0.329
 1473W        W73821  42.971  30.639  12.997
 1474W        W73822  36.962  19.061   2.788
 1475W        W73823  10.222  25.478   2.257
 1476W        W73824  14.591  29.053   0.774
 1477W        W73825   0.345  43.380  13.890
 1478W        W73826  26.615  28.458  10.486
 1479W        W73827  43.442  28.597   3.645
 1480W        W73828  14.807   4.380  12.091
 1481W        W73829  23.673   4.356   4.277
 1482W        W73830  21.229  17.635   3.155
 1483W        W73831  41.350  43.962   2.250
 1484W        W73832   3.232  30.424   4.676
 1485W        W73833  13.708  13.611  14.976
 1486W        W73834  32.549  42.788   0.801
 1487W        W73835  25.015  16.790  14.776
 1488W        W73836  33.037  31.954  12.857
 1489W        W73837   7.672  35.380  10.412
 1490W        W73838  14.721  29.659  10.992
 1491W        W73839  41.008  35.990  13.007
 1492W        W73840  38.425  13.143   0.859
 1493W        W73841  17.673  12.689  11.076
 1494W        W73842  10.839  22.566   5.290
 1495W        W73843  37.418  26.049  13.843
 1496W        W73844   2.893   1.467   4.193
 1497W        W73845  44.904  30.488   4.348
 1498W        W73846  31.005  18.739   0.876
 1499W        W73847  30.997  13.251   0.828
 1500W        W73848   9.216   9.879   3.246
 1501W        W73849  43.952  39.449  13.848
 1502W        W73850  33.418  44.858   4.821
 1503W        W73851  19.187  21.262  14.990
 1504W        W73852  14.137   5.396   1.782
 1505W        W73853   3.759  36.472  14.801
 1506W        W73854  19.130  39.909   0.844
 1507W        W73855  21.184  43.360  13.047
 1508W        W73856  16.627  30.645  10.575
 1509W        W73857  30.427  28.173   4.720
 1510W        W73858  29.961  36.410  11.081
 1511W        W73859   6.701  37.933  14.782
 1512W        W73860   8.667  33.577   4.776
 1513W        W73861   7.757   5.202   2.798
 1514W        W73862  14.283  14.125   5.273
 1515W        W73863  35.441  34.960   2.725
 1516W        W73864  16.077  11.708  13.948
 1517W        W73865   8.377  29.456  14.432
 1518W        W73866  24.216  42.419  10.912
 1519W        W73867  42.858   8.234   1.324
 1520W        W73868  13.716  28.471  13.799
 1521W        W73869  29.431  26.492   4.813
 1522W        W73870  42.310   4.373   3.366
 1523W        W73871  20.728  11.207   2.247
 1524W        W73872  37.481  19.579   1.791
 1525W        W73873  16.641  17.750   0.948
 1526W        W73874  13.676  10.779   0.908
 1527W        W73875   8.238  29.931  14.981
 1528W        W73876   5.820  16.666  12.353
 1529W        W73877  11.230  32.987   1.358
 1530W        W73878   1.398   5.347   1.306
 1531W        W73879  22.706  36.876  13.887
 1532W        W73880  33.599   1.894   2.895
 1533W        W73881  23.646  39.372   3.368
 1534W        W73882  14.300  17.780   3.723
 1535W        W73883  35.966  26.962   1.740
 1536W        W73884  44.894  26.999  14.803
 1537W        W73885  17.700  43.970  13.953
 1538W        W73886  40.442  39.053  11.483
 1539W        W73887   0.858   8.896  13.441
 1540W        W73888   0.765  26.007   1.829
 1541W        W73889  16.245  12.751   0.945
 1542W        W73890   0.454   7.340  14.820
 1543W        W73891  16.267  19.056  11.379
 1544W        W73892  35.923  14.141  13.051
 1545W        W73893  20.173  29.014   2.878
 1546W        W73894  43.787  21.615   3.191
 1547W        W73895  37.059  15.282   1.335
 1548W        W73896  30.998   7.887   5.579
 1549W        W73897  21.601  27.468   2.694
 1550W        W73898  39.997  31.603   4.694
 1551W        W73899   9.224   2.917  14.446
 1552W        W73900  44.800  39.425  14.008
 1553W        W73901  23.195  27.649   0.882
 1554W        W73902  31.020  32.460   3.728
 1555W        W73903  28.173  23.575  10.572
 1556W        W73904  38.074  14.800   2.289
 1557W        W73905  29.579  34.535  12.387
 1558W        W73906  25.649   5.259   0.761
 1559W        W73907  31.941   7.260  13.050
 1560W        W73908  39.508  28.998   0.763
 1561W        W73909  33.418  15.774   4.196
 1562W        W73910  31.525  43.999   0.296
 1563W        W73911   7.359  31.508  13.855
 1564W        W73912  17.301  43.495  11.123
 1565W        W73913  42.022  30.633   0.301
 1566W        W73914   7.415  27.514  14.970
 1567W        W73915  44.998  27.992  12.441
 1568W        W73916  31.901  11.738  13.536
 1569W        W73917  38.560  24.188   1.265
 1570W        W73918   1.933   9.174   4.114
 1571W        W73919  24.725  17.679  11.899
 1572W        W73920  21.601  42.527  11.392
 1573W        W73921   2.919  16.153  12.939
 1574W        W73922  36.432  20.707   2.329
 1575W        W73923   2.337  22.676  13.525
 1576W        W73924   9.302   7.281   3.263
 1577W        W73925  24.637  41.869   3.775
 1578W        W73926   0.868  29.973   4.218
 1579W        W73927  36.924  36.386   0.260
 1580W        W73928  19.048  35.604  12.027
 1581W        W73929   8.396  15.277   3.654
 1582W        W73930   9.704  15.293   3.858
 1583W        W73931  24.565   7.273  12.556
 1584W        W73932   9.797   1.448  10.570
 1585W        W73933  18.607  36.888   3.308
 1586W        W73934  27.579   5.248   3.715
 1587W        W73935   7.742  37.381  12.351
 1588W        W73936  22.691  13.229   5.137
 1589W        W73937  19.190  12.781   3.837
 1590W        W73938   8.875  13.242   3.692
 1591W        W73939  30.908  34.941   2.356
 1592W        W73940  36.512   8.378   1.245
 1593W        W73941  43.516   9.754   2.675
 1594W        W73942  24.572  31.912   4.135
 1595W        W73943  13.123  38.440   3.372
 1596W        W73944   0.468  36.454  13.497
 1597W        W73945  40.314  15.582   0.363
 1598W        W73946  23.648  30.493  13.521
 1599W        W73947  37.061  20.267   4.146
 1600W        W73948  30.059   9.182  11.580
 1601W        W73949  29.539  18.602   4.683
 1602W        W73950  31.986   7.187  14.833
 1603W        W73951  44.468  25.468   3.767
 1604W        W73952  13.657  30.076  10.951
 1605W        W73953   9.698  21.159  10.016
 1606W        W73954  29.513  35.430  12.022
 1607W        W73955  10.256  17.562  10.473
 1608W        W73956  32.953  32.894  12.401
 1609W        W73957  32.402  36.891   4.180
 1610W        W73958  39.556   4.433  11.462
 1611W        W73959   0.933   5.894   0.746
 1612W        W73960  10.354  40.007   0.732
 1613W        W73961  11.821  25.071  12.840
 1614W        W73962  16.571  38.035  13.516
 1615W        W73963  41.942   7.861   3.261
 1616W        W73964  42.789  10.870   0.962
 1617W        W73965  18.703  39.979   4.181
 1618W        W73966  16.161   6.424   0.472
 1619W        W73967  36.035   5.726  14.311
 1620W        W73968  42.935  28.939   0.789
 1621W        W73969  35.467  14.282   2.834
 1622W        W73970  12.849  29.441   0.419
 1623W        W73971  27.144  18.165   2.903
 1624W        W73972  17.111  44.934   1.926
 1625W        W73973  26.605  40.456  12.532
 1626W        W73974  28.145  43.302   0.348
 1627W        W73975  42.831  30.979   1.930
 1628W        W73976  26.076  30.144  11.073
 1629W        W73977  39.940  36.467   1.726
 1630W        W73978  13.771  44.355  14.503
 1631W        W73979  12.616   6.743   1.761
 1632W        W73980  34.959  34.506  14.905
 1633W        W73981  13.617  28.046   3.736
 1634W        W73982  35.955  14.237   0.342
 1635W        W73983   9.708  10.877  12.499
 1636W        W73984  43.405  30.002   2.321
 1637W        W73985  27.676   7.669   2.738
 1638W        W73986   5.716   3.754   3.678
 1639W        W73987  37.943   6.186   1.390
 1640W        W73988   2.447  41.425   3.309
 1641W        W73989  39.493  23.144  13.519
 1642W        W73990  32.105   3.743   0.858
 1643W        W73991  14.668  35.537  13.990
 1644W        W73992  15.638  44.295   2.743
 1645W        W73993  13.187  17.230  12.843
 1646W        W73994  17.703  19.743   2.240
 1647W        W73995  11.276  38.038   0.374
 1648W        W73996  15.118  44.910   3.719
 1649W        W73997  18.676  13.792  10.417
 1650W        W73998  33.416  42.986   5.241
 1651W        W73999   5.331   4.400  13.937
 1652W        W74000  18.790  23.175   4.216
 1653W        W74001  23.626   1.753   0.449
 1654W        W74002  18.622  21.195   1.933
 1655W        W74003  29.610  15.752   0.905
 1656W        W74004  20.712  26.472   4.722
 1657W        W74005   8.253  11.208   2.360
 1658W        W74006   8.875  19.249  10.450
 1659W        W74007   7.369  32.980  10.540
 1660W        W74008  41.471  15.197  12.518
 1661W        W74009   8.369  16.166  14.443
 1662W        W74010  42.300  40.346   1.793
 1663W        W74011  44.382  19.274  13.395
 1664W        W74012  38.566  29.928   1.215
 1665W        W74013   4.436  30.134   2.386
 1666W        W74014  24.579  11.813   1.436
 1667W        W74015   2.843  24.134  13.036
 1668W        W74016  39.002  32.067   4.283
 1669W        W74017  40.882   4.731  11.094
 1670W        W74018  40.858  21.028   4.792
 1671W        W74019   6.321  24.220   1.813
 1672W        W74020   9.213   9.863   4.729
 1673W        W74021  21.172   2.834  11.869
 1674W        W74022  25.137   0.777  13.864
 1675W        W74023   5.287  14.648  11.979
 1676W        W74024   2.868  12.133  10.539
 1677W        W74025  11.831   9.812  13.363
 1678W        W74026   3.231   1.762  14.303
 1679W        W74027  26.974   4.941   3.199
 1680W        W74028   2.851  26.653  10.470
 1681W        W74029  15.596  27.525   3.156
 1682W        W74030  40.846  44.273  14.995
 1683W        W74031  32.923   1.910  10.985
 1684W        W74032  22.656  10.632  10.512
 1685W        W74033  39.025  32.466  13.973
 1686W        W74034  30.964  19.149   4.130
 1687W        W74035   6.774  18.227  13.044
 1688W        W74036  29.941  26.025  11.447
 1689W        W74037  30.609  39.476  10.430
 1690W        W74038  29.056  19.554   0.398
 1691W        W74039  26.078   6.283   2.256
 1692W        W74040  20.530   7.735  12.861
 1693W        W74041  27.659  24.520   4.142
 1694W        W74042  29.057   7.309   2.873
 1695W        W74043  44.785   2.738  11.436
 1696W        W74044  20.132  16.569   1.380
 1697W        W74045  33.965  21.721  13.897
 1698W        W74046   3.387  42.498   3.630
 1699W        W74047   7.295  39.964  13.355
 1700W        W74048  15.306  19.590  14.830
 1701W        W74049  36.913  34.102   0.762
 1702W        W74050  43.853  39.901  10.418
 1703W        W74051  10.728  40.443   2.310
 1704W        W74052  42.433  23.211   2.805
 1705W        W74053  24.112  38.554   1.350
 1706W        W74054  37.458   8.849  10.916
 1707W        W74055  24.160   5.707  13.392
 1708W        W74056  28.541  18.709  10.471
 1709W        W74057  39.840  20.620   0.383
 1710W        W74058  22.060   4.939   4.726
 1711W        W74059  17.585   1.740   2.270
 1712W        W74060  29.015  25.671   3.795
 1713W        W74061  34.964  25.666   1.721
 1714W        W74062  19.766  29.430  12.378
 1715W        W74063   0.885  16.805   0.396
 1716W        W74064  44.479   6.890   4.767
 1717W        W74065  30.145  29.095  14.996
 1718W        W74066   7.312  30.957   0.333
 1719W        W74067  38.051  15.294  14.408
 1720W        W74068  31.526  28.077  11.505
 1721W        W74069   0.778  27.557  14.807
 1722W        W74070  40.494  18.280  13.490
 1723W        W74071  35.418   0.744   1.372
 1724W        W74072  43.796  12.638  10.925
 1725W        W74073  12.360  24.692  11.942
 1726W        W74074  25.018  14.328  11.004
 1727W        W74075  20.150  42.015  12.985
 1728W        W74076  17.264  44.434  14.373
 1729W        W74077  43.807   2.320  13.951
 1730W        W74078   2.337  39.884  10.414
 1731W        W74079  40.355  38.556  14.464
 1732W        W74080  35.076  10.264   3.649
 1733W        W74081   8.306  37.551   4.607
 1734W        W74082  30.517  40.899   1.400
 1735W        W74083  31.603  37.492  14.779
 1736W        W74084  35.530  34.977  12.865
 1737W        W74085  21.057  34.003  14.281
 1738W        W74086  16.702  31.450   3.773
 1739W        W74087   3.331  16.315  12.067
 1740W        W74088  22.541   9.712   2.331
 1741W        W74089  38.329  27.066  13.371
 1742W        W74090  16.657  13.115  13.393
 1743W        W74091  43.861  29.968   4.635
 1744W        W74092   3.300  42.378   4.830
 1745W        W74093  43.963  26.974  13.358
 1746W        W74094  38.347  16.607  12.060
 1747W        W74095  24.075  30.050   2.321
 1748W        W74096  37.035  35.552   3.682
 1749W        W74097  17.300  42.396   0.324
 1750W        W74098   3.423   5.884   4.256
 1751W        W74099  44.306  22.519  13.361
 1752W        W74100  37.397  19.186   2.216
 1753W        W74101  24.229  11.630  12.506
 1754W        W74102  12.221  19.575   0.860
 1755W        W74103   7.206  17.702  13.036
 1756W        W74104  24.979  41.426   3.828
 1757W        W74105  30.940  38.882   1.815
 1758W        W74106  14.228  21.170  14.994
 1759W        W74107  30.155  10.310   0.887
 1760W        W74108  20.582   4.824   1.832
 1761W        W74109  31.463  11.739   1.918
 1762W        W74110  33.388  19.695  10.004
 1763W        W74111  36.590  38.883   2.665
 1764W        W74112  41.832   9.314  12.056
 1765W        W74113  34.964  12.643   4.170
 1766W        W74114  43.916  11.843  11.545
 1767W        W74115  27.648   5.740   4.831
 1768W        W74116  12.693  17.684  11.904
 1769W        W74117   0.832  18.657  14.921
 1770W        W74118  41.838  35.597  14.897
 1771W        W74119  31.508  12.676  12.985
 1772W        W74120  20.612  24.629   4.642
 1773W        W74121  31.477   9.387   3.746
 1774W        W74122   9.226  30.937  13.378
 1775W        W74123  38.484   6.733  10.966
 1776W        W74124  41.992  17.198   5.161
 1777W        W74125   9.807  33.582   0.280
 1778W        W74126  40.918  15.319   2.760
 1779W        W74127  36.968  44.870  10.551
 1780W        W74128  41.415  35.592  13.020
 1781W        W74129  23.649  29.429  11.966
 1782W        W74130  17.724  43.312   3.654
 1783W        W74131  16.608  32.085   1.809
 1784W        W74132  19.271  23.555   4.770
 1785W        W74133   3.238   2.363   5.231
 1786W        W74134  13.150  19.185   4.726
 1787W        W74135  40.332   7.709  10.998
 1788W        W74136  19.128  35.437   4.268
 1789W        W74137  30.640   6.770  12.007
 1790W        W74138  18.665  36.849   3.795
 1791W        W74139  24.155  37.846  10.556
 1792W        W74140  41.430  20.626   2.741
 1793W        W74141  33.902  17.781  14.900
 1794W        W74142  11.242  23.147  14.390
 1795W        W74143  23.561  16.630   3.700
 1796W        W74144  36.467  34.984   0.424
 1797W        W74145   1.783  40.507  10.958
 1798W        W74146   3.864  33.427   9.980
 1799W        W74147  34.489  22.580  10.569
 1800W        W74148  30.135  25.584  13.819
 1801W        W74149  24.487  31.899  11.559
 1802W        W74150  37.851  35.551   2.855
 1803W        W74151  22.020  31.011   0.323
 1804W        W74152  44.409  38.484  10.947
 1805W        W74153  39.933  17.254   1.839
 1806W        W74154  17.247   9.295  11.890
 1807W        W74155  23.080   9.790   5.732
 1808W        W74156  20.751  13.730   3.285
 1809W        W74157  23.536   2.322   1.771
 1810W        W74158  24.608  23.232   3.754
 1811W        W74159   0.846  20.040  11.524
 1812W        W74160   3.385  15.259  11.390
 1813W        W74161  22.519   5.307  13.987
 1814W        W74162  10.842  15.199  13.377
 1815W        W74163  42.967  33.962   0.961
 1816W        W74164  22.655  38.968   2.720
 1817W        W74165  19.580  33.121   1.344
 1818W        W74166  19.120  14.693   0.412
 1819W        W74167  22.686  12.145  14.778
 1820W        W74168  24.009  35.996   2.245
 1821W        W74169   5.923  33.412  11.976
 1822W        W74170  14.723   9.196   4.703
 1823W        W74171  29.515  20.642  10.614
 1824W        W74172  42.948  29.100  11.386
 1825W        W74173  14.179  43.885  13.918
 1826W        W74174   7.398   2.382   4.187
 1827W        W74175  35.454   0.781  10.498
 1828W        W74176   5.710  28.644   2.720
 1829W        W74177  38.967  17.268   2.242
 1830W        W74178   2.230  13.319   3.742
 1831W        W74179  36.435   9.167   3.321
 1832W        W74180  44.766  39.934   4.831
 1833W        W74181  19.172  35.896   2.762
 1834W        W74182  41.310  44.303  10.448
 1835W        W74183  19.225  15.610  11.484
 1836W        W74184   0.837  12.143   4.129
 1837W        W74185  26.070  13.781   3.669
 1838W        W74186  24.098  38.877   2.736
 1839W        W74187  39.834  41.838   3.665
 1840W        W74188   1.748  35.916   0.287
 1841W        W74189   0.437   7.855  14.294
 1842W        W74190  44.343   5.933  10.621
 1843W        W74191  11.733  10.798  12.834
 1844W        W74192  33.593   5.808   0.445
 1845W        W74193  23.017  35.965  14.291
 1846W        W74194   8.325  44.819  10.557
 1847W        W74195  32.548   3.364  11.486
 1848W        W74196  38.492  19.173  14.900
 1849W        W74197  36.866  23.131   4.651
 1850W        W74198  16.660  28.618  12.476
 1851W        W74199  41.986  17.573   1.900
 1852W        W74200  23.023   4.783  13.505
 1853W        W74201  39.907  16.291  14.356
 1854W        W74202  33.552   6.809  12.565
 1855W        W74203  30.144   3.371  10.909
 1856W        W74204  17.757  18.292  11.572
 1857W        W74205  12.823   7.407  11.422
 1858W        W74206  28.567  37.387   1.428
 1859W        W74207  39.556  31.473  10.498
 1860W        W74208  11.856  43.901   0.370
 1861W        W74209   0.986  16.757  10.615
 1862W        W74210  44.502  42.799   2.199
 1863W        W74211  12.317  31.554  11.917
 1864W        W74212  34.411  38.521  10.945
 1865W        W74213  23.729  42.457   4.312
 1866W        W74214  28.978   6.355  12.504
 1867W        W74215   2.382  20.717   1.414
 1868W        W74216  34.372   8.188  14.944
 1869W        W74217  39.357  10.829  12.404
 1870W        W74218  29.160  27.019  14.891
 1871W        W74219   9.832  31.109  14.498
 1872W        W74220  20.254  19.645  14.327
 1873W        W74221  11.751  11.296  14.390
 1874W        W74222  44.388  20.030   0.373
 1875W        W74223  34.089  23.025   1.297
 1876W        W74224  29.087  34.056   2.741
 1877W        W74225  31.506  20.533   2.385
 1878W        W74226  16.202  23.167   1.916
 1879W        W74227  25.565  40.805  14.976
 1880W        W74228  10.330  15.210  13.393
 1881W        W74229   8.693   5.372  11.935
 1882W        W74230   3.357  22.143  12.358
 1883W        W74231  30.061  28.998  14.012
 1884W        W74232  23.557  42.522  10.563
 1885W        W74233  13.643  16.198   4.288
 1886W        W74234  11.335  10.234  14.991
 1887W        W74235  15.733  28.043  14.822
 1888W        W74236  16.771  36.370   1.772
 1889W        W74237  12.331  37.991   0.404
 1890W        W74238  29.063   8.676  12.386
 1891W        W74239  32.513   0.764  12.894
 1892W        W74240   9.797  37.046  13.403
 1893W        W74241  22.105  28.556   0.885
 1894W        W74242  25.485  21.232   3.338
 1895W        W74243  18.685  22.696   3.663
 1896W        W74244  18.220  39.952  10.465
 1897W        W74245  28.453  13.334   3.384
 1898W        W74246  13.711  28.930   1.245
 1899W        W74247  13.306   4.781  12.041
 1900W        W74248  18.750  29.645  11.439
 1901W        W74249  21.662  17.632  13.471
 1902W        W74250  21.259   3.278   3.384
 1903W        W74251   5.391  41.832   2.722
 1904W        W74252   7.746   3.845  14.443
 1905W        W74253  23.180  16.108  14.287
 1906W        W74254  44.898  16.304  14.895
 1907W        W74255  13.333  16.251  12.926
 1908W        W74256  23.133  33.611   3.167
 1909W        W74257  22.241  15.578   0.292
 1910W        W74258  43.346  10.369  11.401
 1911W        W74259  18.664  33.396  14.388
 1912W        W74260  44.389   9.757   3.234
 1913W        W74261  21.056  15.679  12.339
 1914W        W74262   9.757  36.358  13.458
 1915W        W74263  44.790  24.110  11.517
 1916W        W74264  11.291  35.484  11.995
 1917W        W74265  17.755  21.079   0.759
 1918W        W74266  12.763  23.084   4.216
 1919W        W74267  26.463  36.071  10.538
 1920W        W74268  38.903   2.754   0.252
 1921W        W74269  19.263  19.634   3.642
 1922W        W74270  31.900  24.510  13.865
 1923W        W74271   6.362   5.257  14.886
 1924W        W74272  21.729   4.234  12.975
 1925W        W74273  11.347  36.372  14.941
 1926W        W74274  21.593   7.692  13.475
 1927W        W74275   5.391   6.214   3.668
 1928W        W74276  24.079   2.365   1.889
 1929W        W74277  30.504  37.964  11.024
 1930W        W74278  14.254  12.120  14.506
 1931W        W74279  38.056  44.994  11.521
 1932W        W74280  25.618  24.110  13.341
 1933W        W74281  17.089   6.759  13.028
 1934W        W74282  22.714  29.135   3.282
 1935W        W74283  30.025   3.397   2.324
 1936W        W74284  29.650  21.061   4.789
 1937W        W74285  11.298  32.441  12.880
 1938W        W74286   7.196   7.237  11.515
 1939W        W74287   4.294  32.896   0.324
 1940W        W74288  11.214  20.707   3.772
 1941W        W74289  38.973  28.467  14.356
 1942W        W74290  22.662  12.269  14.298
 1943W        W74291   4.889   7.906   2.256
 1944W        W74292  23.699  12.358  13.839
 1945W        W74293  44.496  32.418   2.339
 1946W        W74294   7.309  27.064   1.786
 1947W        W74295   3.853  17.584   3.358
 1948W        W74296  33.071  22.609  12.420
 1949W        W74297  21.546   8.737  10.949
 1950W        W74298  38.491   2.296  14.475
 1951W        W74299  32.899   7.373   3.243
 1952W        W74300  13.328   5.245  10.461
 1953W        W74301  40.009   1.439  10.638
 1954W        W74302  29.457  22.533   3.667
 1955W        W74303   0.407  40.303  11.442
 1956W        W74304  27.012  39.954   0.475
 1957W        W74305  11.680  22.746  11.039
 1958W        W74306  14.324  39.893   3.349
 1959W        W74307   4.337  25.611  12.068
 1960W        W74308  40.533  21.204   3.798
 1961W        W74309  16.789   8.730  12.928
 1962W        W74310  27.643   0.839  10.472
 1963W        W74311  25.196  37.511  12.956
 1964W        W74312  28.674  30.467  13.037
 1965W        W74313  34.081  37.072  12.954
 1966W        W74314  44.335  29.989  12.423
 1967W        W74315  25.999  18.712  10.496
 1968W        W74316  37.966  15.312  10.557
 1969W        W74317  23.135  25.135   2.301
 1970W        W74318  12.811  13.762  12.991
 1971W        W74319  28.023  17.178   1.771
 1972W        W74320   4.806   1.897  10.420
 1973W        W74321  22.662  26.083   1.715
 1974W        W74322  30.115  37.853   3.331
 1975W        W74323   7.723  22.603   4.212
 1976W        W74324  12.784  35.456   2.849
 1977W        W74325  11.366  42.431  12.477
 1978W        W74326   1.266  23.139  11.556
 1979W        W74327  28.147   9.695  10.605
 1980W        W74328  18.174  34.070   0.300
 1981W        W74329  37.498   6.318   2.274
 1982W        W74330  42.936  10.847   3.186
 1983W        W74331  13.316  33.930   4.222
 1984W        W74332  39.554  28.005  14.946
 1985W        W74333  32.538  38.529  14.923
 1986W        W74334  26.010  27.630  14.289
 1987W        W74335  41.826   4.931   4.142
 1988W        W74336  22.079  31.541  13.544
 1989W        W74337   5.817  16.683   3.344
 1990W        W74338  19.663   8.745   2.321
 1991W        W74339  14.310  17.721  14.397
 1992W        W74340  10.788  42.935  11.550
 1993W        W74341  17.725  41.487   1.363
 1994W        W74342   5.888  10.171   0.417
 1995W        W74343  41.904   3.858   4.608
 1996W        W74344   5.304  35.927  11.091
 1997W        W74345   2.371  42.880   1.245
 1998W        W74346  38.343  41.883   1.740
 1999W        W74347  44.379  33.623   1.234
 2000W        W74348   3.240  16.162  14.831
 2001W        W74349  13.269   9.244   0.483
 2002W        W74350  31.916  43.335  12.531
 2003W        W74351  36.424  26.572  13.421
 2004W        W74352  36.447  31.457  14.984
 2005W        W74353  35.940   3.268   1.755
 2006W        W74354  34.481   5.338  13.432
 2007W        W74355  42.512  24.034  12.959
 2008W        W74356   9.152  26.162   3.828
 2009W        W74357   3.271  39.415  10.892
 2010W        W74358   9.732  12.126   2.882
 2011W        W74359  24.992  33.982   4.122
 2012W        W74360  14.192   1.822   4.146
 2013W        W74361  27.500  17.799   1.240
 2014W        W74362  41.521  18.632   3.189
 2015W        W74363  29.473   9.670  12.841
 2016W        W74364   8.663  19.706   0.437
 2017W        W74365  12.324  11.231   2.767
 2018W        W74366  26.016   5.273  14.391
 2019W        W74367  41.390   6.421   3.684
 2020W        W74368  28.588  42.968   1.210
 2021W        W74369  17.117   7.251  14.814
 2022W        W74370  31.117  18.693  11.035
 2023W        W74371   0.813  30.096  14.857
 2024W        W74372   5.872  32.963  14.501
 2025W        W74373  28.536  14.702   0.788
 2026W        W74374  44.377  17.732   1.440
 2027W        W74375  26.580  27.188   0.738
 2028W        W74376  39.346  39.992   2.399
 2029W        W74377  19.669  44.987   3.193
 2030W        W74378  34.442  26.977  11.012
 2031W        W74379  21.050  22.235  11.475
 2032W        W74380   7.704  32.894  12.015
 2033W        W74381  19.043  44.439   0.433
 2034W        W74382  21.669  25.517   1.809
 2035W        W74383  36.036  42.338   2.241
 2036W        W74384   7.878  30.061   1.923
 2037W        W74385  44.803  24.018   1.320
 2038W        W74386  32.090  17.278   2.838
 2039W        W74387  21.694   9.312  11.100
 2040W        W74388  23.700   7.409   4.158
 2041W        W74389   8.691  30.504   4.662
 2042W        W74390  17.280   7.207  12.390
 2043W        W74391  26.191  10.210   1.712
 2044W        W74392  18.255  37.556   3.696
 2045W        W74393   6.312  18.155  10.059
 2046W        W74394  25.104  19.172  12.024
 2047W        W74395  12.185  35.898  11.857
 2048W        W74396  17.096   3.239   3.196
 2049W        W74397   7.887  16.299  12.896
 2050W        W74398  28.155  10.371   1.350
 2051W        W74399  40.948   9.160   4.345
 2052W        W74400  24.136  12.330  13.966
 2053W        W74401  14.304  10.207  12.059
 2054W        W74402   1.853  13.324   0.817
 2055W        W74403  16.115  33.431  13.035
 2056W        W74404  15.748   3.251  10.999
 2057W        W74405  36.093  38.891  10.890
 2058W        W74406   9.890  43.985  10.422
 2059W        W74407  32.499  13.247   0.380
 2060W        W74408  28.670  16.680   1.285
 2061W        W74409  43.433  44.861   1.784
 2062W        W74410  41.380  15.318  12.908
 2063W        W74411  17.570  16.782   3.342
 2064W        W74412   2.773   3.944   1.314
 2065W        W74413  24.680  20.752  12.092
 2066W        W74414  25.680   6.748   2.677
 2067W        W74415  27.519  32.090  14.992
 2068W        W74416  32.486  30.096   0.804
 2069W        W74417  19.581  22.714  13.883
 2070W        W74418  44.936  42.865   1.696
 2071W        W74419   6.891  36.016  13.337
 2072W        W74420  21.069   8.318   4.233
 2073W        W74421  25.588  31.557   3.300
 2074W        W74422   8.349   3.257   1.778
 2075W        W74423  42.324   2.928   3.371
 2076W        W74424   4.335  24.517  10.431
 2077W        W74425  25.149  14.147  12.580
 2078W        W74426  16.284  33.939   1.703
 2079W        W74427  14.817  39.317   3.731
 2080W        W74428  29.481  43.422   2.202
 2081W        W74429  25.704   9.370  12.415
 2082W        W74430   6.293  26.476  12.913
 2083W        W74431  25.202   0.831  14.885
 2084W        W74432   9.859  25.533  14.969
 2085W        W74433  28.460  22.144   2.879
 2086W        W74434  38.043  40.310   2.326
 2087W        W74435  42.842  24.133  12.533
 2088W        W74436  19.595  13.809  14.808
 2089W        W74437  15.652  41.954   4.335
 2090W        W74438  24.571  25.637  14.439
 2091W        W74439  18.774   0.452  13.981
 2092W        W74440  15.820  14.336  13.354
 2093W        W74441  18.709  42.299  11.582
 2094W        W74442  37.398  35.856   2.757
 2095W        W74443   3.306  11.281  12.531
 2096W        W74444  36.429  43.402   0.316
 2097W        W74445  15.699  43.785  12.865
 2098W        W74446   8.188  32.433   3.844
 2099W        W74447  38.944  20.231  10.987
 2100W        W74448  22.646  33.112  12.510
 2101W        W74449  15.800  18.261  12.384
 2102W        W74450   5.277  29.027   2.244
 2103W        W74451  10.292   8.805  13.424
 2104W        W74452   7.837   4.710   2.878
 2105W        W74453  19.669  22.114   3.363
 2106W        W74454  39.055   8.234   3.710
 2107W        W74455  29.577  28.949  11.526
 2108W        W74456  18.650  42.492  12.369
 2109W        W74457   6.270  14.216  11.561
 2110W        W74458  37.972  27.001   3.848
 2111W        W74459  22.567  23.529  14.463
 2112W        W74460   3.312   3.413  14.483
 2113W        W74461  26.688  33.379  13.464
 2114W        W74462  43.917  17.283  12.880
 2115W        W74463  35.479   9.372   0.803
 2116W        W74464  18.608  32.478   0.893
 2117W        W74465   4.837  32.438  11.015
 2118W        W74466  25.609  19.654   1.432
 2119W        W74467  33.471  24.036   3.868
 2120W        W74468  10.213  24.218   5.210
 2121W        W74469   0.885   9.203  14.340
 2122W        W74470   8.288  35.524  12.889
 2123W        W74471  18.210  16.188  13.944
 2124W        W74472   5.397  15.274   0.750
 2125W        W74473  10.781   6.263   3.678
 2126W        W74474  28.064  19.687   1.783
 2127W        W74475  39.385  14.613  11.053
 2128W        W74476  33.381  17.155  14.461
 2129W        W74477   9.824  25.589  13.474
 2130W        W74478  17.752  25.009   3.720
 2131W        W74479  38.857  22.506   4.259
 2132W        W74480  38.059  13.679   4.167
 2133W        W74481  19.192  38.484  13.809
 2134W        W74482   8.365  37.515  13.500
 2135W        W74483  35.522  28.463  11.020
 2136W        W74484  37.901  28.969  11.573
 2137W        W74485  11.630  32.962   2.759
 2138W        W74486   3.374   5.266   4.204
 2139W        W74487  23.217  29.169   4.265
 2140W        W74488  40.522  29.147  14.442
 2141W        W74489  31.536  27.448   0.268
 2142W        W74490  19.574   4.719  10.603
 2143W        W74491  21.097   8.235   1.246
 2144W        W74492  37.012  38.065   1.411
 2145W        W74493  38.051   6.683   1.893
 2146W        W74494  44.984  28.661  12.408
 2147W        W74495  38.968  27.686  12.498
 2148W        W74496  21.534  36.461  12.399
 2149W        W74497  25.691  37.840  13.936
 2150W        W74498  43.338   1.269   0.967
 2151W        W74499  13.704  10.207   2.866
 2152W        W74500  10.354  20.606   4.278
 2153W        W74501  32.933  38.521   0.269
 2154W        W74502  27.474   2.743  13.906
 2155W        W74503  26.086   2.942  13.882
 2156W        W74504   3.234  20.546   0.334
 2157W        W74505  36.499  32.510  12.365
 2158W        W74506  44.918   0.335   4.332
 2159W        W74507  16.306  33.428   4.686
 2160W        W74508   8.255  13.827   3.768
 2161W        W74509   9.338  26.524   4.202
 2162W        W74510  15.776  18.662   4.128
 2163W        W74511  12.159  34.529  10.432
 2164W        W74512  36.566  44.817  14.497
 2165W        W74513  22.132  18.240  14.836
 2166W        W74514  37.429  43.436   1.267
 2167W        W74515  32.538  25.614   0.271
 2168W        W74516  30.039  20.159   4.333
 2169W        W74517  29.523  10.754  11.106
 2170W        W74518  30.654   3.954   3.330
 2171W        W74519  43.819  34.116   2.897
 2172W        W74520   2.461   6.753  11.946
 2173W        W74521  21.109  10.685   0.462
 2174W        W74522  31.517  23.069   0.362
 2175W        W74523  24.692  34.909  14.429
 2176W        W74524   3.918  23.240   0.790
 2177W        W74525  43.413  28.168   2.391
 2178W        W74526   6.866  27.465   3.152
 2179W        W74527  10.784  40.404  10.420
 2180W        W74528  18.743   2.959   3.232
 2181W        W74529  18.159  10.208  14.433
 2182W        W74530   1.252   2.292   2.406
 2183W        W74531  39.425  32.550   4.806
 2184W        W74532  42.877  44.271  14.811
 2185W        W74533   2.376  37.575  13.912
 2186W        W74534  25.219  44.460  12.953
 2187W        W74535  22.606  31.989   5.247
 2188W        W74536  29.439  36.461  14.923
 2189W        W74537  29.971  44.261  10.500
 2190W        W74538  17.608  18.769  13.011
 2191W        W74539   2.787   8.814  12.527
 2192W        W74540  26.619   2.793  11.113
 2193W        W74541  41.992  39.002   3.685
 2194W        W74542  11.768  43.386  14.026
 2195W        W74543  12.854   5.908  10.042
 2196W        W74544  32.614   4.788   0.797
 2197W        W74545  21.167   9.163  10.013
 2198W        W74546  28.145  12.259   1.365
 2199W        W74547   3.713  19.155   1.381
 2200W        W74548  30.151  24.984   4.222
 2201W        W74549  28.565  42.400   0.464
 2202W        W74550   1.822   0.457   3.780
 2203W        W74551  26.056  38.391  13.973
 2204W        W74552  32.068  26.132   3.325
 2205W        W74553   8.306  41.453  14.288
 2206W        W74554   5.911  10.147   0.938
 2207W        W74555   5.770  15.191   4.276
 2208W        W74556  38.505  36.556  13.932
 2209W        W74557  24.990  22.192   2.377
 2210W        W74558  18.568  22.098  11.091
 2211W        W74559   1.977  25.478  10.573
 2212W        W74560  39.989  28.973  13.971
 2213W        W74561  25.706  36.080   1.439
 2214W        W74562  25.650  14.137   4.277
 2215W        W74563  43.786  18.196  12.992
 2216W        W74564  39.340  22.012  12.999
 2217W        W74565  15.223  35.976   4.602
 2218W        W74566  17.244   7.871   2.238
 2219W        W74567  21.650  37.835  12.576
 2220W        W74568  14.613  29.657   4.324
 2221W        W74569  44.292  42.790   1.739
 2222W        W74570  37.395  17.306   3.207
 2223W        W74571  30.456   9.808   0.847
 2224W        W74572  39.025  27.490   1.874
 2225W        W74573  15.324  44.003   1.312
 2226W        W74574  41.463   9.178   3.234
 2227W        W74575   3.783  30.638  12.981
 2228W        W74576  36.405  24.151  14.332
 2229W        W74577  32.965   0.253  13.811
 2230W        W74578  44.006  39.854  14.824
 2231W        W74579   5.343  16.129  11.104
 2232W        W74580  40.033   8.815   4.219
 2233W        W74581   3.768  24.166   1.827
 2234W        W74582  15.172   5.375   4.828
 2235W        W74583  15.613  36.476   4.248
 2236W        W74584  41.372  15.800  13.823
 2237W        W74585   6.777  22.095  14.834
 2238W        W74586  44.421  44.952  10.439
 2239W        W74587  17.737  26.181  12.541
 2240W        W74588  34.096  35.878  11.408
 2241W        W74589  28.574  40.423   4.654
 2242W        W74590  36.928   4.902  12.564
 2243W        W74591  11.798   1.427   3.349
 2244W        W74592  40.325  12.675  10.000
 2245W        W74593  44.775  10.256   1.702
 2246W        W74594  21.133  32.524   1.828
 2247W        W74595   9.815  13.643  13.389
 2248W        W74596  23.545  25.069   4.647
 2249W        W74597  39.460  10.746  13.950
 2250W        W74598  17.105  23.157   0.903
 2251W        W74599  18.586  36.387  11.106
 2252W        W74600  42.926  34.876  14.331
 2253W        W74601  34.016   5.871  12.403
 2254W        W74602   0.314  15.234  14.283
 2255W        W74603  23.057  17.631  14.885
 2256W        W74604   1.266   2.864   0.388
 2257W        W74605  23.646  34.451  11.401
 2258W        W74606  22.066  36.516   1.730
 2259W        W74607  29.572   4.847   5.180
 2260W        W74608  38.406  20.168   2.193
 2261W        W74609  19.580  42.939  13.966
 2262W        W74610  32.468  19.143   2.219
 2263W        W74611  27.072  25.103   4.238
 2264W        W74612   8.383  25.551   3.684
 2265W        W74613  20.712   1.309  11.082
 2266W        W74614  13.804  17.294   4.183
 2267W        W74615  41.340  43.332  10.987
 2268W        W74616  27.570  36.086  10.521
 2269W        W74617  27.137  20.184   3.712
 2270W        W74618  42.946  39.859  14.455
 2271W        W74619  44.390   5.712  10.019
 2272W        W74620  13.721  41.435   3.173
 2273W        W74621  41.851   2.321   1.248
 2274W        W74622  37.959  36.398   1.718
 2275W        W74623  13.300  27.184  12.860
 2276W        W74624  30.522   1.459  14.400
 2277W        W74625  23.993  16.310   4.228
 2278W        W74626  25.109  22.030   3.671
 2279W        W74627  37.996   5.843   2.185
 2280W        W74628  32.127  35.444  10.529
 2281W        W74629  26.518   9.805   1.305
 2282W        W74630  26.462  23.056   4.772
 2283W        W74631   6.737  17.299  13.931
 2284W        W74632   3.907  32.994   4.726
 2285W        W74633  23.066  26.003  14.440
 2286W        W74634   3.228  44.497  11.519
 2287W        W74635  10.642  37.550  14.886
 2288W        W74636  24.678  42.880  10.415
 2289W        W74637  37.881   6.801   3.671
 2290W        W74638  42.306  13.191   3.686
 2291W        W74639  27.516  16.793   3.162
 2292W        W74640  16.271  19.699   1.225
 2293W        W74641  19.657  30.485  13.524
 2294W        W74642  29.993  22.024   0.298
 2295W        W74643  40.933   5.355  14.818
 2296W        W74644  37.916  43.889   4.619
 2297W        W74645  20.653  44.854   0.963
 2298W        W74646   3.860  23.661   4.660
 2299W        W74647  44.310  37.950  11.070
 2300W        W74648  37.429  33.089  14.940
 2301W        W74649  39.455   5.358   4.613
 2302W        W74650  10.168  33.567  12.488
 2303W        W74651  23.053  21.615  11.982
 2304W        W74652   4.844  36.977   0.414
 2305W        W74653  27.624  38.987   4.162
 2306W        W74654  37.964   8.242   4.788
 2307W        W74655  22.085  28.462   4.242
 2308W        W74656   7.177  33.085  13.470
 2309W        W74657   6.239   7.668   3.829
 2310W        W74658  28.469  24.126  14.490
 2311W        W74659  35.098  39.423  12.454
 2312W        W74660  42.015   1.283   2.410
 2313W        W74661  37.538  44.399  12.526
 2314W        W74662  23.704  21.222   2.723
 2315W        W74663  23.172  28.668   4.135
 2316W        W74664  15.694  26.033   0.471
 2317W        W74665  23.992  22.667   5.168
 2318W        W74666  36.095   1.889  12.882
 2319W        W74667   6.844  22.735   4.659
 2320W        W74668  15.793  14.185  10.556
 2321W        W74669   7.199  15.681   0.856
 2322W        W74670  30.571  28.511   0.399
 2323W        W74671  40.950  14.100  12.841
 2324W        W74672  20.633  24.168  10.960
 2325W        W74673  16.286  27.176  11.079
 2326W        W74674  30.079  35.470  14.392
 2327W        W74675   6.863  29.040  13.874
 2328W        W74676   6.393  11.323   1.357
 2329W        W74677  28.630  31.983   3.814
 2330W        W74678  28.174  21.246   4.237
 2331W        W74679  26.465  30.155   3.856
 2332W        W74680  27.047  23.140   1.711
 2333W        W74681   0.417  38.391   1.812
 2334W        W74682  32.014  35.887  14.374
 2335W        W74683  38.946  23.019   0.348
 2336W        W74684  21.620  26.525   2.715
 2337W        W74685  42.355   8.854   1.722
 2338W        W74686  32.066  37.380   1.858
 2339W        W74687  14.290  25.027  11.568
 2340W        W74688  22.252   5.728   4.631
 2341W        W74689  40.047  13.655   0.334
 2342W        W74690  31.645  23.495  14.999
 2343W        W74691   1.926  44.286  11.086
 2344W        W74692   4.373   6.302  12.906
 2345W        W74693  40.867  10.295  11.508
 2346W        W74694  18.157  33.494  12.549
 2347W        W74695  16.108  26.522   1.252
 2348W        W74696   9.245  35.373   1.698
 2349W        W74697  22.636  39.999   0.729
 2350W        W74698  24.563  21.096   3.825
 2351W        W74699  18.164  12.721   2.248
 2352W        W74700   0.828  37.931   4.737
 2353W        W74701  32.449   1.946   3.330
 2354W        W74702  13.301  29.665  13.324
 2355W        W74703  33.483  27.520   3.213
 2356W        W74704  18.284  14.194   2.197
 2357W        W74705   1.963  27.484   0.290
 2358W        W74706  35.906   4.875  10.059
 2359W        W74707  36.946  37.408   2.685
 2360W        W74708   0.907  28.179   3.710
 2361W        W74709  44.849  18.146  10.564
 2362W        W74710  14.183  14.266  14.324
 2363W        W74711  38.931  25.167  13.865
 2364W        W74712  24.594  31.968   3.858
 2365W        W74713  18.573  12.829   1.249
 2366W        W74714  34.590  15.723  12.912
 2367W        W74715  21.630  31.110   2.235
 2368W        W74716  15.656  36.016   4.161
 2369W        W74717  29.551  23.242   1.900
 2370W        W74718   3.942  12.635  10.591
 2371W        W74719  31.061   4.854   0.908
 2372W        W74720  17.680   9.824   0.841
 2373W        W74721  22.633   8.859   2.253
 2374W        W74722  24.697   9.388   4.631
 2375W        W74723  31.516  29.149  11.373
 2376W        W74724  37.410   1.861  12.849
 2377W        W74725  25.565  24.134   1.730
 2378W        W74726  32.927  35.418  10.954
 2379W        W74727  23.561  16.196  10.599
 2380W        W74728   9.745   5.715  11.383
 2381W        W74729  39.006  36.022   3.376
 2382W        W74730  25.998  11.682   3.644
 2383W        W74731  35.905  34.400  12.519
 2384W        W74732  20.760  28.657   1.775
 2385W        W74733  33.907   3.766   1.826
 2386W        W74734  10.783   9.793   2.886
 2387W        W74735  31.098  12.735  12.864
 2388W        W74736  32.483  27.957   4.115
 2389W        W74737  31.899  36.914   0.765
 2390W        W74738   4.263  16.075   0.251
 2391W        W74739  13.330  15.204  12.830
 2392W        W74740  41.297   3.310   4.195
 2393W        W74741  14.637  29.583   2.248
 2394W        W74742  40.328  43.966   4.720
 2395W        W74743  42.526  33.928   3.298
 2396W        W74744   3.224  16.183   0.820
 2397W        W74745  25.054  42.833  14.430
 2398W        W74746  33.064  20.684  13.318
 2399W        W74747  26.459  26.182  10.931
 2400W        W74748  30.486  31.501   3.797
 2401W        W74749  40.319  26.014   0.449
 2402W        W74750  41.029   4.810   4.768
 2403W        W74751  11.785  15.690  10.595
 2404W        W74752  31.563  13.332   1.924
 2405W        W74753  22.727  14.718   2.261
 2406W        W74754  30.911  40.334   4.691
 2407W        W74755   1.855  32.930   3.705
 2408W        W74756   0.962  43.898  13.990
 2409W        W74757  35.897  27.065  13.357
 2410W        W74758  20.093   3.279   3.227
 2411W        W74759  10.338  38.455  12.929
 2412W        W74760  30.528  42.372  13.541
 2413W        W74761  28.632  26.614  13.337
 2414W        W74762  24.664  33.954  14.873
 2415W        W74763   8.187  36.427   4.348
 2416W        W74764  28.146  34.950   4.795
 2417W        W74765  34.985  35.044   0.319
 2418W        W74766   1.790  14.175  11.470
 2419W        W74767   9.154  40.505   1.833
 2420W        W74768  17.287  41.983   2.723
 2421W        W74769  41.975  27.681   0.888
 2422W        W74770  20.653   2.743   4.190
 2423W        W74771  16.750  26.102   0.304
 2424W        W74772  28.116  38.931  11.075
 2425W        W74773  28.476  27.083  14.935
 2426W        W74774  10.805   3.773  11.424
 2427W        W74775  19.616   8.763  10.538
 2428W        W74776  28.569  42.861  14.403
 2429W        W74777  40.509  38.563  12.393
 2430W        W74778  41.536  21.677  11.048
 2431W        W74779  18.714  14.334  14.354
 2432W        W74780  10.765  27.042  14.861
 2433W        W74781   2.231   0.860  12.899
 2434W        W74782   8.733   0.448   4.167
 2435W        W74783  33.585  40.020  12.499
 2436W        W74784  29.933  37.362   3.634
 2437W        W74785  29.082  37.066   0.301
 2438W        W74786  22.055   9.196  10.942
 2439W        W74787  36.515  14.266   2.344
 2440W        W74788  21.703  18.689  13.052
 2441W        W74789   0.474  44.780   0.350
 2442W        W74790   1.976  41.855  12.955
 2443W        W74791  24.103  13.613  14.758
 2444W        W74792  10.774  15.277  11.026
 2445W        W74793  19.774   0.335  13.982
 2446W        W74794  22.602  29.033   3.724
 2447W        W74795  12.328  39.343  13.437
 2448W        W74796  19.259  10.638   3.154
 2449W        W74797  42.344  38.924  12.433
 2450W        W74798   3.277   9.358   4.660
 2451W        W74799  24.593  30.143  12.981
 2452W        W74800  21.076  37.395  10.515
 2453W        W74801  37.053  25.619   4.674
 2454W        W74802  24.035  14.743   1.745
 2455W        W74803  24.158   5.855  13.026
 2456W        W74804  28.989  16.221  11.985
 2457W        W74805   1.312  13.308   0.894
 2458W        W74806  35.521  14.826   2.718
 2459W        W74807  38.820   6.703  14.400
 2460W        W74808  37.952   5.866  14.496
 2461W        W74809  43.915  15.152   1.752
 2462W        W74810  29.920  16.162  11.574
 2463W        W74811  41.814  36.401   0.449
 2464W        W74812  21.625  22.524   1.813
 2465W        W74813  20.115  34.961  12.880
 2466W        W74814  32.492  18.215   5.112
 2467W        W74815  24.022  42.444  13.416
 2468W        W74816  29.514  37.428   3.869
 2469W        W74817  14.757  21.249   9.953
 2470W        W74818  10.858  25.129   4.604
 2471W        W74819  31.036   6.277   3.147
 2472W        W74820  22.082  14.690   1.405
 2473W        W74821   0.929  22.122  10.614
 2474W        W74822  23.611  16.751  12.828
 2475W        W74823  21.730  11.228   0.440
 2476W        W74824  11.361  14.248  12.850
 2477W        W74825  22.008  20.704  12.953
 2478W        W74826  28.479   0.804   3.253
 2479W        W74827  11.863   9.653  11.870
 2480W        W74828  25.184  30.416   0.967
 2481W        W74829   0.273  37.977  14.307
 2482W        W74830  41.489  31.944  12.485
 2483W        W74831  14.147  38.487  13.332
 2484W        W74832  43.284  17.148   2.218
 2485W        W74833  30.933  41.955  12.541
 2486W        W74834  11.164   0.456   2.397
 2487W        W74835  25.700  22.246   1.380
 2488W        W74836  23.177  26.675   2.370
 2489W        W74837  37.392  38.417   2.694
 2490W        W74838  23.702  21.567   4.164
 2491W        W74839   0.770  41.834  11.585
 2492W        W74840   9.227   4.427   0.457
 2493W        W74841  20.616  28.606  13.471
 2494W        W74842  27.605  32.121   1.311
 2495W        W74843  29.531   5.707   2.337
 2496W        W74844   2.778  27.000  12.076
 2497W        W74845  21.212  24.041  10.426
 2498W        W74846  16.293  28.454  10.597
 2499W        W74847  30.961  14.313  13.973
 2500W        W74848   4.729   9.822  10.644
 2501W        W74849   6.879  14.281  14.375
 2502W        W74850  18.709   3.722  12.934
 2503W        W74851  30.584  41.362   1.856
 2504W        W74852  11.206   1.381   3.211
 2505W        W74853   0.403  20.073   3.301
 2506W        W74854   8.748  15.247  11.453
 2507W        W74855  18.576   6.814   4.244
 2508W        W74856  12.758  31.015   0.257
 2509W        W74857   2.331  21.137  14.331
 2510W        W74858   3.949  18.156   0.796
 2511W        W74859  27.082  40.971   3.274
 2512W        W74860  29.139  32.609  14.326
 2513W        W74861  17.675   6.221  14.920
 2514W        W74862  18.091   6.386  14.951
 2515W        W74863  14.174  17.289  10.602
 2516W        W74864   7.727   9.798   0.259
 2517W        W74865   2.462   6.783  13.410
 2518W        W74866   8.845  22.179   2.297
 2519W        W74867  38.924  16.222  11.474
 2520W        W74868  12.816  34.960   3.170
 2521W        W74869  34.013  18.782   4.710
 2522W        W74870  23.688  21.120   2.285
 2523W        W74871   2.464  32.970  14.972
 2524W        W74872  42.453  36.061   4.682
 2525W        W74873  12.681  32.002   0.966
 2526W        W74874  28.560  25.673   0.734
 2527W        W74875  44.863  17.567  10.500
 2528W        W74876   2.905  44.950   3.740
 2529W        W74877  31.457  24.545  13.498
 2530W        W74878  10.855  37.562   0.921
 2531W        W74879  17.656  42.464   0.882
 2532W        W74880  44.276  29.953   4.638
 2533W        W74881  41.435  43.804  11.590
 2534W        W74882  15.120  11.238  13.970
 2535W        W74883   1.247   5.765  12.069
 2536W        W74884  11.317  16.637  10.571
 2537W        W74885  10.859  11.727  14.436
 2538W        W74886  39.493  28.143   1.254
 2539W        W74887  15.193  43.850  12.578
 2540W        W74888  40.521  32.398  14.290
 2541W        W74889  15.138  40.955  12.502
 2542W        W74890  25.035  32.396   2.367
 2543W        W74891  33.898  36.071   2.820
 2544W        W74892  32.537  11.214   4.816
 2545W        W74893   6.267   9.268  13.530
 2546W        W74894  31.502  27.577   2.319
 2547W        W74895  39.940  42.318   3.649
 2548W        W74896  42.987  43.788   4.233
 2549W        W74897  17.211   0.852   5.204
 2550W        W74898  32.140  11.719   0.822
 2551W        W74899  13.744  17.193  13.901
 2552W        W74900  27.106  25.568  11.063
 2553W        W74901  40.927   2.863  13.418
 2554W        W74902   8.210  12.156  14.492
 2555W        W74903   0.969  14.620  11.585
 2556W        W74904  12.616  40.310   3.652
 2557W        W74905  36.019  18.099   1.886
 2558W        W74906  15.303  29.644  11.000
 2559W        W74907  42.899   3.385   2.678
 2560W        W74908  35.516   1.373   4.174
 2561W        W74909  11.295  31.152   4.204
 2562W        W74910   3.746  23.118  13.030
 2563W        W74911  27.612  27.072  10.453
 2564W        W74912  26.957  41.037   2.857
 2565W        W74913  31.952   9.270   1.703
 2566W        W74914   9.840  19.762  14.395
 2567W        W74915  40.469  23.702   1.216
 2568W        W74916   8.688  25.530  14.296
 2569W        W74917  13.154  10.236   5.213
 2570W        W74918  40.840  40.928   4.335
 2571W        W74919  13.327  12.334  11.859
 2572W        W74920  24.632   1.746  10.497
 2573W        W74921  16.090  30.453   5.227
 2574W        W74922  27.465   1.775  14.398
 2575W        W74923  26.987  44.311   3.798
 2576W        W74924  28.088  40.868  14.012
 2577W        W74925  17.603   9.651  13.908
 2578W        W74926  23.641  43.297   1.766
 2579W        W74927  16.251  17.126   1.737
 2580W        W74928  13.189  21.222  10.113
 2581W        W74929  24.089  17.145  12.075
 2582W        W74930  11.772   8.369  14.485
 2583W        W74931  40.019  17.214  11.864
 2584W        W74932  20.729  20.556   2.349
 2585W        W74933  29.013   2.462  11.492
 2586W        W74934  33.465  14.196   3.376
 2587W        W74935   8.891   2.446   1.232
 2588W        W74936  21.734   8.803   9.635
 2589W        W74937  41.974  18.139  14.939
 2590W        W74938  39.894  20.694   3.378
 2591W        W74939   2.916   4.897  12.436
 2592W        W74940   7.808  43.358   4.646
 2593W        W74941   8.327  42.808   5.264
 2594W        W74942  10.306  30.483   2.688
 2595W        W74943  34.441  20.739   5.587
 2596W        W74944  26.520  35.970   0.810
 2597W        W74945   1.431   2.472  14.778
 2598W        W74946  15.653  41.006   1.904
 2599W        W74947   7.693  22.018   0.435
 2600W        W74948  27.120  13.229  11.430
 2601W        W74949   8.363   7.712   3.241
 2602W        W74950  43.513  43.925  14.395
 2603W        W74951   7.762  36.021   3.323
 2604W        W74952  24.567  42.965   1.913
 2605W        W74953   4.378   9.827   0.407
 2606W        W74954  23.716   2.813  13.943
 2607W        W74955  10.376   1.401   2.252
 2608W        W74956  29.096  34.579   1.867
 2609W        W74957  44.485  16.687   2.183
 2610W        W74958  18.115  25.525  13.432
 2611W        W74959   4.873  42.781  14.007
 2612W        W74960  16.583  39.514  14.988
 2613W        W74961  31.023  31.562   4.706
 2614W        W74962  21.098  31.599  12.823
 2615W        W74963  36.355  31.545  12.897
 2616W        W74964   3.795   0.298  13.996
 2617W        W74965  14.722  18.267  14.318
 2618W        W74966  35.416  26.998  11.036
 2619W        W74967   6.707  21.606   2.791
 2620W        W74968  14.265  28.075   2.707
 2621W        W74969  35.513  38.900   0.364
 2622W        W74970  22.135   8.325   9.633
 2623W        W74971  13.111  15.620   4.770
 2624W        W74972  33.122  10.221  11.374
 2625W        W74973  34.018  13.627   4.210
 2626W        W74974  41.362   9.236   4.284
 2627W        W74975  42.417  20.579  10.454
 2628W        W74976  18.629  40.972   0.406
 2629W        W74977   6.230  34.514   2.184
 2630W        W74978  16.810   7.713  11.895
 2631W        W74979  34.988  30.608  12.895
 2632W        W74980   8.747   9.693   1.935
 2633W        W74981  27.166   2.908   2.204
 2634W        W74982  26.141  21.612   1.805
 2635W        W74983  30.054  20.044  11.591
 2636W        W74984  10.685  19.130   1.221
 2637W        W74985  40.022  17.684   1.322
 2638W        W74986  18.276   2.441  14.979
 2639W        W74987  14.265   2.961  14.338
 2640W        W74988   0.353  44.321   4.798
 2641W        W74989  10.370   9.375  10.081
 2642W        W74990   4.444   3.275   0.810
 2643W        W74991  27.075  15.288  13.362
 2644W        W74992  24.218   8.830  10.426
 2645W        W74993  13.717  19.697  10.895
 2646W        W74994  29.592  11.204  13.916
 2647W        W74995  25.546  28.625   1.425
 2648W        W74996  32.622  27.174   0.828
 2649W        W74997  44.780  11.835  11.399
 2650W        W74998   0.330  32.595   0.480
 2651W        W74999   5.251   3.419  10.565
 2652W        W75000  11.709  35.046  11.483
 2653W        W75001  28.051  41.992  10.054
 2654W        W75002  21.234  23.619  14.779
 2655W        W75003  39.858  12.767  11.607
 2656W        W75004   4.812  22.048   1.340
 2657W        W75005  11.249   8.402  11.991
 2658W        W75006  26.480   4.444   1.734
 2659W        W75007  20.044  10.712  10.530
 2660W        W75008  12.710  43.346  11.078
 2661W        W75009  44.498  10.317   1.418
 2662W        W75010  43.430   0.479  11.525
 2663W        W75011  31.441  37.356   1.875
 2664W        W75012  20.683  19.672   3.687
 2665W        W75013  11.821   2.783   1.371
 2666W        W75014  30.962  23.203   0.759
 2667W        W75015  24.717   9.363  14.445
 2668W        W75016  26.531  12.815   2.364
 2669W        W75017  34.410  19.125  13.905
 2670W        W75018   9.355  33.593  12.401
 2671W        W75019  39.509  40.044  12.425
 2672W        W75020  44.827   1.454  10.887
 2673W        W75021  13.716  17.781  10.433
 2674W        W75022  19.114   7.183   0.262
 2675W        W75023  24.142  31.926  13.019
 2676W        W75024  31.032  23.206   4.676
 2677W        W75025  19.654  34.491  11.954
 2678W        W75026  22.626   1.902  12.436
 2679W        W75027  44.822  29.151   0.312
 2680W        W75028   2.794  37.357  13.507
 2681W        W75029  15.713   2.845  13.524
 2682W        W75030  22.108   1.861   1.220
 2683W        W75031  21.110  41.014   1.361
 2684W        W75032   3.312  12.719   1.331
 2685W        W75033  30.552   8.849  12.527
 2686W        W75034  13.753  17.170   0.344
 2687W        W75035  37.439  38.456  11.979
 2688W        W75036  38.476  22.629  10.603
 2689W        W75037  11.337   3.307   3.832
 2690W        W75038  34.372   7.759  13.483
 2691W        W75039  19.185  12.807   2.249
 2692W        W75040  19.138  38.392   4.755
 2693W        W75041  40.929  32.110   3.328
 2694W        W75042  30.514  17.230  11.055
 2695W        W75043  16.659   5.416  13.944
 2696W        W75044   9.700  37.521  10.422
 2697W        W75045  28.485   0.258  14.440
 2698W        W75046   9.309   5.778   3.313
 2699W        W75047  25.550  23.589   3.370
 2700W        W75048  13.193  29.077   2.208
 2701W        W75049  38.406  36.351   1.709
 2702W        W75050  27.093  11.721  12.970
 2703W        W75051  13.130  28.046  12.423
 2704W        W75052  30.605  33.480   0.915
 2705W        W75053  10.311   0.283   0.898
 2706W        W75054  43.817   8.742   2.297
 2707W        W75055   6.742  16.669  13.416
 2708W        W75056  32.932  41.879   0.271
 2709W        W75057   7.886  16.741  14.015
 2710W        W75058  15.683  44.370  11.967
 2711W        W75059  12.695  36.454   3.159
 2712W        W75060  13.793  11.205  13.497
 2713W        W75061  33.501  24.130   5.106
 2714W        W75062   7.795  42.999   2.735
 2715W        W75063  36.480  10.361   2.179
 2716W        W75064  22.082  11.773   4.669
 2717W        W75065  21.703  33.433  11.574
 2718W        W75066  14.758   3.866   0.940
 2719W        W75067  37.484  29.097   1.870
 2720W        W75068  29.457  16.140   2.882
 2721W        W75069  41.845  32.067   0.295
 2722W        W75070   9.382   2.432   2.236
 2723W        W75071  32.589  16.694  10.472
 2724W        W75072   4.281  43.354  10.929
 2725W        W75073  15.802   1.836  14.980
 2726W        W75074  16.276  32.891   2.745
 2727W        W75075  33.500  19.203  13.813
 2728W        W75076  35.024  22.567   0.447
 2729W        W75077  22.160  27.513  11.930
 2730W        W75078  41.519   2.734   2.359
 2731W        W75079   2.401  10.342  14.462
 2732W        W75080  43.952   8.778   0.396
 2733W        W75081   4.709   4.881  13.047
 2734W        W75082   1.864  26.593   2.383
 2735W        W75083  14.157  29.540  13.992
 2736W        W75084  11.793  27.068  12.485
 2737W        W75085  43.943  21.031   2.668
 2738W        W75086  24.064  21.168   2.348
 2739W        W75087  33.480  40.799   3.370
 2740W        W75088  38.060  34.981  13.955
 2741W        W75089  17.666  30.512  14.392
 2742W        W75090  23.140  10.748   3.776
 2743W        W75091   6.838  30.422  11.930
 2744W        W75092  38.405  24.705  10.413
 2745W        W75093  16.289  13.107  14.824
 2746W        W75094  28.949   8.336  11.892
 2747W        W75095  36.927  38.331  13.911
 2748W        W75096   5.833   0.822  14.780
 2749W        W75097  39.887  17.061   1.309
 2750W        W75098   6.303  39.007  11.497
 2751W        W75099  12.150  40.939   1.777
 2752W        W75100  40.982  22.646   0.894
 2753W        W75101  18.052  11.704  11.469
 2754W        W75102  27.459  40.547  13.006
 2755W        W75103  24.562  43.783  12.526
 2756W        W75104  17.140  41.901   3.310
 2757W        W75105  42.332  23.127  14.912
 2758W        W75106  13.296  27.180  14.786
 2759W        W75107  24.993  36.089   1.820
 2760W        W75108  22.646   4.389   3.808
 2761W        W75109   9.717  33.521  13.033
 2762W        W75110  15.785  32.976  10.024
 2763W        W75111   8.246  17.753   1.733
 2764W        W75112  23.565   7.846  12.047
 2765W        W75113  18.196  34.440  11.952
 2766W        W75114  28.611  25.476  11.952
 2767W        W75115  41.351  25.616   1.825
 2768W        W75116  27.105   8.757  11.012
 2769W        W75117   8.755  12.648   4.666
 2770W        W75118   7.771  16.295   2.833
 2771W        W75119  41.041  12.703  14.512
 2772W        W75120   0.853  36.994   0.810
 2773W        W75121  17.747  22.129  14.872
 2774W        W75122  37.036  32.070  12.374
 2775W        W75123  22.597  14.279   0.297
 2776W        W75124  25.499  30.931  11.446
 2777W        W75125  32.138  23.731   1.700
 2778W        W75126  14.148  38.458   2.825
 2779W        W75127   0.813  10.634   2.756
 2780W        W75128  27.679  15.225   4.323
 2781W        W75129  30.486  17.304  12.054
 2782W        W75130  34.053  42.877   3.282
 2783W        W75131  39.821   5.919   2.194
 2784W        W75132   3.379   7.825   1.820
 2785W        W75133  21.227  10.171  13.375
 2786W        W75134  22.222  43.360  13.914
 2787W        W75135  22.067  24.210   0.374
 2788W        W75136  43.941  26.199  12.391
 2789W        W75137  14.721  40.820   3.836
 2790W        W75138  27.598  17.579   2.339
 2791W        W75139  43.379  39.548  13.863
 2792W        W75140   7.279  15.636  13.851
 2793W        W75141  35.583  41.831  10.558
 2794W        W75142  40.840   5.432   4.137
 2795W        W75143   1.740   9.334   4.753
 2796W        W75144  42.797  21.754  14.371
 2797W        W75145  41.033   6.397   2.226
 2798W        W75146  14.282  11.674   3.281
 2799W        W75147  32.520  44.274  14.924
 2800W        W75148  20.237   1.902  12.032
 2801W        W75149   0.338  11.163  12.364
 2802W        W75150  19.756  17.063   2.216
 2803W        W75151  30.462  39.330   2.300
 2804W        W75152  24.642   4.438  11.487
 2805W        W75153  35.369  24.512   3.355
 2806W        W75154  36.054  16.807   1.781
 2807W        W75155  16.713  22.145   2.667
 2808W        W75156  20.689  27.042   4.740
 2809W        W75157   0.323  12.280   4.711
 2810W        W75158  10.760  15.193   2.684
 2811W        W75159  25.536   1.444  12.875
 2812W        W75160  36.390   4.841   1.915
 2813W        W75161  17.218   3.326  14.896
 2814W        W75162  20.263  21.098   1.238
 2815W        W75163  23.721  15.244  11.125
 2816W        W75164  27.171   4.272   4.275
 2817W        W75165  21.254  25.484  11.472
 2818W        W75166  26.538  18.712   3.285
 2819W        W75167  40.417  15.132  13.521
 2820W        W75168   4.441  40.421  11.594
 2821W        W75169  41.036  35.414  10.967
 2822W        W75170  25.579   5.338   1.781
 2823W        W75171   4.269  44.913  13.333
 2824W        W75172  41.491  40.040   4.248
 2825W        W75173  26.966  43.777  13.438
 2826W        W75174  26.608  15.704   3.278
 2827W        W75175   0.850  40.350   2.331
 2828W        W75176  23.087  40.519  11.462
 2829W        W75177  41.393   5.717  11.591
 2830W        W75178  44.884  36.582  13.920
 2831W        W75179  13.146  32.545  12.004
 2832W        W75180  43.434  26.516  12.962
 2833W        W75181  25.518  43.896  12.571
 2834W        W75182  29.432  33.988   1.428
 2835W        W75183   9.235  33.552   2.346
 2836W        W75184  43.775  25.095  14.450
 2837W        W75185  20.679  29.452   4.681
 2838W        W75186  15.116  28.653   4.765
 2839W        W75187  17.182   2.431   0.837
 2840W        W75188  40.368  34.529  10.918
 2841W        W75189   3.458  20.207  13.034
 2842W        W75190  31.116  41.899  14.301
 2843W        W75191  23.618  33.108  13.422
 2844W        W75192   5.844  22.581  10.963
 2845W        W75193  42.442   4.913   1.790
 2846W        W75194  33.597  37.510  10.129
 2847W        W75195  20.182  35.997  14.015
 2848W        W75196  15.703  40.834  13.857
 2849W        W75197  12.258  23.209  11.413
 2850W        W75198  21.524  16.772  13.049
 2851W        W75199   8.888  42.492   2.830
 2852W        W75200   4.365  28.531  13.531
 2853W        W75201  25.135  29.661   4.795
 2854W        W75202   6.239  16.221  13.934
 2855W        W75203   9.156  44.396  12.942
 2856W        W75204  43.926   6.201  10.969
 2857W        W75205  11.709  18.595  11.933
 2858W        W75206  29.029  29.971   0.440
 2859W        W75207  10.369   0.383  13.535
 2860W        W75208  35.073  14.255   0.745
 2861W        W75209  17.673  17.665  14.344
 2862W        W75210   0.930  35.946  13.922
 2863W        W75211  30.933  41.349   2.788
 2864W        W75212  32.463  32.567  11.586
 2865W        W75213  21.715  22.205  10.979
 2866W        W75214   2.926   2.349  10.468
 2867W        W75215  42.339  42.928   2.331
 2868W        W75216  22.241  30.018   3.726
 2869W        W75217  19.087  26.971   0.385
 2870W        W75218  38.544  13.602  11.449
 2871W        W75219  21.083  21.519   1.838
 2872W        W75220  19.674  31.095   3.638
 2873W        W75221   9.792  41.982  10.569
 2874W        W75222  13.630   5.271   3.637
 2875W        W75223  42.833  22.633  13.942
 2876W        W75224  11.699  15.798  11.453
 2877W        W75225  20.667  43.963   2.838
 2878W        W75226   8.274  21.185  11.076
 2879W        W75227  28.070  31.596  12.381
 2880W        W75228   0.286  15.580   0.730
 2881W        W75229  19.668  32.394  11.922
 2882W        W75230  17.614  29.134   4.236
 2883W        W75231  16.803  33.892   4.702
 2884W        W75232  24.013  33.039   4.629
 2885W        W75233  26.970  13.777  13.344
 2886W        W75234  21.063  13.197  14.485
 2887W        W75235   6.797  22.701  10.500
 2888W        W75236  27.676  40.925   4.716
 2889W        W75237  35.373  14.273  14.922
 2890W        W75238  13.279   6.385  12.409
 2891W        W75239   1.829   6.740  13.504
 2892W        W75240  36.945  30.489   4.302
 2893W        W75241  38.885  28.181  12.970
 2894W        W75242   7.188   0.924  14.881
 2895W        W75243  23.723  25.488   3.730
 2896W        W75244  25.606  11.862  13.832
 2897W        W75245  25.088  28.533  14.411
 2898W        W75246  44.809  24.985   3.728
 2899W        W75247  10.647  38.934  11.862
 2900W        W75248   9.682  23.579  13.966
 2901W        W75249  28.545   1.894  12.930
 2902W        W75250  22.521  17.740   2.376
 2903W        W75251  11.822  43.986  14.357
 2904W        W75252  23.079  36.588   0.836
 2905W        W75253  31.449   8.879  11.995
 2906W        W75254   3.396  43.006   2.854
 2907W        W75255  31.541  38.068   0.329
 2908W        W75256  41.927  25.536  10.615
 2909W        W75257  33.128  21.644  14.004
 2910W        W75258   4.705  32.425   3.309
 2911W        W75259  27.629  16.149   1.803
 2912W        W75260  42.016  15.648  13.839
 2913W        W75261  43.015  16.801  14.898
 2914W        W75262  12.227  31.533  11.585
 2915W        W75263  43.284  26.575   3.217
 2916W        W75264  22.060   6.344  10.949
 2917W        W75265  26.646  32.938   2.408
 2918W        W75266   6.878  27.507   0.928
 2919W        W75267   1.962   6.321   2.739
 2920W        W75268  12.856  44.297   4.141
 2921W        W75269  19.150  20.215   4.719
 2922W        W75270   9.343  14.820  13.047
 2923W        W75271  43.314  23.101   4.193
 2924W        W75272   3.415  12.660   2.746
 2925W        W75273  40.028  28.569  11.493
 2926W        W75274  40.397  12.803  13.843
 2927W        W75275   8.665  22.679   5.225
 2928W        W75276  43.848  38.435   3.347
 2929W        W75277  17.079  14.638   2.859
 2930W        W75278  15.170   9.698  11.933
 2931W        W75279  26.973  13.777   3.685
 2932W        W75280  21.103  41.516   3.364
 2933W        W75281  12.139   4.363   4.675
 2934W        W75282  23.229   7.270   3.843
 2935W        W75283  26.646  27.494  11.974
 2936W        W75284  14.682  35.080   4.289
 2937W        W75285  38.836   8.334  14.905
 2938W        W75286   3.909  16.692  13.326
 2939W        W75287  34.867  14.798   1.883
 2940W        W75288  39.942  42.390  12.573
 2941W        W75289  34.974  43.337   2.819
 2942W        W75290  38.916  16.737  14.388
 2943W        W75291  18.568  16.695  13.500
 2944W        W75292  44.277   5.257   0.753
 2945W        W75293   4.270   6.378   3.238
 2946W        W75294   3.305  25.969  12.834
 2947W        W75295   5.767  14.160   2.793
 2948W        W75296   8.259  43.844  14.396
 2949W        W75297  21.064  32.105  14.873
 2950W        W75298   2.960  14.825  10.634
 2951W        W75299  19.729  13.743  11.947
 2952W        W75300  15.583   8.286  11.453
 2953W        W75301  28.144  12.734  13.939
 2954W        W75302  22.128  19.162  14.913
 2955W        W75303  22.218  28.674   1.740
 2956W        W75304  36.361  13.752  11.387
 2957W        W75305  23.008  14.251   0.337
 2958W        W75306  29.131  25.974  10.573
 2959W        W75307   5.849   0.342  11.495
 2960W        W75308  30.126  11.362  11.035
 2961W        W75309  31.149  37.866  11.407
 2962W        W75310  30.432  24.591   4.218
 2963W        W75311  25.058   8.181   4.806
 2964W        W75312  14.231  14.694  10.432
 2965W        W75313  31.985  18.764   2.231
 2966W        W75314  20.565  42.830   1.823
 2967W        W75315   8.758   6.715   4.831
 2968W        W75316  44.289  19.162   1.694
 2969W        W75317  36.466  38.885  11.513
 2970W        W75318  43.884  38.479   4.120
 2971W        W75319   8.868  36.099   4.719
 2972W        W75320  33.934  31.972   4.615
 2973W        W75321  25.105  31.127   1.429
 2974W        W75322  22.631  22.184   2.416
 2975W        W75323  44.419  13.164   0.456
 2976W        W75324  39.821  23.210  11.949
 2977W        W75325  36.524  21.085   4.767
 2978W        W75326  34.471  28.500  11.889
 2979W        W75327   2.449  22.698  14.422
 2980W        W75328  18.625   6.892   1.256
 2981W        W75329  25.142   0.316   3.306
 2982W        W75330  21.030  41.333   9.931
 2983W        W75331  42.286   5.911  13.024
 2984W        W75332  21.565  30.162  13.960
 2985W        W75333  35.437  20.110  12.406
 2986W        W75334  38.964  15.230  12.402
 2987W        W75335  39.318  29.012   2.883
 2988W        W75336  11.849  38.496  10.909
 2989W        W75337  42.776  35.951  12.465
 2990W        W75338  36.492  36.593   4.745
 2991W        W75339  36.967  26.005   0.919
 2992W        W75340   5.256   5.310  14.337
 2993W        W75341  24.668  20.072   0.406
 2994W        W75342  16.207  43.816   2.305
 2995W        W75343  10.380  21.248   2.853
 2996W        W75344  43.289  37.998   4.321
 2997W        W75345   4.443  44.309   1.425
 2998W        W75346  22.689  30.465   0.411
 2999W        W75347  34.060   6.818   2.198
 3000W        W75348  41.904  30.582   4.800
 3001W        W75349   5.373   7.904  10.948
 3002W        W75350  38.532  15.807  11.989
 3003W        W75351  28.019  41.815  13.507
 3004W        W75352  30.551  21.693   3.182
 3005W        W75353  12.141  20.183  11.040
 3006W        W75354  30.437  38.386  12.484
 3007W        W75355  38.925  40.879   2.376
 3008W        W75356  27.045   1.397   1.823
 3009W        W75357  15.131  26.131   0.417
 3010W        W75358  28.929  37.913   2.827
 3011W        W75359  26.458   4.264  11.955
 3012W        W75360  22.643  15.252  13.409
 3013W        W75361  44.374   8.729   5.299
 3014W        W75362  28.100  38.336   3.767
 3015W        W75363   9.698  20.645  10.544
 3016W        W75364  18.743  22.581   4.187
 3017W        W75365  23.582  21.073  10.630
 3018W        W75366  11.365   4.334   2.833
 3019W        W75367   9.229   3.357  10.042
 3020W        W75368  33.615  10.740   3.193
 3021W        W75369  19.756  39.040  14.931
 3022W        W75370  41.877  26.650  13.829
 3023W        W75371  22.047  42.488   0.380
 3024W        W75372  30.041  35.971   3.268
 3025W        W75373  21.042  10.349   0.265
 3026W        W75374  33.476  42.883   1.741
 3027W        W75375  10.232  11.638  13.028
 3028W        W75376  17.720  30.438   1.271
 3029W        W75377   0.883  35.604  14.824
 3030W        W75378  25.037  25.017   3.209
 3031W        W75379  19.182  13.145  11.045
 3032W        W75380  21.516  31.988  10.579
 3033W        W75381   2.844  22.584   2.742
 3034W        W75382  40.434  33.097   3.838
 3035W        W75383  11.309  20.613   0.406
 3036W        W75384  33.458   5.243   4.235
 3037W        W75385  31.034  23.055   0.322
 3038W        W75386  21.636  17.671  12.039
 3039W        W75387  37.480  20.580  13.015
 3040W        W75388   5.285   4.898   1.310
 3041W        W75389  22.062  34.564  13.854
 3042W        W75390  15.669  40.497  11.109
 3043W        W75391  40.453  36.457   3.183
 3044W        W75392  25.490  13.754   0.338
 3045W        W75393  38.409   4.345  14.959
 3046W        W75394  12.836  25.531  12.863
 3047W        W75395  44.008  32.939   3.831
 3048W        W75396   7.299  27.579  11.432
 3049W        W75397  32.911   7.307   4.645
 3050W        W75398   7.411  28.064  12.056
 3051W        W75399  28.987  19.749  13.433
 3052W        W75400  28.086   7.742  13.908
 3053W        W75401  25.022   2.333   2.399
 3054W        W75402  15.109  16.736  14.511
 3055W        W75403  17.579  40.047  12.369
 3056W        W75404   7.239  37.075  14.825
 3057W        W75405  16.795  22.720   2.795
 3058W        W75406  30.060  36.352   0.756
 3059W        W75407  14.123   2.853   1.438
 3060W        W75408  15.753   2.769  12.073
 3061W        W75409  36.047  14.774  12.548
 3062W        W75410   0.811  32.934  13.884
 3063W        W75411  27.533  43.472  14.381
 3064W        W75412  44.289  25.503  13.374
 3065W        W75413  32.943  43.300  14.464
 3066W        W75414   5.253  19.660   3.158
 3067W        W75415  20.636  32.943   2.204
 3068W        W75416  39.318   8.655   4.150
 3069W        W75417  23.184  32.558   0.433
 3070W        W75418  35.396  41.876   0.319
 3071W        W75419   4.381  15.304  13.877
 3072W        W75420  32.402  26.568   2.848
 3073W        W75421   2.730   3.754  12.025
 3074W        W75422  40.379   7.230  11.424
 3075W        W75423  35.584  22.196  13.425
 3076W        W75424  43.836   6.384  11.389
 3077W        W75425  26.535  37.459   1.719
 3078W        W75426  18.704  29.561   3.709
 3079W        W75427  36.975  35.081   2.252
 3080W        W75428  13.335  13.215  14.015
 3081W        W75429  42.420  36.568   0.738
 3082W        W75430  18.249   3.811  14.875
 3083W        W75431  38.043   0.984  11.930
 3084W        W75432  16.116  40.368   2.343
 3085W        W75433  21.693   6.723   4.267
 3086W        W75434  27.944  42.476  14.823
 3087W        W75435   3.712   6.344  13.366
 3088W        W75436   7.392  23.045   4.825
 3089W        W75437  27.578   1.788  11.022
 3090W        W75438  13.611  21.699   2.692
 3091W        W75439  11.727  14.631  10.554
 3092W        W75440  12.130  12.183   3.265
 3093W        W75441  24.653   9.192   0.727
 3094W        W75442  22.629  21.614   2.836
 3095W        W75443  12.323  10.690   0.923
 3096W        W75444  28.554   3.945   2.215
 3097W        W75445  35.564   5.755   2.389
 3098W        W75446  31.081  10.737   4.140
 3099W        W75447  29.604  13.155  10.571
 3100W        W75448  15.186  19.152  14.828
 3101W        W75449  23.615  42.928   2.900
 3102W        W75450  27.181   4.418   1.874
 3103W        W75451  16.621   5.417   1.446
 3104W        W75452  40.414  38.075   4.658
 3105W        W75453  20.657  36.435  13.872
 3106W        W75454  37.077  37.957   4.221
 3107W        W75455  35.564  36.442  11.608
 3108W        W75456  36.949  35.985  14.468
 3109W        W75457  34.112  23.680  10.931
 3110W        W75458  44.884  39.917   0.864
 3111W        W75459   9.307  26.169  14.813
 3112W        W75460  44.836  37.431  11.602
 3113W        W75461  12.330  35.368   1.326
 3114W        W75462  14.782  31.491   1.907
 3115W        W75463  11.289   9.171   1.702
 3116W        W75464  10.153  35.965   3.324
 3117W        W75465   2.324  36.439  13.914
 3118W        W75466  28.574  44.839  12.017
 3119W        W75467  22.678  35.596   2.297
 3120W        W75468  38.022   2.330   0.410
 3121W        W75469  31.558  38.335   3.382
 3122W        W75470  21.249  13.336   5.255
 3123W        W75471  25.551  15.213  11.966
 3124W        W75472  42.802  27.534  12.500
 3125W        W75473  28.601  42.430  13.454
 3126W        W75474  28.046  32.933  14.426
 3127W        W75475  10.852  12.131  10.991
 3128W        W75476   7.243   7.209  14.885
 3129W        W75477  43.986  32.545  14.934
 3130W        W75478  18.239  13.718  14.961
 3131W        W75479  12.312  39.915   1.368
 3132W        W75480  27.143   0.977  14.335
 3133W        W75481  26.693  18.147   4.756
 3134W        W75482  18.104  27.586   1.721
 3135W        W75483  21.652   1.754   4.151
 3136W        W75484  31.528  26.507  11.037
 3137W        W75485  33.434   3.222  12.884
 3138W        W75486   4.835  34.491  12.833
 3139W        W75487  42.827  28.530  12.824
 3140W        W75488   0.953  31.433   3.860
 3141W        W75489  16.261  39.047   1.268
 3142W        W75490  11.738   8.282  11.951
 3143W        W75491  22.123  23.592   4.322
 3144W        W75492  22.618  32.912  11.447
 3145W        W75493  33.400   7.190   0.820
 3146W        W75494  33.938  25.552  14.436
 3147W        W75495   3.248  18.266  10.549
 3148W        W75496  27.650  18.244  11.601
 3149W        W75497  23.224  24.090   4.600
 3150W        W75498  39.374  34.918   0.249
 3151W        W75499  38.022  42.947  11.094
 3152W        W75500  13.117   6.903   0.249
 3153W        W75501  31.945   6.188  13.979
 3154W        W75502  43.897  37.525   4.266
 3155W        W75503  37.073  31.019   4.633
 3156W        W75504  41.385  42.835   2.184
 3157W        W75505  25.674  23.186  13.798
 3158W        W75506  41.513  30.449  11.111
 3159W        W75507   9.714  32.127   2.220
 3160W        W75508  16.216  31.567   0.795
 3161W        W75509   9.314  30.984   1.875
 3162W        W75510   6.229  25.064   4.769
 3163W        W75511  26.564   3.396  11.935
 3164W        W75512  19.104  36.908   3.368
 3165W        W75513  40.982  41.883  12.901
 3166W        W75514  13.152  11.367  11.509
 3167W        W75515  28.060  15.731  13.933
 3168W        W75516  18.722  11.863  13.384
 3169W        W75517  38.394  29.572   2.828
 3170W        W75518  10.291  35.593   1.711
 3171W        W75519  40.535  44.404  13.945
 3172W        W75520  35.522  14.253   5.247
 3173W        W75521  37.479  23.612   1.301
 3174W        W75522  39.550  29.970  14.827
 3175W        W75523  35.547  38.830  12.054
 3176W        W75524  16.612   8.884  11.372
 3177W        W75525  36.587   6.769  13.411
 3178W        W75526  16.148  18.275  14.420
 3179W        W75527  32.509  40.362  10.041
 3180W        W75528  17.670  13.232  12.400
 3181W        W75529  27.537  43.329  10.559
 3182W        W75530   3.401  21.561   0.276
 3183W        W75531  21.701   3.247   3.319
 3184W        W75532  13.805   3.761   2.864
 3185W        W75533  34.009  30.624   3.865
 3186W        W75534  18.685  31.906  13.541
 3187W        W75535  22.512  44.764  14.291
 3188W        W75536  34.421  26.592  13.411
 3189W        W75537  31.505  43.895   3.177
 3190W        W75538  19.207  16.152  12.515
 3191W        W75539  27.956  40.850  14.364
 3192W        W75540  22.183  20.045   3.285
 3193W        W75541  43.464  43.946   1.916
 3194W        W75542   1.816  25.995   4.136
 3195W        W75543  40.032  12.681  11.016
 3196W        W75544  30.520  37.846   3.257
 3197W        W75545   4.413  18.162   2.774
 3198W        W75546  27.654   2.807   0.962
 3199W        W75547  27.046  15.751  11.926
 3200W        W75548  26.628  42.381  10.929
 3201W        W75549  34.593  37.425   2.403
 3202W        W75550   5.322  43.509   3.362
 3203W        W75551  17.766  34.036   3.215
 3204W        W75552   5.357  13.677   2.263
 3205W        W75553  26.652  28.148   0.251
 3206W        W75554   1.256  44.323  11.083
 3207W        W75555  26.047  17.584   2.897
 3208W        W75556   0.330  20.231  11.053
 3209W        W75557   1.774  13.815  13.809
 3210W        W75558  19.089  34.106   4.687
 3211W        W75559  16.317  34.412   1.234
 3212W        W75560  26.117  27.552  10.476
 3213W        W75561  37.946  13.161  12.479
 3214W        W75562   9.261  26.188  12.987
 3215W        W75563  28.131  20.689   1.258
 3216W        W75564   5.692  12.657  14.472
 3217W        W75565  13.667  30.981   1.914
 3218W        W75566   1.807  28.551   4.323
 3219W        W75567  40.374   3.363   9.994
 3220W        W75568   6.730   0.363  11.036
 3221W        W75569   4.284  41.300  12.019
 3222W        W75570  41.881  35.409  12.378
 3223W        W75571   5.260   1.848  13.985
 3224W        W75572  15.254   3.865   2.318
 3225W        W75573  44.362   1.238   1.286
 3226W        W75574  25.481   8.786  10.433
 3227W        W75575  15.629  34.383  13.501
 3228W        W75576  22.022  15.704   1.818
 3229W        W75577  27.628  44.337  11.066
 3230W        W75578  10.844  44.430  11.103
 3231W        W75579  13.152  28.122  14.984
 3232W        W75580  24.628  33.911   0.960
 3233W        W75581  35.995  41.031  13.995
 3234W        W75582  36.580  22.527  13.914
 3235W        W75583  42.382   9.379   1.754
 3236W        W75584  43.356  24.577   2.378
 3237W        W75585  32.080   6.873   3.777
 3238W        W75586  27.546  26.698   2.842
 3239W        W75587   6.201  34.906  11.481
 3240W        W75588  22.580  27.060   1.845
 3241W        W75589  16.318  33.515   1.325
 3242W        W75590  25.629  34.375  14.936
 3243W        W75591  11.859  40.315   3.815
 3244W        W75592  33.032  25.015   3.647
 3245W        W75593  14.228  31.497  12.907
 3246W        W75594  34.000   8.222  13.851
 3247W        W75595  35.589   2.290  10.512
 3248W        W75596   6.793  33.896  11.479
 3249W        W75597   3.754  14.328  14.762
 3250W        W75598  25.119  37.565   1.317
 3251W        W75599   6.213   9.781   1.349
 3252W        W75600  35.398   1.285   1.818
 3253W        W75601   0.869  39.947   4.677
 3254W        W75602  14.304   3.916  13.916
 3255W        W75603  34.379  14.150  12.871
 3256W        W75604  34.059  32.973   2.719
 3257W        W75605  24.028  20.538  14.791
 3258W        W75606  18.162  21.554   1.849
 3259W        W75607  20.055   9.852   3.383
 3260W        W75608  39.955  32.504   3.369
 3261W        W75609  35.880  23.048   2.676
 3262W        W75610  35.092  36.448  14.910
 3263W        W75611  22.746  10.814  13.342
 3264W        W75612  21.023   2.417   1.214
 3265W        W75613  32.103  24.084   2.846
 3266W        W75614  22.720   7.750  11.382
 3267W        W75615  12.835  43.376   2.867
 3268W        W75616  15.766  31.953   4.298
 3269W        W75617  36.365  18.246  13.456
 3270W        W75618   2.295  30.511   3.257
 3271W        W75619  32.414  24.626  11.520
 3272W        W75620  34.992  39.403   1.326
 3273W        W75621   1.444  30.467  13.369
 3274W        W75622   7.904  22.214  11.945
 3275W        W75623   6.881  33.920  13.377
 3276W        W75624   4.934  11.261  10.151
 3277W        W75625  35.499  37.363   9.980
 3278W        W75626  14.316  13.145   2.297
 3279W        W75627  37.966  20.551   1.443
 3280W        W75628   1.810   1.265  11.579
 3281W        W75629  21.115  32.003   4.322
 3282W        W75630  44.865  25.160  14.357
 3283W        W75631  18.282   7.903  14.499
 3284W        W75632   8.218  24.694  10.918
 3285W        W75633  15.733   5.805   4.608
 3286W        W75634  24.574  40.357   1.217
 3287W        W75635  34.099   3.279  10.938
 3288W        W75636  42.898  23.136   4.258
 3289W        W75637   7.383  29.117   3.781
 3290W        W75638  44.488  33.394  13.500
 3291W        W75639  37.438  34.109  13.060
 3292W        W75640   1.262   4.404   3.767
 3293W        W75641  35.094  14.243   4.320
 3294W        W75642  21.123  12.270   3.670
 3295W        W75643  28.019   7.835  13.034
 3296W        W75644  14.178  14.323  12.856
 3297W        W75645  14.219  23.644  13.325
 3298W        W75646   3.282  26.527   3.681
 3299W        W75647  38.876   3.720  10.966
 3300W        W75648   7.362  25.652  13.372
 3301W        W75649  20.567  39.453   3.832
 3302W        W75650  37.571  21.063  10.586
 3303W        W75651  23.581  41.885   1.365
 3304W        W75652  42.456   5.426   4.208
 3305W        W75653  33.895   6.334   5.270
 3306W        W75654  23.089  22.607  14.952
 3307W        W75655  38.370  11.676   4.611
 3308W        W75656   2.389  10.143   1.324
 3309W        W75657  24.696   0.399  12.945
 3310W        W75658   3.234  26.463  10.103
 3311W        W75659  27.953  23.038   3.334
 3312W        W75660  34.021  24.072  14.403
 3313W        W75661  42.832  39.551  11.610
 3314W        W75662  24.106  35.434  12.016
 3315W        W75663  23.729   7.884   5.609
 3316W        W75664   2.774  25.212  11.447
 3317W        W75665   9.645   9.246  13.337
 3318W        W75666  20.665  25.149  11.552
 3319W        W75667   8.665  35.456   4.760
 3320W        W75668  34.035  24.703  11.412
 3321W        W75669  15.781   8.273  14.339
 3322W        W75670  21.145   3.445   1.720
 3323W        W75671   9.166  39.008  10.509
 3324W        W75672   1.892  44.850   3.351
 3325W        W75673   7.398  34.985   2.275
 3326W        W75674  36.904  24.219  12.448
 3327W        W75675  18.127  27.455  10.986
 3328W        W75676  44.457  35.464  13.064
 3329W        W75677   2.454  26.992   0.793
 3330W        W75678  40.395  22.239  13.343
 3331W        W75679  27.149  10.700  12.062
 3332W        W75680  19.562  10.709   4.705
 3333W        W75681  16.780  25.117  10.983
 3334W        W75682  15.590   5.846  14.873
 3335W        W75683  34.980   3.326   4.121
 3336W        W75684  28.963  13.129   3.200
 3337W        W75685  18.138   6.692   2.257
 3338W        W75686  19.222   5.908  11.979
 3339W        W75687   2.923   1.907   3.642
 3340W        W75688  11.775  23.028   1.441
 3341W        W75689  19.571  15.663   3.851
 3342W        W75690  18.767  14.604   1.425
 3343W        W75691  24.154   8.165  13.365
 3344W        W75692  15.119   6.806   3.335
 3345W        W75693  43.362  28.653  13.418
 3346W        W75694  29.575  23.562   3.736
 3347W        W75695   3.303  43.840   1.381
 3348W        W75696  13.229  18.157   3.803
 3349W        W75697  24.604  25.045   0.854
 3350W        W75698  12.274   9.799   4.817
 3351W        W75699  20.688  41.334  12.052
 3352W        W75700  13.628  31.122  14.759
 3353W        W75701  26.516  19.155  12.852
 3354W        W75702  27.954   0.784   1.383
 3355W        W75703   6.841  44.482   2.860
 3356W        W75704  41.406  36.069   1.743
 3357W        W75705   6.197  10.837   0.336
 3358W        W75706  31.906  41.454   2.862
 3359W        W75707  31.078  18.639   0.472
 3360W        W75708  12.846  28.125  10.928
 3361W        W75709   3.854   0.831   0.316
 3362W        W75710  31.603  18.235   1.419
 3363W        W75711  38.852  35.855  13.049
 3364W        W75712   7.728  37.336   5.289
 3365W        W75713  18.670   9.656   3.310
 3366W        W75714  41.831  39.808  13.475
 3367W        W75715  19.200  11.322   4.281
 3368W        W75716  44.825  21.226  10.415
 3369W        W75717   9.325  22.583  13.811
 3370W        W75718  27.004   0.383  13.446
 3371W        W75719  36.542  40.891  12.507
 3372W        W75720  26.659  42.925  12.983
 3373W        W75721  44.960  42.925   2.776
 3374W        W75722   0.812   7.376  13.972
 3375W        W75723  38.063   9.250   4.641
 3376W        W75724  13.251  22.047  12.923
 3377W        W75725  15.745  25.043  11.929
 3378W        W75726  19.094  32.612  14.932
 3379W        W75727  35.520  36.031  14.964
 3380W        W75728  14.289  38.946  11.009
 3381W        W75729  26.558  16.616  12.551
 3382W        W75730   8.312  20.272  13.978
 3383W        W75731  42.281  20.750   4.656
 3384W        W75732   1.789  22.650   4.763
 3385W        W75733  26.138  35.477  13.045
 3386W        W75734   3.427  37.912  11.067
 3387W        W75735  12.313  43.515  11.118
 3388W        W75736   0.793  19.759  13.352
 3389W        W75737  22.222  29.940   3.244
 3390W        W75738  13.113  16.275   4.180
 3391W        W75739  17.166  32.961   2.711
 3392W        W75740  20.120   7.665   2.277
 3393W        W75741   3.448  24.723   0.896
 3394W        W75742   8.848  31.598   4.764
 3395W        W75743  16.205   2.450   0.471
 3396W        W75744  30.417  29.597  10.954
 3397W        W75745  19.668  40.830  11.002
 3398W        W75746  36.560  31.639   2.194
 3399W        W75747  42.363   5.886   4.186
 3400W        W75748  11.662  35.921  13.329
 3401W        W75749  35.911  26.620   2.717
 3402W        W75750  16.771  13.270   0.760
 3403W        W75751   3.780  34.561   3.800
 3404W        W75752  26.153  31.494  11.440
 3405W        W75753  17.101  43.963   1.341
 3406W        W75754  12.637  17.581  13.372
 3407W        W75755  27.945  16.804   1.386
 3408W        W75756  10.176  25.002   9.997
 3409W        W75757   2.373  14.756  10.530
 3410W        W75758  22.702  22.109   3.731
 3411W        W75759  32.023   4.768  14.010
 3412W        W75760  31.121  38.447   1.697
 3413W        W75761  43.765  41.473   0.849
 3414W        W75762  37.989   2.947  14.390
 3415W        W75763   9.220  22.584   0.752
 3416W        W75764  44.282  43.485  14.434
 3417W        W75765  35.938  24.142   4.116
 3418W        W75766  44.847  39.456  11.500
 3419W        W75767   1.868   1.388  13.957
 3420W        W75768  29.639  31.069   2.312
 3421W        W75769  17.224   1.390  10.462
 3422W        W75770  26.478   8.840  11.059
 3423W        W75771  15.083  30.603   3.322
 3424W        W75772  11.342   9.365  10.896
 3425W        W75773  37.871   9.178  11.546
 3426W        W75774  18.564  32.931  14.903
 3427W        W75775  38.505  21.155   3.223
 3428W        W75776  21.204   0.248   3.840
 3429W        W75777  36.541   1.756  10.011
 3430W        W75778  20.531  43.938  10.964
 3431W        W75779  29.120   8.744  12.002
 3432W        W75780  25.043  12.310  14.510
 3433W        W75781  16.255  36.932  13.545
 3434W        W75782  14.639   0.250  14.782
 3435W        W75783  41.833  18.218   5.277
 3436W        W75784  12.677  29.116   0.729
 3437W        W75785  42.883  19.143  12.975
 3438W        W75786  28.092  27.048  11.899
 3439W        W75787  13.813  38.919  12.914
 3440W        W75788  32.452   0.745  14.298
 3441W        W75789  40.498  39.965   2.661
 3442W        W75790  41.402  15.817   4.750
 3443W        W75791  31.516  11.230   1.875
 3444W        W75792  37.004  31.957   2.340
 3445W        W75793   5.307  21.209   4.150
 3446W        W75794  15.086   3.760   1.359
 3447W        W75795  11.759  25.710  12.994
 3448W        W75796  22.250  18.616  14.464
 3449W        W75797  35.021   6.876  13.951
 3450W        W75798  30.468  11.838   4.298
 3451W        W75799  29.631  20.532  12.932
 3452W        W75800  22.159  12.280  11.910
 3453W        W75801  44.413  24.697   4.709
 3454W        W75802   5.779  32.036   3.171
 3455W        W75803  21.109  15.301   2.347
 3456W        W75804  11.207  40.437  13.028
 3457W        W75805  29.473  31.953  14.395
 3458W        W75806  36.084  30.149  10.888
 3459W        W75807  27.169  12.217  13.886
 3460W        W75808  31.544  42.309   4.129
 3461W        W75809   1.848  44.921  10.987
 3462W        W75810  40.310   5.338  14.301
 3463W        W75811  28.026   7.671   2.880
 3464W        W75812   0.253  18.558  14.878
 3465W        W75813  18.619  33.034   0.742
 3466W        W75814  14.138   6.418   3.365
 3467W        W75815  18.588  44.387  13.505
 3468W        W75816   9.768  10.273   4.297
 3469W        W75817  21.716  38.390  10.989
 3470W        W75818  24.555   6.249  13.476
 3471W        W75819  13.740  14.109   3.773
 3472W        W75820  35.486  11.371   3.214
 3473W        W75821  10.748  25.971   0.414
 3474W        W75822  41.888   5.215  12.051
 3475W        W75823   2.945  24.089  10.418
 3476W        W75824  36.388  36.506  13.927
 3477W        W75825  29.106  11.636   0.379
 3478W        W75826   0.262  10.634  14.919
 3479W        W75827  43.433   6.289  14.763
 3480W        W75828  13.318  36.452   0.843
 3481W        W75829  31.642  38.994  12.929
 3482W        W75830  35.885  33.450  14.319
 3483W        W75831   6.357   6.287   2.216
 3484W        W75832  19.576  12.641   4.837
 3485W        W75833  43.444  44.786  10.984
 3486W        W75834  10.632  16.620  13.060
 3487W        W75835  41.385   8.190   4.793
 3488W        W75836   4.282  43.899  12.989
 3489W        W75837  33.513  31.402  11.878
 3490W        W75838   5.254   1.932   1.932
 3491W        W75839  44.950  32.489  11.396
 3492W        W75840  43.785  19.693   4.259
 3493W        W75841   9.370  15.679   4.117
 3494W        W75842   9.375  34.408   0.909
 3495W        W75843  23.718  26.992   0.767
 3496W        W75844  41.302  37.447  12.891
 3497W        W75845   1.958  34.871  11.466
 3498W        W75846  21.102   0.307  13.867
 3499W        W75847  14.716  36.862   3.375
 3500W        W75848  28.464  33.514  12.958
 3501W        W75849   1.854  40.444   1.810
 3502W        W75850  17.189   5.905   4.829
 3503W        W75851  22.536   9.361   4.176
 3504W        W75852  41.446  21.214  11.916
 3505W        W75853  19.577  16.279   1.439
 3506W        W75854   4.249  42.522  11.511
 3507W        W75855   3.221  42.975   1.238
 3508W        W75856  15.693  27.112   2.311
 3509W        W75857  19.051  40.815  11.883
 3510W        W75858   2.371  38.916   9.921
 3511W        W75859  24.626   4.820   3.231
 3512W        W75860  33.887   3.852   4.138
 3513W        W75861  21.102  28.121  13.524
 3514W        W75862   0.382  44.937   3.799
 3515W        W75863  33.417  22.131   1.914
 3516W        W75864  10.752  35.990  12.937
 3517W        W75865  12.799  37.481  12.480
 3518W        W75866  16.138  11.672   1.720
 3519W        W75867  38.376   8.176   4.769
 3520W        W75868  29.588  10.188  14.848
 3521W        W75869  25.613  39.029  13.853
 3522W        W75870  36.592  38.979   3.159
 3523W        W75871  34.935  25.212  11.397
 3524W        W75872  17.158  41.878   2.370
 3525W        W75873  39.941  30.459  10.949
 3526W        W75874  35.932  26.552   4.353
 3527W        W75875  35.472  13.668   4.695
 3528W        W75876  16.083   9.843  11.025
 3529W        W75877  20.734  20.666  11.856
 3530W        W75878  30.946  21.587  10.914
 3531W        W75879  26.686  39.809   1.302
 3532W        W75880  25.993  15.256   3.209
 3533W        W75881   6.365  13.804  10.432
 3534W        W75882  39.936  15.086   0.483
 3535W        W75883  10.795  17.801  11.944
 3536W        W75884   7.410   2.840  13.045
 3537W        W75885  22.682  31.590   3.241
 3538W        W75886   9.281  44.444   0.955
 3539W        W75887  40.030   8.378  14.789
 3540W        W75888  43.476   1.445   3.648
 3541W        W75889   8.405  25.099  14.801
 3542W        W75890   9.384  41.517  14.856
 3543W        W75891  29.083   4.339  12.499
 3544W        W75892   6.783  25.983  12.056
 3545W        W75893   6.803  30.943  10.034
 3546W        W75894  24.131  19.743   0.755
 3547W        W75895  12.268  32.591  12.847
 3548W        W75896   3.729  15.130  12.888
 3549W        W75897  12.610  40.353   3.320
 3550W        W75898  30.449  14.627   2.739
 3551W        W75899  34.410  10.847  13.030
 3552W        W75900  20.675  13.801   0.470
 3553W        W75901  28.978  28.166   3.791
 3554W        W75902  14.263  40.880  11.895
 3555W        W75903  12.777  15.219   1.210
 3556W        W75904  39.809  32.486  14.928
 3557W        W75905  28.988  37.053   1.234
 3558W        W75906  41.360  28.079  11.498
 3559W        W75907   9.199  43.305   3.720
 3560W        W75908  42.313   8.700   2.901
 3561W        W75909  23.106  26.530   1.934
 3562W        W75910  15.303  44.478  10.888
 3563W        W75911  34.591  20.623   4.197
 3564W        W75912  24.547  19.215  12.970
 3565W        W75913  16.805  35.913   2.410
 3566W        W75914  20.568  14.790  11.911
 3567W        W75915  22.096   0.299   0.877
 3568W        W75916  30.435  20.620   0.283
 3569W        W75917   7.830  39.473   0.449
 3570W        W75918  27.147  12.181  13.387
 3571W        W75919   1.248  23.728  10.540
 3572W        W75920  26.557   8.388   2.695
 3573W        W75921   4.906  44.956  11.432
 3574W        W75922  13.765  33.441  11.106
 3575W        W75923   5.777   9.287  14.459
 3576W        W75924  35.450  38.345  13.316
 3577W        W75925   7.344  26.607  13.916
 3578W        W75926  22.132  44.428   2.378
 3579W        W75927   3.936  34.069  10.950
 3580W        W75928  15.743  17.678   3.789
 3581W        W75929   8.163  26.098  11.070
 3582W        W75930  33.915  17.169  11.518
 3583W        W75931  24.034  23.523  12.872
 3584W        W75932  17.776  29.433  12.577
 3585W        W75933  38.350  41.871   2.269
 3586W        W75934  37.552  37.005  11.075
 3587W        W75935  23.660   7.344  12.909
 3588W        W75936  21.535  13.201  14.882
 3589W        W75937  28.032  31.137  11.025
 3590W        W75938   3.419  37.563  10.046
 3591W        W75939  12.815   8.655   3.219
 3592W        W75940  20.160  11.150  13.921
 3593W        W75941  34.928  13.825   3.709
 3594W        W75942   3.377  40.884   3.148
 3595W        W75943  17.285   8.400  14.407
 3596W        W75944  21.559   1.810  14.314
 3597W        W75945   3.805  26.684  14.513
 3598W        W75946  11.213  39.884   1.416
 3599W        W75947  25.087   5.833   1.290
 3600W        W75948  42.507  10.317  12.053
 3601W        W75949  23.009  37.527  14.303
 3602W        W75950   2.460  16.684   1.267
 3603W        W75951  24.688  36.054  14.454
 3604W        W75952  12.298  40.916   0.383
 3605W        W75953  29.016  18.676   2.832
 3606W        W75954   2.919  44.309   0.278
 3607W        W75955  25.075  24.155   1.365
 3608W        W75956  20.077  22.238   2.248
 3609W        W75957   8.297   1.889   4.289
 3610W        W75958  26.094  43.323   4.608
 3611W        W75959   9.818  22.620   0.903
 3612W        W75960  11.258   8.312  13.318
 3613W        W75961  39.969  32.904  12.922
 3614W        W75962  11.146   4.915  12.364
 3615W        W75963  13.215   0.879   4.134
 3616W        W75964  42.865  15.191  14.299
 3617W        W75965  26.052  11.149   4.657
 3618W        W75966  38.075   5.332   4.785
 3619W        W75967  30.124  36.917   2.299
 3620W        W75968  26.572  10.833  10.569
 3621W        W75969  36.969   7.341   5.794
 3622W        W75970  34.040  20.118   0.749
 3623W        W75971  24.649  17.184  11.431
 3624W        W75972   5.355  42.347   4.621
 3625W        W75973  17.582  32.895   2.886
 3626W        W75974  16.599  12.828  11.413
 3627W        W75975  35.566  32.015  13.943
 3628W        W75976  38.851  37.468  10.968
 3629W        W75977  43.420  17.278  14.839
 3630W        W75978  16.698  40.884  14.836
 3631W        W75979  36.060   6.723  14.766
 3632W        W75980  36.994  38.505   4.612
 3633W        W75981   7.710  27.680  11.960
 3634W        W75982  19.564  21.714   1.807
 3635W        W75983   0.987  25.149   5.221
 3636W        W75984  12.753  15.095  13.426
 3637W        W75985  20.047  39.322   3.665
 3638W        W75986  19.230  22.048  13.350
 3639W        W75987  25.115  16.163   0.930
 3640W        W75988  41.033  38.862  14.465
 3641W        W75989  44.273  23.028   4.283
 3642W        W75990  38.878  13.275   1.747
 3643W        W75991  13.630  34.414   4.666
 3644W        W75992  11.668   1.913   1.698
 3645W        W75993   3.347   4.912   4.279
 3646W        W75994  32.940  39.039  11.579
 3647W        W75995   7.873  39.025   4.132
 3648W        W75996  44.875  35.984  13.963
 3649W        W75997  15.678  35.989   3.349
 3650W        W75998  21.562  24.186   4.676
 3651W        W75999  35.507   3.797   3.702
 3652W        W76000  39.411  24.046   4.297
 3653W        W76001  10.639  12.324  12.517
 3654W        W76002   0.386   2.796  10.483
 3655W        W76003  28.506  33.898   0.322
 3656W        W76004   3.871  27.057  15.000
 3657W        W76005  34.883   9.727   0.419
 3658W        W76006  40.986  33.538   4.153
 3659W        W76007   4.443  41.807   2.312
 3660W        W76008  18.238  40.021  14.874
 3661W        W76009  33.461   6.232   4.239
 3662W        W76010  39.041  17.766   3.249
 3663W        W76011  31.016  20.037   1.338
 3664W        W76012  27.649  35.908   2.818
 3665W        W76013   8.335   0.344   3.845
 3666W        W76014  34.374  35.482  11.118
 3667W        W76015   9.237  38.390   2.371
 3668W        W76016   1.434   2.841   4.210
 3669W        W76017  30.573   7.762  14.294
 3670W        W76018   2.416  25.560  12.865
 3671W        W76019  31.553  23.991  10.579
 3672W        W76020  26.584  22.680   3.220
 3673W        W76021  40.032  38.361  13.921
 3674W        W76022  19.643  35.411  12.086
 3675W        W76023  14.631  29.525  11.869
 3676W        W76024  15.123  15.199   2.384
 3677W        W76025  13.790  44.327  11.089
 3678W        W76026  30.164   4.351  14.984
 3679W        W76027  15.321   1.965   1.236
 3680W        W76028  38.886   9.316   2.760
 3681W        W76029   1.954  17.166   2.701
 3682W        W76030  40.941  36.580   2.190
 3683W        W76031   9.192  26.056   1.842
 3684W        W76032  31.917   0.914   1.342
 3685W        W76033   5.289   3.307  10.915
 3686W        W76034  20.623  30.568   5.242
 3687W        W76035   5.428  18.671   2.404
 3688W        W76036  12.130  40.514  14.429
 3689W        W76037  42.381  24.093   1.799
 3690W        W76038  15.738  28.562   0.470
 3691W        W76039  32.502  17.197  11.958
 3692W        W76040   6.350  36.372  13.336
 3693W        W76041  19.766  24.577   1.384
 3694W        W76042  29.009   3.724   0.377
 3695W        W76043   1.828  21.749  11.042
 3696W        W76044  25.018  37.528   3.257
 3697W        W76045  26.570  11.217   2.359
 3698W        W76046  13.641   2.933  12.523
 3699W        W76047  39.901   7.340   3.205
 3700W        W76048  36.403   2.753  13.051
 3701W        W76049   6.256  10.743   2.873
 3702W        W76050   0.793  21.210  14.512
 3703W        W76051  20.263  35.923  12.361
 3704W        W76052  12.253  41.031   3.299
 3705W        W76053   3.257  43.798  14.012
 3706W        W76054  25.549   3.912  10.899
 3707W        W76055  29.561  32.934  13.981
 3708W        W76056  39.548  43.919  13.870
 3709W        W76057  13.250   4.252   4.186
 3710W        W76058   5.897  25.686   1.817
 3711W        W76059  11.832  17.165  10.513
 3712W        W76060  33.474  38.909  10.120
 3713W        W76061  41.871  37.906  13.969
 3714W        W76062  40.990   4.909   2.896
 3715W        W76063  43.327  24.998  11.509
 3716W        W76064  16.203   1.743   3.778
 3717W        W76065  33.382  29.476  11.516
 3718W        W76066  10.345   0.949  13.480
 3719W        W76067   7.746   2.264   4.735
 3720W        W76068   5.705  22.167  11.895
 3721W        W76069   1.446  12.128   2.690
 3722W        W76070  42.812  43.772   2.354
 3723W        W76071  32.961  41.435   3.170
 3724W        W76072  25.155  40.475   1.362
 3725W        W76073   0.862   8.751  12.966
 3726W        W76074   0.857  11.702   0.820
 3727W        W76075  36.358   7.305   0.904
 3728W        W76076  34.613  37.453   3.385
 3729W        W76077  11.630   1.381   2.225
 3730W        W76078  43.491   5.387   0.481
 3731W        W76079  13.176  11.177   0.393
 3732W        W76080  11.858  31.008  12.057
 3733W        W76081   0.901  19.616   2.883
 3734W        W76082  28.075   3.740   3.357
 3735W        W76083  39.492  15.127   1.293
 3736W        W76084   1.259  40.816   4.637
 3737W        W76085  34.058  28.533  13.312
 3738W        W76086  19.564   1.794   4.758
 3739W        W76087  41.997  34.914  13.504
 3740W        W76088  11.242   8.867  12.846
 3741W        W76089  41.791   8.694   3.199
 3742W        W76090  34.592  13.212  11.974
 3743W        W76091  25.525   9.707   1.714
 3744W        W76092  35.437  21.253   2.198
 3745W        W76093  28.584  28.039   0.407
 3746W        W76094   5.228  28.582  10.957
 3747W        W76095  22.552  22.174   1.713
 3748W        W76096  14.288  44.345   3.363
 3749W        W76097  44.959  39.477   0.366
 3750W        W76098  29.529  35.507   2.862
 3751W        W76099  31.044  41.311   5.141
 3752W        W76100  20.041  18.698   2.201
 3753W        W76101  12.132  13.697   4.159
 3754W        W76102   3.711  17.587   1.697
 3755W        W76103  17.650  15.614   3.250
 3756W        W76104  17.669  37.834  11.948
 3757W        W76105  27.507  38.464   2.375
 3758W        W76106   0.465  43.822   3.174
 3759W        W76107   1.827   8.356  11.393
 3760W        W76108  13.181  10.378  14.398
 3761W        W76109  15.809  11.667  13.887
 3762W        W76110  36.402   3.295   3.736
 3763W        W76111   9.877  17.633   0.903
 3764W        W76112   0.824  11.303  10.963
 3765W        W76113  32.068  34.957  13.443
 3766W        W76114   9.270   2.785  11.958
 3767W        W76115  40.993  43.840  10.980
 3768W        W76116   7.772   4.735   0.759
 3769W        W76117  14.319  20.575   2.354
 3770W        W76118  34.995  13.267  14.450
 3771W        W76119  40.450  41.387  11.100
 3772W        W76120  31.537   4.826  13.946
 3773W        W76121  29.028  35.436   2.792
 3774W        W76122  26.519   9.761  10.509
 3775W        W76123   2.847  11.365  11.091
 3776W        W76124   3.432  14.743   1.328
 3777W        W76125  42.504  42.368   2.278
 3778W        W76126  37.843   9.338  14.882
 3779W        W76127  14.172  39.919  13.318
 3780W        W76128  14.303  37.535   3.724
 3781W        W76129  41.792  29.079  10.001
 3782W        W76130   5.861  19.761   3.697
 3783W        W76131  15.588  36.586   3.673
 3784W        W76132  25.618  37.922  14.410
 3785W        W76133  19.596  24.713  12.513
 3786W        W76134  40.953  38.555   0.373
 3787W        W76135   3.771   4.368  13.545
 3788W        W76136  23.130  29.015   1.321
 3789W        W76137  33.501  13.169  13.528
 3790W        W76138  24.564  33.590   4.127
 3791W        W76139  23.021   1.764  11.469
 3792W        W76140   1.438   3.900   0.906
 3793W        W76141  39.379  12.129  12.010
 3794W        W76142  37.521  20.567   1.266
 3795W        W76143  43.436  35.472  14.363
 3796W        W76144  44.274  42.993  12.400
 3797W        W76145   7.845  20.657   4.835
 3798W        W76146   2.831  38.553  12.507
 3799W        W76147  12.765  18.740   2.711
 3800W        W76148  33.571   8.866   1.213
 3801W        W76149  33.090  23.640  14.780
 3802W        W76150   1.784  19.634   3.840
 3803W        W76151   6.849  29.446   0.451
 3804W        W76152  33.995  37.484   5.151
 3805W        W76153  33.515  41.934   3.691
 3806W        W76154  18.752   8.823  13.375
 3807W        W76155  25.485  15.805   5.175
 3808W        W76156  18.110  29.665   1.383
 3809W        W76157  40.003  44.384   4.232
 3810W        W76158   0.358  33.567   4.721
 3811W        W76159  26.074  11.670   4.208
 3812W        W76160  19.595  12.704   2.728
 3813W        W76161  44.954  27.629  12.932
 3814W        W76162   6.272  23.032   0.773
 3815W        W76163   7.811   1.368   1.325
 3816W        W76164  20.225  43.928   2.316
 3817W        W76165  10.752  32.040  14.934
 3818W        W76166  25.711  21.623   1.283
 3819W        W76167  33.053  15.662   2.284
 3820W        W76168  29.086  20.691  13.951
 3821W        W76169   6.399  36.512  11.403
 3822W        W76170  15.769  44.970  11.423
 3823W        W76171  39.523  17.680  13.795
 3824W        W76172  21.671  40.431   0.404
 3825W        W76173  37.883  33.591  14.512
 3826W        W76174  14.256  43.389   0.881
 3827W        W76175  37.998  14.308   3.325
 3828W        W76176   0.767  42.926   3.782
 3829W        W76177  21.597   0.344   0.293
 3830W        W76178  14.300   3.349  14.837
 3831W        W76179   5.198  34.441  14.929
 3832W        W76180  33.078   5.314  11.391
 3833W        W76181  31.410  20.185  13.528
 3834W        W76182  31.968  43.472  10.571
 3835W        W76183  38.859   4.834   2.364
 3836W        W76184  17.797  20.600   3.193
 3837W        W76185  27.530  27.161   1.327
 3838W        W76186  14.744  10.753   3.226
 3839W        W76187  42.362  10.158   1.748
 3840W        W76188  29.554  28.162  11.092
 3841W        W76189  41.914  27.993  13.806
 3842W        W76190  35.023  13.814   4.636
 3843W        W76191  27.495  14.241   2.361
 3844W        W76192   7.235  41.839   1.816
 3845W        W76193  36.908  20.594  14.400
 3846W        W76194  30.605  23.730   0.350
 3847W        W76195  42.447  30.048  10.948
 3848W        W76196  22.182  29.481   0.407
 3849W        W76197  42.026  42.967   1.337
 3850W        W76198  30.097   6.717   4.219
 3851W        W76199  34.991  41.444  13.350
 3852W        W76200  12.308  36.011  10.991
 3853W        W76201  33.402  34.877   3.844
 3854W        W76202  38.462   9.834  11.419
 3855W        W76203  38.357  31.998  11.505
 3856W        W76204   7.746  11.846  10.086
 3857W        W76205  42.817  15.584   0.298
 3858W        W76206  20.688  18.768   0.931
 3859W        W76207  34.454  12.201   3.837
 3860W        W76208  17.126   6.214   4.230
 3861W        W76209  30.655   2.276   1.906
 3862W        W76210   4.255   9.194   0.298
 3863W        W76211  15.283  15.298  14.284
 3864W        W76212  26.146  19.254   1.298
 3865W        W76213   3.719   6.780  14.921
 3866W        W76214  13.113  43.958  11.414
 3867W        W76215  42.523  31.901  10.412
 3868W        W76216  32.890  11.313  10.436
 3869W        W76217   5.795   2.954  12.001
 3870W        W76218  40.050  31.435   1.824
 3871W        W76219   3.295  22.147   1.398
 3872W        W76220   7.895  27.097   0.802
 3873W        W76221   8.663  40.911   0.790
 3874W        W76222   5.687  28.127   0.383
 3875W        W76223   7.385   1.443  12.858
 3876W        W76224  17.710  29.975  13.811
 3877W        W76225  30.911  23.021   4.215
 3878W        W76226   7.747   3.909  12.044
 3879W        W76227  34.549  31.414  13.797
 3880W        W76228  27.647  20.550  10.904
 3881W        W76229  41.333  14.779   1.875
 3882W        W76230  37.371  10.681   2.793
 3883W        W76231   1.462  23.023  11.968
 3884W        W76232  24.995  16.733  13.371
 3885W        W76233   4.296  19.576  11.527
 3886W        W76234  39.359  27.045  12.453
 3887W        W76235  41.959  27.108  13.897
 3888W        W76236  38.527  39.856   1.802
 3889W        W76237  44.435  44.490  13.053
 3890W        W76238  16.208  26.671   2.191
 3891W        W76239  27.655  13.682   0.916
 3892W        W76240  41.882  37.434   0.933
 3893W        W76241   9.671  20.183  13.483
 3894W        W76242   1.306  23.621   0.311
 3895W        W76243  13.739   7.710   2.812
 3896W        W76244  24.707  24.190  12.958
 3897W        W76245  44.470  16.254  13.048
 3898W        W76246   5.283  30.007  13.984
 3899W        W76247  33.906  41.419  10.438
 3900W        W76248  22.703  38.022  14.415
 3901W        W76249  34.978  40.337   0.278
 3902W        W76250  16.155   7.247   3.838
 3903W        W76251  29.086  44.334   2.203
 3904W        W76252  11.190  18.293   2.705
 3905W        W76253  29.614  22.730  10.012
 3906W        W76254  29.041  22.688   2.288
 3907W        W76255  19.143  13.641   2.290
 3908W        W76256  39.513  31.428   3.773
 3909W        W76257   5.252   3.461  11.500
 3910W        W76258  15.794  27.963   2.849
 3911W        W76259   5.212  22.655   2.839
 3912W        W76260   6.299  13.124   4.149
 3913W        W76261  22.020  18.151   1.715
 3914W        W76262   0.947  41.409  13.323
 3915W        W76263  44.283  37.513   4.292
 3916W        W76264   0.435  20.631   2.785
 3917W        W76265  25.529  30.571   4.624
 3918W        W76266  14.105   1.848   2.713
 3919W        W76267  19.094   9.841  14.891
 3920W        W76268  10.736   9.692   3.714
 3921W        W76269  39.329   2.732  12.576
 3922W        W76270  16.610  18.655   1.771
 3923W        W76271   0.414   0.333  10.964
 3924W        W76272  11.296  31.560   0.913
 3925W        W76273   2.375  41.795  12.837
 3926W        W76274  36.990   8.199   3.667
 3927W        W76275  17.290  31.493  14.305
 3928W        W76276  39.882  27.952  10.985
 3929W        W76277  34.967  16.576  12.974
 3930W        W76278  43.500  28.061  13.011
 3931W        W76279   2.274  16.655   0.386
 3932W        W76280  39.452  32.140  13.390
 3933W        W76281  16.780   1.951  10.570
 3934W        W76282  42.458  37.341   5.180
 3935W        W76283  34.517  16.707   2.675
 3936W        W76284  20.272  38.868  11.501
 3937W        W76285  12.117  13.771   0.869
 3938W        W76286  44.883   9.341   3.164
 3939W        W76287  26.566  38.479   2.418
 3940W        W76288  41.919   6.350   2.705
 3941W        W76289  23.639  37.854  11.127
 3942W        W76290  41.294  30.445  12.921
 3943W        W76291   5.816  12.181   2.319
 3944W        W76292  14.599  38.479   1.698
 3945W        W76293  12.121   4.769  12.951
 3946W        W76294   1.283  10.768  14.405
 3947W        W76295  30.014  11.691   4.234
 3948W        W76296  36.006  38.880  11.439
 3949W        W76297  12.788  19.764  12.355
 3950W        W76298   2.812  11.336   4.724
 3951W        W76299   0.970   5.796   4.145
 3952W        W76300  17.165   6.223   5.254
 3953W        W76301   0.323  39.396   0.911
 3954W        W76302  44.950  25.672   0.373
 3955W        W76303  30.540  37.911  11.571
 3956W        W76304  42.481  39.842  13.797
 3957W        W76305  36.065  42.352  14.776
 3958W        W76306   0.877   0.297   3.662
 3959W        W76307  35.387  12.652  13.390
 3960W        W76308  36.047  34.113   1.254
 3961W        W76309  17.296  24.122  13.474
 3962W        W76310  34.380   8.814   2.663
 3963W        W76311  19.712  18.758   2.383
 3964W        W76312  27.037  16.225   3.643
 3965W        W76313   4.924  29.635   1.269
 3966W        W76314  36.551   2.727  13.844
 3967W        W76315  21.562  15.174   3.289
 3968W        W76316  24.023  13.749  13.457
 3969W        W76317  23.029  24.720   4.324
 3970W        W76318  18.642   4.273   1.368
 3971W        W76319  11.232  14.725   1.335
 3972W        W76320  34.056  25.161   2.413
 3973W        W76321  40.470  17.577   2.683
 3974W        W76322  20.167  16.765   2.251
 3975W        W76323  26.076  40.030  11.952
 3976W        W76324  38.950  18.646   0.418
 3977W        W76325  32.998   0.894  13.852
 3978W        W76326  32.487   9.235   4.177
 3979W        W76327  21.534  24.564   0.436
 3980W        W76328  16.310  37.882  14.297
 3981W        W76329   4.413   1.892   3.315
 3982W        W76330  37.884  23.723  11.892
 3983W        W76331  25.177  20.039  12.979
 3984W        W76332  31.002  43.963   1.283
 3985W        W76333  19.237   7.188  10.576
 3986W        W76334  42.915  22.147   4.702
 3987W        W76335  10.329  18.162   4.156
 3988W        W76336   2.307  18.719  12.934
 3989W        W76337   7.225  35.955  10.571
 3990W        W76338   6.312  11.815   2.264
 3991W        W76339  12.348  43.017   0.463
 3992W        W76340   3.461  21.573  14.925
 3993W        W76341  34.870  18.645  11.112
 3994W        W76342  18.709  28.062  14.963
 3995W        W76343  28.080   9.376  12.046
 3996W        W76344  39.411  20.676  12.407
 3997W        W76345  27.158   7.823  14.445
 3998W        W76346  22.232  42.432   3.739
 3999W        W76347  14.094  10.363  13.013
 4000W        W76348   4.812  11.244   0.833
 4001W        W76349   3.901  29.491  14.474
 4002W        W76350  44.875   3.736  12.009
 4003W        W76351  18.104  25.583   2.662
 4004W        W76352  18.633   3.421  14.810
 4005W        W76353  36.499  14.622  13.047
 4006W        W76354  39.550  10.193  10.980
 4007W        W76355  29.559  36.914  11.012
 4008W        W76356  20.638  16.125   1.366
 4009W        W76357  41.987  16.631   0.474
 4010W        W76358   5.409  39.413   2.347
 4011W        W76359   9.856  30.027  14.834
 4012W        W76360  39.851   3.786   3.322
 4013W        W76361  22.116  23.734  13.796
 4014W        W76362  38.825  29.639  13.962
 4015W        W76363  28.667  20.211  14.961
 4016W        W76364   4.298  10.147  11.516
 4017W        W76365  33.554  40.360  12.473
 4018W        W76366  44.788  21.179   0.962
 4019W        W76367  16.263  34.368   2.841
 4020W        W76368   4.887  11.692  14.309
 4021W        W76369  41.005  23.011  10.939
 4022W        W76370  44.408  25.059  14.392
 4023W        W76371  31.608  28.970   3.856
 4024W        W76372  18.645  13.167  10.481
 4025W        W76373  12.167  10.850   3.857
 4026W        W76374  31.605  22.184  13.979
 4027W        W76375   9.238   9.363   1.320
 4028W        W76376  20.712   2.777  13.528
 4029W        W76377  36.021  22.646  13.989
 4030W        W76378  23.227  33.957   2.285
 4031W        W76379  44.985  24.630   3.212
 4032W        W76380  25.117  22.079   4.805
 4033W        W76381  22.996  14.158  12.343
 4034W        W76382   5.906  13.687  10.504
 4035W        W76383  21.189   6.772   3.739
 4036W        W76384  29.613  40.472  12.472
 4037W        W76385   7.767  17.277   3.315
 4038W        W76386  20.721  41.906  12.433
 4039W        W76387  10.715   2.884   2.689
 4040W        W76388  41.377   4.821   0.818
 4041W        W76389  28.134  43.494   1.307
 4042W        W76390  10.364  41.371   0.479
 4043W        W76391  41.820   5.318  12.838
 4044W        W76392  21.117  40.009  13.380
 4045W        W76393   9.290   3.402  13.525
 4046W        W76394  35.870  34.575   2.248
 4047W        W76395  37.882  35.389  12.931
 4048W        W76396   4.781   9.769  13.413
 4049W        W76397   9.346  38.335   1.301
 4050W        W76398   1.848  35.551  14.315
 4051W        W76399   9.173  42.999  11.008
 4052W        W76400   8.869  38.859  12.863
 4053W        W76401  39.849   1.918   1.382
 4054W        W76402  38.556  28.087   2.252
 4055W        W76403  33.386  32.940  12.470
 4056W        W76404  31.054  39.931   2.728
 4057W        W76405   2.365   4.407  10.905
 4058W        W76406  40.867  31.099   3.707
 4059W        W76407  24.693  16.202   1.360
 4060W        W76408  18.182  24.001  14.898
 4061W        W76409  43.008  35.999   3.683
 4062W        W76410  33.398   7.779  13.038
 4063W        W76411   2.287   8.896   3.383
 4064W        W76412   6.309  28.966   3.739
 4065W        W76413  42.854  25.048   3.722
 4066W        W76414   0.455  44.840   3.201
 4067W        W76415   0.868  15.675  10.986
 4068W        W76416  40.446  13.348  12.483
 4069W        W76417   7.318  37.991   3.314
 4070W        W76418  23.158  15.251   0.357
 4071W        W76419   7.903  43.776   3.769
 4072W        W76420  14.653  32.127   0.350
 4073W        W76421  25.506   5.739  12.858
 4074W        W76422  16.588  35.072   2.280
 4075W        W76423  35.939  24.170   0.335
 4076W        W76424  36.988   1.319   4.784
 4077W        W76425  31.024  39.328   1.282
 4078W        W76426  20.727   6.400  11.610
 4079W        W76427  14.754  22.136  11.109
 4080W        W76428   8.765  25.639  12.577
 4081W        W76429  35.494  13.316  10.563
 4082W        W76430  15.794  28.612  12.093
 4083W        W76431  12.126  32.101  14.904
 4084W        W76432  12.684  13.264  12.560
 4085W        W76433  30.151  10.634  12.501
 4086W        W76434  30.461   0.979  12.836
 4087W        W76435  12.771  35.014  13.032
 4088W        W76436  35.511  39.834  10.629
 4089W        W76437   7.742  44.473   4.339
 4090W        W76438  13.168  40.419   3.285
 4091W        W76439  33.605   1.273  13.858
 4092W        W76440   3.897  38.077  12.944
 4093W        W76441  13.601  43.787   4.833
 4094W        W76442   6.911  44.919  14.835
 4095W        W76443  28.992   7.695  12.479
 4096W        W76444  20.624  30.508  11.525
 4097W        W76445  12.759   6.380  10.585
 4098W        W76446  41.960  22.149  11.925
 4099W        W76447   9.684  31.609   5.593
 4100W        W76448   7.814  15.127   4.663
 4101W        W76449  14.097  36.025  11.882
 4102W        W76450  18.117  16.077   2.392
 4103W        W76451   5.796  29.506   2.418
 4104W        W76452  38.405  10.271  12.441
 4105W        W76453  24.077  13.215  13.383
 4106W        W76454   5.400   0.908   1.272
 4107W        W76455  24.582   7.838  11.069
 4108W        W76456  26.640  23.217  13.798
 4109W        W76457  20.650  27.477  11.894
 4110W        W76458  26.020  10.760   0.802
 4111W        W76459  12.743  31.061   0.877
 4112W        W76460  38.011  10.740  11.543
 4113W        W76461  40.508  23.055  14.325
 4114W        W76462   5.217  20.524   3.799
 4115W        W76463  16.607  26.129  12.837
 4116W        W76464  22.149  42.985  11.071
 4117W        W76465  32.980  16.788   1.730
 4118W        W76466   7.715  44.272   3.677
 4119W        W76467   6.211  22.528  13.858
 4120W        W76468  40.802  14.270  11.611
 4121W        W76469  26.686   5.730   1.839
 4122W        W76470  33.470   4.746  12.953
 4123W        W76471  22.579  21.629   0.910
 4124W        W76472  18.112  28.013  13.060
 4125W        W76473  39.393  20.141  14.470
 4126W        W76474  34.472   1.480   4.226
 4127W        W76475  25.552  11.838  13.317
 4128W        W76476  22.617  39.464  11.534
 4129W        W76477  30.121  21.131  14.308
 4130W        W76478  39.341   4.360  13.448
 4131W        W76479  23.005  11.646  10.623
 4132W        W76480  36.548  30.973   4.117
 4133W        W76481  23.204  21.109   3.207
 4134W        W76482   9.676  21.231   2.700
 4135W        W76483   5.246  31.068  10.580
 4136W        W76484  43.771  17.595   1.759
 4137W        W76485  44.009  33.511   2.674
 4138W        W76486  41.823  44.490   0.399
 4139W        W76487  27.570  11.201  12.839
 4140W        W76488   2.309  34.560   4.808
 4141W        W76489  18.284  23.664   0.350
 4142W        W76490  33.498  35.553  11.986
 4143W        W76491  42.362   2.861   1.804
 4144W        W76492  18.092  32.052   1.382
 4145W        W76493  17.255  33.960   0.924
 4146W        W76494  27.126  44.489   4.254
 4147W        W76495  16.596   2.946  12.966
 4148W        W76496  30.003  21.615  11.994
 4149W        W76497  14.690  17.111  12.534
 4150W        W76498   5.884  23.175  10.514
 4151W        W76499  12.651  40.507  12.553
 4152W        W76500   0.853  12.287  14.440
 4153W        W76501   7.361  10.163   0.910
 4154W        W76502  32.992  21.685   0.790
 4155W        W76503  25.097  38.422   0.424
 4156W        W76504   8.248  16.677   1.370
 4157W        W76505  44.956  39.543  13.043
 4158W        W76506  13.744  34.989   1.390
 4159W        W76507  42.498  14.714  12.378
 4160W        W76508  26.029  31.441  14.485
 4161W        W76509  43.984  38.070  13.028
 4162W        W76510  33.465  27.088  14.369
 4163W        W76511  14.203  40.407  12.514
 4164W        W76512   8.316  13.121  13.336
 4165W        W76513   7.234  27.562  13.425
 4166W        W76514   4.321  39.433   2.799
 4167W        W76515  42.984  34.522   4.308
 4168W        W76516  20.630  16.792  13.382
 4169W        W76517  25.077   2.728  11.517
 4170W        W76518  13.169  32.582   0.808
 4171W        W76519  25.160  11.635  13.925
 4172W        W76520  41.859  39.949   4.170
 4173W        W76521  42.302  28.000  13.452
 4174W        W76522  43.360  34.478   2.222
 4175W        W76523  19.123   3.907   0.311
 4176W        W76524  39.036   4.906   2.828
 4177W        W76525  36.934  28.572   2.381
 4178W        W76526  12.337  35.858   1.216
 4179W        W76527  33.060  26.637   3.345
 4180W        W76528  22.238   5.852   3.287
 4181W        W76529  28.018  36.940  12.507
 4182W        W76530  42.009  32.637  14.945
 4183W        W76531  31.530  26.996   0.905
 4184W        W76532  40.954  36.036  10.936
 4185W        W76533   6.340   0.773   5.213
 4186W        W76534  42.857  42.973   0.944
 4187W        W76535  22.573   1.258  12.948
 4188W        W76536  32.466  34.533   3.192
 4189W        W76537  37.574  19.686  12.488
 4190W        W76538   9.684  28.587  13.440
 4191W        W76539  44.341  40.328  12.393
 4192W        W76540  23.238  35.400  14.833
 4193W        W76541  17.227  43.934  14.477
 4194W        W76542   5.347  23.175   1.900
 4195W        W76543   1.819  10.248   3.182
 4196W        W76544   5.321  16.655   2.737
 4197W        W76545  36.992  10.651   1.728
 4198W        W76546  20.150   5.900  13.323
 4199W        W76547  18.283  41.417   0.349
 4200W        W76548  23.544   9.700   2.211
 4201W        W76549  39.917   5.780  13.888
 4202W        W76550  31.492  20.144   3.293
 4203W        W76551  11.249   2.307   1.934
 4204W        W76552  41.461  11.201  13.858
 4205W        W76553   1.911  19.136   4.599
 4206W        W76554   8.288  20.608   4.781
 4207W        W76555  21.065  23.526   0.423
 4208W        W76556  25.127  15.760  11.118
 4209W        W76557  35.586  33.899   3.706
 4210W        W76558  41.981  39.948   5.083
 4211W        W76559  37.465  38.825   4.642
 4212W        W76560  38.066  15.128  11.386
 4213W        W76561  38.353  18.279   0.914
 4214W        W76562  37.022  38.502   1.769
 4215W        W76563  18.137  11.686  12.828
 4216W        W76564  22.050  38.377  14.841
 4217W        W76565   2.772  16.641   1.271
 4218W        W76566  26.072  40.027  12.570
 4219W        W76567  16.735  42.948  13.443
 4220W        W76568   3.860  12.326   4.805
 4221W        W76569  37.911  22.666   2.408
 4222W        W76570   8.259  23.234   4.791
 4223W        W76571  24.166  29.014   0.404
 4224W        W76572  35.594  31.446  13.333
 4225W        W76573   7.206  13.803  12.945
 4226W        W76574  28.474  11.629  13.809
 4227W        W76575  39.407  23.103  13.799
 4228W        W76576  41.961   7.678   0.414
 4229W        W76577  42.419  18.265   3.645
 4230W        W76578  39.539  37.047  11.961
 4231W        W76579  29.633   8.343   2.782
 4232W        W76580  10.829   4.248  14.995
 4233W        W76581  22.101   5.350   4.235
 4234W        W76582  22.060  13.731   0.481
 4235W        W76583   6.895  34.521  14.314
 4236W        W76584  36.485  28.471  14.342
 4237W        W76585  21.106   2.370  11.495
 4238W        W76586   3.388  32.561   1.364
 4239W        W76587  44.306  26.134   2.697
 4240W        W76588  25.628  21.238   2.857
 4241W        W76589   6.350  14.178  14.909
 4242W        W76590  32.582  29.158   0.965
 4243W        W76591   0.810  10.289   1.906
 4244W        W76592  37.552  21.181   1.882
 4245W        W76593  44.266  26.193   4.140
 4246W        W76594  43.019   5.800  10.509
 4247W        W76595  41.806   8.782  12.449
 4248W        W76596  40.800  36.509  11.584
 4249W        W76597  43.513   5.868   4.177
 4250W        W76598  43.378  18.764   2.673
 4251W        W76599   4.709  30.586  11.977
 4252W        W76600  10.732  19.282  11.029
 4253W        W76601   6.347  35.883  13.044
 4254W        W76602  15.612  15.650   3.670
 4255W        W76603  35.506  24.559   1.431
 4256W        W76604  39.365  37.878  11.579
 4257W        W76605  12.202  19.186  14.475
 4258W        W76606  25.571   2.265   3.301
 4259W        W76607  34.476  39.524   1.228
 4260W        W76608  36.543  24.546   2.679
 4261W        W76609  16.630  11.867  14.496
 4262W        W76610  37.417  26.148  12.533
 4263W        W76611  13.261  39.439  13.381
 4264W        W76612  16.588  40.306   4.807
 4265W        W76613   8.320  37.055   3.786
 4266W        W76614   8.239  16.097   4.318
 4267W        W76615  39.042  23.163  10.065
 4268W        W76616   2.741  12.850   0.793
 4269W        W76617  35.397  34.950  11.586
 4270W        W76618   7.361  24.001   1.915
 4271W        W76619  38.391   7.284  14.313
 4272W        W76620   1.320  11.637   0.378
 4273W        W76621  44.403  10.796  10.567
 4274W        W76622  19.090   8.838  12.508
 4275W        W76623  39.555  37.474  11.000
 4276W        W76624  31.036  11.700  14.409
 4277W        W76625   8.742  37.997  13.845
 4278W        W76626  14.131  34.883  13.498
 4279W        W76627  24.208  22.128   3.850
 4280W        W76628   1.962  14.245  14.356
 4281W        W76629   4.898  24.681   3.166
 4282W        W76630  40.809  40.361  11.878
 4283W        W76631  39.534  16.294   4.231
 4284W        W76632  41.788  24.165   0.483
 4285W        W76633  43.354  26.019   0.930
 4286W        W76634   7.674  16.810  14.501
 4287W        W76635  29.549  41.930   4.753
 4288W        W76636  21.522   3.281   0.435
 4289W        W76637  39.834  11.680  10.592
 4290W        W76638  44.341  19.263  12.532
 4291W        W76639  37.926  39.060   0.784
 4292W        W76640   0.465  22.621   1.285
 4293W        W76641   4.408  42.884   2.201
 4294W        W76642   5.903  11.698   2.239
 4295W        W76643  31.063  39.405   0.378
 4296W        W76644  40.497   0.851   2.350
 4297W        W76645   5.872   5.787   4.661
 4298W        W76646  27.145  11.254  11.953
 4299W        W76647  27.157   5.894  13.948
 4300W        W76648  26.571  43.007   0.404
 4301W        W76649   6.375  41.915   1.724
 4302W        W76650  17.629  12.789  14.508
 4303W        W76651  22.720  37.533  11.438
 4304W        W76652  17.704  13.328  14.467
 4305W        W76653  14.791  34.456   1.879
 4306W        W76654   3.859   7.772   1.233
 4307W        W76655  36.052  44.879  12.443
 4308W        W76656  12.270  15.719  11.526
 4309W        W76657  34.374   2.346  13.818
 4310W        W76658  29.147  17.259   3.334
 4311W        W76659  14.716   1.835  14.374
 4312W        W76660   2.925  20.260   0.726
 4313W        W76661  27.008   2.452  14.984
 4314W        W76662  34.969  21.166  12.990
 4315W        W76663  11.828   3.895   3.357
 4316W        W76664  23.513  36.446  12.031
 4317W        W76665  33.048   6.232   5.114
 4318W        W76666  34.915  36.074   5.227
 4319W        W76667  37.490   3.305  11.459
 4320W        W76668  39.877  17.145  14.375
 4321W        W76669  28.482  38.547  12.029
 4322W        W76670  43.378  32.455  12.950
 4323W        W76671  40.379  37.847  12.988
 4324W        W76672  18.196  36.868   2.232
 4325W        W76673  44.261  39.896   1.774
 4326W        W76674  24.563   5.758   3.231
 4327W        W76675  11.717   0.910  13.849
 4328W        W76676  24.576  36.454   3.833
 4329W        W76677   7.325  36.353   4.193
 4330W        W76678  16.784  34.498  12.935
 4331W        W76679  34.013  31.114  10.921
 4332W        W76680   4.713  16.212   1.842
 4333W        W76681  30.606  20.101   4.327
 4334W        W76682  15.712  27.589   3.644
 4335W        W76683  18.569   4.375   4.283
 4336W        W76684  20.236  12.167   4.246
 4337W        W76685  38.833  24.588   2.405
 4338W        W76686  33.539  12.789   3.386
 4339W        W76687   7.387  44.405  14.490
 4340W        W76688   4.743  36.914  10.492
 4341W        W76689   2.356   0.927   3.152
 4342W        W76690  13.154  37.446  12.424
 4343W        W76691  34.048  34.089  14.880
 4344W        W76692  24.188   3.300  14.890
 4345W        W76693  15.090   3.235   1.804
 4346W        W76694  19.110   4.779   2.243
 4347W        W76695   7.823  32.130  11.106
 4348W        W76696  40.323   2.336  12.849
 4349W        W76697  20.264  37.353   5.291
 4350W        W76698   6.772  32.636  10.480
 4351W        W76699  34.097   1.325  10.423
 4352W        W76700  29.561  28.179  12.536
 4353W        W76701   2.795  30.621  11.048
 4354W        W76702  43.406  20.629  10.893
 4355W        W76703  40.463  13.641  10.553
 4356W        W76704  10.775  42.903   0.380
 4357W        W76705  42.354   2.325  14.297
 4358W        W76706   4.900   5.924   0.902
 4359W        W76707   1.758  40.940  12.085
 4360W        W76708  11.192  10.751   0.259
 4361W        W76709  10.351  42.493  13.825
 4362W        W76710  30.099  22.621   1.927
 4363W        W76711  25.553  10.365   9.948
 4364W        W76712  18.248  35.920  14.956
 4365W        W76713  26.137  12.707  10.945
 4366W        W76714  28.936   1.787   1.935
 4367W        W76715  28.479  10.649   3.863
 4368W        W76716  23.626  37.437   4.763
 4369W        W76717  36.042  18.081   0.745
 4370W        W76718   0.351   4.349  14.956
 4371W        W76719   7.362  26.679   2.842
 4372W        W76720  22.650  16.602  12.414
 4373W        W76721   1.934  22.226   4.281
 4374W        W76722  28.938  43.764  11.518
 4375W        W76723  38.505   5.288  12.048
 4376W        W76724   3.714  37.085  14.973
 4377W        W76725  33.916  36.090  12.373
 4378W        W76726  42.868  36.558   5.302
 4379W        W76727  11.338  43.834   1.924
 4380W        W76728  35.090  23.241  13.476
 4381W        W76729  21.589   5.256  10.422
 4382W        W76730   5.892  32.914   1.724
 4383W        W76731   0.875  42.383  14.902
 4384W        W76732   3.378  40.947  13.844
 4385W        W76733  15.610  33.595   0.451
 4386W        W76734  43.812  25.573  13.062
 4387W        W76735  39.864  36.066  12.492
 4388W        W76736  39.460  44.300  12.960
 4389W        W76737  10.649  30.424  12.479
 4390W        W76738  18.759  32.620   0.481
 4391W        W76739   2.897   9.382  11.124
 4392W        W76740  19.564  19.779  14.777
 4393W        W76741  25.529  18.264   2.816
 4394W        W76742   4.843  15.193  14.460
 4395W        W76743   8.739   0.750  14.836
 4396W        W76744   4.918  41.359  11.410
 4397W        W76745  19.574  21.528   3.793
 4398W        W76746  34.925   5.805   2.208
 4399W        W76747  21.237  31.104   1.805
 4400W        W76748   9.327  19.228   1.831
 4401W        W76749  13.285  32.459   1.258
 4402W        W76750  11.293   7.734  12.574
 4403W        W76751  28.499  23.654   2.204
 4404W        W76752   9.876   2.385   3.182
 4405W        W76753  43.402  41.826   4.239
 4406W        W76754  13.109   0.841  11.939
 4407W        W76755  28.484  15.249   3.248
 4408W        W76756  29.527   0.960   4.616
 4409W        W76757  32.531  15.088   4.809
 4410W        W76758   2.289  18.124  14.990
 4411W        W76759   6.787   6.230   0.289
 4412W        W76760  27.654  12.247  14.831
 4413W        W76761  29.065  28.641  12.568
 4414W        W76762   7.692   1.398  13.477
 4415W        W76763  26.134   8.729   1.363
 4416W        W76764  12.703  30.575   4.273
 4417W        W76765   7.187  14.665   4.190
 4418W        W76766  20.609   0.470  14.430
 4419W        W76767  41.525  41.513  12.008
 4420W        W76768   7.174   0.319  12.957
 4421W        W76769  30.429  25.044  11.514
 4422W        W76770   1.906  40.983   2.353
 4423W        W76771  18.550  21.735  12.411
 4424W        W76772  23.568   8.357   1.753
 4425W        W76773  27.195   0.348   2.757
 4426W        W76774  24.648   6.235  12.014
 4427W        W76775   3.952  17.254  11.045
 4428W        W76776  14.724  10.171  14.823
 4429W        W76777  43.354  40.410   0.885
 4430W        W76778  26.166   0.314  14.496
 4431W        W76779  30.546  27.001  10.929
 4432W        W76780  24.710   8.255  14.387
 4433W        W76781  24.153  44.378  14.435
 4434W        W76782  31.631  39.404   2.783
 4435W        W76783   3.814  14.248  12.571
 4436W        W76784   8.664  39.444   1.321
 4437W        W76785  27.577  33.930   0.308
 4438W        W76786  21.057  32.468   4.268
 4439W        W76787  21.715  37.875   4.617
 4440W        W76788   4.878   2.439  14.835
 4441W        W76789   1.839  35.369   3.175
 4442W        W76790  10.741  23.079   3.823
 4443W        W76791  37.524   9.818   3.202
 4444W        W76792  43.335  36.386   0.415
 4445W        W76793  38.452  17.161  13.426
 4446W        W76794   4.936  19.765  12.360
 4447W        W76795  25.502  18.586  11.075
 4448W        W76796  13.838   6.241  11.912
 4449W        W76797  13.213  15.265  10.927
 4450W        W76798  38.946  13.793  14.511
 4451W        W76799  37.368   0.897   0.925
 4452W        W76800  38.556  10.293   1.362
 4453W        W76801  42.783  36.483  14.004
 4454W        W76802  11.141  30.058   4.339
 4455W        W76803  19.048  32.140   4.649
 4456W        W76804   5.431  25.995  11.536
 4457W        W76805   2.828  32.409   2.775
 4458W        W76806  37.582  18.203   0.396
 4459W        W76807  25.107  13.208  14.887
 4460W        W76808  13.179  32.480   2.400
 4461W        W76809  13.297  21.201   2.831
 4462W        W76810  31.951  11.369   4.645
 4463W        W76811  41.422  29.504   4.115
 4464W        W76812  23.593  38.928   0.744
 4465W        W76813   9.768  12.326   1.838
 4466W        W76814  32.430   5.779  14.916
 4467W        W76815   0.936  40.328   0.763
 4468W        W76816  25.166  16.235  14.340
 4469W        W76817   7.819   7.885  12.836
 4470W        W76818  40.852   3.411   3.710
 4471W        W76819  27.683  41.437   2.679
 4472W        W76820   0.773  16.180  11.953
 4473W        W76821  37.041  33.602   0.393
 4474W        W76822   5.431  38.022   0.819
 4475W        W76823  18.634   2.396  14.004
 4476W        W76824  13.691  29.971  14.393
 4477W        W76825  43.465   8.363   2.675
 4478W        W76826   3.808  33.985   2.410
 4479W        W76827  18.113  28.066  13.386
 4480W        W76828   6.706  15.812  11.053
 4481W        W76829   7.786  26.549  11.969
 4482W        W76830  40.441  30.951  11.980
 4483W        W76831  14.272  27.463  13.015
 4484W        W76832  42.905  30.625  10.132
 4485W        W76833  11.840  35.403  12.512
 4486W        W76834  32.595  24.189   1.287
 4487W        W76835  42.907  21.159  13.546
 4488W        W76836  19.707   4.810   2.679
 4489W        W76837  24.097  38.419  13.964
 4490W        W76838  12.168  24.082   2.347
 4491W        W76839   6.850  40.350   0.404
 4492W        W76840  23.078   8.676   1.747
 4493W        W76841  26.519  40.336  10.907
 4494W        W76842  37.025  42.961  11.012
 4495W        W76843  25.566   7.767  12.998
 4496W        W76844  44.933  32.610   2.696
 4497W        W76845  16.193  28.548   3.764
 4498W        W76846  14.192  44.797   3.155
 4499W        W76847  25.058  29.623  14.387
 4500W        W76848   7.302  14.267  13.382
 4501W        W76849  23.066  36.538   2.190
 4502W        W76850  42.909  39.026   2.876
 4503W        W76851  35.452  37.055   2.363
 4504W        W76852   9.863  36.055  13.443
 4505W        W76853   1.367  33.520   4.809
 4506W        W76854  13.621  26.104   3.777
 4507W        W76855  35.022  37.894  12.552
 4508W        W76856  14.602  33.531   1.726
 4509W        W76857   2.891  13.325   1.395
 4510W        W76858  35.362  22.146   0.258
 4511W        W76859  41.942  16.618  13.024
 4512W        W76860  25.689  36.348   2.188
 4513W        W76861  32.110  37.434  12.394
 4514W        W76862  14.787  33.443  12.999
 4515W        W76863   7.793  41.423   1.245
 4516W        W76864  34.555  19.675  13.448
 4517W        W76865  43.442  21.027  10.994
 4518W        W76866  31.645  19.105  13.430
 4519W        W76867   1.842  33.982   3.834
 4520W        W76868   9.335  41.942   0.871
 4521W        W76869  22.529  32.556  13.444
 4522W        W76870  31.014  13.218  11.075
 4523W        W76871   6.269  43.798   1.809
 4524W        W76872  27.535  19.668  11.585
 4525W        W76873  42.031  42.436   1.788
 4526W        W76874  43.970  41.898   4.176
 4527W        W76875  33.081  33.414   2.281
 4528W        W76876  26.194  41.010  11.992
 4529W        W76877  40.851   5.910  14.441
 4530W        W76878  14.730  40.421   0.315
 4531W        W76879  35.411  35.996  13.348
 4532W        W76880   5.814   2.933   2.670
 4533W        W76881  36.350   5.805   0.734
 4534W        W76882  42.494  19.738  13.916
 4535W        W76883  42.510  25.058   1.819
 4536W        W76884  32.906  30.622   1.833
 4537W        W76885  21.541  43.956   1.904
 4538W        W76886  12.692  32.491  13.019
 4539W        W76887   5.358  41.343   0.895
 4540W        W76888  10.169  35.544  10.406
 4541W        W76889  31.631   5.438   2.394
 4542W        W76890  23.597  37.528  12.380
 4543W        W76891  28.647  35.503  11.010
 4544W        W76892   1.402  25.626  10.499
 4545W        W76893   4.422   3.864  10.411
 4546W        W76894   7.778  20.157   2.376
 4547W        W76895  10.184  32.418  13.043
 4548W        W76896  44.844  44.958   2.353
 4549W        W76897  18.619  36.054  14.995
 4550W        W76898  25.034  12.648   4.761
 4551W        W76899  34.383  30.574  11.111
 4552W        W76900   2.426  20.079   4.760
 4553W        W76901  37.393  15.716   3.191
 4554W        W76902  36.089  16.740  11.425
 4555W        W76903   8.306  41.989   4.679
 4556W        W76904  31.589  14.193   3.817
 4557W        W76905  12.152  28.640  12.903
 4558W        W76906   3.935   7.678  14.870
 4559W        W76907  13.719  18.573   1.888
 4560W        W76908  35.444  37.842  10.930
 4561W        W76909   3.238  12.201  13.313
 4562W        W76910   3.951   3.786  13.943
 4563W        W76911  26.684   5.271  13.319
 4564W        W76912   7.795  33.448  10.154
 4565W        W76913  34.564  15.771  13.354
 4566W        W76914  29.660  33.415  12.505
 4567W        W76915  38.398  38.555   2.726
 4568W        W76916  25.492  37.996  14.871
 4569W        W76917  23.576   8.251  13.870
 4570W        W76918   4.823  20.535  13.481
 4571W        W76919  12.309  36.584   3.712
 4572W        W76920   6.285   0.801  12.539
 4573W        W76921  34.954  41.405  10.641
 4574W        W76922  11.645  39.988   3.643
 4575W        W76923  30.507  16.723  12.564
 4576W        W76924   3.326  14.129   2.342
 4577W        W76925  12.139  41.844  11.076
 4578W        W76926  43.300  18.237  11.119
 4579W        W76927  26.692   0.410   1.393
 4580W        W76928  36.925  35.435   0.776
 4581W        W76929  37.916   8.353   3.669
 4582W        W76930   2.809   5.691   0.772
 4583W        W76931   6.330  40.421  13.898
 4584W        W76932  38.325  26.172  11.920
 4585W        W76933  15.085  10.730  14.837
 4586W        W76934  37.490  35.863   3.369
 4587W        W76935  14.659  42.786  12.440
 4588W        W76936  29.055  30.020   3.249
 4589W        W76937  35.367  32.984  12.481
 4590W        W76938  13.265  26.608  13.365
 4591W        W76939  15.654  40.872  14.990
 4592W        W76940  36.984  41.807  12.500
 4593W        W76941  36.358  23.686  13.959
 4594W        W76942   2.766  42.858   0.325
 4595W        W76943   9.226  17.087  14.824
 4596W        W76944  33.578   9.239   2.277
 4597W        W76945  28.627  15.262  14.415
 4598W        W76946   2.451   4.317   2.283
 4599W        W76947  44.792   5.225  12.961
 4600W        W76948  41.373   7.182  14.382
 4601W        W76949  32.608  38.379  10.937
 4602W        W76950  23.135  30.645  13.831
 4603W        W76951  44.392  39.835  12.416
 4604W        W76952  36.981  11.635   0.382
 4605W        W76953  26.620  16.156  14.343
 4606W        W76954  25.645  25.658  11.951
 4607W        W76955   0.488  40.827   1.839
 4608W        W76956  28.139  19.153  11.483
 4609W        W76957  26.141  22.098  14.875
 4610W        W76958  33.593  15.283   0.856
 4611W        W76959  43.804  38.326  13.907
 4612W        W76960   2.903   8.234   4.335
 4613W        W76961  41.810  40.916  13.513
 4614W        W76962  13.630  14.589   2.189
 4615W        W76963  10.221  22.672  12.093
 4616W        W76964  20.766  36.003  12.498
 4617W        W76965  13.760   5.243  12.412
 4618W        W76966  16.215  33.592  10.561
 4619W        W76967  16.665  23.649   0.372
 4620W        W76968  20.145   0.849   2.354
 4621W        W76969   1.805  13.719   0.393
 4622W        W76970  35.890  22.505  13.495
 4623W        W76971  31.436  10.163   1.918
 4624W        W76972  44.427  38.946  11.386
 4625W        W76973  34.918  41.914   0.730
 4626W        W76974  28.113  28.642  11.449
 4627W        W76975  36.539  23.601  13.432
 4628W        W76976  15.653  30.511   4.692
 4629W        W76977   2.258  40.836  11.455
 4630W        W76978  12.166   2.302   4.223
 4631W        W76979  13.614   1.771   0.385
 4632W        W76980   5.346   3.442   1.385
 4633W        W76981   3.844  12.801   4.773
 4634W        W76982  35.431   6.209  11.415
 4635W        W76983  34.978  29.637  14.765
 4636W        W76984  43.967   8.753  14.781
 4637W        W76985  29.930   5.270  11.974
 4638W        W76986  18.221  40.846   1.265
 4639W        W76987  16.301  31.610   4.250
 4640W        W76988  38.528   3.277   3.656
 4641W        W76989  14.205  36.435   0.330
 4642W        W76990  36.047  37.001  11.507
 4643W        W76991  26.515  30.129   4.163
 4644W        W76992  21.712  27.120   2.901
 4645W        W76993  41.877   8.397  13.811
 4646W        W76994  39.953   5.434   1.920
 4647W        W76995  43.308  27.664   3.857
 4648W        W76996  34.379  10.382   4.691
 4649W        W76997   2.752  30.417   0.281
 4650W        W76998  16.762  35.466   2.411
 4651W        W76999  23.582  32.605  12.378
 4652W        W77000  32.048  29.585   2.200
 4653W        W77001   5.439  26.635   2.776
 4654W        W77002  42.331  18.557  11.090
 4655W        W77003  31.904  41.996   1.268
 4656W        W77004  41.348   4.287   4.286
 4657W        W77005  31.003   0.301   3.803
 4658W        W77006  44.498  38.989  12.464
 4659W        W77007  38.051  21.560   4.191
 4660W        W77008   7.681  13.202   0.864
 4661W        W77009  36.357  10.209   4.264
 4662W        W77010  16.194  11.178   4.116
 4663W        W77011   9.702  11.253   2.804
 4664W        W77012  28.605  36.060   0.442
 4665W        W77013  33.077   2.306  14.503
 4666W        W77014  21.260  10.650   3.679
 4667W        W77015   1.814   4.898  13.320
 4668W        W77016   8.169  30.467  11.892
 4669W        W77017   8.773  24.139   1.742
 4670W        W77018  43.011  36.506   1.306
 4671W        W77019   0.777  15.192  14.457
 4672W        W77020  26.984   8.398  13.494
 4673W        W77021  32.459  20.569  11.087
 4674W        W77022  43.819  16.652   1.350
 4675W        W77023  33.907   6.318   4.149
 4676W        W77024  43.468  15.319   4.657
 4677W        W77025   2.886  11.238  14.942
 4678W        W77026  11.683   1.270  12.074
 4679W        W77027  30.108  23.604   1.420
 4680W        W77028  21.132  13.189  10.583
 4681W        W77029  15.092  13.644   4.345
 4682W        W77030  31.507  24.662  13.941
 4683W        W77031   5.298  34.947  12.435
 4684W        W77032  27.601  42.932  10.403
 4685W        W77033  14.123   7.257   2.260
 4686W        W77034   4.220   5.292  13.475
 4687W        W77035  10.748   3.728   4.242
 4688W        W77036  12.285   5.832   0.940
 4689W        W77037  28.580  10.785  12.902
 4690W        W77038  22.627  15.652   0.764
 4691W        W77039  15.580  42.798  11.906
 4692W        W77040  12.789   9.862  10.954
 4693W        W77041  30.936   8.278  12.490
 4694W        W77042   0.486  22.545   3.350
 4695W        W77043   6.792  12.229  14.779
 4696W        W77044   0.864  24.013   3.231
 4697W        W77045  39.407  24.483  14.419
 4698W        W77046  39.523  40.045  11.915
 4699W        W77047   9.245  33.999  11.924
 4700W        W77048  22.091  15.148   0.897
 4701W        W77049  23.678   9.378   3.735
 4702W        W77050  12.239  33.017  14.928
 4703W        W77051  29.944   6.912  11.458
 4704W        W77052  34.998  26.963  13.411
 4705W        W77053  32.979  23.165   4.809
 4706W        W77054  12.650  38.564  14.453
 4707W        W77055  19.065  11.843  14.941
 4708W        W77056  33.966  11.242   2.889
 4709W        W77057   1.245  27.474   1.799
 4710W        W77058   0.794  21.635   0.893
 4711W        W77059   0.458  11.863   0.870
 4712W        W77060  12.127  23.135  14.294
 4713W        W77061  41.376   2.870  12.945
 4714W        W77062  11.833  18.123  12.390
 4715W        W77063  22.172  44.858   3.728
 4716W        W77064   9.200  41.425   3.667
 4717W        W77065  38.518  38.329  11.078
 4718W        W77066  33.875  35.393   1.892
 4719W        W77067  35.914  23.596   2.341
 4720W        W77068  24.680   1.373   1.348
 4721W        W77069  26.965  35.438   1.724
 4722W        W77070  12.152  40.904   2.206
 4723W        W77071  15.104   9.375   1.827
 4724W        W77072  29.597  11.740  10.983
 4725W        W77073  13.239  30.960   2.888
 4726W        W77074  38.017  36.952  10.559
 4727W        W77075  37.354  19.069   3.867
 4728W        W77076  15.598  22.066  12.920
 4729W        W77077  18.720  31.082   2.232
 4730W        W77078   5.350   0.986  13.924
 4731W        W77079  33.096  16.259   3.183
 4732W        W77080  14.185  43.368   2.210
 4733W        W77081  29.111  20.667  14.459
 4734W        W77082   9.390  28.461  14.435
 4735W        W77083  15.289  27.656   0.321
 4736W        W77084  19.627   6.781   3.736
 4737W        W77085  17.271  27.516   4.260
 4738W        W77086  39.357  14.239   4.625
 4739W        W77087  37.990   6.241  13.975
 4740W        W77088  20.149   3.344  14.990
 4741W        W77089   9.193  42.888  11.378
 4742W        W77090  30.155  10.258  14.989
 4743W        W77091  31.410  33.001   3.173
 4744W        W77092  16.317  21.180   4.235
 4745W        W77093  41.462  33.406   2.205
 4746W        W77094   4.350   3.438  13.366
 4747W        W77095  38.326   0.962   4.215
 4748W        W77096  10.759  12.725   1.244
 4749W        W77097  40.028  17.800   2.678
 4750W        W77098  11.677   1.381  14.878
 4751W        W77099   3.822  42.825  14.306
 4752W        W77100  29.996   2.387  12.447
 4753W        W77101  42.997  40.882   0.904
 4754W        W77102  35.047   5.905   0.765
 4755W        W77103  11.627   9.826   2.182
 4756W        W77104  42.981  10.224  14.280
 4757W        W77105  19.707   0.320  13.469
 4758W        W77106  27.976  26.527  13.052
 4759W        W77107  43.444  20.676  12.479
 4760W        W77108  12.261  18.224  10.891
 4761W        W77109   1.921  39.040  13.991
 4762W        W77110  29.069  31.441   1.851
 4763W        W77111  38.057   4.445   0.483
 4764W        W77112  25.131  10.196  14.880
 4765W        W77113  44.498  44.858  13.987
 4766W        W77114  22.616   2.399   4.245
 4767W        W77115  37.906  39.990   4.132
 4768W        W77116  13.783   7.881   4.736
 4769W        W77117  22.550  28.172  10.057
 4770W        W77118  28.962   6.312  13.992
 4771W        W77119  25.188  40.971  12.956
 4772W        W77120   2.748   3.954   2.252
 4773W        W77121  15.752   6.689  11.510
 4774W        W77122   9.348  22.227  11.918
 4775W        W77123  29.979   7.676  10.616
 4776W        W77124  27.659   6.887   4.824
 4777W        W77125   1.795  38.996  13.390
 4778W        W77126   5.840  35.104  11.604
 4779W        W77127  32.617  40.341   2.903
 4780W        W77128  44.413   7.853   4.282
 4781W        W77129   2.772  26.595  13.047
 4782W        W77130  35.366  34.967  14.846
 4783W        W77131  41.423  20.172  11.858
 4784W        W77132  32.137   0.312  12.849
 4785W        W77133  30.005  34.108   3.830
 4786W        W77134  30.939  31.148  13.931
 4787W        W77135  44.313  42.861   4.120
 4788W        W77136  17.240  12.801  10.444
 4789W        W77137  24.008  33.394   1.450
 4790W        W77138  19.266   4.383   0.364
 4791W        W77139   6.820   5.276  14.435
 4792W        W77140  27.156  25.129   2.852
 4793W        W77141  29.622  40.420   4.158
 4794W        W77142  13.314  17.222   4.150
 4795W        W77143  14.197  32.993  12.916
 4796W        W77144  14.647   0.440   3.236
 4797W        W77145   6.278   3.731   2.666
 4798W        W77146  11.341   4.802   4.318
 4799W        W77147  30.074  13.234   3.703
 4800W        W77148   8.814  20.126  13.410
 4801W        W77149  12.156  29.466  13.378
 4802W        W77150  18.095  42.363  12.482
 4803W        W77151  11.714  15.302  14.032
 4804W        W77152  11.795  33.999   1.783
 4805W        W77153  16.678  41.446   4.603
 4806W        W77154  20.756  41.029  12.070
 4807W        W77155  32.936  20.745  10.580
 4808W        W77156  37.509  11.231   1.277
 4809W        W77157  30.917  23.109   3.171
 4810W        W77158   9.293  41.034   0.365
 4811W        W77159  14.266  22.182   3.340
 4812W        W77160  29.463  31.510  14.406
 4813W        W77161   6.335  17.071  11.536
 4814W        W77162   6.676  11.297  14.775
 4815W        W77163   3.880   1.305   0.758
 4816W        W77164  24.636  43.364  13.929
 4817W        W77165  36.919  22.687  11.581
 4818W        W77166   7.322  42.925  11.955
 4819W        W77167   0.856  11.790   2.689
 4820W        W77168   5.286  22.617   3.701
 4821W        W77169  31.431  30.097   2.412
 4822W        W77170  29.149  43.296  12.866
 4823W        W77171   7.318  40.365  13.978
 4824W        W77172  34.584  27.508   3.148
 4825W        W77173   1.244  43.969   4.768
 4826W        W77174  16.245  21.554   3.297
 4827W        W77175   3.913  35.978   3.237
 4828W        W77176  24.159  14.095   5.258
 4829W        W77177  17.600  39.510  10.978
 4830W        W77178  34.989  23.701  14.428
 4831W        W77179  22.650  26.111  10.100
 4832W        W77180  12.780  43.817   1.746
 4833W        W77181   0.831  35.923   1.866
 4834W        W77182  28.172  32.047  12.910
 4835W        W77183  18.695  15.290   1.837
 4836W        W77184   3.324  35.930  12.992
 4837W        W77185   9.756   8.183   0.365
 4838W        W77186  29.123  29.667   2.756
 4839W        W77187  12.760  43.305   1.927
 4840W        W77188   7.752  23.609   4.286
 4841W        W77189  16.713  25.553   2.308
 4842W        W77190  12.185  10.831  13.480
 4843W        W77191   5.727  38.035  10.996
 4844W        W77192   6.895  22.041  10.521
 4845W        W77193  11.687   0.282   1.306
 4846W        W77194  28.159  14.827  13.806
 4847W        W77195  25.980   2.903  14.307
 4848W        W77196   1.835  10.868   3.316
 4849W        W77197   0.357  13.154  13.878
 4850W        W77198   6.698  29.959  12.898
 4851W        W77199  41.988  15.778  14.961
 4852W        W77200  10.351  26.566  11.481
 4853W        W77201  43.796   9.167   0.837
 4854W        W77202   6.256  30.057  10.581
 4855W        W77203  38.549  28.522  14.512
 4856W        W77204  13.799  17.122  14.939
 4857W        W77205  11.838   8.261   2.419
 4858W        W77206  14.772  38.957   3.684
 4859W        W77207  28.155  27.172   2.881
 4860W        W77208  11.276  16.638  14.771
 4861W        W77209  26.170   8.181   4.318
 4862W        W77210  38.821  29.973   1.928
 4863W        W77211  27.071  32.021   2.894
 4864W        W77212  11.741  39.450   1.357
 4865W        W77213  15.641  43.391  11.863
 4866W        W77214  44.863   9.731  13.800
 4867W        W77215   6.289  33.439   3.670
 4868W        W77216  10.662  32.587  13.339
 4869W        W77217  14.334  21.561  10.608
 4870W        W77218  19.719  12.824   2.193
 4871W        W77219  10.681  20.610  12.016
 4872W        W77220  38.525  30.591  11.858
 4873W        W77221  27.194  39.019  14.281
 4874W        W77222   1.401  35.377  11.920
 4875W        W77223  41.316  32.630  14.365
 4876W        W77224  13.734  19.210  14.491
 4877W        W77225  37.491  10.254  12.576
 4878W        W77226  40.888  42.451  12.408
 4879W        W77227  35.369  42.878   3.286
 4880W        W77228  16.112   2.322  13.811
 4881W        W77229  36.079  13.134   3.771
 4882W        W77230  27.529  43.766   2.773
 4883W        W77231  40.537  22.021   1.240
 4884W        W77232   2.743  19.536  11.904
 4885W        W77233   4.869   0.821  11.902
 4886W        W77234   2.885  33.626  11.577
 4887W        W77235  35.089  40.995  11.971
 4888W        W77236  33.991  14.313  11.585
 4889W        W77237  11.640  28.150  10.986
 4890W        W77238  10.259  38.358  12.437
 4891W        W77239  44.278  13.637   1.216
 4892W        W77240  36.846  32.491   4.354
 4893W        W77241  10.334  21.583   5.313
 4894W        W77242  16.674  38.443   1.888
 4895W        W77243   2.786  31.120   1.378
 4896W        W77244  41.393  35.016   2.328
 4897W        W77245   2.383  19.043   2.831
 4898W        W77246  11.167  25.218   2.853
 4899W        W77247  26.499   3.774  14.904
 4900W        W77248  31.556  18.650  13.937
 4901W        W77249  28.141  34.599   3.239
 4902W        W77250   6.900  34.927  12.039
 4903W        W77251   7.901  18.614   2.202
 4904W        W77252  21.078  34.016  11.958
 4905W        W77253   9.782  15.302  12.364
 4906W        W77254  15.120  24.655   4.243
 4907W        W77255  32.926   1.281   3.383
 4908W        W77256  19.227  19.671   4.301
 4909W        W77257  12.200   0.821   2.288
 4910W        W77258  32.053  26.665  11.125
 4911W        W77259   1.364  36.888   2.699
 4912W        W77260  40.950  29.587  12.990
 4913W        W77261  43.511  14.654  12.015
 4914W        W77262  17.713  22.190  11.950
 4915W        W77263  20.175  26.023  11.586
 4916W        W77264   0.950   6.684  11.904
 4917W        W77265  26.128  28.526   1.845
 4918W        W77266   9.738  17.286  10.411
 4919W        W77267   7.194  26.568   4.675
 4920W        W77268  15.300  31.024   0.280
 4921W        W77269  14.773   1.296   0.765
 4922W        W77270  11.313   3.710   3.704
 4923W        W77271  16.235   6.724  10.998
 4924W        W77272  27.010  32.005  11.889
 4925W        W77273   0.377  43.432  13.539
 4926W        W77274  20.553   1.855  14.832
 4927W        W77275   3.217  28.932   4.328
 4928W        W77276  18.786   5.420  14.922
 4929W        W77277   9.769  11.295  13.429
 4930W        W77278  18.204  29.513   2.799
 4931W        W77279  15.636  18.116   0.242
 4932W        W77280  43.021  39.025  12.057
 4933W        W77281   1.404  41.009   1.255
 4934W        W77282  30.949  16.769  11.879
 4935W        W77283  26.192  30.960  14.508
 4936W        W77284  15.257  17.557  12.467
 4937W        W77285  43.782  37.079   1.370
 4938W        W77286   9.748  43.460  11.499
 4939W        W77287  30.625  39.424  10.896
 4940W        W77288  21.647   2.260   0.419
 4941W        W77289  28.545  22.587  11.987
 4942W        W77290  21.226  35.869  12.055
 4943W        W77291  11.130  17.092   3.303
 4944W        W77292  14.180  35.107   2.748
 4945W        W77293  13.731  18.183  11.589
 4946W        W77294  40.830   7.375  14.761
 4947W        W77295   8.210  20.220  10.565
 4948W        W77296   0.821  11.781  14.986
 4949W        W77297  10.714  43.996   2.828
 4950W        W77298  30.454  10.164  11.949
 4951W        W77299  35.966   2.891  13.974
 4952W        W77300  44.471   3.936   0.837
 4953W        W77301  26.971  43.447  14.854
 4954W        W77302   7.340   2.454   2.399
 4955W        W77303  19.072  27.586   3.720
 4956W        W77304  31.576  34.571  13.310
 4957W        W77305   0.771  15.184  10.084
 4958W        W77306  20.101   0.432   4.339
 4959W        W77307  32.060  39.019  11.454
 4960W        W77308  41.357  39.062   4.160
 4961W        W77309   5.437  26.136   0.372
 4962W        W77310  39.362  24.187  14.006
 4963W        W77311   2.326   0.955   3.757
 4964W        W77312  25.040   3.837  11.610
 4965W        W77313   5.411  22.659  10.618
 4966W        W77314  35.019   2.937   2.217
 4967W        W77315   7.777  33.096   0.794
 4968W        W77316  35.520  32.418  12.998
 4969W        W77317   6.369  34.893  14.856
 4970W        W77318  31.032  24.684  14.907
 4971W        W77319   7.696   4.245  12.041
 4972W        W77320  14.176  38.330   3.643
 4973W        W77321   7.335  25.173   4.309
 4974W        W77322  30.531   0.850  11.125
 4975W        W77323  34.394  13.322  13.502
 4976W        W77324  13.617  43.370   1.866
 4977W        W77325  32.412  22.657  11.863
 4978W        W77326  37.380  33.381   3.311
 4979W        W77327  39.505  27.453   1.313
 4980W        W77328   5.415   7.240   1.309
 4981W        W77329  42.885   5.401  11.077
 4982W        W77330   1.893  19.741  12.932
 4983W        W77331  15.610  37.954  14.443
 4984W        W77332   2.463  24.047   0.781
 4985W        W77333  12.766  26.677   2.250
 4986W        W77334   8.360  11.199  12.364
 4987W        W77335  25.579   6.922  10.619
 4988W        W77336   2.292  27.671   3.711
 4989W        W77337   5.291  42.443   2.177
 4990W        W77338   8.656   2.253   0.295
 4991W        W77339   8.824  18.063  13.542
 4992W        W77340  31.993   8.702  14.825
 4993W        W77341  39.050   2.849   1.328
 4994W        W77342  43.409  19.160   3.789
 4995W        W77343  26.549  30.499  10.964
 4996W        W77344  30.415  39.047   4.220
 4997W        W77345   5.774  28.181  14.890
 4998W        W77346  23.046  42.419   4.168
 4999W        W77347  34.930   9.286  14.902
 5000W        W77348  20.754  15.175  13.386
 5001W        W77349  32.444  17.609  12.408
 5002W        W77350  30.148  35.545   1.694
 5003W        W77351  41.900  21.595  13.813
 5004W        W77352  12.668  44.498   0.888
 5005W        W77353   9.203   1.338   2.864
 5006W        W77354  35.996   9.186  14.863
 5007W        W77355  24.141   0.787  14.817
 5008W        W77356  21.254  20.097   3.272
 5009W        W77357  33.537  22.645   2.848
 5010W        W77358  11.807  22.137  12.958
 5011W        W77359  15.290  23.053  12.906
 5012W        W77360   1.423   3.838   4.205
 5013W        W77361  24.189  22.729  13.491
 5014W        W77362  43.466  18.681  10.499
 5015W        W77363  11.201  39.009   1.306
 5016W        W77364  17.562  19.631  11.032
 5017W        W77365  20.591   3.319   3.163
 5018W        W77366  29.105  20.677   2.350
 5019W        W77367   3.750  10.363  14.336
 5020W        W77368   8.327  39.877   3.861
 5021W        W77369  34.588   1.771  10.574
 5022W        W77370   4.921   2.755  10.890
 5023W        W77371  23.694  22.176  14.350
 5024W        W77372  44.330   5.258   1.863
 5025W        W77373   1.384   5.344  10.989
 5026W        W77374  42.821  13.317  13.397
 5027W        W77375  44.816  20.228  11.068
 5028W        W77376   9.208   6.706  14.763
 5029W        W77377  14.663  12.210  13.521
 5030W        W77378  14.815  40.423  11.916
 5031W        W77379  29.067  30.042  13.916
 5032W        W77380  39.548   0.362  13.965
 5033W        W77381  32.979  22.092   4.819
 5034W        W77382  25.505  11.773  11.462
 5035W        W77383  30.061  33.432   0.738
 5036W        W77384  37.902  37.085   3.794
 5037W        W77385  31.625  29.977  12.916
 5038W        W77386  15.087  12.315   5.726
 5039W        W77387  22.594  43.000  11.514
 5040W        W77388  26.587   4.896   4.780
 5041W        W77389  32.519  23.990   0.294
 5042W        W77390   4.731  38.495   3.261
 5043W        W77391  25.580  38.022  12.860
 5044W        W77392  18.139  34.109   2.720
 5045W        W77393   4.911   3.937  11.374
 5046W        W77394  44.427  15.328  11.405
 5047W        W77395  13.809  12.239  11.976
 5048W        W77396  13.288  26.700  12.998
 5049W        W77397  42.524   9.757  11.397
 5050W        W77398  22.224  35.009   1.305
 5051W        W77399   1.804  27.989   1.270
 5052W        W77400  27.542  37.034   0.244
 5053W        W77401  10.739  26.025  13.008
 5054W        W77402  25.168  26.583  11.114
 5055W        W77403  26.691  28.462  14.796
 5056W        W77404   8.776  31.991  14.877
 5057W        W77405  30.477  25.158  10.460
 5058W        W77406   4.236  27.109   2.732
 5059W        W77407  23.607  23.620   2.401
 5060W        W77408  17.190   5.789   9.972
 5061W        W77409  29.482   6.275   1.844
 5062W        W77410  11.676  14.749  10.904
 5063W        W77411  21.029  26.668  10.473
 5064W        W77412  24.974  25.593  14.764
 5065W        W77413  12.758  29.053  11.872
 5066W        W77414  23.611  14.127  11.958
 5067W        W77415  35.559  33.934  10.427
 5068W        W77416  37.458   1.746  10.047
 5069W        W77417  21.558  29.112   0.823
 5070W        W77418  44.374   1.460   0.751
 5071W        W77419  41.902  13.719  10.430
 5072W        W77420  27.026   7.787   0.922
 5073W        W77421  33.520  26.011   4.723
 5074W        W77422  11.855  33.446   5.294
 5075W        W77423  22.996  18.059  13.010
 5076W        W77424   5.383  13.772  11.922
 5077W        W77425   9.301  28.109  13.997
 5078W        W77426  38.953  19.589  14.821
 5079W        W77427   9.821  21.660   4.634
 5080W        W77428  16.616   4.397  12.826
 5081W        W77429  22.533  22.621  10.132
 5082W        W77430   5.845  28.989   1.321
 5083W        W77431  26.049  27.565   2.338
 5084W        W77432  41.353  22.022   3.682
 5085W        W77433   6.772  10.841   2.330
 5086W        W77434  31.077   5.382   4.186
 5087W        W77435  40.962   3.358  14.029
 5088W        W77436  32.139  13.828   0.961
 5089W        W77437  27.626  36.397  11.107
 5090W        W77438   6.732  38.049   2.243
 5091W        W77439  12.840  30.447  12.948
 5092W        W77440   3.275  13.349  11.474
 5093W        W77441   8.823  39.558  11.537
 5094W        W77442   3.227  44.770  10.595
 5095W        W77443  16.590  35.000  12.455
 5096W        W77444  35.971  18.603   0.964
 5097W        W77445  34.047  30.554  13.027
 5098W        W77446   0.268  38.970  10.888
 5099W        W77447  12.726   7.861  13.468
 5100W        W77448  21.706  27.966  11.551
 5101W        W77449  12.205  15.639   0.835
 5102W        W77450  22.651   3.934   1.748
 5103W        W77451  41.418  35.486   4.746
 5104W        W77452  31.968  11.849   2.281
 5105W        W77453   8.268   7.701  10.484
 5106W        W77454  31.465  25.057  13.370
 5107W        W77455  27.642  14.792  11.992
 5108W        W77456  39.398  28.438  11.888
 5109W        W77457   1.342  18.101   4.804
 5110W        W77458  18.102   3.830   4.710
 5111W        W77459  23.240   3.948  12.076
 5112W        W77460  28.169  31.606   3.257
 5113W        W77461  12.751  18.130  10.981
 5114W        W77462  42.974  26.665  13.008
 5115W        W77463   5.694  41.418   3.675
 5116W        W77464  16.784   0.835  14.343
 5117W        W77465  14.801  37.984   4.667
 5118W        W77466  37.455  13.750  14.509
 5119W        W77467  25.114  26.971   2.834
 5120W        W77468  26.554  13.625  10.571
 5121W        W77469  43.313  30.459  14.307
 5122W        W77470   9.688  18.085  10.970
 5123W        W77471  37.385  36.491  11.560
 5124W        W77472   5.841  33.921  10.601
 5125W        W77473  16.737  43.353  11.463
 5126W        W77474   5.909  18.192   4.227
 5127W        W77475  34.988  21.549  13.950
 5128W        W77476  33.992  31.054  14.294
 5129W        W77477  27.028  35.592  12.521
 5130W        W77478   6.308  33.877   3.796
 5131W        W77479  34.915  28.667   4.727
 5132W        W77480  34.411  23.019  13.808
 5133W        W77481  26.107  34.913  14.424
 5134W        W77482  38.444  36.945  13.504
 5135W        W77483  19.255  43.324  13.429
 5136W        W77484  23.502  41.416  14.451
 5137W        W77485  43.425  31.065  13.936
 5138W        W77486  10.153  38.926   2.279
 5139W        W77487  40.506  44.264   0.383
 5140W        W77488  36.440  31.453  12.080
 5141W        W77489  34.050  10.166  12.922
 5142W        W77490  28.438  37.564   0.890
 5143W        W77491  18.210  38.550   1.341
 5144W        W77492  33.099  16.684   1.269
 5145W        W77493  13.780   2.935  14.023
 5146W        W77494   4.760   8.668   2.809
 5147W        W77495  40.498  11.741  11.383
 5148W        W77496   8.300  43.950   0.416
 5149W        W77497  38.337  22.192  10.545
 5150W        W77498  29.048  23.709   4.167
 5151W        W77499  29.099  13.663   4.815
 5152W        W77500  44.886  25.662   4.826
 5153W        W77501  32.057  23.542   2.360
 5154W        W77502  15.154  37.398  14.898
 5155W        W77503  35.405   4.321   2.739
 5156W        W77504  25.180  27.535   3.174
 5157W        W77505  17.071  44.859  12.019
 5158W        W77506   8.222  30.584   4.698
 5159W        W77507  40.942  42.374  11.558
 5160W        W77508  27.168   4.897  12.416
 5161W        W77509  38.378  37.931  14.352
 5162W        W77510  11.312   4.354  14.955
 5163W        W77511  20.140   0.907  10.903
 5164W        W77512   5.418  12.644   0.747
 5165W        W77513  24.223   6.330  11.114
 5166W        W77514  36.939  23.210  12.502
 5167W        W77515  15.311  38.568   4.206
 5168W        W77516  26.153   3.868  13.510
 5169W        W77517   5.390  24.520  12.470
 5170W        W77518  43.941  40.949  10.574
 5171W        W77519  37.019   7.338   0.809
 5172W        W77520  32.050  16.755   3.186
 5173W        W77521  36.380  24.143   0.290
 5174W        W77522  25.989  10.330  14.450
 5175W        W77523  30.582  18.114   2.734
 5176W        W77524  42.406  26.675  14.459
 5177W        W77525  36.499  22.572   5.565
 5178W        W77526   4.939  37.457  11.436
 5179W        W77527  30.058  15.249   1.219
 5180W        W77528   8.367  42.810  12.841
 5181W        W77529   7.298  39.999   1.804
 5182W        W77530   2.754  12.357  12.465
 5183W        W77531  32.420  17.638   1.427
 5184W        W77532  33.560  24.656  10.637
 5185W        W77533  31.606  22.579  14.365
 5186W        W77534  36.857  18.608   3.824
 5187W        W77535  43.888  16.708  12.441
 5188W        W77536  19.267  20.221  12.474
 5189W        W77537  27.956  17.656  13.861
 5190W        W77538   9.281  22.067  13.518
 5191W        W77539  31.626   0.747   2.710
 5192W        W77540   8.288  21.628  11.009
 5193W        W77541   5.724  20.086   3.762
 5194W        W77542  20.599  17.118   3.775
 5195W        W77543  33.483  32.599  11.522
 5196W        W77544  35.003  28.960  11.955
 5197W        W77545  37.494   8.226  13.427
 5198W        W77546   5.896  14.135  13.937
 5199W        W77547  24.643  37.557   4.803
 5200W        W77548  33.001  18.560  12.529
 5201W        W77549  36.874   1.801  11.590
 5202W        W77550  37.433  42.868  14.425
 5203W        W77551   2.911  21.609  12.423
 5204W        W77552  38.820  26.123   1.934
 5205W        W77553   3.857  14.664   4.286
 5206W        W77554  35.996  34.966   3.177
 5207W        W77555  44.307  20.149  11.513
 5208W        W77556  19.615  41.938   5.118
 5209W        W77557  32.398  13.129   2.868
 5210W        W77558   9.389  19.159   2.205
 5211W        W77559  27.086  41.826  14.771
 5212W        W77560  15.215  20.158  13.327
 5213W        W77561  40.011  39.940  11.412
 5214W        W77562   5.717  16.140  14.415
 5215W        W77563   9.831   5.844   4.234
 5216W        W77564  34.916   6.856  10.444
 5217W        W77565  18.552  34.942  13.384
 5218W        W77566  12.633   5.193   1.717
 5219W        W77567   9.682  19.621   1.321
 5220W        W77568   5.754  29.060   2.714
 5221W        W77569  10.667  38.402  14.501
 5222W        W77570  11.283   7.892   4.830
 5223W        W77571  25.976  14.268  14.952
 5224W        W77572  24.576   9.697   4.697
 5225W        W77573   7.884  36.046  13.026
 5226W        W77574   5.780  26.074   0.387
 5227W        W77575  11.748   5.747  11.921
 5228W        W77576   1.777  39.927  13.316
 5229W        W77577  19.710  17.666  10.598
 5230W        W77578   8.893   3.309   0.946
 5231W        W77579  21.543  43.799   3.633
 5232W        W77580   0.379   7.795  12.844
 5233W        W77581  19.616  33.470   4.790
 5234W        W77582  19.249  24.610   1.231
 5235W        W77583  27.461  30.031  11.466
 5236W        W77584   8.726  26.099   1.398
 5237W        W77585   1.399  28.176  14.515
 5238W        W77586  39.503  13.204  13.526
 5239W        W77587  11.252   3.356  12.407
 5240W        W77588   2.364   4.702  11.440
 5241W        W77589  40.318  18.071  10.141
 5242W        W77590  25.550  21.710   3.208
 5243W        W77591  26.089  11.689  11.028
 5244W        W77592  43.331   4.855  10.575
 5245W        W77593  22.731  17.249   2.371
 5246W        W77594   1.468  35.917  13.803
 5247W        W77595  12.702   4.915   4.675
 5248W        W77596  25.129  29.051  14.792
 5249W        W77597  31.930   9.204   0.437
 5250W        W77598  34.906  33.981   3.752
 5251W        W77599  34.885   8.680  13.032
 5252W        W77600   2.762  34.863  14.809
 5253W        W77601  32.974  29.993   3.847
 5254W        W77602   7.287  43.780  13.907
 5255W        W77603  36.092   9.846  14.446
 5256W        W77604  19.065  23.154  12.446
 5257W        W77605  19.234  34.552  14.374
 5258W        W77606  14.761  37.082   1.211
 5259W        W77607  29.427  10.811   3.796
 5260W        W77608  41.956  15.239  13.319
 5261W        W77609  24.207  39.529  10.582
 5262W        W77610  26.559  19.621  14.405
 5263W        W77611  37.904  42.895  12.909
 5264W        W77612  43.425   8.799   1.266
 5265W        W77613  27.943  10.144   4.630
 5266W        W77614  17.089  29.433  13.409
 5267W        W77615  36.940  36.427   2.318
 5268W        W77616  20.115   0.318  14.981
 5269W        W77617  11.297  44.322   4.790
 5270W        W77618  14.670  36.867  11.875
 5271W        W77619   6.301  37.975   1.219
 5272W        W77620  44.771  37.441   2.763
 5273W        W77621   6.250  25.689   4.680
 5274W        W77622  31.646   9.271  13.466
 5275W        W77623  40.049   6.358   4.616
 5276W        W77624  31.953   5.755   1.386
 5277W        W77625  44.290  39.509   3.231
 5278W        W77626  15.140  34.999  12.500
 5279W        W77627  31.634   4.334  13.811
 5280W        W77628  39.852  12.129  11.425
 5281W        W77629  29.156  27.966  13.833
 5282W        W77630  21.050  10.832   2.783
 5283W        W77631  36.462  18.581   3.180
 5284W        W77632  20.704   3.881  12.833
 5285W        W77633   4.765  36.004  11.387
 5286W        W77634  33.592  22.648   4.631
 5287W        W77635   1.326  22.106   0.842
 5288W        W77636  19.595  24.705   3.160
 5289W        W77637  12.622   9.738  13.473
 5290W        W77638  28.079  24.594  12.057
 5291W        W77639  31.994  24.604  10.565
 5292W        W77640   7.719   5.333   3.840
 5293W        W77641  22.043  17.133  10.544
 5294W        W77642  27.951  41.463  12.479
 5295W        W77643  29.133  35.457  11.487
 5296W        W77644  20.239  27.145  13.474
 5297W        W77645   2.353  36.542  12.387
 5298W        W77646  35.065   5.309  11.560
 5299W        W77647  10.708  44.408   4.814
 5300W        W77648  27.073  42.456   2.695
 5301W        W77649  37.564  43.999  13.923
 5302W        W77650   1.458  42.929  14.981
 5303W        W77651  45.000  19.109   3.351
 5304W        W77652  23.047  39.980   4.734
 5305W        W77653   5.912   7.800  12.827
 5306W        W77654  18.559  29.102  12.955
 5307W        W77655  21.121  13.762  11.095
 5308W        W77656  36.070   7.407  13.044
 5309W        W77657  27.181  40.339  11.009
 5310W        W77658  11.782  16.779   4.272
 5311W        W77659  35.555  16.717   2.790
 5312W        W77660   3.280  15.578  11.522
 5313W        W77661  27.175  29.583  14.027
 5314W        W77662  20.075  32.096   1.798
 5315W        W77663   1.420  10.787   2.196
 5316W        W77664  38.937  24.561  13.382
 5317W        W77665  39.050  40.367   1.847
 5318W        W77666   4.388  16.786   3.354
 5319W        W77667   9.860  12.150   4.662
 5320W        W77668  42.858  12.795  13.918
 5321W        W77669  35.098  42.351   1.277
 5322W        W77670  16.183  28.131  11.972
 5323W        W77671  38.366  30.464   0.736
 5324W        W77672   6.686  25.974   2.784
 5325W        W77673  13.243  13.822  10.561
 5326W        W77674  40.816  23.101  13.040
 5327W        W77675  14.617  37.347  14.774
 5328W        W77676  36.846  28.100   4.633
 5329W        W77677  21.129  14.605  14.889
 5330W        W77678  10.383   0.929   0.479
 5331W        W77679  24.045  33.528   1.740
 5332W        W77680  37.889  25.687   0.830
 5333W        W77681  16.093  21.603  13.354
 5334W        W77682  43.934  13.667   0.251
 5335W        W77683   4.339  21.521  10.584
 5336W        W77684   3.375  31.986   3.317
 5337W        W77685   3.372  31.911   2.892
 5338W        W77686  25.674  36.531  12.418
 5339W        W77687  31.046   8.815  12.504
 5340W        W77688  19.214  18.785   3.234
 5341W        W77689  30.555  16.121  14.026
 5342W        W77690  43.784  31.544  10.643
 5343W        W77691  11.719  28.557   4.179
 5344W        W77692  33.001  16.789  11.125
 5345W        W77693  11.179  24.715  14.492
 5346W        W77694  28.663  24.122   2.260
 5347W        W77695  22.566  28.612  10.462
 5348W        W77696  36.913  32.474  12.417
 5349W        W77697  17.779  37.415  12.354
 5350W        W77698  31.645  43.435   0.363
 5351W        W77699  44.923  41.467  13.887
 5352W        W77700  21.605   8.277  10.546
 5353W        W77701  11.770  12.184  14.025
 5354W        W77702   9.882   5.852   5.571
 5355W        W77703  29.450   9.701   4.742
 5356W        W77704  15.784  39.468   3.273
 5357W        W77705   6.713   9.680  13.057
 5358W        W77706  29.595  17.649   1.337
 5359W        W77707   7.672  16.186  11.931
 5360W        W77708  31.463  38.936   9.975
 5361W        W77709  37.495  25.586  14.471
 5362W        W77710   7.320  39.852  12.878
 5363W        W77711  25.503   1.420  13.949
 5364W        W77712  10.852  12.704  12.546
 5365W        W77713  21.748  44.861  11.458
 5366W        W77714  31.486   4.334   0.361
 5367W        W77715   0.806  17.716  14.357
 5368W        W77716  32.630  25.498  14.510
 5369W        W77717  18.647  25.490   2.395
 5370W        W77718   9.358   0.359  12.954
 5371W        W77719  44.271  22.997   0.482
 5372W        W77720  12.645  29.539  10.478
 5373W        W77721  18.271   4.858   4.159
 5374W        W77722  34.609   4.700  10.441
 5375W        W77723  24.641  31.632   1.880
 5376W        W77724  14.713  36.561   4.145
 5377W        W77725  26.459   7.401  14.366
 5378W        W77726   8.829  36.506   0.959
 5379W        W77727  40.546  18.200  11.913
 5380W        W77728  37.939  21.035   4.242
 5381W        W77729   4.749  32.420   4.307
 5382W        W77730  24.229  31.584  12.405
 5383W        W77731  35.888  10.822   1.444
 5384W        W77732  42.291  19.136   0.815
 5385W        W77733   4.304  42.344  14.395
 5386W        W77734  26.629  36.981   2.220
 5387W        W77735  31.052  12.777  14.333
 5388W        W77736  31.416  22.172  13.462
 5389W        W77737   4.337  25.051   0.423
 5390W        W77738  15.695  37.030  11.557
 5391W        W77739  34.075  14.095  14.478
 5392W        W77740  41.358  36.405   0.778
 5393W        W77741  41.804  32.981  12.876
 5394W        W77742  10.859  40.424   3.803
 5395W        W77743  30.110   9.682  12.569
 5396W        W77744  43.962  11.332   2.209
 5397W        W77745  17.169   8.891   1.279
 5398W        W77746   8.655  32.011  12.078
 5399W        W77747  39.498  43.935  14.325
 5400W        W77748  21.219  25.627  12.459
 5401W        W77749   4.438  39.536  12.864
 5402W        W77750  10.146  38.824   1.253
 5403W        W77751   9.691  40.507   4.633
 5404W        W77752  40.821  17.070  11.551
 5405W        W77753  38.483  36.037   4.789
 5406W        W77754  36.863   8.781  14.320
 5407W        W77755  11.232  40.428   0.408
 5408W        W77756  29.616  26.005   3.253
 5409W        W77757  28.141  21.170   2.733
 5410W        W77758  33.541  20.097   1.410
 5411W        W77759  34.581  35.573  11.391
 5412W        W77760  15.738   4.709   4.793
 5413W        W77761  29.546  11.176   2.415
 5414W        W77762  39.003  38.067   2.862
 5415W        W77763  27.081   2.310   0.417
 5416W        W77764  29.491  31.542  10.987
 5417W        W77765   3.780  32.950  10.624
 5418W        W77766  27.052  18.694  13.430
 5419W        W77767   7.782  13.226   1.225
 5420W        W77768  43.831  22.191   1.268
 5421W        W77769  34.872   0.301  14.798
 5422W        W77770   4.921  20.217   2.766
 5423W        W77771  37.523   3.298  12.390
 5424W        W77772  29.143  25.481  11.004
 5425W        W77773  15.616  36.984   3.819
 5426W        W77774  18.622  11.132   1.425
 5427W        W77775   5.209  28.029   4.315
 5428W        W77776  12.855  12.158   2.303
 5429W        W77777  17.646   0.747   2.323
 5430W        W77778  16.719  38.877  10.958
 5431W        W77779  28.163  30.917  10.556
 5432W        W77780   9.155  15.327  14.847
 5433W        W77781  10.165  35.897  11.029
 5434W        W77782  16.207  37.577   3.707
 5435W        W77783  21.170  25.061  13.483
 5436W        W77784  17.132  24.042   4.739
 5437W        W77785  32.117  26.055   1.451
 5438W        W77786  39.331  41.356  12.899
 5439W        W77787   2.259  34.481   1.306
 5440W        W77788  16.803  14.180   0.761
 5441W        W77789  15.645   4.888   2.375
 5442W        W77790   5.867  12.758  12.044
 5443W        W77791  43.903  26.139   2.685
 5444W        W77792  43.916   8.803   1.719
 5445W        W77793   7.791  41.445  11.482
 5446W        W77794   2.776  42.522   2.397
 5447W        W77795  42.328   5.423   0.899
 5448W        W77796  16.746  29.496   2.227
 5449W        W77797  33.479  27.507   1.288
 5450W        W77798   6.403  11.178   3.833
 5451W        W77799  29.523  22.590  13.913
 5452W        W77800  10.139  41.994  14.781
 5453W        W77801  29.527  43.975  14.408
 5454W        W77802  42.866  10.176  12.855
 5455W        W77803  25.100  36.901  10.464
 5456W        W77804  11.164  44.310  13.810
 5457W        W77805   4.295  23.111  10.577
 5458W        W77806  38.328   0.971   3.287
 5459W        W77807  31.593  28.630   4.339
 5460W        W77808  18.162  33.082   2.889
 5461W        W77809  21.122  28.939  13.476
 5462W        W77810  11.226  17.088   4.678
 5463W        W77811  41.844  35.554   2.380
 5464W        W77812  28.945  20.669   1.745
 5465W        W77813   5.812  15.117  14.427
 5466W        W77814  13.156  27.097  11.059
 5467W        W77815  28.619   7.831  13.403
 5468W        W77816  32.423  17.234   0.849
 5469W        W77817   3.894  41.330   2.756
 5470W        W77818   0.836  12.182  13.918
 5471W        W77819  30.451  22.681   4.833
 5472W        W77820  30.085  20.597  14.470
 5473W        W77821   7.414   5.921   3.289
 5474W        W77822  35.059   7.749   4.810
 5475W        W77823   4.793  26.522  10.606
 5476W        W77824  40.483   7.307   1.790
 5477W        W77825  23.735  16.252   2.889
 5478W        W77826   2.410  44.318  11.547
 5479W        W77827   5.720  18.606  12.466
 5480W        W77828  37.483  41.011  14.815
 5481W        W77829  38.333  22.622  12.566
 5482W        W77830  15.780  16.672  13.391
 5483W        W77831  21.555  20.129   4.131
 5484W        W77832  33.477  29.943  12.034
 5485W        W77833  38.416  19.670  13.908
 5486W        W77834  20.677  40.393  11.933
 5487W        W77835  16.276  38.540  13.515
 5488W        W77836  27.122  30.078  12.904
 5489W        W77837  30.634  37.411  13.441
 5490W        W77838  10.672  29.507  11.016
 5491W        W77839  32.598  38.963   3.784
 5492W        W77840   8.761  34.441   9.957
 5493W        W77841   8.853  35.867  14.305
 5494W        W77842  36.986  28.552  12.577
 5495W        W77843   8.761   3.436   3.325
 5496W        W77844  35.486  38.821  14.322
 5497W        W77845  13.780  29.574  12.496
 5498W        W77846  14.775   8.250  13.798
 5499W        W77847  41.438  24.610  11.504
 5500W        W77848  12.732   0.490  13.851
 5501W        W77849  17.126  40.459   0.938
 5502W        W77850  28.021  31.012  13.818
 5503W        W77851  29.958  22.659   4.207
 5504W        W77852  26.534  17.639   1.823
 5505W        W77853  19.658   3.218   2.222
 5506W        W77854  32.126  34.612  12.895
 5507W        W77855   4.861   0.308   0.476
 5508W        W77856  39.357  44.893   2.826
 5509W        W77857   9.287  24.554  11.601
 5510W        W77858   7.349  38.448   0.739
 5511W        W77859   1.854  40.051  11.521
 5512W        W77860  33.580  11.370   1.723
 5513W        W77861   0.790  21.116   1.901
 5514W        W77862  25.682  25.220  11.439
 5515W        W77863  19.099   0.294   0.964
 5516W        W77864  20.607   1.458   4.255
 5517W        W77865  31.073  40.016   4.684
 5518W        W77866   5.430  21.231  14.006
 5519W        W77867  34.571  19.112  13.014
 5520W        W77868   6.396   6.747   2.210
 5521W        W77869  26.656  14.708   1.226
 5522W        W77870  43.474  39.063   0.330
 5523W        W77871  44.915  43.500   3.299
 5524W        W77872  12.684  44.927   3.817
 5525W        W77873  41.536   5.740  13.018
 5526W        W77874  14.711  24.044   0.751
 5527W        W77875  39.821  36.573   4.257
 5528W        W77876  21.262  14.194  11.871
 5529W        W77877  42.004  20.633  10.618
 5530W        W77878  38.445  20.088   3.694
 5531W        W77879   7.403  30.976  12.477
 5532W        W77880  37.371  12.174   4.751
 5533W        W77881  34.462   1.731  12.846
 5534W        W77882   7.814  18.057   4.777
 5535W        W77883   7.408  20.271   1.281
 5536W        W77884   8.788  31.644   3.816
 5537W        W77885  40.052  10.144  12.915
 5538W        W77886  41.034   9.298   3.154
 5539W        W77887   4.935  44.376  13.881
 5540W        W77888  36.845  27.021  11.533
 5541W        W77889   2.855   0.895  10.523
 5542W        W77890  19.643  28.510  10.462
 5543W        W77891   4.349  44.966  14.016
 5544W        W77892  20.766   3.890   4.144
 5545W        W77893  39.975  41.919  11.550
 5546W        W77894  40.514  41.343   5.289
 5547W        W77895  38.431   5.933   3.193
 5548W        W77896  36.028   6.759  12.951
 5549W        W77897   8.351  33.971   9.488
 5550W        W77898  34.046   7.367   4.197
 5551W        W77899  13.722  21.605   2.229
 5552W        W77900  43.308  10.356  13.419
 5553W        W77901  25.673  29.036   4.336
 5554W        W77902   8.328  21.092   4.261
 5555W        W77903  34.455  30.625   0.868
 5556W        W77904  24.711  11.345  10.613
 5557W        W77905   5.313  30.976  14.918
 5558W        W77906  39.056   1.786   4.604
 5559W        W77907  44.934  24.062   4.318
 5560W        W77908  10.731  17.153   4.659
 5561W        W77909   4.850  13.266   3.157
 5562W        W77910  33.875  14.327  14.917
 5563W        W77911  42.458  10.312  10.936
 5564W        W77912  31.543  26.645  11.994
 5565W        W77913  31.099  34.905   2.763
 5566W        W77914   3.332  28.033   1.221
 5567W        W77915  26.995   4.305   3.827
 5568W        W77916  15.725  32.442   0.841
 5569W        W77917   6.347  22.604  13.356
 5570W        W77918  33.471  26.103   2.743
 5571W        W77919   7.174  23.525   0.924
 5572W        W77920  37.335   5.908  12.847
 5573W        W77921  40.343  19.564  11.015
 5574W        W77922  40.495  23.033  10.914
 5575W        W77923  16.683  32.059   1.277
 5576W        W77924   3.777  21.102   1.844
 5577W        W77925   6.687  17.203  10.643
 5578W        W77926  23.217  18.738  12.833
 5579W        W77927  23.603   3.282  10.451
 5580W        W77928  13.657  24.054  10.527
 5581W        W77929  10.260  20.687   1.725
 5582W        W77930   7.246   1.958  12.860
 5583W        W77931  31.031   1.784  11.556
 5584W        W77932  42.910  42.312  14.315
 5585W        W77933   2.757  33.437   3.793
 5586W        W77934   9.838  44.366   1.878
 5587W        W77935  39.040  37.481  11.413
 5588W        W77936  11.225  27.652  14.911
 5589W        W77937  27.665  32.085  12.448
 5590W        W77938  11.777   3.252   3.860
 5591W        W77939  19.579   4.790   0.294
 5592W        W77940  36.932   6.795  13.337
 5593W        W77941  39.912   1.340   1.310
 5594W        W77942  28.026  20.630   2.725
 5595W        W77943   2.773  13.324  11.904
 5596W        W77944  13.709  14.304   1.830
 5597W        W77945   4.877  20.055  12.493
 5598W        W77946   4.235  15.813  10.416
 5599W        W77947  33.924  23.492  12.564
 5600W        W77948  16.714   8.393  14.418
 5601W        W77949  38.822   9.192   3.677
 5602W        W77950  17.177  27.658  14.284
 5603W        W77951  37.941  44.791   0.962
 5604W        W77952   9.740  37.568   5.270
 5605W        W77953  10.257  13.257  12.978
 5606W        W77954   3.886  12.228  13.374
 5607W        W77955  42.862  10.814   0.268
 5608W        W77956  31.608  44.455  11.072
 5609W        W77957  19.178  21.559  11.550
 5610W        W77958  23.233  19.539   4.342
 5611W        W77959  32.441  33.005   4.643
 5612W        W77960  41.010  23.191   1.424
 5613W        W77961  20.650  16.800   1.437
 5614W        W77962  19.697  34.871  12.057
 5615W        W77963  36.577  32.888  11.412
 5616W        W77964   1.417   7.346  12.374
 5617W        W77965  43.310  17.221   4.322
 5618W        W77966   0.366   6.792   4.128
 5619W        W77967   2.254  22.056   1.263
 5620W        W77968  26.952  29.634  12.082
 5621W        W77969  18.729  25.022  13.999
 5622W        W77970   7.416  18.066  14.784
 5623W        W77971  20.535  19.266   4.174
 5624W        W77972  12.805  27.561  14.491
 5625W        W77973  26.171   4.264  10.558
 5626W        W77974  21.153  33.880   3.825
 5627W        W77975  23.722   8.896   1.795
 5628W        W77976   9.798  43.420  14.950
 5629W        W77977  14.112   6.868  10.457
 5630W        W77978  16.123  32.553  11.502
 5631W        W77979  10.660  15.617  12.877
 5632W        W77980  10.638  12.762  11.855
 5633W        W77981   2.312  29.604  10.898
 5634W        W77982  18.151  18.102  13.987
 5635W        W77983  36.447   8.707  14.430
 5636W        W77984  18.711  34.929  14.364
 5637W        W77985  37.996   5.840  13.419
 5638W        W77986   8.800  15.124  12.403
 5639W        W77987  37.355  22.995   3.220
 5640W        W77988  23.121  37.038   3.850
 5641W        W77989  17.203  36.086   3.838
 5642W        W77990  14.335   6.717   1.291
 5643W        W77991   7.354   5.340  11.047
 5644W        W77992  37.510   2.403   3.366
 5645W        W77993  41.435  37.853   1.875
 5646W        W77994  43.805   8.215  10.591
 5647W        W77995  37.012   1.411   1.435
 5648W        W77996  20.031  16.240  14.405
 5649W        W77997  43.822  39.418   1.929
 5650W        W77998  44.435  31.096   2.344
 5651W        W77999  40.513  21.667  11.604
 5652W        W78000  18.613   1.274   0.820
 5653W        W78001   8.353  20.679   4.118
 5654W        W78002   0.889  44.803   1.288
 5655W        W78003  21.172  32.016   3.325
 5656W        W78004  39.966  24.095  13.885
 5657W        W78005  42.376  43.845  10.990
 5658W        W78006   0.811  43.301  12.505
 5659W        W78007  26.586  15.706   0.844
 5660W        W78008  23.629  43.804  11.563
 5661W        W78009  33.417   3.265  10.535
 5662W        W78010   8.351  14.227   4.225
 5663W        W78011  27.519  15.255  13.521
 5664W        W78012  30.945  14.773  12.904
 5665W        W78013  42.925   7.369  14.794
 5666W        W78014  21.093  14.205   1.818
 5667W        W78015  17.651  42.797   3.706
 5668W        W78016  31.915  39.843   3.665
 5669W        W78017  25.090  38.996  14.397
 5670W        W78018  26.028   4.868  13.893
 5671W        W78019  11.280  25.089  10.937
 5672W        W78020  25.560  20.117  13.922
 5673W        W78021   9.364  32.074   2.698
 5674W        W78022  10.243   8.203  14.308
 5675W        W78023  43.998  33.899   1.380
 5676W        W78024   0.385  43.862  13.351
 5677W        W78025  13.144   9.688   4.756
 5678W        W78026  41.020  12.300  14.798
 5679W        W78027   8.756  26.958  12.555
 5680W        W78028  36.530  13.127  14.973
 5681W        W78029  14.224   1.924  11.473
 5682W        W78030  10.157  42.484  12.496
 5683W        W78031  14.740  19.151   3.211
 5684W        W78032   2.893  40.365  14.910
 5685W        W78033  37.914  22.560   4.800
 5686W        W78034  14.828  34.545   4.117
 5687W        W78035  44.771   9.207   0.795
 5688W        W78036  19.651  18.610  10.414
 5689W        W78037  11.322   8.294   4.667
 5690W        W78038  29.971  18.265   1.240
 5691W        W78039  42.866  23.548  12.884
 5692W        W78040  18.553  33.401   1.364
 5693W        W78041  20.081  19.208  13.032
 5694W        W78042  16.805   5.272  11.863
 5695W        W78043  27.947  21.660   0.771
 5696W        W78044  34.481  21.693   1.911
 5697W        W78045  23.511  12.649  13.900
 5698W        W78046  22.044  20.106   1.271
 5699W        W78047   8.773   2.852  12.029
 5700W        W78048  30.132   1.408  11.964
 5701W        W78049  43.447   5.298  11.067
 5702W        W78050  43.818  35.902   4.339
 5703W        W78051  13.351  26.579  14.398
 5704W        W78052  19.233  37.872   4.604
 5705W        W78053  12.230  30.557  12.835
 5706W        W78054  43.286  18.285  11.411
 5707W        W78055  10.170   5.339  14.369
 5708W        W78056  20.597  41.804   4.755
 5709W        W78057  27.604   3.750  12.852
 5710W        W78058  15.108  43.457   2.217
 5711W        W78059   6.848  11.783  14.954
 5712W        W78060  27.636  14.723   0.743
 5713W        W78061  23.180  35.431  14.511
 5714W        W78062  15.257  26.701  11.874
 5715W        W78063  17.260   7.838   0.727
 5716W        W78064  16.106  31.528  11.943
 5717W        W78065  27.125   7.256   2.302
 5718W        W78066  37.963  23.662   1.859
 5719W        W78067  14.222  37.982   1.443
 5720W        W78068  15.279  31.448  10.890
 5721W        W78069  34.953  30.593   0.334
 5722W        W78070   8.216  29.017   2.755
 5723W        W78071   8.248  28.454   2.858
 5724W        W78072  24.699   8.656   3.841
 5725W        W78073  19.642  24.168  14.501
 5726W        W78074  15.588  37.968   0.917
 5727W        W78075  39.874   9.739  13.463
 5728W        W78076   3.449  39.834  12.952
 5729W        W78077  21.044  26.097  13.361
 5730W        W78078  11.283  40.001   2.736
 5731W        W78079  28.080  17.084   2.191
 5732W        W78080  23.647  17.066   2.871
 5733W        W78081  43.377  21.658   3.795
 5734W        W78082  42.846  36.037   1.895
 5735W        W78083  29.169  12.821  12.432
 5736W        W78084   9.326   2.743   3.709
 5737W        W78085  21.600  31.125  14.390
 5738W        W78086  11.166  31.932   0.950
 5739W        W78087  20.247  39.483  12.445
 5740W        W78088   6.367  33.469  14.860
 5741W        W78089  43.468  18.731   1.347
 5742W        W78090   5.839  15.805  12.391
 5743W        W78091  25.218   6.877   2.192
 5744W        W78092  27.125  36.017  11.086
 5745W        W78093  43.967  15.681  13.940
 5746W        W78094  12.847  21.666   2.337
 5747W        W78095  20.246  21.079   5.292
 5748W        W78096  26.202  38.855   2.285
 5749W        W78097  26.205   8.718   2.197
 5750W        W78098  37.512   8.752   4.323
 5751W        W78099  42.856  22.172   2.755
 5752W        W78100  26.617  33.094  13.431
 5753W        W78101  43.895  44.002  11.019
 5754W        W78102  21.200  23.521   4.189
 5755W        W78103  14.132  16.251  10.626
 5756W        W78104   3.444  21.730  11.040
 5757W        W78105  41.306  34.946  14.925
 5758W        W78106  37.397   2.367  13.315
 5759W        W78107  16.145   7.793  12.962
 5760W        W78108  18.208  12.271   1.247
 5761W        W78109  23.056  36.053   0.405
 5762W        W78110  43.448  16.769  14.819
 5763W        W78111  23.989  38.511   3.292
 5764W        W78112  25.699  11.850   4.325
 5765W        W78113   2.278  17.247  14.902
 5766W        W78114   7.806  20.660   2.738
 5767W        W78115  11.141   1.862  10.960
 5768W        W78116  18.670   1.866  12.893
 5769W        W78117  15.782  16.246   0.749
 5770W        W78118  28.977  20.230  14.927
 5771W        W78119  25.513  19.714   2.734
 5772W        W78120  37.046  33.418  10.620
 5773W        W78121  25.078   3.343   3.726
 5774W        W78122  13.241   4.789   2.802
 5775W        W78123  30.481  21.071  14.442
 5776W        W78124  24.166  42.366   4.664
 5777W        W78125  43.842   7.881   4.689
 5778W        W78126  42.403  21.706  11.437
 5779W        W78127  15.268   1.443   0.305
 5780W        W78128  18.611  41.490  10.031
 5781W        W78129  31.001  16.763   3.298
 5782W        W78130  23.624  34.969  11.429
 5783W        W78131  33.918  36.035   4.157
 5784W        W78132  31.973  10.192   0.376
 5785W        W78133  24.573  19.221   3.862
 5786W        W78134   1.930  39.900  11.885
 5787W        W78135  12.614  26.516   1.934
 5788W        W78136   6.904  31.600   2.386
 5789W        W78137   1.883  16.299   2.383
 5790W        W78138  40.462  43.423   1.314
 5791W        W78139   9.283  29.083  12.385
 5792W        W78140  21.726  14.261   5.150
 5793W        W78141  20.634   5.257   3.243
 5794W        W78142   6.838   6.292  11.520
 5795W        W78143  30.643  14.216  13.902
 5796W        W78144  10.277  10.651  14.773
 5797W        W78145   4.898  30.131  13.391
 5798W        W78146   5.759  26.967   3.684
 5799W        W78147   5.713  35.549   4.293
 5800W        W78148  39.825  29.078   2.394
 5801W        W78149   4.255   1.433   0.414
 5802W        W78150   8.802   3.381   4.793
 5803W        W78151   1.822  12.792   2.758
 5804W        W78152  43.811  24.126  11.889
 5805W        W78153  39.861   9.854  13.045
 5806W        W78154  38.907  22.023  12.436
 5807W        W78155  44.863   1.898   4.324
 5808W        W78156  40.992  35.369  12.378
 5809W        W78157  23.663   5.789   0.747
 5810W        W78158  12.781  31.093  14.799
 5811W        W78159  38.916  24.689  13.866
 5812W        W78160  41.811  12.654  14.786
 5813W        W78161  19.608  34.980   0.936
 5814W        W78162  18.561  24.989  11.932
 5815W        W78163  39.480   8.797  10.476
 5816W        W78164  18.287  19.755   3.847
 5817W        W78165  26.968   8.794   0.469
 5818W        W78166  28.511  25.609   1.379
 5819W        W78167   4.841   8.893  11.465
 5820W        W78168  31.962  26.190  12.896
 5821W        W78169  19.152  31.936  10.575
 5822W        W78170  35.514  21.732  14.836
 5823W        W78171  25.092  27.181  11.546
 5824W        W78172  36.413   8.298   3.346
 5825W        W78173   9.172  30.066   4.694
 5826W        W78174   2.316   8.791   0.821
 5827W        W78175   4.423   5.197   3.241
 5828W        W78176   4.889  22.740   4.178
 5829W        W78177  36.011  11.248   2.896
 5830W        W78178  29.537  12.238  10.933
 5831W        W78179   6.891   5.722   3.786
 5832W        W78180  25.551  29.606   2.690
 5833W        W78181  29.518  43.810  12.885
 5834W        W78182  24.669   8.775  12.368
 5835W        W78183  23.170  18.685   1.258
 5836W        W78184  30.414  19.669   3.807
 5837W        W78185  15.319  35.028   3.250
 5838W        W78186  33.025   5.381  13.867
 5839W        W78187  42.781  25.532   3.238
 5840W        W78188  22.166  12.287  12.562
 5841W        W78189  17.686  19.656   0.936
 5842W        W78190  30.625  38.937   0.256
 5843W        W78191   3.729  34.535  14.864
 5844W        W78192  16.610  25.666  11.912
 5845W        W78193  11.658   2.356  12.996
 5846W        W78194  30.537  16.612   4.226
 5847W        W78195  13.635  27.601   4.275
 5848W        W78196  30.136   9.822   2.862
 5849W        W78197  44.833   7.731   0.831
 5850W        W78198  21.615   1.843   1.373
 5851W        W78199   9.268  32.135   1.857
 5852W        W78200  15.116  14.210  10.964
 5853W        W78201  20.254  32.951   2.811
 5854W        W78202  26.117  30.101   1.254
 5855W        W78203  25.152  41.399  11.051
 5856W        W78204  23.091   5.393  11.074
 5857W        W78205  33.905  43.930   4.691
 5858W        W78206  20.541  12.129  11.605
 5859W        W78207  16.710   4.401  14.907
 5860W        W78208  22.184  27.632  10.914
 5861W        W78209   8.753  12.248  10.543
 5862W        W78210   8.896   7.712   2.353
 5863W        W78211  20.662   5.839   1.448
 5864W        W78212  37.971   7.226  11.593
 5865W        W78213  27.163  42.350   3.768
 5866W        W78214   2.743  40.541  13.374
 5867W        W78215  32.123  27.090  11.606
 5868W        W78216   3.926   6.733   4.789
 5869W        W78217   6.916  19.195   2.199
 5870W        W78218  13.756   5.751   2.692
 5871W        W78219   9.211   2.966   0.272
 5872W        W78220   4.369  22.568  11.031
 5873W        W78221  33.894   3.439   2.212
 5874W        W78222  23.666   7.840  14.929
 5875W        W78223   2.298  35.928   0.769
 5876W        W78224  10.656  30.487   4.796
 5877W        W78225   5.896  30.048   2.277
 5878W        W78226   5.216   4.771  11.104
 5879W        W78227  17.069  27.454  11.920
 5880W        W78228  28.082  11.830  11.064
 5881W        W78229  30.122  39.425  11.466
 5882W        W78230  29.534  23.504  12.972
 5883W        W78231  24.517  15.709   1.326
 5884W        W78232  44.480  44.880   0.870
 5885W        W78233   9.385  14.788   2.892
 5886W        W78234  32.579  30.115  13.868
 5887W        W78235  40.421  15.103   1.753
 5888W        W78236  11.322  32.478  12.540
 5889W        W78237  19.138  39.432  13.030
 5890W        W78238   2.832  11.188  14.452
 5891W        W78239  37.574   8.384   0.883
 5892W        W78240  26.129   0.470   0.761
 5893W        W78241   6.225  33.903  14.956
 5894W        W78242  31.433  38.899   2.255
 5895W        W78243  14.804  32.500  13.939
 5896W        W78244  32.029  11.635  14.317
 5897W        W78245  16.803  26.525   0.242
 5898W        W78246   6.756  25.492   4.167
 5899W        W78247  42.371  21.673   4.671
 5900W        W78248  36.054   2.849  10.919
 5901W        W78249  42.974  18.778   0.805
 5902W        W78250  29.083  31.070  14.873
 5903W        W78251  33.958  27.578   3.814
 5904W        W78252  20.675  44.822  10.569
 5905W        W78253  34.426   9.815   0.338
 5906W        W78254  13.807  37.458  13.364
 5907W        W78255  21.241  28.539   3.218
 5908W        W78256  31.492   8.768   4.660
 5909W        W78257  18.599  35.010  14.945
 5910W        W78258  34.108  15.684  10.422
 5911W        W78259  27.143  23.174  14.922
 5912W        W78260   1.895   0.325   4.805
 5913W        W78261  18.185  24.635   3.236
 5914W        W78262  24.053  20.619   4.830
 5915W        W78263  34.580   0.771  14.873
 5916W        W78264  35.506  19.641  11.527
 5917W        W78265  25.599   0.272   0.741
 5918W        W78266  35.945  10.188   2.414
 5919W        W78267  43.320  22.583   3.632
 5920W        W78268  12.272  38.564   4.754
 5921W        W78269  18.779  38.425  12.440
 5922W        W78270  20.146   0.804  13.023
 5923W        W78271   4.265  31.575   4.616
 5924W        W78272   3.770  13.604   1.822
 5925W        W78273  15.168  28.022   3.735
 5926W        W78274   2.372   3.322   4.774
 5927W        W78275  13.837  12.613   5.268
 5928W        W78276  43.853  36.044   3.319
 5929W        W78277  16.611   9.820  10.577
 5930W        W78278   2.800   2.724   2.311
 5931W        W78279  42.349  43.959  10.588
 5932W        W78280  27.042  11.199   3.300
 5933W        W78281   9.659  26.168   0.858
 5934W        W78282  43.373   8.715  13.431
 5935W        W78283  12.671  39.891  11.006
 5936W        W78284  31.973  16.148  10.471
 5937W        W78285  10.379  39.485  14.867
 5938W        W78286  42.025  16.213   4.204
 5939W        W78287  21.555   1.793  14.948
 5940W        W78288  32.974  25.643   2.713
 5941W        W78289  33.997   7.912   1.856
 5942W        W78290   1.854   5.769   2.901
 5943W        W78291  42.933  11.264  12.877
 5944W        W78292   7.207  11.291   4.707
 5945W        W78293  41.391  28.952  12.096
 5946W        W78294   9.308  23.032   1.925
 5947W        W78295  15.324  10.189   3.758
 5948W        W78296  36.850  43.962   3.201
 5949W        W78297  27.100  35.014   1.804
 5950W        W78298  30.446  26.063  11.000
 5951W        W78299  27.054  38.891   3.279
 5952W        W78300   3.852  14.159  10.119
 5953W        W78301   4.434  36.066  12.507
 5954W        W78302  39.825   0.945  14.366
 5955W        W78303  21.580  40.840   3.377
 5956W        W78304  12.767  17.703   3.843
 5957W        W78305  31.447   5.436  11.074
 5958W        W78306  40.809  26.958  12.838
 5959W        W78307  34.924  16.793   3.150
 5960W        W78308   9.233  33.976   0.793
 5961W        W78309  16.567   0.460  10.921
 5962W        W78310  21.261  18.120   3.651
 5963W        W78311   3.912  13.299  11.602
 5964W        W78312   0.951  22.163  11.876
 5965W        W78313  22.070  11.656   1.890
 5966W        W78314  39.912  33.938   2.302
 5967W        W78315  33.553   9.872  10.045
 5968W        W78316  30.972  11.749   1.252
 5969W        W78317  18.758  36.586  14.459
 5970W        W78318  44.819  17.172  11.515
 5971W        W78319  38.930  44.348  14.807
 5972W        W78320  15.251  23.595   1.857
 5973W        W78321  13.321   7.310   3.719
 5974W        W78322  34.553  29.030   0.784
 5975W        W78323   1.843  18.262  12.351
 5976W        W78324   1.735   8.340  12.395
 5977W        W78325  37.043   9.705  11.122
 5978W        W78326  44.401  23.632   0.259
 5979W        W78327  35.040   0.281   3.644
 5980W        W78328  29.096  43.939   1.831
 5981W        W78329  11.696   1.959  12.368
 5982W        W78330  27.521  27.686  12.909
 5983W        W78331   0.901  12.628   4.707
 5984W        W78332  21.162  19.103   3.315
 5985W        W78333  26.593  20.054  10.901
 5986W        W78334  43.798  32.018  11.532
 5987W        W78335  31.983  37.052   1.918
 5988W        W78336   6.350   4.729   4.249
 5989W        W78337   8.219  15.198  13.426
 5990W        W78338  19.548   7.341  14.876
 5991W        W78339  25.083  31.550  12.456
 5992W        W78340   9.217  12.714   1.307
 5993W        W78341  15.723  34.968  12.004
 5994W        W78342  38.054   0.925  11.082
 5995W        W78343  25.122  13.124  13.923
 5996W        W78344   1.286  33.120   2.247
 5997W        W78345  17.158  16.241   1.260
 5998W        W78346  27.108  25.209   1.923
 5999W        W78347  37.376  31.059   4.154
 6000W        W78348  27.557   7.723   4.650
 6001W        W78349  31.024   7.800  12.474
 6002W        W78350   5.882  11.339  10.645
 6003W        W78351  37.832   3.413  12.411
 6004W        W78352  35.888  23.106  10.480
 6005W        W78353  32.906  11.633   1.289
 6006W        W78354   0.314  14.659   3.321
 6007W        W78355  41.298  44.287  12.495
 6008W        W78356  11.735  26.959  11.994
 6009W        W78357  39.894  27.543  14.446
 6010W        W78358  15.730  16.608   2.886
 6011W        W78359  21.553  38.377   3.322
 6012W        W78360  44.443  39.327   2.845
 6013W        W78361  34.098  32.630  14.845
 6014W        W78362  15.226  10.294  13.436
 6015W        W78363  20.671  24.974  12.903
 6016W        W78364  33.432  25.472   3.172
 6017W        W78365  14.241   3.279  10.598
 6018W        W78366  26.072  37.870  12.385
 6019W        W78367  33.946  35.552   4.694
 6020W        W78368  39.506  13.727  11.943
 6021W        W78369  10.697  24.041   2.807
 6022W        W78370  34.595  11.745   4.183
 6023W        W78371  11.352  14.139  14.450
 6024W        W78372   4.238  28.107   2.888
 6025W        W78373   0.882  36.583   4.719
 6026W        W78374  15.815  43.803  13.389
 6027W        W78375  16.733  12.256  10.113
 6028W        W78376   7.687  26.552  14.331
 6029W        W78377  32.573  31.921   4.285
 6030W        W78378  27.652  24.700   3.850
 6031W        W78379  34.107  13.601  14.878
 6032W        W78380  31.018   3.844  11.532
 6033W        W78381  23.013  18.724  13.539
 6034W        W78382   6.393  23.719   9.999
 6035W        W78383  23.064  16.289   3.377
 6036W        W78384   5.811   8.334   3.331
 6037W        W78385  14.710  37.491  11.994
 6038W        W78386  39.418   4.741  11.460
 6039W        W78387  12.198   0.914  12.085
 6040W        W78388  11.745  41.477  10.117
 6041W        W78389  13.664  11.674   2.403
 6042W        W78390  10.383  44.863  12.849
 6043W        W78391  40.361   0.464   0.908
 6044W        W78392  24.977   5.263  13.921
 6045W        W78393  13.109  42.787  12.001
 6046W        W78394   1.256  31.111  14.504
 6047W        W78395  29.013  15.318  10.564
 6048W        W78396   1.854  15.254   1.910
 6049W        W78397  36.883   5.758   1.338
 6050W        W78398  25.033   7.333  11.000
 6051W        W78399  23.539  41.954  10.499
 6052W        W78400  38.503  30.983  14.426
 6053W        W78401   9.245  33.973   1.925
 6054W        W78402  35.001  18.770   1.705
 6055W        W78403   7.722  19.185  13.449
 6056W        W78404  23.079  22.067   0.917
 6057W        W78405  35.486  44.352   2.885
 6058W        W78406  40.998  11.223   0.783
 6059W        W78407   2.260   2.276  11.105
 6060W        W78408  27.544  11.705  14.395
 6061W        W78409  42.776  20.066  12.071
 6062W        W78410  17.778  13.311   3.837
 6063W        W78411  34.965  15.104  11.125
 6064W        W78412   2.463   8.334   2.375
 6065W        W78413   0.849   7.356  14.928
 6066W        W78414  38.400  41.386   3.288
 6067W        W78415   2.799  24.199   2.726
 6068W        W78416   5.782  37.549   1.710
 6069W        W78417  41.341  10.354  10.967
 6070W        W78418  44.441  36.887  10.526
 6071W        W78419  13.835   5.862  13.519
 6072W        W78420  28.048   6.266   2.415
 6073W        W78421   3.879   4.806  14.823
 6074W        W78422  40.514  36.995  14.926
 6075W        W78423   5.735   8.216   1.813
 6076W        W78424  19.280  19.154  14.960
 6077W        W78425  42.845  33.603   1.749
 6078W        W78426   8.232  22.077  13.513
 6079W        W78427  11.847   5.870   5.279
 6080W        W78428  37.350  31.969   1.790
 6081W        W78429  16.091  44.277  14.463
 6082W        W78430  42.032   7.327  10.559
 6083W        W78431  29.006   9.358  13.425
 6084W        W78432  15.617  15.630   2.704
 6085W        W78433   6.846  28.632  11.986
 6086W        W78434  24.133  44.355   2.670
 6087W        W78435  39.437  18.780  13.419
 6088W        W78436  19.264   9.780   4.677
 6089W        W78437  22.671  19.574  14.943
 6090W        W78438  33.481  21.114  13.471
 6091W        W78439  26.606  10.236   5.298
 6092W        W78440  12.343  24.148  10.916
 6093W        W78441  28.046  26.466   3.655
 6094W        W78442  20.070  15.098  12.092
 6095W        W78443  29.462  19.134  12.566
 6096W        W78444  42.433  38.556   0.338
 6097W        W78445  23.556  16.091   1.434
 6098W        W78446  19.122  39.833  10.443
 6099W        W78447  44.413  44.429  14.437
 6100W        W78448  22.686   7.341   9.545
 6101W        W78449  40.366  24.510   2.760
 6102W        W78450  44.949  10.372   0.966
 6103W        W78451   6.225  10.212  12.899
 6104W        W78452  14.802  25.166  13.424
 6105W        W78453  36.876  41.481  10.571
 6106W        W78454  33.442  34.040  10.019
 6107W        W78455  15.707  20.049   4.818
 6108W        W78456  36.567   7.322   3.807
 6109W        W78457  13.143  39.916  11.592
 6110W        W78458  23.095   4.237  11.004
 6111W        W78459  11.717  41.307  13.421
 6112W        W78460  11.755  38.496  12.488
 6113W        W78461   1.757  12.804  12.952
 6114W        W78462   3.899  20.692  14.475
 6115W        W78463  33.969   1.364   4.336
 6116W        W78464  31.583  35.480   4.189
 6117W        W78465  12.353  10.329  13.930
 6118W        W78466  41.809   2.745  12.946
 6119W        W78467  20.247  16.316  12.400
 6120W        W78468  21.682   3.712  12.541
 6121W        W78469  44.300  22.658   3.738
 6122W        W78470   6.908   6.769   0.814
 6123W        W78471   4.439  26.505   0.362
 6124W        W78472   5.225  27.098  12.427
 6125W        W78473  15.294  42.437  10.541
 6126W        W78474  37.064   4.239  13.537
 6127W        W78475  38.539   4.708  10.012
 6128W        W78476   8.186   3.890   2.302
 6129W        W78477  16.219  32.072  10.426
 6130W        W78478  29.580  11.753  11.978
 6131W        W78479   3.912  20.216  14.361
 6132W        W78480  36.015  34.541  10.619
 6133W        W78481  22.556  31.130   4.139
 6134W        W78482   2.822  13.143  13.389
 6135W        W78483  17.715  18.612   1.909
 6136W        W78484  31.132  12.823   1.351
 6137W        W78485   3.309  29.950   0.449
 6138W        W78486  27.097  29.161   2.896
 6139W        W78487  14.166  26.699  13.850
 6140W        W78488  11.629  44.842   2.738
 6141W        W78489  30.929  16.193   2.693
 6142W        W78490  20.221  36.038  14.841
 6143W        W78491  43.486  38.499   0.364
 6144W        W78492  39.352  37.977  14.864
 6145W        W78493  39.992  28.580   1.248
 6146W        W78494  43.311   9.359   2.836
 6147W        W78495  13.255  18.055   1.730
 6148W        W78496  25.067  28.981   2.414
 6149W        W78497  32.559  12.239  11.602
 6150W        W78498  37.525  23.627   0.281
 6151W        W78499  41.929  31.007  14.775
 6152W        W78500   4.884   2.763   0.254
 6153W        W78501  18.154  15.292   3.844
 6154W        W78502  39.341  10.169   3.252
 6155W        W78503   6.344  43.983   1.225
 6156W        W78504  21.554   0.484  14.486
 6157W        W78505  24.994  16.690   1.901
 6158W        W78506  10.167  31.466   3.753
 6159W        W78507  17.068   4.861   4.704
 6160W        W78508  12.306  14.161   4.327
 6161W        W78509   6.414  30.611  11.611
 6162W        W78510   6.861  30.013  14.931
 6163W        W78511  29.484  17.202  14.509
 6164W        W78512  14.594  34.414   2.902
 6165W        W78513  37.946  18.156  14.893
 6166W        W78514  14.754  21.583   2.218
 6167W        W78515  12.214  22.043   0.415
 6168W        W78516   0.445  11.800   2.188
 6169W        W78517  34.932  38.376   0.290
 6170W        W78518   4.929  24.484  12.444
 6171W        W78519  15.247  24.048   2.407
 6172W        W78520  12.834  37.993  11.380
 6173W        W78521   0.917   7.195   0.480
 6174W        W78522  31.091  16.783   1.866
 6175W        W78523  18.722   6.349   5.279
 6176W        W78524  42.292  25.098  14.365
 6177W        W78525  44.872  28.148  11.103
 6178W        W78526  33.436  21.109   2.748
 6179W        W78527  40.030  16.197   0.429
 6180W        W78528  34.958   2.925   3.161
 6181W        W78529  15.208  16.097  12.570
 6182W        W78530   2.932   8.712  14.442
 6183W        W78531  32.513  13.161  13.513
 6184W        W78532  40.535  31.601  10.534
 6185W        W78533   2.924   8.165  14.929
 6186W        W78534  36.476  21.042   3.322
 6187W        W78535  20.536  37.375   3.804
 6188W        W78536  32.932  21.182  14.916
 6189W        W78537  15.318  29.963  14.286
 6190W        W78538  12.297   1.238   4.621
 6191W        W78539  38.996   8.698  11.590
 6192W        W78540  16.162  11.636   3.327
 6193W        W78541  13.699  21.191  13.324
 6194W        W78542  11.860  43.874  11.490
 6195W        W78543   1.927  10.215  11.578
 6196W        W78544  36.053  38.363  10.985
 6197W        W78545   1.386  21.192   0.851
 6198W        W78546   2.912  19.677   0.842
 6199W        W78547   7.826  33.400   5.191
 6200W        W78548  14.191  25.064   0.750
 6201W        W78549   8.268  24.093   3.739
 6202W        W78550  34.493  29.992  10.958
 6203W        W78551  19.107  44.002  13.401
 6204W        W78552  38.854  24.539   2.785
 6205W        W78553  25.575  16.244  10.430
 6206W        W78554  21.082   1.350   1.825
 6207W        W78555  16.791  19.239  12.433
 6208W        W78556  39.885   1.813  10.932
 6209W        W78557  27.001  20.048   2.705
 6210W        W78558  39.049  33.448  11.545
 6211W        W78559  25.518  10.334   5.215
 6212W        W78560  35.965  36.044  11.444
 6213W        W78561   8.271  35.072  14.887
 6214W        W78562  34.938   7.363  11.091
 6215W        W78563  40.363  38.905   3.260
 6216W        W78564   3.719  40.803   2.857
 6217W        W78565   1.283  28.583  10.576
 6218W        W78566  26.573  31.526   3.158
 6219W        W78567  14.770   6.845   4.302
 6220W        W78568  13.332   1.448  11.477
 6221W        W78569  10.230   9.181   3.377
 6222W        W78570  22.006  32.130   4.599
 6223W        W78571  26.481  21.569   0.777
 6224W        W78572   9.360  10.717  14.280
 6225W        W78573  31.096  21.166  11.874
 6226W        W78574  11.699  15.317   3.278
 6227W        W78575  16.660  17.201  12.349
 6228W        W78576   9.804  35.054  12.034
 6229W        W78577  18.125  23.576  11.424
 6230W        W78578  10.820  18.100  11.430
 6231W        W78579  18.564   9.828  13.499
 6232W        W78580  29.099   1.341   3.794
 6233W        W78581  28.628  35.366  13.480
 6234W        W78582  29.941  18.663  14.768
 6235W        W78583   2.346  30.442   0.463
 6236W        W78584  42.913   7.173  10.504
 6237W        W78585   2.772   7.313   2.747
 6238W        W78586  28.107  14.688  13.376
 6239W        W78587  13.237   1.336   2.664
 6240W        W78588  20.599  26.496  11.081
 6241W        W78589  25.124  14.245   1.364
 6242W        W78590  29.482  43.278  12.891
 6243W        W78591   2.308  26.539   0.435
 6244W        W78592  26.576  30.486  11.373
 6245W        W78593   8.757   7.777  11.903
 6246W        W78594  33.404   3.750   2.290
 6247W        W78595  29.925  34.090   0.897
 6248W        W78596   0.494  39.866  11.458
 6249W        W78597   6.733  35.897   1.829
 6250W        W78598  33.006  34.029   2.343
 6251W        W78599  32.937  26.973   3.337
 6252W        W78600  18.257  34.864   2.226
 6253W        W78601  35.456  31.998   3.318
 6254W        W78602  35.487  15.100   3.196
 6255W        W78603  10.765  13.323   3.231
 6256W        W78604  26.629  20.030   4.788
 6257W        W78605  22.168   9.821   4.804
 6258W        W78606  39.439  31.929   5.124
 6259W        W78607   0.457  43.892  12.501
 6260W        W78608   5.899  27.191   4.649
 6261W        W78609   7.721  21.701  14.414
 6262W        W78610  32.398  11.249   4.155
 6263W        W78611  31.514  23.031  10.489
 6264W        W78612   5.223  34.912   3.363
 6265W        W78613   1.778  32.024   2.341
 6266W        W78614   1.325  36.955  12.975
 6267W        W78615  33.521  36.421   2.739
 6268W        W78616   6.806  14.172   0.899
 6269W        W78617  20.196  17.761  14.809
 6270W        W78618  30.434   2.932  14.495
 6271W        W78619  19.640  19.715  12.390
 6272W        W78620  29.460  11.694  10.482
 6273W        W78621  14.193  35.861   3.859
 6274W        W78622   0.402  33.994   2.322
 6275W        W78623  19.578  27.995   4.770
 6276W        W78624   9.687  22.536   4.745
 6277W        W78625  32.106  42.786  13.875
 6278W        W78626  17.777   6.290   2.826
 6279W        W78627  28.676   6.715   1.210
 6280W        W78628   3.309  44.996  11.111
 6281W        W78629  24.155   4.816   4.189
 6282W        W78630   0.988   8.735  10.626
 6283W        W78631  24.163  22.143   2.759
 6284W        W78632   9.226   6.189   1.277
 6285W        W78633  22.746  13.333  11.092
 6286W        W78634  42.908  37.066   4.695
 6287W        W78635   4.240   1.370  13.064
 6288W        W78636  30.608  19.737  14.765
 6289W        W78637   5.237  23.551  14.352
 6290W        W78638  24.056  26.463   4.240
 6291W        W78639   6.716  43.802   0.321
 6292W        W78640  44.478  17.708   0.918
 6293W        W78641   2.407  26.198   4.122
 6294W        W78642   3.257  12.819  13.454
 6295W        W78643  23.225  31.002   4.629
 6296W        W78644  15.801  28.535  12.996
 6297W        W78645  10.362  11.757   4.308
 6298W        W78646  40.469  33.955   2.874
 6299W        W78647  17.621  39.835   2.277
 6300W        W78648   7.310  18.642   4.686
 6301W        W78649  17.764  22.106   4.776
 6302W        W78650  29.590  20.102   0.924
 6303W        W78651  31.018  21.045  14.853
 6304W        W78652  42.906  37.838  14.911
 6305W        W78653  40.948  39.382   1.857
 6306W        W78654  17.208  24.553  12.837
 6307W        W78655  22.219  10.850   2.210
 6308W        W78656  43.306   9.318   4.643
 6309W        W78657  33.564  18.545   1.862
 6310W        W78658  10.707  42.842  13.348
 6311W        W78659  44.456   9.788  11.542
 6312W        W78660  12.636  39.393   1.840
 6313W        W78661  42.331  21.669  14.835
 6314W        W78662  38.557  14.678   4.334
 6315W        W78663   2.232   8.225   4.158
 6316W        W78664  25.071  20.143   2.734
 6317W        W78665  27.984   4.765  12.864
 6318W        W78666  26.589  26.020   2.401
 6319W        W78667  16.573  26.172   2.831
 6320W        W78668   0.907  12.216   3.288
 6321W        W78669  29.030  43.507  10.896
 6322W        W78670  42.985   3.286   1.853
 6323W        W78671  20.743   7.787   4.123
 6324W        W78672  32.899  15.153  12.013
 6325W        W78673   3.921   7.284  13.889
 6326W        W78674  43.286  31.581   3.639
 6327W        W78675  44.453  25.533   4.236
 6328W        W78676  16.803  13.803  13.051
 6329W        W78677  32.487   8.855  11.505
 6330W        W78678  44.820  13.717   4.336
 6331W        W78679  11.316   4.337   1.348
 6332W        W78680   6.360   1.294   4.255
 6333W        W78681   0.454   0.348   1.899
 6334W        W78682  16.151  44.290  11.542
 6335W        W78683  44.780   7.713  13.499
 6336W        W78684  22.660  19.623   5.115
 6337W        W78685  18.080  41.871   1.711
 6338W        W78686  32.104  12.206  12.049
 6339W        W78687  10.356   1.948  14.300
 6340W        W78688   7.230  43.905  11.428
 6341W        W78689  15.728  11.709   9.439
 6342W        W78690  38.886   2.758  11.524
 6343W        W78691  17.143  40.989   2.776
 6344W        W78692  28.435  43.457   1.326
 6345W        W78693  16.274  13.767  14.954
 6346W        W78694  26.962   9.771   0.867
 6347W        W78695  21.079  39.419  11.502
 6348W        W78696   2.840   0.432   1.386
 6349W        W78697  44.919   8.381  11.013
 6350W        W78698  10.346  11.171   2.401
 6351W        W78699  13.153   2.384   1.840
 6352W        W78700  22.185  36.010  13.449
 6353W        W78701  24.671  17.300   1.905
 6354W        W78702  18.581   4.288   3.673
 6355W        W78703   9.880  17.098   4.348
 6356W        W78704   9.214  25.096  13.473
 6357W        W78705   1.272  44.314   4.831
 6358W        W78706  25.490   1.468  14.889
 6359W        W78707  30.503  44.808  14.463
 6360W        W78708  20.745  10.873   3.759
 6361W        W78709  36.876  28.588   1.803
 6362W        W78710  11.866  34.372  13.814
 6363W        W78711  27.005  33.522  13.875
 6364W        W78712  29.006  42.029  11.878
 6365W        W78713  30.551  41.872  13.446
 6366W        W78714   3.436  37.858   1.694
 6367W        W78715   4.224  28.988  10.996
 6368W        W78716  44.435   6.810   1.290
 6369W        W78717  26.668  27.597  10.439
 6370W        W78718   4.862  33.121  13.927
 6371W        W78719  44.917   2.445  12.047
 6372W        W78720  12.329  37.498   1.774
 6373W        W78721   3.234   6.847   3.774
 6374W        W78722   7.340   6.370  14.495
 6375W        W78723  32.974   8.853  12.567
 6376W        W78724  31.005  42.811   2.805
 6377W        W78725  35.454  19.190  13.925
 6378W        W78726  25.594  32.590   0.404
 6379W        W78727  21.112   3.237  11.467
 6380W        W78728  42.484  36.097   3.834
 6381W        W78729  43.276  44.830   3.186
 6382W        W78730  12.843  32.989  10.609
 6383W        W78731   0.862  21.205   2.800
 6384W        W78732  26.505   6.215  13.521
 6385W        W78733  17.580  15.194  11.541
 6386W        W78734  33.027  30.920   0.465
 6387W        W78735   0.890  18.753   1.694
 6388W        W78736   2.764   5.333   4.602
 6389W        W78737   1.780   2.736  14.286
 6390W        W78738  13.688  18.552  10.603
 6391W        W78739  43.337  11.805   1.391
 6392W        W78740  17.790  16.131  10.417
 6393W        W78741   9.304  31.013   5.312
 6394W        W78742  39.836   2.386   4.661
 6395W        W78743  27.537  44.775   2.897
 6396W        W78744  28.112  34.505   2.403
 6397W        W78745  18.222  34.539  10.612
 6398W        W78746  37.036  42.459  11.971
 6399W        W78747  11.357   7.262   3.857
 6400W        W78748   9.881  33.383   0.946
 6401W        W78749  38.987   1.813  14.386
 6402W        W78750   2.254  24.575   1.845
 6403W        W78751  35.974  16.133   3.216
 6404W        W78752  37.891  24.086   3.825
 6405W        W78753  23.715  40.439   1.811
 6406W        W78754  21.658  42.974  11.520
 6407W        W78755  18.669  29.596  14.987
 6408W        W78756  11.148  27.629   0.813
 6409W        W78757  19.043  36.445   0.736
 6410W        W78758  31.118   5.198   0.879
 6411W        W78759  44.260  32.395  14.809
 6412W        W78760   3.804  18.224  12.875
 6413W        W78761  19.226  40.318  14.990
 6414W        W78762  11.207  20.150  12.496
 6415W        W78763  36.051  15.810   2.895
 6416W        W78764  27.971   1.378   9.972
 6417W        W78765   8.375  24.032   2.731
 6418W        W78766  26.667  20.176  12.478
 6419W        W78767  13.136   3.817  12.825
 6420W        W78768  38.027  16.647  14.278
 6421W        W78769  13.821  12.650   2.720
 6422W        W78770  10.234  32.890   4.706
 6423W        W78771  10.724  37.952  12.561
 6424W        W78772  25.062  16.264  12.962
 6425W        W78773  10.771  20.702   0.868
 6426W        W78774   7.667  23.227   3.323
 6427W        W78775  22.666   0.861  11.383
 6428W        W78776  28.435  29.573  13.031
 6429W        W78777   1.319  12.172   4.831
 6430W        W78778  27.168  13.637   0.853
 6431W        W78779  20.575  37.980   2.365
 6432W        W78780  11.182  39.473   1.906
 6433W        W78781   2.260  24.563  10.913
 6434W        W78782  36.868   7.814  13.439
 6435W        W78783  28.602  41.295  13.436
 6436W        W78784  13.351  32.092  10.549
 6437W        W78785  17.155  38.375  11.889
 6438W        W78786   3.367  21.709  10.638
 6439W        W78787  42.305  27.479  11.917
 6440W        W78788   3.866  20.596  11.552
 6441W        W78789  37.910  25.638  11.101
 6442W        W78790   0.255  34.050   4.152
 6443W        W78791  15.118  22.200  14.421
 6444W        W78792  30.503  30.593  14.024
 6445W        W78793   6.238  20.035   2.272
 6446W        W78794   2.381  21.545   4.729
 6447W        W78795   2.245  33.888  12.389
 6448W        W78796  27.981   4.716   1.422
 6449W        W78797  23.670  42.027   2.794
 6450W        W78798  17.699   1.397   3.306
 6451W        W78799  27.607  36.952  14.988
 6452W        W78800   4.702  31.116  10.462
 6453W        W78801  38.410  14.148   2.400
 6454W        W78802   8.234  15.631   5.281
 6455W        W78803   9.729  14.115  11.914
 6456W        W78804  15.823  14.597  12.013
 6457W        W78805  35.453  40.011   2.771
 6458W        W78806  36.950  15.797  14.431
 6459W        W78807  27.472   6.914  14.840
 6460W        W78808  31.488  34.910   4.141
 6461W        W78809  21.209  30.490  14.295
 6462W        W78810   4.875  38.558  12.897
 6463W        W78811  13.242   4.414   1.921
 6464W        W78812  43.902  11.802   4.829
 6465W        W78813  39.388   2.875  10.489
 6466W        W78814  26.597  30.147  12.949
 6467W        W78815  26.679  13.842   0.262
 6468W        W78816  18.663  28.184  11.536
 6469W        W78817  34.457   6.861  10.921
 6470W        W78818   7.737  17.684  14.992
 6471W        W78819  14.121   2.757   0.726
 6472W        W78820   0.798  26.699   0.278
 6473W        W78821  44.989   1.941   3.694
 6474W        W78822   1.820   5.232   3.302
 6475W        W78823  29.482  29.424  11.377
 6476W        W78824  26.615  26.468  13.805
 6477W        W78825   0.755  26.068   4.785
 6478W        W78826   8.860   3.935  11.500
 6479W        W78827   4.443  42.398   4.253
 6480W        W78828  42.425  17.712  12.486
 6481W        W78829  32.605  40.842   1.342
 6482W        W78830  13.182  32.896   1.249
 6483W        W78831  34.458  10.822  14.384
 6484W        W78832   3.361  44.939  12.351
 6485W        W78833  22.622   5.858  12.538
 6486W        W78834  14.165  41.889   1.700
 6487W        W78835  30.423  39.920  13.005
 6488W        W78836  29.171   8.317   0.477
 6489W        W78837  37.391  17.280   4.295
 6490W        W78838  41.303  29.496   3.232
 6491W        W78839  42.334  21.059   0.400
 6492W        W78840  19.203   9.353  12.006
 6493W        W78841   1.798  40.361   4.710
 6494W        W78842  23.567  24.090   4.788
 6495W        W78843  23.110  24.506   3.360
 6496W        W78844  10.739  19.565   5.216
 6497W        W78845  10.185  30.136  12.874
 6498W        W78846  31.449  41.801   0.954
 6499W        W78847  43.906  16.116  14.990
 6500W        W78848  32.563  34.077   0.806
 6501W        W78849  30.557  31.978   4.133
 6502W        W78850  25.199  25.571   1.347
 6503W        W78851   7.394   8.311   4.710
 6504W        W78852  41.829  34.421  10.583
 6505W        W78853  30.554  40.467   2.680
 6506W        W78854   9.701  32.932   4.736
 6507W        W78855  40.493  42.906  12.991
 6508W        W78856   7.382  11.320  14.368
 6509W        W78857   3.263  38.381  12.497
 6510W        W78858  24.643   4.934  14.978
 6511W        W78859   8.770   1.829   0.797
 6512W        W78860  29.508  19.603  12.496
 6513W        W78861  20.744   3.460  14.289
 6514W        W78862  22.232  28.643  12.525
 6515W        W78863  22.204  22.054   0.262
 6516W        W78864   9.719  44.328   2.414
 6517W        W78865  43.917  38.394  10.434
 6518W        W78866   1.336  15.133   4.757
 6519W        W78867  40.979  29.176   3.317
 6520W        W78868  36.985  35.853   3.256
 6521W        W78869  26.190  23.617  12.383
 6522W        W78870  35.109  16.166   2.217
 6523W        W78871  35.575   6.690  13.446
 6524W        W78872  29.108  38.044   0.947
 6525W        W78873   7.335  16.570   3.711
 6526W        W78874  33.085  39.484   2.700
 6527W        W78875  21.714   8.876   4.611
 6528W        W78876  40.461  11.333   4.756
 6529W        W78877  25.975  30.941   0.793
 6530W        W78878  20.219  41.925  11.512
 6531W        W78879  23.109  29.921   2.241
 6532W        W78880  36.982   6.212  10.444
 6533W        W78881  36.440  27.173  13.036
 6534W        W78882  42.376  34.979   0.796
 6535W        W78883  41.933  34.375  13.340
 6536W        W78884   1.978   1.739  14.847
 6537W        W78885   5.403  15.315  14.768
 6538W        W78886  10.286  20.731   5.209
 6539W        W78887   2.763  42.995   1.268
 6540W        W78888  27.526   2.357  12.389
 6541W        W78889  10.772  11.764  13.361
 6542W        W78890   1.402  27.547  11.466
 6543W        W78891   8.655  44.841  13.326
 6544W        W78892  42.903  37.857  12.960
 6545W        W78893   9.731  38.850   3.787
 6546W        W78894  26.468   5.417   1.711
 6547W        W78895  26.487   8.678   0.382
 6548W        W78896  23.211   6.405   2.313
 6549W        W78897  35.427   0.775  14.368
 6550W        W78898  13.800   8.802   3.274
 6551W        W78899  40.836  19.655   2.672
 6552W        W78900  20.038  29.649  13.374
 6553W        W78901  30.960   6.840  13.960
 6554W        W78902  39.928  41.460   2.697
 6555W        W78903  22.054   1.400   3.246
 6556W        W78904  29.496  32.424  13.415
 6557W        W78905  34.602  40.519   2.415
 6558W        W78906   8.276  10.828   4.677
 6559W        W78907  21.589  29.122  11.379
 6560W        W78908  32.522  16.635  11.586
 6561W        W78909  36.454  30.026   1.811
 6562W        W78910  16.185  44.487  10.555
 6563W        W78911  29.442  44.808  10.518
 6564W        W78912  15.123  40.303   1.758
 6565W        W78913  43.825  30.968  11.066
 6566W        W78914   8.353  21.127   1.921
 6567W        W78915  32.592   9.652   4.646
 6568W        W78916   8.263   7.303   3.242
 6569W        W78917  43.768   7.324   2.765
 6570W        W78918  31.508  29.950  11.484
 6571W        W78919  15.799   3.906  11.929
 6572W        W78920  30.592  12.727  12.535
 6573W        W78921  29.956  13.724  11.891
 6574W        W78922  39.914  14.689  14.975
 6575W        W78923   1.341  29.991  13.892
 6576W        W78924   6.224  17.586  14.883
 6577W        W78925  14.335  33.045   3.865
 6578W        W78926  16.652  38.934  11.512
 6579W        W78927  35.006  23.513  12.446
 6580W        W78928  11.282   6.412   4.199
 6581W        W78929  32.620  44.800   2.384
 6582W        W78930  42.303  22.634   2.290
 6583W        W78931  33.438  24.041  14.775
 6584W        W78932   3.936  17.227   3.758
 6585W        W78933  20.186  18.730  13.905
 6586W        W78934  39.873  15.677   4.126
 6587W        W78935  40.344  23.673   4.692
 6588W        W78936  35.908  21.221   4.809
 6589W        W78937   9.327  40.413  12.013
 6590W        W78938  44.429  17.213   0.308
 6591W        W78939  26.986   7.783   2.765
 6592W        W78940  27.677  23.680   2.273
 6593W        W78941  24.624  27.968   0.456
 6594W        W78942   0.881  11.196   3.374
 6595W        W78943  16.616  44.817  12.947
 6596W        W78944  28.052  32.963  12.899
 6597W        W78945  33.052  21.618   3.331
 6598W        W78946  16.128   8.704  13.825
 6599W        W78947   7.341  20.533  11.096
 6600W        W78948  16.587  39.927   0.277
 6601W        W78949  13.776  26.047  11.894
 6602W        W78950  42.890  33.018   1.314
 6603W        W78951  38.533  22.565   4.302
 6604W        W78952  17.144  33.080  12.459
 6605W        W78953  18.574   9.746  11.071
 6606W        W78954  34.074  11.807   3.667
 6607W        W78955  43.511  19.640  12.091
 6608W        W78956  24.035  31.050  13.516
 6609W        W78957  33.097  34.943   1.434
 6610W        W78958  15.214  41.398   4.177
 6611W        W78959  22.552  44.493   0.889
 6612W        W78960  15.598  18.119   3.353
 6613W        W78961   4.344  12.719   4.238
 6614W        W78962   4.701  37.572   1.865
 6615W        W78963  33.127   5.706  12.894
 6616W        W78964  17.152  18.251  10.496
 6617W        W78965  44.818  15.099   3.827
 6618W        W78966  41.495  31.635  11.004
 6619W        W78967  18.274  30.511   2.666
 6620W        W78968  44.904  19.590   2.798
 6621W        W78969  32.583  20.230  13.492
 6622W        W78970  38.425  39.047  13.913
 6623W        W78971  32.556  36.866  12.577
 6624W        W78972   2.437  35.528  14.940
 6625W        W78973   7.411  41.900   1.427
 6626W        W78974  41.991  37.885   4.756
 6627W        W78975  24.534  42.284  12.052
 6628W        W78976   9.803  20.715  13.041
 6629W        W78977  32.407  36.956   2.295
 6630W        W78978   0.490   8.351  12.828
 6631W        W78979   8.381  16.569  10.498
 6632W        W78980  35.953   0.779   4.695
 6633W        W78981  27.132  33.972  13.416
 6634W        W78982  28.120  21.634  10.156
 6635W        W78983  12.335  37.397   4.284
 6636W        W78984  14.671  31.105  13.808
 6637W        W78985  41.952  16.753   4.247
 6638W        W78986  41.504  27.680   1.778
 6639W        W78987   5.362  24.638   4.803
 6640W        W78988   3.318  29.951  13.443
 6641W        W78989  27.495  23.093   4.179
 6642W        W78990  29.019  14.637   2.747
 6643W        W78991  20.622  27.610  11.088
 6644W        W78992  34.946  10.297   0.726
 6645W        W78993   7.784   7.373   4.273
 6646W        W78994  18.231  40.455   1.216
 6647W        W78995  14.596  33.049  12.479
 6648W        W78996  36.559   3.374  12.540
 6649W        W78997  18.628  30.055   2.185
 6650W        W78998  30.161  25.521   3.346
 6651W        W78999  32.998  14.148   2.714
 6652W        W79000  31.040   9.381   2.212
 6653W        W79001  44.906  30.949   4.743
 6654W        W79002   3.891  21.128  14.863
 6655W        W79003  31.970  33.450  11.904
 6656W        W79004   3.385  28.051   0.433
 6657W        W79005  38.039   5.830  10.637
 6658W        W79006   2.269  38.456   0.741
 6659W        W79007  39.020  29.493  12.453
 6660W        W79008  33.443  34.583  11.960
 6661W        W79009  35.969  12.854  11.989
 6662W        W79010   9.786  44.954  14.777
 6663W        W79011   0.378  13.318  12.038
 6664W        W79012  27.602   3.299   2.678
 6665W        W79013  36.412  13.314  12.076
 6666W        W79014  24.093   9.238  10.406
 6667W        W79015   2.847   2.761  12.466
 6668W        W79016  12.287  34.071  12.390
 6669W        W79017  14.725  19.250  13.978
 6670W        W79018  43.819   2.732  13.360
 6671W        W79019  24.621  43.515  14.861
 6672W        W79020  39.319  39.932   3.846
 6673W        W79021   5.422   7.684   4.318
 6674W        W79022  12.620  17.755   4.213
 6675W        W79023   4.889  28.574   2.415
 6676W        W79024  12.723   1.327  13.889
 6677W        W79025  21.150  29.155   3.660
 6678W        W79026  35.440  43.287   0.462
 6679W        W79027  19.711  15.283  14.990
 6680W        W79028  38.389  13.239   1.287
 6681W        W79029  12.312  11.862  10.889
 6682W        W79030  15.199  44.411   3.265
 6683W        W79031  35.925  21.099   1.833
 6684W        W79032  11.757  27.104  13.357
 6685W        W79033  29.928  30.541   4.203
 6686W        W79034  34.556  34.111  10.935
 6687W        W79035  20.201  16.110  14.999
 6688W        W79036   1.427  39.525  12.484
 6689W        W79037   8.278   2.879  10.626
 6690W        W79038  13.144  37.031  12.513
 6691W        W79039  15.641   8.702   3.151
 6692W        W79040  38.346   1.898  12.025
 6693W        W79041  17.764  22.160   0.428
 6694W        W79042  32.933  31.101  12.007
 6695W        W79043  40.395  24.172   2.306
 6696W        W79044  21.719  33.538   0.374
 6697W        W79045  37.987  20.170  11.065
 6698W        W79046   1.782  28.491  14.311
 6699W        W79047  11.647  20.604  14.998
 6700W        W79048  37.534  16.598   1.287
 6701W        W79049  34.868   9.694  13.949
 6702W        W79050  39.986  42.879  14.008
 6703W        W79051  11.277  32.988   2.663
 6704W        W79052  10.650  24.213  14.762
 6705W        W79053  40.880   5.283  11.535
 6706W        W79054  22.591  22.156  10.944
 6707W        W79055  16.642  44.806   0.442
 6708W        W79056  14.201  39.337   3.196
 6709W        W79057   3.235  16.731  10.892
 6710W        W79058  17.707  22.585  12.060
 6711W        W79059  41.973   2.233  11.407
 6712W        W79060  14.261  38.423  12.370
 6713W        W79061   3.419  11.737   1.311
 6714W        W79062  14.164  24.010  12.986
 6715W        W79063  17.222  39.495   0.296
 6716W        W79064   7.731  24.017  14.832
 6717W        W79065  42.882  29.161   1.738
 6718W        W79066  22.655  28.056  11.440
 6719W        W79067  37.008  22.723   1.778
 6720W        W79068  27.561  24.531   2.901
 6721W        W79069   4.424  22.591  12.066
 6722W        W79070  34.422  23.210  13.438
 6723W        W79071   9.730  36.961  14.495
 6724W        W79072  20.204  26.045  10.926
 6725W        W79073  31.910  32.450  14.307
 6726W        W79074  29.427  31.482  10.494
 6727W        W79075  44.781  14.322  14.286
 6728W        W79076  31.628  40.425  12.541
 6729W        W79077  17.624  34.490   1.446
 6730W        W79078  23.072  13.690  13.966
 6731W        W79079  34.021  14.644  10.983
 6732W        W79080  36.070  20.624   0.436
 6733W        W79081  29.655  27.631  11.988
 6734W        W79082  23.229  11.622  12.353
 6735W        W79083  19.691  33.501   2.369
 6736W        W79084  11.269  16.798  12.082
 6737W        W79085  36.350  40.478  14.983
 6738W        W79086  22.150  42.939   4.352
 6739W        W79087  24.084   2.882  11.039
 6740W        W79088   7.359   7.860   3.288
 6741W        W79089  22.584  39.857   3.206
 6742W        W79090  34.936  20.741  10.907
 6743W        W79091  40.352   7.324  10.925
 6744W        W79092   7.705  42.442   0.431
 6745W        W79093  23.212  14.637  10.505
 6746W        W79094   6.384   6.300   0.424
 6747W        W79095  22.183   8.219  10.643
 6748W        W79096  41.339  39.318  14.302
 6749W        W79097  41.400  19.075  13.367
 6750W        W79098  23.051  18.647   2.219
 6751W        W79099   2.240  18.592  10.571
 6752W        W79100  30.536  25.132   2.303
 6753W        W79101   6.684  10.304  13.347
 6754W        W79102   1.867  31.624  11.451
 6755W        W79103   8.396  39.389   0.289
 6756W        W79104  23.233   4.739   0.811
 6757W        W79105  17.574   2.916  14.453
 6758W        W79106   8.718  21.676  13.468
 6759W        W79107  43.938  35.463  11.392
 6760W        W79108  17.097  40.403   1.403
 6761W        W79109   1.327  13.796   0.482
 6762W        W79110  24.974  28.530  13.828
 6763W        W79111   4.888   3.391  13.820
 6764W        W79112  28.547  31.421   1.260
 6765W        W79113  28.466   1.855   4.121
 6766W        W79114  34.573  24.646  10.585
 6767W        W79115  32.533   2.841   3.317
 6768W        W79116  39.440  32.419  11.949
 6769W        W79117   7.852  26.061   4.192
 6770W        W79118  24.627  37.412   1.694
 6771W        W79119  40.513  17.623  10.462
 6772W        W79120  41.812  26.994  12.998
 6773W        W79121  29.442  42.982  11.083
 6774W        W79122  18.569   5.342  11.377
 6775W        W79123  27.180  18.061  14.815
 6776W        W79124   8.387  30.977  12.978
 6777W        W79125   6.920  40.308  13.857
 6778W        W79126   5.237  11.372  13.049
 6779W        W79127  17.738  25.637  14.011
 6780W        W79128  16.181  27.021  13.448
 6781W        W79129  13.646  33.446   2.757
 6782W        W79130   6.818   1.929  13.950
 6783W        W79131  13.306  13.722  13.510
 6784W        W79132  38.074  11.275  12.472
 6785W        W79133   6.745   3.926  14.388
 6786W        W79134  14.667   4.934  14.425
 6787W        W79135  36.544  14.797  12.546
 6788W        W79136  12.116  30.637  11.988
 6789W        W79137  34.453  24.520  12.992
 6790W        W79138   8.868  12.757  13.359
 6791W        W79139  38.343  39.432   2.884
 6792W        W79140   8.868  29.456  13.428
 6793W        W79141  40.872  29.516   0.907
 6794W        W79142  17.139  35.544   3.651
 6795W        W79143  34.523   6.791   0.429
 6796W        W79144  35.866  43.772   2.370
 6797W        W79145   0.443  13.750  13.824
 6798W        W79146   5.839  39.478   0.901
 6799W        W79147  18.714  33.894  14.342
 6800W        W79148  21.573  37.957   3.370
 6801W        W79149   4.841   3.720  14.880
 6802W        W79150  17.600  38.355   3.866
 6803W        W79151  28.024  28.977   3.857
 6804W        W79152  14.252  37.058   0.812
 6805W        W79153  28.672  28.027  13.919
 6806W        W79154  23.492  36.864  11.480
 6807W        W79155   4.343  14.622   2.243
 6808W        W79156   0.974  10.284  11.101
 6809W        W79157  39.503  30.455   1.343
 6810W        W79158   9.658   2.255  12.969
 6811W        W79159  40.927   8.272   3.641
 6812W        W79160  35.993  14.261   4.247
 6813W        W79161   7.206  14.139  12.385
 6814W        W79162  31.128  14.312   0.902
 6815W        W79163  14.829   1.885  11.916
 6816W        W79164  28.936  42.399  10.958
 6817W        W79165  11.347  29.573   0.460
 6818W        W79166  37.443   7.679  10.574
 6819W        W79167  32.089  33.534  14.787
 6820W        W79168  42.342   1.876  13.347
 6821W        W79169  39.973  32.935  11.973
 6822W        W79170  16.299   4.277  14.778
 6823W        W79171  34.479  43.488   3.750
 6824W        W79172   9.201  30.925  14.981
 6825W        W79173  24.562  23.108  14.361
 6826W        W79174   0.792  42.319  12.834
 6827W        W79175  25.106  32.550   2.715
 6828W        W79176  30.941  16.284   1.234
 6829W        W79177  34.567  34.923   4.791
 6830W        W79178   3.386   1.742   2.288
 6831W        W79179  33.916  36.091   1.786
 6832W        W79180  20.119  30.126  11.444
 6833W        W79181   7.848  27.617  11.565
 6834W        W79182  44.901  20.522   3.192
 6835W        W79183  27.148  23.008   3.192
 6836W        W79184  17.703  32.492   5.117
 6837W        W79185  21.713  36.545   3.795
 6838W        W79186  41.883  39.024  12.541
 6839W        W79187   1.399   9.711   4.621
 6840W        W79188  33.380  27.178  13.016
 6841W        W79189  42.857  14.700   3.827
 6842W        W79190  31.992  11.262   1.843
 6843W        W79191  25.652   5.692   4.748
 6844W        W79192  13.609  29.036  13.908
 6845W        W79193  29.921  16.159  14.942
 6846W        W79194  33.903  34.384   0.461
 6847W        W79195  24.641  16.644  10.471
 6848W        W79196   0.979   9.716   0.886
 6849W        W79197  18.266   6.783   4.200
 6850W        W79198  14.157  13.728   1.218
 6851W        W79199  31.616   0.288  14.975
 6852W        W79200  23.206   6.274   0.851
 6853W        W79201  34.514   5.233  12.576
 6854W        W79202  16.753  11.709  14.771
 6855W        W79203  13.717  35.864   2.280
 6856W        W79204  24.977  41.859   5.101
 6857W        W79205  14.638  41.477   2.711
 6858W        W79206  38.412  35.447   4.190
 6859W        W79207  18.791  12.681  14.332
 6860W        W79208  35.993  12.176  11.941
 6861W        W79209  17.710   5.759   3.673
 6862W        W79210  44.411  14.219   1.435
 6863W        W79211  35.587   1.309  12.432
 6864W        W79212  23.575  18.706  13.506
 6865W        W79213  22.019   5.437   4.690
 6866W        W79214  37.911  38.527  11.007
 6867W        W79215   3.903  39.827  13.547
 6868W        W79216  22.234   2.450   1.221
 6869W        W79217   9.342  25.092   2.749
 6870W        W79218   0.968  40.915   3.851
 6871W        W79219   6.260  26.166   1.786
 6872W        W79220  16.285  31.151  14.319
 6873W        W79221  37.951  30.518  11.915
 6874W        W79222   5.802  38.979   4.776
 6875W        W79223  21.047  27.583  11.411
 6876W        W79224  29.556  43.367   3.153
 6877W        W79225   9.236  29.046   2.316
 6878W        W79226   1.882   0.254  13.871
 6879W        W79227  18.652  14.095  11.890
 6880W        W79228  12.300   9.249  12.483
 6881W        W79229  16.713  30.577   2.762
 6882W        W79230  29.499  36.454  11.398
 6883W        W79231   1.325  22.065  13.911
 6884W        W79232  40.489   9.325   2.676
 6885W        W79233   5.822  37.552  13.924
 6886W        W79234   4.315  29.617  10.588
 6887W        W79235  12.832  41.467   0.368
 6888W        W79236  31.526  11.709  14.308
 6889W        W79237   6.825  38.549  10.929
 6890W        W79238   3.412  23.700  10.040
 6891W        W79239   1.885  16.651  13.372
 6892W        W79240  24.689   7.834   0.478
 6893W        W79241   5.905  42.437   2.765
 6894W        W79242  26.658  16.142   1.750
 6895W        W79243  33.401  14.224   2.275
 6896W        W79244  39.032   3.379  10.933
 6897W        W79245  11.208  23.697   3.348
 6898W        W79246   1.943  14.624   3.241
 6899W        W79247   3.897  32.056   2.280
 6900W        W79248  30.603  42.470  11.565
 6901W        W79249  25.661   6.226  12.856
 6902W        W79250   8.297  35.519  12.088
 6903W        W79251   5.335  30.037   2.290
 6904W        W79252  34.453  16.269   0.928
 6905W        W79253  19.543  26.994   2.893
 6906W        W79254  34.901  16.137  13.983
 6907W        W79255  39.948  11.162  12.917
 6908W        W79256  28.116  16.158  12.497
 6909W        W79257   1.425  25.092   4.258
 6910W        W79258   9.174  32.394   0.814
 6911W        W79259  40.993  25.683  14.923
 6912W        W79260  21.219  22.649   3.636
 6913W        W79261  37.488  35.033   3.226
 6914W        W79262  18.649   0.472   0.456
 6915W        W79263  16.182  14.331  11.486
 6916W        W79264   5.862  25.528  13.492
 6917W        W79265  19.625  10.354  12.362
 6918W        W79266  41.804  13.195   2.290
 6919W        W79267  43.781   2.726   3.363
 6920W        W79268  40.814  17.134  12.879
 6921W        W79269  25.640   6.902   1.407
 6922W        W79270  21.113  38.031  11.979
 6923W        W79271  16.094  25.162   2.248
 6924W        W79272  35.599  31.108  12.368
 6925W        W79273  26.064  44.797  13.402
 6926W        W79274   3.412  40.027  12.034
 6927W        W79275  41.416  13.255  14.863
 6928W        W79276   4.724  40.820   0.817
 6929W        W79277   3.952  19.594  14.870
 6930W        W79278  22.094  44.467  11.100
 6931W        W79279  25.544  44.327  14.990
 6932W        W79280   3.920  24.618   3.667
 6933W        W79281   4.360   8.357  14.857
 6934W        W79282  30.118  44.901  14.902
 6935W        W79283  27.452  30.517  10.999
 6936W        W79284   4.397  44.435   1.869
 6937W        W79285  16.701  21.744  13.491
 6938W        W79286  27.666  19.538  13.360
 6939W        W79287   5.388  29.934   0.792
 6940W        W79288   2.300   8.729   1.771
 6941W        W79289   2.236  34.596  13.474
 6942W        W79290  20.223  37.980   1.357
 6943W        W79291  21.143  11.859  11.555
 6944W        W79292  28.580  22.096  13.037
 6945W        W79293  41.425  12.671   3.149
 6946W        W79294  43.464  13.838   4.190
 6947W        W79295  14.291   0.840  14.347
 6948W        W79296  25.525   1.468   1.761
 6949W        W79297  16.292  36.352  12.049
 6950W        W79298   9.671  15.132   1.789
 6951W        W79299  31.410  31.921  11.028
 6952W        W79300  39.501  44.301  11.570
 6953W        W79301  18.145  32.514   2.179
 6954W        W79302   3.437  42.354   2.679
 6955W        W79303   5.207   8.175  10.900
 6956W        W79304  29.009  34.911   0.462
 6957W        W79305   9.840   5.346   2.311
 6958W        W79306   2.839  27.952  10.579
 6959W        W79307  28.166   1.420   2.389
 6960W        W79308  21.080  21.018   1.841
 6961W        W79309  40.858  28.441   2.242
 6962W        W79310  10.239   4.350  14.833
 6963W        W79311  21.218  15.185   3.645
 6964W        W79312   0.419   0.424  12.549
 6965W        W79313  20.243  31.640   5.171
 6966W        W79314   8.782  31.511   1.406
 6967W        W79315  12.129  39.953   4.352
 6968W        W79316  16.262   6.193  14.885
 6969W        W79317  15.751  11.770  12.523
 6970W        W79318   3.783  41.321  11.006
 6971W        W79319  35.596   1.362  14.441
 6972W        W79320  11.244   6.802  13.375
 6973W        W79321  44.319  36.872  12.825
 6974W        W79322  42.323  23.197  12.519
 6975W        W79323   4.928   6.824  14.279
 6976W        W79324  24.632  18.695  13.963
 6977W        W79325  38.873  20.208  11.606
 6978W        W79326  16.712  16.157  12.546
 6979W        W79327   4.799  43.977  10.599
 6980W        W79328   1.311  42.909  12.507
 6981W        W79329  43.388  17.776   4.693
 6982W        W79330  38.004  39.539  13.525
 6983W        W79331  14.275   0.277   2.300
 6984W        W79332  26.021  10.840  13.889
 6985W        W79333  23.988  12.243   2.834
 6986W        W79334   9.281  29.517  12.031
 6987W        W79335   6.410  39.382   2.353
 6988W        W79336   5.730  41.904  12.041
 6989W        W79337  31.126  27.501  13.410
 6990W        W79338  36.978  42.029  13.310
 6991W        W79339   8.267   3.347  14.326
 6992W        W79340  43.348  35.601  10.616
 6993W        W79341  35.478  32.103  11.004
 6994W        W79342  41.376  44.300   3.293
 6995W        W79343  24.176  37.543   0.449
 6996W        W79344  14.181  22.109  11.877
 6997W        W79345  30.918  43.814  11.572
 6998W        W79346  21.634  20.674  11.539
 6999W        W79347   9.221  44.414   1.288
 7000W        W79348  38.562  13.844   3.644
 7001W        W79349  41.363   3.718  13.897
 7002W        W79350  26.625  43.464  11.124
 7003W        W79351   5.828  21.189  14.314
 7004W        W79352  10.181  39.485   2.399
 7005W        W79353  23.169  23.491  13.330
 7006W        W79354  31.423  23.710   0.374
 7007W        W79355  38.063  17.298  10.431
 7008W        W79356  20.739  43.327  13.354
 7009W        W79357  10.704  36.064   1.324
 7010W        W79358  35.464  24.108  10.613
 7011W        W79359  11.229  17.609   0.870
 7012W        W79360   1.793  15.611   3.675
 7013W        W79361   6.259  17.069  12.489
 7014W        W79362   8.847   4.790   0.350
 7015W        W79363  28.542  34.487   0.755
 7016W        W79364   9.235  14.649  14.947
 7017W        W79365   5.843  38.489  12.067
 7018W        W79366  31.034  22.014   4.299
 7019W        W79367  29.940   1.859  11.422
 7020W        W79368  37.061  27.976   1.775
 7021W        W79369   4.778  41.791  11.935
 7022W        W79370  21.221   3.320   1.441
 7023W        W79371   5.870  36.884  14.332
 7024W        W79372   8.723   2.774   3.240
 7025W        W79373  27.495  38.052  10.558
 7026W        W79374   0.812  33.968   4.634
 7027W        W79375  21.515  27.078   1.364
 7028W        W79376  29.592  25.159  11.548
 7029W        W79377  31.066  29.009  14.807
 7030W        W79378  13.701  34.920  11.571
 7031W        W79379  28.151  21.262  12.445
 7032W        W79380  32.468   4.841   2.836
 7033W        W79381  12.844  21.133  13.370
 7034W        W79382  10.188  30.445  13.792
 7035W        W79383   1.290  23.513   2.267
 7036W        W79384  21.634  23.701   0.776
 7037W        W79385   7.776   6.880   4.773
 7038W        W79386  24.571  39.886   3.682
 7039W        W79387   2.466  34.376   3.770
 7040W        W79388  11.259   3.936   4.173
 7041W        W79389  21.592   1.880   1.933
 7042W        W79390  10.716  13.200   3.827
 7043W        W79391  32.012  12.623  13.414
 7044W        W79392  29.522   6.913   4.641
 7045W        W79393   6.201  38.981  12.033
 7046W        W79394  16.179  20.577   0.868
 7047W        W79395   7.856  27.118  14.915
 7048W        W79396  42.026  13.269   3.839
 7049W        W79397  22.526   0.276  14.976
 7050W        W79398  34.567  31.516   2.364
 7051W        W79399  31.059  27.612   3.169
 7052W        W79400   2.264  25.592  13.946
 7053W        W79401  21.624   8.721   2.736
 7054W        W79402  11.251   0.958  14.413
 7055W        W79403  20.748  14.305   3.255
 7056W        W79404   9.284  17.734   2.797
 7057W        W79405   7.669   9.221   3.766
 7058W        W79406   2.436  18.190   3.632
 7059W        W79407  36.455  37.039  13.448
 7060W        W79408   9.729  33.056   2.324
 7061W        W79409  19.048  20.575  11.403
 7062W        W79410  40.002   8.179  12.391
 7063W        W79411  10.340  32.443   3.152
 7064W        W79412  35.505  34.027  13.313
 7065W        W79413   5.343  26.523  11.043
 7066W        W79414   0.349  31.000  14.405
 7067W        W79415  35.938   3.899   4.715
 7068W        W79416   4.720  24.195   3.848
 7069W        W79417  30.595  42.936   3.151
 7070W        W79418  11.353   8.185   2.189
 7071W        W79419  27.473  36.096   2.313
 7072W        W79420  35.489  43.376  10.898
 7073W        W79421  14.598  30.917   4.819
 7074W        W79422  19.130   8.806   3.775
 7075W        W79423  16.623  26.611   3.718
 7076W        W79424  10.332  25.132   1.308
 7077W        W79425  17.194  38.538   1.888
 7078W        W79426  26.175  44.754   1.742
 7079W        W79427  26.160  14.702   3.312
 7080W        W79428   6.829  19.601   2.693
 7081W        W79429  27.456  22.619   3.836
 7082W        W79430  44.497  16.763   0.957
 7083W        W79431  40.980   2.818  14.847
 7084W        W79432  31.616  19.064   3.180
 7085W        W79433  19.558  19.666  12.916
 7086W        W79434  28.486   5.310   3.661
 7087W        W79435  39.318  42.410   0.864
 7088W        W79436  29.052  14.294   0.895
 7089W        W79437  34.119  12.236   0.388
 7090W        W79438  20.737  35.926   2.696
 7091W        W79439  15.311  20.125   4.205
 7092W        W79440   2.413  19.152  11.607
 7093W        W79441   6.702  32.534   4.306
 7094W        W79442   6.874  42.366   4.711
 7095W        W79443  42.492  22.246  13.974
 7096W        W79444  37.041  31.087   1.369
 7097W        W79445  37.848   1.936  12.887
 7098W        W79446  32.067  13.216  14.896
 7099W        W79447  10.729  20.065   0.961
 7100W        W79448  30.995  21.729   0.858
 7101W        W79449  35.514  16.079   3.830
 7102W        W79450   1.391  15.580   1.212
 7103W        W79451  10.749  37.536  14.510
 7104W        W79452  16.198  15.700  13.847
 7105W        W79453  30.065  35.919   0.420
 7106W        W79454  33.522  39.901   3.809
 7107W        W79455  20.052  31.074  11.461
 7108W        W79456  40.972  14.628  12.914
 7109W        W79457  42.859  11.263  12.467
 7110W        W79458  20.755   2.411  13.891
 7111W        W79459  39.402  21.250   0.759
 7112W        W79460  27.988  33.083  10.518
 7113W        W79461   4.759   0.306  11.524
 7114W        W79462  32.617  26.627   3.859
 7115W        W79463  33.977  36.966   0.376
 7116W        W79464  38.992  20.107  11.998
 7117W        W79465  28.648  17.639   2.847
 7118W        W79466   5.368   5.692   4.612
 7119W        W79467  29.455  14.816   1.256
 7120W        W79468   4.918  12.161  13.812
 7121W        W79469  27.511  44.414  14.876
 7122W        W79470  29.577  24.668  13.340
 7123W        W79471   3.404  40.892  14.886
 7124W        W79472   2.735  38.569   2.788
 7125W        W79473  24.073  38.994  10.460
 7126W        W79474  19.540  30.605  12.888
 7127W        W79475  13.199  24.116  12.378
 7128W        W79476  14.630  39.909   4.808
 7129W        W79477  31.514  27.127  11.389
 7130W        W79478   5.217  33.554   2.331
 7131W        W79479  39.015  22.692  14.496
 7132W        W79480   0.764  36.389  13.395
 7133W        W79481  15.189  19.603   1.787
 7134W        W79482  10.267  23.204   1.920
 7135W        W79483  22.122   7.263   0.767
 7136W        W79484  40.928  37.010  14.967
 7137W        W79485  10.865  39.909  10.959
 7138W        W79486  18.112  42.785   0.417
 7139W        W79487  31.455  20.690   3.291
 7140W        W79488  26.638  16.109  12.393
 7141W        W79489  32.490  21.559  11.920
 7142W        W79490   0.751  27.553  13.997
 7143W        W79491  32.895  18.188   4.120
 7144W        W79492  35.444  44.794  10.617
 7145W        W79493  13.295  14.192  10.593
 7146W        W79494  44.288  31.542  13.929
 7147W        W79495  21.645  23.217  12.497
 7148W        W79496  13.265  35.041   4.262
 7149W        W79497  13.342   3.816   3.830
 7150W        W79498  20.667  35.982  11.421
 7151W        W79499   7.345  29.660  11.597
 7152W        W79500  14.590  11.371  10.581
 7153W        W79501  31.003  33.583  10.923
 7154W        W79502  35.425  19.726  12.035
 7155W        W79503  24.510  24.719  13.988
 7156W        W79504  24.035  43.369  11.943
 7157W        W79505  23.705  15.803  12.870
 7158W        W79506  39.052   1.733  13.860
 7159W        W79507  23.022   4.351   2.405
 7160W        W79508   8.281   3.433   2.404
 7161W        W79509  32.109  16.793   2.732
 7162W        W79510   6.849  25.125  14.884
 7163W        W79511  12.612  31.915  13.424
 7164W        W79512  32.098  10.864  12.521
 7165W        W79513  18.622  21.707   4.270
 7166W        W79514   5.737  42.420   1.322
 7167W        W79515   5.771   4.881   4.746
 7168W        W79516  16.142   0.815   3.747
 7169W        W79517  44.942  28.462  13.906
 7170W        W79518   2.737  33.999   0.757
 7171W        W79519  12.263  15.228   2.366
 7172W        W79520   9.354   3.387   2.837
 7173W        W79521  27.164  24.227   0.829
 7174W        W79522   0.783  20.608   2.789
 7175W        W79523   8.328  41.350  14.970
 7176W        W79524  35.599  35.472  13.017
 7177W        W79525  34.949  19.128  12.363
 7178W        W79526  44.791   1.300  12.009
 7179W        W79527  13.669  42.456  12.040
 7180W        W79528   0.756   5.370  12.908
 7181W        W79529  11.736  38.077   3.250
 7182W        W79530  38.009  39.946   1.216
 7183W        W79531  23.128  19.645  11.546
 7184W        W79532  30.440  22.629   3.219
 7185W        W79533  35.880   4.320  13.326
 7186W        W79534  16.179  35.083  13.882
 7187W        W79535   2.963  42.879  11.555
 7188W        W79536  29.969   7.795   3.661
 7189W        W79537  28.081  38.892  14.491
 7190W        W79538  24.720   0.889   4.629
 7191W        W79539  24.043   7.366   3.211
 7192W        W79540  15.212  14.181   9.612
 7193W        W79541  15.678  28.059  13.017
 7194W        W79542  21.537  11.720  14.421
 7195W        W79543  36.085  21.141  14.320
 7196W        W79544  19.170  37.911   0.457
 7197W        W79545  24.087  44.803  11.123
 7198W        W79546  41.865   9.187   3.742
 7199W        W79547  11.366   7.802   2.321
 7200W        W79548  40.861  31.050   1.438
 7201W        W79549  38.983  25.192  10.930
 7202W        W79550  30.443  28.551   2.759
 7203W        W79551   9.828  27.539  13.795
 7204W        W79552  22.087   2.934  12.907
 7205W        W79553   9.768  21.525  13.961
 7206W        W79554  42.355  19.054  12.524
 7207W        W79555  12.184  22.196   3.854
 7208W        W79556   3.806  28.610  14.412
 7209W        W79557  20.105  31.405   9.991
 7210W        W79558  44.283  32.622   3.785
 7211W        W79559   5.400  15.692  13.319
 7212W        W79560  38.933   0.300   0.787
 7213W        W79561   5.251  33.098  12.414
 7214W        W79562  16.598  37.853  12.960
 7215W        W79563  43.777  13.770  14.447
 7216W        W79564   4.768  34.892   4.652
 7217W        W79565  36.047  13.825   1.365
 7218W        W79566   0.425  32.417   1.399
 7219W        W79567   1.395  40.544   2.377
 7220W        W79568  19.702   6.913   1.859
 7221W        W79569  29.048  34.536   4.794
 7222W        W79570  41.358   4.854  14.793
 7223W        W79571   7.708  24.215  13.444
 7224W        W79572  21.541  25.130  12.419
 7225W        W79573  23.175  31.135  13.480
 7226W        W79574   9.649  35.028  13.894
 7227W        W79575  40.912  18.268  11.473
 7228W        W79576  37.886   7.898   1.451
 7229W        W79577   6.909  13.824   3.166
 7230W        W79578  32.594   4.714   1.850
 7231W        W79579  28.552   1.845  13.331
 7232W        W79580  40.479  43.990   0.742
 7233W        W79581  18.116  31.105   4.697
 7234W        W79582  15.634  36.923   0.469
 7235W        W79583  44.951  43.984  12.978
 7236W        W79584  27.105   4.874   3.849
 7237W        W79585  28.585  28.513  11.122
 7238W        W79586  36.529  36.006   1.724
 7239W        W79587  34.928   6.772   1.382
 7240W        W79588  42.994  12.828   1.788
 7241W        W79589  35.946   2.918  14.492
 7242W        W79590   6.368   0.826   0.281
 7243W        W79591  10.251  39.022   0.952
 7244W        W79592  21.146  41.799  11.531
 7245W        W79593  19.643  14.753   0.405
 7246W        W79594   8.717  38.992  10.937
 7247W        W79595  14.114  21.037   4.135
 7248W        W79596  44.281  16.107  14.022
 7249W        W79597  33.087  43.386  13.422
 7250W        W79598  28.104  27.189   4.815
 7251W        W79599  20.042  13.281  14.509
 7252W        W79600   8.306  11.158  14.510
 7253W        W79601  38.969  44.888  13.798
 7254W        W79602   0.347   2.961   0.416
 7255W        W79603  32.599  43.909  12.992
 7256W        W79604  33.129  22.167  10.438
 7257W        W79605  20.579  23.196  11.008
 7258W        W79606   2.291  31.570  12.547
 7259W        W79607  38.430  21.127   4.282
 7260W        W79608  22.543  19.629   4.122
 7261W        W79609  34.940  19.593   1.286
 7262W        W79610  24.081  20.752   0.409
 7263W        W79611  19.046  12.227  14.384
 7264W        W79612   5.304  10.337   4.280
 7265W        W79613  13.214   8.234  10.579
 7266W        W79614  17.253   5.709  14.433
 7267W        W79615  19.138  35.962  11.969
 7268W        W79616  14.673  11.245  10.949
 7269W        W79617  17.139  42.825   2.880
 7270W        W79618  22.065  16.657  12.993
 7271W        W79619  34.912  26.554  10.454
 7272W        W79620  15.242  14.289  12.046
 7273W        W79621   4.887   0.329  13.413
 7274W        W79622  43.784  29.559  14.373
 7275W        W79623  13.603  41.828  13.826
 7276W        W79624  29.494  10.311  14.337
 7277W        W79625  28.088  15.700   4.778
 7278W        W79626  42.009  40.454   4.221
 7279W        W79627  11.793   1.880   4.760
 7280W        W79628  25.584  44.325   1.926
 7281W        W79629  22.560  37.473  10.511
 7282W        W79630   2.412  44.005  11.919
 7283W        W79631  44.481  38.917   2.708
 7284W        W79632  42.897  21.522  12.344
 7285W        W79633  36.995  38.880  13.005
 7286W        W79634  13.837  29.970   2.202
 7287W        W79635  12.323  34.474   0.839
 7288W        W79636  19.213  18.153  10.439
 7289W        W79637  17.072  37.901   9.937
 7290W        W79638  11.224  44.368   2.289
 7291W        W79639   6.906  28.634  13.016
 7292W        W79640  11.360   2.820  12.980
 7293W        W79641   0.754  12.827   1.831
 7294W        W79642  25.565  27.612   4.199
 7295W        W79643  21.629  35.975   3.853
 7296W        W79644  22.538  35.028   5.142
 7297W        W79645  23.003   0.332   1.390
 7298W        W79646  39.446  31.599  10.922
 7299W        W79647  37.525   3.879  13.968
 7300W        W79648  17.063  32.569   4.122
 7301W        W79649   1.262  37.875   4.773
 7302W        W79650  29.590  42.452  12.422
 7303W        W79651   5.364  41.892   0.769
 7304W        W79652  40.439   3.300  11.533
 7305W        W79653  13.106  41.838   4.662
 7306W        W79654  44.929  33.898  11.074
 7307W        W79655  16.695  38.827   4.797
 7308W        W79656  26.000  27.187   3.254
 7309W        W79657   3.852  16.743  14.288
 7310W        W79658  40.042  32.415   1.348
 7311W        W79659  33.940  14.661   3.360
 7312W        W79660  31.078  15.101   0.789
 7313W        W79661  22.743   4.699   2.901
 7314W        W79662   3.318  22.567  14.500
 7315W        W79663  39.344  17.719   4.671
 7316W        W79664  25.191  43.776   0.462
 7317W        W79665  21.630   6.252  13.389
 7318W        W79666  23.496  21.135  13.932
 7319W        W79667   2.748  27.464  13.369
 7320W        W79668   1.421  14.731  13.899
 7321W        W79669  22.076  11.707  14.759
 7322W        W79670  28.466   6.268  12.353
 7323W        W79671  17.631  29.437  11.574
 7324W        W79672  36.586  25.148   2.859
 7325W        W79673  39.520   4.438   4.263
 7326W        W79674   2.782  20.613  12.418
 7327W        W79675  10.331  42.028   4.622
 7328W        W79676   4.778  33.603   5.139
 7329W        W79677  42.925  42.424   1.304
 7330W        W79678   7.886  20.230  12.918
 7331W        W79679  29.576  31.971   2.364
 7332W        W79680   7.309  31.547   2.287
 7333W        W79681  39.962  29.149   4.339
 7334W        W79682  41.429  40.912   1.383
 7335W        W79683  41.313  36.477   3.211
 7336W        W79684   8.753  39.847   1.405
 7337W        W79685   2.962  22.128   0.468
 7338W        W79686  26.003  39.827  13.348
 7339W        W79687   0.453   1.840  11.921
 7340W        W79688  38.941  29.496  11.503
 7341W        W79689  22.248  23.693   1.421
 7342W        W79690  42.500  21.201   2.733
 7343W        W79691  21.736  19.651  12.370
 7344W        W79692  33.006  19.194   3.696
 7345W        W79693  21.261  36.945   3.864
 7346W        W79694  30.917   1.281   4.245
 7347W        W79695  20.104  22.744  10.025
 7348W        W79696  28.101  35.485   4.204
 7349W        W79697  11.670   4.807  14.293
 7350W        W79698   1.291   4.373  13.331
 7351W        W79699  24.150  42.306  11.567
 7352W        W79700  20.696  14.196  13.903
 7353W        W79701  21.171  37.447  14.986
 7354W        W79702  21.730  15.809  10.930
 7355W        W79703  26.586  39.858  12.344
 7356W        W79704  10.161  25.601  12.451
 7357W        W79705   7.268   5.722   2.835
 7358W        W79706  19.716  26.994  11.997
 7359W        W79707   4.282  40.488  10.523
 7360W        W79708  37.045   8.268  14.377
 7361W        W79709  12.844  24.218   1.763
 7362W        W79710   1.797  35.090   0.298
 7363W        W79711  12.283   2.464   2.265
 7364W        W79712  38.517  44.467  11.436
 7365W        W79713   5.195  27.156  11.036
 7366W        W79714  17.263  43.873   0.281
 7367W        W79715  44.976  10.857  12.344
 7368W        W79716  44.264  41.403   0.417
 7369W        W79717  28.967  39.945  12.976
 7370W        W79718  11.678   4.377  14.339
 7371W        W79719  17.227   1.801   0.377
 7372W        W79720  34.877  37.516   3.291
 7373W        W79721  17.615  35.968   1.273
 7374W        W79722   6.313  14.611  12.530
 7375W        W79723   7.879  11.201   1.333
 7376W        W79724  11.358   4.390  10.506
 7377W        W79725  19.691  16.768   2.238
 7378W        W79726   2.245  16.318   0.341
 7379W        W79727  12.724   5.326  10.970
 7380W        W79728  32.945  29.452   3.770
 7381W        W79729   1.973  19.215   2.264
 7382W        W79730   1.904  12.342  12.891
 7383W        W79731  27.463  12.765  12.420
 7384W        W79732  11.182  40.323   2.235
 7385W        W79733   7.730  32.952   3.283
 7386W        W79734  35.948  41.918   0.322
 7387W        W79735   4.704   9.769   3.234
 7388W        W79736  32.044  11.280   1.241
 7389W        W79737  13.713  39.890  10.637
 7390W        W79738   2.289  31.936  10.118
 7391W        W79739  35.971  31.522  14.475
 7392W        W79740   2.786  36.992   0.881
 7393W        W79741  44.492   8.285   2.193
 7394W        W79742   6.841  23.691   3.340
 7395W        W79743   3.358  17.235  14.875
 7396W        W79744  41.318  25.200   4.136
 7397W        W79745  27.120  21.554   2.843
 7398W        W79746  11.734  23.709  10.101
 7399W        W79747  38.513   0.969   2.325
 7400W        W79748  23.196  30.963  12.968
 7401W        W79749  43.425  33.061  11.570
 7402W        W79750  37.378  17.560   4.678
 7403W        W79751  27.991   1.818   3.342
 7404W        W79752   1.289  28.676  13.028
 7405W        W79753  14.271   0.747   5.286
 7406W        W79754  17.196   3.243  12.009
 7407W        W79755  35.446  37.501   4.160
 7408W        W79756  28.152   5.862  14.972
 7409W        W79757  28.609  32.572  13.404
 7410W        W79758   9.286  24.499   3.183
 7411W        W79759  29.161  26.503   4.670
 7412W        W79760  16.602  40.035  11.596
 7413W        W79761  12.785  37.024   4.128
 7414W        W79762   7.394  27.193   0.300
 7415W        W79763  34.532  36.503  10.913
 7416W        W79764  25.037  38.890   4.720
 7417W        W79765  25.131  16.300   2.888
 7418W        W79766   0.296  13.196  13.331
 7419W        W79767   5.769   1.929   0.867
 7420W        W79768  43.504   7.250   3.237
 7421W        W79769  32.993  37.509  11.969
 7422W        W79770  30.567   3.360  13.540
 7423W        W79771  38.987  41.332  10.056
 7424W        W79772  17.256  17.199  11.371
 7425W        W79773  12.206   9.320   0.820
 7426W        W79774  39.917  37.989   4.782
 7427W        W79775  33.489  34.387  12.916
 7428W        W79776  24.112  17.085  14.863
 7429W        W79777  20.163  29.157   1.274
 7430W        W79778  44.390   4.398   1.778
 7431W        W79779  16.699  30.603  12.520
 7432W        W79780  38.881  31.952  11.536
 7433W        W79781   0.844  13.781  14.341
 7434W        W79782   8.669  37.366  13.476
 7435W        W79783  22.129  36.911   4.687
 7436W        W79784  13.830  38.880   4.651
 7437W        W79785  33.888  37.384   2.368
 7438W        W79786  31.489  27.120   1.705
 7439W        W79787  10.317  15.191   5.221
 7440W        W79788   8.821   2.824  13.050
 7441W        W79789  27.178  27.685  10.408
 7442W        W79790  24.081  30.913  10.439
 7443W        W79791  42.014  42.955   3.260
 7444W        W79792  19.059  20.142  10.927
 7445W        W79793  10.184  22.716  12.363
 7446W        W79794  31.420  29.487  12.038
 7447W        W79795   8.758  15.289   4.688
 7448W        W79796   9.191  25.085   0.754
 7449W        W79797  14.255   9.215  14.790
 7450W        W79798  18.609  34.036   4.324
 7451W        W79799   5.797   0.248   0.751
 7452W        W79800  42.282  20.612  12.958
 7453W        W79801   9.345  29.499  12.351
 7454W        W79802  26.698  15.695   4.754
 7455W        W79803  10.739  27.954  14.849
 7456W        W79804  38.963  28.058  13.950
 7457W        W79805  15.112   3.425   3.869
 7458W        W79806  12.261   1.389  10.411
 7459W        W79807  39.924  15.115  10.557
 7460W        W79808  10.255  39.060  11.014
 7461W        W79809  17.170  11.206   2.752
 7462W        W79810   9.188  34.035  11.571
 7463W        W79811  27.196  33.515   4.662
 7464W        W79812   0.823  32.418   2.891
 7465W        W79813   0.896  16.121   0.936
 7466W        W79814   3.345   7.233   0.836
 7467W        W79815  41.944  23.499  13.000
 7468W        W79816   3.826  41.353  12.863
 7469W        W79817  25.196   5.273   2.249
 7470W        W79818  33.390  18.190  13.829
 7471W        W79819   0.988  28.118   0.895
 7472W        W79820  29.564   9.358   4.670
 7473W        W79821  25.217  36.566  11.976
 7474W        W79822  25.133  29.960   4.201
 7475W        W79823  26.526  44.938   1.902
 7476W        W79824  16.121   9.835  10.440
 7477W        W79825   0.864  33.577   0.780
 7478W        W79826  20.143  10.705   3.733
 7479W        W79827   0.388  21.664  13.865
 7480W        W79828   1.817  28.152  13.324
 7481W        W79829  22.023   1.303   0.764
 7482W        W79830  28.072  25.482  12.921
 7483W        W79831  23.083  37.371   1.307
 7484W        W79832   2.275  28.975   2.356
 7485W        W79833  16.610  36.418   2.725
 7486W        W79834  14.742   8.387  13.494
 7487W        W79835   5.248  37.866   1.848
 7488W        W79836  32.521  24.143   0.931
 7489W        W79837  38.425  15.635   4.221
 7490W        W79838  31.527  17.251   2.808
 7491W        W79839  30.543  39.314   1.269
 7492W        W79840   8.699  26.030  10.426
 7493W        W79841   6.303  30.452   2.709
 7494W        W79842  36.894   3.414  13.021
 7495W        W79843  39.857  38.846   4.265
 7496W        W79844  25.178  16.760   2.378
 7497W        W79845  21.245   9.758  10.897
 7498W        W79846  20.259   8.725   3.224
 7499W        W79847   2.243  20.030  12.907
 7500W        W79848  16.183  29.525   0.398
 7501W        W79849  31.942  42.478  12.517
 7502W        W79850  11.641   0.974   2.341
 7503W        W79851  25.062  32.430  14.389
 7504W        W79852   9.372  40.893   1.236
 7505W        W79853  44.465  24.107  13.535
 7506W        W79854  12.361  12.346  10.578
 7507W        W79855   2.780  27.966   0.412
 7508W        W79856  12.202  11.207   4.782
 7509W        W79857  12.164  27.583  11.465
 7510W        W79858  38.473  17.580  11.530
 7511W        W79859  19.535   7.175   0.768
 7512W        W79860  37.337  32.952   1.696
 7513W        W79861  38.071  13.623  14.770
 7514W        W79862  38.832   8.762   3.749
 7515W        W79863  30.536   5.350  12.502
 7516W        W79864  38.053   5.349   4.182
 7517W        W79865  10.728  34.085  12.025
 7518W        W79866  24.200  37.431   3.225
 7519W        W79867  32.589   6.305   4.819
 7520W        W79868  43.993   4.359   2.715
 7521W        W79869  31.536  35.451  12.375
 7522W        W79870  26.113  10.149   4.786
 7523W        W79871   6.884   3.946   2.711
 7524W        W79872   2.852  26.487   5.203
 7525W        W79873   0.300  31.015  11.457
 7526W        W79874  12.336  28.179  11.951
 7527W        W79875  28.030  22.571   1.229
 7528W        W79876  14.334  13.343  14.320
 7529W        W79877  38.536  23.009  11.606
 7530W        W79878  32.444   2.730   4.178
 7531W        W79879  34.027  37.075  13.466
 7532W        W79880  40.323  30.995  14.002
 7533W        W79881  37.994  40.864  12.358
 7534W        W79882   8.739  14.716   5.245
 7535W        W79883   8.772  27.488   1.873
 7536W        W79884  30.060  38.331  12.460
 7537W        W79885  22.248  20.213   0.414
 7538W        W79886  43.449  27.672  10.906
 7539W        W79887   1.473   3.750  11.569
 7540W        W79888   8.847  17.275  10.901
 7541W        W79889   6.690  10.338  11.912
 7542W        W79890  35.942  34.383   2.701
 7543W        W79891  16.653   0.925   0.869
 7544W        W79892  40.905  38.520  13.025
 7545W        W79893  15.236   5.401   0.797
 7546W        W79894  12.694  15.609  11.422
 7547W        W79895   0.906  12.222  10.590
 7548W        W79896  42.939   8.786   3.791
 7549W        W79897  35.438  43.802  13.060
 7550W        W79898  23.009  36.473   4.288
 7551W        W79899  11.361  30.548   2.662
 7552W        W79900  39.960  33.396   2.349
 7553W        W79901  35.982  25.681  10.570
 7554W        W79902  39.883   1.434  13.997
 7555W        W79903  21.105  16.796   2.294
 7556W        W79904  35.567   1.891  13.449
 7557W        W79905  11.784  22.566  11.577
 7558W        W79906  12.337  20.530  14.805
 7559W        W79907  41.344  39.025   1.292
 7560W        W79908  43.427   9.300  14.357
 7561W        W79909  36.919   6.752  11.448
 7562W        W79910  25.138  15.225  12.417
 7563W        W79911  38.329  31.537   2.338
 7564W        W79912  18.276   0.770  11.408
 7565W        W79913  39.491  28.950  11.919
 7566W        W79914   8.357  36.518  13.933
 7567W        W79915  19.143  18.194  13.355
 7568W        W79916  10.712  37.020  11.867
 7569W        W79917  30.155  28.631   2.901
 7570W        W79918  31.120  38.859  11.591
 7571W        W79919  43.929   2.332   0.871
 7572W        W79920  44.273  27.176   1.441
 7573W        W79921  29.030   6.380   1.325
 7574W        W79922   8.815  43.850  10.587
 7575W        W79923  20.193  42.376   0.352
 7576W        W79924   9.889  42.303  11.916
 7577W        W79925  35.046  31.460  11.497
 7578W        W79926  40.011  23.601   1.899
 7579W        W79927  32.550  16.670  13.326
 7580W        W79928  24.080   8.803  12.344
 7581W        W79929  43.380  41.899  11.418
 7582W        W79930  20.716  22.221  14.922
 7583W        W79931  19.641  37.922   2.691
 7584W        W79932  39.550   7.679   0.261
 7585W        W79933  39.434  42.369   2.267
 7586W        W79934  17.746  42.877   4.829
 7587W        W79935  24.556  41.507  11.921
 7588W        W79936  42.964  38.939  13.939
 7589W        W79937  29.164  41.924  14.766
 7590W        W79938  23.085  14.791   1.903
 7591W        W79939  40.426  38.828  10.536
 7592W        W79940   3.809   3.808   4.239
 7593W        W79941  38.019  27.053  12.982
 7594W        W79942  39.402  28.942   4.196
 7595W        W79943  22.125  24.627   0.477
 7596W        W79944   5.704  38.820  12.943
 7597W        W79945  14.793  11.778   0.946
 7598W        W79946   7.263  43.272   3.253
 7599W        W79947  32.439  38.004  10.530
 7600W        W79948  44.945  36.027  10.579
 7601W        W79949  22.212  23.647   1.742
 7602W        W79950  17.595  32.420  10.551
 7603W        W79951  16.285  23.547  11.375
 7604W        W79952  38.460  33.396   2.858
 7605W        W79953  24.508  34.506   1.303
 7606W        W79954  40.442  34.549   1.291
 7607W        W79955  21.604   4.209   3.380
 7608W        W79956   2.293   9.308  11.873
 7609W        W79957  13.714  23.121  13.911
 7610W        W79958   6.343  19.651  14.934
 7611W        W79959   5.833  32.516  11.041
 7612W        W79960  38.489  31.455  11.610
 7613W        W79961  31.584   9.393  13.874
 7614W        W79962  42.877  18.193  12.500
 7615W        W79963  23.584  30.461  14.856
 7616W        W79964  31.129   3.774  12.016
 7617W        W79965  15.093  18.100  12.528
 7618W        W79966  12.118  11.751   3.339
 7619W        W79967  32.972  28.036   4.280
 7620W        W79968   3.830   2.358   1.236
 7621W        W79969   2.373  30.563   2.289
 7622W        W79970   3.752  18.776  14.828
 7623W        W79971  40.453  31.018   2.724
 7624W        W79972  41.861   8.391  13.005
 7625W        W79973  44.827  15.187   2.854
 7626W        W79974  11.325  24.511   0.960
 7627W        W79975  33.113   0.840  14.377
 7628W        W79976  35.855  33.619  12.875
 7629W        W79977  27.451  22.741  13.454
 7630W        W79978   9.363  32.013  14.916
 7631W        W79979  21.612   3.459  10.477
 7632W        W79980  38.368  11.658  10.945
 7633W        W79981  31.540  35.543   2.264
 7634W        W79982  40.029  44.789   1.374
 7635W        W79983  16.082  39.027   0.805
 7636W        W79984   2.780   7.267  10.607
 7637W        W79985   1.751  33.051  14.957
 7638W        W79986  21.714  19.705  14.833
 7639W        W79987  27.573   9.826   2.891
 7640W        W79988   8.233  14.626   2.407
 7641W        W79989  15.776  43.398  13.472
 7642W        W79990   0.459  24.622  13.998
 7643W        W79991  41.026  17.628  10.601
 7644W        W79992  44.823   9.806   1.232
 7645W        W79993   9.268  28.511  10.488
 7646W        W79994   1.766  36.435  14.357
 7647W        W79995  13.671  24.678  12.848
 7648W        W79996  42.946  43.366   4.838
 7649W        W79997   9.360   1.289   3.301
 7650W        W79998  32.613  36.349   2.222
 7651W        W79999   8.714  31.090   0.928
 7652W        W80000  35.914  31.954   3.651
 7653W        W80001  22.997  31.959   1.784
 7654W        W80002   5.330  17.640   4.781
 7655W        W80003  22.641  18.289   2.840
 7656W        W80004  39.524  14.632   2.385
 7657W        W80005  42.904  26.050   4.167
 7658W        W80006  36.560  22.665   4.269
 7659W        W80007  42.365   6.910   1.886
 7660W        W80008   0.953  36.448  13.841
 7661W        W80009   5.846  17.071  12.093
 7662W        W80010   9.727   3.901  14.498
 7663W        W80011  14.777  18.146   0.738
 7664W        W80012  34.888  24.162  13.916
 7665W        W80013  42.288  26.159  11.447
 7666W        W80014   3.796  12.703  13.407
 7667W        W80015  32.948   9.645   2.267
 7668W        W80016  19.622  43.487  11.109
 7669W        W80017  21.210  24.087  11.019
 7670W        W80018  24.665   0.320   1.719
 7671W        W80019  20.679  26.974   2.871
 7672W        W80020  28.078  15.666   0.340
 7673W        W80021  29.109  27.175   1.243
 7674W        W80022  22.587   2.296   0.861
 7675W        W80023  37.005  34.455   3.689
 7676W        W80024  40.925  44.754  12.480
 7677W        W80025   0.417  27.194   2.283
 7678W        W80026   2.945  21.534   4.334
 7679W        W80027  36.989  28.976  14.459
 7680W        W80028  16.212   3.356   4.749
 7681W        W80029  28.023   5.784  10.890
 7682W        W80030  30.012  30.599  14.456
 7683W        W80031   2.227  33.562  10.522
 7684W        W80032  21.646  19.617  14.395
 7685W        W80033  33.054  41.847  12.070
 7686W        W80034  39.052  14.100  14.454
 7687W        W80035  27.615  17.104  13.970
 7688W        W80036  30.475  29.650  12.456
 7689W        W80037  19.536  36.462  12.871
 7690W        W80038  23.148  40.809   1.245
 7691W        W80039  23.671   6.690   2.684
 7692W        W80040  36.997  30.079   3.326
 7693W        W80041  18.574  23.080   2.737
 7694W        W80042   0.266  30.521   3.210
 7695W        W80043  16.298  10.825   1.442
 7696W        W80044  42.930  13.314  12.423
 7697W        W80045  36.412  36.932  12.556
 7698W        W80046   1.398  16.264  12.351
 7699W        W80047  20.087  40.396   5.275
 7700W        W80048  12.327  10.284   0.960
 7701W        W80049  24.040  33.558  13.346
 7702W        W80050   8.785  30.991   3.172
 7703W        W80051  12.850  34.046  14.315
 7704W        W80052   0.439  43.423  11.492
 7705W        W80053  20.197   9.664  13.356
 7706W        W80054   7.683  29.046  13.920
 7707W        W80055   7.677  14.594   3.631
 7708W        W80056  11.351  21.181   1.842
 7709W        W80057  22.551  22.034  12.442
 7710W        W80058  17.789  36.914   1.421
 7711W        W80059   8.828  42.978   4.240
 7712W        W80060  33.930  22.746  10.435
 7713W        W80061  22.568   5.833  10.481
 7714W        W80062   8.159   9.646  14.822
 7715W        W80063  21.051  35.892   4.695
 7716W        W80064  12.303  26.464  13.480
 7717W        W80065  29.659  22.120   3.254
 7718W        W80066  33.055  43.021   0.416
 7719W        W80067   2.821  35.899   2.801
 7720W        W80068  19.558  11.848  10.962
 7721W        W80069  37.865  29.576  10.946
 7722W        W80070  22.051   1.977   3.820
 7723W        W80071  28.448  43.908  13.002
 7724W        W80072  39.950  31.970   0.945
 7725W        W80073   0.344  40.333   0.941
 7726W        W80074  26.600   0.974  14.332
 7727W        W80075  19.746  27.677   4.325
 7728W        W80076   6.230  39.973  12.562
 7729W        W80077  34.458  44.979  12.368
 7730W        W80078  37.991  36.555   3.756
 7731W        W80079  34.069  21.260  14.891
 7732W        W80080  21.714  42.835   2.679
 7733W        W80081  37.010   4.918   9.662
 7734W        W80082  10.155   2.751  13.333
 7735W        W80083  25.684   5.905  14.905
 7736W        W80084  43.349  32.117   0.940
 7737W        W80085   0.958   0.946   2.318
 7738W        W80086  40.369  36.945   1.298
 7739W        W80087  26.697  14.680   0.840
 7740W        W80088  17.292  12.837   5.124
 7741W        W80089  19.562   7.817   2.753
 7742W        W80090  14.746   0.311  11.499
 7743W        W80091   7.691  37.920   0.773
 7744W        W80092  17.564  35.075   4.285
 7745W        W80093  31.939  24.049   3.368
 7746W        W80094   4.935  25.163   3.853
 7747W        W80095  25.175   8.329   2.243
 7748W        W80096  37.875  20.763   1.847
 7749W        W80097  14.247  40.425  14.877
 7750W        W80098  36.469  15.096   1.237
 7751W        W80099  42.921  20.136   2.679
 7752W        W80100  22.053  41.487   3.213
 7753W        W80101  13.312  17.559  10.517
 7754W        W80102  38.355  11.345   3.828
 7755W        W80103  20.648   6.846   0.268
 7756W        W80104  13.773  43.482  14.907
 7757W        W80105  32.073  26.534   1.313
 7758W        W80106  35.442  42.793   2.665
 7759W        W80107  30.619  33.397   1.226
 7760W        W80108  41.409  12.266   2.759
 7761W        W80109  29.597  13.682  13.380
 7762W        W80110  11.144  10.731  14.418
 7763W        W80111  10.804   9.336   2.776
 7764W        W80112  27.028  11.844   1.436
 7765W        W80113   2.233  27.975   0.773
 7766W        W80114   0.789  39.533   4.338
 7767W        W80115   9.292  30.165   1.426
 7768W        W80116  33.048   7.671   2.856
 7769W        W80117  10.694  20.257  11.972
 7770W        W80118  29.515  16.214  10.555
 7771W        W80119  21.073  35.511   1.385
 7772W        W80120  23.662  38.019  13.832
 7773W        W80121  40.817  20.253  10.635
 7774W        W80122  29.625   6.718  14.799
 7775W        W80123  36.879  30.919   1.817
 7776W        W80124  25.964  23.002   1.787
 7777W        W80125   6.680  26.675   0.452
 7778W        W80126  42.373  28.580  14.329
 7779W        W80127   8.247  10.855  11.085
 7780W        W80128  42.909  42.311   0.419
 7781W        W80129  30.163   3.798  11.097
 7782W        W80130  25.554  40.799   3.809
 7783W        W80131  41.814  31.556   4.742
 7784W        W80132   7.294   3.386   2.310
 7785W        W80133  20.525  20.252   0.251
 7786W        W80134  19.269  12.753   2.876
 7787W        W80135  32.940  29.016   2.818
 7788W        W80136   7.303   5.417   4.699
 7789W        W80137   0.331  31.515   0.960
 7790W        W80138  11.243  30.089   1.755
 7791W        W80139  29.013  27.577  11.480
 7792W        W80140  17.789   9.242  10.499
 7793W        W80141   6.389  13.611   1.856
 7794W        W80142  18.688  17.782   4.718
 7795W        W80143   3.395  33.560   5.274
 7796W        W80144  39.344  19.153  14.028
 7797W        W80145  42.982  26.073  14.514
 7798W        W80146   6.772  43.454  12.480
 7799W        W80147  32.392  26.109  10.449
 7800W        W80148  10.677   0.467  13.505
 7801W        W80149  28.546   4.772  11.088
 7802W        W80150  12.698   2.410   0.902
 7803W        W80151   4.743   6.806  10.436
 7804W        W80152  32.929  35.959   1.385
 7805W        W80153  23.057  31.517   0.840
 7806W        W80154  38.500  27.967  10.897
 7807W        W80155  34.076  35.020   2.379
 7808W        W80156  42.907  44.438   0.340
 7809W        W80157  32.982  35.516  12.431
 7810W        W80158  21.553  18.678  10.526
 7811W        W80159  15.148   7.294  11.410
 7812W        W80160  12.797  24.604  14.288
 7813W        W80161  10.753   9.653   0.467
 7814W        W80162  42.290  10.206   2.685
 7815W        W80163  25.576  40.346   4.632
 7816W        W80164  19.130  19.178  10.471
 7817W        W80165  36.861  28.022   0.423
 7818W        W80166  35.075   3.797   4.281
 7819W        W80167  44.473  42.798  11.884
 7820W        W80168  41.501   3.795   0.810
 7821W        W80169  10.156  15.693  13.861
 7822W        W80170  13.258  29.991   3.330
 7823W        W80171  23.064  24.222   4.282
 7824W        W80172  26.096   2.313  11.600
 7825W        W80173   5.296  17.256  12.560
 7826W        W80174   4.769  27.045  13.390
 7827W        W80175   0.941  27.107   2.331
 7828W        W80176  40.322  24.560   1.237
 7829W        W80177  26.122   4.758  10.524
 7830W        W80178  25.189   1.328   1.778
 7831W        W80179  27.090   5.768   1.414
 7832W        W80180  38.032  42.914   4.838
 7833W        W80181  44.404  35.471  12.410
 7834W        W80182   3.815  22.565  13.420
 7835W        W80183  40.845  35.969   1.872
 7836W        W80184   8.298  29.035   1.819
 7837W        W80185  41.946   2.397  12.546
 7838W        W80186  12.214   3.815   3.208
 7839W        W80187  36.000  35.060   3.775
 7840W        W80188  16.615   7.880   3.846
 7841W        W80189   1.259  24.092  13.901
 7842W        W80190  28.135  27.961   4.690
 7843W        W80191  27.025  23.124   0.918
 7844W        W80192   2.896  31.437   0.919
 7845W        W80193  23.093  38.473  11.084
 7846W        W80194  20.228  40.968  12.858
 7847W        W80195  33.442  23.109  13.015
 7848W        W80196  23.084  21.652   4.190
 7849W        W80197   2.297   3.804  11.593
 7850W        W80198  33.588  33.037  10.487
 7851W        W80199  32.975  38.981   1.402
 7852W        W80200  18.142  20.535   3.171
 7853W        W80201  35.404  15.605   1.741
 7854W        W80202   8.227   2.280  11.936
 7855W        W80203   4.773  19.660  14.972
 7856W        W80204  11.714  19.657  13.431
 7857W        W80205  30.615  38.026   1.380
 7858W        W80206  25.164  15.141   4.738
 7859W        W80207  26.529  16.725  11.040
 7860W        W80208  40.444   8.664  13.365
 7861W        W80209  43.779  18.174   3.316
 7862W        W80210   9.870  38.892  10.897
 7863W        W80211   7.174  39.499  10.899
 7864W        W80212  42.452   0.451   0.401
 7865W        W80213  35.934  20.105   4.645
 7866W        W80214  31.515  23.142   2.730
 7867W        W80215  19.739  11.641   2.756
 7868W        W80216   9.766  28.624  11.592
 7869W        W80217  10.658  41.965  10.906
 7870W        W80218   0.247   3.843   4.311
 7871W        W80219  25.215   8.314   4.153
 7872W        W80220  44.461  14.767   0.849
 7873W        W80221  16.581  19.159  12.873
 7874W        W80222  16.764  23.026  10.580
 7875W        W80223  37.059  30.067   2.664
 7876W        W80224  15.296  12.745   1.783
 7877W        W80225  25.640  36.472   1.320
 7878W        W80226  40.352  17.762  14.496
 7879W        W80227  39.856  12.823   1.449
 7880W        W80228  39.859  32.118  10.633
 7881W        W80229  10.725  32.004  13.382
 7882W        W80230  20.634  23.546   3.775
 7883W        W80231  35.406  18.275  13.835
 7884W        W80232  27.536  14.171   3.173
 7885W        W80233  42.445   0.308  13.836
 7886W        W80234  40.027  41.389  14.802
 7887W        W80235  35.403   1.319  11.999
 7888W        W80236  24.606   6.895  13.402
 7889W        W80237  19.206  23.120   1.740
 7890W        W80238  33.995  33.903  11.913
 7891W        W80239  17.247  15.136  13.469
 7892W        W80240  19.604  37.034  14.963
 7893W        W80241   6.322  33.922  14.366
 7894W        W80242   9.765   6.725  13.940
 7895W        W80243  23.985  12.611  12.828
 7896W        W80244  26.524   3.319   2.800
 7897W        W80245  16.653   2.277   4.318
 7898W        W80246  14.330  28.548   1.291
 7899W        W80247  12.208  20.140   1.231
 7900W        W80248  37.985   7.796  11.054
 7901W        W80249   2.384  31.445   2.701
 7902W        W80250  21.619  23.550  11.969
 7903W        W80251   9.875   4.316   5.311
 7904W        W80252  39.488  32.066   0.457
 7905W        W80253  11.628  34.560  13.478
 7906W        W80254   4.890  25.051  11.040
 7907W        W80255  20.164  30.431  14.368
 7908W        W80256  43.988   3.716  11.075
 7909W        W80257  43.295  31.624  14.952
 7910W        W80258  36.545  37.424  11.388
 7911W        W80259  30.567   8.363   2.805
 7912W        W80260   0.780  23.013   2.323
 7913W        W80261  25.086  20.677  14.997
 7914W        W80262  13.174  28.678  14.942
 7915W        W80263  24.186   7.843   2.894
 7916W        W80264   4.791  11.159  10.410
 7917W        W80265   8.713  11.202  13.012
 7918W        W80266  44.914  44.959   0.382
 7919W        W80267  42.930  14.806   2.682
 7920W        W80268  19.568  33.609  12.501
 7921W        W80269  37.475  29.570  14.028
 7922W        W80270  37.482  18.054   0.805
 7923W        W80271  40.820  42.783  10.999
 7924W        W80272  38.502  39.481   0.377
 7925W        W80273  29.612  36.379   3.173
 7926W        W80274  11.356   8.853  11.873
 7927W        W80275   3.349  39.914   1.451
 7928W        W80276  30.564  42.907  13.937
 7929W        W80277  22.552  32.141   4.765
 7930W        W80278  31.589  39.487   3.350
 7931W        W80279   1.942  34.576   4.321
 7932W        W80280  20.109  42.896  13.482
 7933W        W80281   3.776   5.379  13.983
 7934W        W80282  24.520  12.165  10.596
 7935W        W80283  29.427  30.030   3.186
 7936W        W80284  33.019  37.515   2.670
 7937W        W80285  29.051   0.956  13.408
 7938W        W80286  20.613  28.653   4.216
 7939W        W80287  29.065  37.943  13.398
 7940W        W80288   6.904  29.040  12.026
 7941W        W80289   1.392  43.995  14.447
 7942W        W80290   4.204  10.261  13.924
 7943W        W80291   5.712  43.014   3.746
 7944W        W80292   9.797  11.748   2.344
 7945W        W80293  19.585  23.618   1.806
 7946W        W80294  41.811  17.133  11.413
 7947W        W80295  43.452  37.360  13.951
 7948W        W80296  39.556  27.142  13.855
 7949W        W80297   3.932  26.028  14.025
 7950W        W80298  18.763  41.899  14.782
 7951W        W80299  18.261  35.604  14.501
 7952W        W80300  22.568   7.348  11.442
 7953W        W80301  12.726  22.735   2.291
 7954W        W80302  44.779   3.849   2.777
 7955W        W80303  10.162  29.009   4.334
 7956W        W80304  24.208  43.848  10.963
 7957W        W80305  34.379  18.667   1.261
 7958W        W80306  37.534  32.049  14.864
 7959W        W80307   4.361   2.414  11.121
 7960W        W80308  14.615  14.312  10.988
 7961W        W80309   0.980  33.095   2.276
 7962W        W80310  18.245  17.588  11.058
 7963W        W80311  10.359  22.190   3.831
 7964W        W80312  43.787  16.747   2.393
 7965W        W80313  19.044  19.184   3.832
 7966W        W80314   1.896   2.787   0.410
 7967W        W80315  34.475  32.914   2.333
 7968W        W80316  22.066  25.506   0.262
 7969W        W80317   4.726  14.127  13.829
 7970W        W80318  42.497   1.347   4.638
 7971W        W80319  15.311   8.804  14.304
 7972W        W80320  40.531  29.031  13.030
 7973W        W80321  14.306  34.110   3.228
 7974W        W80322  13.702  26.646   2.304
 7975W        W80323  34.108  10.375  11.983
 7976W        W80324  38.540  19.686  12.349
 7977W        W80325  44.337  14.614   3.667
 7978W        W80326   2.380   1.296   2.185
 7979W        W80327   4.839  39.879  10.094
 7980W        W80328  30.973  25.030  10.585
 7981W        W80329  43.812  36.385   0.898
 7982W        W80330  14.789  31.472   3.239
 7983W        W80331  17.126  41.838  10.980
 7984W        W80332  10.213  12.233   2.305
 7985W        W80333  12.162  29.652   2.401
 7986W        W80334  17.697  14.780   1.348
 7987W        W80335  19.221  14.727   3.262
 7988W        W80336  15.762   6.723   4.746
 7989W        W80337   2.882   4.941   1.761
 7990W        W80338  44.306  28.995   3.789
 7991W        W80339  20.579  37.480   0.369
 7992W        W80340  28.967   9.817  10.511
 7993W        W80341  26.000   6.912   0.461
 7994W        W80342   2.756  31.423  13.510
 7995W        W80343  28.969   3.761  13.862
 7996W        W80344  27.587  14.653   1.413
 7997W        W80345  15.774  12.313  14.814
 7998W        W80346  26.166   6.874  11.001
 7999W        W80347  18.089  20.698   1.339
 8000W        W80348  39.816  41.854   1.800
 8001W        W80349  35.980  20.123  14.362
 8002W        W80350  17.197  31.984  14.491
 8003W        W80351  35.398  31.533  11.441
 8004W        W80352  19.132  29.613   3.146
 8005W        W80353  11.700  22.636   3.635
 8006W        W80354  10.690   2.886   0.336
 8007W        W80355   5.821   5.306  11.074
 8008W        W80356  17.780   8.406  11.867
 8009W        W80357  12.302   5.933  10.979
 8010W        W80358  37.572  33.447   3.705
 8011W        W80359  13.775  40.424  11.100
 8012W        W80360   9.380  15.592   0.408
 8013W        W80361   9.697  27.109  14.447
 8014W        W80362  37.897  21.212  13.507
 8015W        W80363  34.375  34.929  12.064
 8016W        W80364  27.592  31.947   3.202
 8017W        W80365  23.150  27.007  10.408
 8018W        W80366   8.800  26.690  12.053
 8019W        W80367   1.976  36.353   0.303
 8020W        W80368  33.400   5.898  11.079
 8021W        W80369   0.458   6.282   2.771
 8022W        W80370  39.320  23.078   1.863
 8023W        W80371  16.610  29.600   1.248
 8024W        W80372   4.204  21.064   0.756
 8025W        W80373  42.284  19.062  14.291
 8026W        W80374  20.678  38.514   2.252
 8027W        W80375  22.090   8.178   5.704
 8028W        W80376  36.894  33.053  14.985
 8029W        W80377  28.507  24.704  12.477
 8030W        W80378  31.992  32.908   9.982
 8031W        W80379  10.658   4.741  12.354
 8032W        W80380  13.692  22.578  14.482
 8033W        W80381   2.828  26.585  10.897
 8034W        W80382  18.691   9.823   3.743
 8035W        W80383  40.049   8.334  13.925
 8036W        W80384  13.292  34.546   1.701
 8037W        W80385  28.440  30.542   4.655
 8038W        W80386  42.977  34.593  13.049
 8039W        W80387  15.248  25.051   2.263
 8040W        W80388  10.839  28.559   2.185
 8041W        W80389   3.344  31.088  11.530
 8042W        W80390  31.615  17.795   3.321
 8043W        W80391  40.934  14.109   3.785
 8044W        W80392  22.635   1.423   4.830
 8045W        W80393   0.312  21.141   0.945
 8046W        W80394  33.877  33.388  12.407
 8047W        W80395  28.973   5.322  14.336
 8048W        W80396  30.540  21.229   3.386
 8049W        W80397   0.312  14.652  13.508
 8050W        W80398  39.032  44.412   2.329
 8051W        W80399  22.524   7.905   4.786
 8052W        W80400   0.804  10.330  13.949
 8053W        W80401  44.841  32.142   0.856
 8054W        W80402   8.737   3.330   3.701
 8055W        W80403  14.669  23.002  13.805
 8056W        W80404   2.389  18.772  12.063
 8057W        W80405  19.728  25.643   0.945
 8058W        W80406  13.187  21.236  10.417
 8059W        W80407  41.828   7.359  10.068
 8060W        W80408  35.947  22.070  10.011
 8061W        W80409  44.949  42.783  12.927
 8062W        W80410   2.413  26.656  12.028
 8063W        W80411  32.474  30.653   2.325
 8064W        W80412  13.837  28.561  11.087
 8065W        W80413  39.368  10.713   2.871
 8066W        W80414  25.149  30.985   0.897
 8067W        W80415   1.416   0.804   2.318
 8068W        W80416  20.581  25.973  10.494
 8069W        W80417  40.453  19.274  12.002
 8070W        W80418  10.669  44.282  11.521
 8071W        W80419   6.428  29.444  10.088
 8072W        W80420  13.152  24.568  13.402
 8073W        W80421   6.242  41.457   3.641
 8074W        W80422  22.668   7.203   3.865
 8075W        W80423  34.921  30.932   1.867
 8076W        W80424  22.607  21.556  10.991
 8077W        W80425  23.022  30.568   2.324
 8078W        W80426  42.320  22.706   2.783
 8079W        W80427  38.986  31.584  11.936
 8080W        W80428   7.344  28.681   1.929
 8081W        W80429  38.485  16.699   2.261
 8082W        W80430  32.973  25.055  13.828
 8083W        W80431  24.526   1.844  12.989
 8084W        W80432   4.379  27.161   4.286
 8085W        W80433  21.044  17.667  11.921
 8086W        W80434  23.557  13.113   3.344
 8087W        W80435  14.316  42.425   0.463
 8088W        W80436  44.367  12.253   0.857
 8089W        W80437  22.042  19.533  12.047
 8090W        W80438  34.899  30.122  10.901
 8091W        W80439  23.589   3.901  10.597
 8092W        W80440   8.200  33.943   0.358
 8093W        W80441   1.240  13.613   0.734
 8094W        W80442   8.219   8.889  10.921
 8095W        W80443   0.487   2.816  14.029
 8096W        W80444  20.663  32.483   4.655
 8097W        W80445  41.813   0.274  13.331
 8098W        W80446  13.805   0.848   0.846
 8099W        W80447  15.644  28.674  14.395
 8100W        W80448  38.558  44.807  12.997
 8101W        W80449  20.194  20.560   1.309
 8102W        W80450  11.750  17.192   1.838
 8103W        W80451  36.435  17.669   2.210
 8104W        W80452   8.874  28.969  11.607
 8105W        W80453  19.043  26.693   2.299
 8106W        W80454  41.381  39.489   3.342
 8107W        W80455  11.335  16.699   4.144
 8108W        W80456  33.530  44.999   3.309
 8109W        W80457  23.629  19.062  14.486
 8110W        W80458  16.281  40.347   4.114
 8111W        W80459  21.086   5.343  11.451
 8112W        W80460  17.583  11.138   2.885
 8113W        W80461  13.268  29.499   1.833
 8114W        W80462   3.886   1.940   1.370
 8115W        W80463  22.603  39.371  10.452
 8116W        W80464   8.277   7.857   4.157
 8117W        W80465  11.279   3.793  14.275
 8118W        W80466   3.721   4.356  12.371
 8119W        W80467  20.123  25.138   3.291
 8120W        W80468   5.394  29.610   2.836
 8121W        W80469   3.950   2.298   2.815
 8122W        W80470   1.457  24.716  10.598
 8123W        W80471  25.117  34.489   4.338
 8124W        W80472  12.280   3.709   0.355
 8125W        W80473  32.435   4.320   4.221
 8126W        W80474  18.674  10.382   0.950
 8127W        W80475  24.617  14.270   0.423
 8128W        W80476  35.403   1.934   2.883
 8129W        W80477  42.416  25.611  12.890
 8130W        W80478  19.537  25.178  11.076
 8131W        W80479  16.090   1.754   3.265
 8132W        W80480  18.602  34.084  12.537
 8133W        W80481  19.760  14.306   4.638
 8134W        W80482  42.471   6.355   3.682
 8135W        W80483  16.789   8.813   4.267
 8136W        W80484   0.467   2.404   3.735
 8137W        W80485  21.072  32.087  12.372
 8138W        W80486   7.402   8.654   1.778
 8139W        W80487  15.736  26.680  11.555
 8140W        W80488  37.338  38.036  12.835
 8141W        W80489  31.119   2.423  14.951
 8142W        W80490  13.337  25.206   1.878
 8143W        W80491   1.813  44.406   2.274
 8144W        W80492  24.607  37.062   3.159
 8145W        W80493   5.908   1.924  14.298
 8146W        W80494   5.795  43.379   3.727
 8147W        W80495  25.060   9.195  12.063
 8148W        W80496  10.727  34.982  12.981
 8149W        W80497  33.060  34.412  13.994
 8150W        W80498  37.444  31.498  11.974
 8151W        W80499   5.385   9.162  13.044
 8152W        W80500   9.309  27.071   1.450
 8153W        W80501  10.736  27.956   4.335
 8154W        W80502   4.340  40.949  14.346
 8155W        W80503  16.292  41.904  13.988
 8156W        W80504  17.747   4.852   3.744
 8157W        W80505  35.007  34.401  13.458
 8158W        W80506  40.318  16.148   4.258
 8159W        W80507  33.979  24.538   4.140
 8160W        W80508  20.083  21.516  13.532
 8161W        W80509  27.462   9.703  10.938
 8162W        W80510  10.656   0.862   1.264
 8163W        W80511  30.547  32.599   0.961
 8164W        W80512  44.423  31.591  12.988
 8165W        W80513  28.001  39.809  14.995
 8166W        W80514   7.401  24.584   0.842
 8167W        W80515   4.322  11.223   4.695
 8168W        W80516   0.377  19.131  12.025
 8169W        W80517   2.856  23.492   2.665
 8170W        W80518  11.163  42.292   4.216
 8171W        W80519  15.219   1.470   2.315
 8172W        W80520  42.290  27.974  11.426
 8173W        W80521  21.035  36.455  12.541
 8174W        W80522   7.666  30.472   5.118
 8175W        W80523  38.979  16.567  13.986
 8176W        W80524  40.441  43.308   4.282
 8177W        W80525  35.418  43.324  11.876
 8178W        W80526   7.795   9.348   0.812
 8179W        W80527  24.589  34.918  13.840
 8180W        W80528  39.468  22.518  12.995
 8181W        W80529  11.715   9.685   0.824
 8182W        W80530  38.568   9.822  12.433
 8183W        W80531  38.899  43.872   4.599
 8184W        W80532  29.495  14.225  13.428
 8185W        W80533  30.490  14.175  12.509
 8186W        W80534  35.993   9.360  14.389
 8187W        W80535  12.711  36.582  11.498
 8188W        W80536  22.586   7.276   5.116
 8189W        W80537  43.787  21.193   3.385
 8190W        W80538  26.623   7.718   5.302
 8191W        W80539  35.936  35.023   1.386
 8192W        W80540  19.616  43.281   2.245
 8193W        W80541  20.562  13.747  13.458
 8194W        W80542  43.996   7.699   2.273
 8195W        W80543  27.062  30.496  13.382
 8196W        W80544  36.504   8.897  11.982
 8197W        W80545  11.803  35.090   3.383
 8198W        W80546  28.506   8.210   4.659
 8199W        W80547  44.881  19.709   4.272
 8200W        W80548  30.648  40.396  10.430
 8201W        W80549  29.111  31.463  11.091
 8202W        W80550   1.860  36.045   3.188
 8203W        W80551  32.573  34.535  14.025
 8204W        W80552  23.196  21.526   1.283
 8205W        W80553  44.394  41.018  11.385
 8206W        W80554  35.479  34.099   1.271
 8207W        W80555  28.036  21.692  12.010
 8208W        W80556   9.225  20.146   9.936
 8209W        W80557  19.772  10.745  10.916
 8210W        W80558  38.036  41.786   4.622
 8211W        W80559   4.295  23.090   3.736
 8212W        W80560  19.077  40.427   0.261
 8213W        W80561  42.820  31.406   1.429
 8214W        W80562  41.498  16.767  11.452
 8215W        W80563  18.691  25.530   0.425
 8216W        W80564  32.624  39.366   0.428
 8217W        W80565  17.099   7.705  14.866
 8218W        W80566  30.637  20.754  10.546
 8219W        W80567  18.105  29.127  14.878
 8220W        W80568  24.129  20.028  12.363
 8221W        W80569  40.852  19.660   0.339
 8222W        W80570  26.957   1.934  12.886
 8223W        W80571  16.710  13.616  12.484
 8224W        W80572  29.535  24.678  10.639
 8225W        W80573  25.645   3.726  13.533
 8226W        W80574  41.429  20.615   1.220
 8227W        W80575   8.749   0.352   0.776
 8228W        W80576  10.363  37.917   2.317
 8229W        W80577   2.345  13.766  11.058
 8230W        W80578  22.018   7.683   4.123
 8231W        W80579   8.259  38.862   1.878
 8232W        W80580   8.370  22.627  14.837
 8233W        W80581  35.450  41.372   4.621
 8234W        W80582  22.130  44.400   3.671
 8235W        W80583  44.921  30.028  11.572
 8236W        W80584   7.689   3.356   5.208
 8237W        W80585  22.246   3.749  12.074
 8238W        W80586  20.049  42.485  11.381
 8239W        W80587  31.985  23.020  14.380
 8240W        W80588  39.942   9.332   3.855
 8241W        W80589  15.203  40.840   3.850
 8242W        W80590  13.680  25.503   3.652
 8243W        W80591  22.156  13.255   0.403
 8244W        W80592  14.791  25.664  14.422
 8245W        W80593  33.597  20.159  10.439
 8246W        W80594  10.661  24.711   3.869
 8247W        W80595   5.784   2.430   3.810
 8248W        W80596  35.453  41.528   0.459
 8249W        W80597  34.096  40.044   2.807
 8250W        W80598  30.098  12.706   3.744
 8251W        W80599  38.443   8.894   0.403
 8252W        W80600  14.647  40.458   4.270
 8253W        W80601   0.972  32.892  14.818
 8254W        W80602  44.337   1.796   2.256
 8255W        W80603  42.842  25.133   1.816
 8256W        W80604  36.907  28.513  10.404
 8257W        W80605  25.019  34.977  10.580
 8258W        W80606   6.289  20.083   2.728
 8259W        W80607  32.039  18.789  11.571
 8260W        W80608   3.264  39.463  14.290
 8261W        W80609  20.556  35.526   4.671
 8262W        W80610  25.069  29.936  14.956
 8263W        W80611  28.445   1.351  11.881
 8264W        W80612  10.169  35.939  10.104
 8265W        W80613  40.863  43.902   2.340
 8266W        W80614   3.857   3.253  14.883
 8267W        W80615  14.302  10.149  13.417
 8268W        W80616  36.064  26.040   0.287
 8269W        W80617  25.993  22.605  12.091
 8270W        W80618  36.450  27.057  10.606
 8271W        W80619  24.065   4.255  13.936
 8272W        W80620   9.247  12.330   4.731
 8273W        W80621  14.652  38.992   3.359
 8274W        W80622  10.684   0.283   0.381
 8275W        W80623  31.541  31.637  13.499
 8276W        W80624  35.896  27.545  14.818
 8277W        W80625  38.060   8.901  13.809
 8278W        W80626  35.934  31.413   3.843
 8279W        W80627  16.189  33.550   0.874
 8280W        W80628  24.186  10.738   1.879
 8281W        W80629  33.009  22.151  13.006
 8282W        W80630  43.382  23.572  11.537
 8283W        W80631  16.212  20.135   0.439
 8284W        W80632  41.519   4.887  11.600
 8285W        W80633   8.735  20.686   0.903
 8286W        W80634  30.085  39.458   1.786
 8287W        W80635  42.031  11.833   2.379
 8288W        W80636   2.249  10.366  10.638
 8289W        W80637  20.729  21.232  13.354
 8290W        W80638  21.127  35.888   3.303
 8291W        W80639   1.765   6.278   1.795
 8292W        W80640   1.397  38.365   4.199
 8293W        W80641  33.426  33.124  14.882
 8294W        W80642  24.105  11.365  12.071
 8295W        W80643  38.019  30.584   0.379
 8296W        W80644  33.074  15.736   2.871
 8297W        W80645  28.068  22.728   4.301
 8298W        W80646  30.072  13.843   1.391
 8299W        W80647  13.248  24.006  14.957
 8300W        W80648  32.550  24.514   3.378
 8301W        W80649   8.205  20.608   3.383
 8302W        W80650   6.323   9.172   2.721
 8303W        W80651  30.640  17.747  14.988
 8304W        W80652  11.331  13.821  12.925
 8305W        W80653  38.914   9.851   0.798
 8306W        W80654  24.187  10.166   2.715
 8307W        W80655   5.238  26.124  14.473
 8308W        W80656  23.192  27.536  11.118
 8309W        W80657   8.741  30.090   2.786
 8310W        W80658  23.047  31.459  14.376
 8311W        W80659  31.523  21.079  13.526
 8312W        W80660  14.095  40.353  11.416
 8313W        W80661  41.391  33.466   4.597
 8314W        W80662  35.057   5.194  14.805
 8315W        W80663   1.907  16.812   3.867
 8316W        W80664  22.217  22.546  12.452
 8317W        W80665  36.469  32.478  14.013
 8318W        W80666  11.648  39.878  14.438
 8319W        W80667  18.787  43.448   1.740
 8320W        W80668  27.679   8.194   2.694
 8321W        W80669  33.925  36.075  14.309
 8322W        W80670  38.363   8.737   2.259
 8323W        W80671   1.402  12.842  12.471
 8324W        W80672  40.802   6.343  14.778
 8325W        W80673  32.591   3.220  12.555
 8326W        W80674  10.660   3.290   2.813
 8327W        W80675  27.465  25.585   1.440
 8328W        W80676   2.254  42.409   1.215
 8329W        W80677  12.615  18.676  12.879
 8330W        W80678   9.667  23.650  11.977
 8331W        W80679  12.722  41.986   1.713
 8332W        W80680   9.277  32.954   0.735
 8333W        W80681  37.981   0.423  14.775
 8334W        W80682  34.403   8.769  11.976
 8335W        W80683  14.649  35.545  12.513
 8336W        W80684  30.510  17.793   4.598
 8337W        W80685  42.877  38.915  12.886
 8338W        W80686  20.216  26.477  10.946
 8339W        W80687  32.024   5.331  13.867
 8340W        W80688  31.068  12.267  13.026
 8341W        W80689  28.502  38.982   2.344
 8342W        W80690  44.500   5.234  11.993
 8343W        W80691   5.334  38.076  14.407
 8344W        W80692   9.172  26.518   4.687
 8345W        W80693  38.046   8.240   3.373
 8346W        W80694  36.404  23.527   4.181
 8347W        W80695  32.555  25.491  11.114
 8348W        W80696  43.514  35.488   2.265
 8349W        W80697  14.233  33.018  10.949
 8350W        W80698  15.250  29.568   1.229
 8351W        W80699  28.111  14.712   0.460
 8352W        W80700  40.475  38.468  12.872
 8353W        W80701  28.527   0.476   0.875
 8354W        W80702  19.130   0.940   1.354
 8355W        W80703  23.637  26.969  13.540
 8356W        W80704   1.895   4.868   4.143
 8357W        W80705  27.485  22.028  14.988
 8358W        W80706  26.124  34.406   1.219
 8359W        W80707  29.094  17.108  13.958
 8360W        W80708   6.764  31.558  13.015
 8361W        W80709   7.704   4.913  11.990
 8362W        W80710   6.756  34.498   4.801
 8363W        W80711   2.234  43.909  12.998
 8364W        W80712   2.788  44.820  14.808
 8365W        W80713   1.806  11.139  11.561
 8366W        W80714  35.548  37.527   1.435
 8367W        W80715  15.665  41.827  12.903
 8368W        W80716   1.805   4.356  12.073
 8369W        W80717  33.433  11.717  10.617
 8370W        W80718  11.686  17.200  14.950
 8371W        W80719  15.277   4.821  10.538
 8372W        W80720   9.738  26.581   5.215
 8373W        W80721  34.986  40.413  14.889
 8374W        W80722   4.757  36.953   3.802
 8375W        W80723  19.241  31.020   1.845
 8376W        W80724  19.736   0.327  10.435
 8377W        W80725   4.738   9.153  13.538
 8378W        W80726   2.897  43.469   2.232
 8379W        W80727  42.997  19.649   4.823
 8380W        W80728  30.472  44.505  13.366
 8381W        W80729   7.199  40.840   4.334
 8382W        W80730  42.442   8.378   3.777
 8383W        W80731  20.061  20.715  10.619
 8384W        W80732  13.846  25.542  10.502
 8385W        W80733   3.307   1.414  13.950
 8386W        W80734   4.208  36.356   3.257
 8387W        W80735  13.280  14.703   3.271
 8388W        W80736   5.280  43.783   1.762
 8389W        W80737  22.067  35.106  13.418
 8390W        W80738  10.287  32.036   1.813
 8391W        W80739  33.957   8.396  13.052
 8392W        W80740   0.866   3.772   1.413
 8393W        W80741  33.972  18.760   0.272
 8394W        W80742  35.594  28.063  13.843
 8395W        W80743  22.141  22.619   4.784
 8396W        W80744  18.273  31.443  10.404
 8397W        W80745  22.625   9.350  12.445
 8398W        W80746  26.648  37.889   1.231
 8399W        W80747   7.718  30.073  14.290
 8400W        W80748  38.938  40.311  10.612
 8401W        W80749  36.966  10.198   3.863
 8402W        W80750  37.991  21.198  14.011
 8403W        W80751  21.566  21.221   3.815
 8404W        W80752  12.203  17.719   3.722
 8405W        W80753  30.578   9.852   0.354
 8406W        W80754   3.358  27.194   2.687
 8407W        W80755   9.738   1.826  11.869
 8408W        W80756   2.247  15.688  12.536
 8409W        W80757   8.262   6.246   3.846
 8410W        W80758  39.359   3.315   0.306
 8411W        W80759  22.546  32.129   0.807
 8412W        W80760  26.112  40.818  14.474
 8413W        W80761   8.773  15.144  14.904
 8414W        W80762  23.005  12.321  11.953
 8415W        W80763  27.535   6.853  10.479
 8416W        W80764  22.573  17.062  13.328
 8417W        W80765  18.264  33.568   2.858
 8418W        W80766  15.302  39.545   0.280
 8419W        W80767  38.913  16.713   2.687
 8420W        W80768  14.181   5.316   4.700
 8421W        W80769  41.810  38.903  13.508
 8422W        W80770   1.431  42.873  13.516
 8423W        W80771  23.693  17.784   2.240
 8424W        W80772  39.514  16.168   1.405
 8425W        W80773  23.172  21.152  13.894
 8426W        W80774  28.100  21.543  12.497
 8427W        W80775  35.950  26.073  11.040
 8428W        W80776  28.676  30.560  14.762
 8429W        W80777  30.583  30.926   5.179
 8430W        W80778  30.657  23.527   0.749
 8431W        W80779  10.168  25.034  10.418
 8432W        W80780  40.381  39.523  12.361
 8433W        W80781  36.979  14.282  11.966
 8434W        W80782  35.063  39.854  13.535
 8435W        W80783  14.143  29.472  13.538
 8436W        W80784  21.091  11.821   0.273
 8437W        W80785  22.502  22.075   0.853
 8438W        W80786   1.255   8.176   4.144
 8439W        W80787  25.118  42.838  10.434
 8440W        W80788   8.675  35.025   1.710
 8441W        W80789   2.415  19.124  13.371
 8442W        W80790  10.238  36.081   0.950
 8443W        W80791  40.329  25.162   0.351
 8444W        W80792  31.974  12.752   1.831
 8445W        W80793  18.608   9.795   4.657
 8446W        W80794  19.274  18.227  12.875
 8447W        W80795  19.158  42.796  12.837
 8448W        W80796   9.681   4.264  14.399
 8449W        W80797  24.976  35.513  11.567
 8450W        W80798  22.560  31.554  11.010
 8451W        W80799  28.146  33.409  14.358
 8452W        W80800  42.004   7.794   2.418
 8453W        W80801   8.746  29.628  14.382
 8454W        W80802  21.034  10.640   4.219
 8455W        W80803  43.862  19.650  12.862
 8456W        W80804   9.388  10.249  11.573
 8457W        W80805  34.527  41.510   3.666
 8458W        W80806  13.271  26.972  14.347
 8459W        W80807  18.173  26.958   0.872
 8460W        W80808  18.760  10.743   1.756
 8461W        W80809  35.003  42.382  10.554
 8462W        W80810   7.373  35.037   1.716
 8463W        W80811   6.377  33.549   0.904
 8464W        W80812  42.844  19.768   3.819
 8465W        W80813   7.822  11.310  12.464
 8466W        W80814   3.311  37.019   4.661
 8467W        W80815   6.876  36.456   0.811
 8468W        W80816  43.972  42.909   4.659
 8469W        W80817  29.002   1.468  10.904
 8470W        W80818  14.814  25.049   1.907
 8471W        W80819  12.288  10.226  10.085
 8472W        W80820  16.731  11.661  13.407
 8473W        W80821  10.353  44.856   1.444
 8474W        W80822  21.712  28.573   4.598
 8475W        W80823  25.707   6.878  13.400
 8476W        W80824   0.830  17.117  10.449
 8477W        W80825  35.873  17.142   2.409
 8478W        W80826  27.130  20.571   3.683
 8479W        W80827  37.904  36.916   3.246
 8480W        W80828   6.715   5.268  13.365
 8481W        W80829  20.556   9.749   0.961
 8482W        W80830   5.933  28.992  14.779
 8483W        W80831  30.041  44.436  13.971
 8484W        W80832   7.878  27.940  14.910
 8485W        W80833   7.687  25.554  11.420
 8486W        W80834   8.216  13.189  13.956
 8487W        W80835  37.035  39.863  12.067
 8488W        W80836  18.130  28.668  13.901
 8489W        W80837  21.603   3.349   3.787
 8490W        W80838  26.569  44.348  11.967
 8491W        W80839  25.123   3.434  12.988
 8492W        W80840   3.414   4.870  10.990
 8493W        W80841  14.296  21.104   2.390
 8494W        W80842   3.795  14.655   3.674
 8495W        W80843  18.264   7.201  12.020
 8496W        W80844   1.453  23.007   1.742
 8497W        W80845  43.824  12.278  13.367
 8498W        W80846  17.798  24.681  10.953
 8499W        W80847  33.021  28.535  14.412
 8500W        W80848   7.246  19.217  11.593
 8501W        W80849   0.945  16.602   2.261
 8502W        W80850  16.282  19.207   2.378
 8503W        W80851  34.899   1.448  11.545
 8504W        W80852  22.057  36.446  11.014
 8505W        W80853  31.946   8.878   1.356
 8506W        W80854   6.710  37.575  11.603
 8507W        W80855  22.248  35.537   4.287
 8508W        W80856  31.972   5.891   9.954
 8509W        W80857  39.526  42.367  11.428
 8510W        W80858  31.610   3.889  11.946
 8511W        W80859  35.057  19.719   4.717
 8512W        W80860  25.605  21.728  14.307
 8513W        W80861   8.245  36.903   2.748
 8514W        W80862  38.543  40.038   3.636
 8515W        W80863  27.603   4.346   1.862
 8516W        W80864  19.537  35.981   1.741
 8517W        W80865  32.607  34.517  10.431
 8518W        W80866  17.159   6.705   0.280
 8519W        W80867   1.404  42.495  13.904
 8520W        W80868  18.623   1.386  12.975
 8521W        W80869  36.938  42.029   3.672
 8522W        W80870   7.767  18.079   2.884
 8523W        W80871  33.523  31.934   4.167
 8524W        W80872  39.955  22.238   3.763
 8525W        W80873   3.891  33.101   3.211
 8526W        W80874  17.302   9.725  12.564
 8527W        W80875  22.139  15.220   1.896
 8528W        W80876  29.110  42.878   1.266
 8529W        W80877  27.538   4.742   4.823
 8530W        W80878  24.980   9.768   0.269
 8531W        W80879  41.871  39.011   2.863
 8532W        W80880  35.366  15.256   4.626
 8533W        W80881   9.358  37.368   0.370
 8534W        W80882  31.029  28.186   0.397
 8535W        W80883  23.124  18.176   3.788
 8536W        W80884  11.625  19.683  14.819
 8537W        W80885   7.751  29.438   4.348
 8538W        W80886  28.029  31.101  11.903
 8539W        W80887   7.836  24.568   1.903
 8540W        W80888  37.999  30.089  13.995
 8541W        W80889  42.942  29.608   3.829
 8542W        W80890  24.174  21.048  13.824
 8543W        W80891  34.432  25.515  13.433
 8544W        W80892  35.946  10.808  11.881
 8545W        W80893   3.357  42.964   4.638
 8546W        W80894  17.572  34.473  10.974
 8547W        W80895  21.067  41.871   1.239
 8548W        W80896   1.770   9.301  13.403
 8549W        W80897   7.673  41.507   4.711
 8550W        W80898  11.758  44.793   2.398
 8551W        W80899  22.552  44.502   0.401
 8552W        W80900  44.882  36.042   0.439
 8553W        W80901  19.078  23.164   4.631
 8554W        W80902  16.277  26.136   3.178
 8555W        W80903   9.764  39.908  13.517
 8556W        W80904  10.854  31.972  12.089
 8557W        W80905  10.336  27.476   2.868
 8558W        W80906  42.803   9.822   2.785
 8559W        W80907   5.788  31.648   0.920
 8560W        W80908  23.240   4.922  14.789
 8561W        W80909  29.473  36.849   4.266
 8562W        W80910  39.545  37.436   1.727
 8563W        W80911  17.211  29.963   4.662
 8564W        W80912  32.507  18.283   3.751
 8565W        W80913  29.023  42.419   3.318
 8566W        W80914  13.743   0.873   3.842
 8567W        W80915  32.567  38.831  11.575
 8568W        W80916  33.895  13.185   4.182
 8569W        W80917  13.756  14.661  13.437
 8570W        W80918  23.707   7.220   5.238
 8571W        W80919  40.859  38.353   3.765
 8572W        W80920   1.418  44.290  14.355
 8573W        W80921  21.648  42.030  11.606
 8574W        W80922  17.695  40.407  14.400
 8575W        W80923   5.856  17.592  11.864
 8576W        W80924  34.484  29.995   3.855
 8577W        W80925  13.815   1.352   3.296
 8578W        W80926  44.960  26.154  13.851
 8579W        W80927  29.559  35.104   0.812
 8580W        W80928   7.236  27.000   1.370
 8581W        W80929  32.096   7.251   2.862
 8582W        W80930  44.901  20.561  13.516
 8583W        W80931  40.355  31.402  14.506
 8584W        W80932  19.060   2.230   4.161
 8585W        W80933  14.624  31.442  14.312
 8586W        W80934  18.204  40.868  11.862
 8587W        W80935  14.142   1.903   1.323
 8588W        W80936  38.391  42.857  14.968
 8589W        W80937   8.210   8.369  13.950
 8590W        W80938  31.550  23.197  12.915
 8591W        W80939  29.500  15.635   4.680
 8592W        W80940  26.539  31.454   0.429
 8593W        W80941  29.155  18.280  12.827
 8594W        W80942  41.822  25.692   4.218
 8595W        W80943  13.171  16.212  11.962
 8596W        W80944  40.493  26.504  14.831
 8597W        W80945   2.779  28.668  12.889
 8598W        W80946  43.841   0.432  13.530
 8599W        W80947   9.322   0.449  11.917
 8600W        W80948  40.530  37.491  13.907
 8601W        W80949   0.811  11.729  11.869
 8602W        W80950   2.343  12.718  14.983
 8603W        W80951   3.329  35.503  10.891
 8604W        W80952  34.106  24.562  10.589
 8605W        W80953  30.966  26.022   2.797
 8606W        W80954   3.723  15.310  13.984
 8607W        W80955  39.517  36.864   0.360
 8608W        W80956   4.745  10.189   4.757
 8609W        W80957  10.196   5.323   1.383
 8610W        W80958  17.172  20.158   1.448
 8611W        W80959  35.594  32.614   4.125
 8612W        W80960  18.209  42.895   4.256
 8613W        W80961  33.417   6.289  11.091
 8614W        W80962   6.855  39.465   2.835
 8615W        W80963  44.482  26.638  12.417
 8616W        W80964  37.885   7.891   9.921
 8617W        W80965  44.504  15.095  11.893
 8618W        W80966   3.744  40.804  12.075
 8619W        W80967   6.374  42.491  11.529
 8620W        W80968  10.157   3.738  10.003
 8621W        W80969  31.970   2.751  10.629
 8622W        W80970  44.778  40.314   1.278
 8623W        W80971  29.486  28.476   0.470
 8624W        W80972   3.440  22.730   2.850
 8625W        W80973  35.423  12.817   4.723
 8626W        W80974  23.223  41.323  14.479
 8627W        W80975  22.111  33.546   1.875
 8628W        W80976  43.477  42.396   1.725
 8629W        W80977  28.438   9.770   2.275
 8630W        W80978  34.502  14.776   2.303
 8631W        W80979  31.042  15.817  13.430
 8632W        W80980  40.465   1.748  14.950
 8633W        W80981  11.355  44.310  12.395
 8634W        W80982  36.390   7.864   3.646
 8635W        W80983   5.302  34.394   2.221
 8636W        W80984   7.693  24.118  14.422
 8637W        W80985  23.141  23.142   4.599
 8638W        W80986  41.515  28.141   0.906
 8639W        W80987  25.029  38.887  12.471
 8640W        W80988  35.384  32.128  14.412
 8641W        W80989  30.944  25.536   1.236
 8642W        W80990   0.747  27.999  13.019
 8643W        W80991  41.388  11.167   0.849
 8644W        W80992   6.248  40.374  13.455
 8645W        W80993  39.542   0.912  10.531
 8646W        W80994  40.984  22.650   1.403
 8647W        W80995  15.125  16.207   3.723
 8648W        W80996   0.279  25.075   3.200
 8649W        W80997  23.630  43.435  13.355
 8650W        W80998  31.481  33.090   0.450
 8651W        W80999  15.731  10.330   1.300
 8652W        W81000  30.142   8.734  10.418
 8653W        W81001  18.295  22.996  14.482
 8654W        W81002  39.535   2.446  13.476
 8655W        W81003  30.591  40.441  14.480
 8656W        W81004  31.439  42.004   1.332
 8657W        W81005  43.891  29.173  11.993
 8658W        W81006  35.904  22.252  11.946
 8659W        W81007  26.478   2.949   1.897
 8660W        W81008  25.538  14.650  13.941
 8661W        W81009   8.391  28.665  14.390
 8662W        W81010  23.076  20.206   1.211
 8663W        W81011  39.994  44.402   4.750
 8664W        W81012  40.349  43.016  13.535
 8665W        W81013  34.489   8.874  12.865
 8666W        W81014   2.393  30.008   2.210
 8667W        W81015  34.451   5.330   0.348
 8668W        W81016  37.004  33.026  10.921
 8669W        W81017  25.493  34.609  12.478
 8670W        W81018  16.644  22.741  12.027
 8671W        W81019  22.572  36.570   0.944
 8672W        W81020   8.281  43.921  12.394
 8673W        W81021  15.756   8.674   3.699
 8674W        W81022  32.484  39.954  10.578
 8675W        W81023  43.856  25.026   1.707
 8676W        W81024   5.877  28.134   1.920
 8677W        W81025  23.113  42.821   3.670
 8678W        W81026  38.500  29.474   1.360
 8679W        W81027  21.744  12.690   4.606
 8680W        W81028  35.011  24.598  12.414
 8681W        W81029  16.310   6.689   4.754
 8682W        W81030   4.296  11.729  14.960
 8683W        W81031   8.227  25.495   1.253
 8684W        W81032  31.934  11.813  12.355
 8685W        W81033  16.735  32.561   0.739
 8686W        W81034  15.800  30.149   0.368
 8687W        W81035  22.621  41.328  10.516
 8688W        W81036  30.601  33.570  11.376
 8689W        W81037  40.831  40.815  12.951
 8690W        W81038  12.813  20.057   2.270
 8691W        W81039  25.055  18.736  14.778
 8692W        W81040  31.538  22.203   3.335
 8693W        W81041   4.737   7.865  12.375
 8694W        W81042   4.939  28.057  11.011
 8695W        W81043  27.986  11.245   3.237
 8696W        W81044  35.072  40.868   0.795
 8697W        W81045  36.496   5.388   3.263
 8698W        W81046   3.275  23.685   4.154
 8699W        W81047  18.187   1.298   0.417
 8700W        W81048   6.201   8.352   0.463
 8701W        W81049  37.053  24.069   2.258
 8702W        W81050  14.210  12.669   4.771
 8703W        W81051  32.900  14.656  13.864
 8704W        W81052  17.713  29.575   5.189
 8705W        W81053  17.747  41.440  12.365
 8706W        W81054  14.723  37.858   2.211
 8707W        W81055   8.369   7.353  14.312
 8708W        W81056   9.286  28.039  13.510
 8709W        W81057   2.763   6.896  11.028
 8710W        W81058   3.945   4.373   0.807
 8711W        W81059  12.797  36.951  13.332
 8712W        W81060   5.329  27.648  12.427
 8713W        W81061  11.724  36.401   0.934
 8714W        W81062  43.493  37.978  14.477
 8715W        W81063  28.025  34.117  13.528
 8716W        W81064   0.804   1.420  11.597
 8717W        W81065   4.759  16.255   3.762
 8718W        W81066  12.693   6.259   1.384
 8719W        W81067  40.470  30.054  12.519
 8720W        W81068  16.183  39.314   4.759
 8721W        W81069   6.367   4.261  10.921
 8722W        W81070  20.614  40.814   2.280
 8723W        W81071   2.237  34.101  11.537
 8724W        W81072   9.348  24.056  12.845
 8725W        W81073  42.333  42.390  12.021
 8726W        W81074   8.323  23.599  13.487
 8727W        W81075  11.233  35.601  12.394
 8728W        W81076   2.408  27.026   1.275
 8729W        W81077  43.289  33.398  12.854
 8730W        W81078  15.686  13.324  10.030
 8731W        W81079   7.887  26.560  12.848
 8732W        W81080  32.075  11.664   4.661
 8733W        W81081  31.578  23.989  11.856
 8734W        W81082   5.371  25.671  14.778
 8735W        W81083  12.827  41.513  12.983
 8736W        W81084  11.159  43.288  12.988
 8737W        W81085  12.287  34.433   1.444
 8738W        W81086  40.005   0.940   3.650
 8739W        W81087  39.467   4.385   3.288
 8740W        W81088  40.051  11.792   0.792
 8741W        W81089  26.583   0.449  13.023
 8742W        W81090  43.902  19.255  12.477
 8743W        W81091  38.430  38.530  12.890
 8744W        W81092   9.854   1.824   2.373
 8745W        W81093  41.915  17.176   9.940
 8746W        W81094  30.488  42.435   0.833
 8747W        W81095   7.244  10.274   2.799
 8748W        W81096  18.173  28.973   5.570
 8749W        W81097  12.734  10.300  11.424
 8750W        W81098  19.112  12.627   1.869
 8751W        W81099   9.719  38.022   3.304
 8752W        W81100  15.704  33.437   1.365
 8753W        W81101  13.658  28.074   3.217
 8754W        W81102  28.082  26.206   2.709
 8755W        W81103  39.828   3.434  13.430
 8756W        W81104  41.885   9.320   3.207
 8757W        W81105  20.765   4.884   0.402
 8758W        W81106  32.404  41.952  10.546
 8759W        W81107  24.504  28.144   0.734
 8760W        W81108  25.059   3.912  11.035
 8761W        W81109  25.167   5.905   0.837
 8762W        W81110  12.331  33.614  13.323
 8763W        W81111   5.758  30.556  12.042
 8764W        W81112  13.766  18.712   0.784
 8765W        W81113   0.389  44.938  12.932
 8766W        W81114   8.373  36.059   2.729
 8767W        W81115  24.026  24.604  14.903
 8768W        W81116  42.354  24.057   1.373
 8769W        W81117  41.359  26.506  12.835
 8770W        W81118  37.404   5.432   2.690
 8771W        W81119  12.785  43.284  12.480
 8772W        W81120   6.381  20.559   4.345
 8773W        W81121  35.087  28.040  14.498
 8774W        W81122  38.506  17.572   4.763
 8775W        W81123  17.793  15.820   2.797
 8776W        W81124  21.626  21.553  13.918
 8777W        W81125   7.349  32.636  14.417
 8778W        W81126  42.418  27.100  12.387
 8779W        W81127  27.484  44.465   3.828
 8780W        W81128  38.390  10.660  13.000
 8781W        W81129   1.369  33.424   3.334
 8782W        W81130  33.546  10.651  12.865
 8783W        W81131   1.941  18.160  13.868
 8784W        W81132  25.702  42.930  14.501
 8785W        W81133  39.454   2.443   3.187
 8786W        W81134  34.472  43.923   3.767
 8787W        W81135  13.644  41.514  14.812
 8788W        W81136  30.542   6.860  13.868
 8789W        W81137  41.982  26.105   2.267
 8790W        W81138   8.267  17.594  10.415
 8791W        W81139  16.752  30.509  10.911
 8792W        W81140  25.661  33.565  10.584
 8793W        W81141  18.746  10.662  13.381
 8794W        W81142  23.601   6.276   4.710
 8795W        W81143   3.447  12.229  14.002
 8796W        W81144  39.840  20.132  14.921
 8797W        W81145   0.373  10.856  10.528
 8798W        W81146  14.626  27.627  13.451
 8799W        W81147  12.254  33.531   0.457
 8800W        W81148  18.204   6.315   3.176
 8801W        W81149  22.136   5.883   2.317
 8802W        W81150  37.840  22.698  10.593
 8803W        W81151   7.346  29.011  12.994
 8804W        W81152  31.024  22.745   1.912
 8805W        W81153  22.152  27.028   4.320
 8806W        W81154  39.931   4.882   2.206
 8807W        W81155  36.388   6.393   1.446
 8808W        W81156  10.855  11.731   4.829
 8809W        W81157  29.614   8.328  11.447
 8810W        W81158  15.163  29.529  12.443
 8811W        W81159   6.248  31.045   3.764
 8812W        W81160  41.982   3.916  11.103
 8813W        W81161  40.470  39.367  11.983
 8814W        W81162   1.369  39.928  11.002
 8815W        W81163  14.254  42.921   2.413
 8816W        W81164  27.024  43.428  10.507
 8817W        W81165  13.604   0.333  10.511
 8818W        W81166   3.451  32.082  12.480
 8819W        W81167  15.775  33.099  11.573
 8820W        W81168  10.177  19.538  11.871
 8821W        W81169  23.562  23.663  13.932
 8822W        W81170  20.080   2.378   3.152
 8823W        W81171  12.633  14.745   2.415
 8824W        W81172  18.185   5.821   3.381
 8825W        W81173   2.954  36.435   0.943
 8826W        W81174  20.634   5.892  13.814
 8827W        W81175  44.499  38.948  12.928
 8828W        W81176  39.844  20.536  13.867
 8829W        W81177  27.575  16.753  14.514
 8830W        W81178  26.993  22.050  11.612
 8831W        W81179   2.390   2.907  10.470
 8832W        W81180  15.822  18.604   1.243
 8833W        W81181  41.413  32.098   0.461
 8834W        W81182  43.808  44.477  11.539
 8835W        W81183  31.471  35.519  14.850
 8836W        W81184  37.831   8.793   2.872
 8837W        W81185  39.970  26.990   0.794
 8838W        W81186  26.079   6.702  12.434
 8839W        W81187  29.446   6.263   3.261
 8840W        W81188   2.905  36.530   2.858
 8841W        W81189  23.193  13.750  11.588
 8842W        W81190   3.297  35.543  10.559
 8843W        W81191  32.031  17.778   4.735
 8844W        W81192  17.583  13.784   2.712
 8845W        W81193   0.910  44.467   3.298
 8846W        W81194   8.844  40.996   4.305
 8847W        W81195  24.188  12.644   4.223
 8848W        W81196  30.471  38.333   3.367
 8849W        W81197  10.272  38.025  11.879
 8850W        W81198  27.639   4.785   0.319
 8851W        W81199  14.799  18.597   1.322
 8852W        W81200  13.222  18.549   0.872
 8853W        W81201  16.251  18.082   0.468
 8854W        W81202  18.243  44.956   0.896
 8855W        W81203  14.695  14.705   5.300
 8856W        W81204  13.249  32.092  13.452
 8857W        W81205  33.590  26.157   1.239
 8858W        W81206  17.617   8.270   2.735
 8859W        W81207  33.099  23.712  12.912
 8860W        W81208   7.395   3.308  14.371
 8861W        W81209  12.699   1.731  12.452
 8862W        W81210  24.982  30.128  13.841
 8863W        W81211  39.833  30.599   1.795
 8864W        W81212  36.526  36.096   0.310
 8865W        W81213  14.631  38.344  14.340
 8866W        W81214  10.168   7.384   4.247
 8867W        W81215  12.337  32.490   2.774
 8868W        W81216   3.403  22.581   1.312
 8869W        W81217  41.033  20.235   4.204
 8870W        W81218  10.275   8.661   2.246
 8871W        W81219  35.897   3.722  11.594
 8872W        W81220  12.328   2.811   4.706
 8873W        W81221  16.789  25.131  12.962
 8874W        W81222   9.213  44.833  13.335
 8875W        W81223  26.147  42.351   2.274
 8876W        W81224  10.693  11.759   1.399
 8877W        W81225  14.750   4.836   0.859
 8878W        W81226  43.357  14.269  14.838
 8879W        W81227  34.400  34.562  12.492
 8880W        W81228  39.817   6.265  13.537
 8881W        W81229  17.099  18.775   1.271
 8882W        W81230   0.848   9.343   0.927
 8883W        W81231  36.357   7.267   2.816
 8884W        W81232   3.444  21.620  12.867
 8885W        W81233   7.334  42.349   1.392
 8886W        W81234  35.567  32.626   2.368
 8887W        W81235  36.370  42.007  12.396
 8888W        W81236  35.002   6.861  11.981
 8889W        W81237  25.475  18.077  14.313
 8890W        W81238   7.881  42.366   3.724
 8891W        W81239  17.767  36.953  12.096
 8892W        W81240  13.314  39.817   3.191
 8893W        W81241  43.771   6.883  14.802
 8894W        W81242  36.852  26.472  13.526
 8895W        W81243   8.855  38.538   2.230
 8896W        W81244   5.756  10.696  10.592
 8897W        W81245  18.788  43.929  12.944
 8898W        W81246  11.140  21.152   0.859
 8899W        W81247  19.093  28.496   2.307
 8900W        W81248  30.513  23.574   3.286
 8901W        W81249  30.954  41.007  13.530
 8902W        W81250   8.215   4.906  11.098
 8903W        W81251  13.714   6.402  11.106
 8904W        W81252  17.767  12.129   1.906
 8905W        W81253  13.279  26.169   3.249
 8906W        W81254  20.197  27.537   4.833
 8907W        W81255  44.934  36.875  14.817
 8908W        W81256  24.064  14.204   3.269
 8909W        W81257  28.526  11.672  11.431
 8910W        W81258  18.127  33.132   0.323
 8911W        W81259  24.502  35.959  13.839
 8912W        W81260  34.589  22.236   3.733
 8913W        W81261   8.368   0.878   4.147
 8914W        W81262   3.844  33.942  12.978
 8915W        W81263   5.331   2.735  14.784
 8916W        W81264  33.094  22.541  13.892
 8917W        W81265  27.508  25.045  14.787
 8918W        W81266  11.178   1.947   1.328
 8919W        W81267  34.965   6.863   2.354
 8920W        W81268   2.927   3.345  13.332
 8921W        W81269  44.394  22.045   4.315
 8922W        W81270   7.353   2.795  11.013
 8923W        W81271  31.969   9.334  10.572
 8924W        W81272  20.742   3.266   1.399
 8925W        W81273  32.107  21.260   1.754
 8926W        W81274  33.489  10.734   4.215
 8927W        W81275  16.634   9.343   4.226
 8928W        W81276  25.178  19.775  11.560
 8929W        W81277  33.048  13.278   2.810
 8930W        W81278  21.142  20.570  12.894
 8931W        W81279  35.923  21.732   2.376
 8932W        W81280  17.215  36.020  13.415
 8933W        W81281  39.935   9.806  14.442
 8934W        W81282  43.777  20.199  11.890
 8935W        W81283  36.901  39.433   1.270
 8936W        W81284  33.504  36.429   3.157
 8937W        W81285  28.498  21.631   3.255
 8938W        W81286   9.668  30.488   3.741
 8939W        W81287  25.605  26.592  11.558
 8940W        W81288   9.806  14.782   1.249
 8941W        W81289  24.092   4.819  11.371
 8942W        W81290  29.976  18.142  14.320
 8943W        W81291  20.170  22.996   4.253
 8944W        W81292  20.629  19.646   1.862
 8945W        W81293  34.489  40.042   1.336
 8946W        W81294  28.641  24.611  13.871
 8947W        W81295  12.630  37.472   1.779
 8948W        W81296   6.193  23.725   1.321
 8949W        W81297  19.189  32.960   4.206
 8950W        W81298  38.921  16.646  14.973
 8951W        W81299   3.766   7.255  14.462
 8952W        W81300   7.395  22.016   9.970
 8953W        W81301  36.573  43.423  13.462
 8954W        W81302  42.861  34.473  11.048
 8955W        W81303  30.442  38.433  11.551
 8956W        W81304  11.815  32.492  10.030
 8957W        W81305  29.005   8.739   4.323
 8958W        W81306   4.713  28.465   2.760
 8959W        W81307  42.812  41.292  13.817
 8960W        W81308  22.999  27.122   1.732
 8961W        W81309  21.106  13.674   1.743
 8962W        W81310  27.171  38.028   4.299
 8963W        W81311   4.904   9.226   1.356
 8964W        W81312  36.376  23.515  14.401
 8965W        W81313  41.385  27.570  11.581
 8966W        W81314  19.281   2.824   1.824
 8967W        W81315  21.028  20.153  12.018
 8968W        W81316  14.203   4.311   4.116
 8969W        W81317  38.330  44.837   4.712
 8970W        W81318  21.650  30.994   4.838
 8971W        W81319   0.924  28.175  13.310
 8972W        W81320  37.056  44.999   3.146
 8973W        W81321  40.029  26.049   0.794
 8974W        W81322  15.105  28.666  12.087
 8975W        W81323  35.922  23.168   3.351
 8976W        W81324  15.323  38.058  12.472
 8977W        W81325  21.182  11.863   5.207
 8978W        W81326   5.377  44.998  14.937
 8979W        W81327   6.891  32.094   5.265
 8980W        W81328  25.134  21.225  12.469
 8981W        W81329  35.389   6.307   1.293
 8982W        W81330  16.805  21.257   1.860
 8983W        W81331  39.996  29.957   1.252
 8984W        W81332  34.958  43.426   1.749
 8985W        W81333  42.919  22.026  11.893
 8986W        W81334  10.139  12.284  14.316
 8987W        W81335  27.194  26.524  10.068
 8988W        W81336  34.551   5.747   4.838
 8989W        W81337  17.586  12.646   0.885
 8990W        W81338  18.590   7.899  13.397
 8991W        W81339  15.258  29.143   4.319
 8992W        W81340  41.882  26.557  10.987
 8993W        W81341   8.847   6.277  13.845
 8994W        W81342  12.631   2.723  14.471
 8995W        W81343  34.520  23.616  10.955
 8996W        W81344   0.935  38.342  13.796
 8997W        W81345  12.140  40.338   2.800
 8998W        W81346  38.928  22.619  13.320
 8999W        W81347  37.568  21.138  10.966
 9000W        W81348   0.942   4.709  12.875
 9001W        W81349  17.065  18.186   1.881
 9002W        W81350  17.292  26.498  10.580
 9003W        W81351   7.402  10.649  10.942
 9004W        W81352  11.628  13.256  10.645
 9005W        W81353  40.811  29.440   3.246
 9006W        W81354   6.259  23.515  14.380
 9007W        W81355   1.425  19.755  13.429
 9008W        W81356  32.546  22.127  14.962
 9009W        W81357  23.645  37.337  10.603
 9010W        W81358   2.729   7.752  11.588
 9011W        W81359  16.097  13.829   0.287
 9012W        W81360  24.114  41.041  12.437
 9013W        W81361  36.995  34.481   2.206
 9014W        W81362  26.700  40.005   4.148
 9015W        W81363  19.779  27.088   3.175
 9016W        W81364  10.772   4.385  10.925
 9017W        W81365  36.025   6.921   4.330
 9018W        W81366  22.552  41.295   9.938
 9019W        W81367  11.161  15.735  13.402
 9020W        W81368  39.990  21.238   3.238
 9021W        W81369   4.710  11.219   3.767
 9022W        W81370   2.433  24.995  12.943
 9023W        W81371  29.071  12.116  14.993
 9024W        W81372  28.676  17.585  10.895
 9025W        W81373  11.198  37.440  14.313
 9026W        W81374  37.969  22.166   1.409
 9027W        W81375  16.762  12.849  10.462
 9028W        W81376  21.546  40.378  10.973
 9029W        W81377   8.323  18.553  14.385
 9030W        W81378  42.448  29.536   0.769
 9031W        W81379  42.478  29.110  13.951
 9032W        W81380  15.636  15.213  13.934
 9033W        W81381   3.331  16.151   2.359
 9034W        W81382  44.941  40.481  11.439
 9035W        W81383  22.699   2.897   0.877
 9036W        W81384   5.332   9.252  14.949
 9037W        W81385  17.234  22.541  10.617
 9038W        W81386  28.942  23.518  10.613
 9039W        W81387  16.742  10.801  13.974
 9040W        W81388  28.087  16.282  14.458
 9041W        W81389   7.370   7.232   1.845
 9042W        W81390  13.659  30.098  11.396
 9043W        W81391  14.169  42.337   2.835
 9044W        W81392   4.758  22.501   2.398
 9045W        W81393  32.429  14.782   0.930
 9046W        W81394  25.115  27.588  11.121
 9047W        W81395  34.519  23.631   3.788
 9048W        W81396  39.393  34.509   0.753
 9049W        W81397  33.567   1.443   4.746
 9050W        W81398  43.020  21.198   2.287
 9051W        W81399  20.717  13.246   3.692
 9052W        W81400  20.048  37.469  12.347
 9053W        W81401   3.934   6.392   4.241
 9054W        W81402  37.509   2.843   1.770
 9055W        W81403   3.229  34.589   3.747
 9056W        W81404  26.653  17.688  11.036
 9057W        W81405  15.205  43.790  12.826
 9058W        W81406  31.561  16.243   0.878
 9059W        W81407  31.432  19.107   4.670
 9060W        W81408  40.534  38.504   1.833
 9061W        W81409  16.291   2.723  14.942
 9062W        W81410  23.096  31.642   3.804
 9063W        W81411   0.305  25.533   3.154
 9064W        W81412  34.943  19.746  11.463
 9065W        W81413  12.147  17.085   4.203
 9066W        W81414  13.802  19.656   1.322
 9067W        W81415  21.723  15.111   1.711
 9068W        W81416   2.887  27.608   4.694
 9069W        W81417  44.315  12.297  14.992
 9070W        W81418  12.727   3.219  12.566
 9071W        W81419  12.268  11.820   1.292
 9072W        W81420  13.770  13.195   0.818
 9073W        W81421  20.188   7.363   3.238
 9074W        W81422  41.973  16.223  11.877
 9075W        W81423   4.874  44.319  14.816
 9076W        W81424  26.702  13.270  14.508
 9077W        W81425  35.973   7.336   2.724
 9078W        W81426  35.497  40.807  13.855
 9079W        W81427  27.078  29.567  10.991
 9080W        W81428  25.561  39.031   2.332
 9081W        W81429  28.153  18.620  11.383
 9082W        W81430   2.808  18.630  11.529
 9083W        W81431  32.029  36.959   2.217
 9084W        W81432  35.075  41.842  10.597
 9085W        W81433   6.803  43.298   0.841
 9086W        W81434  33.555  36.451  11.488
 9087W        W81435  30.421  15.103   3.212
 9088W        W81436  35.450  19.097   2.315
 9089W        W81437  44.359  19.610   2.699
 9090W        W81438  20.132  13.274  12.879
 9091W        W81439   4.895  34.373   3.341
 9092W        W81440  13.142  44.834  13.904
 9093W        W81441  23.703  43.779   2.687
 9094W        W81442  13.627  44.823   1.704
 9095W        W81443  31.612  21.043  11.010
 9096W        W81444   7.381  24.003   4.747
 9097W        W81445  12.149  16.787   1.834
 9098W        W81446   2.727   4.796  10.902
 9099W        W81447  35.056  41.521   9.927
 9100W        W81448  17.575  36.050  10.407
 9101W        W81449  28.538  28.535  12.873
 9102W        W81450  29.563   5.337   3.725
 9103W        W81451  15.276  17.632   0.365
 9104W        W81452  31.493  14.796   2.369
 9105W        W81453  33.048   3.824  12.922
 9106W        W81454  40.407   6.755   0.783
 9107W        W81455  38.951  44.794   2.353
 9108W        W81456  34.591  18.234   3.253
 9109W        W81457   9.707  44.816   0.266
 9110W        W81458  30.659   0.978  14.771
 9111W        W81459  35.541  44.950   1.918
 9112W        W81460  17.588   8.794   4.333
 9113W        W81461  38.424   4.260  10.058
 9114W        W81462   1.426  32.001  14.407
 9115W        W81463  31.954  33.410  12.569
 9116W        W81464  22.142  21.107   3.760
 9117W        W81465  26.043  44.321   0.883
 9118W        W81466  30.047  30.425  12.570
 9119W        W81467  27.012  38.325  10.430
 9120W        W81468  37.880  26.475  10.535
 9121W        W81469  10.716   8.705  12.829
 9122W        W81470  23.706   0.981  13.883
 9123W        W81471  16.169  15.144  13.884
 9124W        W81472  16.579  38.929   1.747
 9125W        W81473  25.631  26.574   4.134
 9126W        W81474  23.507  37.516   0.782
 9127W        W81475  22.086  44.418  13.815
 9128W        W81476   1.758  41.003   0.865
 9129W        W81477   5.379  18.266  12.449
 9130W        W81478  22.111  40.547   0.294
 9131W        W81479  12.735  43.377  12.975
 9132W        W81480  10.824  20.203   5.158
 9133W        W81481   2.451   1.436  10.607
 9134W        W81482  34.508  10.154  12.910
 9135W        W81483  18.761  26.666  14.310
 9136W        W81484  34.605  43.296  12.838
 9137W        W81485  41.487  17.272   0.368
 9138W        W81486  15.668   3.230  12.436
 9139W        W81487  13.775  38.865   2.711
 9140W        W81488  32.127  44.770  12.024
 9141W        W81489  17.226  12.257  13.491
 9142W        W81490  21.091   4.888   2.884
 9143W        W81491   3.719   1.457   1.730
 9144W        W81492  18.124  26.613  12.421
 9145W        W81493  15.311  20.717  13.009
 9146W        W81494  41.501   2.249   5.252
 9147W        W81495  29.009  12.145   0.855
 9148W        W81496  29.546  23.040  12.409
 9149W        W81497   0.293  16.804   3.756
 9150W        W81498  26.079  19.151   2.222
 9151W        W81499   0.858   0.935   4.242
 9152W        W81500   7.749   6.803   4.244
 9153W        W81501  12.645   6.235   3.148
 9154W        W81502  42.891  21.535   0.391
 9155W        W81503  22.099   3.311  11.084
 9156W        W81504  44.979  13.673  12.497
 9157W        W81505  26.181  42.984  13.853
 9158W        W81506   8.276  16.267   0.901
 9159W        W81507  10.691  39.424  14.969
 9160W        W81508  40.858   0.387  10.967
 9161W        W81509   2.912  12.351   3.376
 9162W        W81510  43.856  27.984   1.398
 9163W        W81511  32.908  20.667  12.089
 9164W        W81512   2.864   1.447  12.897
 9165W        W81513  11.221  40.458  10.632
 9166W        W81514  17.216  35.397   1.430
 9167W        W81515  31.030  22.611   9.961
 9168W        W81516   5.831   5.838  12.491
 9169W        W81517  33.490   7.174  12.369
 9170W        W81518  18.552  44.323   4.741
 9171W        W81519  40.535  10.801  13.518
 9172W        W81520   9.205  26.084  11.999
 9173W        W81521  24.575  20.085   1.867
 9174W        W81522   7.343  37.833   2.315
 9175W        W81523  29.146  12.346   4.765
 9176W        W81524  18.230  44.465   2.856
 9177W        W81525  36.406  29.485  14.845
 9178W        W81526  32.492   7.749  10.524
 9179W        W81527   0.466  39.918   3.800
 9180W        W81528   4.403  20.621  14.004
 9181W        W81529  25.149   8.213   3.728
 9182W        W81530  36.417   2.874   2.413
 9183W        W81531   4.757   2.734   1.728
 9184W        W81532  22.670  20.739   3.226
 9185W        W81533  29.668  18.093   3.322
 9186W        W81534  30.158  24.030   1.931
 9187W        W81535  31.633  25.073  14.880
 9188W        W81536  21.207  40.941   3.854
 9189W        W81537  21.183  40.353  14.984
 9190W        W81538   8.796  21.208  12.852
 9191W        W81539  29.933  26.012  12.909
 9192W        W81540  39.979  24.688  14.486
 9193W        W81541  18.287  18.730   3.864
 9194W        W81542  38.996  15.738  11.403
 9195W        W81543  11.272  40.802   4.792
 9196W        W81544   5.401   3.924  10.489
 9197W        W81545  32.540  16.079  11.070
 9198W        W81546   2.439  27.183  14.276
 9199W        W81547   8.182  13.339   3.848
 9200W        W81548   2.400  26.052   0.384
 9201W        W81549  42.814  41.930   2.725
 9202W        W81550   7.797  44.994   1.284
 9203W        W81551  21.212  24.495   2.804
 9204W        W81552   3.891   3.366  13.333
 9205W        W81553  38.867  34.925   3.230
 9206W        W81554  21.221  15.328   0.465
 9207W        W81555  38.058  38.350   0.333
 9208W        W81556  39.443  26.129   3.787
 9209W        W81557  22.629  39.937   4.328
 9210W        W81558  34.385   0.752   3.808
 9211W        W81559  25.969  36.919   1.445
 9212W        W81560  41.802  33.124   1.742
 9213W        W81561  17.627  19.762  12.550
 9214W        W81562  19.097  15.742  13.416
 9215W        W81563   0.814   6.196  10.513
 9216W        W81564   0.763  21.060   9.923
 9217W        W81565  35.992  21.681  12.535
 9218W        W81566  13.312  30.605  11.960
 9219W        W81567  10.665  15.201  14.782
 9220W        W81568  32.016  35.454  12.022
 9221W        W81569   2.361  41.918   0.882
 9222W        W81570  22.036  39.023   0.256
 9223W        W81571   6.219  23.704   4.193
 9224W        W81572   6.787  38.565  14.887
 9225W        W81573  20.260  21.257  13.002
 9226W        W81574  38.354   0.769   3.870
 9227W        W81575   2.435  20.242  14.296
 9228W        W81576  37.940  14.602  11.449
 9229W        W81577   7.197  43.331  10.494
 9230W        W81578   1.860  33.533  13.484
 9231W        W81579   9.329  32.092  12.384
 9232W        W81580  12.850  38.466  13.006
 9233W        W81581  27.015  39.008   2.293
 9234W        W81582   1.292  13.338  13.307
 9235W        W81583  12.292  36.461   2.825
 9236W        W81584  28.621  38.926   4.176
 9237W        W81585  23.666  21.697  12.057
 9238W        W81586  16.146  39.501  13.541
 9239W        W81587  10.319  43.449   1.805
 9240W        W81588   2.349  41.907  14.874
 9241W        W81589   3.330  10.744  13.457
 9242W        W81590  34.486  34.098  11.589
 9243W        W81591  33.029  34.020  12.839
 9244W        W81592  25.545   4.939  11.480
 9245W        W81593  21.569  28.992  13.914
 9246W        W81594  24.606  12.725   2.704
 9247W        W81595  15.086  22.746   0.841
 9248W        W81596   2.316  36.467  10.968
 9249W        W81597  14.171  29.130   0.962
 9250W        W81598  26.039  35.027   4.256
 9251W        W81599  13.333  44.007   4.227
 9252W        W81600  13.639  27.013   1.294
 9253W        W81601   4.301  19.277   0.361
 9254W        W81602  25.498  42.381   1.402
 9255W        W81603   8.865  28.556   0.287
 9256W        W81604  43.404   4.443   3.224
 9257W        W81605  11.206  39.955   0.729
 9258W        W81606  40.875  25.083  11.433
 9259W        W81607  43.376  15.306   1.824
 9260W        W81608   1.323  15.806  13.809
 9261W        W81609  29.976  26.081  13.468
 9262W        W81610  17.648  25.655  11.966
 9263W        W81611  19.245  16.621  10.896
 9264W        W81612  26.131  11.267  13.050
 9265W        W81613  15.776  14.166   5.122
 9266W        W81614  12.253  29.643   1.826
 9267W        W81615   8.684   7.864   1.234
 9268W        W81616   2.466  10.876   4.315
 9269W        W81617  12.730  10.311  12.079
 9270W        W81618  21.206  42.997   1.269
 9271W        W81619  12.689  14.772   1.231
 9272W        W81620   9.859  14.765   3.733
 9273W        W81621  37.520  28.460  10.602
 9274W        W81622  16.191  24.058   2.242
 9275W        W81623  38.923  39.013   0.393
 9276W        W81624   4.922  36.044  11.914
 9277W        W81625  31.527   8.344   0.364
 9278W        W81626   8.815   0.780   4.343
 9279W        W81627  32.601  23.536  10.498
 9280W        W81628  39.504  42.952   2.369
 9281W        W81629  15.752   1.816   4.192
 9282W        W81630  21.666   8.843  14.760
 9283W        W81631   5.408  44.985  13.380
 9284W        W81632  30.515  25.120  14.842
 9285W        W81633   7.346  27.589  11.857
 9286W        W81634   5.418   3.859   0.247
 9287W        W81635  24.016  44.358   4.269
 9288W        W81636   2.308  28.164   3.272
 9289W        W81637  26.610   8.831   2.337
 9290W        W81638  39.360  43.437   1.880
 9291W        W81639  41.909  18.205   2.189
 9292W        W81640  38.438  34.585   4.218
 9293W        W81641   0.760  29.985  11.972
 9294W        W81642   6.245   5.900  12.083
 9295W        W81643  44.858  31.914   4.633
 9296W        W81644   4.301   5.344   1.340
 9297W        W81645  44.369   0.249   0.478
 9298W        W81646   5.198  20.244  11.005
 9299W        W81647  23.233  15.149  10.456
 9300W        W81648  42.903  27.179   3.714
 9301W        W81649   0.848  24.597  10.561
 9302W        W81650  31.099  44.920   1.854
 9303W        W81651  38.403  33.930   1.277
 9304W        W81652  20.672  25.013   1.790
 9305W        W81653  41.396  11.639   0.739
 9306W        W81654  36.978  41.982   0.748
 9307W        W81655   6.298   8.736  12.932
 9308W        W81656   4.254   8.164   0.292
 9309W        W81657  16.311   8.862   4.324
 9310W        W81658  18.558  38.983  10.563
 9311W        W81659  12.651  30.629  13.958
 9312W        W81660  10.204  29.148   1.330
 9313W        W81661  38.842   7.890  10.037
 9314W        W81662  35.363  36.007   2.322
 9315W        W81663  39.401  19.675  13.391
 9316W        W81664  32.912  17.216  13.341
 9317W        W81665  31.643  37.067   0.338
 9318W        W81666  30.483  18.770   4.658
 9319W        W81667  31.612  37.400  12.920
 9320W        W81668  22.147   5.854  14.326
 9321W        W81669  36.870   9.257   2.810
 9322W        W81670  35.490  35.568  13.327
 9323W        W81671  10.844  14.228   1.696
 9324W        W81672   9.258  28.933   0.762
 9325W        W81673  42.873  29.503   3.286
 9326W        W81674  21.555  32.124   3.808
 9327W        W81675  14.163  32.903   3.350
 9328W        W81676  27.640  24.991   4.784
 9329W        W81677  34.588  39.043  12.516
 9330W        W81678  28.024  11.862   2.305
 9331W        W81679  17.736  30.614   0.747
 9332W        W81680   6.750  40.482   4.701
 9333W        W81681  15.736   5.355  14.834
 9334W        W81682   8.851  28.143   0.748
 9335W        W81683   1.257  34.568  12.397
 9336W        W81684   3.823  35.550  12.457
 9337W        W81685  16.756  31.948   3.804
 9338W        W81686  21.683   7.850   3.705
 9339W        W81687  20.750  13.281   2.214
 9340W        W81688  31.542  11.741   0.775
 9341W        W81689  41.394  18.618  14.387
 9342W        W81690  27.945  18.628  12.841
 9343W        W81691  25.018  40.527   3.672
 9344W        W81692  27.636  31.071   0.850
 9345W        W81693  20.525  25.027  14.471
 9346W        W81694  36.035  24.162  11.021
 9347W        W81695   5.394   3.347   3.222
 9348W        W81696  16.801   6.412   0.904
 9349W        W81697  44.437  21.552  11.873
 9350W        W81698  31.424  38.355   3.699
 9351W        W81699   9.334  42.969   1.332
 9352W        W81700  13.625  44.452  12.943
 9353W        W81701  24.570   3.823  10.485
 9354W        W81702   0.893  17.218   0.746
 9355W        W81703   4.853  24.043   3.201
 9356W        W81704  32.564  22.710   4.221
 9357W        W81705  10.237   6.750  11.015
 9358W        W81706  14.789   1.916  13.902
 9359W        W81707  44.942  13.184   1.933
 9360W        W81708   7.189  28.098  14.483
 9361W        W81709  24.592  21.237  12.992
 9362W        W81710   7.249  19.282   0.903
 9363W        W81711  33.619   8.252   1.338
 9364W        W81712  41.836   3.413   0.475
 9365W        W81713  34.979  40.857   3.862
 9366W        W81714  17.659  10.199   0.473
 9367W        W81715  15.759  23.629   4.817
 9368W        W81716  40.421  35.006  11.088
 9369W        W81717   7.793  13.110   5.171
 9370W        W81718  16.798  36.922  14.804
 9371W        W81719   9.851   7.815  11.478
 9372W        W81720  31.496   5.749  13.836
 9373W        W81721   7.318  36.862  10.483
 9374W        W81722  21.673  34.603  14.466
 9375W        W81723  42.822  17.703  11.438
 9376W        W81724   1.951  13.339   3.212
 9377W        W81725  19.626  38.414  12.415
 9378W        W81726  36.903  27.501   1.886
 9379W        W81727  37.010  10.258   1.287
 9380W        W81728  37.521   9.700   1.259
 9381W        W81729  13.119   1.741   0.413
 9382W        W81730  12.320  15.634   3.172
 9383W        W81731  19.146  27.576   4.832
 9384W        W81732  43.765   1.291   1.238
 9385W        W81733  11.308  11.711   0.265
 9386W        W81734  17.708  27.477   4.611
 9387W        W81735  43.382  11.129   3.208
 9388W        W81736  17.649  34.015  14.874
 9389W        W81737  18.691  34.053   3.269
 9390W        W81738  23.636   4.224   4.600
 9391W        W81739   7.336  44.984   1.358
 9392W        W81740  18.722  37.852  12.473
 9393W        W81741  41.375  10.251  12.879
 9394W        W81742  43.937   0.850  13.883
 9395W        W81743  25.704  23.011  14.974
 9396W        W81744  42.936  17.778   2.899
 9397W        W81745  24.505   3.910   2.351
 9398W        W81746  33.432  19.657   2.257
 9399W        W81747   6.251  19.684   2.314
 9400W        W81748  25.582  36.349   4.158
 9401W        W81749  41.523  26.053   3.152
 9402W        W81750  24.107   0.969  11.898
 9403W        W81751  12.815  21.076   1.902
 9404W        W81752  15.586  43.426   2.733
 9405W        W81753  23.626  31.443  13.929
 9406W        W81754  14.231  35.071   0.304
 9407W        W81755  37.921  16.218   2.788
 9408W        W81756   1.792  29.669  10.573
 9409W        W81757  40.538  24.160  12.836
 9410W        W81758   3.355  24.981  11.513
 9411W        W81759  11.300  32.141   3.655
 9412W        W81760  44.417  15.712   0.245
 9413W        W81761  37.361  43.348  12.371
 9414W        W81762  18.730  27.625   1.882
 9415W        W81763   7.246   3.289   2.767
 9416W        W81764  43.326  14.286  10.514
 9417W        W81765  15.703   2.736   3.848
 9418W        W81766  35.927  35.383  11.929
 9419W        W81767  18.068   5.901  14.304
 9420W        W81768  44.946  28.024   3.644
 9421W        W81769  16.639  17.292   4.816
 9422W        W81770  31.953   7.281  12.451
 9423W        W81771  28.077   4.323   0.916
 9424W        W81772  15.762   6.265   4.701
 9425W        W81773  32.931  24.689  13.045
 9426W        W81774   9.212  12.133   0.933
 9427W        W81775  19.055  19.664  10.951
 9428W        W81776  30.596  25.526   4.201
 9429W        W81777  24.191  25.688  13.504
 9430W        W81778  30.568  10.271   3.179
 9431W        W81779  30.030   2.896   0.252
 9432W        W81780   6.763  30.920  11.960
 9433W        W81781   3.342  33.563  11.428
 9434W        W81782  30.085   4.703   1.337
 9435W        W81783  10.216   0.936   4.762
 9436W        W81784  22.597  39.439   4.227
 9437W        W81785  41.921  24.017  13.476
 9438W        W81786  17.258  22.564  14.927
 9439W        W81787  32.534  38.903   2.885
 9440W        W81788   0.973  30.539   4.338
 9441W        W81789  31.030  33.065   3.749
 9442W        W81790   3.224  12.174   1.341
 9443W        W81791  12.279  13.297  14.998
 9444W        W81792  42.338   6.816  14.507
 9445W        W81793  35.932  14.622   3.777
 9446W        W81794  35.967  11.148  12.832
 9447W        W81795  27.185   4.445   2.833
 9448W        W81796  38.901  19.740   0.918
 9449W        W81797   2.409   3.822   4.619
 9450W        W81798   2.419  42.481  11.035
 9451W        W81799  42.900  34.867  13.316
 9452W        W81800  29.669   0.291  10.450
 9453W        W81801  35.402  40.905   0.260
 9454W        W81802   3.359  16.699  12.027
 9455W        W81803  20.166   1.797  13.872
 9456W        W81804  31.623  13.603   2.817
 9457W        W81805  16.317   5.916   3.860
 9458W        W81806  42.900  36.985   4.150
 9459W        W81807  13.788  39.829   3.640
 9460W        W81808  12.796  28.015  13.035
 9461W        W81809  34.115  41.024   1.260
 9462W        W81810  12.809  23.212   2.774
 9463W        W81811  21.137  23.108   4.800
 9464W        W81812  32.623  16.103   2.300
 9465W        W81813  31.153  35.521   9.976
 9466W        W81814  42.322   9.327  13.035
 9467W        W81815  35.432   4.804  14.453
 9468W        W81816  10.840   5.219  13.059
 9469W        W81817  27.132  21.736   1.823
 9470W        W81818  22.613  10.707  11.425
 9471W        W81819  16.670  11.367   3.286
 9472W        W81820  27.628  28.500   4.334
 9473W        W81821  33.624  13.699   2.236
 9474W        W81822  41.418   6.294   3.318
 9475W        W81823   9.197  36.968   2.363
 9476W        W81824  42.385  12.309  11.433
 9477W        W81825   5.777  18.627  11.118
 9478W        W81826   9.296  19.247  12.073
 9479W        W81827   9.709  29.586   1.835
 9480W        W81828   3.405  34.414   0.460
 9481W        W81829  39.044  40.820   4.776
 9482W        W81830  12.313   7.793   1.836
 9483W        W81831  43.941  10.804  14.028
 9484W        W81832  19.661   0.912   3.829
 9485W        W81833   0.762  32.424  10.487
 9486W        W81834  12.182  26.531  10.907
 9487W        W81835  29.498  12.124  12.007
 9488W        W81836  43.997  17.196  10.538
 9489W        W81837  23.632   2.420   3.664
 9490W        W81838  23.044  41.848  12.884
 9491W        W81839   4.786  33.415   0.967
 9492W        W81840  29.032  13.112   3.823
 9493W        W81841  24.033  32.906  14.928
 9494W        W81842  16.604  36.499  12.989
 9495W        W81843  24.194  19.758   4.179
 9496W        W81844  12.818  26.692  11.603
 9497W        W81845   7.746  33.485  14.936
 9498W        W81846  44.367  20.674   1.875
 9499W        W81847   3.894  41.952  14.992
 9500W        W81848   6.828  36.388   1.229
 9501W        W81849   2.850  27.967   2.815
 9502W        W81850  36.571  27.658  13.815
 9503W        W81851   8.286  19.730  13.967
 9504W        W81852   8.824  22.227  10.483
 9505W        W81853  35.870   2.792  13.541
 9506W        W81854   9.210  21.525   9.981
 9507W        W81855  42.466  35.489  13.447
 9508W        W81856   8.704   4.943  10.558
 9509W        W81857  21.076  43.508   3.164
 9510W        W81858  10.293  10.713  13.509
 9511W        W81859  15.712  42.527  12.875
 9512W        W81860  20.663  11.369  13.470
 9513W        W81861  36.893  44.482  14.974
 9514W        W81862   4.295  22.625  12.397
 9515W        W81863  19.637  23.038   0.296
 9516W        W81864   3.368  33.884   3.661
 9517W        W81865   1.319  32.942   3.662
 9518W        W81866   7.908  10.665  13.046
 9519W        W81867   7.415  30.073   2.745
 9520W        W81868  37.019  10.742  11.450
 9521W        W81869  34.908  18.283   2.185
 9522W        W81870  32.496  39.403   2.354
 9523W        W81871  27.957   8.332   0.931
 9524W        W81872  21.665  40.476   4.223
 9525W        W81873  24.492  29.962   1.928
 9526W        W81874  19.151   7.739  11.927
 9527W        W81875  24.665  29.168  12.468
 9528W        W81876  14.789  26.043  12.018
 9529W        W81877  24.151  14.136  10.563
 9530W        W81878  15.785   9.320   2.798
 9531W        W81879  19.068  17.173  11.520
 9532W        W81880  10.634  27.448   1.854
 9533W        W81881  20.086  40.430  12.954
 9534W        W81882   6.364  12.217  14.861
 9535W        W81883  14.236  43.977   1.216
 9536W        W81884   1.871  28.655  14.839
 9537W        W81885   2.821  41.886   0.477
 9538W        W81886  28.998  41.912   1.252
 9539W        W81887  19.690  38.459   0.855
 9540W        W81888  22.698  21.538  11.958
 9541W        W81889  44.991  24.539  11.587
 9542W        W81890  41.975   1.274  11.003
 9543W        W81891  10.348   9.267   2.412
 9544W        W81892  13.762   6.414   4.271
 9545W        W81893  13.826  14.646   3.655
 9546W        W81894  25.986  35.376   0.891
 9547W        W81895   6.271  38.428  14.866
 9548W        W81896   7.329  31.999   3.736
 9549W        W81897   0.976  33.384   1.404
 9550W        W81898  29.977  36.552  12.517
 9551W        W81899  15.794   1.745  14.450
 9552W        W81900  24.983   3.945   2.750
 9553W        W81901  18.097  31.640   2.327
 9554W        W81902  36.851  18.728   4.290
 9555W        W81903  26.108  40.335   1.298
 9556W        W81904  19.613  23.499   3.637
 9557W        W81905  32.918  19.745  11.593
 9558W        W81906   3.220  32.955   4.355
 9559W        W81907  25.699  10.644  13.398
 9560W        W81908  15.611  39.863  12.419
 9561W        W81909  30.951  18.751  14.278
 9562W        W81910  25.079  30.435   0.302
 9563W        W81911  21.139  12.642  14.421
 9564W        W81912  17.753  24.515   1.698
 9565W        W81913  37.855  12.338   4.119
 9566W        W81914   8.375  29.164   1.277
 9567W        W81915  42.784   7.407  12.860
 9568W        W81916  27.197   2.256   0.886
 9569W        W81917  22.734  21.646  12.340
 9570W        W81918  26.636  23.677  14.368
 9571W        W81919  30.068  10.750  11.002
 9572W        W81920  23.094  32.920   0.398
 9573W        W81921  41.360  21.568  14.761
 9574W        W81922  18.783   3.927  10.943
 9575W        W81923   4.221  11.807  13.798
 9576W        W81924   2.409  24.572  14.472
 9577W        W81925  39.395   9.751  14.510
 9578W        W81926  43.481  41.481  14.957
 9579W        W81927   7.769  38.338  11.611
 9580W        W81928  43.914  17.072   0.897
 9581W        W81929  38.966  18.624  14.980
 9582W        W81930  19.067   2.898  13.045
 9583W        W81931  35.521  37.490   2.274
 9584W        W81932  23.068  37.406   4.641
 9585W        W81933  28.040  28.011  10.157
 9586W        W81934  43.946  19.745  13.445
 9587W        W81935  12.265  22.007  12.076
 9588W        W81936  42.507  17.688   0.284
 9589W        W81937  15.256  22.153  12.070
 9590W        W81938  42.357  29.521   4.336
 9591W        W81939  13.227   1.280   4.157
 9592W        W81940  38.988  10.642   4.749
 9593W        W81941  40.873   6.815   4.212
 9594W        W81942  41.002  12.256  12.912
 9595W        W81943  36.033  37.355  12.537
 9596W        W81944  42.823  31.098   5.122
 9597W        W81945  35.503  29.934  11.959
 9598W        W81946  34.431   0.250  13.523
 9599W        W81947  13.185  28.551  14.289
 9600W        W81948  13.323  14.274  14.434
 9601W        W81949  12.197  23.541   1.378
 9602W        W81950  23.201  12.251   3.359
 9603W        W81951  40.358  22.616  11.031
 9604W        W81952   9.376   1.363  13.976
 9605W        W81953  24.227   2.812   3.370
 9606W        W81954  24.493  43.329  11.978
 9607W        W81955  21.087   2.425  10.518
 9608W        W81956   6.849  23.582   1.353
 9609W        W81957  39.925  30.116   2.809
 9610W        W81958  34.069  19.066   4.177
 9611W        W81959  13.229  42.504  13.492
 9612W        W81960  16.736  16.738  11.091
 9613W        W81961  19.671  39.354  10.535
 9614W        W81962  28.525  11.717  11.100
 9615W        W81963  26.496  16.673  13.520
 9616W        W81964   8.251   4.708  13.427
 9617W        W81965  28.663  29.976   4.817
 9618W        W81966  39.887  20.150  12.969
 9619W        W81967  31.074   1.908   2.793
 9620W        W81968  12.710   6.872  13.937
 9621W        W81969  43.925  14.792  13.837
 9622W        W81970  37.421  36.921  12.499
 9623W        W81971   9.328  17.710   1.331
 9624W        W81972  19.608   0.934  14.781
 9625W        W81973  39.925  44.006  13.890
 9626W        W81974  10.231  36.884   1.695
 9627W        W81975  17.707  28.176   1.279
 9628W        W81976  27.473  35.489   4.673
 9629W        W81977   5.409  37.950   1.330
 9630W        W81978  22.157  18.584   2.331
 9631W        W81979   1.849  34.094   0.895
 9632W        W81980  44.388  26.668  12.987
 9633W        W81981   1.887  36.541   1.701
 9634W        W81982   8.178  23.152   2.263
 9635W        W81983   9.777  20.614   1.407
 9636W        W81984   0.325  39.530   1.778
 9637W        W81985  24.670  14.641   0.259
 9638W        W81986  11.763  14.291  11.867
 9639W        W81987  28.941  18.652   1.316
 9640W        W81988  36.937   8.343  13.865
 9641W        W81989   3.842  26.095  13.418
 9642W        W81990  21.574  34.528  10.637
 9643W        W81991  27.185  22.056   0.966
 9644W        W81992  35.459   6.804  12.576
 9645W        W81993   5.324  16.797  14.468
 9646W        W81994  42.342  20.138   2.854
 9647W        W81995  33.023   0.364   0.776
 9648W        W81996  25.194   3.344  13.515
 9649W        W81997  44.389  11.638  13.441
 9650W        W81998  36.955  12.219  13.856
 9651W        W81999  16.114  35.854   4.826
 9652W        W82000  17.078  35.486  13.916
 9653W        W82001  34.963  42.895   4.198
 9654W        W82002   3.785  24.677  13.325
 9655W        W82003  34.591   0.271   2.855
 9656W        W82004   2.889  41.950  14.357
 9657W        W82005  25.185  37.059  13.000
 9658W        W82006   0.802   6.407  12.015
 9659W        W82007  25.135   5.253   0.800
 9660W        W82008  24.632  23.080   4.117
 9661W        W82009  29.087  38.543  14.950
 9662W        W82010  19.174  34.020  11.080
 9663W        W82011  26.671  21.653   2.786
 9664W        W82012  10.778  25.987   4.792
 9665W        W82013  22.642  31.616  14.383
 9666W        W82014  26.552  43.342   4.714
 9667W        W82015   7.717  37.571  13.344
 9668W        W82016  38.414  40.357   2.887
 9669W        W82017  16.800   4.800   1.832
 9670W        W82018  31.475  44.990   1.733
 9671W        W82019  16.620  16.638   1.364
 9672W        W82020  31.570  36.056  12.915
 9673W        W82021  30.031  35.926   1.211
 9674W        W82022  10.356  32.028   3.373
 9675W        W82023   1.750   8.257  12.055
 9676W        W82024   4.943  14.831   3.706
 9677W        W82025   9.291  15.147  14.411
 9678W        W82026  29.926  35.907  11.500
 9679W        W82027  17.767  27.117  11.904
 9680W        W82028  36.061   9.673   4.253
 9681W        W82029   9.732  27.649   4.643
 9682W        W82030  40.809  41.510   3.777
 9683W        W82031  21.621  28.174   1.386
 9684W        W82032   5.899  11.821   1.935
 9685W        W82033  28.600  38.965  14.359
 9686W        W82034  18.579  30.656  13.533
 9687W        W82035   9.783   7.682  12.439
 9688W        W82036   5.884   2.944  13.389
 9689W        W82037  30.004  37.890  12.929
 9690W        W82038  25.028  14.161   2.740
 9691W        W82039   7.264  37.848  10.591
 9692W        W82040  30.971  36.897  11.025
 9693W        W82041   5.754  30.967   5.600
 9694W        W82042  19.667  42.948  11.442
 9695W        W82043  42.285   5.346  11.040
 9696W        W82044   5.198  26.073   2.278
 9697W        W82045  20.681  40.418   3.377
 9698W        W82046  35.387  11.263  12.984
 9699W        W82047   4.362  32.114   5.299
 9700W        W82048  30.081  20.596   1.895
 9701W        W82049  10.635  14.770  14.436
 9702W        W82050   7.370  24.999   3.750
 9703W        W82051  18.721  43.290   3.321
 9704W        W82052  16.771   3.277  13.480
 9705W        W82053  18.061  29.558   5.244
 9706W        W82054  43.458  14.181   2.688
 9707W        W82055  21.680  33.083   1.841
 9708W        W82056  20.075  44.348  11.449
 9709W        W82057   0.836  38.532   2.246
 9710W        W82058   2.304  13.318  11.428
 9711W        W82059  40.394   4.240   2.691
 9712W        W82060  19.730  26.603  10.480
 9713W        W82061   2.908  36.066   2.301
 9714W        W82062  32.019   2.843   2.669
 9715W        W82063  17.577  15.291   2.274
 9716W        W82064  29.027  41.393   2.891
 9717W        W82065  38.398  16.801   4.321
 9718W        W82066  44.796  33.029   4.648
 9719W        W82067   7.345  14.214  11.463
 9720W        W82068   0.939   7.672   1.824
 9721W        W82069  37.448  38.058   3.844
 9722W        W82070  11.244  15.603   2.379
 9723W        W82071   5.736  30.945  10.477
 9724W        W82072   3.792  30.930  10.405
 9725W        W82073   6.815  31.406   0.336
 9726W        W82074  26.564   3.244   0.835
 9727W        W82075  42.351   1.323  10.487
 9728W        W82076   4.397  22.518   0.428
 9729W        W82077  38.532  27.526   0.351
 9730W        W82078  17.777  42.905   3.334
 9731W        W82079  11.223  16.633   2.874
 9732W        W82080  43.813  15.676   0.953
 9733W        W82081  16.745  17.717   1.774
 9734W        W82082   9.751  43.314  10.999
 9735W        W82083  35.485   0.453  14.447
 9736W        W82084   0.336  18.598   3.769
 9737W        W82085  29.644   1.428  12.366
 9738W        W82086  42.980  40.826  14.498
 9739W        W82087  28.483   7.215   4.623
 9740W        W82088   8.382  18.634  12.096
 9741W        W82089  22.213  26.698   3.837
 9742W        W82090   0.315  22.099  11.916
 9743W        W82091  34.899  29.598  12.946
 9744W        W82092  32.010   1.889   4.767
 9745W        W82093  24.665  11.191  12.922
 9746W        W82094   8.353  33.538   3.210
 9747W        W82095   4.724   1.318   2.271
 9748W        W82096  16.589  31.504  11.992
 9749W        W82097  33.987  25.172  12.347
 9750W        W82098   0.483  16.746  12.988
 9751W        W82099  34.021  44.855   3.870
 9752W        W82100  42.341  19.539   4.641
 9753W        W82101  21.671  33.383  10.914
 9754W        W82102  27.516   7.683   0.258
 9755W        W82103  44.942   2.426  10.989
 9756W        W82104  40.395  12.826  14.499
 9757W        W82105  40.858  39.048   2.237
 9758W        W82106  11.760  43.338   2.277
 9759W        W82107   3.772  21.758   2.676
 9760W        W82108  36.547   9.298  14.474
 9761W        W82109  19.089   8.760   0.382
 9762W        W82110  26.636  41.013   1.287
 9763W        W82111  37.436  28.506  12.483
 9764W        W82112  41.319   0.401   2.773
 9765W        W82113  39.834   6.806   1.404
 9766W        W82114  43.426  15.713  11.563
 9767W        W82115  38.931  27.173   0.943
 9768W        W82116   4.445  13.812   4.790
 9769W        W82117  19.772  10.364   2.190
 9770W        W82118  43.900  44.916  14.800
 9771W        W82119  26.655  31.899  11.434
 9772W        W82120   6.344  44.863   0.870
 9773W        W82121  10.161   4.289   5.569
 9774W        W82122  28.548   4.268   0.742
 9775W        W82123   9.278  16.694   4.257
 9776W        W82124  20.087  19.622   4.181
 9777W        W82125   8.769   7.902  12.914
 9778W        W82126  37.525  25.206  13.823
 9779W        W82127  41.366  44.883   0.394
 9780W        W82128  35.527   7.778   0.842
 9781W        W82129  28.480  27.182  12.905
 9782W        W82130  28.088  43.496   0.910
 9783W        W82131  39.558  12.125   3.791
 9784W        W82132  36.592  11.340  14.788
 9785W        W82133  25.218   4.786  10.950
 9786W        W82134  11.791  27.057   1.356
 9787W        W82135   2.282  30.965  13.929
 9788W        W82136  19.051  20.541   4.769
 9789W        W82137  25.023  28.172   3.363
 9790W        W82138   9.695  17.763  13.472
 9791W        W82139   8.309  25.487  14.504
 9792W        W82140  10.860  37.402  12.932
 9793W        W82141   5.802  29.167   4.232
 9794W        W82142  23.667  29.441  13.824
 9795W        W82143  21.654  25.698  10.543
 9796W        W82144   5.713   0.256  13.919
 9797W        W82145  35.544  42.862  11.371
 9798W        W82146   6.807  38.827  13.319
 9799W        W82147   8.658  44.763   1.694
 9800W        W82148  21.553  44.478   4.701
 9801W        W82149  31.949   5.422  12.412
 9802W        W82150   3.753  25.181  12.472
 9803W        W82151  19.731   0.920  11.042
 9804W        W82152   4.912  33.528  14.936
 9805W        W82153  44.322  36.024  14.359
 9806W        W82154  35.902   8.269  14.853
 9807W        W82155  34.021  34.075   3.855
 9808W        W82156   9.175  38.074   3.232
 9809W        W82157  15.776   2.324  12.533
 9810W        W82158  39.375  11.302  13.332
 9811W        W82159  25.563  41.883  11.490
 9812W        W82160  14.629  19.753  14.989
 9813W        W82161   3.369   0.441  11.386
 9814W        W82162  22.684   7.239  13.401
 9815W        W82163  36.908  32.621   3.832
 9816W        W82164  25.628  11.182  13.994
 9817W        W82165  23.158  14.169   4.632
 9818W        W82166  39.492  36.967   1.441
 9819W        W82167   9.645  38.059   1.915
 9820W        W82168  34.045   0.264   2.256
 9821W        W82169   3.734  23.051  14.290
 9822W        W82170  28.627  22.024   0.263
 9823W        W82171  39.886  40.039  11.099
 9824W        W82172  16.094  23.991  14.762
 9825W        W82173   9.376  22.142   3.358
 9826W        W82174  20.554  28.180  13.521
 9827W        W82175  18.248  34.060  11.025
 9828W        W82176  12.116   8.213   3.239
 9829W        W82177  32.084  15.581   0.828
 9830W        W82178  28.168   8.844   5.137
 9831W        W82179   2.724  29.479  14.805
 9832W        W82180  25.508  13.219   1.336
 9833W        W82181  35.860  12.702   0.726
 9834W        W82182  35.085  22.210  10.160
 9835W        W82183   2.934  35.360   4.695
 9836W        W82184  16.173  13.824   0.797
 9837W        W82185  35.862  38.896  11.921
 9838W        W82186  29.500  22.596  10.920
 9839W        W82187  36.992  39.952   0.383
 9840W        W82188   2.246  19.282  12.824
 9841W        W82189  13.764  11.652   2.901
 9842W        W82190  16.645  43.390  14.987
 9843W        W82191  28.588  27.051  11.029
 9844W        W82192  37.543   9.208  13.932
 9845W        W82193  15.698  14.132   3.204
 9846W        W82194  17.268  40.013  13.327
 9847W        W82195   4.318  37.941   3.154
 9848W        W82196  16.235  26.201  11.108
 9849W        W82197  31.450  11.372  14.398
 9850W        W82198   8.726  27.475  13.048
 9851W        W82199  35.402  30.515   2.704
 9852W        W82200  28.957  21.729  11.582
 9853W        W82201  34.448  31.470  14.476
 9854W        W82202  37.337   5.302  13.920
 9855W        W82203  12.297  23.625   3.653
 9856W        W82204  22.042   6.285  11.560
 9857W        W82205  34.042  20.212   2.783
 9858W        W82206  24.230  33.099   4.285
 9859W        W82207  36.945   6.195  14.373
 9860W        W82208  19.728  21.711  13.977
 9861W        W82209  31.434   9.838  12.860
 9862W        W82210  12.648   4.313   3.387
 9863W        W82211  19.214  20.031  10.546
 9864W        W82212  18.733   8.744  10.513
 9865W        W82213  31.570   8.877  14.423
 9866W        W82214  31.599   9.799  10.949
 9867W        W82215  38.484  12.349  10.411
 9868W        W82216  35.940   7.275   0.803
 9869W        W82217  30.564  37.530   9.972
 9870W        W82218  11.324  26.550   1.215
 9871W        W82219  23.153  24.156  12.531
 9872W        W82220  23.154  35.904   2.797
 9873W        W82221  10.770   1.922   3.675
 9874W        W82222   2.772  36.438  11.532
 9875W        W82223   7.676  34.911  11.867
 9876W        W82224  16.078  10.288  14.417
 9877W        W82225  26.033   5.321   2.196
 9878W        W82226  37.917   3.869   2.183
 9879W        W82227  20.049   9.647   1.868
 9880W        W82228  41.395   6.797   3.782
 9881W        W82229  32.111   2.307  11.996
 9882W        W82230  22.668  17.147   4.222
 9883W        W82231  17.687   2.820  13.471
 9884W        W82232  21.072  17.085   1.792
 9885W        W82233  25.034  32.034  13.956
 9886W        W82234  11.353  43.985   4.291
 9887W        W82235  11.238  13.648  11.428
 9888W        W82236  42.997   8.792  12.978
 9889W        W82237  28.472  33.948   3.162
 9890W        W82238  34.593  40.877  13.543
 9891W        W82239  19.126  40.495  14.024
 9892W        W82240  21.526  15.112  14.372
 9893W        W82241  22.040   2.957   0.471
 9894W        W82242  22.688  21.119   4.818
 9895W        W82243  37.052  42.929  13.443
 9896W        W82244  33.587  39.049   2.397
 9897W        W82245   8.172  27.471  10.509
 9898W        W82246  35.013  35.457  11.864
 9899W        W82247  23.069  25.992   3.233
 9900W        W82248   1.352   3.939   2.326
 9901W        W82249  32.522  41.943   1.876
 9902W        W82250  26.001  11.249  11.998
 9903W        W82251  32.556  44.292   3.249
 9904W        W82252  15.209  32.947  12.382
 9905W        W82253  26.991   5.299  13.877
 9906W        W82254  22.116  36.052  10.445
 9907W        W82255  28.936  43.350   1.234
 9908W        W82256  37.941  29.465   4.734
 9909W        W82257  13.215   6.264   3.373
 9910W        W82258  11.316  14.135  12.393
 9911W        W82259  43.422  10.799   2.739
 9912W        W82260  29.494  33.577  13.986
 9913W        W82261   5.708   7.831   0.828
 9914W        W82262  22.593  13.212   0.751
 9915W        W82263  38.962  43.429  14.436
 9916W        W82264  30.015  21.694  13.032
 9917W        W82265  26.549  10.341  14.873
 9918W        W82266   4.267   5.789  10.559
 9919W        W82267  23.109  13.838  12.907
 9920W        W82268   8.778   7.707  10.991
 9921W        W82269  23.988  31.948   1.785
 9922W        W82270  43.767  18.606   4.712
 9923W        W82271   3.252  27.478   9.975
 9924W        W82272  26.701  33.507   0.758
 9925W        W82273  37.370  18.266   3.748
 9926W        W82274  36.930  37.031   4.212
 9927W        W82275  11.240   3.341   2.783
 9928W        W82276  32.421  26.072  11.381
 9929W        W82277  22.227  10.785   4.774
 9930W        W82278   8.681  42.803  11.971
 9931W        W82279  17.143  29.595  10.415
 9932W        W82280   9.815  26.661  13.805
 9933W        W82281   0.254  20.636  12.570
 9934W        W82282  29.592  28.931   0.285
 9935W        W82283  42.031  34.371   2.207
 9936W        W82284  33.401  37.831   0.896
 9937W        W82285  30.659  33.026   0.406
 9938W        W82286  37.882   0.843  11.478
 9939W        W82287  39.943  12.209  12.945
 9940W        W82288  27.114  20.077   3.377
 9941W        W82289   5.891  26.025  11.944
 9942W        W82290  44.314  24.123  12.095
 9943W        W82291  40.474  24.630  12.555
 9944W        W82292   7.911  19.660   4.704
 9945W        W82293  43.451  18.700   1.864
 9946W        W82294  37.872  42.938   5.262
 9947W        W82295  36.358  39.382  10.948
 9948W        W82296  35.575   9.299   2.289
 9949W        W82297  31.411  13.160  12.845
 9950W        W82298  18.631  37.020  10.446
 9951W        W82299  18.756   2.452   2.393
 9952W        W82300  11.356  35.985  11.933
 9953W        W82301   8.347  31.968   2.824
 9954W        W82302   1.442  17.211  13.533
 9955W        W82303  36.579  30.082  12.841
 9956W        W82304  27.662  35.587   2.326
 9957W        W82305  15.798   0.949  10.421
 9958W        W82306  17.563  11.785  10.924
 9959W        W82307  21.654  21.745   4.256
 9960W        W82308  35.042   8.242  14.875
 9961W        W82309   8.339  27.012  11.105
 9962W        W82310   6.712  31.995   0.812
 9963W        W82311   8.818  28.076   0.272
 9964W        W82312   3.278  33.936   1.391
 9965W        W82313  33.089  26.977  13.359
 9966W        W82314  31.512  36.853  13.386
 9967W        W82315  14.186  16.644   0.405
 9968W        W82316  35.977  26.098   4.272
 9969W        W82317  25.199  30.103   1.767
 9970W        W82318  41.897  32.588   3.156
 9971W        W82319  34.067  41.810   2.388
 9972W        W82320  10.366   3.333  11.561
 9973W        W82321  28.619  40.479   1.715
 9974W        W82322  26.638  31.406   2.671
 9975W        W82323  14.809  37.902  14.898
 9976W        W82324  20.240   6.303  11.590
 9977W        W82325  38.829   3.368   2.261
 9978W        W82326  36.350  14.696  11.582
 9979W        W82327  17.283  17.675   2.701
 9980W        W82328   3.460   5.223  14.011
 9981W        W82329  41.866   0.890   1.717
 9982W        W82330  41.438  40.936  12.078
 9983W        W82331  30.937   7.897  10.433
 9984W        W82332  28.603  33.532   0.385
 9985W        W82333  20.648  33.037  14.421
 9986W        W82334  13.657  29.041  10.547
 9987W        W82335  39.043  17.181  10.482
 9988W        W82336   9.829  15.285   2.178
 9989W        W82337  15.246  33.081   1.912
 9990W        W82338   1.836  32.590   1.255
 9991W        W82339  26.613  19.709  14.026
 9992W        W82340  43.852  15.633  12.574
 9993W        W82341  30.631  42.409   3.760
 9994W        W82342  14.780   4.241   0.825
 9995W        W82343   9.741  39.986   0.731
 9996W        W82344  32.625  30.063   0.307
 9997W        W82345  32.951   8.748  11.945
 9998W        W82346  28.132  16.632  10.408
 9999W        W82347  12.842   3.381  12.986
10000W        W82348  41.807  20.583   4.798
10001W        W82349  10.158   2.465   3.715
10002W        W82350   9.789  12.152  11.992
10003W        W82351  30.114  20.759  13.430
10004W        W82352  17.670  10.840   4.803
10005W        W82353  32.598  38.410  12.468
10006W        W82354  28.439  35.032  14.515
10007W        W82355  44.408  24.096   2.679
10008W        W82356  42.331  10.684  12.015
10009W        W82357   0.968   5.239   3.374
10010W        W82358   4.407  41.940  13.059
10011W        W82359  24.647  44.783  10.555
10012W        W82360  33.070   1.312   4.333
10013W        W82361  15.250  31.405   0.300
10014W        W82362  38.458   1.445  10.594
10015W        W82363  38.004  15.218   4.330
10016W        W82364  37.934  33.603  13.917
10017W        W82365  32.080   4.267   0.755
10018W        W82366  36.962  44.800  14.514
10019W        W82367  21.197  24.048   4.810
10020W        W82368  39.557  22.682   3.850
10021W        W82369  14.689  43.917   1.350
10022W        W82370  40.988  26.478   1.404
10023W        W82371  28.136  22.735  12.027
10024W        W82372  42.513  18.577  13.548
10025W        W82373   8.366  41.476   1.272
10026W        W82374  15.770  12.233  10.419
10027W        W82375  27.683   2.728   2.381
10028W        W82376   3.229  34.033   4.275
10029W        W82377   6.272  11.650   4.240
10030W        W82378  27.976  15.754   3.181
10031W        W82379  23.225  21.676  10.433
10032W        W82380  22.569   4.210  13.825
10033W        W82381  29.168   0.414   2.676
10034W        W82382  11.835  32.904  14.453
10035W        W82383  42.509   8.664  13.458
10036W        W82384  27.086  12.759  10.537
10037W        W82385  12.658  20.138  10.450
10038W        W82386  33.048  31.931   4.355
10039W        W82387  25.548  26.691   3.272
10040W        W82388  27.969   0.408   1.427
10041W        W82389  29.134  28.009  11.063
10042W        W82390   3.950   9.750  13.012
10043W        W82391  15.318  21.174  13.496
10044W        W82392  16.664  28.036  10.645
10045W        W82393  44.775  35.957  11.930
10046W        W82394  12.666   7.670  13.941
10047W        W82395  20.573  35.378   3.168
10048W        W82396  26.970   7.724   4.729
10049W        W82397  15.151  32.451   0.895
10050W        W82398   2.444  16.188  11.610
10051W        W82399  41.463  33.537   3.815
10052W        W82400  26.574  44.368  12.440
10053W        W82401   8.400  43.888   2.324
10054W        W82402  12.848   9.387   3.734
10055W        W82403  23.136  17.575   1.873
10056W        W82404  43.463  30.070   3.306
10057W        W82405  28.032  30.998  13.464
10058W        W82406  20.155   5.326   2.796
10059W        W82407  31.575  10.859   2.849
10060W        W82408  36.438   8.892   2.669
10061W        W82409  41.995  21.118   1.331
10062W        W82410  24.157  37.367   2.301
10063W        W82411  29.066   0.780   2.271
10064W        W82412  37.488  43.318   4.801
10065W        W82413  21.707  31.491  13.516
10066W        W82414  16.780  39.496  12.937
10067W        W82415  20.045   7.367  12.356
10068W        W82416  18.261  31.988   2.899
10069W        W82417   4.766  39.472   0.455
10070W        W82418   0.805  25.056   2.891
10071W        W82419   9.885   7.350   4.227
10072W        W82420  29.518   9.271  11.568
10073W        W82421   9.149  36.887  13.543
10074W        W82422  30.104  31.536   2.729
10075W        W82423  21.573  24.132   1.447
10076W        W82424  27.940   8.268  13.369
10077W        W82425   2.949  27.577   2.279
10078W        W82426  15.255   7.850   1.253
10079W        W82427  24.225   7.217   4.655
10080W        W82428  33.540  26.608  12.901
10081W        W82429  41.800   1.774   4.632
10082W        W82430  27.976  22.732  14.011
10083W        W82431  27.686  39.990   0.308
10084W        W82432   6.328   7.247  10.523
10085W        W82433  14.107  28.549   1.898
10086W        W82434  19.563  27.090   4.242
10087W        W82435  26.621  29.093  14.814
10088W        W82436   5.219  40.306  10.086
10089W        W82437  37.407  22.094   4.647
10090W        W82438  15.271  42.393   2.846
10091W        W82439  24.107  16.791  13.407
10092W        W82440  26.625   8.210  14.958
10093W        W82441   4.822  37.432  10.997
10094W        W82442  35.443  37.058   0.800
10095W        W82443  38.353  14.615  14.810
10096W        W82444  11.356  11.659  12.984
10097W        W82445  10.713   3.900   2.219
10098W        W82446  21.715  20.105  12.433
10099W        W82447  14.793   9.250  14.784
10100W        W82448  42.997  27.467  12.987
10101W        W82449   4.853   5.713  14.384
10102W        W82450   7.414  11.765   2.313
10103W        W82451  11.706  41.019  11.395
10104W        W82452  25.701   6.202  14.903
10105W        W82453   7.889  38.335   0.460
10106W        W82454  40.829   5.826   0.865
10107W        W82455   4.899  30.511   0.332
10108W        W82456  21.225  22.076  11.081
10109W        W82457  12.747  16.308  11.425
10110W        W82458  30.057  10.868   2.689
10111W        W82459  26.652  26.973  12.920
10112W        W82460  18.587  10.779  11.044
10113W        W82461  21.166   7.703   5.264
10114W        W82462  19.662  36.575   1.389
10115W        W82463  25.204   0.490   2.262
10116W        W82464  15.729  44.807  12.018
10117W        W82465  11.748   2.419   3.295
10118W        W82466  42.330  41.989   0.452
10119W        W82467  33.986  19.129  13.929
10120W        W82468  16.762  31.639   1.832
10121W        W82469  10.696  33.103   3.317
10122W        W82470  24.100   7.249  14.337
10123W        W82471  43.928   5.798  13.969
10124W        W82472   1.738  21.183   2.415
10125W        W82473  37.943  20.101   1.927
10126W        W82474  12.693  10.853  13.986
10127W        W82475  22.026  25.563  14.960
10128W        W82476   0.907  32.562  12.469
10129W        W82477  42.866   0.380  11.415
10130W        W82478  36.578   3.434   9.928
10131W        W82479  14.266  14.704  11.922
10132W        W82480  41.910   4.920   3.842
10133W        W82481  28.482  35.521  10.531
10134W        W82482  18.782   9.243   3.356
10135W        W82483   0.385  20.628   1.915
10136W        W82484  14.142   6.291   2.755
10137W        W82485  30.490  12.654  13.029
10138W        W82486  17.689  34.564   3.274
10139W        W82487  16.592  30.980   3.783
10140W        W82488   7.248   6.785   3.327
10141W        W82489  22.070  30.601  14.344
10142W        W82490  30.622  14.328  14.418
10143W        W82491  34.892  34.391  11.490
10144W        W82492  18.226  42.473  13.002
10145W        W82493  41.941  39.869  11.107
10146W        W82494  29.666  12.664  14.785
10147W        W82495  13.289  10.235   1.912
10148W        W82496   8.398   2.949  12.524
10149W        W82497  20.534   9.654  10.467
10150W        W82498  26.182   2.393   3.274
10151W        W82499  22.724   7.892   9.668
10152W        W82500  32.943  14.765   4.256
10153W        W82501  11.290   5.321   3.166
10154W        W82502   4.750  20.088  14.403
10155W        W82503  37.392  17.268   5.227
10156W        W82504  34.100  19.185   0.259
10157W        W82505  36.890  39.818   2.706
10158W        W82506  34.920  31.921   1.877
10159W        W82507  27.955  14.779  11.565
10160W        W82508  22.582  11.710  13.056
10161W        W82509   7.872  34.038   1.722
10162W        W82510  16.079  18.743  12.571
10163W        W82511  26.050  29.477   1.412
10164W        W82512  42.779  30.091  12.438
10165W        W82513  44.916   2.941   2.874
10166W        W82514  32.404  33.542  10.608
10167W        W82515  30.935   7.279  13.917
10168W        W82516  10.795   8.178   0.788
10169W        W82517  30.643  24.588  11.962
10170W        W82518  17.284  20.693  14.333
10171W        W82519  42.793  37.894   1.782
10172W        W82520  38.988  17.162   1.451
10173W        W82521  19.159  32.521   0.803
10174W        W82522   4.936  38.887   2.365
10175W        W82523   5.769  20.154   1.323
10176W        W82524  26.981  44.780   4.302
10177W        W82525  22.233   8.841   0.365
10178W        W82526   5.255  16.727  14.850
10179W        W82527  38.508  42.392  13.547
10180W        W82528  14.608   3.859  12.398
10181W        W82529  35.909   1.761  13.945
10182W        W82530   5.906  19.123   1.719
10183W        W82531   5.737  16.221   2.770
10184W        W82532  25.629  16.228  14.922
10185W        W82533  35.461  11.640   2.295
10186W        W82534  24.165  28.487  11.118
10187W        W82535  17.192  37.077  13.033
10188W        W82536  18.750  34.868  10.953
10189W        W82537   6.839   0.441   2.747
10190W        W82538  21.032  17.104  11.046
10191W        W82539  29.919   5.916   4.766
10192W        W82540   9.752  24.024   2.397
10193W        W82541   9.376  22.167   4.290
10194W        W82542  23.704   2.346   2.728
10195W        W82543  29.527  32.096   3.716
10196W        W82544   2.813  43.293  11.089
10197W        W82545  30.020  21.216   0.369
10198W        W82546  14.647  41.462   0.430
10199W        W82547  15.178  17.256   2.239
10200W        W82548   9.876   2.287   2.315
10201W        W82549  26.643  24.003   3.810
10202W        W82550  11.626   7.268  14.013
10203W        W82551  24.583  27.017  10.972
10204W        W82552  21.223   8.399  13.317
10205W        W82553  12.302   9.370  12.889
10206W        W82554   1.770  35.946  12.827
10207W        W82555  32.894  29.083  10.528
10208W        W82556  29.998   8.373   0.290
10209W        W82557   6.715  42.854  14.294
10210W        W82558   2.924  40.860   1.890
10211W        W82559  35.366   4.313  11.866
10212W        W82560  36.889   4.699   2.687
10213W        W82561  33.544  11.663  13.982
10214W        W82562  37.851  16.270  12.493
10215W        W82563  22.625  30.074   2.836
10216W        W82564  37.990  44.925   1.696
10217W        W82565   4.214  39.387  14.394
10218W        W82566  33.416  36.402   1.886
10219W        W82567  33.479  29.098   1.867
10220W        W82568  23.201  40.873   3.731
10221W        W82569   7.378  16.651  10.518
10222W        W82570  21.566  23.102   3.308
10223W        W82571  44.299  41.881  12.415
10224W        W82572  18.639  39.877  11.479
10225W        W82573  36.901   1.470   1.885
10226W        W82574   4.328  33.440  12.021
10227W        W82575  42.352  28.641  11.036
10228W        W82576  30.073   9.843   3.665
10229W        W82577  18.776  38.562  14.422
10230W        W82578   9.210  27.189   3.349
10231W        W82579  42.471  35.451   0.935
10232W        W82580  29.512  19.542   1.251
10233W        W82581  14.147  12.673  14.829
10234W        W82582  41.879  30.421  14.877
10235W        W82583   9.372  42.465   3.167
10236W        W82584  18.290   2.253  10.444
10237W        W82585   2.430  36.576  14.866
10238W        W82586  37.976  40.863   1.792
10239W        W82587  44.291  40.055   4.814
10240W        W82588  24.982   7.322  13.504
10241W        W82589   8.170   5.798   3.340
10242W        W82590  31.510  33.424   4.800
10243W        W82591  24.094  30.473  12.532
10244W        W82592  21.648  24.671   1.775
10245W        W82593   0.397  39.489  10.892
10246W        W82594  30.654   9.258   3.222
10247W        W82595  30.013  42.335  13.548
10248W        W82596  12.615  18.259  14.416
10249W        W82597  33.999   1.368   3.642
10250W        W82598   5.841   1.964   3.786
10251W        W82599  10.353  44.443  11.550
10252W        W82600  15.779  37.396  13.537
10253W        W82601  14.279  25.112   3.842
10254W        W82602  15.590  29.106  13.841
10255W        W82603  40.408  10.752  12.057
10256W        W82604  32.545   9.264  13.315
10257W        W82605  33.090   7.764   0.928
10258W        W82606  23.518  31.635   1.413
10259W        W82607  15.323  39.014  14.322
10260W        W82608   9.829  26.519   3.724
10261W        W82609   1.321  27.557   4.788
10262W        W82610  25.698  39.475  12.422
10263W        W82611   6.766   8.865   1.264
10264W        W82612  21.063   0.980  14.508
10265W        W82613   8.395  43.353   1.906
10266W        W82614  23.590  26.123  13.030
10267W        W82615  43.829  20.235   3.771
10268W        W82616   2.392  26.633  12.837
10269W        W82617  12.128  13.343  12.034
10270W        W82618  16.724  42.525  11.014
10271W        W82619  44.331   2.772   1.356
10272W        W82620   0.289   1.916   1.227
10273W        W82621  21.599  34.433  12.003
10274W        W82622  39.981  29.590   0.418
10275W        W82623  35.953   7.366   4.342
10276W        W82624  24.603  22.735   0.803
10277W        W82625  31.912   5.883   3.295
10278W        W82626   6.336  37.531   2.247
10279W        W82627  16.303   3.943   2.867
10280W        W82628  26.647  38.524  12.834
10281W        W82629  17.111  21.168   3.821
10282W        W82630  40.939  43.811  12.345
10283W        W82631  43.392  28.623   4.802
10284W        W82632   4.213   9.166  10.416
10285W        W82633  11.290  32.009   3.204
10286W        W82634  31.903   5.421   1.770
10287W        W82635  23.026  13.150   0.949
10288W        W82636  42.837  30.055   0.340
10289W        W82637   8.384  31.579   1.768
10290W        W82638  19.560  14.630  12.580
10291W        W82639  35.457  18.776   3.691
10292W        W82640  43.846  26.126  12.002
10293W        W82641   2.310   1.969   1.210
10294W        W82642  18.788  35.462  14.965
10295W        W82643   0.804  34.520  10.504
10296W        W82644   1.391   1.440  13.920
10297W        W82645  21.615  33.091   2.404
10298W        W82646   4.322   5.315   0.359
10299W        W82647  37.503  41.827  11.080
10300W        W82648  44.464  30.907  11.904
10301W        W82649  27.487   9.379   4.241
10302W        W82650  38.063  12.356  10.634
10303W        W82651  11.713  44.807   3.265
10304W        W82652  30.163  42.846  14.019
10305W        W82653  42.903  18.113  13.322
10306W        W82654  22.551  38.341  14.873
10307W        W82655  14.822   6.366  11.392
10308W        W82656  17.297  39.817  11.467
10309W        W82657  33.549  40.989  12.907
10310W        W82658   8.674  27.188   4.274
10311W        W82659   2.790  40.952   0.727
10312W        W82660  41.033  38.443   2.267
10313W        W82661  42.315   6.415   1.910
10314W        W82662  23.604   4.892  14.819
10315W        W82663  27.483  36.944   0.820
10316W        W82664   4.409   4.387  12.497
10317W        W82665  35.017   5.790   0.292
10318W        W82666  15.111  39.888   3.847
10319W        W82667  17.741  25.215  13.308
10320W        W82668   7.727  17.098   2.237
10321W        W82669  28.936  36.929  12.009
10322W        W82670  18.061  19.581  11.454
10323W        W82671   7.176  20.612   4.737
10324W        W82672  38.936  31.952  12.918
10325W        W82673  11.794  13.219  13.540
10326W        W82674  18.711   4.784  11.919
10327W        W82675  36.084   3.277   2.302
10328W        W82676  31.463  36.560  13.999
10329W        W82677  20.551  29.149   1.239
10330W        W82678  12.158  25.001  13.001
10331W        W82679   9.301  17.112  10.599
10332W        W82680  32.106   5.705  14.381
10333W        W82681   4.821  10.790  14.500
10334W        W82682  36.014   2.322   0.422
10335W        W82683  26.006  27.684   4.777
10336W        W82684  28.946  10.741  11.059
10337W        W82685  16.795  24.055  11.422
10338W        W82686   5.735  38.920  13.868
10339W        W82687   6.270   7.750   2.371
10340W        W82688  44.905  41.462  14.905
10341W        W82689   4.887  13.325  13.973
10342W        W82690  13.607  26.057   0.784
10343W        W82691  24.654  21.253  13.547
10344W        W82692  10.791  31.506   3.843
10345W        W82693  41.407  40.364  14.413
10346W        W82694   8.227   9.798   3.816
10347W        W82695   1.769  38.860   0.319
10348W        W82696  14.656  24.654   4.130
10349W        W82697  33.938  22.717   0.923
10350W        W82698   2.402   2.394   2.731
10351W        W82699   7.769  23.700  11.012
10352W        W82700  25.007  28.982  10.090
10353W        W82701  42.836  14.677   4.310
10354W        W82702  27.190  36.451   4.350
10355W        W82703   6.859  10.280   1.292
10356W        W82704   6.199  13.246  11.942
10357W        W82705  18.293  12.226  14.822
10358W        W82706  29.647  25.970   2.383
10359W        W82707  29.597  30.473  14.784
10360W        W82708   5.309  16.198  14.032
10361W        W82709  19.568  18.771  12.954
10362W        W82710   6.895   5.796   4.270
10363W        W82711  26.020  18.204  11.570
10364W        W82712   0.975  18.135  10.101
10365W        W82713  18.730  34.490   1.231
10366W        W82714  14.600  10.285  13.398
10367W        W82715  24.199  42.995  11.568
10368W        W82716  44.971   4.270   2.325
10369W        W82717  17.086  18.587  14.453
10370W        W82718   2.350  17.223   0.300
10371W        W82719   9.334  20.569   5.112
10372W        W82720  18.214  23.077  10.915
10373W        W82721  31.622  32.034   0.305
10374W        W82722   0.837   0.285  11.059
10375W        W82723  15.766  31.565   1.890
10376W        W82724  29.502  20.187  11.598
10377W        W82725  20.665  17.122  14.020
10378W        W82726  29.096  32.502   3.729
10379W        W82727  29.463  38.035   2.833
10380W        W82728  38.839  34.903  11.904
10381W        W82729   7.368   4.306   3.187
10382W        W82730  11.750   3.777  14.390
10383W        W82731  36.446  19.705   3.186
10384W        W82732  11.257  31.927  13.388
10385W        W82733  26.627  23.708   2.272
10386W        W82734  20.167  32.134   4.303
10387W        W82735   1.476  14.208   3.666
10388W        W82736  31.107  19.087   3.712
10389W        W82737  20.666  39.452  10.447
10390W        W82738  28.666  36.031   1.354
10391W        W82739   0.281  22.666  10.934
10392W        W82740  44.951  37.459   1.243
10393W        W82741  33.913   6.331   3.275
10394W        W82742  29.447  35.990  10.074
10395W        W82743   8.227   5.315  11.114
10396W        W82744  24.521  42.859   3.354
10397W        W82745   1.962   3.738   4.829
10398W        W82746  32.621  31.903   3.351
10399W        W82747  28.065  35.567  12.531
10400W        W82748   3.429  17.725   1.812
10401W        W82749  41.503  17.653  11.100
10402W        W82750   3.454  13.267  14.279
10403W        W82751  10.361   7.173  14.292
10404W        W82752   1.443  40.887  12.383
10405W        W82753  23.655  26.462  11.408
10406W        W82754  13.802  23.107  10.550
10407W        W82755   8.853  44.290   0.921
10408W        W82756   2.729   6.252  14.885
10409W        W82757   8.722  27.074  13.045
10410W        W82758  41.441   4.715   1.220
10411W        W82759  40.867  26.649   3.679
10412W        W82760  16.213  36.001  14.953
10413W        W82761  36.087  12.771  13.980
10414W        W82762  19.567  20.718  13.443
10415W        W82763  18.149  30.078   0.784
10416W        W82764  32.432  40.804  12.984
10417W        W82765  16.608   9.278  11.918
10418W        W82766  32.478  42.413  14.456
10419W        W82767  24.648  14.151  10.517
10420W        W82768  34.373  40.996   0.449
10421W        W82769  44.348   8.708  12.457
10422W        W82770  30.996  16.124   0.966
10423W        W82771  10.180  22.011   1.760
10424W        W82772   1.331  36.386   4.681
10425W        W82773  33.519   0.985   3.718
10426W        W82774  26.641  43.389  14.002
10427W        W82775   7.355  10.294   4.698
10428W        W82776   5.851   0.856   1.376
10429W        W82777  20.263  40.891   1.436
10430W        W82778  28.542  19.200  14.476
10431W        W82779  37.960  21.125   2.341
10432W        W82780   5.317  14.209  14.322
10433W        W82781  35.899  26.999  13.007
10434W        W82782  10.690  29.020   2.855
10435W        W82783  37.024  33.925  12.880
10436W        W82784  29.048   2.950  13.002
10437W        W82785   3.320  33.455   2.263
10438W        W82786  40.467  43.975   4.318
10439W        W82787   3.923  26.525  12.368
10440W        W82788   8.691   7.376  14.971
10441W        W82789  30.951  19.122  10.920
10442W        W82790  14.221   3.284  13.333
10443W        W82791  20.639  12.821  12.372
10444W        W82792  14.590   5.235   3.335
10445W        W82793  14.673  23.056   0.883
10446W        W82794   6.732   1.317  13.371
10447W        W82795  40.361  32.634  12.555
10448W        W82796  12.659   2.288   2.250
10449W        W82797  26.201  38.909  13.545
10450W        W82798  24.533   0.880  14.801
10451W        W82799  24.579  23.015  13.990
10452W        W82800  23.011  41.416   1.752
10453W        W82801  13.644   1.915  13.331
10454W        W82802  12.151  24.582  12.893
10455W        W82803  43.470   3.914   1.730
10456W        W82804  15.148  35.100   2.268
10457W        W82805  35.414  32.928  10.564
10458W        W82806  28.147  30.621  11.463
10459W        W82807  10.830  20.682  11.471
10460W        W82808  33.002  19.644   0.257
10461W        W82809  36.921  18.098   3.797
10462W        W82810  42.819   1.378   1.909
10463W        W82811   0.799  21.260  12.993
10464W        W82812   8.170  37.955  11.444
10465W        W82813  35.859  29.657  14.458
10466W        W82814  17.772  43.369  12.482
10467W        W82815  42.951   2.887   2.376
10468W        W82816   1.755  35.412  11.547
10469W        W82817  21.736  27.577  12.558
10470W        W82818  25.651  39.406  14.936
10471W        W82819  41.871  18.771  13.478
10472W        W82820   1.386   0.356   3.672
10473W        W82821  27.603  40.910   1.781
10474W        W82822  38.481  17.225  11.951
10475W        W82823  35.391  32.581  14.842
10476W        W82824  41.452  19.258  13.051
10477W        W82825  21.237  26.026  12.473
10478W        W82826  41.479  17.632  14.292
10479W        W82827  26.621  13.619   1.809
10480W        W82828  31.622  44.875  13.863
10481W        W82829   5.809   7.333   4.234
10482W        W82830  12.639  18.218   1.211
10483W        W82831  36.346  29.528   2.669
10484W        W82832  25.591  14.175   2.249
10485W        W82833  27.139  13.286  12.553
10486W        W82834  15.184  35.857  14.316
10487W        W82835  18.117   1.473   4.771
10488W        W82836  20.671   4.380   1.825
10489W        W82837   1.295  24.130  14.961
10490W        W82838  23.669   2.895   4.297
10491W        W82839  14.806  38.539  14.860
10492W        W82840   9.312   3.369  12.842
10493W        W82841  40.835   3.724  11.036
10494W        W82842   6.779  38.357   4.654
10495W        W82843  18.084  27.512  11.566
10496W        W82844  13.738  21.722   0.276
10497W        W82845  25.988  13.641   3.355
10498W        W82846  24.535  33.883  11.057
10499W        W82847  43.920   7.676   3.223
10500W        W82848  43.351   0.847  14.392
10501W        W82849   3.933  16.810   1.383
10502W        W82850   8.656  41.911  13.366
10503W        W82851   0.422   2.429  12.412
10504W        W82852   5.233  37.516  14.354
10505W        W82853  35.465  34.533   4.625
10506W        W82854  16.613  19.127  10.626
10507W        W82855  23.624  38.552   4.311
10508W        W82856  40.487  28.678  10.946
10509W        W82857  28.444  34.606   3.833
10510W        W82858  31.619  41.859  13.378
10511W        W82859  43.438  13.236  12.944
10512W        W82860   9.234   1.336   2.326
10513W        W82861   8.811  19.544   3.316
10514W        W82862  26.153  21.745  11.497
10515W        W82863  37.924  22.148   9.495
10516W        W82864  16.767  27.685   0.431
10517W        W82865  37.969  38.553  13.811
10518W        W82866  36.460   1.751   0.810
10519W        W82867  11.246  42.368   1.886
10520W        W82868  34.523  32.473   0.457
10521W        W82869  34.925  41.399  12.493
10522W        W82870  35.568  13.224  11.963
10523W        W82871  23.602  37.982  12.055
10524W        W82872  38.986  37.374   1.737
10525W        W82873  11.696  38.858  10.610
10526W        W82874   7.689  25.532   2.406
10527W        W82875  34.922  15.261   1.217
10528W        W82876  38.046  31.432  11.918
10529W        W82877  33.033  10.719  14.993
10530W        W82878   1.267   3.459   0.954
10531W        W82879   0.254  18.740   4.608
10532W        W82880  26.985  14.816   0.283
10533W        W82881  23.204  28.498  13.494
10534W        W82882  24.608  25.661   1.775
10535W        W82883   6.402  40.378   2.701
10536W        W82884  11.153  19.057  12.081
10537W        W82885   6.302  16.689  13.933
10538W        W82886  41.793  35.580  10.937
10539W        W82887  36.378  44.904   3.380
10540W        W82888  22.581  18.646  11.543
10541W        W82889   1.326  44.952  14.321
10542W        W82890  11.326  40.484   4.263
10543W        W82891  28.498  24.220  13.474
10544W        W82892  38.407  31.566  12.478
10545W        W82893  20.589  38.445   3.863
10546W        W82894  34.976  31.619   0.284
10547W        W82895  42.812   6.294   1.749
10548W        W82896  20.710  41.333   3.236
10549W        W82897  39.499  22.084   3.719
10550W        W82898  12.315  35.903  13.363
10551W        W82899   2.235   5.351  12.837
10552W        W82900  18.086   7.717   4.239
10553W        W82901  14.755  15.262  13.413
10554W        W82902  24.713  32.466   2.735
10555W        W82903   2.945  44.327   3.761
10556W        W82904  21.731  11.798   0.397
10557W        W82905  10.778  28.606  12.840
10558W        W82906   7.247  28.662   0.346
10559W        W82907  44.972  32.446  14.894
10560W        W82908  24.992   3.370  11.975
10561W        W82909  44.307  21.528   0.802
10562W        W82910   2.935  24.668   1.823
10563W        W82911  34.376  28.575  14.785
10564W        W82912  28.023  24.599   4.752
10565W        W82913  33.925   2.265  10.421
10566W        W82914  27.079  34.410  10.595
10567W        W82915  30.973  40.391   3.790
10568W        W82916   7.865  40.032  10.085
10569W        W82917  22.509  23.687   1.743
10570W        W82918  37.457  40.427   4.678
10571W        W82919  39.065  42.299  11.381
10572W        W82920   0.251  35.075  14.345
10573W        W82921  38.923  23.595   3.708
10574W        W82922   7.670  23.130  14.860
10575W        W82923  37.579  20.548  14.340
10576W        W82924  36.455  33.520  14.970
10577W        W82925  31.052  16.577  12.896
10578W        W82926   0.775  23.655  12.828
10579W        W82927   3.222   9.647   1.831
10580W        W82928  15.819  26.100   1.888
10581W        W82929  34.012  41.344   2.342
10582W        W82930  20.631  15.604   4.689
10583W        W82931  42.522  38.363   3.686
10584W        W82932  44.350  35.925   1.215
10585W        W82933   9.842  13.144  13.876
10586W        W82934   7.372  13.321   4.352
10587W        W82935  27.648   5.277   3.285
10588W        W82936  28.108  37.468  14.862
10589W        W82937  22.590  24.211   0.879
10590W        W82938  27.995  34.094  14.880
10591W        W82939  40.832  20.685  11.487
10592W        W82940  16.710  18.636  14.314
10593W        W82941  21.183  12.331   1.251
10594W        W82942  18.240  36.927   2.883
10595W        W82943  17.603  33.512  13.334
10596W        W82944  39.554  34.491   1.769
10597W        W82945   9.205  34.540  14.326
10598W        W82946  43.907   1.303  12.530
10599W        W82947   8.775  36.983   2.251
10600W        W82948   3.808  30.102  13.381
10601W        W82949  12.304   0.324  10.513
10602W        W82950  14.657  21.585  14.886
10603W        W82951  25.581   6.382   0.415
10604W        W82952   7.250  19.765   4.794
10605W        W82953  25.093  20.540  13.822
10606W        W82954  18.791  44.338  10.098
10607W        W82955  37.502  22.075   3.373
10608W        W82956  37.058   9.779   2.768
10609W        W82957   9.374  17.121   1.798
10610W        W82958  17.131   5.807  14.874
10611W        W82959  33.020  38.826   4.697
10612W        W82960  44.272   8.208   1.232
10613W        W82961  42.443  13.201  11.881
10614W        W82962   3.403   9.291  13.398
10615W        W82963  23.090  10.187   3.680
10616W        W82964  31.530  25.982   3.731
10617W        W82965  40.516  28.673   1.782
10618W        W82966  32.467  29.090   3.254
10619W        W82967  30.478  26.091   3.835
10620W        W82968  39.983  20.121   3.761
10621W        W82969  32.588  34.082  13.821
10622W        W82970   4.929  10.341   1.413
10623W        W82971  29.451  28.168   1.699
10624W        W82972  37.554  13.206   1.423
10625W        W82973  31.062  10.277   4.329
10626W        W82974  28.157  42.498  11.104
10627W        W82975   6.868  41.912   2.180
10628W        W82976  19.051  38.370  14.412
10629W        W82977  21.217  12.313  13.484
10630W        W82978  24.495  34.584  14.345
10631W        W82979  11.735   9.375   0.863
10632W        W82980  29.121  41.383  13.877
10633W        W82981   6.300   6.380  13.484
10634W        W82982   8.893  17.286  11.496
10635W        W82983   1.748  34.966  10.904
10636W        W82984  24.632  17.098  10.471
10637W        W82985   1.481  33.497   1.810
10638W        W82986  30.057   5.859  11.126
10639W        W82987   1.932  30.604  10.933
10640W        W82988  29.443  10.202  11.062
10641W        W82989  14.664  13.260  12.461
10642W        W82990  28.526   2.312  13.452
10643W        W82991  28.678   2.782  10.947
10644W        W82992  34.602  38.939  11.532
10645W        W82993  33.380  14.274   2.745
10646W        W82994  30.524  33.937  13.041
10647W        W82995  16.144  12.132   1.731
10648W        W82996  21.246  31.071  13.051
10649W        W82997  15.172   1.863   4.205
10650W        W82998   6.832   9.648   2.361
10651W        W82999   5.906  15.243   1.394
10652W        W83000   6.887  40.340   2.776
10653W        W83001  23.618  33.058   3.665
10654W        W83002  34.547  21.160   4.638
10655W        W83003  23.641  22.700  11.544
10656W        W83004  15.179   3.402   2.775
10657W        W83005  40.870  20.627  13.343
10658W        W83006  27.969  37.452  12.089
10659W        W83007  18.179  19.700   3.333
10660W        W83008  13.779   3.274   0.738
10661W        W83009   7.319  21.215   0.868
10662W        W83010  42.315  26.100   0.846
10663W        W83011  30.031  34.933  11.111
10664W        W83012  27.656  11.791   4.730
10665W        W83013   3.915  16.614  12.463
10666W        W83014  26.098  22.017   0.327
10667W        W83015  14.804  12.228  13.953
10668W        W83016  32.901  44.320   4.610
10669W        W83017   9.808  10.872   4.824
10670W        W83018  29.023  42.988  12.511
10671W        W83019  18.750  25.714   1.931
10672W        W83020   6.911  41.455   0.378
10673W        W83021  25.035  16.649  12.856
10674W        W83022   6.361  24.086  11.608
10675W        W83023  20.724  17.260   4.220
10676W        W83024  34.101  39.831  13.319
10677W        W83025  16.212   7.387   1.848
10678W        W83026  25.645   7.404  13.380
10679W        W83027   5.370  13.755  14.511
10680W        W83028  22.044  21.079   5.102
10681W        W83029  32.895  13.169   3.737
10682W        W83030  15.706  19.696   3.153
10683W        W83031   3.366  15.725  13.874
10684W        W83032  35.555  35.574  14.811
10685W        W83033  40.896  15.296  11.887
10686W        W83034  29.424   9.821  10.404
10687W        W83035  33.011  20.586   4.335
10688W        W83036  21.205  14.647   0.284
10689W        W83037  43.288  39.989   4.773
10690W        W83038  40.310  43.349  13.468
10691W        W83039   2.865  12.286   2.324
10692W        W83040  24.655  38.332  13.939
10693W        W83041  40.922  38.929  11.485
10694W        W83042  19.056  38.030   2.259
10695W        W83043  28.032  32.420  12.351
10696W        W83044  39.352  20.124  10.953
10697W        W83045   8.186  16.256   2.843
10698W        W83046  12.718  34.074   3.176
10699W        W83047   3.865  24.976  13.483
10700W        W83048  21.052  32.548   0.397
10701W        W83049  15.245   2.757  10.918
10702W        W83050  31.104  23.076  13.037
10703W        W83051  37.849  19.230  13.879
10704W        W83052  13.771   5.745  10.916
10705W        W83053  11.310  18.559   0.285
10706W        W83054  38.559  16.664  10.635
10707W        W83055  40.027  22.706  10.991
10708W        W83056  43.513  25.673  11.058
10709W        W83057  15.669  24.978  13.943
10710W        W83058  35.924  16.183  10.492
10711W        W83059  40.526  40.934   1.899
10712W        W83060   3.405  16.757  14.930
10713W        W83061  11.688   8.698  12.440
10714W        W83062   0.984   6.761   1.268
10715W        W83063  22.715  19.220  11.468
10716W        W83064  34.878  44.792  11.974
10717W        W83065  32.121  13.334   2.856
10718W        W83066  44.856  14.744   1.930
10719W        W83067  29.627  10.221  12.490
10720W        W83068  18.085  12.144  12.465
10721W        W83069  11.279  16.142  14.416
10722W        W83070  29.134  10.728  13.862
10723W        W83071   8.839  44.804  13.850
10724W        W83072  13.211  14.592   4.717
10725W        W83073   8.820  21.208   4.337
10726W        W83074  17.296  32.531  13.320
10727W        W83075  38.844  25.056   3.208
10728W        W83076  30.515  38.003   4.172
10729W        W83077   5.794  43.289   1.323
10730W        W83078  23.694   9.311   2.725
10731W        W83079  38.893  25.621   1.330
10732W        W83080   7.749  10.878   0.257
10733W        W83081   6.254  18.561  10.524
10734W        W83082  38.881  35.376  12.575
10735W        W83083  33.575  13.793  14.935
10736W        W83084  17.287  35.542  14.348
10737W        W83085  21.034  33.035  12.000
10738W        W83086  44.769  13.199   2.814
10739W        W83087  34.898   3.231  13.543
10740W        W83088   6.233  20.766  12.043
10741W        W83089  44.852   9.252  14.359
10742W        W83090  44.472  34.391   0.838
10743W        W83091   9.242  36.590  12.852
10744W        W83092  42.409  35.879  14.925
10745W        W83093  16.620  23.499   3.669
10746W        W83094  43.997  14.102  11.470
10747W        W83095   4.272   5.438   4.208
10748W        W83096  14.125  34.890  12.823
10749W        W83097  34.550  22.089  11.029
10750W        W83098  44.944  33.895  10.582
10751W        W83099  11.245  10.349   2.864
10752W        W83100  41.939  42.371  14.847
10753W        W83101   6.298  30.013   1.759
10754W        W83102  12.307  22.652  14.883
10755W        W83103  12.248  14.641  10.433
10756W        W83104  26.147   3.376  11.937
10757W        W83105  31.000  21.632   3.236
10758W        W83106  38.356  44.430  12.579
10759W        W83107   2.368  27.994   1.756
10760W        W83108  12.182  44.930  10.984
10761W        W83109   0.444  31.964  14.785
10762W        W83110   8.381  40.998   1.934
10763W        W83111  16.101  37.451  11.522
10764W        W83112  27.675  18.068   2.364
10765W        W83113  39.415  31.914   3.322
10766W        W83114   7.353   5.730   4.133
10767W        W83115  16.653  24.136   3.232
10768W        W83116  12.243  11.182   4.175
10769W        W83117  17.089  38.856   3.770
10770W        W83118  29.038  42.416  13.487
10771W        W83119  27.515  44.834   0.363
10772W        W83120   8.162  25.613   4.681
10773W        W83121  44.446  20.632   2.396
10774W        W83122   8.716   7.216   3.329
10775W        W83123  37.483  26.508   2.783
10776W        W83124  15.789  41.839   1.710
10777W        W83125  41.013  15.265   0.421
10778W        W83126  31.541  15.194   1.219
10779W        W83127  13.326  17.238   2.719
10780W        W83128   1.402   8.213   3.381
10781W        W83129  28.596   3.771   3.784
10782W        W83130  38.054   2.914   2.192
10783W        W83131  16.096  15.134  12.451
10784W        W83132   1.362  16.176   2.858
10785W        W83133  41.847  19.764  10.969
10786W        W83134  21.091  30.612  10.531
10787W        W83135   5.692  21.256  13.332
10788W        W83136  10.663  31.045   3.228
10789W        W83137  26.066  12.292   3.282
10790W        W83138   6.757   2.798  14.769
10791W        W83139  16.579   4.755  12.039
10792W        W83140  28.079   4.814  14.392
10793W        W83141  37.555  22.733  10.550
10794W        W83142  22.528  30.073  12.832
10795W        W83143  14.706  42.797  10.097
10796W        W83144  21.627  10.277   2.676
10797W        W83145  35.028   5.290   3.316
10798W        W83146   1.448  30.148  14.461
10799W        W83147  10.843  10.328  14.297
10800W        W83148  10.749   1.847  11.578
10801W        W83149   5.777   2.334  12.543
10802W        W83150  40.966  25.083  13.334
10803W        W83151   3.258  13.693   0.255
10804W        W83152  41.328   4.433  14.470
10805W        W83153  31.004  21.055   0.337
10806W        W83154  42.506  16.619   4.754
10807W        W83155   1.361  12.221  10.899
10808W        W83156  40.381   3.365   3.714
10809W        W83157   4.218  18.178   0.928
10810W        W83158  27.685   2.229  14.514
10811W        W83159  21.663  36.393  12.861
10812W        W83160  17.771   6.237  10.932
10813W        W83161   6.804  35.520  14.404
10814W        W83162  13.271  37.934   0.736
10815W        W83163   0.253   8.288   2.348
10816W        W83164   8.344  34.882   0.467
10817W        W83165   3.341  27.526  12.394
10818W        W83166  29.449  35.524   1.925
10819W        W83167   3.449  24.561  11.475
10820W        W83168  15.265  16.754   4.266
10821W        W83169  13.181  13.664   1.904
10822W        W83170  28.082  23.214   1.248
10823W        W83171  30.134   5.259   3.336
10824W        W83172   7.876   4.384   3.653
10825W        W83173  38.893  12.776  10.449
10826W        W83174  39.517  16.269  13.839
10827W        W83175  23.604  28.168  12.893
10828W        W83176  44.375  39.432  10.514
10829W        W83177  21.045  26.483   1.843
10830W        W83178  21.685  42.920  13.823
10831W        W83179  16.239  28.562   0.371
10832W        W83180  20.593  20.707   2.728
10833W        W83181  16.111  19.219   1.360
10834W        W83182   7.704  28.641   0.889
10835W        W83183  41.491  40.343  12.572
10836W        W83184  32.018   3.304  10.938
10837W        W83185   6.316  37.499   0.731
10838W        W83186  36.890  43.358  14.456
10839W        W83187  28.508  17.576   2.291
10840W        W83188  30.493   2.337  10.484
10841W        W83189  38.555  19.613  14.819
10842W        W83190  10.346  25.663  13.052
10843W        W83191  19.712  23.512   0.477
10844W        W83192  31.605  36.871   9.990
10845W        W83193  21.067   2.335  13.063
10846W        W83194  31.490  41.006   1.727
10847W        W83195  29.609  31.050   3.827
10848W        W83196  11.132  26.646  14.769
10849W        W83197  28.001  27.453  13.883
10850W        W83198   1.735   5.758   2.352
10851W        W83199  39.019   4.256  10.016
10852W        W83200  33.926   1.450   0.746
10853W        W83201   5.780   4.841   0.812
10854W        W83202  29.957  42.832   4.720
10855W        W83203  42.492   5.208  11.542
10856W        W83204  31.147  44.428   0.422
10857W        W83205  28.018  29.105   0.916
10858W        W83206  36.069  11.717   2.190
10859W        W83207  31.046  17.655  14.842
10860W        W83208   6.684  17.116  14.378
10861W        W83209   5.911  31.936   0.857
10862W        W83210  23.159  25.474  14.823
10863W        W83211  27.018  23.079  12.905
10864W        W83212   1.260  34.510   4.805
10865W        W83213  10.276   0.948  11.587
10866W        W83214  11.788   1.895   3.642
10867W        W83215  33.915  17.653   0.400
10868W        W83216  19.154  31.075   1.333
10869W        W83217  32.023  34.465   9.672
10870W        W83218  18.710  15.647  11.972
10871W        W83219  39.919  29.998   4.308
10872W        W83220  14.231   6.766  14.279
10873W        W83221  18.265  40.934   2.820
10874W        W83222  36.932  38.891  12.492
10875W        W83223  39.855  42.895   1.319
10876W        W83224  25.493  11.862  11.914
10877W        W83225  30.568  24.061  13.995
10878W        W83226  20.075  39.983   4.183
10879W        W83227  34.889   7.273  12.996
10880W        W83228  19.065  11.194  12.903
10881W        W83229  10.733  43.336  14.833
10882W        W83230  23.619  25.472  10.413
10883W        W83231  36.944  27.147   0.385
10884W        W83232  21.180  44.762   1.877
10885W        W83233  12.742   0.471   0.422
10886W        W83234  23.717  22.078   0.838
10887W        W83235  22.216  43.993  14.492
10888W        W83236  20.060  24.148  10.593
10889W        W83237  35.053  43.843  10.949
10890W        W83238  20.679   2.317  12.860
10891W        W83239  40.331  28.162  11.564
10892W        W83240   0.820  22.162  11.109
10893W        W83241  29.442  17.706  12.392
10894W        W83242  41.952  40.856   0.459
10895W        W83243   6.905   6.890  10.615
10896W        W83244   5.750  15.624   2.702
10897W        W83245   0.448   5.852   4.812
10898W        W83246   7.386   5.824  12.887
10899W        W83247  32.978  15.241   3.360
10900W        W83248   2.892   6.206  13.863
10901W        W83249  27.964  32.534   5.202
10902W        W83250   8.829   8.170   4.332
10903W        W83251  15.694   8.400  13.380
10904W        W83252  30.644   1.926  11.385
10905W        W83253  31.601  28.539  14.476
10906W        W83254   0.810  29.072   4.239
10907W        W83255  25.025  31.925   3.659
10908W        W83256  43.011  25.149  11.019
10909W        W83257  29.961  36.593  10.501
10910W        W83258  16.307  39.487   2.347
10911W        W83259  27.168   7.848   4.263
10912W        W83260  13.791   3.259  10.448
10913W        W83261  28.098  31.031  14.966
10914W        W83262  13.217  36.935  14.960
10915W        W83263   2.937   5.722   1.274
10916W        W83264   6.726  44.959   2.711
10917W        W83265  10.286  37.460  14.276
10918W        W83266   7.696  38.930  12.887
10919W        W83267  24.985  36.993  12.001
10920W        W83268   6.681  30.535  12.914
10921W        W83269  44.350  32.987  13.968
10922W        W83270  27.543  33.124  10.470
10923W        W83271   2.399   2.841   4.600
10924W        W83272  44.872   3.956  10.429
10925W        W83273  16.714  27.942   0.804
10926W        W83274  36.401  35.474  13.932
10927W        W83275  17.148  29.953   0.732
10928W        W83276   5.915  12.154  11.520
10929W        W83277  29.467  26.118   4.798
10930W        W83278  22.230  41.857   3.231
10931W        W83279  43.014  33.591  14.960
10932W        W83280  37.079  34.075   2.864
10933W        W83281  30.087  24.042  10.623
10934W        W83282  22.688   1.862   5.119
10935W        W83283  28.622  10.768   3.280
10936W        W83284  12.828   8.665  14.032
10937W        W83285  10.211  37.512   2.755
10938W        W83286  21.569   1.861  11.040
10939W        W83287  20.175  27.066  12.483
10940W        W83288  39.468  27.052  10.552
10941W        W83289  36.057  35.570   3.310
10942W        W83290  30.150   0.760  11.377
10943W        W83291  31.154  17.611   4.818
10944W        W83292  41.028  28.578   4.769
10945W        W83293  23.080  42.865  10.522
10946W        W83294  29.997  44.353  14.355
10947W        W83295  32.453  10.729  13.802
10948W        W83296  11.259  32.031  11.413
10949W        W83297  15.782  11.641   1.297
10950W        W83298   3.421  40.346   5.293
10951W        W83299  24.585  13.230  12.950
10952W        W83300   9.694  17.711   4.692
10953W        W83301   5.851  34.427   1.833
10954W        W83302   9.167  36.073   1.828
10955W        W83303  34.009  27.098   2.249
10956W        W83304  19.658   7.743  12.002
10957W        W83305  33.454  17.716   0.336
10958W        W83306  30.162  16.204   0.370
10959W        W83307  25.080  39.470   3.662
10960W        W83308  44.783  37.461  11.960
10961W        W83309  43.829  36.015  13.847
10962W        W83310  13.669  21.133  12.502
10963W        W83311  31.026  27.017   1.214
10964W        W83312   7.672  16.156   1.881
10965W        W83313  39.944   0.414  14.770
10966W        W83314   4.850  20.728  11.977
10967W        W83315  29.047  34.380   1.240
10968W        W83316   9.353  12.739  14.850
10969W        W83317  26.971  24.064   0.398
10970W        W83318  20.215  10.362   2.770
10971W        W83319   6.357  44.345  13.340
10972W        W83320  34.604   0.899  14.364
10973W        W83321  26.162  38.999   2.680
10974W        W83322  42.289  19.136   2.234
10975W        W83323  27.183  30.456   0.433
10976W        W83324  37.986  25.500  13.009
10977W        W83325  10.363  24.156  12.954
10978W        W83326  15.313  37.960   3.671
10979W        W83327  21.603  39.472   4.753
10980W        W83328  10.875  28.947   4.704
10981W        W83329  40.321  35.512   0.825
10982W        W83330  37.455  24.486   1.910
10983W        W83331   0.827   2.277   0.934
10984W        W83332  15.280   4.773   1.236
10985W        W83333  20.187  19.731  10.134
10986W        W83334  15.293  31.615   0.861
10987W        W83335   3.830  34.469   2.721
10988W        W83336   5.202  23.522  13.013
10989W        W83337  40.854  14.823   3.254
10990W        W83338  17.238  18.130   3.664
10991W        W83339   9.270  30.922   2.200
10992W        W83340  32.498  10.647   1.752
10993W        W83341   6.802  42.477   0.335
10994W        W83342   3.391   5.366  10.951
10995W        W83343  15.099   7.265   3.827
10996W        W83344  29.511  23.706  13.986
10997W        W83345   7.262  22.503  12.888
10998W        W83346  34.968  25.213   1.213
10999W        W83347  27.185  19.221  12.500
11000W        W83348  22.539  23.196  12.497
11001W        W83349  29.079  17.715  13.490
11002W        W83350  26.532  31.411  14.511
11003W        W83351  24.126  44.932   3.214
11004W        W83352  34.551  23.196   0.908
11005W        W83353  19.612  25.662  13.528
11006W        W83354  10.814  26.501   0.428
11007W        W83355  12.649  12.333  10.999
11008W        W83356   4.945  13.728  14.277
11009W        W83357  23.628  40.337   3.843
11010W        W83358  39.000   2.429   1.273
11011W        W83359   6.690  33.981   4.770
11012W        W83360  41.486   4.769   5.261
11013W        W83361  17.081   1.258  12.926
11014W        W83362   6.748   5.842  12.011
11015W        W83363  21.636  32.123   2.387
11016W        W83364  29.498  26.525  13.385
11017W        W83365  36.094  44.446   4.763
11018W        W83366  13.672  33.540   1.435
11019W        W83367  30.122  41.034   2.859
11020W        W83368   4.398   5.376  11.444
11021W        W83369  19.701  18.660   3.847
11022W        W83370  12.696  32.023  13.933
11023W        W83371  11.245  38.831   0.379
11024W        W83372  36.539   5.296   4.234
11025W        W83373  11.132  25.500  11.997
11026W        W83374  10.695  12.686   1.704
11027W        W83375  15.752   5.196   1.717
11028W        W83376   9.389  43.274  10.520
11029W        W83377  33.098  28.078  11.938
11030W        W83378   0.949  32.055  13.991
11031W        W83379  27.676  28.547   3.288
11032W        W83380  26.126  11.699   1.411
11033W        W83381  40.332  19.761   4.794
11034W        W83382  34.466  20.060  11.900
11035W        W83383  22.069  29.563   3.789
11036W        W83384   7.204   2.859   2.822
11037W        W83385  23.594   8.210   2.345
11038W        W83386   8.900  27.073   3.245
11039W        W83387  25.023  12.675  14.854
11040W        W83388  19.732  15.322   3.190
11041W        W83389  39.450  14.262   0.333
11042W        W83390   4.943  29.932  14.796
11043W        W83391  25.491   3.905  12.499
11044W        W83392  38.542  27.624   2.267
11045W        W83393   6.263   6.234  12.827
11046W        W83394  42.821  39.985  11.059
11047W        W83395  29.469  16.591   4.626
11048W        W83396  26.514  17.656  12.463
11049W        W83397   2.805  13.680  11.488
11050W        W83398  39.545  11.764  13.457
11051W        W83399  13.342   2.905   1.724
11052W        W83400   4.230   9.230   3.319
11053W        W83401  14.805   5.382   3.662
11054W        W83402  27.140   0.952  12.897
11055W        W83403  34.048  26.164   1.390
11056W        W83404  12.763   2.363   0.443
11057W        W83405   4.707  31.539  13.808
11058W        W83406   4.360  30.585  14.415
11059W        W83407   8.329  43.779   3.232
11060W        W83408  26.626  21.638  13.824
11061W        W83409   2.817  36.957   2.310
11062W        W83410  11.764  27.501   2.752
11063W        W83411   6.328  14.183   2.194
11064W        W83412  16.107  12.355   5.118
11065W        W83413  10.736  40.514  11.873
11066W        W83414  43.489  33.005  14.867
11067W        W83415  34.506  27.462  10.962
11068W        W83416  14.747  38.918   0.275
11069W        W83417  13.804   5.240   3.276
11070W        W83418  14.295  11.814  12.935
11071W        W83419  34.952  34.042   4.323
11072W        W83420  37.537  35.464  13.510
11073W        W83421  34.614  40.961  10.435
11074W        W83422  16.098   0.417  14.860
11075W        W83423   4.430  42.526   1.881
11076W        W83424   1.373  16.177   0.382
11077W        W83425  31.036  26.504  13.954
11078W        W83426  14.680  21.746  13.825
11079W        W83427  22.627  23.642   9.944
11080W        W83428  37.412   2.459   1.392
11081W        W83429  25.540  12.844   0.444
11082W        W83430  27.511   6.356  11.546
11083W        W83431   6.428  29.025  12.890
11084W        W83432  29.466  34.006   3.823
11085W        W83433  26.551  18.595   5.170
11086W        W83434   0.834  15.817  12.574
11087W        W83435  26.523   2.834  14.866
11088W        W83436  34.995  42.436   2.408
11089W        W83437  10.364  10.304  14.887
11090W        W83438  19.676  31.528  11.534
11091W        W83439  40.514  43.927   1.378
11092W        W83440  16.648  26.019  11.476
11093W        W83441   5.854  19.675  10.922
11094W        W83442  19.616  33.109  10.415
11095W        W83443   3.340  39.945   2.838
11096W        W83444  24.574  38.570   1.887
11097W        W83445  28.048  33.589   0.429
11098W        W83446  27.157  20.090  10.423
11099W        W83447   8.726  11.361   1.811
11100W        W83448   7.291   8.190   3.241
11101W        W83449   5.734  24.563  14.850
11102W        W83450  28.100   5.402   1.440
11103W        W83451  40.424   0.323   1.860
11104W        W83452  12.673  16.661  10.593
11105W        W83453  34.084  26.537   2.876
11106W        W83454  23.001  32.043  10.420
11107W        W83455  17.619  13.646  13.004
11108W        W83456   9.349  39.870  13.426
11109W        W83457   0.749  34.069   3.353
11110W        W83458  20.697  40.511   1.795
11111W        W83459   2.909  16.696  10.945
11112W        W83460   1.430  26.609  14.364
11113W        W83461  30.935  29.447   3.705
11114W        W83462  16.302  32.585  12.408
11115W        W83463  27.083  11.131   2.231
11116W        W83464  41.378   7.728   0.832
11117W        W83465  31.912  40.009  12.094
11118W        W83466  13.243  39.870  13.845
11119W        W83467  33.615  12.348   9.966
11120W        W83468  35.476   8.342  11.969
11121W        W83469  35.395  38.447  12.510
11122W        W83470  44.339  19.099  14.022
11123W        W83471  34.402  27.177  14.986
11124W        W83472  32.499  28.950  14.358
11125W        W83473  14.174  41.410   2.813
11126W        W83474  37.011  32.127  13.481
11127W        W83475  23.139  30.092   4.747
11128W        W83476  34.898  20.673   4.710
11129W        W83477  32.523  29.002  12.893
11130W        W83478   9.254  30.628   1.771
11131W        W83479  34.600  31.014   2.239
11132W        W83480  31.432  17.136   0.375
11133W        W83481  24.977  36.080  11.038
11134W        W83482  24.976  21.242   4.673
11135W        W83483  14.123  17.760   4.741
11136W        W83484  26.480  31.527   4.192
11137W        W83485  12.261   8.324  10.626
11138W        W83486  43.866   1.326   1.830
11139W        W83487  36.541  16.589  13.056
11140W        W83488   0.324  38.450   3.838
11141W        W83489   4.919   9.823  13.019
11142W        W83490  17.702   8.305  13.346
11143W        W83491  30.453   2.938  10.640
11144W        W83492  20.753  35.469  10.481
11145W        W83493  36.939  14.820  14.501
11146W        W83494  26.501   3.315   9.977
11147W        W83495  29.427  44.500  14.472
11148W        W83496  17.221  20.254  11.984
11149W        W83497  35.570  17.235   0.351
11150W        W83498  23.029  42.031  11.888
11151W        W83499   3.414   6.307  14.794
11152W        W83500  14.751  34.374  11.921
11153W        W83501  43.381  20.660  12.046
11154W        W83502  14.112  20.705  10.572
11155W        W83503  23.494  12.245  14.392
11156W        W83504  27.630   4.245  10.503
11157W        W83505  35.573  43.813   1.809
11158W        W83506   0.293  24.679   3.851
11159W        W83507   2.432  11.668  12.089
11160W        W83508  22.246  29.994   0.242
11161W        W83509  35.947  32.496  14.791
11162W        W83510  40.017  34.373   0.435
11163W        W83511  10.384   1.338  10.565
11164W        W83512  25.486  40.438   3.302
11165W        W83513  31.419  31.905  11.425
11166W        W83514  21.671  25.989  14.781
11167W        W83515  13.633   3.302  11.525
11168W        W83516  40.991  10.649  11.897
11169W        W83517   9.810  28.122   3.716
11170W        W83518   6.867  21.581  13.946
11171W        W83519  23.104  41.829  14.430
11172W        W83520  35.376   5.197   3.163
11173W        W83521  15.255  24.112  14.975
11174W        W83522  22.157  43.463   1.858
11175W        W83523  12.205   3.386  13.827
11176W        W83524  40.432  30.923  14.940
11177W        W83525   0.779  18.287   1.248
11178W        W83526  21.116  23.193  10.574
11179W        W83527  15.759  17.741  13.381
11180W        W83528  15.190  12.307  12.480
11181W        W83529  30.959  25.986  12.826
11182W        W83530  33.481   6.211  14.464
11183W        W83531  44.359  38.369   5.145
11184W        W83532   5.722   2.781   1.247
11185W        W83533  23.638  10.344  14.276
11186W        W83534   8.829  23.532   2.338
11187W        W83535  18.187  32.429  13.477
11188W        W83536  29.121  34.492   4.157
11189W        W83537   5.326  43.971   4.811
11190W        W83538  19.536  44.473  11.995
11191W        W83539  42.334  32.951   0.278
11192W        W83540  23.176  30.134   1.845
11193W        W83541  30.004  43.294  13.311
11194W        W83542  13.327  22.165  13.887
11195W        W83543  33.475  10.347  12.360
11196W        W83544  35.897  24.077  10.429
11197W        W83545  12.713   1.789   4.333
11198W        W83546  31.928  30.495   0.965
11199W        W83547  34.039  31.425   3.244
11200W        W83548  36.971   7.178   4.313
11201W        W83549  36.072  11.644  14.413
11202W        W83550  17.263  21.518  14.500
11203W        W83551  27.957  38.022   2.357
11204W        W83552   7.901  21.684  11.507
11205W        W83553  33.946  23.038  10.618
11206W        W83554  40.331  22.180  11.401
11207W        W83555   8.808  19.176   4.775
11208W        W83556  24.224  24.157   3.841
11209W        W83557  32.606   1.778  11.948
11210W        W83558   8.375  39.338   1.224
11211W        W83559  39.394   0.778   1.740
11212W        W83560  37.926   8.321  13.821
11213W        W83561  17.132  16.221  11.088
11214W        W83562  30.016  24.210   3.754
11215W        W83563  36.556  37.524   4.169
11216W        W83564   7.345  12.826   2.235
11217W        W83565  29.446  41.314   0.740
11218W        W83566  13.801  22.230  10.933
11219W        W83567  34.468  12.343   2.342
11220W        W83568  20.093  12.641   3.794
11221W        W83569  35.963  10.358   5.264
11222W        W83570  11.726   0.284   2.334
11223W        W83571   9.334  33.625  12.025
11224W        W83572  42.969   4.826   3.246
11225W        W83573  42.920  42.964   1.749
11226W        W83574  25.660   9.172  14.795
11227W        W83575  32.927  26.002  13.040
11228W        W83576  32.507  20.077   1.450
11229W        W83577  14.690   1.768  11.589
11230W        W83578   4.253  28.175   3.252
11231W        W83579   4.268  15.141  11.982
11232W        W83580  27.159  25.188  11.920
11233W        W83581  22.171  43.506   2.667
11234W        W83582  27.071  23.654  14.341
11235W        W83583  28.619  39.434  12.011
11236W        W83584  14.219  13.645  10.615
11237W        W83585  14.742   5.714   2.339
11238W        W83586  10.229  26.524   0.834
11239W        W83587  43.416  32.428  10.425
11240W        W83588  11.632  32.046  12.930
11241W        W83589  44.907  22.701   2.387
11242W        W83590   7.767  21.106   2.702
11243W        W83591  41.453  32.898  11.914
11244W        W83592  13.214   5.706   1.830
11245W        W83593  25.536  19.215   3.710
11246W        W83594  14.766  12.830   0.766
11247W        W83595  30.570   5.203   3.177
11248W        W83596  20.242  20.644   0.455
11249W        W83597  11.756  37.487  13.043
11250W        W83598   4.438   3.251   2.882
11251W        W83599  11.849  11.155  14.912
11252W        W83600  12.817  42.019   0.248
11253W        W83601  34.936   8.721  12.054
11254W        W83602  22.101  30.945  10.457
11255W        W83603  41.876  35.927   3.314
11256W        W83604  33.385  17.199  14.975
11257W        W83605   6.805  24.687   4.244
11258W        W83606  42.298  19.595  14.340
11259W        W83607   2.762  26.633  13.872
11260W        W83608  33.445  38.025   1.326
11261W        W83609   5.284  43.401   2.712
11262W        W83610  43.297  10.197  10.540
11263W        W83611  32.476  17.163  14.488
11264W        W83612  31.141  10.848   0.449
11265W        W83613   4.828  30.540   3.196
11266W        W83614  11.185  30.515  10.587
11267W        W83615   2.966  43.799  12.994
11268W        W83616   2.800  30.482   1.721
11269W        W83617  22.652   6.303   1.697
11270W        W83618   5.694  34.505   0.333
11271W        W83619   2.354  19.739  12.877
11272W        W83620  36.007  14.203   3.199
11273W        W83621  11.152  31.937   2.786
11274W        W83622  27.125  43.877  11.054
11275W        W83623  21.627   6.328   4.123
11276W        W83624   5.218  28.459  14.023
11277W        W83625  20.151  42.982  13.946
11278W        W83626  39.551   8.656   1.291
11279W        W83627   3.828  36.960  13.887
11280W        W83628  33.439   5.930  12.901
11281W        W83629  19.670  33.468   3.275
11282W        W83630  15.154   2.303   1.872
11283W        W83631  37.542  18.058  10.620
11284W        W83632  13.739  30.657   2.868
11285W        W83633  43.439   1.465  14.282
11286W        W83634  28.099  11.146   1.253
11287W        W83635  25.065  27.982   0.380
11288W        W83636   3.929  30.971   4.193
11289W        W83637   1.347  22.242   0.443
11290W        W83638  17.176  18.775  11.516
11291W        W83639  16.271  22.508  11.460
11292W        W83640  31.972  42.490  10.497
11293W        W83641  11.766   3.910   9.995
11294W        W83642  27.492  29.169   2.858
11295W        W83643  20.699  42.930   2.248
11296W        W83644  34.398  21.584   4.664
11297W        W83645  18.169   1.478  10.465
11298W        W83646  39.028  23.529  10.949
11299W        W83647  20.059  43.406  11.970
11300W        W83648  36.979  36.476   2.824
11301W        W83649   4.812  23.584  14.507
11302W        W83650   1.739   4.344  13.838
11303W        W83651  34.912  15.204  12.507
11304W        W83652   5.283  26.567   4.141
11305W        W83653  18.722   1.955  12.523
11306W        W83654  36.097  38.050   2.222
11307W        W83655  23.563   9.730  10.613
11308W        W83656  14.305  40.527   4.186
11309W        W83657  38.044  28.521  12.030
11310W        W83658  14.726  29.485  14.879
11311W        W83659  29.502   0.777  10.031
11312W        W83660  19.062  38.974  10.564
11313W        W83661  32.013  20.533   0.366
11314W        W83662   9.718  13.118  12.046
11315W        W83663   7.826  10.831   2.800
11316W        W83664   7.340  17.109  12.926
11317W        W83665  18.293  17.298   3.365
11318W        W83666  29.032  38.483  14.399
11319W        W83667   0.480  39.902   2.267
11320W        W83668   8.681  23.055   4.667
11321W        W83669  31.990  37.848  12.827
11322W        W83670  34.444  12.204  11.896
11323W        W83671  24.045  20.090   2.691
11324W        W83672  38.043   8.382  10.974
11325W        W83673  34.928  31.544   1.437
11326W        W83674  28.969  42.863   3.281
11327W        W83675  32.029  21.202  11.598
11328W        W83676   7.817  18.594  12.967
11329W        W83677  28.057  34.954   3.228
11330W        W83678  29.526   1.315  14.403
11331W        W83679  41.300  28.500   4.751
11332W        W83680  36.037  41.381  11.098
11333W        W83681   7.354  16.274   2.244
11334W        W83682   3.401  16.203   2.707
11335W        W83683  26.978  11.755  12.378
11336W        W83684   1.962  26.623   2.666
11337W        W83685  37.439  42.506   3.653
11338W        W83686  23.164  33.900  11.372
11339W        W83687  24.078  41.310  14.303
11340W        W83688  24.127  12.796  14.872
11341W        W83689  12.812  27.482   3.263
11342W        W83690  31.582   9.656   1.741
11343W        W83691  25.048  38.570  12.501
11344W        W83692  26.571  33.582   2.265
11345W        W83693  44.874  12.213   2.672
11346W        W83694  31.965   7.352  10.043
11347W        W83695  44.313  15.582  14.512
11348W        W83696  16.578   1.466  12.896
11349W        W83697  34.918   5.692   4.204
11350W        W83698  19.745  15.323   2.206
11351W        W83699  18.199  17.766   1.408
11352W        W83700  32.541  31.077   2.333
11353W        W83701  37.028  40.330   2.886
11354W        W83702  21.193   8.321  14.341
11355W        W83703   7.793  44.316  14.372
11356W        W83704  33.995  14.244   2.788
11357W        W83705  11.336  16.749   0.951
11358W        W83706  33.878  27.503  13.934
11359W        W83707  43.945  29.001  14.403
11360W        W83708   8.369   9.802   2.809
11361W        W83709   5.230  19.697   1.765
11362W        W83710  39.993  37.553  10.627
11363W        W83711  30.916  11.669   3.728
11364W        W83712   0.464  33.524   4.113
11365W        W83713  12.134  27.628   0.340
11366W        W83714  25.675  41.802   4.242
11367W        W83715   5.233   0.864   2.293
11368W        W83716  26.638   4.226   3.303
11369W        W83717  13.693   0.971   4.704
11370W        W83718  10.384  33.611  12.963
11371W        W83719   4.389  35.430  14.852
11372W        W83720  13.824  32.991   3.283
11373W        W83721   1.347   2.255  12.565
11374W        W83722  42.968   5.871  14.978
11375W        W83723  42.404  32.473  11.552
11376W        W83724   7.877   4.422  14.357
11377W        W83725  31.020  40.815   1.230
11378W        W83726  24.999  18.590  12.399
11379W        W83727  33.125  41.909  14.828
11380W        W83728  16.794  23.239   4.323
11381W        W83729   7.834  38.489   1.698
11382W        W83730  35.075  12.789   3.826
11383W        W83731  31.573  44.348   2.181
11384W        W83732  10.741  44.445  14.774
11385W        W83733  15.783  39.448  11.088
11386W        W83734  26.567  43.290   2.799
11387W        W83735  16.788  13.342   0.465
11388W        W83736   1.975  42.316   4.671
11389W        W83737  15.238  15.188   0.476
11390W        W83738  41.960  42.309  10.493
11391W        W83739  17.295  13.172   1.797
11392W        W83740   9.870  24.694   3.185
11393W        W83741  39.998  27.676   0.762
11394W        W83742  15.735  36.491  10.627
11395W        W83743  22.675  43.911  11.391
11396W        W83744  15.824  20.749   4.598
11397W        W83745  22.074  32.083  10.455
11398W        W83746  42.906  37.546   4.194
11399W        W83747   7.275  29.448  10.536
11400W        W83748  12.761  11.719  10.975
11401W        W83749  40.938  40.319  14.874
11402W        W83750  34.879  28.511  14.920
11403W        W83751  24.532   9.791  10.141
11404W        W83752  16.668  36.490  13.310
11405W        W83753  30.460  18.247   1.919
11406W        W83754  13.810  15.763  14.975
11407W        W83755   5.780  19.567   2.759
11408W        W83756  22.671  30.925  10.534
11409W        W83757   7.181  11.216  13.855
11410W        W83758  44.325  12.301   3.724
11411W        W83759  22.662  13.219  12.481
11412W        W83760  34.558   3.876   4.744
11413W        W83761  42.959  21.582  11.591
11414W        W83762  36.529  13.193   1.709
11415W        W83763  23.101  12.611   3.743
11416W        W83764  17.703  39.502   1.415
11417W        W83765  22.728  24.628  11.405
11418W        W83766  42.791   8.850   4.828
11419W        W83767  18.224   0.783   4.816
11420W        W83768  41.021   4.303  12.049
11421W        W83769  14.782  16.078   4.798
11422W        W83770  44.404   6.332  12.953
11423W        W83771   7.716  27.487   2.408
11424W        W83772  30.623  22.135   0.258
11425W        W83773  15.302  12.310   1.446
11426W        W83774  25.577   7.300  10.056
11427W        W83775   9.248  31.462  13.358
11428W        W83776  42.877  29.626  14.347
11429W        W83777  30.136  21.621   0.863
11430W        W83778  15.672  39.486  14.508
11431W        W83779   8.750  11.263  14.413
11432W        W83780  16.637  28.070  11.449
11433W        W83781  28.064   1.466   1.290
11434W        W83782  28.569  31.407  14.848
11435W        W83783  14.299   6.884  11.043
11436W        W83784  29.079  18.225   2.324
11437W        W83785  43.402  10.647   4.694
11438W        W83786  17.286  44.350  13.815
11439W        W83787  21.098  44.923  13.951
11440W        W83788  22.207   8.770   1.284
11441W        W83789   7.243   2.244   5.253
11442W        W83790   0.322  40.880   4.659
11443W        W83791  10.335  25.500   0.482
11444W        W83792  11.366  43.803  13.439
11445W        W83793  16.072  17.115   0.334
11446W        W83794  37.085  32.031  14.957
11447W        W83795  11.349  26.501  12.000
11448W        W83796   2.878  39.013   1.329
11449W        W83797  19.156   8.675   2.740
11450W        W83798  17.617   2.397  13.320
11451W        W83799  13.760   8.239  11.965
11452W        W83800   0.923   1.762   3.214
11453W        W83801  41.833  23.171   4.641
11454W        W83802   0.425   4.774  13.456
11455W        W83803  43.296  10.649   1.712
11456W        W83804   6.784  23.994   1.736
11457W        W83805   3.852  16.180   1.300
11458W        W83806  40.473  13.117   3.749
11459W        W83807  19.076  33.544  11.083
11460W        W83808  17.251  32.595  10.459
11461W        W83809  10.351  11.292  14.984
11462W        W83810  33.031  38.995  10.941
11463W        W83811  24.602  43.768  11.942
11464W        W83812  29.485  44.299   2.764
11465W        W83813  19.092   9.861  12.974
11466W        W83814  43.961  18.789   2.257
11467W        W83815  28.069   4.795  10.482
11468W        W83816  29.496  18.100   2.271
11469W        W83817  18.070   8.893   2.304
11470W        W83818  22.718  24.669  13.848
11471W        W83819  22.694   1.822   2.795
11472W        W83820  12.230  40.803  11.015
11473W        W83821  27.063  31.944   3.238
11474W        W83822  11.305  17.606  12.007
11475W        W83823   2.824  24.135   0.362
11476W        W83824  36.067   0.286   1.297
11477W        W83825  29.084  36.396  10.637
11478W        W83826  20.675  32.900   1.345
11479W        W83827  33.430  32.041   2.221
11480W        W83828  40.325   1.742  14.444
11481W        W83829  42.466  14.327  14.926
11482W        W83830  13.798  20.186  11.546
11483W        W83831  19.647  13.327   1.213
11484W        W83832  20.580  18.615  13.437
11485W        W83833  18.608  41.995  12.920
11486W        W83834  38.846  17.200   4.681
11487W        W83835  20.127  15.242   4.224
11488W        W83836   0.431  38.510   4.767
11489W        W83837  37.462  16.219  13.022
11490W        W83838  21.181  25.187   1.215
11491W        W83839  21.256  28.447  10.435
11492W        W83840  42.451  19.243  12.891
11493W        W83841  40.352  35.481  11.541
11494W        W83842  29.040   1.853  11.445
11495W        W83843  21.675   6.336  12.879
11496W        W83844  27.655  10.268   1.761
11497W        W83845  17.761  41.437  14.395
11498W        W83846   1.403   9.355   1.309
11499W        W83847  38.830   3.240   0.754
11500W        W83848   5.298  10.728   2.322
11501W        W83849  12.755  39.353  14.486
11502W        W83850   4.770  31.921   2.356
11503W        W83851  32.609  31.508  11.059
11504W        W83852   5.731  30.094  12.348
11505W        W83853  15.661   4.270   3.775
11506W        W83854   6.913   1.331   1.854
11507W        W83855  42.817  33.014   0.340
11508W        W83856   5.230  21.737   3.866
11509W        W83857   7.373  19.092  11.924
11510W        W83858   2.788  16.811   3.791
11511W        W83859   6.322   5.321  14.441
11512W        W83860  12.337  23.041  12.561
11513W        W83861  35.586  33.442  14.792
11514W        W83862  29.596   9.653  14.904
11515W        W83863  34.008  38.032   0.446
11516W        W83864  29.584   0.312   4.298
11517W        W83865   0.341   3.451  13.390
11518W        W83866   7.726   9.846   4.206
11519W        W83867  37.072  29.068   2.740
11520W        W83868  33.949  22.091   2.750
11521W        W83869  35.982   9.322   2.778
11522W        W83870  19.686  12.296   0.385
11523W        W83871   7.683  32.906  11.007
11524W        W83872   9.383  22.536   2.214
11525W        W83873  33.428  18.741   0.883
11526W        W83874   5.776  15.303   4.701
11527W        W83875  29.949  16.077  10.609
11528W        W83876  10.711  25.125  14.463
11529W        W83877  15.090   6.800   2.712
11530W        W83878   0.828   3.900   2.699
11531W        W83879   4.894  34.571   0.433
11532W        W83880   0.950   7.862   0.329
11533W        W83881  22.224  40.440  12.420
11534W        W83882  24.188  28.628   3.839
11535W        W83883  16.114  36.040  13.872
11536W        W83884  10.789  42.345   2.184
11537W        W83885  18.557  22.742   3.230
11538W        W83886  41.341  35.050   3.179
11539W        W83887  10.734  44.928   4.124
11540W        W83888  23.638  25.493   3.180
11541W        W83889  29.549  18.071   1.372
11542W        W83890  40.003  42.918  11.445
11543W        W83891  21.698  29.489  10.585
11544W        W83892  29.570  13.786  13.927
11545W        W83893  34.380  37.934   2.712
11546W        W83894  34.521  28.080  12.343
11547W        W83895   5.926  16.580   3.746
11548W        W83896  29.535   0.813  14.472
11549W        W83897  19.229  25.068  10.945
11550W        W83898   3.794  20.658   3.781
11551W        W83899  18.693  22.566   1.719
11552W        W83900  29.616   8.281   0.931
11553W        W83901   7.232  17.074  14.497
11554W        W83902  10.371  31.500  11.508
11555W        W83903  30.572  27.048  13.395
11556W        W83904   4.411  23.520  12.555
11557W        W83905  31.947  31.598  14.844
11558W        W83906  13.110  40.398  14.948
11559W        W83907  27.085  34.942   0.939
11560W        W83908  15.735  35.531  11.877
11561W        W83909  17.073  24.225   1.905
11562W        W83910  14.778   4.769  13.473
11563W        W83911  26.006  22.679  14.947
11564W        W83912  38.034   8.211  10.003
11565W        W83913   1.732   7.809  14.798
11566W        W83914  11.257  29.143   4.319
11567W        W83915  28.607  10.776  11.087
11568W        W83916   2.943  18.150  14.338
11569W        W83917  12.693  17.077   4.193
11570W        W83918  37.961   1.284   1.707
11571W        W83919  36.428  39.978  10.436
11572W        W83920  40.923  26.129   0.844
11573W        W83921  37.958   9.704  10.633
11574W        W83922  40.388  38.006   2.853
11575W        W83923  11.224  12.825   4.331
11576W        W83924  37.877  19.589   0.812
11577W        W83925  39.981  15.091   3.193
11578W        W83926  36.980   0.837   1.406
11579W        W83927   8.266  21.214  13.983
11580W        W83928  15.743  44.966  13.403
11581W        W83929  21.193  31.626   4.352
11582W        W83930  42.842  13.294   4.742
11583W        W83931  26.679   5.248  10.431
11584W        W83932  37.507  28.654  12.893
11585W        W83933   4.912   6.412  13.442
11586W        W83934  33.565   6.305   3.661
11587W        W83935  10.680   7.668   2.896
11588W        W83936  15.811  24.196  14.303
11589W        W83937  40.879  21.192   9.943
11590W        W83938  23.529  27.108  12.411
11591W        W83939  42.360  29.035   1.905
11592W        W83940  28.093  33.056   1.734
11593W        W83941  27.985   7.214  14.948
11594W        W83942  23.644   7.317  14.880
11595W        W83943  26.043  36.352  11.591
11596W        W83944  22.603   3.315   9.960
11597W        W83945  12.258   9.177   3.710
11598W        W83946  12.781  29.585  13.933
11599W        W83947  42.315   5.921   4.740
11600W        W83948  44.888  21.154  14.960
11601W        W83949   6.241  24.173   3.224
11602W        W83950  16.568  38.505  12.542
11603W        W83951  33.088  44.258   3.235
11604W        W83952  11.749   3.838  11.964
11605W        W83953  29.173  36.420   2.679
11606W        W83954   2.246   9.798   1.798
11607W        W83955   2.926  17.794   1.726
11608W        W83956  13.818   7.269   4.668
11609W        W83957   8.394  15.174  13.885
11610W        W83958  10.637  11.162  11.981
11611W        W83959  38.348   0.801  12.416
11612W        W83960  43.510  18.277   3.170
11613W        W83961  26.094  15.193   1.378
11614W        W83962  20.216   0.335   1.236
11615W        W83963  21.741  13.765  11.953
11616W        W83964  23.648  34.054   2.748
11617W        W83965  18.736   5.383  13.048
11618W        W83966  11.693  14.720  13.404
11619W        W83967  31.480  26.584  12.852
11620W        W83968  23.086  13.731   1.850
11621W        W83969  37.447   7.361   4.748
11622W        W83970   3.897   9.736  13.350
11623W        W83971  43.404  27.518  11.930
11624W        W83972   9.341   9.848  10.936
11625W        W83973  35.363   8.190   2.793
11626W        W83974  19.221  33.903  13.321
11627W        W83975   9.822  30.503   0.399
11628W        W83976  22.549  27.687   4.775
11629W        W83977  20.584  21.712   4.725
11630W        W83978  23.646  18.655   4.140
11631W        W83979  30.162  35.949   1.750
11632W        W83980  37.031   4.263   2.278
11633W        W83981  35.084  42.009  10.923
11634W        W83982  35.421   7.727   4.202
11635W        W83983   3.263  36.074   0.833
11636W        W83984   0.406  11.292   4.642
11637W        W83985   6.819  24.493  11.856
11638W        W83986  23.533  20.136   4.260
11639W        W83987  40.011  28.514   4.166
11640W        W83988   1.941  39.940  10.971
11641W        W83989  21.142  31.568  14.370
11642W        W83990   7.779  25.603   2.752
11643W        W83991  11.662   9.251  13.855
11644W        W83992   7.211  19.227   3.248
11645W        W83993  30.084  40.840   4.121
11646W        W83994  12.120  30.502  10.469
11647W        W83995  29.941  12.202   4.198
11648W        W83996   3.266  33.024   4.721
11649W        W83997  44.904  44.787  14.284
11650W        W83998  33.571  27.966   2.709
11651W        W83999  16.262  17.651   3.244
11652W        W84000  24.507   4.918   2.851
11653W        W84001   6.868  29.590   1.753
11654W        W84002  17.133  43.446  11.440
11655W        W84003  26.491   0.910   0.757
11656W        W84004  28.067  26.075  14.982
11657W        W84005  27.569   7.368  11.417
11658W        W84006  36.416  34.512  14.407
11659W        W84007  42.468  40.397   3.262
11660W        W84008  40.973  13.701  13.545
11661W        W84009  27.156  18.216   1.274
11662W        W84010  13.144  23.495  10.620
11663W        W84011  38.021  44.482   9.945
11664W        W84012  37.386   0.379  11.889
11665W        W84013  40.318   5.201  11.382
11666W        W84014  27.623   4.220   3.271
11667W        W84015  27.465  36.929  13.869
11668W        W84016  42.313   6.328   2.316
11669W        W84017  35.892  22.050   0.870
11670W        W84018  24.199  25.997  14.361
11671W        W84019  21.527  39.809  11.896
11672W        W84020  11.136   1.810   3.759
11673W        W84021   4.891  28.665  13.969
11674W        W84022  16.173  39.908  13.968
11675W        W84023  19.053   2.798   4.191
11676W        W84024  13.289  22.093  10.530
11677W        W84025  42.014   1.949   3.663
11678W        W84026  14.249  12.269   2.793
11679W        W84027  26.091  26.108   1.762
11680W        W84028  37.383  29.522   4.731
11681W        W84029   0.430   6.845   1.434
11682W        W84030  14.738  11.350   1.868
11683W        W84031  20.619   7.239  12.825
11684W        W84032   1.414   9.320  14.377
11685W        W84033  27.680  21.524  13.313
11686W        W84034  12.223  21.073   0.415
11687W        W84035  30.052  11.681   2.348
11688W        W84036  18.777  42.839  14.339
11689W        W84037   2.285  12.779  11.860
11690W        W84038   2.374  14.663  11.082
11691W        W84039  41.983  19.591  11.394
11692W        W84040   8.206  28.973  10.469
11693W        W84041  40.980  16.752  11.462
11694W        W84042   1.299  10.300  10.424
11695W        W84043  21.538  35.896  14.484
11696W        W84044  43.362   6.823  11.101
11697W        W84045  18.124  42.847  13.954
11698W        W84046  34.430  21.184   3.784
11699W        W84047  34.876  37.545   1.758
11700W        W84048   7.315  34.432  14.758
11701W        W84049  20.218  33.062   4.796
11702W        W84050   6.764  40.877  12.002
11703W        W84051  25.492  23.080  14.359
11704W        W84052   9.291  39.998   2.859
11705W        W84053  13.139  44.495  10.408
11706W        W84054  31.578  12.787  10.454
11707W        W84055  32.624   2.298   2.364
11708W        W84056   6.262  27.131  13.387
11709W        W84057   0.890  33.606   3.734
11710W        W84058  44.261  26.497   3.790
11711W        W84059  28.613  32.020  14.027
11712W        W84060  18.770  34.606  14.015
11713W        W84061  23.704  21.586  12.434
11714W        W84062  14.277  15.635  10.532
11715W        W84063  10.647  18.125  10.496
11716W        W84064   4.450   5.192  10.545
11717W        W84065  41.360   8.338   3.184
11718W        W84066  44.387  18.643  14.323
11719W        W84067  24.669  39.326   0.448
11720W        W84068  24.705   8.403  10.981
11721W        W84069  16.753  14.728   3.827
11722W        W84070   8.655  20.135  14.880
11723W        W84071  15.135  36.082  11.065
11724W        W84072  42.352   6.295  11.602
11725W        W84073  22.624  36.400  11.558
11726W        W84074  42.972   2.227  12.012
11727W        W84075  44.759  33.123   0.767
11728W        W84076  22.701   3.248  12.538
11729W        W84077   3.380  22.083  14.998
11730W        W84078  23.599  11.687   2.769
11731W        W84079   4.875   5.876   3.778
11732W        W84080  11.663  37.977  13.398
11733W        W84081  28.458  22.541  11.477
11734W        W84082  34.891  12.282   3.183
11735W        W84083  17.182   7.844   1.219
11736W        W84084  19.616  32.586   3.820
11737W        W84085  39.489  42.496   3.736
11738W        W84086   3.263  19.263   2.722
11739W        W84087  15.100   3.443  14.761
11740W        W84088  36.425  24.186   4.139
11741W        W84089  14.656  36.439   2.666
11742W        W84090  10.635  25.617  10.466
11743W        W84091  35.516  34.108   3.168
11744W        W84092   6.274  21.032  10.893
11745W        W84093  43.317  36.515  12.840
11746W        W84094  24.227  27.026   2.210
11747W        W84095  20.734   9.226   3.317
11748W        W84096  14.251  29.629   2.408
11749W        W84097  43.312   3.877   3.649
11750W        W84098   9.316  15.604  10.916
11751W        W84099   3.384  20.254  12.515
11752W        W84100  17.704  18.750   0.830
11753W        W84101  33.886  29.430   0.728
11754W        W84102  35.099  29.979   0.303
11755W        W84103   4.259  34.535   2.358
11756W        W84104  10.688  40.812  11.584
11757W        W84105  37.899  19.652   9.960
11758W        W84106  22.522  10.820   5.771
11759W        W84107  44.455   7.830  13.795
11760W        W84108  12.206   7.811  12.045
11761W        W84109  22.132  33.048   3.661
11762W        W84110  14.210  35.936  14.492
11763W        W84111  26.039  43.421   2.362
11764W        W84112  16.127   5.694   1.394
11765W        W84113  34.970  11.754  14.291
11766W        W84114  13.756   0.293  10.943
11767W        W84115  40.862  38.544  14.464
11768W        W84116  24.214  44.358   0.345
11769W        W84117   7.752   9.862   4.634
11770W        W84118  39.538  44.307  10.072
11771W        W84119  19.579  23.036   4.597
11772W        W84120  23.672   7.322   9.609
11773W        W84121  23.497  41.035   4.607
11774W        W84122  38.510  37.485   1.357
11775W        W84123  18.736  11.804   0.731
11776W        W84124  17.189   4.245   4.148
11777W        W84125  40.940  37.884  13.482
11778W        W84126  14.213  16.765  14.510
11779W        W84127  12.264   0.388   4.695
11780W        W84128  16.313  18.147   2.301
11781W        W84129  24.629  26.117  12.985
11782W        W84130  41.983  37.972  14.515
11783W        W84131  15.162   5.290   1.353
11784W        W84132  25.219   8.244   1.883
11785W        W84133  23.078  26.190   0.305
11786W        W84134  34.385  11.676   0.356
11787W        W84135  24.670  37.425   4.139
11788W        W84136  32.416  30.430   4.659
11789W        W84137  25.700  44.423  12.023
11790W        W84138  22.046  21.136  10.984
11791W        W84139  30.998  30.617   5.190
11792W        W84140   5.209  27.638  10.894
11793W        W84141  36.582  29.518  10.431
11794W        W84142  32.475   2.442  11.057
11795W        W84143   0.981  24.123   4.777
11796W        W84144   4.426   4.880   3.815
11797W        W84145  16.706  34.947  14.357
11798W        W84146  27.074   0.389  11.088
11799W        W84147  17.193  40.840  11.516
11800W        W84148  20.264   4.414   1.296
11801W        W84149  32.483  35.380   4.704
11802W        W84150   4.442  39.518   0.343
11803W        W84151  15.699   6.210   0.798
11804W        W84152   1.782   5.870   4.225
11805W        W84153  26.596  13.158  10.492
11806W        W84154  41.459  42.954   4.268
11807W        W84155  23.171  36.363  13.310
11808W        W84156   0.288  35.910   4.610
11809W        W84157   9.351   5.320   2.198
11810W        W84158  27.637   8.275  12.995
11811W        W84159  20.618  33.530  14.960
11812W        W84160  18.235  29.638  10.057
11813W        W84161  31.511   6.726   4.639
11814W        W84162  17.140  23.736   2.191
11815W        W84163  33.473  25.605   1.233
11816W        W84164  14.296  23.630   3.676
11817W        W84165  16.138  38.046  11.028
11818W        W84166  16.291  25.707   3.323
11819W        W84167  23.716  29.497  12.856
11820W        W84168  33.522  37.434  11.534
11821W        W84169  36.869  15.615  13.957
11822W        W84170  11.827  33.433   2.241
11823W        W84171  26.690  42.928   2.853
11824W        W84172  14.289  21.679  12.968
11825W        W84173  15.589  21.197   0.424
11826W        W84174  37.067  31.469  13.916
11827W        W84175  16.243  39.005  11.082
11828W        W84176  30.020  32.629  11.597
11829W        W84177  32.028  30.440  12.985
11830W        W84178  17.776  30.503  11.115
11831W        W84179  41.376  43.823  10.496
11832W        W84180  44.900   2.378   0.438
11833W        W84181   6.875  15.633  11.475
11834W        W84182  25.540  37.019  10.964
11835W        W84183   5.820  38.883   2.360
11836W        W84184  43.419   7.865  11.018
11837W        W84185  39.476  37.908   1.892
11838W        W84186  17.617  34.387   1.812
11839W        W84187  31.954  32.056  10.073
11840W        W84188  38.929  11.723  13.488
11841W        W84189   3.371  23.673  10.638
11842W        W84190  42.499  10.688   4.809
11843W        W84191   0.817  31.051  10.537
11844W        W84192  31.402  23.608  12.357
11845W        W84193  29.169  27.057  10.589
11846W        W84194   2.807  28.679   1.855
11847W        W84195  23.122  29.039  13.338
11848W        W84196  10.783   9.886  11.436
11849W        W84197  20.672  23.187   2.854
11850W        W84198  24.094   1.736   3.848
11851W        W84199  21.569  43.768  12.026
11852W        W84200  16.249  18.602  10.560
11853W        W84201  22.633  39.985  10.487
11854W        W84202  42.916  22.735  12.854
11855W        W84203  41.913  39.490  10.405
11856W        W84204  18.075   2.891  11.561
11857W        W84205  37.500  19.271  12.979
11858W        W84206  24.043  35.357  11.030
11859W        W84207  34.888  38.385  11.036
11860W        W84208  26.148  27.008  10.637
11861W        W84209  16.792  36.056  13.021
11862W        W84210  16.721  17.109   4.214
11863W        W84211  41.306  15.653   4.248
11864W        W84212  15.772  10.179  12.536
11865W        W84213  14.833  30.009  11.545
11866W        W84214  13.170  19.659   2.702
11867W        W84215   8.663   3.884  13.362
11868W        W84216  28.163  34.434  12.534
11869W        W84217   1.875   1.385   4.632
11870W        W84218  27.150  34.997  10.408
11871W        W84219  27.459   7.824   0.785
11872W        W84220   7.835  13.319  14.021
11873W        W84221  37.892  10.310  13.972
11874W        W84222   4.342   7.810   2.672
11875W        W84223   8.346  15.588   3.153
11876W        W84224   0.821  38.426   1.351
11877W        W84225  34.952  15.207  10.414
11878W        W84226  44.774  36.466  11.414
11879W        W84227  15.636   9.391   3.796
11880W        W84228  25.971  37.075  11.898
11881W        W84229  41.840   3.826  14.347
11882W        W84230  29.968  19.673  12.576
11883W        W84231   6.745  13.142  12.514
11884W        W84232   3.954   9.165   3.677
11885W        W84233  25.704  15.636   3.825
11886W        W84234  35.949   5.815   4.793
11887W        W84235  15.702  20.620  12.353
11888W        W84236   1.431  17.679  12.985
11889W        W84237  22.129  39.505   3.734
11890W        W84238   3.410   0.372   2.259
11891W        W84239  40.428  35.017   0.296
11892W        W84240  19.044   4.839   1.407
11893W        W84241  17.753  26.574  10.432
11894W        W84242   5.245  16.115   2.178
11895W        W84243  18.719  39.890   0.792
11896W        W84244  44.984  37.386   1.857
11897W        W84245  43.489   4.418   4.155
11898W        W84246  21.166  15.706   1.910
11899W        W84247  17.076  30.424  10.457
11900W        W84248  13.674  40.339   3.176
11901W        W84249  22.692  26.696   5.130
11902W        W84250  21.238  10.352  12.834
11903W        W84251  38.340  20.528   1.342
11904W        W84252   0.446  22.008   3.300
11905W        W84253  12.754  12.647   0.925
11906W        W84254   7.689  43.282  12.938
11907W        W84255  28.561  37.065  13.516
11908W        W84256  29.657  27.690  13.934
11909W        W84257  42.821  16.219   0.801
11910W        W84258  35.867   4.357   3.232
11911W        W84259   2.268  17.693  14.984
11912W        W84260   8.270  36.959  12.397
11913W        W84261  44.354   4.882  14.763
11914W        W84262  27.462  24.534   1.836
11915W        W84263  24.075  40.904  12.823
11916W        W84264  15.687  43.403   1.439
11917W        W84265   9.296  12.750   3.195
11918W        W84266  41.787  44.988   4.224
11919W        W84267  22.568  42.437  14.349
11920W        W84268   8.302  26.193   4.790
11921W        W84269  21.644  31.923  12.921
11922W        W84270  27.453  24.099  13.945
11923W        W84271  39.964  21.699  10.559
11924W        W84272  12.775  10.653   2.857
11925W        W84273  36.456  12.761  12.390
11926W        W84274  30.601  35.600   4.249
11927W        W84275  21.211  42.029   2.394
11928W        W84276   9.750  15.605  11.569
11929W        W84277  31.927   9.241  13.407
11930W        W84278   6.381  25.586   3.818
11931W        W84279  42.869  44.760  11.979
11932W        W84280  34.060   2.766  11.875
11933W        W84281  31.979  44.408  13.354
11934W        W84282  16.683   5.748  13.443
11935W        W84283   4.264  25.627  12.528
11936W        W84284  19.709  32.061  14.338
11937W        W84285  30.068   6.874  14.338
11938W        W84286   2.300  23.029  13.444
11939W        W84287  32.905  15.177   2.372
11940W        W84288  17.654  23.239  13.358
11941W        W84289  35.422  20.256   0.928
11942W        W84290   2.856  12.728   2.404
11943W        W84291  36.382  11.720   3.258
11944W        W84292  23.517   6.891  14.387
11945W        W84293  10.297   3.302  13.411
11946W        W84294  37.503  18.732  12.373
11947W        W84295  19.059  15.240   2.854
11948W        W84296  10.784  39.359  13.317
11949W        W84297  27.961  33.051   2.203
11950W        W84298  43.389  25.697   4.760
11951W        W84299   6.404  44.850  14.357
11952W        W84300  25.668   4.922   3.805
11953W        W84301  11.217   9.250   0.957
11954W        W84302  20.236  19.623  12.970
11955W        W84303  41.394  20.590   3.197
11956W        W84304  21.039  20.737  12.470
11957W        W84305   0.764  21.164  12.441
11958W        W84306  22.039  33.390  11.427
11959W        W84307  20.058  22.542   2.246
11960W        W84308  42.916   1.290   0.762
11961W        W84309  20.267   5.266  12.461
11962W        W84310  28.019   0.950   0.828
11963W        W84311   2.768  39.328  12.984
11964W        W84312  35.528  26.466  10.615
11965W        W84313   2.750  37.088  10.545
11966W        W84314  37.024  16.288   4.212
11967W        W84315  24.088  41.537   4.691
11968W        W84316  12.628  36.012  14.011
11969W        W84317   5.692  20.099  13.412
11970W        W84318  40.948   8.848  12.529
11971W        W84319  18.179  13.813  13.968
11972W        W84320  18.113  41.301   1.727
11973W        W84321   3.891  18.278  12.575
11974W        W84322   9.203  32.071  14.339
11975W        W84323  27.528  44.299   1.921
11976W        W84324  16.254  14.764  12.988
11977W        W84325  43.885  16.081   2.207
11978W        W84326  14.814  16.082   3.699
11979W        W84327  23.582  16.583   0.445
11980W        W84328   7.250  17.292  12.062
11981W        W84329  13.340   3.275   3.160
11982W        W84330  22.711  24.130   2.777
11983W        W84331  18.213  34.884  11.578
11984W        W84332  21.135  29.616  10.513
11985W        W84333  18.062  23.637  10.958
11986W        W84334  24.186  44.926  10.534
11987W        W84335   4.205  37.854   4.693
11988W        W84336  37.372  43.441   0.474
11989W        W84337  21.743  37.844   0.430
11990W        W84338  26.665  12.267  12.562
11991W        W84339   6.338  41.463   3.322
11992W        W84340   9.230  28.476   3.835
11993W        W84341  29.985  12.637  10.546
11994W        W84342   1.867  28.550   3.847
11995W        W84343  43.370  17.143   1.913
11996W        W84344   7.353   9.819   4.188
11997W        W84345  27.185  41.911   4.181
11998W        W84346  31.034   1.969  13.469
11999W        W84347  42.311  18.605  10.590
12000W        W84348  40.396  17.297   1.427
12001W        W84349  27.950   8.816   4.605
12002W        W84350  32.541  40.026   1.764
12003W        W84351  11.651   5.878   3.683
12004W        W84352  20.265  22.573   3.245
12005W        W84353  25.012  37.477   1.713
12006W        W84354  24.529  22.238  11.524
12007W        W84355   8.406  10.734   1.881
12008W        W84356  18.294  18.137   0.393
12009W        W84357  41.360  30.038  14.864
12010W        W84358  29.601  36.091   4.240
12011W        W84359  20.121  27.571   2.240
12012W        W84360   7.704   7.764   0.853
12013W        W84361  33.005   8.355   0.404
12014W        W84362  29.922  42.431   0.951
12015W        W84363   0.432  29.963   0.346
12016W        W84364   5.719   4.446  14.779
12017W        W84365   3.911  32.466  13.827
12018W        W84366  37.377  27.473  11.477
12019W        W84367   4.834  19.541  10.119
12020W        W84368  29.979  26.519   0.728
12021W        W84369  31.993  17.781  14.869
12022W        W84370  32.451  30.646   2.727
12023W        W84371  25.707  38.564  10.497
12024W        W84372  42.845  24.048   2.297
12025W        W84373  19.249  20.615  10.645
12026W        W84374  35.887  37.986  10.539
12027W        W84375   0.847  40.896   3.215
12028W        W84376  38.037  17.151  11.474
12029W        W84377   1.912   3.330  14.779
12030W        W84378  39.385  38.560   3.814
12031W        W84379  33.904  37.432   4.824
12032W        W84380  20.154  29.012   5.676
12033W        W84381  23.723  18.654   2.778
12034W        W84382  18.784  35.958   4.787
12035W        W84383  38.895   1.750   0.872
12036W        W84384  24.974  43.378   5.249
12037W        W84385   7.714  33.596  10.475
12038W        W84386  36.523  29.948   2.755
12039W        W84387   6.798  23.724   0.789
12040W        W84388   8.819  12.282   0.946
12041W        W84389  25.513  15.580   2.243
12042W        W84390  40.494  11.867   2.764
12043W        W84391  24.022  39.351   4.308
12044W        W84392  33.038  31.057   3.220
12045W        W84393  29.993  21.521   4.306
12046W        W84394  29.484   7.220  11.387
12047W        W84395  17.581   2.361  14.934
12048W        W84396   7.906  21.514  10.944
12049W        W84397  12.327  25.676  13.323
12050W        W84398  43.431  38.871   1.923
12051W        W84399  15.630  38.944  10.592
12052W        W84400  38.534  38.042  12.866
12053W        W84401  28.525  19.571   4.283
12054W        W84402  35.098   9.774   3.732
12055W        W84403  24.192   9.204   9.938
12056W        W84404  19.069  17.661  11.503
12057W        W84405  30.047  13.842   0.796
12058W        W84406  19.703  23.648   2.695
12059W        W84407  21.209  43.857  14.829
12060W        W84408  43.507  37.474  14.937
12061W        W84409  10.729  44.927  12.441
12062W        W84410  14.256   7.186   1.696
12063W        W84411  32.417  10.717  11.047
12064W        W84412  20.116  23.636   0.340
12065W        W84413  25.472  31.982  14.410
12066W        W84414  17.082  30.654  13.345
12067W        W84415  26.463  35.554   2.686
12068W        W84416   6.190  36.991  13.525
12069W        W84417  33.467   6.852  13.399
12070W        W84418  34.062   8.333  11.506
12071W        W84419  39.879  18.670   0.302
12072W        W84420   3.737  24.482   0.315
12073W        W84421  38.828  10.351  11.024
12074W        W84422   0.956   3.783   4.303
12075W        W84423  27.139  20.524   1.847
12076W        W84424  23.694   2.755  12.462
12077W        W84425  38.903  37.514   2.781
12078W        W84426   8.659  29.642  11.076
12079W        W84427  29.541  27.450   4.171
12080W        W84428  23.692  42.001  12.483
12081W        W84429  20.057  32.082   0.812
12082W        W84430  31.532  30.950   4.161
12083W        W84431   8.188   9.730   4.155
12084W        W84432   7.767  19.570  13.895
12085W        W84433  16.776  16.197   2.666
12086W        W84434  20.203   6.721   2.719
12087W        W84435  35.921  14.780  14.401
12088W        W84436  20.696  22.160   1.756
12089W        W84437  37.014  13.769   0.944
12090W        W84438  28.186  17.674   3.386
12091W        W84439  29.021  36.863  10.546
12092W        W84440  10.686  13.605  13.970
12093W        W84441   8.677  35.030   3.655
12094W        W84442  11.179  21.143  13.938
12095W        W84443  22.627   0.276   1.839
12096W        W84444   8.703  15.628  12.496
12097W        W84445  14.259  36.490   1.736
12098W        W84446   4.710  16.690  12.898
12099W        W84447  24.549  29.929   0.952
12100W        W84448  37.896  26.031   0.800
12101W        W84449  15.687  16.200   3.735
12102W        W84450  33.901  13.144  10.443
12103W        W84451   8.372   8.820   1.364
12104W        W84452  31.060  33.101   0.794
12105W        W84453  15.619  30.598   3.249
12106W        W84454  32.007  38.919   2.236
12107W        W84455  29.100  31.005  10.641
12108W        W84456  25.704  32.437  11.610
12109W        W84457  24.671   6.845   0.447
12110W        W84458  43.940  27.681  11.510
12111W        W84459   0.988   7.267   3.308
12112W        W84460  42.389  25.201  11.490
12113W        W84461   1.966  29.561   3.312
12114W        W84462  34.476  30.596   3.204
12115W        W84463  36.494   6.853   9.477
12116W        W84464  41.300   2.255  10.473
12117W        W84465  10.820  23.174  13.442
12118W        W84466   1.814  29.006  13.415
12119W        W84467  40.875  15.596  13.911
12120W        W84468  38.048   0.757   4.630
12121W        W84469  42.002   8.191  14.977
12122W        W84470   5.826  10.331   1.915
12123W        W84471  10.861  28.937   4.295
12124W        W84472   5.306   9.713  11.863
12125W        W84473  41.836  32.396  12.883
12126W        W84474  40.837   9.382  10.895
12127W        W84475   1.254  44.499   1.782
12128W        W84476   9.702  11.338   0.415
12129W        W84477  41.792  44.779   3.272
12130W        W84478  31.001  31.145   2.404
12131W        W84479  44.324  43.991   5.256
12132W        W84480  12.266  36.098   2.390
12133W        W84481   0.284  11.708  14.991
12134W        W84482   1.837  44.759   2.708
12135W        W84483  15.159  24.598  11.589
12136W        W84484  13.791   3.410   1.865
12137W        W84485  44.359   8.730   2.710
12138W        W84486  31.602   1.806  14.818
12139W        W84487   1.353  39.452  10.446
12140W        W84488   1.769  11.810   0.928
12141W        W84489  39.495   9.669  13.940
12142W        W84490   7.387   1.813  13.866
12143W        W84491  25.094  28.553  10.628
12144W        W84492  24.650  31.983   1.368
12145W        W84493  18.185  20.731  12.881
12146W        W84494  10.777  23.639   0.273
12147W        W84495  37.973   7.283   9.458
12148W        W84496  17.160  29.455   1.244
12149W        W84497   7.260   6.390  12.433
12150W        W84498  12.830  20.096   3.243
12151W        W84499   2.762  16.711   3.175
12152W        W84500  22.608   5.258  11.077
12153W        W84501  17.736  18.269  14.469
12154W        W84502  10.228  16.763   5.217
12155W        W84503  36.548  18.647  10.539
12156W        W84504  28.986   0.942  13.022
12157W        W84505  10.195  15.757  10.064
12158W        W84506  39.984  10.700  13.977
12159W        W84507  20.728  40.914   0.777
12160W        W84508   7.240  44.983   4.154
12161W        W84509  40.481   1.958  11.402
12162W        W84510  17.238  29.971  12.975
12163W        W84511  23.002  25.004   2.850
12164W        W84512  26.098   5.861   2.761
12165W        W84513  16.289   3.359   0.340
12166W        W84514  27.673  12.745  14.802
12167W        W84515  30.420   4.328  14.797
12168W        W84516  19.592  28.175   2.818
12169W        W84517  30.604  33.380  14.805
12170W        W84518  25.482  25.069   5.169
12171W        W84519  20.063  20.092   1.435
12172W        W84520  37.024   1.866  14.962
12173W        W84521  33.504  34.046  12.378
12174W        W84522   8.827  39.837  11.955
12175W        W84523  33.956  38.862   4.706
12176W        W84524  32.023   1.284   3.298
12177W        W84525   4.941  24.974  10.569
12178W        W84526  26.094  23.624   1.901
12179W        W84527  27.023   2.888   3.330
12180W        W84528  36.094  38.940   3.719
12181W        W84529  27.605   5.423  10.985
12182W        W84530  32.604  12.616  11.567
12183W        W84531  26.987  16.683  14.470
12184W        W84532  14.128  18.220   1.428
12185W        W84533  27.115  31.570   2.903
12186W        W84534  32.909   8.227  13.841
12187W        W84535  19.621  22.504  11.579
12188W        W84536  11.736  44.776  12.449
12189W        W84537  12.616  42.382   1.698
12190W        W84538  42.817  22.717   0.804
12191W        W84539  14.127  41.820  14.316
12192W        W84540  39.323   2.750  13.547
12193W        W84541  32.141  37.928   1.695
12194W        W84542  18.122  25.216   3.149
12195W        W84543  34.941  17.288   4.245
12196W        W84544  24.042  16.278   0.936
12197W        W84545  28.501  31.600   3.314
12198W        W84546   4.441  37.948   1.232
12199W        W84547  24.663  37.562  13.309
12200W        W84548  19.238  33.881  12.380
12201W        W84549  16.253  32.518   0.962
12202W        W84550  20.694  34.972   3.260
12203W        W84551  22.007  44.330   0.830
12204W        W84552  29.936  28.948   3.666
12205W        W84553  14.135   1.436   0.823
12206W        W84554  36.025  41.910  14.432
12207W        W84555   6.853  33.475   1.873
12208W        W84556   6.745   3.257   3.244
12209W        W84557  13.658  21.677   3.672
12210W        W84558   0.374  34.906  10.976
12211W        W84559  16.073  16.677   2.296
12212W        W84560  24.154  43.989  11.540
12213W        W84561  21.192  19.145  14.912
12214W        W84562  26.641  10.740   0.363
12215W        W84563  29.150  15.284  11.857
12216W        W84564  40.477  44.960  11.936
12217W        W84565   1.318  14.273  13.945
12218W        W84566  14.683  39.367   4.815
12219W        W84567  33.531  37.402   3.289
12220W        W84568  26.966  40.985   1.703
12221W        W84569  24.063  39.425   2.245
12222W        W84570   7.362  44.852  10.922
12223W        W84571   0.352   9.262  13.939
12224W        W84572  44.486  29.060   4.615
12225W        W84573  35.456  17.610  11.443
12226W        W84574  40.880  26.683  12.528
12227W        W84575  25.608  21.085   3.671
12228W        W84576  12.212  31.458   0.442
12229W        W84577   1.385   5.288  14.992
12230W        W84578  28.022   2.458  11.859
12231W        W84579  28.095  44.264  11.064
12232W        W84580  43.766   7.786   3.821
12233W        W84581  39.460   3.726   2.356
12234W        W84582  18.271  28.969   0.793
12235W        W84583  19.599   5.885   4.776
12236W        W84584   8.266   8.185   4.712
12237W        W84585  28.982  11.666   0.739
12238W        W84586  11.243  21.755   1.233
12239W        W84587  20.030  23.696  14.391
12240W        W84588  37.848  26.652   2.752
12241W        W84589  29.997   0.945  14.956
12242W        W84590  34.045  28.969   1.901
12243W        W84591  24.633  23.704   2.196
12244W        W84592  22.691   3.908   3.869
12245W        W84593  23.038   2.233  14.503
12246W        W84594  22.108  32.496   4.703
12247W        W84595  44.819  23.147  14.021
12248W        W84596  43.465  37.988  10.550
12249W        W84597  39.497  27.988  13.948
12250W        W84598   3.782   2.388  12.875
12251W        W84599  13.603  43.409   3.700
12252W        W84600  43.394  43.994  13.459
12253W        W84601  24.216  34.451   4.727
12254W        W84602  35.960   0.274   1.792
12255W        W84603  11.331  25.567   3.326
12256W        W84604   8.808   5.855   1.725
12257W        W84605  10.840  18.625   2.796
12258W        W84606  21.157  15.592   1.288
12259W        W84607  22.680  35.407  13.985
12260W        W84608  39.820  41.032   4.139
12261W        W84609  20.268  14.616  11.473
12262W        W84610  23.012  30.151  12.020
12263W        W84611   7.702  34.086  14.941
12264W        W84612  19.706  44.983  11.913
12265W        W84613  10.743  42.922   4.317
12266W        W84614   6.295  40.901  11.896
12267W        W84615   6.195   8.899  14.823
12268W        W84616  36.462  22.707   0.968
12269W        W84617   7.268  12.843   0.738
12270W        W84618  14.625  36.908  13.947
12271W        W84619   9.704   5.813  13.938
12272W        W84620  34.492   2.849  10.548
12273W        W84621  10.730  35.576  14.993
12274W        W84622  36.985  13.703  14.794
12275W        W84623  13.240  13.720   3.781
12276W        W84624  14.668  33.981   3.708
12277W        W84625  10.301  26.993  13.910
12278W        W84626  21.735  43.287   2.796
12279W        W84627  41.469  12.117   4.647
12280W        W84628  34.541  20.050   3.759
12281W        W84629   5.268   6.894   2.754
12282W        W84630  18.111  30.063  12.900
12283W        W84631   9.845  43.020  11.543
12284W        W84632  32.605  35.023  13.375
12285W        W84633  16.660  25.980  13.394
12286W        W84634  41.005  30.044  13.041
12287W        W84635  23.706  41.449   2.327
12288W        W84636  38.449   0.846   1.335
12289W        W84637  37.884  18.224   2.419
12290W        W84638  25.604  27.181  14.915
12291W        W84639  37.354  13.114  10.419
12292W        W84640   3.276  14.223   3.853
12293W        W84641  28.514  31.026   0.932
12294W        W84642  35.543  11.364  14.765
12295W        W84643   3.357   3.781  11.007
12296W        W84644  38.883  14.745  12.405
12297W        W84645  21.049  12.717  10.079
12298W        W84646  23.544  40.020  12.891
12299W        W84647  34.909  10.345  10.593
12300W        W84648  44.816  13.215   0.818
12301W        W84649  44.874  22.629  12.908
12302W        W84650  26.689  38.970   1.846
12303W        W84651  43.798  21.230   0.823
12304W        W84652  10.657  19.270   3.341
12305W        W84653  17.110  16.698   1.875
12306W        W84654  18.176   2.856  10.900
12307W        W84655   3.819  34.108  11.491
12308W        W84656  19.220  32.612   4.250
12309W        W84657  21.557  41.430   5.092
12310W        W84658  40.386  27.535   0.433
12311W        W84659  16.095  25.625  11.562
12312W        W84660  43.933  36.915  11.882
12313W        W84661  27.584  44.363  12.388
12314W        W84662  44.937  44.771  13.405
12315W        W84663  11.683  34.971   1.904
12316W        W84664   5.386   4.719   4.655
12317W        W84665  39.002  34.918   4.776
12318W        W84666  10.318  11.823  11.869
12319W        W84667   7.349  40.934  12.535
12320W        W84668  28.091  19.552   3.820
12321W        W84669  36.081  19.141   0.254
12322W        W84670   7.335   8.668   3.216
12323W        W84671  29.437  35.014  13.342
12324W        W84672  25.098  44.485  10.618
12325W        W84673  28.639  40.543  12.887
12326W        W84674  38.402  13.154  10.924
12327W        W84675  36.904  18.626  12.516
12328W        W84676   8.718  38.509   4.621
12329W        W84677  15.263  30.012  12.829
12330W        W84678  43.274  43.985  13.799
12331W        W84679  39.445  26.647  13.914
12332W        W84680   9.359  29.093   9.979
12333W        W84681  25.640  27.624   2.281
12334W        W84682  43.343  17.093   1.293
12335W        W84683  39.920  10.691   4.343
12336W        W84684  22.070   3.219  11.404
12337W        W84685  35.904  28.167  10.973
12338W        W84686   5.726  11.772   3.682
12339W        W84687  41.823   6.216  10.406
12340W        W84688   8.797  16.118   1.761
12341W        W84689   4.361  35.488   2.894
12342W        W84690  17.794  27.517   1.277
12343W        W84691   8.250  13.738  10.618
12344W        W84692  23.119  28.011  10.465
12345W        W84693   4.911   8.668  14.869
12346W        W84694  33.086  44.302  10.990
12347W        W84695  36.432  41.307  13.343
12348W        W84696  22.517  28.640   2.204
12349W        W84697   7.833  38.548  14.767
12350W        W84698  14.811  18.095   4.727
12351W        W84699  24.091  36.479  14.955
12352W        W84700  28.942  14.156   4.349
12353W        W84701  21.641  44.924  13.355
12354W        W84702  40.341  32.391  13.972
12355W        W84703  39.931  15.613   0.306
12356W        W84704  40.878  18.789  13.484
12357W        W84705  40.862  19.720   4.179
12358W        W84706  15.762  38.522  11.961
12359W        W84707  33.967   9.693  11.379
12360W        W84708  28.671  37.866  12.452
12361W        W84709  23.050  16.634  14.026
12362W        W84710  18.253  32.395  13.040
12363W        W84711   2.848  19.217  14.796
12364W        W84712  30.440  21.193  12.901
12365W        W84713  30.626   3.350   5.209
12366W        W84714  37.046  38.514   3.742
12367W        W84715  26.617  31.102   1.355
12368W        W84716  17.684  40.891   0.479
12369W        W84717   2.913  24.176   4.661
12370W        W84718   3.287  18.715   2.737
12371W        W84719  11.745  22.100   4.657
12372W        W84720  10.710  11.661   2.871
12373W        W84721   0.269  29.985  13.474
12374W        W84722  41.854  23.497   4.259
12375W        W84723  43.311  38.855   3.746
12376W        W84724  12.848  27.481   1.263
12377W        W84725  16.638  34.024  12.502
12378W        W84726  24.994  23.599   3.832
12379W        W84727  43.378  27.945  11.003
12380W        W84728   1.803  18.132  14.362
12381W        W84729  34.563   1.466   3.231
12382W        W84730  12.668  13.301  13.361
12383W        W84731  40.376  43.020  11.479
12384W        W84732  12.639  36.486   1.836
12385W        W84733   8.367  15.272   2.841
12386W        W84734  42.355   5.874  13.907
12387W        W84735   9.156   7.887  14.920
12388W        W84736   6.842  14.253  13.522
12389W        W84737  29.468  11.626   9.994
12390W        W84738   6.325  36.867  12.919
12391W        W84739  29.495  28.658   4.746
12392W        W84740  27.512  35.393  13.803
12393W        W84741  31.143  44.389  11.087
12394W        W84742  44.903   2.947  12.876
12395W        W84743   0.315  26.602   4.767
12396W        W84744  18.780  31.096   1.838
12397W        W84745  38.832  21.737  12.980
12398W        W84746  12.329  37.889   4.678
12399W        W84747  40.939  41.816  13.993
12400W        W84748  22.588  29.157   2.317
12401W        W84749  41.034  37.456  13.989
12402W        W84750  31.561  36.489   1.891
12403W        W84751  37.520   6.696   3.838
12404W        W84752  38.557   7.281   5.779
12405W        W84753   7.844  39.509   4.157
12406W        W84754   5.342  28.493   2.208
12407W        W84755  43.828  14.652   4.244
12408W        W84756   1.301   8.259   2.290
12409W        W84757  26.104  29.574   2.775
12410W        W84758   9.825  18.697  13.453
12411W        W84759  18.112   9.184   4.706
12412W        W84760  34.868  40.950   1.920
12413W        W84761  16.135  15.164   1.805
12414W        W84762  37.004  15.806   2.305
12415W        W84763  31.488  41.909  14.506
12416W        W84764   7.787  44.946   0.383
12417W        W84765  29.569  37.411  14.835
12418W        W84766  12.623  34.549  14.790
12419W        W84767   2.252  30.601  14.377
12420W        W84768  10.647   4.367   3.201
12421W        W84769   5.727  31.138  11.476
12422W        W84770  23.735  33.556   2.277
12423W        W84771   0.773  37.448  14.320
12424W        W84772   4.893   6.885  13.974
12425W        W84773   4.436  13.190  11.433
12426W        W84774  14.216   5.413  11.021
12427W        W84775   4.265  17.583  14.950
12428W        W84776  44.484  29.476  11.867
12429W        W84777  35.855  13.299  10.606
12430W        W84778  11.823   1.900  13.799
12431W        W84779   1.848   6.871   1.879
12432W        W84780  34.525  42.288  13.544
12433W        W84781   4.877   9.759   1.229
12434W        W84782  42.784  31.508   4.727
12435W        W84783   8.272   8.882  12.382
12436W        W84784  19.641  20.613  10.942
12437W        W84785   3.242   7.377   2.252
12438W        W84786  25.175  27.984  12.095
12439W        W84787  42.999   0.274  10.505
12440W        W84788   0.278  19.609   0.783
12441W        W84789  39.910  14.754  13.793
12442W        W84790   6.897   5.807  10.483
12443W        W84791   7.777  37.030   1.243
12444W        W84792  35.858  23.618   4.782
12445W        W84793  34.097   0.849  12.405
12446W        W84794  42.352   9.149   4.339
12447W        W84795  34.571  39.455  14.480
12448W        W84796  41.789  43.009   2.800
12449W        W84797  37.930  15.729   2.848
12450W        W84798  17.125   3.335   4.747
12451W        W84799  15.185   4.813   2.250
12452W        W84800  29.658   4.407   4.780
12453W        W84801  25.686  29.574  13.347
12454W        W84802  20.228  37.405  10.519
12455W        W84803  40.912  40.022  12.997
12456W        W84804  25.003  42.371   0.795
12457W        W84805  38.981  21.119   0.290
12458W        W84806   4.838  36.483  11.540
12459W        W84807  35.862  12.715  14.415
12460W        W84808   2.248  19.107   1.919
12461W        W84809   2.318  29.170  12.347
12462W        W84810   8.195  16.130  14.840
12463W        W84811   5.233  38.432   3.778
12464W        W84812  43.515   7.278   9.943
12465W        W84813  21.103  34.992   0.785
12466W        W84814   2.437  30.986  10.994
12467W        W84815   7.210   4.284   0.953
12468W        W84816   9.828  30.486   0.777
12469W        W84817  37.370   2.270  10.632
12470W        W84818  22.532  42.514   0.358
12471W        W84819   6.767  40.434  12.484
12472W        W84820   6.875  25.074   4.701
12473W        W84821  17.075   2.855  14.793
12474W        W84822   2.740  10.735   3.669
12475W        W84823  24.560   9.806  11.409
12476W        W84824  19.281  22.545  13.495
12477W        W84825   6.785  10.863   4.696
12478W        W84826  42.909  29.469   4.342
12479W        W84827   8.731  24.195  14.349
12480W        W84828  18.618  12.696  14.761
12481W        W84829  31.139  20.104   3.642
12482W        W84830  14.804   0.946   4.148
12483W        W84831  34.507  28.980  10.915
12484W        W84832  36.951  28.020  12.500
12485W        W84833  44.294  11.267  11.599
12486W        W84834  32.963  41.793   1.263
12487W        W84835  11.739   7.668   3.736
12488W        W84836   8.338  39.957   4.117
12489W        W84837  37.474  33.539  10.451
12490W        W84838  33.381   5.747  11.930
12491W        W84839  10.208  27.051  14.857
12492W        W84840  14.266  19.755  14.410
12493W        W84841  29.500  27.112   2.243
12494W        W84842  43.510   2.826  12.986
12495W        W84843   5.850  33.604  10.583
12496W        W84844  36.485  25.617  10.925
12497W        W84845  33.442  43.356  12.467
12498W        W84846  38.027  40.032   2.681
12499W        W84847  39.388  40.923  13.500
12500W        W84848  36.577   0.937   3.640
12501W        W84849  25.174  27.445   1.799
12502W        W84850  44.991   1.736   2.201
12503W        W84851  29.538  19.239  11.902
12504W        W84852  28.609  24.663  11.436
12505W        W84853  27.622  30.993   4.144
12506W        W84854   9.664  23.519   0.402
12507W        W84855  10.832  16.202  13.437
12508W        W84856  23.150  27.616   4.751
12509W        W84857  32.521   7.844   4.281
12510W        W84858  32.428  21.149   3.637
12511W        W84859  30.507  33.879   3.184
12512W        W84860  23.101  15.725  10.419
12513W        W84861  23.127  42.943  12.515
12514W        W84862   6.367  16.572   2.818
12515W        W84863  12.836   2.769  11.451
12516W        W84864   0.938  10.689   4.778
12517W        W84865   2.332  12.821   5.244
12518W        W84866  15.582   7.288  14.857
12519W        W84867   6.323  14.594   2.853
12520W        W84868  25.109  18.214   2.206
12521W        W84869  42.793  36.582  12.559
12522W        W84870  18.634  39.925  12.456
12523W        W84871  14.813  17.595   2.349
12524W        W84872  44.950  20.266   4.130
12525W        W84873   5.722  44.795   2.812
12526W        W84874  19.563  32.135  10.068
12527W        W84875  44.371  29.650  14.829
12528W        W84876  29.071   9.258   2.751
12529W        W84877  19.165   9.249   3.161
12530W        W84878  18.082  42.287  13.476
12531W        W84879  11.200  36.510  13.039
12532W        W84880  31.925  44.410  14.989
12533W        W84881  30.560  11.196   4.240
12534W        W84882  21.249  37.535  12.472
12535W        W84883  31.003  24.617   3.160
12536W        W84884  15.126  43.286   2.797
12537W        W84885   0.268  26.614  13.883
12538W        W84886  19.077  28.984  12.445
12539W        W84887  16.216  29.074   4.610
12540W        W84888  38.824  13.610  11.100
12541W        W84889  24.627   4.895  13.815
12542W        W84890  42.447  27.562   1.357
12543W        W84891  26.086  24.976   0.778
12544W        W84892  30.622  26.616   2.876
12545W        W84893   1.251  18.762  14.945
12546W        W84894  21.540  42.841  14.826
12547W        W84895  20.701  31.521  10.914
12548W        W84896  19.047  27.014  12.489
12549W        W84897  22.134  31.476   4.755
12550W        W84898   5.401  37.405  13.388
12551W        W84899   4.832  14.292  14.282
12552W        W84900  15.096  18.752   2.893
12553W        W84901   6.376  22.074  14.813
12554W        W84902   8.329  20.192  14.860
12555W        W84903  22.594   1.445  10.453
12556W        W84904  10.647   8.167  11.038
12557W        W84905  27.022  16.316  13.051
12558W        W84906  11.717   2.863   9.979
12559W        W84907  25.210  11.854   5.135
12560W        W84908  31.904  20.049  12.883
12561W        W84909   7.300  12.127  14.814
12562W        W84910  12.845  31.128   5.146
12563W        W84911   4.770  10.182  14.359
12564W        W84912   3.737  20.155   2.893
12565W        W84913  29.556  35.090   5.204
12566W        W84914  18.276  41.873  13.320
12567W        W84915   5.375   6.744  13.955
12568W        W84916   4.416  44.887   0.484
12569W        W84917  10.691   4.924   2.403
12570W        W84918  16.658  38.422   4.715
12571W        W84919  29.467   5.849   0.863
12572W        W84920  34.531   9.347  11.973
12573W        W84921   7.268   1.903   1.901
12574W        W84922  35.401  24.178   4.349
12575W        W84923  17.140  11.635   3.308
12576W        W84924   3.303  29.125   2.396
12577W        W84925  41.037   0.419   2.388
12578W        W84926  28.976   7.796   0.255
12579W        W84927  38.025  34.116  11.459
12580W        W84928   4.430   5.395  12.092
12581W        W84929   5.388   9.323  13.844
12582W        W84930  32.513  11.664   0.460
12583W        W84931  42.847  36.581   2.685
12584W        W84932  40.920  13.214   0.800
12585W        W84933  43.852  27.502   0.797
12586W        W84934  28.496  19.168  13.888
12587W        W84935  25.177   5.379  14.368
12588W        W84936   1.289  21.518  12.368
12589W        W84937  41.349   2.439   4.304
12590W        W84938  26.970   4.355  12.501
12591W        W84939   8.388  10.193   2.343
12592W        W84940   0.916   0.892   3.690
12593W        W84941  35.974   8.232   2.662
12594W        W84942  27.625  32.111  11.559
12595W        W84943  39.433  10.648   1.724
12596W        W84944   2.905  39.489  14.493
12597W        W84945  24.126  29.146   4.814
12598W        W84946   8.666   0.464   3.671
12599W        W84947  24.120  16.701   1.723
12600W        W84948  38.935  38.344   3.833
12601W        W84949  41.994   5.834   4.622
12602W        W84950   4.308   4.776   1.756
12603W        W84951  24.498  35.027  11.604
12604W        W84952  42.784  26.018   1.852
12605W        W84953  34.601  33.480  11.525
12606W        W84954  37.055  34.968  11.603
12607W        W84955  16.744  14.602  11.380
12608W        W84956   0.849  13.268  12.928
12609W        W84957   0.291  30.519   4.325
12610W        W84958  22.220  18.207   1.216
12611W        W84959   9.655  41.900   3.781
12612W        W84960  22.210  27.045  10.951
12613W        W84961  27.638  31.934  10.645
12614W        W84962  20.099  14.123  12.516
12615W        W84963  23.206  17.736   2.841
12616W        W84964  37.537  24.679   4.222
12617W        W84965  25.477  18.588  13.014
12618W        W84966  17.140  14.811  12.438
12619W        W84967   5.690   3.422  10.410
12620W        W84968   2.895  10.729  10.938
12621W        W84969  17.749   0.895   2.764
12622W        W84970  20.733   1.354  13.543
12623W        W84971  37.011   0.442  10.963
12624W        W84972  44.366  40.385  13.807
12625W        W84973  13.833  20.166   1.878
12626W        W84974  39.323  44.894  12.018
12627W        W84975  13.729  38.971   0.328
12628W        W84976  13.663  13.803   0.326
12629W        W84977  42.527  42.374  11.033
12630W        W84978  28.448  11.847   1.352
12631W        W84979  30.612   6.750   4.709
12632W        W84980  10.699  16.619  10.583
12633W        W84981  25.992  30.915  13.001
12634W        W84982  33.610   3.760   2.815
12635W        W84983  35.100  21.637   2.357
12636W        W84984  40.430   1.463   3.257
12637W        W84985   6.248   6.806  13.516
12638W        W84986  28.564  41.370  11.377
12639W        W84987  39.053   6.813  10.109
12640W        W84988  37.969  34.510  12.939
12641W        W84989  15.591  22.010  10.969
12642W        W84990  23.502   6.225   1.405
12643W        W84991  29.440  31.583   2.335
12644W        W84992  33.117   3.386  10.415
12645W        W84993   7.186  18.107   3.722
12646W        W84994  39.314  33.981   1.293
12647W        W84995  33.468   8.370   3.174
12648W        W84996  35.488  18.675  13.820
12649W        W84997   1.295   1.305   2.752
12650W        W84998   2.332  12.738   9.983
12651W        W84999  38.469   4.207   0.282
12652W        W85000  36.463   2.317   4.682
12653W        W85001  40.805  36.882   1.357
12654W        W85002   1.420  44.754  10.890
12655W        W85003  22.692  22.234  10.537
12656W        W85004  39.376   3.230  13.520
12657W        W85005  16.181  30.587  11.857
12658W        W85006  42.341   3.784  10.609
12659W        W85007  20.710   9.739   2.673
12660W        W85008  36.383  32.984  12.079
12661W        W85009  33.905   6.861   0.786
12662W        W85010  23.170  38.900  12.411
12663W        W85011  32.542  15.786  11.503
12664W        W85012  26.026  18.630  11.020
12665W        W85013  44.906  16.219   1.421
12666W        W85014  43.421   5.433  10.514
12667W        W85015  44.308  41.040  13.923
12668W        W85016  23.672   6.331   3.839
12669W        W85017  41.399  39.344   1.704
12670W        W85018  25.026   6.739   1.261
12671W        W85019  26.614  24.060   2.684
12672W        W85020  25.160  10.242   1.440
12673W        W85021  28.585  11.819   4.198
12674W        W85022   2.887  25.605  11.941
12675W        W85023   2.721  38.923  11.019
12676W        W85024  20.056   7.911  10.621
12677W        W85025  34.393  13.206   4.128
12678W        W85026  11.332  26.473  14.310
12679W        W85027  31.421   5.828  12.448
12680W        W85028  33.068  13.269   0.442
12681W        W85029  37.835  28.585   1.346
12682W        W85030  19.225  34.577   0.751
12683W        W85031   9.322  31.574   5.123
12684W        W85032  11.731  16.741   2.312
12685W        W85033   6.332  27.130   3.766
12686W        W85034  36.437  41.308   5.292
12687W        W85035  34.885   2.849   4.707
12688W        W85036  36.380   9.864  10.441
12689W        W85037  17.173  34.909  11.539
12690W        W85038   8.376   0.429   1.806
12691W        W85039  10.668  11.291   4.248
12692W        W85040  43.952  17.217   4.687
12693W        W85041  38.060   7.825  12.036
12694W        W85042  25.705  30.083  10.495
12695W        W85043  11.319  32.932  10.504
12696W        W85044  27.080   7.874   0.371
12697W        W85045  14.247  44.448   0.758
12698W        W85046  26.619   1.446   0.804
12699W        W85047   5.275  34.538  10.430
12700W        W85048  44.271  13.713   2.199
12701W        W85049  10.679  28.129  13.854
12702W        W85050  35.966  32.615  12.519
12703W        W85051  28.113   3.406   1.359
12704W        W85052  17.267  10.306   1.723
12705W        W85053  21.230  22.714  10.479
12706W        W85054  15.179  28.164   0.948
12707W        W85055   6.854   2.327   3.755
12708W        W85056  18.767   3.271   4.742
12709W        W85057  32.468  17.722  12.894
12710W        W85058  33.933  10.187   2.228
12711W        W85059  30.417   4.738  12.346
12712W        W85060  18.547  40.865   3.753
12713W        W85061  37.490  39.833   4.270
12714W        W85062   6.339  20.257  14.021
12715W        W85063  34.119  34.555   3.290
12716W        W85064   5.930   8.668   4.140
12717W        W85065   7.870  17.718   4.297
12718W        W85066  42.852  30.130   1.338
12719W        W85067  12.653  22.202   0.399
12720W        W85068  30.017  27.106   3.866
12721W        W85069   5.844  23.720  11.960
12722W        W85070  16.767  16.616  13.520
12723W        W85071  36.360   4.259   4.240
12724W        W85072   9.841  27.521   0.335
12725W        W85073  16.125   8.263   0.847
12726W        W85074  28.031  23.162   1.707
12727W        W85075  30.962  40.523   1.716
12728W        W85076  40.011  43.396  12.566
12729W        W85077  14.265   7.783   4.174
12730W        W85078   0.903  31.965  12.425
12731W        W85079  34.071  32.557  10.503
12732W        W85080  31.635  30.515   3.660
12733W        W85081   1.758  27.148  13.929
12734W        W85082  37.061  30.924   2.855
12735W        W85083  26.470  27.615  12.351
12736W        W85084  22.599  16.792  11.003
12737W        W85085  17.176  39.414   2.699
12738W        W85086   6.827  37.077   4.774
12739W        W85087  34.515  40.801   4.715
12740W        W85088  10.659  27.197   2.211
12741W        W85089  14.316  30.140  10.511
12742W        W85090  16.128  11.207   1.220
12743W        W85091  12.724  44.344  11.895
12744W        W85092  19.568  17.236   5.165
12745W        W85093  44.488  43.448  11.963
12746W        W85094  43.512  37.454   3.352
12747W        W85095  19.230  20.246   2.416
12748W        W85096  34.548  29.954   0.815
12749W        W85097   2.789  33.555  13.954
12750W        W85098  27.002  43.783   2.271
12751W        W85099  16.156  44.894   3.765
12752W        W85100  13.228  25.519   0.370
12753W        W85101   7.310   3.818  13.848
12754W        W85102  41.950   2.392   4.699
12755W        W85103  27.069   5.203  11.106
12756W        W85104  19.134   7.790   3.222
12757W        W85105  44.938  12.731  12.048
12758W        W85106   8.349  25.188  11.942
12759W        W85107  25.477  18.738  11.572
12760W        W85108  12.154   9.765   3.219
12761W        W85109  38.434  11.131   2.207
12762W        W85110   3.421   5.783   1.291
12763W        W85111  32.909  43.932   0.915
12764W        W85112  14.826  30.561   4.597
12765W        W85113  21.190   9.846  13.386
12766W        W85114  19.094  25.599   4.756
12767W        W85115  21.189  22.235  10.040
12768W        W85116   7.870  24.519   4.751
12769W        W85117  11.128  29.515   4.159
12770W        W85118  21.074   2.838   4.147
12771W        W85119  10.250  30.625   3.370
12772W        W85120  39.487   2.749   0.259
12773W        W85121  21.061  33.453   2.242
12774W        W85122  12.262  41.824  12.965
12775W        W85123  26.527  11.207  14.302
12776W        W85124  14.205  22.187   4.774
12777W        W85125  28.077  44.948  13.982
12778W        W85126  38.384  35.086   4.167
12779W        W85127  29.583  36.467   2.415
12780W        W85128   8.261  38.939  12.461
12781W        W85129  11.690   5.916   4.183
12782W        W85130  36.996  24.700  12.579
12783W        W85131   5.289  10.213  10.501
12784W        W85132  20.531  17.157  10.446
12785W        W85133  40.914  34.417  14.859
12786W        W85134  32.047  28.151  13.895
12787W        W85135  35.514   5.718   1.425
12788W        W85136   9.690   1.819   3.779
12789W        W85137  16.183  17.116  10.461
12790W        W85138  41.809  15.800  13.398
12791W        W85139   7.726  33.396   2.683
12792W        W85140  30.972  24.013   2.776
12793W        W85141  14.325  26.659   4.750
12794W        W85142  30.414  37.860  13.396
12795W        W85143  20.181   7.848   4.207
12796W        W85144  10.314  35.442  14.805
12797W        W85145  11.241  28.980  12.367
12798W        W85146  24.198  42.494  14.975
12799W        W85147  11.799  41.971   0.413
12800W        W85148  30.097  23.193  11.078
12801W        W85149   7.887  17.231   4.305
12802W        W85150   6.898   0.939   1.339
12803W        W85151  40.497  33.117  11.966
12804W        W85152  32.930   0.267  11.595
12805W        W85153  28.672   3.898   4.721
12806W        W85154  36.570  10.311   1.364
12807W        W85155  36.875  35.029   2.790
12808W        W85156  24.174   2.809   0.944
12809W        W85157   8.377  21.757  12.052
12810W        W85158  41.982  41.351  10.530
12811W        W85159  17.119   7.227  10.526
12812W        W85160   1.331  14.670   2.689
12813W        W85161  32.454  14.232  13.815
12814W        W85162  19.062   3.805   2.841
12815W        W85163  43.352  36.579   4.736
12816W        W85164  38.066  15.623   3.375
12817W        W85165   0.265  39.955   0.867
12818W        W85166  28.569   0.913   0.289
12819W        W85167  11.180  39.975  11.598
12820W        W85168  44.922  42.977  11.530
12821W        W85169  13.307  43.376   1.832
12822W        W85170  38.978  34.932   2.242
12823W        W85171   5.335  10.158   1.781
12824W        W85172  40.387  22.112   0.754
12825W        W85173  18.608  34.014   2.789
12826W        W85174  14.774   0.928  12.399
12827W        W85175   4.713  39.039  12.533
12828W        W85176   8.394  14.730   4.600
12829W        W85177  23.051  34.560  12.461
12830W        W85178  10.669  36.409  13.460
12831W        W85179   7.813  33.058   4.752
12832W        W85180  36.035  18.727  11.542
12833W        W85181  24.099  29.080   3.817
12834W        W85182  38.879  15.265   1.834
12835W        W85183  12.842  35.997   0.483
12836W        W85184  31.448  31.940   1.842
12837W        W85185  22.042  30.600   2.281
12838W        W85186   4.874  31.030  11.995
12839W        W85187  19.612  13.840  11.399
12840W        W85188  29.115   2.400  10.935
12841W        W85189  36.903  43.010  12.861
12842W        W85190   6.861   9.223  12.571
12843W        W85191  37.860  41.010   2.817
12844W        W85192  36.951  13.610  13.527
12845W        W85193   3.781  11.721   3.194
12846W        W85194  22.172  38.978   4.810
12847W        W85195  12.847  16.578   0.414
12848W        W85196  14.682  37.893   4.280
12849W        W85197  41.861  20.592   2.819
12850W        W85198  13.758   9.672   3.368
12851W        W85199  37.444  41.036   2.366
12852W        W85200   6.862  41.536  12.375
12853W        W85201  16.290  27.161   0.408
12854W        W85202  32.633  10.327  12.875
12855W        W85203  42.810  28.668  11.408
12856W        W85204  27.542  39.922   2.280
12857W        W85205  34.391  35.008  12.985
12858W        W85206   9.161  15.265  10.624
12859W        W85207  31.141  22.629   2.681
12860W        W85208   5.390  27.673   4.142
12861W        W85209   3.896  40.465  13.980
12862W        W85210  40.050  16.661   1.443
12863W        W85211  11.233  17.226  11.507
12864W        W85212  13.155  29.982  13.517
12865W        W85213  22.021  27.054  10.406
12866W        W85214  30.135  14.623  13.869
12867W        W85215  10.375  37.482  12.480
12868W        W85216  29.545  24.149  11.861
12869W        W85217  37.887   4.705  11.590
12870W        W85218  31.455  14.644  11.471
12871W        W85219   1.278  11.637  10.565
12872W        W85220  32.989  10.757   2.351
12873W        W85221  40.321   8.875   4.822
12874W        W85222   4.378   9.388  13.371
12875W        W85223   1.774  44.948  14.895
12876W        W85224  42.854  23.162  13.472
12877W        W85225  35.872  16.275   0.245
12878W        W85226   1.442  28.591  10.936
12879W        W85227  13.161  20.555   3.825
12880W        W85228  37.464  23.158   0.463
12881W        W85229  26.631  25.134   1.703
12882W        W85230  19.065  29.491  11.496
12883W        W85231  13.719  35.857  12.074
12884W        W85232  10.194  32.461  11.532
12885W        W85233  34.572  37.935   2.230
12886W        W85234   1.743  33.617   1.337
12887W        W85235  27.480  26.580   3.323
12888W        W85236  38.915  12.315   3.848
12889W        W85237  11.299  40.426   3.749
12890W        W85238  37.476  16.727   3.338
12891W        W85239   1.876  16.708  14.844
12892W        W85240  16.274  17.078  13.407
12893W        W85241  22.654  35.547   1.762
12894W        W85242   5.357  18.137   4.351
12895W        W85243   8.845  30.440  10.977
12896W        W85244   0.494  17.204  12.353
12897W        W85245  27.002  15.220   0.251
12898W        W85246  32.568   3.307  10.106
12899W        W85247  40.817  43.441   0.440
12900W        W85248  11.791  39.898  11.125
12901W        W85249  28.039  31.027  12.880
12902W        W85250  11.263  16.575  12.856
12903W        W85251  19.248   2.915  12.472
12904W        W85252  27.949   3.352  12.447
12905W        W85253  34.400   6.329  12.530
12906W        W85254   1.931   8.230   4.639
12907W        W85255  12.214  23.665   4.308
12908W        W85256  37.568  14.298   4.114
12909W        W85257   0.913  33.408  13.359
12910W        W85258  33.581  32.948   4.169
12911W        W85259   5.438  38.986  11.103
12912W        W85260  26.089   4.317   0.453
12913W        W85261  19.659   6.357  14.374
12914W        W85262   2.238  34.543   0.463
12915W        W85263  24.534  23.128  12.978
12916W        W85264  32.397  37.528   1.814
12917W        W85265  42.894   9.309  12.942
12918W        W85266  37.858  36.931   1.812
12919W        W85267  38.396   7.729   1.718
12920W        W85268  18.763  38.872   2.872
12921W        W85269  23.093  16.675  14.856
12922W        W85270  27.051  13.310  11.113
12923W        W85271   6.779  40.896  13.010
12924W        W85272  20.552  25.531  13.372
12925W        W85273  26.018  24.202   3.773
12926W        W85274  32.140   4.825   3.678
12927W        W85275   2.826  44.387   1.711
12928W        W85276  20.654  36.061  13.011
12929W        W85277  32.485  10.242   2.686
12930W        W85278  28.101   6.316  14.921
12931W        W85279   1.253  38.897  12.925
12932W        W85280  13.836  37.013   4.695
12933W        W85281  33.995   0.792  11.584
12934W        W85282   5.887   2.468   0.325
12935W        W85283  30.990  31.402  11.420
12936W        W85284  11.129  41.344   1.847
12937W        W85285   0.756  43.504   3.233
12938W        W85286  38.486  31.095  14.993
12939W        W85287  15.685  16.568   2.399
12940W        W85288  33.589  18.280   0.266
12941W        W85289  32.453  28.479  12.872
12942W        W85290  35.484  31.644   1.350
12943W        W85291  42.327  27.547   1.880
12944W        W85292  17.658  32.457  14.881
12945W        W85293  18.284  19.759  14.961
12946W        W85294  11.153  44.843   1.702
12947W        W85295  18.690  10.200  13.851
12948W        W85296   7.697   5.810   0.257
12949W        W85297  21.120  44.327  14.916
12950W        W85298  10.345  28.938   3.335
12951W        W85299   3.306  41.370   1.862
12952W        W85300   5.299  44.359   0.815
12953W        W85301  32.140  36.071   3.841
12954W        W85302  33.383   6.760   2.247
12955W        W85303   1.873   3.426  10.584
12956W        W85304  34.070  44.907   4.181
12957W        W85305  31.003   9.738  13.474
12958W        W85306  14.686  17.678   0.451
12959W        W85307  12.731  17.744   4.682
12960W        W85308  34.936  27.130  11.513
12961W        W85309  20.764  16.210   1.863
12962W        W85310  36.034   6.399  10.027
12963W        W85311  24.706   4.908  11.090
12964W        W85312  14.796   4.336  13.474
12965W        W85313  32.057  33.535   0.438
12966W        W85314  16.679   9.360   0.940
12967W        W85315   9.229  26.559   1.933
12968W        W85316  39.314   3.376  11.054
12969W        W85317  41.362  20.543   0.253
12970W        W85318  44.419  18.200   0.398
12971W        W85319  23.055   5.216  12.350
12972W        W85320   2.863  36.564  10.449
12973W        W85321  14.749  15.155   2.741
12974W        W85322   4.763  28.974  10.903
12975W        W85323  41.946  28.058  10.478
12976W        W85324  17.768  23.227   1.871
12977W        W85325  40.008  21.203  14.280
12978W        W85326   5.239   8.839  11.883
12979W        W85327  23.126   0.950   3.266
12980W        W85328   8.274  38.464  11.486
12981W        W85329  36.449  37.490  10.039
12982W        W85330  32.469  35.556   0.345
12983W        W85331  39.364   8.202  12.550
12984W        W85332  35.563  42.511  12.001
12985W        W85333  34.033  29.496  13.541
12986W        W85334  20.124   7.315   4.673
12987W        W85335   2.374  28.104  14.807
12988W        W85336  10.864  23.241   4.317
12989W        W85337  12.628  21.603  14.786
12990W        W85338  42.974  40.055   1.867
12991W        W85339  13.117  38.412  12.960
12992W        W85340  35.034  25.470  13.527
12993W        W85341  25.967   1.789  13.035
12994W        W85342  38.997  25.213  12.904
12995W        W85343   5.704  35.977   0.744
12996W        W85344  37.910   3.910  10.935
12997W        W85345   1.320  42.996  11.057
12998W        W85346  14.722  10.839  13.958
12999W        W85347  13.140   0.860  13.415
13000W        W85348  10.157   8.669  11.922
13001W        W85349  36.967   9.374  13.437
13002W        W85350  12.295   6.330   9.473
13003W        W85351   3.417  15.595  10.891
13004W        W85352  13.800  33.625   0.422
13005W        W85353  20.608  11.674   1.800
13006W        W85354  19.642  31.995  10.993
13007W        W85355  38.862  36.571   3.194
13008W        W85356   0.866  23.182  12.446
13009W        W85357  36.014  19.710   2.890
13010W        W85358  12.691  23.155   3.816
13011W        W85359  28.162  36.364   4.238
13012W        W85360  43.804   2.375   4.618
13013W        W85361  36.064  12.647  14.858
13014W        W85362   3.709   4.367   2.671
13015W        W85363   2.325  30.983   0.849
13016W        W85364  37.369  41.792   4.602
13017W        W85365  36.048  20.069   3.775
13018W        W85366  32.583  14.302  11.489
13019W        W85367  38.903  23.140  13.325
13020W        W85368  44.453  13.810   3.805
13021W        W85369  28.446  40.831   3.316
13022W        W85370  25.593  43.343  13.033
13023W        W85371  25.200  37.984  11.017
13024W        W85372  31.945  11.683  12.978
13025W        W85373  19.059  13.682  11.116
13026W        W85374  25.704   5.903   3.688
13027W        W85375  40.946   2.739   3.824
13028W        W85376  19.646  36.019  12.411
13029W        W85377  38.993  20.688  10.420
13030W        W85378  34.891  32.887  12.867
13031W        W85379   7.678  21.230   9.651
13032W        W85380  36.867  39.359  11.595
13033W        W85381  25.471  16.315   4.262
13034W        W85382  29.159  37.361   0.777
13035W        W85383  17.574  17.735   4.327
13036W        W85384   3.912  41.393   1.438
13037W        W85385  26.201   1.413   2.687
13038W        W85386  13.689  34.908   1.748
13039W        W85387   6.307  42.829  13.950
13040W        W85388   4.938   0.751  10.570
13041W        W85389  31.154   3.937   1.215
13042W        W85390  11.859   7.768  12.431
13043W        W85391  18.099   1.845   4.816
13044W        W85392  19.714   1.918   1.894
13045W        W85393  34.954  22.705  12.919
13046W        W85394  26.519   4.368  13.414
13047W        W85395  29.979  15.662   0.316
13048W        W85396   9.384  14.195   4.126
13049W        W85397  27.486  37.896   1.375
13050W        W85398  34.501   4.774  11.069
13051W        W85399  28.594  40.039   0.967
13052W        W85400  26.176  18.103  12.879
13053W        W85401  11.813  26.622   0.279
13054W        W85402   8.785  33.048  11.877
13055W        W85403  40.895  14.129   0.948
13056W        W85404  26.619  35.409   5.319
13057W        W85405  17.672  15.608  13.850
13058W        W85406  18.090   9.847  13.899
13059W        W85407  26.991  22.734  14.029
13060W        W85408  39.861  23.220   2.310
13061W        W85409   5.819  13.312   4.349
13062W        W85410  19.690  13.715   3.808
13063W        W85411  33.912  19.766   1.247
13064W        W85412  37.876  40.885   4.602
13065W        W85413  28.058  24.094   4.135
13066W        W85414  16.091  15.219   5.205
13067W        W85415  12.768  31.069  11.968
13068W        W85416   5.250  21.710   0.826
13069W        W85417   3.256   0.878   4.224
13070W        W85418  14.791  34.581  10.621
13071W        W85419  35.854  22.712   4.833
13072W        W85420   9.296  17.711  10.498
13073W        W85421  33.021  44.439  14.356
13074W        W85422  25.172  15.600   0.462
13075W        W85423  44.397  11.731  12.558
13076W        W85424  32.971  16.290  11.885
13077W        W85425  18.787   8.850   3.165
13078W        W85426  33.995   3.400   3.370
13079W        W85427  40.871   0.367   2.685
13080W        W85428  22.101  11.831   2.250
13081W        W85429   2.822  26.625   4.301
13082W        W85430  15.098  24.691   2.260
13083W        W85431  17.296  41.341   0.865
13084W        W85432  17.150  38.020  11.608
13085W        W85433  35.419  30.135   2.684
13086W        W85434  22.625  27.991   4.741
13087W        W85435  28.603   1.320   1.829
13088W        W85436   4.801  30.516   1.901
13089W        W85437  13.283  34.609   1.237
13090W        W85438  44.366  12.757  10.593
13091W        W85439  14.223  24.088  14.964
13092W        W85440  41.888   6.840  14.513
13093W        W85441  13.311  22.521  14.396
13094W        W85442  38.474  14.094  12.848
13095W        W85443  44.283  27.036  14.464
13096W        W85444  27.619  35.436  12.533
13097W        W85445  31.082  39.007  14.509
13098W        W85446   1.433  40.970   2.197
13099W        W85447  39.487  15.771  12.063
13100W        W85448  19.613  41.871   0.816
13101W        W85449  12.775   8.225  12.461
13102W        W85450  10.685  12.758   0.465
13103W        W85451  32.531  43.284   3.352
13104W        W85452  16.293  34.453   4.752
13105W        W85453  23.028  17.134   2.215
13106W        W85454  13.129  18.550   2.774
13107W        W85455  32.937  42.882  10.411
13108W        W85456  39.864   8.700   3.638
13109W        W85457   3.879  36.007  10.569
13110W        W85458   1.788  33.424   4.285
13111W        W85459   9.242   4.836  11.033
13112W        W85460  35.904  12.658   4.797
13113W        W85461  19.236  30.098  12.457
13114W        W85462  24.111   7.175   2.680
13115W        W85463  23.221  18.677  11.537
13116W        W85464  32.089  15.682   2.288
13117W        W85465  11.695  39.366  14.312
13118W        W85466  16.682  19.749   4.604
13119W        W85467  41.536   4.824   1.764
13120W        W85468  18.295   2.892  12.465
13121W        W85469  15.661  27.994  11.868
13122W        W85470  23.005  11.306  11.880
13123W        W85471  32.918  14.228  11.594
13124W        W85472  33.480  24.122   0.819
13125W        W85473  20.254   4.873   3.154
13126W        W85474  38.415   3.231   2.324
13127W        W85475  33.070   5.833   1.294
13128W        W85476  22.689  32.921   2.850
13129W        W85477   7.840  14.795   3.175
13130W        W85478  41.327  27.529  13.396
13131W        W85479  32.897  43.390  13.061
13132W        W85480  40.867  22.695   4.308
13133W        W85481  11.354  15.710   0.282
13134W        W85482   8.390  23.678  14.897
13135W        W85483  25.004  38.387   4.268
13136W        W85484  24.134  28.577   3.193
13137W        W85485  24.693  22.646  13.480
13138W        W85486  12.675  26.075   1.750
13139W        W85487  29.530  39.058  11.586
13140W        W85488  27.981  15.677  10.927
13141W        W85489  32.622  11.671  14.512
13142W        W85490  43.454  36.469  13.457
13143W        W85491  30.638  16.285   0.864
13144W        W85492  25.653  43.932   3.802
13145W        W85493  22.682  28.160  11.953
13146W        W85494  25.549   4.735  12.543
13147W        W85495  12.263  20.155   0.852
13148W        W85496  11.642  22.218   3.851
13149W        W85497   0.492   3.814   1.893
13150W        W85498  18.787  39.851   1.248
13151W        W85499  15.721  29.491  14.782
13152W        W85500  20.213  39.869   3.645
13153W        W85501  29.523  20.183   3.259
13154W        W85502   1.801   7.269  12.497
13155W        W85503   7.875  43.769  10.632
13156W        W85504  33.583  16.629  13.839
13157W        W85505  21.232   1.863  14.944
13158W        W85506   8.697   8.256  12.022
13159W        W85507  19.605  14.120  13.437
13160W        W85508  19.231  40.945   0.860
13161W        W85509  26.144  30.587  11.491
13162W        W85510  33.060  21.108   4.184
13163W        W85511  24.979  28.991   1.231
13164W        W85512  17.720   2.782  10.511
13165W        W85513   9.702  20.090   3.377
13166W        W85514  38.944  10.317   5.179
13167W        W85515  30.964   9.873   1.450
13168W        W85516  31.129  41.507  11.456
13169W        W85517  29.083   3.861   4.186
13170W        W85518  10.274  17.269   4.681
13171W        W85519   1.862  15.133  13.324
13172W        W85520  21.665   0.868   4.820
13173W        W85521  38.419  35.540   4.704
13174W        W85522  11.160  30.515  14.503
13175W        W85523   7.393  43.951   4.249
13176W        W85524  14.805  33.060  13.840
13177W        W85525  28.487  44.816   1.835
13178W        W85526  36.887  30.442  13.949
13179W        W85527  35.561  30.135  13.471
13180W        W85528  43.845   5.824   4.200
13181W        W85529   5.375  24.513  10.595
13182W        W85530  21.739  15.263  12.987
13183W        W85531  44.322   0.856  14.398
13184W        W85532  25.575  17.689   3.164
13185W        W85533  23.063   5.278  11.429
13186W        W85534  39.839  27.137   1.219
13187W        W85535  10.726  38.373   0.825
13188W        W85536  42.943  17.207   3.238
13189W        W85537  25.092  21.730   1.704
13190W        W85538   4.880  34.548  11.086
13191W        W85539  17.661  34.481   2.900
13192W        W85540  33.064  28.516  11.383
13193W        W85541  32.030   8.245   3.784
13194W        W85542  12.179  24.027  10.530
13195W        W85543  42.924  17.735   3.664
13196W        W85544  18.733  41.307  13.816
13197W        W85545  17.767   0.384   4.252
13198W        W85546  37.544   1.429  11.000
13199W        W85547  12.748  21.679   1.898
13200W        W85548   1.482  41.850   4.241
13201W        W85549  25.974   8.239  13.460
13202W        W85550  39.448  13.673  14.759
13203W        W85551   3.376  43.875  10.927
13204W        W85552  41.043   9.888   2.280
13205W        W85553   0.378  10.868  11.576
13206W        W85554  19.073  27.031  12.973
13207W        W85555  30.536  31.404  14.010
13208W        W85556  28.496  22.568  10.553
13209W        W85557  10.796   6.310   9.923
13210W        W85558  20.188   7.281  12.092
13211W        W85559  32.534  28.008   2.336
13212W        W85560   9.270  22.154  12.514
13213W        W85561  34.001   5.268  10.485
13214W        W85562  19.148  41.034  11.037
13215W        W85563  35.536  16.793   4.151
13216W        W85564   7.680  18.053  11.033
13217W        W85565   2.404   9.682  10.613
13218W        W85566  14.640  44.991   4.126
13219W        W85567  38.342  12.275  14.024
13220W        W85568  22.596   0.962  13.506
13221W        W85569  44.311  32.500  14.027
13222W        W85570  16.269  35.387   1.853
13223W        W85571  31.536  20.597  12.942
13224W        W85572  32.133  36.883   3.276
13225W        W85573   1.865  30.050   0.481
13226W        W85574   0.480   0.884   4.773
13227W        W85575  24.487  36.563  13.799
13228W        W85576  34.004  38.507   2.842
13229W        W85577  14.693   2.299   3.194
13230W        W85578  12.354  37.568   1.446
13231W        W85579  40.372  37.898  14.959
13232W        W85580  19.043  27.955   2.882
13233W        W85581   3.345  16.703   0.319
13234W        W85582   4.727  15.807   3.729
13235W        W85583  25.175  20.750   1.798
13236W        W85584  29.943  44.408   3.661
13237W        W85585  18.059  33.543   1.306
13238W        W85586  40.423  28.092  13.890
13239W        W85587  25.560   0.403  10.983
13240W        W85588  38.014  26.058  12.023
13241W        W85589  42.367  39.875  14.370
13242W        W85590  12.251  29.458  11.034
13243W        W85591  13.668  24.076  13.492
13244W        W85592  16.198  40.938  14.328
13245W        W85593  38.381  29.543   4.795
13246W        W85594   8.811  22.635   0.429
13247W        W85595  26.580  37.882   3.301
13248W        W85596  34.385   7.851   3.383
13249W        W85597   0.912   9.395   1.772
13250W        W85598  32.117  14.111  14.825
13251W        W85599  34.938  20.045   2.866
13252W        W85600  18.770  32.429  10.577
13253W        W85601  15.619  21.558   9.966
13254W        W85602  18.733  25.666  12.984
13255W        W85603   4.807  35.904   3.671
13256W        W85604   5.709  11.722  14.839
13257W        W85605   1.267  12.665   3.246
13258W        W85606  24.098   4.426   3.711
13259W        W85607  40.400  36.968  14.458
13260W        W85608  38.424   5.405   3.754
13261W        W85609   0.922   6.786  14.829
13262W        W85610  21.638  39.553   3.387
13263W        W85611  24.980  23.133  10.460
13264W        W85612  17.062  28.031  13.508
13265W        W85613   4.297  10.381   2.251
13266W        W85614  18.229  15.288   2.776
13267W        W85615  36.422  42.432  11.040
13268W        W85616  24.541  16.574   4.732
13269W        W85617  43.444  31.033   3.713
13270W        W85618  43.829  27.535   1.772
13271W        W85619  44.840   3.891  14.375
13272W        W85620   8.855  25.709  12.082
13273W        W85621   3.896  10.863  12.016
13274W        W85622   3.886  42.950   9.951
13275W        W85623  26.140  34.896  12.567
13276W        W85624  34.867  43.352  12.395
13277W        W85625  35.358   3.332   4.276
13278W        W85626  31.037  29.060  10.075
13279W        W85627  28.601  12.218  10.965
13280W        W85628  30.637  35.105  12.392
13281W        W85629  28.639  27.573  13.486
13282W        W85630  10.330  38.850   2.721
13283W        W85631  43.937  24.011   1.433
13284W        W85632   4.896  36.508  14.950
13285W        W85633  39.023  34.541   4.780
13286W        W85634  29.480  42.917   2.336
13287W        W85635   9.269  34.077   2.725
13288W        W85636  34.953   9.246   0.870
13289W        W85637  20.681   8.813  11.529
13290W        W85638   2.737  18.189  13.791
13291W        W85639  18.072   2.299  13.998
13292W        W85640  19.668   5.285   0.310
13293W        W85641  34.568  16.121  10.951
13294W        W85642  23.232   2.892   4.729
13295W        W85643  38.465   1.927  12.547
13296W        W85644   5.913  40.929   2.722
13297W        W85645  18.585  30.508  14.898
13298W        W85646  32.978  38.009   1.224
13299W        W85647  36.091  28.138   4.696
13300W        W85648  41.015  18.689  10.494
13301W        W85649  22.115   0.745   1.874
13302W        W85650  18.659  20.662   1.756
13303W        W85651  34.926  11.685  12.842
13304W        W85652  39.959  10.278   4.269
13305W        W85653  33.424  25.116  12.008
13306W        W85654  42.976  24.687  14.377
13307W        W85655  16.257  42.840  14.920
13308W        W85656  32.933  30.637  11.099
13309W        W85657   9.859  21.604  12.929
13310W        W85658  29.937   5.825  14.336
13311W        W85659   6.826  44.392  11.391
13312W        W85660  16.769  31.923  10.486
13313W        W85661   1.482  29.570  13.416
13314W        W85662   4.763  11.328  12.017
13315W        W85663   5.830  40.515   1.379
13316W        W85664  27.187   6.706   4.291
13317W        W85665   3.310  38.872  13.045
13318W        W85666   9.737  38.917  11.453
13319W        W85667  10.666  15.664  14.382
13320W        W85668  33.532   3.852  11.587
13321W        W85669   1.892  40.391   4.315
13322W        W85670  19.243  20.608  12.376
13323W        W85671  30.630  19.554   2.393
13324W        W85672   4.316   2.421  14.363
13325W        W85673   2.311  30.614  13.452
13326W        W85674  10.768  40.000   1.929
13327W        W85675  40.934  29.918   0.830
13328W        W85676  43.982   4.804   3.176
13329W        W85677  19.060  17.132  14.842
13330W        W85678  30.026   6.319  14.443
13331W        W85679   6.357  21.189   4.664
13332W        W85680  30.057  30.560  10.888
13333W        W85681  39.039  27.613  11.594
13334W        W85682  13.190  35.920   9.978
13335W        W85683  16.239  26.207  14.008
13336W        W85684  39.325  23.052   4.242
13337W        W85685  41.345  36.090   2.791
13338W        W85686  32.910  17.569   4.793
13339W        W85687  19.049  10.140   1.809
13340W        W85688  25.985  33.610   0.290
13341W        W85689  36.462   4.710  11.081
13342W        W85690  38.842  27.113  10.595
13343W        W85691   5.358  19.639   0.378
13344W        W85692  10.713  34.485  13.850
13345W        W85693  22.139  41.311  14.888
13346W        W85694  39.348  12.252  11.404
13347W        W85695  32.411   2.453  12.897
13348W        W85696  37.360  27.454  10.599
13349W        W85697   5.691  31.462   2.286
13350W        W85698   0.942  30.112   2.721
13351W        W85699  35.599   5.867  10.981
13352W        W85700  38.443  22.036  14.031
13353W        W85701  13.215  26.026   2.211
13354W        W85702  34.508  30.040   4.619
13355W        W85703  18.726  18.552   1.732
13356W        W85704   3.750  29.129  10.548
13357W        W85705  43.774  44.362   4.743
13358W        W85706   6.279  41.956  13.494
13359W        W85707  19.042  34.446   1.316
13360W        W85708  34.902  14.622   4.604
13361W        W85709  31.604   6.247   1.892
13362W        W85710   7.791   8.217  10.429
13363W        W85711  40.372  40.806  10.590
13364W        W85712  36.950  28.676  10.976
13365W        W85713  41.446   0.888   5.208
13366W        W85714  27.459  30.136  10.998
13367W        W85715   7.752  21.194   5.728
13368W        W85716  33.571  42.379  13.049
13369W        W85717   7.252  41.522   3.863
13370W        W85718  42.325  23.180   4.830
13371W        W85719  11.254   0.312  12.951
13372W        W85720   9.860  42.401  11.391
13373W        W85721  25.132  19.081   2.716
13374W        W85722   1.907   8.758   0.283
13375W        W85723   3.767   4.434  10.626
13376W        W85724   9.299  13.212  11.931
13377W        W85725   9.863  40.865   0.896
13378W        W85726  32.463  39.446  13.900
13379W        W85727  33.490  38.336   3.759
13380W        W85728  36.411  25.699  13.317
13381W        W85729   7.337  28.075   2.758
13382W        W85730  40.992  11.365  10.524
13383W        W85731  40.438  17.222   5.181
13384W        W85732  38.374  26.536  14.935
13385W        W85733  36.446  14.180   2.740
13386W        W85734   3.923   9.367   3.251
13387W        W85735  13.638  12.117   3.149
13388W        W85736  43.334  34.896  13.799
13389W        W85737  40.310  20.229   4.113
13390W        W85738  23.555  22.997   2.895
13391W        W85739  12.327  10.205   4.791
13392W        W85740  27.137  33.068   1.420
13393W        W85741   4.895  38.993  14.302
13394W        W85742  36.442  20.615  14.358
13395W        W85743  39.056  24.505   3.370
13396W        W85744   1.902  39.400  12.947
13397W        W85745  23.231  17.277  12.009
13398W        W85746  38.378  41.843   3.728
13399W        W85747  35.854  18.218  11.025
13400W        W85748   3.431   4.875  13.862
13401W        W85749  43.782  31.913   3.869
13402W        W85750  43.311   0.427   5.153
13403W        W85751   0.323  21.539   0.467
13404W        W85752  31.450   1.794  11.866
13405W        W85753   6.905  12.627  14.386
13406W        W85754  35.422  32.019  14.979
13407W        W85755  42.426  30.604   2.706
13408W        W85756  40.053  20.218  14.390
13409W        W85757   1.776  34.539  11.402
13410W        W85758  30.987  15.137  12.942
13411W        W85759  31.502   7.201   1.897
13412W        W85760  19.571   3.410   9.973
13413W        W85761  42.892   8.176  14.862
13414W        W85762  31.099  14.806  10.920
13415W        W85763  41.311  29.482   0.302
13416W        W85764  35.454  31.423  12.493
13417W        W85765   1.482  37.908  10.453
13418W        W85766  22.099  21.232  11.957
13419W        W85767  38.467   3.922   2.751
13420W        W85768  28.468  38.491  14.404
13421W        W85769  28.515  17.263   2.335
13422W        W85770  37.960  41.920   3.631
13423W        W85771  15.096  13.207   1.439
13424W        W85772  14.613   6.851   4.725
13425W        W85773  11.271  31.484  14.378
13426W        W85774   4.450  31.643  14.817
13427W        W85775  19.184   3.400   0.323
13428W        W85776  38.394  42.380   3.705
13429W        W85777  19.544   8.724   2.725
13430W        W85778   5.300   5.335   0.794
13431W        W85779  21.523  44.763   4.246
13432W        W85780  20.584  31.530   9.925
13433W        W85781  23.528  29.615  11.067
13434W        W85782  41.901  24.510  13.007
13435W        W85783  38.975  12.244  14.377
13436W        W85784  37.976  26.480   3.771
13437W        W85785  44.816  42.905   1.333
13438W        W85786  44.950   7.289   1.932
13439W        W85787  11.181  25.210   1.833
13440W        W85788  38.915  19.104   2.411
13441W        W85789  38.449  24.527  12.004
13442W        W85790   8.793  18.620  13.976
13443W        W85791   1.910   4.776   2.375
13444W        W85792  12.694  13.332   1.907
13445W        W85793  38.442   6.361   0.755
13446W        W85794   1.251  31.982   2.865
13447W        W85795  34.396  27.149   0.474
13448W        W85796   9.793  42.386   0.292
13449W        W85797  36.543  37.872   2.739
13450W        W85798  41.990  26.179   4.752
13451W        W85799  34.949  10.851  14.827
13452W        W85800  13.612   8.687  11.399
13453W        W85801  26.683   3.912  12.358
13454W        W85802  11.673  14.831   2.418
13455W        W85803  38.559  17.680   0.745
13456W        W85804  42.870  23.525  13.400
13457W        W85805  13.723  10.343   2.311
13458W        W85806  35.435  42.802   1.353
13459W        W85807  40.354  32.004  10.621
13460W        W85808   4.249  25.102  12.485
13461W        W85809  12.657  20.205  13.360
13462W        W85810  13.648  30.433   0.912
13463W        W85811  21.249   2.281   3.199
13464W        W85812   3.435  10.243  13.383
13465W        W85813  29.455  25.986  14.318
13466W        W85814  43.440   3.338   1.368
13467W        W85815  39.997  14.828   4.663
13468W        W85816  13.701  22.550   1.257
13469W        W85817  29.476  38.040  13.966
13470W        W85818  20.563  36.401   4.695
13471W        W85819   3.318  39.869  13.880
13472W        W85820  24.689   4.393   2.224
13473W        W85821  19.631  35.385  13.424
13474W        W85822  13.271   8.275  14.931
13475W        W85823  13.761  34.437  11.919
13476W        W85824  10.743  10.147  12.511
13477W        W85825  21.564  21.259   2.790
13478W        W85826  28.000  40.914   4.738
13479W        W85827   0.432   8.654   2.243
13480W        W85828  30.580   5.349   0.908
13481W        W85829  35.008  27.448  10.416
13482W        W85830  25.107  41.307   4.641
13483W        W85831  35.573  39.435  11.057
13484W        W85832  44.332  36.425  13.531
13485W        W85833  32.928  17.724   2.236
13486W        W85834  24.508  39.435   0.807
13487W        W85835  36.992  26.667  10.922
13488W        W85836  23.636  30.100   0.751
13489W        W85837  17.787   1.337   2.828
13490W        W85838  10.306  32.122  12.367
13491W        W85839  22.566  20.053   4.741
13492W        W85840   9.220  27.635   3.688
13493W        W85841  24.516  16.605  14.029
13494W        W85842  33.124  28.028   0.443
13495W        W85843  20.713  16.593   3.358
13496W        W85844   7.346  31.940  12.459
13497W        W85845  43.514  28.041  13.817
13498W        W85846   1.953  29.529  12.460
13499W        W85847  32.043  32.582  14.895
13500W        W85848  27.503   4.945  11.562
13501W        W85849  28.453  36.591   4.175
13502W        W85850  43.861  42.353   1.916
13503W        W85851  37.898  15.198   2.702
13504W        W85852  42.970   9.651  10.632
13505W        W85853  40.040  19.655  14.807
13506W        W85854  19.541  44.424  13.463
13507W        W85855   6.223  21.029   3.815
13508W        W85856  22.041  16.148  14.878
13509W        W85857  21.757   3.949   1.416
13510W        W85858  39.544  15.099   2.732
13511W        W85859  20.727  19.545  13.541
13512W        W85860  35.490   0.373  10.980
13513W        W85861  11.286   0.353   0.301
13514W        W85862  34.910   8.858   4.729
13515W        W85863  40.380  38.828   0.914
13516W        W85864  33.622   1.942  10.106
13517W        W85865  22.731   6.345   4.209
13518W        W85866  38.475   7.194   9.634
13519W        W85867   7.884  18.600   4.704
13520W        W85868  20.588  34.079  12.949
13521W        W85869  14.654  38.472  10.437
13522W        W85870  18.571  12.152   4.752
13523W        W85871  11.203  18.259   3.631
13524W        W85872   2.872  34.931   1.806
13525W        W85873  18.666  30.107   2.726
13526W        W85874   8.746  19.557   2.361
13527W        W85875  11.141  34.547   0.794
13528W        W85876  25.682  29.093  13.523
13529W        W85877  10.297  36.945   0.367
13530W        W85878  44.968  30.607  13.875
13531W        W85879   3.408   3.345  10.593
13532W        W85880  29.640  19.751  11.998
13533W        W85881   2.959  44.431   9.959
13534W        W85882   7.283  27.014  14.822
13535W        W85883  14.815  27.676   1.908
13536W        W85884   7.188  13.605   0.288
13537W        W85885  40.816  34.416   3.228
13538W        W85886  20.127  26.074   1.829
13539W        W85887  38.330  41.293   0.937
13540W        W85888  38.568  19.253  12.580
13541W        W85889  16.133  12.155  12.088
13542W        W85890  28.020  38.039   3.256
13543W        W85891  19.717  25.072   2.680
13544W        W85892   8.291   8.665   2.348
13545W        W85893  37.433  22.616   3.811
13546W        W85894  38.486  23.191   1.404
13547W        W85895  10.774  15.097   1.365
13548W        W85896  30.430  23.154   3.787
13549W        W85897   1.788  39.867   2.405
13550W        W85898  26.612   0.973   2.844
13551W        W85899   0.778  27.171   3.744
13552W        W85900  21.054   9.865  11.472
13553W        W85901   7.216  38.075  14.000
13554W        W85902  17.661  26.051   1.431
13555W        W85903  31.064   7.225   4.707
13556W        W85904  10.872   3.261   0.282
13557W        W85905  28.623  37.508   2.793
13558W        W85906  36.991  20.588  11.575
13559W        W85907  10.289   4.330  11.385
13560W        W85908   0.812   3.344  14.444
13561W        W85909  18.680  43.764  11.418
13562W        W85910  38.557   6.765  14.008
13563W        W85911  23.044  44.901   3.357
13564W        W85912  28.618  27.165  10.623
13565W        W85913  10.790  27.677   0.844
13566W        W85914   7.774  32.612   1.809
13567W        W85915  26.954  30.443  11.902
13568W        W85916  38.368  24.675  12.490
13569W        W85917  25.026  16.612  10.532
13570W        W85918  19.274  36.932  12.535
13571W        W85919  32.600   9.191  14.890
13572W        W85920  44.397   6.219   3.770
13573W        W85921  12.207  44.499   0.856
13574W        W85922  33.530   5.371  12.008
13575W        W85923  39.026   6.331  14.020
13576W        W85924  32.081   4.326   1.237
13577W        W85925  40.548  11.668   4.184
13578W        W85926  32.560  44.866  14.889
13579W        W85927  42.805  35.578   3.757
13580W        W85928  19.121  28.542   1.777
13581W        W85929  24.039  22.153  14.817
13582W        W85930  25.713  37.862   2.318
13583W        W85931  24.669  32.553   0.733
13584W        W85932   9.245  23.104  13.847
13585W        W85933  17.152  15.722   4.330
13586W        W85934  16.718  33.448  12.959
13587W        W85935  21.231   8.175   0.243
13588W        W85936  40.901  23.202  13.343
13589W        W85937  34.429  28.507   4.149
13590W        W85938   4.437   4.827  13.057
13591W        W85939   1.298  33.120  13.834
13592W        W85940  40.399  37.424   2.303
13593W        W85941  19.706   4.921   3.262
13594W        W85942  36.494  27.968   0.414
13595W        W85943  33.084  31.076   0.898
13596W        W85944  12.636  37.484   0.735
13597W        W85945  30.115  17.642  10.550
13598W        W85946  18.690  19.537   0.355
13599W        W85947  41.884   2.468   0.951
13600W        W85948  21.740  16.810  13.362
13601W        W85949  15.668  38.473   4.630
13602W        W85950  16.650  22.576  13.388
13603W        W85951   2.311  44.820   3.293
13604W        W85952  42.006  18.649   0.296
13605W        W85953  43.012   0.750  13.849
13606W        W85954  21.728   9.691   3.222
13607W        W85955  44.878  38.929  13.360
13608W        W85956  39.055  28.013   3.284
13609W        W85957   2.785  10.304   0.928
13610W        W85958   9.869  35.538   2.235
13611W        W85959   4.867  44.466   2.202
13612W        W85960  12.258  30.560   0.450
13613W        W85961  13.290  41.870  14.775
13614W        W85962  14.658  11.653  13.866
13615W        W85963  34.992   6.225   3.840
13616W        W85964  28.524   9.646  11.027
13617W        W85965  16.228  32.038   2.750
13618W        W85966  14.170  33.895  11.597
13619W        W85967  28.027   3.243   2.181
13620W        W85968   0.981   0.844   5.176
13621W        W85969   6.424   5.338   1.914
13622W        W85970   6.323  33.971   2.204
13623W        W85971  31.559   3.822  12.951
13624W        W85972  27.500  42.030   1.828
13625W        W85973  34.877  43.434  10.889
13626W        W85974   2.277  41.807   2.749
13627W        W85975   1.469  26.033   2.300
13628W        W85976  44.800  17.198  12.539
13629W        W85977  30.928  22.245   3.841
13630W        W85978  30.639  16.139   4.705
13631W        W85979  36.010  27.953  12.355
13632W        W85980   9.799  37.580  12.389
13633W        W85981  36.546  32.573  12.911
13634W        W85982  22.609   2.804   4.777
13635W        W85983   8.715  21.087  13.405
13636W        W85984  44.981  44.878  12.055
13637W        W85985  32.477   3.374   1.299
13638W        W85986  33.533   1.815  14.839
13639W        W85987   5.291   3.387  12.488
13640W        W85988  36.534  15.192   1.907
13641W        W85989  14.619  24.212   3.286
13642W        W85990  26.628   8.317  11.110
13643W        W85991  25.469  34.107  12.487
13644W        W85992  11.856  25.690   2.760
13645W        W85993   5.213   3.951   3.765
13646W        W85994  18.781  39.549  12.343
13647W        W85995  15.251   7.784   3.232
13648W        W85996  31.110   4.913   0.383
13649W        W85997  42.301  18.054  12.377
13650W        W85998  13.689  42.831  12.476
13651W        W85999  34.380  36.044  13.858
13652W        W86000  20.240  10.796   4.174
13653W        W86001  42.320  25.559   4.834
13654W        W86002  33.418   4.761  14.968
13655W        W86003  25.527  32.617  14.834
13656W        W86004  22.158  22.520   1.734
13657W        W86005  38.872  21.036  13.977
13658W        W86006   6.811  26.951   4.677
13659W        W86007  40.337  30.131  10.566
13660W        W86008  35.943  21.084   0.320
13661W        W86009  35.518  40.008  14.797
13662W        W86010  30.975  39.050  12.346
13663W        W86011  10.681   9.773   3.311
13664W        W86012  40.817  11.736   2.296
13665W        W86013  25.644  29.068   2.196
13666W        W86014  24.136   9.839   4.124
13667W        W86015   0.271  10.859   2.758
13668W        W86016  27.480  31.046   3.157
13669W        W86017  12.782  41.989   1.389
13670W        W86018  18.097   1.749  12.890
13671W        W86019   9.273  14.261  14.885
13672W        W86020  35.601   3.325   1.890
13673W        W86021  17.208  38.010   2.250
13674W        W86022   7.392  38.354  13.039
13675W        W86023  34.998  27.498   0.409
13676W        W86024  29.438  31.045   4.784
13677W        W86025  37.435  44.877  12.097
13678W        W86026  38.541  13.281  13.850
13679W        W86027  39.961  24.118  13.459
13680W        W86028  15.791  41.355  11.056
13681W        W86029  29.032  35.397  10.981
13682W        W86030  16.608  35.419   3.848
13683W        W86031   5.392   7.900   3.720
13684W        W86032  16.105  24.114  13.439
13685W        W86033  33.412  20.577   3.785
13686W        W86034  21.743  15.261  13.397
13687W        W86035  35.918  24.524   0.242
13688W        W86036  42.966   1.817  12.061
13689W        W86037  34.890  24.612  13.930
13690W        W86038  42.011  38.354   1.726
13691W        W86039  12.759  32.620   5.231
13692W        W86040   1.965   6.248   4.657
13693W        W86041  18.133  17.133   2.361
13694W        W86042  19.137  27.956   3.308
13695W        W86043  15.595  21.028   1.222
13696W        W86044  26.497  23.111   2.829
13697W        W86045  23.995  27.642  14.894
13698W        W86046   3.726  38.554   0.873
13699W        W86047  44.769  43.417   2.256
13700W        W86048  25.705   4.326  11.070
13701W        W86049  10.709  37.067   2.366
13702W        W86050   5.866  16.078   3.147
13703W        W86051   3.828  17.745   0.804
13704W        W86052  16.084  35.391   0.379
13705W        W86053  26.557  19.664  12.025
13706W        W86054  28.996   7.857  13.806
13707W        W86055  14.619  38.338   4.292
13708W        W86056  35.582  26.052  11.087
13709W        W86057  31.122  44.815  12.919
13710W        W86058  21.059  39.892   4.734
13711W        W86059  11.286  19.135   4.153
13712W        W86060  17.562   2.433   0.467
13713W        W86061  13.692  33.549  13.458
13714W        W86062  10.147   7.722   4.261
13715W        W86063  19.683  10.291   4.122
13716W        W86064  16.696  11.237   2.778
13717W        W86065   2.830  27.116   0.780
13718W        W86066  21.660   4.367  13.943
13719W        W86067  24.043   2.232  13.819
13720W        W86068   5.815   1.294  12.531
13721W        W86069  41.809  37.834  12.487
13722W        W86070   3.758  44.263  11.539
13723W        W86071  17.148  36.974   1.854
13724W        W86072  39.926  38.418  13.425
13725W        W86073  17.701  10.273   0.893
13726W        W86074   0.249  13.203   4.690
13727W        W86075  38.471  36.949  11.460
13728W        W86076  11.372  28.043  12.460
13729W        W86077  22.103  40.408  12.087
13730W        W86078  10.251  37.404   1.403
13731W        W86079  15.095  40.503  13.519
13732W        W86080  24.637  10.799  13.379
13733W        W86081  23.066  37.526  10.084
13734W        W86082   4.750  19.679   3.200
13735W        W86083   9.236  40.846  12.551
13736W        W86084   7.911  33.895  12.439
13737W        W86085  18.625   0.459  14.791
13738W        W86086  32.616  34.009   4.144
13739W        W86087  28.662  32.470   4.187
13740W        W86088   3.730  36.899   4.689
13741W        W86089  42.499   7.417  10.991
13742W        W86090  20.652  10.671  14.786
13743W        W86091   4.240  36.911   4.149
13744W        W86092  13.284  12.239  13.442
13745W        W86093   9.248  39.405  10.530
13746W        W86094  15.800  38.418  14.867
13747W        W86095  27.461  41.394   3.684
13748W        W86096  12.273  44.458  12.534
13749W        W86097   3.714  14.764  11.092
13750W        W86098  36.474  36.509  14.973
13751W        W86099  21.676  29.577   4.648
13752W        W86100  23.045  28.013   0.918
13753W        W86101  20.695  36.582   1.849
13754W        W86102   5.295  43.942  10.615
13755W        W86103  35.382  25.538   1.331
13756W        W86104  43.796   7.404   4.310
13757W        W86105  34.418   6.877   1.853
13758W        W86106  11.362  15.698  10.432
13759W        W86107  43.950  18.668   2.902
13760W        W86108  41.334  12.666   1.348
13761W        W86109  27.022   4.898   1.868
13762W        W86110  30.943  38.547  11.510
13763W        W86111  17.295  20.709   1.331
13764W        W86112  18.220  20.163   1.829
13765W        W86113  19.108   1.842  11.460
13766W        W86114   5.374  20.564  14.026
13767W        W86115  20.070   4.799   2.879
13768W        W86116  15.668   0.769  11.411
13769W        W86117  28.543   5.260   2.287
13770W        W86118  23.522   2.244  10.984
13771W        W86119   2.764  32.472   0.779
13772W        W86120  31.641  40.009  12.493
13773W        W86121  20.687  21.523   1.902
13774W        W86122  17.564  32.593   1.771
13775W        W86123   1.739  14.797   2.381
13776W        W86124  14.635   7.288  11.074
13777W        W86125  19.063  12.809  12.569
13778W        W86126  38.374  10.798   3.364
13779W        W86127  32.529  37.004   0.918
13780W        W86128  43.354  16.710  13.049
13781W        W86129  16.295  13.723  11.430
13782W        W86130  28.035  15.793   0.742
13783W        W86131   4.450  13.671  13.390
13784W        W86132  37.034  35.854  13.515
13785W        W86133   6.422   5.322   4.649
13786W        W86134  37.989   1.760  12.512
13787W        W86135  11.667   9.296   4.316
13788W        W86136  18.557  18.170   0.328
13789W        W86137  32.005  38.934   3.686
13790W        W86138   9.677   6.219   1.910
13791W        W86139   8.675  19.704   9.565
13792W        W86140  24.993  38.418   3.653
13793W        W86141  20.033  31.019   2.782
13794W        W86142   2.387   0.362  13.382
13795W        W86143  30.465   9.669  12.344
13796W        W86144  39.487  26.538   1.367
13797W        W86145  42.938   9.184   1.270
13798W        W86146   5.215   6.770  14.830
13799W        W86147   9.779  33.389  10.633
13800W        W86148   8.368  38.920  11.103
13801W        W86149  31.085   9.311   0.365
13802W        W86150  24.631   2.428   1.406
13803W        W86151  22.515   3.758  10.473
13804W        W86152  15.749   9.809   2.757
13805W        W86153  37.876   8.738  11.384
13806W        W86154   1.828  40.335  13.987
13807W        W86155  26.142  19.085   4.752
13808W        W86156  18.284   9.218  13.340
13809W        W86157  15.679   1.307   2.902
13810W        W86158  42.815   6.721   2.779
13811W        W86159  22.153   9.762  10.095
13812W        W86160   2.377  18.246   0.896
13813W        W86161   3.332  35.542   3.728
13814W        W86162  22.087  35.065  12.850
13815W        W86163  13.170  21.149  11.945
13816W        W86164  22.662  41.821   3.249
13817W        W86165  41.830  42.475   2.736
13818W        W86166  16.113  13.609   4.837
13819W        W86167  27.034   7.733  14.827
13820W        W86168  35.571  35.006  10.423
13821W        W86169  19.070  31.139   4.194
13822W        W86170  34.941  19.108   4.311
13823W        W86171  20.060   6.767   3.168
13824W        W86172  20.698  37.839  10.474
13825W        W86173   5.357  31.973   0.944
13826W        W86174   9.214  28.542   1.328
13827W        W86175  26.168  21.577   4.280
13828W        W86176   8.270  38.513   3.862
13829W        W86177  17.594   4.284   0.384
13830W        W86178  37.993  11.257  11.070
13831W        W86179  40.022  17.613  11.493
13832W        W86180  42.303   2.805   2.348
13833W        W86181  44.964  19.578  12.363
13834W        W86182  15.282  15.163   4.676
13835W        W86183   1.297  34.435  11.949
13836W        W86184  19.767  16.139   0.850
13837W        W86185  19.124  24.162   2.347
13838W        W86186  29.017  40.896   2.266
13839W        W86187  14.131  30.579  13.932
13840W        W86188  21.261   0.969   1.706
13841W        W86189  40.958  39.928   3.243
13842W        W86190   4.758  32.597   9.998
13843W        W86191  20.624  31.898  12.419
13844W        W86192   9.371  24.179  14.284
13845W        W86193  26.022  25.529  13.809
13846W        W86194  14.194  39.996   0.845
13847W        W86195   0.418  19.223   0.249
13848W        W86196   8.232  18.155  11.917
13849W        W86197   1.258  33.899  13.400
13850W        W86198   6.321  38.948   1.799
13851W        W86199  35.080   3.714  14.343
13852W        W86200  10.805  31.528   1.697
13853W        W86201  38.388  31.482   0.840
13854W        W86202  21.556   6.906   2.865
13855W        W86203  19.758  18.713   1.881
13856W        W86204  26.026  38.902  12.466
13857W        W86205  20.602  39.035  10.603
13858W        W86206  39.429   9.303   2.351
13859W        W86207  16.601  29.447  11.920
13860W        W86208  31.898  16.302   1.758
13861W        W86209  27.979  40.532   1.315
13862W        W86210  14.295   5.884   2.276
13863W        W86211  20.080  42.357  12.964
13864W        W86212  40.903  27.061   2.257
13865W        W86213   6.379  20.692   1.850
13866W        W86214  39.040  40.050  10.047
13867W        W86215  40.045   7.189   2.662
13868W        W86216   5.374  40.892   0.776
13869W        W86217  36.020  17.182   4.293
13870W        W86218  22.558  31.913  12.449
13871W        W86219  26.699  36.464   2.731
13872W        W86220  15.764   8.245   1.229
13873W        W86221   8.263   4.271   3.198
13874W        W86222  30.477  28.057   0.861
13875W        W86223   3.934   3.812   0.750
13876W        W86224   3.767   3.825  11.428
13877W        W86225  10.871  13.351  13.514
13878W        W86226  37.086   1.480  12.580
13879W        W86227  14.658  29.601  13.999
13880W        W86228  18.607   1.436   4.688
13881W        W86229  31.069  17.061  14.507
13882W        W86230  39.392  22.145   0.478
13883W        W86231   8.765   9.156  14.840
13884W        W86232  24.519  21.560  11.100
13885W        W86233   3.858  29.145   5.256
13886W        W86234  18.266  10.707   3.804
13887W        W86235  14.299  10.823   2.247
13888W        W86236  10.790  15.824  10.071
13889W        W86237  13.133  15.163   2.195
13890W        W86238  15.611  28.628  11.484
13891W        W86239   6.351   9.831  11.905
13892W        W86240  14.245  15.263   4.226
13893W        W86241  10.333  10.253  13.474
13894W        W86242  27.481  41.976  13.931
13895W        W86243  43.969  33.909  12.529
13896W        W86244  23.990  21.128   3.214
13897W        W86245   6.697  36.963  14.371
13898W        W86246  17.253  30.540   3.199
13899W        W86247  16.221  20.558   2.189
13900W        W86248  43.016  17.658  14.875
13901W        W86249  13.764   2.444   1.281
13902W        W86250  44.490  40.859  14.469
13903W        W86251  38.016  30.417   3.266
13904W        W86252   1.767  36.407  11.066
13905W        W86253  30.461  32.993  13.817
13906W        W86254  39.993   1.341   0.940
13907W        W86255   9.667  31.056   2.247
13908W        W86256  34.602   9.220  12.454
13909W        W86257  37.473   6.248   0.397
13910W        W86258   9.217   9.689   1.295
13911W        W86259   4.391  36.423   4.779
13912W        W86260  21.681   2.960  11.075
13913W        W86261  18.688  29.513  13.314
13914W        W86262  23.700  34.094   4.757
13915W        W86263   1.917  35.963  14.988
13916W        W86264   1.398   5.434  12.849
13917W        W86265  36.496  13.609  12.414
13918W        W86266  16.295  35.958   2.284
13919W        W86267   4.416  12.279  10.538
13920W        W86268  40.376  41.419   3.364
13921W        W86269  29.537  35.935  10.613
13922W        W86270  17.758  17.748  13.858
13923W        W86271   8.163  43.437  12.950
13924W        W86272   7.791   3.816   0.877
13925W        W86273  30.957  36.078  12.465
13926W        W86274  36.435  33.576  12.432
13927W        W86275   5.894  20.666   3.815
13928W        W86276  36.476  11.206   0.916
13929W        W86277  12.261  21.202  12.422
13930W        W86278  18.101  25.593   2.305
13931W        W86279   1.844  16.784  10.924
13932W        W86280  35.405   6.783   3.265
13933W        W86281   2.928  40.347   1.298
13934W        W86282  26.188  30.641  14.946
13935W        W86283  29.065  17.648   4.613
13936W        W86284   1.477  34.947   3.671
13937W        W86285  27.546   3.821   3.693
13938W        W86286  21.159  18.105   2.879
13939W        W86287   2.391  10.762   2.796
13940W        W86288  31.449  17.138  13.791
13941W        W86289  41.487   5.861   0.866
13942W        W86290   8.204  10.799  14.912
13943W        W86291   3.441  23.588   0.765
13944W        W86292   8.853  10.212  10.965
13945W        W86293  26.650  29.014  11.961
13946W        W86294  32.087   9.351   9.541
13947W        W86295   7.377  23.192  14.297
13948W        W86296  34.943   9.239  12.557
13949W        W86297  13.644  16.208   2.313
13950W        W86298  12.300  36.390   4.609
13951W        W86299  19.717   7.868  11.412
13952W        W86300  31.037   9.283  13.323
13953W        W86301  15.153   6.734   0.402
13954W        W86302   7.314  37.339   0.313
13955W        W86303  41.881  31.573   4.162
13956W        W86304   7.357   1.475   0.442
13957W        W86305  33.399  15.182   2.813
13958W        W86306   2.457   4.236  12.486
13959W        W86307  39.366  24.060   3.828
13960W        W86308  20.222  33.082   2.347
13961W        W86309   8.727  15.722   4.669
13962W        W86310  17.181  13.726   4.323
13963W        W86311  33.450  33.123  11.524
13964W        W86312  28.496  23.156   1.848
13965W        W86313  33.016  37.559  13.849
13966W        W86314  25.021  33.608  12.085
13967W        W86315  23.631  42.848  13.416
13968W        W86316  13.708  33.941   3.855
13969W        W86317  42.995  31.925   4.791
13970W        W86318  15.163  21.641   2.178
13971W        W86319  12.252  17.694   3.185
13972W        W86320  20.128  29.572  10.607
13973W        W86321  27.619  37.489  13.359
13974W        W86322  22.098  22.132   2.181
13975W        W86323  43.906  44.836  13.967
13976W        W86324  25.703  18.590   2.325
13977W        W86325   2.847   7.777  12.511
13978W        W86326  23.519  13.185  13.389
13979W        W86327  27.040  41.366  14.356
13980W        W86328  36.080  42.502   2.782
13981W        W86329  27.655   7.707  12.414
13982W        W86330  40.007   0.969   2.806
13983W        W86331  44.386  36.851  11.049
13984W        W86332   1.850  38.856  14.997
13985W        W86333  14.589  27.518   4.131
13986W        W86334  10.783  25.571  14.936
13987W        W86335  10.639   2.346  11.429
13988W        W86336  39.506  25.639  12.479
13989W        W86337  17.253  29.637   0.926
13990W        W86338  15.163  20.662   0.740
13991W        W86339   1.749   5.245  11.107
13992W        W86340  26.135  35.866  11.882
13993W        W86341  40.996  35.946  14.908
13994W        W86342  18.105  24.556  13.009
13995W        W86343   7.855  41.525   3.243
13996W        W86344   9.189  26.985  12.564
13997W        W86345  13.821  37.388   3.301
13998W        W86346  34.036  41.869   3.150
13999W        W86347   6.905  19.168  11.508
14000W        W86348   3.232  36.532  10.917
14001W        W86349  40.968   0.916   3.243
14002W        W86350  33.385   1.473   0.869
14003W        W86351  16.711  23.214  11.493
14004W        W86352  36.431  37.995  13.531
14005W        W86353  36.076  31.570  10.469
14006W        W86354  12.810   5.280   2.270
14007W        W86355  32.629  19.239  12.043
14008W        W86356  44.936  34.997   2.823
14009W        W86357  10.703   7.788   0.305
14010W        W86358  28.930  19.281  11.567
14011W        W86359  39.908  42.829   0.366
14012W        W86360  22.199   9.187  12.005
14013W        W86361   3.910  23.620   5.132
14014W        W86362  27.537  42.907   2.361
14015W        W86363  31.977  20.140  14.781
14016W        W86364  43.897  28.609   3.271
14017W        W86365  32.507  43.798   0.932
14018W        W86366  14.605  26.972   4.713
14019W        W86367  39.547  17.210   2.738
14020W        W86368  12.632   7.278  10.972
14021W        W86369  30.605  22.246  10.543
14022W        W86370  12.743  17.102  13.038
14023W        W86371  35.604  41.889   2.359
14024W        W86372  24.699   1.776  11.121
14025W        W86373  41.401  30.966  14.473
14026W        W86374  24.120   0.773   1.392
14027W        W86375  25.620  17.084  13.988
14028W        W86376   0.764  16.616  13.358
14029W        W86377   0.366  12.225  14.832
14030W        W86378  28.501  26.609   1.377
14031W        W86379  26.696  41.921  11.997
14032W        W86380  17.297  38.075   0.273
14033W        W86381   2.758  36.484  13.871
14034W        W86382  31.992  23.673  14.302
14035W        W86383  10.808  19.577   4.698
14036W        W86384   1.351   8.680   4.647
14037W        W86385  42.788  44.496   3.166
14038W        W86386   2.279  20.687   1.834
14039W        W86387  21.224  23.130  14.763
14040W        W86388   7.909  15.183  11.586
14041W        W86389  38.422  24.486  14.838
14042W        W86390  12.681  15.209   4.163
14043W        W86391  10.225  24.575   1.816
14044W        W86392  29.940  13.139  12.554
14045W        W86393  14.323  20.766  12.090
14046W        W86394  13.155  22.091   4.208
14047W        W86395  43.885  20.040  12.865
14048W        W86396  13.348  17.633   4.184
14049W        W86397  14.282  28.475  10.504
14050W        W86398  17.194  38.901   2.876
14051W        W86399  12.268  23.142   4.260
14052W        W86400   7.821  43.951  13.441
14053W        W86401  10.196   5.266  14.927
14054W        W86402  16.629  42.846   2.269
14055W        W86403   2.392   4.229   3.295
14056W        W86404  40.364  16.751   3.244
14057W        W86405   1.824   5.751   0.825
14058W        W86406  12.827   5.395   4.647
14059W        W86407  13.752  39.320  14.886
14060W        W86408   6.816  17.692   0.411
14061W        W86409  23.053  22.511  10.419
14062W        W86410  15.643  32.620  11.938
14063W        W86411  30.505  21.148   9.983
14064W        W86412  21.159   3.821   3.857
14065W        W86413  14.701  29.132   0.376
14066W        W86414  16.636  10.177  11.505
14067W        W86415  44.314  14.283   4.727
14068W        W86416  15.725  34.926  11.109
14069W        W86417  13.747  25.169  12.972
14070W        W86418  43.419  37.530   4.290
14071W        W86419  35.404  35.954  11.586
14072W        W86420  26.154  40.040  12.995
14073W        W86421   8.657   8.321   2.383
14074W        W86422  33.568  17.694  12.954
14075W        W86423   4.836  29.097  13.420
14076W        W86424  10.753  20.718   1.293
14077W        W86425  24.165  16.662   4.121
14078W        W86426  41.441  28.954  12.931
14079W        W86427  24.640  12.658   1.773
14080W        W86428  35.017   6.378  13.002
14081W        W86429  10.763  41.987  13.407
14082W        W86430  42.935  15.265  14.953
14083W        W86431  25.118  31.537  11.072
14084W        W86432  41.368  14.794  13.546
14085W        W86433  15.733   3.286  12.018
14086W        W86434  22.601  33.441   3.356
14087W        W86435  36.350   7.831   0.948
14088W        W86436  42.340  32.941  12.546
14089W        W86437  15.739  38.944   0.950
14090W        W86438  35.413  37.074  10.514
14091W        W86439  31.405  12.621  14.789
14092W        W86440  19.679  28.020   3.764
14093W        W86441  44.797  12.123   3.839
14094W        W86442  18.785  20.072   4.750
14095W        W86443  29.478  33.451   4.690
14096W        W86444  21.644  38.490   2.233
14097W        W86445  10.227   4.431   1.305
14098W        W86446  29.118  13.615  10.614
14099W        W86447  44.780  40.544  10.522
14100W        W86448  15.164  38.395   1.741
14101W        W86449  18.284   8.798  11.890
14102W        W86450   2.848  30.594   4.821
14103W        W86451  15.113  36.485   0.455
14104W        W86452  38.847  40.950  13.308
14105W        W86453   7.901   6.806  13.990
14106W        W86454  37.547  39.941  14.913
14107W        W86455  43.866  41.532  12.402
14108W        W86456  14.292  23.685   2.689
14109W        W86457  44.993   7.837   2.273
14110W        W86458  22.090  29.597   2.866
14111W        W86459  15.180  41.422  14.823
14112W        W86460  11.298  28.038  14.477
14113W        W86461  19.751  15.701   5.246
14114W        W86462  17.661   6.783   0.762
14115W        W86463  36.435  27.632   2.696
14116W        W86464  21.679  39.483  12.441
14117W        W86465  42.930  43.849  12.427
14118W        W86466  30.586   5.769   5.120
14119W        W86467  27.184  22.730  10.121
14120W        W86468   7.402   5.422   2.708
14121W        W86469  14.219  31.567   0.898
14122W        W86470  39.466  31.053  14.010
14123W        W86471  43.273  27.041  14.032
14124W        W86472  18.226  19.574  13.861
14125W        W86473  31.948  36.076  11.880
14126W        W86474   2.411   7.698  11.003
14127W        W86475  13.273  13.261  14.922
14128W        W86476  22.583   6.884   0.314
14129W        W86477  44.482  44.990   9.921
14130W        W86478  27.110  38.343  14.970
14131W        W86479  43.272  43.350   3.318
14132W        W86480   5.696  26.507  14.961
14133W        W86481  19.557  31.069  13.430
14134W        W86482  33.060  31.476  14.930
14135W        W86483   0.402   2.722  14.418
14136W        W86484  20.031  39.408  13.545
14137W        W86485  10.152  24.177   2.215
14138W        W86486  20.754  16.239  11.501
14139W        W86487  13.238  14.778  10.641
14140W        W86488  24.549  30.915  14.375
14141W        W86489  24.141  17.089   3.720
14142W        W86490  36.898  26.976  14.324
14143W        W86491  30.508  31.949   0.779
14144W        W86492  37.047  26.575   4.202
14145W        W86493   7.800   4.788  10.082
14146W        W86494  34.490  43.899  14.918
14147W        W86495  37.902  38.952   1.310
14148W        W86496  18.276  14.610  13.428
14149W        W86497   6.229   8.707  10.995
14150W        W86498   0.846   4.824   4.159
14151W        W86499   1.920  12.756  11.981
14152W        W86500  11.860  33.567  12.994
14153W        W86501  10.741  24.536  13.385
14154W        W86502   9.671   9.805   3.711
14155W        W86503  16.087  27.554   1.907
14156W        W86504   6.367  37.411   3.811
14157W        W86505   1.929  44.753  10.505
14158W        W86506  17.080  11.645   9.964
14159W        W86507  21.670  16.151   1.268
14160W        W86508  23.217  14.198  12.949
14161W        W86509   7.830  23.587   0.962
14162W        W86510   8.289  30.014  11.985
14163W        W86511  25.186  10.302   0.831
14164W        W86512  33.582  24.535   1.355
14165W        W86513  35.961  11.842   3.718
14166W        W86514  16.305  16.230  13.401
14167W        W86515   7.903  14.297  13.835
14168W        W86516  42.405  26.504  12.395
14169W        W86517   6.812  20.575  12.868
14170W        W86518   7.183  13.127   1.843
14171W        W86519  25.660  22.688   3.354
14172W        W86520  19.045  23.551  11.968
14173W        W86521  43.995  26.031  12.862
14174W        W86522  36.058  35.510  12.521
14175W        W86523  31.058  29.969   0.447
14176W        W86524  33.435  34.007   4.772
14177W        W86525  41.308  13.646  12.010
14178W        W86526  30.447  40.960  13.416
14179W        W86527  17.656  20.038  14.290
14180W        W86528   1.948  25.981  13.830
14181W        W86529  42.356  23.524   1.426
14182W        W86530  17.103  12.213  14.797
14183W        W86531  36.383  18.164  11.053
14184W        W86532  14.314   1.463  10.982
14185W        W86533   6.859  27.560   4.791
14186W        W86534  13.842  18.645   4.790
14187W        W86535   2.254  37.054   3.247
14188W        W86536  35.924  21.695  11.867
14189W        W86537   8.253  36.362   4.820
14190W        W86538  40.972   2.784  12.017
14191W        W86539   4.829   7.717   0.902
14192W        W86540   3.309  25.083  14.476
14193W        W86541  32.582  41.028   2.250
14194W        W86542  29.428   2.377   4.837
14195W        W86543  35.526  24.035  11.081
14196W        W86544  44.416  12.267   4.265
14197W        W86545  26.536  43.796  10.435
14198W        W86546   6.760  36.070  10.935
14199W        W86547  13.823  20.246  10.969
14200W        W86548  24.050  38.394  11.394
14201W        W86549  44.764   4.366   0.461
14202W        W86550  41.885  24.056  10.504
14203W        W86551   9.175  43.967   4.652
14204W        W86552  34.560   8.802   4.167
14205W        W86553  10.288  33.043  13.398
14206W        W86554   0.429  44.459   4.191
14207W        W86555  32.460  31.073   3.245
14208W        W86556  29.145  27.504  12.393
14209W        W86557  13.817  43.014  13.051
14210W        W86558  17.126  30.052   5.284
14211W        W86559  31.924   7.863  11.125
14212W        W86560   2.768  43.005  10.058
14213W        W86561  13.637  40.440  13.007
14214W        W86562  42.908  13.803  10.423
14215W        W86563  14.146  37.901  12.407
14216W        W86564  23.175  39.891   0.928
14217W        W86565  12.682   5.926  12.964
14218W        W86566   1.912  41.035  11.087
14219W        W86567  17.203  11.674  11.596
14220W        W86568  13.607   0.353  11.512
14221W        W86569  39.544  35.924   2.803
14222W        W86570  20.539  37.457   2.215
14223W        W86571  16.135  27.129  12.987
14224W        W86572   6.393  17.298   3.702
14225W        W86573  30.153  11.204  13.509
14226W        W86574  12.837  37.047   2.676
14227W        W86575  31.067  13.247  14.986
14228W        W86576  24.591  22.548  12.459
14229W        W86577  43.359  34.070  13.013
14230W        W86578  27.976  16.102   3.297
14231W        W86579  32.926  15.207  13.411
14232W        W86580  37.533  30.649   1.326
14233W        W86581   0.950  44.340  12.541
14234W        W86582  40.510  34.046   0.826
14235W        W86583  29.000  22.727  10.933
14236W        W86584  14.183  28.127   2.375
14237W        W86585  10.222   6.826   2.414
14238W        W86586  29.494  39.019  10.032
14239W        W86587  33.560  16.256   3.220
14240W        W86588  12.801   6.260  11.454
14241W        W86589  39.440  40.003  13.999
14242W        W86590  14.170   9.832   0.481
14243W        W86591  13.318   8.823  14.332
14244W        W86592  22.683   8.400  12.446
14245W        W86593  11.673  38.524   0.742
14246W        W86594  22.666   2.312  12.834
14247W        W86595  35.601  11.810   0.409
14248W        W86596   0.831  39.329   0.943
14249W        W86597  10.740  36.548   0.779
14250W        W86598   7.796  28.977   2.844
14251W        W86599   8.372  42.325  13.055
14252W        W86600   9.177  21.258  10.408
14253W        W86601  14.736  17.600  10.940
14254W        W86602  15.137  41.914   3.154
14255W        W86603  18.570   1.739  13.511
14256W        W86604  11.679  32.982   2.202
14257W        W86605  31.038   7.665   1.290
14258W        W86606  18.134  20.747   2.407
14259W        W86607  41.023   3.350  10.530
14260W        W86608  10.829  18.119  13.388
14261W        W86609  20.565  37.020   0.931
14262W        W86610  17.200  11.301  12.075
14263W        W86611   0.797  43.905   2.192
14264W        W86612  41.461  33.946   3.829
14265W        W86613  37.864  34.863  11.954
14266W        W86614   5.844  20.269   4.165
14267W        W86615  22.690  34.970  10.437
14268W        W86616   0.349  20.618   4.143
14269W        W86617  18.268  37.548  12.527
14270W        W86618  43.427  27.468  13.413
14271W        W86619  16.794   1.843  12.943
14272W        W86620  16.718  16.597  14.364
14273W        W86621  21.522   0.968   3.765
14274W        W86622   9.718   5.324   2.756
14275W        W86623   0.765  26.465   1.799
14276W        W86624  12.140  14.310  14.000
14277W        W86625  44.473  28.969  14.323
14278W        W86626  27.556  28.532   0.922
14279W        W86627  39.047  30.075   1.380
14280W        W86628  12.161  16.238   1.439
14281W        W86629  18.091  10.634  13.355
14282W        W86630   9.823  22.620  12.882
14283W        W86631  23.569  30.967   2.741
14284W        W86632  14.291  32.982   0.816
14285W        W86633   7.775  22.730   0.474
14286W        W86634  40.326  15.103  11.509
14287W        W86635  26.953   3.744  12.574
14288W        W86636   4.792   5.833   0.321
14289W        W86637   9.186  15.637  13.829
14290W        W86638  28.971  15.711   0.822
14291W        W86639  42.021  15.703  11.556
14292W        W86640   6.840  24.000  14.480
14293W        W86641   7.736   9.753   3.780
14294W        W86642  15.091  22.036   0.375
14295W        W86643  41.022  23.660   3.256
14296W        W86644  16.223  22.211  12.867
14297W        W86645  26.989  17.794  11.856
14298W        W86646  18.156  44.260  11.888
14299W        W86647  14.833  18.748  13.949
14300W        W86648  27.140   3.248   0.817
14301W        W86649  25.986  17.718  14.814
14302W        W86650  32.083  38.445  13.468
14303W        W86651  12.299  31.087   4.272
14304W        W86652  12.153  19.136   1.284
14305W        W86653  41.496   6.293   1.267
14306W        W86654   0.872  20.096  14.464
14307W        W86655  39.479  29.543   3.222
14308W        W86656  31.602   6.206   2.669
14309W        W86657  17.691  32.495   5.672
14310W        W86658  28.956  14.207  11.874
14311W        W86659  24.703  10.759  13.826
14312W        W86660   2.800  41.969   2.397
14313W        W86661  23.012  22.119  12.954
14314W        W86662  24.100  35.935   0.264
14315W        W86663  16.588  10.350   3.808
14316W        W86664   9.738  37.426  11.869
14317W        W86665   1.887  18.779   3.236
14318W        W86666  30.911  22.203   1.316
14319W        W86667  20.682  16.796   2.822
14320W        W86668  44.399  39.950  14.287
14321W        W86669  17.740   8.195   0.829
14322W        W86670  33.094   8.173   5.635
14323W        W86671  39.017   3.921  11.477
14324W        W86672  31.151  29.918  11.391
14325W        W86673   8.193   1.404  13.006
14326W        W86674  26.963  36.891  14.927
14327W        W86675   4.378  12.803  13.843
14328W        W86676   3.380  37.386   4.610
14329W        W86677   8.360  36.401  11.101
14330W        W86678  19.574  19.606   1.408
14331W        W86679  13.306   0.474  13.383
14332W        W86680  11.172  31.623  11.957
14333W        W86681  19.105   3.440   3.367
14334W        W86682   8.775  34.489   0.293
14335W        W86683  37.022  23.035   3.824
14336W        W86684  27.449   8.180  13.922
14337W        W86685  36.416  10.874  11.535
14338W        W86686  24.129   6.902  11.408
14339W        W86687  39.988  21.544  12.865
14340W        W86688  17.759  28.101   2.241
14341W        W86689  24.080  14.135   3.778
14342W        W86690  24.725   3.727   2.838
14343W        W86691  35.969   9.382   4.157
14344W        W86692   3.939   4.341  11.522
14345W        W86693  23.708   1.446  13.927
14346W        W86694   9.676   2.960  11.575
14347W        W86695  13.695  32.437  14.338
14348W        W86696  22.542  10.695   0.798
14349W        W86697  32.593  22.060  14.347
14350W        W86698  17.734  12.653   1.881
14351W        W86699   5.874  20.677  11.908
14352W        W86700   8.330  39.909   0.405
14353W        W86701  38.339  11.763  11.543
14354W        W86702  44.841  16.665  11.891
14355W        W86703  31.435   4.767  12.996
14356W        W86704  11.142  21.059   9.440
14357W        W86705   3.362  22.016   2.800
14358W        W86706  33.957  33.385  11.922
14359W        W86707  12.837   2.845   2.838
14360W        W86708  16.101  22.201  14.982
14361W        W86709  12.711  17.081   0.793
14362W        W86710  32.447  29.955  12.931
14363W        W86711   8.339  23.050  13.462
14364W        W86712  38.873  11.186  14.967
14365W        W86713  27.476   8.867  14.957
14366W        W86714  14.322  25.513   4.683
14367W        W86715  34.980  28.493  13.538
14368W        W86716  10.314  11.842  14.785
14369W        W86717  44.867  14.679   0.410
14370W        W86718   6.809  17.205  12.531
14371W        W86719  30.924  21.183  10.948
14372W        W86720  13.792  15.207  11.385
14373W        W86721   0.482  29.093   2.812
14374W        W86722  44.354  16.274   2.872
14375W        W86723  15.633  31.011   1.352
14376W        W86724   6.327  44.405  13.968
14377W        W86725  40.306  16.169  13.886
14378W        W86726   5.198  39.855  13.334
14379W        W86727  38.004   0.305  12.849
14380W        W86728   4.387  30.065   4.619
14381W        W86729  36.885  13.821   3.639
14382W        W86730  32.418  37.841   3.282
14383W        W86731   9.207  33.947   4.317
14384W        W86732  19.196  18.683  14.497
14385W        W86733  44.871  35.985  13.477
14386W        W86734   3.325  28.591  10.893
14387W        W86735  36.393  29.611  12.534
14388W        W86736   6.202  23.159   2.696
14389W        W86737  39.852  34.405  10.999
14390W        W86738  12.336  18.087   4.623
14391W        W86739  41.944  43.879   3.226
14392W        W86740  20.598  24.573  12.478
14393W        W86741  38.859   2.856  13.516
14394W        W86742  17.654  24.171   1.441
14395W        W86743  26.956  32.066   2.231
14396W        W86744  37.932  25.052  11.874
14397W        W86745  22.622  23.495  13.815
14398W        W86746  37.842  43.385  13.449
14399W        W86747  20.638  34.092   3.685
14400W        W86748  13.134  33.034  13.393
14401W        W86749  19.218  25.708  13.939
14402W        W86750  36.514  20.619  13.839
14403W        W86751  28.164  34.063   1.714
14404W        W86752  32.588  10.198  11.991
14405W        W86753  37.029  44.944   0.454
14406W        W86754   6.261   0.307  11.455
14407W        W86755  43.926  28.060   2.676
14408W        W86756  39.439   0.268   1.888
14409W        W86757   3.712  19.546   5.102
14410W        W86758  35.484   0.418  13.833
14411W        W86759  28.122  39.910  14.448
14412W        W86760   7.876  36.028  12.096
14413W        W86761   7.177  21.602   4.798
14414W        W86762   6.735  35.408   4.216
14415W        W86763  30.649  38.878   0.736
14416W        W86764   8.340  23.595  11.433
14417W        W86765  20.545  30.482   1.418
14418W        W86766  29.996  11.817   4.614
14419W        W86767  22.112  18.071  10.992
14420W        W86768  33.921  39.919   2.362
14421W        W86769  24.217  20.063   1.342
14422W        W86770  41.297  26.186   4.206
14423W        W86771  24.974   2.465   0.749
14424W        W86772   7.274  13.262   3.202
14425W        W86773  38.489  10.750   0.902
14426W        W86774  32.533  19.219   4.757
14427W        W86775  13.140  10.833   3.290
14428W        W86776  20.609  38.534  13.903
14429W        W86777  40.942  39.915  14.953
14430W        W86778  13.657  27.555   2.303
14431W        W86779  23.226  27.142  10.967
14432W        W86780  32.495  18.650   1.928
14433W        W86781   6.887  14.777  12.479
14434W        W86782  20.625  28.534   2.889
14435W        W86783  17.659   7.884  14.370
14436W        W86784  25.542  35.985  14.336
14437W        W86785  17.142  35.401   0.410
14438W        W86786  26.605   7.253   1.885
14439W        W86787  28.590  18.600  14.940
14440W        W86788   7.762  26.144   3.642
14441W        W86789  19.241  11.710  13.425
14442W        W86790   6.255  41.957  13.809
14443W        W86791  39.389   6.732   2.728
14444W        W86792  29.107   4.810  11.129
14445W        W86793  36.896  11.195   3.379
14446W        W86794  29.576  27.054   1.900
14447W        W86795  29.475  15.622   1.836
14448W        W86796  13.772  44.286  14.881
14449W        W86797  13.763  33.020   2.894
14450W        W86798  43.427  39.878  11.935
14451W        W86799  17.262  42.914   3.171
14452W        W86800  14.133  19.273  13.516
14453W        W86801  26.193  28.460  11.110
14454W        W86802  24.624  36.457  11.401
14455W        W86803  13.770  31.904  11.961
14456W        W86804  35.051  28.090  13.920
14457W        W86805  15.633  35.583   1.286
14458W        W86806  40.826  23.207  11.610
14459W        W86807  25.017  21.625  11.907
14460W        W86808   4.876  38.828  10.933
14461W        W86809   2.360  43.905  14.870
14462W        W86810  25.138  25.181   4.118
14463W        W86811   5.697  31.141   0.469
14464W        W86812  15.634  21.138  11.958
14465W        W86813  31.065  13.688  10.492
14466W        W86814  18.054  21.037   0.256
14467W        W86815  42.378  10.831  12.544
14468W        W86816  19.069   2.762   0.333
14469W        W86817  32.017  25.676   4.232
14470W        W86818  16.647  30.158   1.219
14471W        W86819  26.078  44.357   0.330
14472W        W86820  14.192   2.794  11.885
14473W        W86821  22.531  37.942   1.707
14474W        W86822  21.730  31.101   2.731
14475W        W86823   8.823   3.396  13.398
14476W        W86824   0.912  21.255   4.318
14477W        W86825   4.413  24.180   0.471
14478W        W86826  21.242  25.072   3.826
14479W        W86827  23.210  15.101  12.467
14480W        W86828  37.454  31.946   3.709
14481W        W86829  41.874  28.555   1.787
14482W        W86830  21.173  21.533   3.156
14483W        W86831  37.895  35.016  10.002
14484W        W86832  20.246  27.164   2.709
14485W        W86833  34.104  24.122   4.662
14486W        W86834  13.204   6.878  12.480
14487W        W86835  13.715  22.529   4.756
14488W        W86836  32.135   7.734   2.673
14489W        W86837  20.195  33.893   3.323
14490W        W86838   5.734  13.612   2.892
14491W        W86839  13.270   7.349   0.390
14492W        W86840  21.126  25.147   4.305
14493W        W86841   1.379   3.345  14.780
14494W        W86842  10.343  35.586  11.600
14495W        W86843  17.181  15.224  12.434
14496W        W86844  20.753  44.386  11.427
14497W        W86845  44.434  14.242   1.785
14498W        W86846  10.161  31.569   3.350
14499W        W86847  24.607  26.056   0.847
14500W        W86848  39.477  29.501   2.190
14501W        W86849  24.552  26.634   3.850
14502W        W86850  37.983  15.748   1.377
14503W        W86851   7.370  31.151   2.690
14504W        W86852  27.634  37.992   3.167
14505W        W86853  43.314  32.043   4.663
14506W        W86854  16.166   1.951  13.881
14507W        W86855  25.114  44.789  10.531
14508W        W86856  13.715   1.946   2.709
14509W        W86857  24.087  17.240   2.839
14510W        W86858   8.257   8.198   0.855
14511W        W86859   9.711  36.523   3.250
14512W        W86860  31.551  27.531  12.096
14513W        W86861  17.180   1.456  14.924
14514W        W86862  21.161  22.219  12.855
14515W        W86863   8.160  34.993  12.948
14516W        W86864   2.391   8.388  11.863
14517W        W86865  21.127  19.129   5.285
14518W        W86866  18.235   8.795  13.029
14519W        W86867  44.475  29.151  13.932
14520W        W86868  39.042   0.975  12.062
14521W        W86869   7.301  28.588  11.909
14522W        W86870  27.628  35.424   4.164
14523W        W86871   2.863  44.883  11.091
14524W        W86872  34.944  22.038   0.948
14525W        W86873   5.404  31.409   2.220
14526W        W86874  43.966  12.210   0.749
14527W        W86875   8.384  14.242  14.903
14528W        W86876   5.719  15.641   4.196
14529W        W86877  39.489  35.048   0.964
14530W        W86878  39.328  13.248   0.764
14531W        W86879   2.407  10.377  14.031
14532W        W86880  24.018  34.002  10.439
14533W        W86881  20.710  40.049  12.903
14534W        W86882  18.115  33.501  12.993
14535W        W86883  40.012   2.752   3.689
14536W        W86884   6.419  18.748   2.359
14537W        W86885  40.897   4.321   2.756
14538W        W86886  22.698  25.617  10.634
14539W        W86887  23.514  15.639  10.918
14540W        W86888   9.774  37.051  13.906
14541W        W86889  29.666  18.724  13.877
14542W        W86890  28.054  33.500  10.112
14543W        W86891  15.679  18.211  14.516
14544W        W86892  30.124   5.708  10.474
14545W        W86893  30.631  40.016   1.762
14546W        W86894  16.636  21.669   2.740
14547W        W86895  34.385  39.441   2.205
14548W        W86896  17.772  35.059  12.833
14549W        W86897   4.302  28.662  11.407
14550W        W86898  23.567  32.083  13.354
14551W        W86899   1.823  33.077   1.347
14552W        W86900  39.972   6.782  12.990
14553W        W86901  11.667   2.797  11.542
14554W        W86902   9.744  17.256  14.811
14555W        W86903   0.280  33.565  11.942
14556W        W86904  10.289  34.894   4.687
14557W        W86905  36.508  11.709   3.665
14558W        W86906   4.881  25.035  14.426
14559W        W86907  26.142   0.392   0.328
14560W        W86908  21.532  28.667   0.280
14561W        W86909  18.113  10.332  13.483
14562W        W86910  12.697  36.880   1.772
14563W        W86911   6.372  11.205  10.906
14564W        W86912  13.278   4.717  14.945
14565W        W86913  31.131  31.580  11.086
14566W        W86914   7.406  18.697  14.774
14567W        W86915   0.293  19.732  13.387
14568W        W86916  30.429  19.234   0.467
14569W        W86917  32.548  43.432  10.429
14570W        W86918  22.033  27.021   1.864
14571W        W86919  42.326   0.876   2.889
14572W        W86920  33.089  42.897  13.308
14573W        W86921  11.650  40.884  12.453
14574W        W86922   9.256  35.943  13.531
14575W        W86923  23.682  41.981   3.239
14576W        W86924  15.642  34.481  11.084
14577W        W86925   7.895  36.542  12.570
14578W        W86926  22.604  12.765  10.120
14579W        W86927  11.682  25.131   1.783
14580W        W86928  25.111  19.615  11.947
14581W        W86929  42.474  20.732  11.954
14582W        W86930  28.671  30.118  11.934
14583W        W86931   5.868  27.146   3.293
14584W        W86932   7.287  41.508  11.008
14585W        W86933  11.317  25.469  13.338
14586W        W86934  25.045  15.773  14.894
14587W        W86935  24.582  24.671   2.814
14588W        W86936  41.872  27.565  10.914
14589W        W86937  14.805  25.593  12.892
14590W        W86938   9.697  32.937  13.819
14591W        W86939  33.098  36.873  10.047
14592W        W86940  12.349  21.261  12.982
14593W        W86941  32.631  28.649   2.376
14594W        W86942  14.630  38.888   2.807
14595W        W86943  38.519  40.471  14.376
14596W        W86944  28.507  27.475   1.337
14597W        W86945  11.360   4.289  13.516
14598W        W86946  25.532  21.157  10.581
14599W        W86947  28.619  16.076   0.819
14600W        W86948  36.013  20.090  12.421
14601W        W86949  12.156  23.548   0.830
14602W        W86950  18.659  25.978   1.353
14603W        W86951  12.671   6.808   5.751
14604W        W86952   9.368  19.193   0.819
14605W        W86953   7.804  25.638   1.825
14606W        W86954  38.554  10.189   2.820
14607W        W86955  22.715  37.945  10.485
14608W        W86956  38.074  42.942   2.375
14609W        W86957   0.306  16.663   4.164
14610W        W86958  21.595  35.026  13.460
14611W        W86959  19.590  40.534  11.445
14612W        W86960   1.358  23.544  11.034
14613W        W86961  12.187  31.460  14.851
14614W        W86962  32.550  10.280   1.346
14615W        W86963  43.834  36.056   0.484
14616W        W86964  25.040  21.032   1.390
14617W        W86965  16.179  41.474   0.267
14618W        W86966  39.446  18.272  14.901
14619W        W86967  19.628  35.363  14.999
14620W        W86968  23.693  44.324   0.762
14621W        W86969  18.152  29.075   1.906
14622W        W86970  36.507  23.064  12.843
14623W        W86971   3.751  14.263  11.115
14624W        W86972   9.699  29.953  13.023
14625W        W86973  36.395   7.757   2.212
14626W        W86974   4.350  33.494   3.253
14627W        W86975   4.232  10.766  12.029
14628W        W86976  30.056  27.081   2.190
14629W        W86977  23.506  32.409   2.848
14630W        W86978  38.555  32.397   2.671
14631W        W86979  39.380  20.695   3.763
14632W        W86980  35.519  30.581  10.522
14633W        W86981  36.530  12.698   1.318
14634W        W86982   6.378   0.974  11.557
14635W        W86983  21.030  25.663   1.312
14636W        W86984   5.865  28.671  13.524
14637W        W86985   5.903   9.765   4.196
14638W        W86986  28.501  22.570   3.824
14639W        W86987  12.132  12.310   0.811
14640W        W86988  36.402  15.725   5.090
14641W        W86989  10.638   3.920   3.801
14642W        W86990  23.637  28.640   4.241
14643W        W86991  26.616  15.211   2.703
14644W        W86992  39.527   9.292   4.674
14645W        W86993  11.765  34.942   1.321
14646W        W86994  11.233  30.015  10.559
14647W        W86995  13.742  40.821   3.746
14648W        W86996   3.827  34.609   0.364
14649W        W86997  43.319  37.834   3.633
14650W        W86998   0.840   1.432   0.880
14651W        W86999  12.330  20.619  13.413
14652W        W87000  12.753  30.993   1.707
14653W        W87001  32.606  35.943   2.708
14654W        W87002  29.153  11.803   1.405
14655W        W87003   6.832   1.760  13.335
14656W        W87004  33.383   9.340  14.468
14657W        W87005  19.714  44.364  12.355
14658W        W87006   4.936   3.444   2.192
14659W        W87007  37.020   4.793   4.316
14660W        W87008  36.851  41.450  13.994
14661W        W87009   6.222   5.710   2.678
14662W        W87010  15.222  25.119   3.381
14663W        W87011  28.113  42.918  14.462
14664W        W87012  37.884   4.261   1.324
14665W        W87013  19.624  11.635  12.081
14666W        W87014  38.850  33.950  13.961
14667W        W87015  25.544  32.136   3.249
14668W        W87016   3.852  14.593  13.834
14669W        W87017  13.184  38.940  13.472
14670W        W87018   8.287   5.881  11.876
14671W        W87019  17.679  35.949  11.494
14672W        W87020   4.321  39.013  11.607
14673W        W87021   0.347   0.770  12.963
14674W        W87022  18.191  35.989  14.320
14675W        W87023  22.199  13.736  10.916
14676W        W87024   4.780  23.614   5.299
14677W        W87025  30.528  14.834  12.861
14678W        W87026  39.460  31.010   3.672
14679W        W87027  40.395  22.526  11.513
14680W        W87028  35.862  33.082   3.188
14681W        W87029  34.879  30.527  13.984
14682W        W87030  40.036  15.607  13.839
14683W        W87031  30.078   7.754   1.392
14684W        W87032  24.660  37.557   2.206
14685W        W87033  23.137  32.451   2.741
14686W        W87034  11.361  16.630   3.340
14687W        W87035  23.135  21.018   1.229
14688W        W87036  23.621  25.666   2.704
14689W        W87037  19.177  16.712   3.281
14690W        W87038  19.197  40.803   0.351
14691W        W87039  40.849  17.200   1.428
14692W        W87040  13.783  39.542   2.746
14693W        W87041  23.619  18.283  11.954
14694W        W87042  14.621  29.135  13.464
14695W        W87043  40.862  37.437  12.485
14696W        W87044  23.689  17.592  12.851
14697W        W87045  29.567   7.858  10.959
14698W        W87046  22.166   9.808   2.793
14699W        W87047  14.809  25.143   4.604
14700W        W87048   2.278   1.349  12.902
14701W        W87049  35.935  17.697  11.558
14702W        W87050  25.619  30.451   3.274
14703W        W87051  24.136  40.867  11.599
14704W        W87052   1.315  13.663   4.114
14705W        W87053  44.926  38.549   3.850
14706W        W87054  30.035   7.803  11.898
14707W        W87055  44.372   5.193  11.120
14708W        W87056  38.339  15.780   0.375
14709W        W87057  26.018   0.368   2.291
14710W        W87058  17.160  19.724  13.910
14711W        W87059  26.988  32.612  12.826
14712W        W87060  37.519  25.017  14.502
14713W        W87061   5.909  39.988  13.048
14714W        W87062   4.840  21.749   0.351
14715W        W87063   0.275  28.062  13.322
14716W        W87064  24.182  18.236  10.536
14717W        W87065  28.082  12.666  12.885
14718W        W87066  20.035  19.130   1.394
14719W        W87067  34.027  40.460   2.888
14720W        W87068  43.930  12.708  12.391
14721W        W87069   8.659   4.283   1.832
14722W        W87070  14.818   7.893  10.622
14723W        W87071  38.840  43.476   4.698
14724W        W87072   8.243  37.579   0.313
14725W        W87073  30.977  30.482   4.179
14726W        W87074  41.320  29.070   0.421
14727W        W87075  30.493   2.761  12.946
14728W        W87076  40.959  29.031   3.782
14729W        W87077   7.205  29.961   3.791
14730W        W87078  21.700  15.646   2.194
14731W        W87079  39.032   7.827   4.265
14732W        W87080  10.214  20.273  14.392
14733W        W87081  23.608  27.574  14.960
14734W        W87082  24.197  33.594   4.231
14735W        W87083  43.948  11.281  14.895
14736W        W87084  31.103  13.728  13.433
14737W        W87085  38.039  15.253   3.224
14738W        W87086   7.847  42.818  10.978
14739W        W87087  41.372  23.508  13.466
14740W        W87088  14.154  13.311  14.835
14741W        W87089   4.761  16.312  13.333
14742W        W87090  30.088  31.987  12.873
14743W        W87091   1.395  31.902   0.479
14744W        W87092  37.432  17.306   0.293
14745W        W87093  29.033  17.127   2.381
14746W        W87094  35.004  41.410   3.379
14747W        W87095  35.464  25.519   3.726
14748W        W87096  17.161  13.193   5.145
14749W        W87097  34.033  32.081  11.391
14750W        W87098  13.736   9.350   4.164
14751W        W87099  15.244  27.941  11.893
14752W        W87100  35.061   6.715   1.804
14753W        W87101  33.901  34.506   3.740
14754W        W87102  26.631  39.444  12.452
14755W        W87103  26.160  38.899   3.707
14756W        W87104  44.865  18.114   3.824
14757W        W87105  18.623   6.206  10.904
14758W        W87106  37.884  30.102   1.422
14759W        W87107  43.397   6.719  13.805
14760W        W87108  27.660  43.909  10.564
14761W        W87109  43.500  28.661  12.364
14762W        W87110  37.540  42.820  13.911
14763W        W87111  30.027  14.128   3.291
14764W        W87112   1.939  20.080  10.906
14765W        W87113  37.472  43.824   1.261
14766W        W87114  11.777  22.698  14.399
14767W        W87115  30.109  16.729   2.891
14768W        W87116  34.376   7.855  11.378
14769W        W87117  10.262  11.781   1.828
14770W        W87118  26.698   4.846  10.542
14771W        W87119  25.488   1.873   3.341
14772W        W87120  33.443   0.883  12.905
14773W        W87121   2.804  35.957  12.888
14774W        W87122   7.750   1.931   5.318
14775W        W87123  39.450  37.046   3.201
14776W        W87124   0.871  29.042   3.696
14777W        W87125  13.290  15.635  12.463
14778W        W87126  40.367   7.752  10.439
14779W        W87127   0.493  25.488  10.440
14780W        W87128  30.537  40.018   2.216
14781W        W87129  17.161  42.449  11.984
14782W        W87130  22.601  29.511   0.368
14783W        W87131  31.622  44.420   2.791
14784W        W87132   5.221  11.732  11.046
14785W        W87133   8.756  43.442  10.962
14786W        W87134   9.687  15.178  12.006
14787W        W87135  29.071  28.967   0.339
14788W        W87136  40.399  37.890  13.970
14789W        W87137   9.817  18.155   4.655
14790W        W87138  38.504   4.375   5.614
14791W        W87139  30.515  20.559  14.280
14792W        W87140  35.557  14.113   4.791
14793W        W87141   2.429  33.953   4.218
14794W        W87142  40.868  23.667   2.840
14795W        W87143  11.648  25.557   4.182
14796W        W87144   3.411  42.482  11.596
14797W        W87145  21.586  42.792   4.262
14798W        W87146  32.018   3.927   2.711
14799W        W87147  43.893  34.890  11.034
14800W        W87148  31.984  33.877  14.826
14801W        W87149  31.540   6.836  12.534
14802W        W87150  20.628  22.701  14.439
14803W        W87151   6.887  34.889   0.910
14804W        W87152  30.024  31.554  14.948
14805W        W87153  32.940  10.808   0.418
14806W        W87154   3.326  22.121   3.645
14807W        W87155  23.509  37.339   4.187
14808W        W87156   0.308  14.096  11.985
14809W        W87157  13.755  43.964   2.771
14810W        W87158   1.874   5.791  10.582
14811W        W87159  19.588  12.204   0.945
14812W        W87160  17.108  33.488   1.867
14813W        W87161  13.157   7.341  10.541
14814W        W87162  16.316  13.837  10.050
14815W        W87163   4.392  32.576  11.867
14816W        W87164  36.945  13.804  14.478
14817W        W87165  44.917  29.508   0.776
14818W        W87166  20.640  30.414   4.696
14819W        W87167  26.599  13.284   4.319
14820W        W87168  26.603  25.509   0.761
14821W        W87169  35.464  20.691   1.442
14822W        W87170  16.318  19.694   5.232
14823W        W87171  35.061  21.617  10.051
14824W        W87172   7.868   2.426   1.900
14825W        W87173  26.517  10.210   4.349
14826W        W87174  16.200  37.833  12.488
14827W        W87175  20.177  22.589  13.391
14828W        W87176  12.160  19.085  11.020
14829W        W87177  14.636  26.672   1.884
14830W        W87178  14.616  14.724   4.769
14831W        W87179  38.929   6.721  13.879
14832W        W87180  34.014   4.327   4.181
14833W        W87181  43.813   8.855   4.350
14834W        W87182   3.809  23.676   2.808
14835W        W87183  32.078  17.145   0.468
14836W        W87184  37.391  27.995  12.551
14837W        W87185   7.717  38.000   4.253
14838W        W87186   3.368  14.680   0.953
14839W        W87187  22.208  35.471  13.321
14840W        W87188  40.501  44.984   1.215
14841W        W87189  42.789   6.381  14.807
14842W        W87190  40.479  20.642  12.404
14843W        W87191  24.648   0.433  10.604
14844W        W87192  10.330  40.857  11.475
14845W        W87193  11.728  10.757   0.269
14846W        W87194  14.641  21.621   1.321
14847W        W87195  12.776  35.108  11.596
14848W        W87196   4.266   2.235  13.440
14849W        W87197  27.467  12.156   2.234
14850W        W87198  26.662  42.328  12.413
14851W        W87199  44.863  26.555  10.606
14852W        W87200  24.058  35.933  11.055
14853W        W87201  43.349  15.683  14.815
14854W        W87202  20.601   0.819  13.842
14855W        W87203  35.516  41.900   3.380
14856W        W87204   8.698  21.627   5.159
14857W        W87205  27.650  30.610   4.154
14858W        W87206  31.025  41.527  13.450
14859W        W87207   1.899   6.356  11.413
14860W        W87208  39.911   7.360   3.708
14861W        W87209  43.983   7.871   0.373
14862W        W87210  33.948  15.164   4.828
14863W        W87211  26.509  21.589   4.292
14864W        W87212   8.395  10.643  10.444
14865W        W87213  38.911   4.842   1.418
14866W        W87214  22.568   7.362  12.426
14867W        W87215  21.194  12.137   0.962
14868W        W87216   3.256  18.055  14.415
14869W        W87217  29.509   1.473  14.875
14870W        W87218  30.015  23.627  14.772
14871W        W87219  35.401  23.492   2.785
14872W        W87220   7.716  23.551   3.382
14873W        W87221   7.839  26.113  11.412
14874W        W87222  43.972  30.158  12.092
14875W        W87223  23.639  30.146   2.262
14876W        W87224  30.150  28.612  14.975
14877W        W87225  42.893  10.874   2.291
14878W        W87226  18.708  38.513  13.989
14879W        W87227  29.920  40.996  13.852
14880W        W87228   6.232   6.887   3.351
14881W        W87229  40.922  27.566  12.469
14882W        W87230  26.161  24.619  14.845
14883W        W87231   6.236   3.327   2.331
14884W        W87232  12.295  22.089  11.051
14885W        W87233  14.690  17.730   1.408
14886W        W87234  26.654  38.922   4.263
14887W        W87235  29.113   1.977  11.093
14888W        W87236  14.261  39.349  13.931
14889W        W87237  28.957  34.380   2.732
14890W        W87238  36.860  23.628   4.215
14891W        W87239   0.383  35.029  10.459
14892W        W87240   7.738  19.660  11.018
14893W        W87241   5.206  18.178   1.748
14894W        W87242   2.373  11.662   5.112
14895W        W87243  23.718  22.162  12.438
14896W        W87244  43.804  43.318  11.917
14897W        W87245   8.223  35.485   3.366
14898W        W87246  35.896  41.342  14.361
14899W        W87247  39.492  27.020  12.874
14900W        W87248   2.405  25.200   3.743
14901W        W87249  36.014  13.639   4.177
14902W        W87250   5.700  43.470   2.748
14903W        W87251  35.496  16.737  12.052
14904W        W87252  24.596  17.166  12.431
14905W        W87253  42.422   8.345  12.458
14906W        W87254  43.315  41.897   2.752
14907W        W87255  11.807  32.606  12.843
14908W        W87256   4.448  18.111   3.717
14909W        W87257  38.420  16.703   4.609
14910W        W87258  22.705  13.814   1.411
14911W        W87259  10.201  31.085   3.683
14912W        W87260  39.818  34.527   2.188
14913W        W87261   6.705  17.071  13.432
14914W        W87262  36.913  30.576   0.477
14915W        W87263  12.621   0.265   0.760
14916W        W87264  23.564  16.210  12.078
14917W        W87265  32.072  17.137   0.778
14918W        W87266  14.701  26.479   3.804
14919W        W87267  19.678  39.857   2.305
14920W        W87268  34.372  10.783  14.948
14921W        W87269  33.416  20.036   2.204
14922W        W87270   3.387  36.400   1.826
14923W        W87271   9.643  26.101  13.956
14924W        W87272  38.472  22.236  14.337
14925W        W87273  28.102  25.090  12.404
14926W        W87274   8.819  24.698  10.442
14927W        W87275   0.348  43.780  11.937
14928W        W87276  15.199   0.424  10.998
14929W        W87277  32.056   4.254   1.694
14930W        W87278  34.868  31.934   4.204
14931W        W87279   2.937   5.724  14.902
14932W        W87280  22.055   4.944   1.711
14933W        W87281  39.948  25.702   3.753
14934W        W87282  32.036  34.507   1.264
14935W        W87283  44.283  35.962   0.841
14936W        W87284  35.980  19.657   0.467
14937W        W87285  32.955  23.589   2.709
14938W        W87286  40.948  38.958  12.491
14939W        W87287  20.087  29.095   4.123
14940W        W87288  23.038  30.976  14.428
14941W        W87289  19.247  35.421  10.606
14942W        W87290  33.497  14.763   3.183
14943W        W87291  12.659  19.581  13.854
14944W        W87292  10.225   1.839   2.397
14945W        W87293  32.114  19.203  13.862
14946W        W87294   0.948  20.666  14.830
14947W        W87295  40.890  29.464   2.898
14948W        W87296  40.864  23.565  10.888
14949W        W87297  41.374  38.473   2.191
14950W        W87298  16.308   2.348  14.275
14951W        W87299  35.010  26.967  14.950
14952W        W87300   7.412  11.365   4.220
14953W        W87301  24.714  31.980  13.391
14954W        W87302   0.393   0.421  10.549
14955W        W87303  11.168  30.162  11.109
14956W        W87304  26.088  13.612   1.798
14957W        W87305   2.256  23.688  12.483
14958W        W87306  28.944  33.934   3.288
14959W        W87307  10.771  15.649   3.253
14960W        W87308  40.341  13.109  12.079
14961W        W87309   5.768   5.285   4.721
14962W        W87310   7.329   8.876   0.277
14963W        W87311  41.353  33.011  11.438
14964W        W87312  35.104  37.976   1.373
14965W        W87313  18.230  29.441  11.907
14966W        W87314   0.828  13.731   1.299
14967W        W87315  15.138  23.627   3.158
14968W        W87316  41.957  36.903   2.734
14969W        W87317  27.973  10.361  14.765
14970W        W87318  32.593  33.556   1.891
14971W        W87319  10.360  44.793   0.839
14972W        W87320  34.951  35.881   1.313
14973W        W87321  28.590   1.888  12.546
14974W        W87322  43.302   0.868   1.868
14975W        W87323  40.447  30.577  12.964
14976W        W87324   1.277  28.435   3.830
14977W        W87325   9.276   4.414   0.857
14978W        W87326  36.537  19.701   4.758
14979W        W87327  39.064  11.274   0.271
14980W        W87328  11.186  10.382  11.857
14981W        W87329  24.653  18.563  10.544
14982W        W87330  21.679   7.815  10.428
14983W        W87331  21.211  39.491  12.511
14984W        W87332  21.195   4.324   2.296
14985W        W87333  19.568  19.642  14.448
14986W        W87334  29.669  14.138   9.959
14987W        W87335  36.066  44.852  14.316
14988W        W87336  15.712  22.698   4.683
14989W        W87337   6.773  29.031   3.186
14990W        W87338   0.458   7.892   2.780
14991W        W87339  44.395  20.177   1.281
14992W        W87340  12.243  20.124  12.026
14993W        W87341   3.295   2.242   3.227
14994W        W87342  10.869   3.452   5.204
14995W        W87343  18.713  21.255  14.337
14996W        W87344  43.373   9.886   4.288
14997W        W87345   4.924  19.663   0.242
14998W        W87346   7.414  31.555  11.001
14999W        W87347  20.697  21.515  11.936
15000W        W87348   5.909  27.565  13.517
15001W        W87349  40.863  22.672   4.762
15002W        W87350  19.047   4.213  13.855
15003W        W87351   6.702  28.137   4.152
15004W        W87352   9.269  17.098   2.393
15005W        W87353  12.749  19.623  14.422
15006W        W87354  22.251  35.551  14.410
15007W        W87355  38.858  19.776   4.278
15008W        W87356  27.161  25.503  12.444
15009W        W87357  43.885  24.532  10.574
15010W        W87358  17.133  25.580  11.402
15011W        W87359   9.293  29.490   3.836
15012W        W87360  26.022  37.551  12.851
15013W        W87361  20.115  36.097   0.291
15014W        W87362  13.110  26.150  11.433
15015W        W87363  42.525  17.175   4.799
15016W        W87364  42.820   2.864  12.356
15017W        W87365   5.219  37.033   2.755
15018W        W87366   1.289   1.278   2.223
15019W        W87367  41.473  25.117   2.194
15020W        W87368  24.653  12.685   4.210
15021W        W87369   2.271  43.964  11.382
15022W        W87370   9.722  35.082   2.312
15023W        W87371  22.682  29.627   0.836
15024W        W87372   3.838  15.760   0.884
15025W        W87373   1.308  16.309   4.136
15026W        W87374   5.811  26.527   3.672
15027W        W87375  37.896  26.527   4.757
15028W        W87376  39.512  37.375  10.421
15029W        W87377  35.570  26.627   4.230
15030W        W87378   4.797  21.046   9.981
15031W        W87379  27.150  39.347  11.429
15032W        W87380  12.286  42.491   0.449
15033W        W87381   0.427  39.053  14.909
15034W        W87382  20.152  37.845  14.510
15035W        W87383  23.079   7.676   4.182
15036W        W87384  18.786   5.222  14.340
15037W        W87385  35.914  23.008  12.062
15038W        W87386   1.953  43.412  13.921
15039W        W87387  10.838  16.759  12.393
15040W        W87388  22.070  32.915  12.050
15041W        W87389  43.864  26.103   0.320
15042W        W87390   5.301  44.882   2.812
15043W        W87391  12.695   2.298   4.656
15044W        W87392  39.522   2.819  12.899
15045W        W87393  13.337  16.617   0.270
15046W        W87394   4.330  27.504  14.453
15047W        W87395  38.016   5.712   1.323
15048W        W87396  19.276   6.749   0.833
15049W        W87397   3.341  40.892   1.738
15050W        W87398  14.096  31.899  10.421
15051W        W87399  42.438  43.284   1.825
15052W        W87400   0.464  34.065   1.914
15053W        W87401  27.595  30.473   4.737
15054W        W87402  25.685  22.218   2.296
15055W        W87403  22.060  32.101   1.344
15056W        W87404  11.335   7.691  11.044
15057W        W87405   6.291  38.832  12.852
15058W        W87406  16.169   6.695  13.400
15059W        W87407  41.392  26.140  13.855
15060W        W87408  17.622   1.478   3.721
15061W        W87409  22.007   7.295  10.464
15062W        W87410  43.800  27.987   3.332
15063W        W87411  33.415  41.392  11.538
15064W        W87412  19.080  13.139   2.338
15065W        W87413  38.903   5.896  14.809
15066W        W87414  16.754  20.164   3.796
15067W        W87415  15.307  26.993   1.779
15068W        W87416  24.193  25.212   0.471
15069W        W87417  38.478  28.461  12.017
15070W        W87418   0.345   4.777   2.294
15071W        W87419   6.402  38.895  10.927
15072W        W87420  23.493   5.318  13.966
15073W        W87421  30.529  37.545   3.711
15074W        W87422  36.883  28.656   1.405
15075W        W87423  12.657  23.127   0.847
15076W        W87424  40.964  37.070  13.344
15077W        W87425  40.427  14.786   2.806
15078W        W87426  21.179  30.107  13.931
15079W        W87427  11.140  11.186   0.930
15080W        W87428  38.914  13.171   4.115
15081W        W87429  19.279  22.511  10.585
15082W        W87430   9.879   0.765   2.858
15083W        W87431  31.524  34.880   0.941
15084W        W87432   3.277  15.246   4.164
15085W        W87433   5.335  40.019   2.756
15086W        W87434  43.291   8.839  11.051
15087W        W87435  10.713  38.044   2.673
15088W        W87436  32.084  13.624  11.391
15089W        W87437   2.284  24.511  10.472
15090W        W87438  23.524  19.276   2.815
15091W        W87439  32.529  13.673   1.703
15092W        W87440  44.320  41.534   0.787
15093W        W87441  23.022  33.491  11.402
15094W        W87442  27.024  33.000  12.051
15095W        W87443  36.582   5.845  14.451
15096W        W87444   6.302   3.436   4.296
15097W        W87445  18.164  34.439   3.753
15098W        W87446   3.376  22.736   4.212
15099W        W87447   0.331  23.637   1.768
15100W        W87448  26.984  41.387   1.896
15101W        W87449  42.927  35.471  13.346
15102W        W87450  36.079   0.742  11.011
15103W        W87451  13.224   6.369   5.674
15104W        W87452  13.265   2.737  10.593
15105W        W87453  25.484  31.484  14.300
15106W        W87454  32.085  27.646   1.907
15107W        W87455  19.714  28.171   5.169
15108W        W87456  41.523  21.621   3.171
15109W        W87457   8.674  20.563  13.432
15110W        W87458  20.605  11.802  13.979
15111W        W87459  35.040  20.232   4.781
15112W        W87460  11.204  20.577   2.181
15113W        W87461  11.855  30.578  13.477
15114W        W87462  13.666  26.557  11.954
15115W        W87463  38.881  17.255   4.124
15116W        W87464  38.830   6.894   9.528
15117W        W87465   5.275  33.467  11.596
15118W        W87466  36.367  39.411   3.164
15119W        W87467  42.313  29.565  13.929
15120W        W87468  14.259   7.410   4.623
15121W        W87469  26.489  30.652  12.530
15122W        W87470   9.748   3.952  14.029
15123W        W87471  30.108  15.810   4.606
15124W        W87472  22.107  34.052  10.979
15125W        W87473  39.346  42.302   1.309
15126W        W87474   5.832  26.554  10.901
15127W        W87475   5.734   4.270   1.285
15128W        W87476   7.305  19.160  14.405
15129W        W87477   0.830   4.304  12.923
15130W        W87478   0.795   8.253   4.795
15131W        W87479   9.287   8.665   1.897
15132W        W87480  42.994  33.965  14.276
15133W        W87481  42.864   6.898  13.927
15134W        W87482  27.572  38.928  11.065
15135W        W87483  24.070  29.022   2.880
15136W        W87484   2.873  22.644   4.334
15137W        W87485  13.619  43.388   0.794
15138W        W87486  10.633  41.838  11.416
15139W        W87487  20.172  17.771   3.802
15140W        W87488  29.473  30.536   5.170
15141W        W87489   5.407  20.041   0.299
15142W        W87490   9.353   1.800  13.056
15143W        W87491  37.982   0.846   0.329
15144W        W87492  17.720  16.720   1.717
15145W        W87493  43.015   6.378   2.793
15146W        W87494   6.894  29.424  10.468
15147W        W87495  27.050  26.604   1.406
15148W        W87496  11.139  12.271  13.801
15149W        W87497  27.951  28.085   1.249
15150W        W87498  13.346  33.449   0.274
15151W        W87499  27.503   1.841   3.182
15152W        W87500  26.035   4.270  12.033
15153W        W87501  37.418  27.579  13.351
15154W        W87502  25.157  29.572  14.874
15155W        W87503   2.227  13.754   3.810
15156W        W87504  11.314   6.273  12.884
15157W        W87505  20.581  19.617  10.967
15158W        W87506  12.277  10.689   4.136
15159W        W87507   5.710  21.040   3.306
15160W        W87508  35.956  32.401   2.864
15161W        W87509   7.835  11.815  12.407
15162W        W87510  13.219   0.481   4.795
15163W        W87511  13.139  25.693  13.518
15164W        W87512  29.505  43.854  11.510
15165W        W87513  36.539  25.053  14.345
15166W        W87514  24.119   5.418   2.305
15167W        W87515   6.768  35.504  12.891
15168W        W87516  17.125  15.198   0.271
15169W        W87517  39.542  35.518  10.408
15170W        W87518   5.372   7.860   0.362
15171W        W87519   7.669  39.063  10.145
15172W        W87520  20.752  13.318   4.699
15173W        W87521  20.234   9.310  14.968
15174W        W87522  16.230  41.853   4.823
15175W        W87523  24.064  15.635  11.445
15176W        W87524   1.748  20.587  11.513
15177W        W87525  25.620   4.220  14.917
15178W        W87526   9.283   6.746   0.266
15179W        W87527  43.513  16.727   0.737
15180W        W87528  35.041  25.563   0.909
15181W        W87529  41.505   2.319   3.730
15182W        W87530  43.799  41.800   4.681
15183W        W87531  11.288  16.184  13.946
15184W        W87532   6.867  27.582   1.908
15185W        W87533   5.739  17.739   4.192
15186W        W87534   2.734  21.095   2.789
15187W        W87535   9.682   3.832   4.606
15188W        W87536   5.842  42.780  12.514
15189W        W87537  43.363  35.007   4.632
15190W        W87538  43.883  39.512   4.728
15191W        W87539  43.008  39.880   2.293
15192W        W87540  12.854  20.654   3.373
15193W        W87541  37.561  42.976  12.351
15194W        W87542  39.848  11.663   3.240
15195W        W87543  35.921  34.503  11.903
15196W        W87544  39.891  17.622  14.827
15197W        W87545  31.468  42.915  12.917
15198W        W87546  44.005   3.297   4.196
15199W        W87547  39.550  23.664  10.597
15200W        W87548   5.236  15.207   1.889
15201W        W87549  37.927  33.115   3.810
15202W        W87550  32.029   2.430  11.569
15203W        W87551  41.433  30.039  11.948
15204W        W87552  18.153  36.924   0.300
15205W        W87553  17.802  44.800   1.346
15206W        W87554  22.557  41.509   1.725
15207W        W87555  40.325  43.471   0.284
15208W        W87556  23.081  20.108  10.413
15209W        W87557  26.502  29.483  12.898
15210W        W87558   5.243   2.836   2.792
15211W        W87559  43.497  43.891   3.240
15212W        W87560  43.485  34.950   0.433
15213W        W87561  29.081   6.866   1.924
15214W        W87562   7.241  19.059  12.414
15215W        W87563  21.618  40.048  12.824
15216W        W87564  43.485  24.117  12.888
15217W        W87565  33.877  40.054   3.283
15218W        W87566   1.326  22.575   2.296
15219W        W87567  23.000  22.175   3.188
15220W        W87568   3.333   6.251   3.643
15221W        W87569  31.934  22.698  13.410
15222W        W87570  23.216  18.584  12.060
15223W        W87571  22.653  38.829   3.811
15224W        W87572  40.506  44.264  10.095
15225W        W87573   7.353  20.052  12.452
15226W        W87574   2.385   5.791  10.993
15227W        W87575  27.110  40.008  12.900
15228W        W87576  30.469  31.941   5.150
15229W        W87577  26.130  32.563  11.587
15230W        W87578   5.286  12.182  11.432
15231W        W87579   0.753   0.401   0.326
15232W        W87580  11.797  26.115  12.992
15233W        W87581  33.459  14.599  14.975
15234W        W87582  33.105   6.376   3.867
15235W        W87583  17.205  35.075   5.172
15236W        W87584  24.665   7.719   9.528
15237W        W87585   5.767   8.794   0.761
15238W        W87586  11.324  24.208   4.810
15239W        W87587  12.621  29.624   2.870
15240W        W87588  30.541   5.832   9.973
15241W        W87589  27.070  24.183  11.429
15242W        W87590  25.089   4.344  14.424
15243W        W87591  14.766   2.295  11.570
15244W        W87592  37.912  17.304  13.988
15245W        W87593   8.323  30.932   2.282
15246W        W87594  36.950   0.963   3.662
15247W        W87595  19.277  35.105  12.978
15248W        W87596  35.001  38.029   2.897
15249W        W87597  16.094  43.833  14.999
15250W        W87598  37.479   2.813   0.839
15251W        W87599  27.048  41.430   2.211
15252W        W87600  32.909   6.695  10.637
15253W        W87601   5.931   3.821   1.387
15254W        W87602  32.997  11.752   3.788
15255W        W87603  28.981   8.287  13.863
15256W        W87604   2.742  39.520  14.891
15257W        W87605  37.459   9.692  14.387
15258W        W87606  35.973  42.864  14.994
15259W        W87607  41.431  42.368  10.947
15260W        W87608  37.905  35.001   2.865
15261W        W87609  19.107  42.294   0.277
15262W        W87610  39.558   7.819  13.872
15263W        W87611  18.241   0.947  13.401
15264W        W87612   3.385  34.421   2.260
15265W        W87613   3.928  40.435   1.345
15266W        W87614  18.763  35.997   0.299
15267W        W87615  16.623  16.700   2.388
15268W        W87616   0.323  10.376   4.243
15269W        W87617  30.094  16.076   3.351
15270W        W87618  19.631   5.908   1.403
15271W        W87619  30.426  26.692   4.674
15272W        W87620  39.524   9.780   3.693
15273W        W87621  43.492   8.749  13.955
15274W        W87622  38.869   4.279   0.883
15275W        W87623  30.069  37.533  12.550
15276W        W87624  26.084  40.323  10.434
15277W        W87625  17.289  14.095  14.795
15278W        W87626  40.449  44.760   2.261
15279W        W87627  35.444  39.497   2.832
15280W        W87628   7.821   9.273  12.933
15281W        W87629   6.678  28.003   0.474
15282W        W87630   2.740  29.623  14.465
15283W        W87631   2.423  14.215  10.073
15284W        W87632  29.437  19.692   3.273
15285W        W87633  30.540  31.645   2.377
15286W        W87634  24.513  33.052   2.763
15287W        W87635  29.102  22.528  14.497
15288W        W87636   6.812  25.576  11.473
15289W        W87637  26.633  23.618  10.415
15290W        W87638  17.301   0.786   0.864
15291W        W87639  16.137   5.701   2.249
15292W        W87640  33.412  42.024  12.564
15293W        W87641   5.754  14.657  14.873
15294W        W87642  40.805  11.356   3.291
15295W        W87643  25.002  14.303   3.856
15296W        W87644  30.435   6.344   2.355
15297W        W87645  25.544  11.275   2.334
15298W        W87646  12.704  21.097   3.288
15299W        W87647  29.499  19.592  10.113
15300W        W87648  25.697   4.722  14.907
15301W        W87649  17.732  42.863  13.835
15302W        W87650  34.893  29.469   4.258
15303W        W87651  10.354  34.499   1.708
15304W        W87652  36.392  12.353   2.846
15305W        W87653  38.388   1.814   4.742
15306W        W87654  12.342  14.769  13.798
15307W        W87655  27.533  16.137   4.273
15308W        W87656  33.510   8.739  11.382
15309W        W87657  40.374   5.385   3.825
15310W        W87658  20.652  30.133  14.983
15311W        W87659  21.574  17.223   4.807
15312W        W87660  16.792   3.429   2.384
15313W        W87661  36.046  11.206   3.836
15314W        W87662  44.436  16.175   1.223
15315W        W87663  43.983  20.081   0.783
15316W        W87664   2.299  37.509  10.012
15317W        W87665  10.214  20.738  14.448
15318W        W87666   5.878  21.643   3.671
15319W        W87667  38.941  40.049   1.292
15320W        W87668   7.833  37.561   4.622
15321W        W87669  17.188  30.961  14.310
15322W        W87670  25.148  11.750   2.844
15323W        W87671  35.003  33.547   4.706
15324W        W87672  27.027   4.306  13.534
15325W        W87673  40.006  17.716   3.822
15326W        W87674  30.513  32.617  14.369
15327W        W87675   5.799   7.364   0.303
15328W        W87676   8.670  16.243   2.666
15329W        W87677   6.748  35.922  11.532
15330W        W87678   9.836  15.145  14.925
15331W        W87679  18.245  41.906  11.584
15332W        W87680  22.736   0.342  12.883
15333W        W87681  28.675   2.883   0.784
15334W        W87682   4.731  34.545  12.557
15335W        W87683   6.716   6.303  14.805
15336W        W87684  37.030   1.266  13.521
15337W        W87685  38.462   4.707  13.873
15338W        W87686  42.345   6.901  14.826
15339W        W87687  22.128   2.929  14.835
15340W        W87688  42.969  29.616  12.845
15341W        W87689   9.790  37.364  13.383
15342W        W87690  15.744  32.558   1.871
15343W        W87691   4.291  10.669  14.493
15344W        W87692  27.645  16.684   2.715
15345W        W87693  42.954  27.641   1.405
15346W        W87694  34.943   1.269   1.218
15347W        W87695  13.229   6.791  11.517
15348W        W87696  32.496  42.942   4.735
15349W        W87697  34.870  10.240   0.336
15350W        W87698  14.224  27.647  13.979
15351W        W87699  10.779   9.781  14.996
15352W        W87700  38.060  24.071  13.433
15353W        W87701  10.674  28.581   3.271
15354W        W87702  13.325  39.466   0.912
15355W        W87703  12.354  35.529  12.917
15356W        W87704  42.460   1.275   3.200
15357W        W87705  19.106  38.967  14.349
15358W        W87706  18.268   6.234  10.594
15359W        W87707  16.770  42.897   1.428
15360W        W87708  11.769  26.542   2.682
15361W        W87709  28.557  23.234  12.394
15362W        W87710   4.424  29.576   1.694
15363W        W87711  37.507  18.148  12.070
15364W        W87712  14.655   6.256  11.871
15365W        W87713   7.770  23.726  10.432
15366W        W87714   5.776  29.010   3.660
15367W        W87715  42.286  29.029  12.411
15368W        W87716  41.516  12.627  13.043
15369W        W87717   4.272   5.396   2.381
15370W        W87718  32.997  14.737   1.429
15371W        W87719   8.166  42.987   0.856
15372W        W87720  33.066  22.018   2.846
15373W        W87721  16.607  20.186  10.586
15374W        W87722  35.870  29.162   3.817
15375W        W87723   9.343   8.406   0.442
15376W        W87724  37.835  13.825  12.982
15377W        W87725  14.826  40.008  12.406
15378W        W87726  25.128  14.767   4.694
15379W        W87727   3.882  28.633   3.207
15380W        W87728   8.163   5.433  14.293
15381W        W87729  40.953  37.460   0.837
15382W        W87730  26.477  38.962   2.881
15383W        W87731  15.666  22.643  12.924
15384W        W87732  17.786  29.502  10.567
15385W        W87733  25.645   8.714   9.920
15386W        W87734  42.436  34.957   4.208
15387W        W87735  19.712   9.719  12.456
15388W        W87736  14.614  37.523  12.943
15389W        W87737   0.753  40.461   4.196
15390W        W87738  33.592  42.029   0.303
15391W        W87739   4.814   1.756  12.870
15392W        W87740  21.621  15.791  14.865
15393W        W87741  13.307  14.310  12.896
15394W        W87742   0.493  27.197   4.825
15395W        W87743  33.059  32.946  10.539
15396W        W87744   0.811  16.295  11.556
15397W        W87745  23.206  11.702   3.183
15398W        W87746  21.039  32.580   4.619
15399W        W87747   4.708  23.581  13.359
15400W        W87748  19.117  28.953   1.769
15401W        W87749   8.300  30.459  14.309
15402W        W87750   8.882   5.414  14.951
15403W        W87751   1.377  21.250  14.800
15404W        W87752  40.847   7.679  12.537
15405W        W87753   5.262  18.245  14.020
15406W        W87754  30.065   5.727   3.795
15407W        W87755  18.273  32.980  10.451
15408W        W87756  44.498  37.999   3.787
15409W        W87757   3.730   4.932  11.565
15410W        W87758   4.381  16.804   1.837
15411W        W87759  44.359  15.206   2.276
15412W        W87760  14.762  25.685  13.818
15413W        W87761  28.946  15.613  11.009
15414W        W87762  33.566  31.017   4.774
15415W        W87763   3.925  12.255   0.745
15416W        W87764  33.069   9.314  11.111
15417W        W87765  29.514  10.269   4.666
15418W        W87766  37.038  16.585  14.855
15419W        W87767  21.135  21.254   5.082
15420W        W87768  11.248  13.293  10.938
15421W        W87769  15.701   7.845   4.137
15422W        W87770  36.493  29.492   4.166
15423W        W87771  42.507  11.848   3.201
15424W        W87772   7.837   1.322  12.534
15425W        W87773  15.104  35.051   2.811
15426W        W87774  35.056   5.425   4.764
15427W        W87775  20.679  16.693  11.571
15428W        W87776  36.962  40.459   1.923
15429W        W87777  21.092  42.873  14.427
15430W        W87778   5.712  40.975  14.375
15431W        W87779  28.577  29.040   2.901
15432W        W87780  19.047  10.874   4.677
15433W        W87781  40.437  30.558  11.025
15434W        W87782  22.556  44.858  12.976
15435W        W87783   6.387  15.603  14.326
15436W        W87784  16.177   0.301   3.251
15437W        W87785  42.426   8.208  10.912
15438W        W87786  29.440  29.448  14.975
15439W        W87787  34.988  36.084   2.839
15440W        W87788   7.867  39.050  10.570
15441W        W87789  39.910  26.981   4.132
15442W        W87790  21.744  13.618   0.353
15443W        W87791  31.060  29.082   2.793
15444W        W87792  20.605  26.530   5.256
15445W        W87793  43.942  29.447   4.328
15446W        W87794   9.340   1.826   4.637
15447W        W87795  17.173  43.451   3.154
15448W        W87796  26.465  11.762  12.544
15449W        W87797  10.652   5.221   2.895
15450W        W87798   8.748   1.858  12.400
15451W        W87799  32.106   6.816  11.004
15452W        W87800  11.152  19.760  13.841
15453W        W87801  37.357  29.603   0.894
15454W        W87802   9.759  43.406   2.710
15455W        W87803   8.394  19.686   1.858
15456W        W87804  11.741  20.600   4.665
15457W        W87805  22.008  19.160   4.143
15458W        W87806  19.175  19.693  14.468
15459W        W87807  17.596  17.156   1.280
15460W        W87808  21.077  29.100  13.968
15461W        W87809   0.382  43.425  14.501
15462W        W87810  18.657   3.302  13.507
15463W        W87811  25.571   7.409  14.999
15464W        W87812   7.817  31.955   2.209
15465W        W87813  16.594  25.981   1.394
15466W        W87814  41.463  32.038  12.886
15467W        W87815  15.109  21.244   3.150
15468W        W87816  39.446  12.639   4.656
15469W        W87817  42.382  12.707   4.306
15470W        W87818   9.290  23.091   3.356
15471W        W87819  38.900   6.283   9.436
15472W        W87820  12.219  28.995  14.808
15473W        W87821  23.667  23.229  12.056
15474W        W87822   5.407   4.811   0.333
15475W        W87823  39.505   6.887   5.092
15476W        W87824  12.335  10.200   1.754
15477W        W87825  16.704  10.721   2.756
15478W        W87826  24.109  36.912   1.212
15479W        W87827  34.423   7.405  10.597
15480W        W87828  12.748  18.095  12.883
15481W        W87829   3.409  25.106  12.857
15482W        W87830  12.721  17.737   0.259
15483W        W87831  22.101  23.019   0.372
15484W        W87832  26.129  29.439  11.591
15485W        W87833  23.213  43.276   3.277
15486W        W87834   4.882   4.303  11.095
15487W        W87835  12.811  44.317   2.385
15488W        W87836  17.230   0.867   1.860
15489W        W87837  18.698  22.164  10.619
15490W        W87838  40.510  39.053  12.066
15491W        W87839  39.970  39.519   0.278
15492W        W87840  10.319  35.950   4.350
15493W        W87841  18.601  17.798   0.336
15494W        W87842   6.757  16.723  12.505
15495W        W87843  13.721  29.945  13.475
15496W        W87844  19.121  38.884  11.523
15497W        W87845  20.116  20.190  14.769
15498W        W87846  33.590  44.300   4.258
15499W        W87847  22.058  28.671  11.428
15500W        W87848  36.910  21.156  14.759
15501W        W87849   7.816   5.285   3.171
15502W        W87850  16.187  30.079  13.984
15503W        W87851  27.111  27.042   3.332
15504W        W87852  43.967  35.382   4.610
15505W        W87853  36.361   3.261  14.852
15506W        W87854  34.081  13.820  14.382
15507W        W87855  32.132  11.767   4.309
15508W        W87856  16.757  15.267   2.870
15509W        W87857  14.769  10.879   2.805
15510W        W87858  39.925  23.206   3.254
15511W        W87859  38.856   1.381   5.318
15512W        W87860   4.372  25.577  14.823
15513W        W87861   3.240   3.800   3.713
15514W        W87862  35.571  33.070  11.589
15515W        W87863   9.698   0.284  13.439
15516W        W87864  30.985  14.195  14.892
15517W        W87865  29.984  37.082   3.362
15518W        W87866   2.918  42.382   3.154
15519W        W87867   0.363   2.748   4.619
15520W        W87868  13.124  31.604  14.506
15521W        W87869  27.659  31.973   1.729
15522W        W87870  44.866  16.140   2.389
15523W        W87871   0.336  16.647  12.448
15524W        W87872  36.872   0.441   2.416
15525W        W87873  44.365  36.527  11.527
15526W        W87874  15.775  16.135  11.433
15527W        W87875  30.970  22.007  11.941
15528W        W87876  26.476  24.173   4.765
15529W        W87877  33.476  11.313   0.927
15530W        W87878  25.640  20.634   0.465
15531W        W87879   0.480  42.932  13.967
15532W        W87880  14.795   9.166  11.919
15533W        W87881  20.094  29.472   0.831
15534W        W87882   6.363  43.370  14.913
15535W        W87883  41.013  29.065   1.773
15536W        W87884  31.989  21.741   4.745
15537W        W87885  27.551  28.044   2.303
15538W        W87886   2.366  30.153   1.393
15539W        W87887   0.335   0.494   0.727
15540W        W87888   4.360   7.696  13.466
15541W        W87889  19.137  21.565  10.929
15542W        W87890  37.502  25.205  12.428
15543W        W87891  22.725  38.526  12.406
15544W        W87892   1.237  17.136   0.940
15545W        W87893  33.420   2.822   4.788
15546W        W87894   0.978  39.855  12.061
15547W        W87895  39.325  29.544  12.889
15548W        W87896  15.646  29.107  11.018
15549W        W87897   3.384  40.362  13.858
15550W        W87898  16.075  42.923   5.254
15551W        W87899   0.275   2.463   3.260
15552W        W87900  43.978   4.248  13.504
15553W        W87901  14.207  23.205  13.935
15554W        W87902   3.768  38.568  13.804
15555W        W87903   4.205  18.648   1.446
15556W        W87904  32.112  35.865  12.412
15557W        W87905  36.464  41.486   0.770
15558W        W87906  30.418  43.441   3.356
15559W        W87907  37.899  39.396   0.345
15560W        W87908   5.268   3.234  13.455
15561W        W87909   3.794   5.923  12.884
15562W        W87910  10.369  11.335  12.942
15563W        W87911  10.714  28.940  12.031
15564W        W87912  11.202  13.111   2.395
15565W        W87913  30.913  44.386   1.773
15566W        W87914  38.515  12.814  10.494
15567W        W87915  42.444  41.961   3.668
15568W        W87916  13.612  23.999  13.014
15569W        W87917   4.706  41.347  14.851
15570W        W87918   5.204  22.092  12.992
15571W        W87919   4.270  24.601   2.783
15572W        W87920  21.723  19.063  14.286
15573W        W87921   5.430  18.229   1.360
15574W        W87922  30.631  32.930  14.309
15575W        W87923  39.960  39.454  10.521
15576W        W87924  12.141   9.210  13.523
15577W        W87925  29.025  14.755   1.887
15578W        W87926   8.729  43.308   0.728
15579W        W87927  34.066  14.714   2.180
15580W        W87928  27.100  30.912  11.937
15581W        W87929  12.820  28.069   3.261
15582W        W87930  15.593  17.163  12.357
15583W        W87931  31.422  31.072  14.863
15584W        W87932   4.857  10.745  13.046
15585W        W87933  14.105  40.317   2.799
15586W        W87934  29.469  34.903   1.919
15587W        W87935  32.529  23.012  11.537
15588W        W87936  11.157  37.984   3.319
15589W        W87937  19.771  29.604   2.303
15590W        W87938   9.738  21.717  11.083
15591W        W87939  42.308  25.485  14.500
15592W        W87940  44.814  18.595   0.783
15593W        W87941  37.904  41.511   1.713
15594W        W87942   7.400  44.986  14.009
15595W        W87943  23.541  14.680   1.310
15596W        W87944  29.615  30.629  10.103
15597W        W87945   4.412  24.542   4.748
15598W        W87946   6.280   6.405  10.547
15599W        W87947  33.538  40.337   3.348
15600W        W87948  38.477  18.056   3.688
15601W        W87949  39.460   4.865   3.239
15602W        W87950  15.123  18.574   4.688
15603W        W87951  43.995  41.344  13.991
15604W        W87952  13.746   7.346  11.519
15605W        W87953  13.659   2.346  11.097
15606W        W87954  38.990   2.882   2.889
15607W        W87955  11.673   1.761  12.843
15608W        W87956  24.127  20.712  13.913
15609W        W87957   7.300  36.379   2.877
15610W        W87958  21.026  39.823   0.835
15611W        W87959   2.786  30.921   2.803
15612W        W87960   1.396  43.795   0.881
15613W        W87961  41.434  33.921  12.893
15614W        W87962   1.385  32.433   4.333
15615W        W87963  36.850  18.741  12.074
15616W        W87964  34.404  36.360   3.370
15617W        W87965  16.786  20.156   4.329
15618W        W87966  10.809  21.624   1.871
15619W        W87967   7.849  30.569  10.634
15620W        W87968  32.501  23.047   2.405
15621W        W87969   5.330  13.835   4.293
15622W        W87970  28.629  24.183   1.770
15623W        W87971  29.440  42.463   3.307
15624W        W87972  37.378  28.020  11.611
15625W        W87973  41.353  13.238   0.356
15626W        W87974  25.006  37.894   4.599
15627W        W87975  32.590  19.602  12.341
15628W        W87976  11.668  19.566  10.472
15629W        W87977  41.443  19.656   0.436
15630W        W87978  28.932  24.200  12.036
15631W        W87979  32.589  37.519  10.626
15632W        W87980  18.256   4.892   3.253
15633W        W87981   9.854  27.093   0.300
15634W        W87982  23.629  24.708  11.382
15635W        W87983   5.909   1.256   2.676
15636W        W87984   9.885   1.378  12.020
15637W        W87985  21.249  18.575   4.232
15638W        W87986  18.130  30.077  14.277
15639W        W87987  36.437  19.066  11.063
15640W        W87988  10.202  26.099  14.024
15641W        W87989  26.145   8.357   4.743
15642W        W87990  13.234   5.788   0.950
15643W        W87991  40.801   2.231   4.134
15644W        W87992  33.426   9.855   1.743
15645W        W87993  36.851  16.604   4.806
15646W        W87994  28.486  33.107  10.945
15647W        W87995   2.249  32.000   1.840
15648W        W87996  24.087  36.349   4.723
15649W        W87997   1.356  42.804   3.207
15650W        W87998  30.428   4.387  14.488
15651W        W87999  22.237  29.511   2.260
15652W        W88000  16.795  44.000   4.232
15653W        W88001  20.673  34.417   1.744
15654W        W88002   1.793  20.049  10.598
15655W        W88003   1.732  38.471   3.364
15656W        W88004  39.013  20.669  11.532
15657W        W88005  39.937  21.534   2.673
15658W        W88006  42.776  42.819   3.840
15659W        W88007   0.824  28.071   0.321
15660W        W88008   5.728  35.891  11.402
15661W        W88009  20.730  22.038  14.336
15662W        W88010  14.602  11.251  14.322
15663W        W88011  20.272  30.017   4.633
15664W        W88012  37.037  33.589  11.599
15665W        W88013  33.994  14.232  10.947
15666W        W88014  15.713  15.202   0.795
15667W        W88015  24.073   1.975   3.178
15668W        W88016  21.217   7.185   4.215
15669W        W88017  32.076  32.120  13.947
15670W        W88018  26.151  21.234   4.757
15671W        W88019  33.557  32.597   5.107
15672W        W88020  10.703  15.095  13.031
15673W        W88021  31.615  29.935   4.642
15674W        W88022  28.583  25.984  11.516
15675W        W88023  33.883  37.937   3.194
15676W        W88024  33.931  11.296   4.217
15677W        W88025  33.510  35.460  13.876
15678W        W88026  11.222   5.862  13.392
15679W        W88027  40.994  34.538   0.813
15680W        W88028   7.371  13.176  10.489
15681W        W88029  24.558  36.849   4.330
15682W        W88030  37.378  27.194   3.295
15683W        W88031  33.945  23.998  11.083
15684W        W88032  39.374  24.156  12.082
15685W        W88033   7.179  42.450  10.476
15686W        W88034   7.753  10.325   0.814
15687W        W88035  16.636  23.008  14.281
15688W        W88036   8.314  18.569   1.318
15689W        W88037  25.159  18.182  12.383
15690W        W88038   0.815  14.178  10.993
15691W        W88039  27.086   4.370  11.442
15692W        W88040  11.858  18.252  14.923
15693W        W88041  32.888  40.428   4.247
15694W        W88042  35.402  20.721  10.128
15695W        W88043  29.056  20.115  13.356
15696W        W88044   5.890  43.879   2.335
15697W        W88045   2.314  39.878   3.160
15698W        W88046  36.095  30.654   0.872
15699W        W88047  11.829  21.129  13.485
15700W        W88048  21.163  24.666  13.497
15701W        W88049  29.473  32.897  11.864
15702W        W88050  16.247  33.432  14.292
15703W        W88051  18.609   2.756  14.995
15704W        W88052  32.113  33.103   2.666
15705W        W88053  42.957   0.826   2.725
15706W        W88054  22.062  23.533   0.846
15707W        W88055  27.195   3.398  10.527
15708W        W88056  44.337  21.642   1.837
15709W        W88057   0.342  27.180  12.957
15710W        W88058  14.724  42.357  13.963
15711W        W88059  16.221  13.261  14.429
15712W        W88060  40.540  30.630   4.146
15713W        W88061  36.974   9.746   3.751
15714W        W88062  15.096  12.836   0.483
15715W        W88063  20.598  13.634   4.334
15716W        W88064  20.091  13.320   4.816
15717W        W88065  27.945   7.202   9.979
15718W        W88066  11.847  40.033   4.662
15719W        W88067   5.802  28.171  12.455
15720W        W88068  43.282  11.267   1.748
15721W        W88069  13.625  10.268   3.643
15722W        W88070  40.044  13.185   3.160
15723W        W88071  34.602  41.476   1.891
15724W        W88072   6.840  18.755   4.271
15725W        W88073   1.851   9.666  11.040
15726W        W88074  21.211  39.332   2.736
15727W        W88075  39.334  34.469  13.418
15728W        W88076  18.262  30.975   1.901
15729W        W88077  21.540  40.827  14.958
15730W        W88078  20.547   8.378   4.674
15731W        W88079  14.648  17.101   3.641
15732W        W88080  41.496   1.341   1.910
15733W        W88081  17.082  25.482  12.863
15734W        W88082  44.382  37.897   0.361
15735W        W88083  44.994   2.466  13.959
15736W        W88084  32.581  20.075   0.413
15737W        W88085  44.882  27.559  14.989
15738W        W88086   2.382  21.603   4.125
15739W        W88087  29.058  38.350   1.737
15740W        W88088  34.472  32.498  11.006
15741W        W88089  11.354  34.480  13.390
15742W        W88090  18.258  39.055   0.951
15743W        W88091  21.149   0.938  14.011
15744W        W88092  41.375   8.745   2.364
15745W        W88093  15.675  16.170   0.337
15746W        W88094  27.070  13.334   2.768
15747W        W88095  29.492  14.154  12.516
15748W        W88096  22.707   2.401   0.247
15749W        W88097  12.160  10.688  14.856
15750W        W88098  20.075   1.752   5.175
15751W        W88099  39.325   2.413   0.807
15752W        W88100   2.438  36.515   4.669
15753W        W88101  38.426   4.296   3.679
15754W        W88102  37.081   6.243  12.430
15755W        W88103  35.558  33.543   1.430
15756W        W88104  32.897  15.659   4.823
15757W        W88105  22.094   4.875   4.193
15758W        W88106  20.239  37.560   2.189
15759W        W88107   5.273  18.606  13.046
15760W        W88108   0.361  13.672   1.797
15761W        W88109  36.991  35.092   3.228
15762W        W88110   7.742  34.583   3.242
15763W        W88111  34.002  19.232  14.792
15764W        W88112  38.463  42.330  14.323
15765W        W88113  20.721  15.279   2.698
15766W        W88114  18.577  28.069   3.776
15767W        W88115  13.220  41.906   0.948
15768W        W88116  31.544   5.929   2.703
15769W        W88117  28.140   0.811   2.304
15770W        W88118  43.826  42.526  14.395
15771W        W88119  26.976  30.431   1.434
15772W        W88120   3.878  32.400   4.347
15773W        W88121  12.134  30.012   4.167
15774W        W88122  15.665  21.543  10.445
15775W        W88123  28.003  26.690  12.434
15776W        W88124  31.073  32.519  10.446
15777W        W88125  40.529  14.601  10.571
15778W        W88126  11.813  42.794  11.479
15779W        W88127  34.888  36.569  13.819
15780W        W88128  30.974  27.643  12.013
15781W        W88129  21.228   3.932   4.226
15782W        W88130   9.206  36.507  10.528
15783W        W88131  17.089  11.284   3.758
15784W        W88132  14.715  30.135   3.266
15785W        W88133  34.087  24.201  12.379
15786W        W88134  38.835   0.852   1.359
15787W        W88135  31.548   6.696   0.755
15788W        W88136  33.454  23.023   4.280
15789W        W88137  36.027  24.487   1.404
15790W        W88138   7.706  23.242   2.789
15791W        W88139  43.293   1.820  13.384
15792W        W88140   9.732  37.013   2.358
15793W        W88141  43.379   4.874  13.343
15794W        W88142  35.018  30.555   3.854
15795W        W88143  19.249  43.349  12.415
15796W        W88144  41.510  14.661  14.496
15797W        W88145  19.143  42.953  12.423
15798W        W88146  35.507   2.378   4.199
15799W        W88147  26.066  43.962   2.807
15800W        W88148  26.034   3.713  11.910
15801W        W88149  31.483  28.527   0.376
15802W        W88150  15.687  31.100   1.885
15803W        W88151  21.721  29.035  11.120
15804W        W88152  40.036  26.985  12.833
15805W        W88153  25.521  15.232   2.306
15806W        W88154  34.970  19.551  10.589
15807W        W88155  37.870  41.509   3.246
15808W        W88156   2.356  25.120   2.379
15809W        W88157  24.583  27.085   2.801
15810W        W88158  29.554  35.373  14.420
15811W        W88159  33.417   0.445  13.345
15812W        W88160  30.946   4.400   4.794
15813W        W88161  37.870   5.266   1.720
15814W        W88162  15.224   1.303   4.648
15815W        W88163   1.898  24.704  13.842
15816W        W88164   2.401  22.167  11.478
15817W        W88165   7.380  44.801  11.551
15818W        W88166  21.549  30.021   4.762
15819W        W88167  18.179  21.751  14.317
15820W        W88168  18.770  44.412  14.933
15821W        W88169  29.119   0.908  11.495
15822W        W88170  30.006  43.973   2.371
15823W        W88171  39.863  17.600  13.522
15824W        W88172  14.797  32.540   0.441
15825W        W88173  41.485  41.987   0.344
15826W        W88174  18.671  35.880   2.810
15827W        W88175   9.782  37.877  11.906
15828W        W88176  25.071   5.371   3.208
15829W        W88177  19.707  25.126  13.398
15830W        W88178  32.579  43.791   3.693
15831W        W88179  38.408  25.569   2.378
15832W        W88180  31.905  16.296   3.841
15833W        W88181  25.041   7.813   9.957
15834W        W88182  28.469  30.612   0.415
15835W        W88183   7.905  43.847   4.354
15836W        W88184  38.889  33.015   0.391
15837W        W88185  43.923   5.771   4.647
15838W        W88186  35.939  31.992   3.186
15839W        W88187  19.734  20.183  13.425
15840W        W88188  24.523  17.264  13.466
15841W        W88189  23.702  30.952  14.503
15842W        W88190  19.057  12.125  14.987
15843W        W88191  27.527   2.392   2.389
15844W        W88192  41.912  19.733   4.137
15845W        W88193  30.634  26.675   0.942
15846W        W88194  31.015   5.893  13.809
15847W        W88195  16.678   1.731   0.371
15848W        W88196  19.734  37.495  14.338
15849W        W88197  29.160  44.799   4.833
15850W        W88198  42.385   0.482  14.442
15851W        W88199   6.865  24.605   2.350
15852W        W88200  21.582  36.889  13.052
15853W        W88201  40.046   0.867  12.389
15854W        W88202  27.504   6.334  10.553
15855W        W88203  25.603  37.043   2.886
15856W        W88204  11.352  38.442   3.147
15857W        W88205  11.140  21.206   0.343
15858W        W88206  21.215  26.123   2.268
15859W        W88207  31.551   7.352   3.730
15860W        W88208  42.492  23.545  12.078
15861W        W88209  11.268   9.168   3.717
15862W        W88210   8.363  44.276   0.405
15863W        W88211  34.569  35.062   3.666
15864W        W88212   7.252  21.735   3.860
15865W        W88213  21.139  11.286   1.300
15866W        W88214  23.086  43.459  12.515
15867W        W88215   8.237   8.856   0.877
15868W        W88216   6.259  25.522   4.281
15869W        W88217  30.018  13.241  12.076
15870W        W88218  19.687  17.112  12.462
15871W        W88219   8.228  32.458  12.827
15872W        W88220  39.540  38.490   1.400
15873W        W88221  31.948  33.455  11.574
15874W        W88222  15.203  18.661   3.363
15875W        W88223  25.680  28.669  12.456
15876W        W88224  30.950  40.875   0.794
15877W        W88225  10.682   5.839  12.482
15878W        W88226   0.750  38.043   2.282
15879W        W88227   8.766  23.494   3.182
15880W        W88228  44.454  13.683  10.490
15881W        W88229   2.748  34.931  12.940
15882W        W88230  42.821  19.136  14.469
15883W        W88231   8.316  23.072   3.172
15884W        W88232   3.847  34.957  14.408
15885W        W88233  32.588  30.992   3.797
15886W        W88234  12.334  14.114   0.376
15887W        W88235  15.712  19.754   2.693
15888W        W88236  14.797   4.743  14.832
15889W        W88237  42.884  30.469  10.457
15890W        W88238   4.786  35.418  11.027
15891W        W88239  26.475  27.504   1.310
15892W        W88240   1.385  19.728  12.938
15893W        W88241  15.590  39.425   1.225
15894W        W88242   3.332  17.630  10.904
15895W        W88243  22.747  38.040   1.249
15896W        W88244  21.633  35.932   4.261
15897W        W88245   7.325  17.601  13.857
15898W        W88246  42.352  15.270  11.593
15899W        W88247   3.823  41.926   2.396
15900W        W88248  35.539  19.225  11.397
15901W        W88249  11.335  11.775   4.702
15902W        W88250  11.313  13.262   0.481
15903W        W88251   6.813  37.448   1.333
15904W        W88252   8.684  26.044   2.188
15905W        W88253  18.108  26.532  14.374
15906W        W88254   0.251  19.581   4.827
15907W        W88255   3.412  15.159  11.984
15908W        W88256  12.322   5.869   0.387
15909W        W88257  42.960  32.901   3.760
15910W        W88258  41.342  11.672  14.367
15911W        W88259   1.924  16.253  11.473
15912W        W88260  32.495  11.723  11.928
15913W        W88261   2.753  22.046  14.452
15914W        W88262  15.715   3.396  10.449
15915W        W88263  11.363  37.847  12.363
15916W        W88264  31.134  24.580  12.496
15917W        W88265  27.669  24.992  12.909
15918W        W88266  36.873   1.771  10.522
15919W        W88267  40.547  31.474   4.766
15920W        W88268  13.734  12.356  10.540
15921W        W88269  42.936   5.356  11.973
15922W        W88270   3.721  40.834  13.944
15923W        W88271   1.363   0.348   0.344
15924W        W88272  21.725  28.170   4.301
15925W        W88273  44.307  24.154   0.959
15926W        W88274  17.123   9.242   3.282
15927W        W88275   2.867  29.565   3.265
15928W        W88276  27.555   4.868   4.226
15929W        W88277  32.927  30.991  10.914
15930W        W88278  30.948   1.953   1.796
15931W        W88279  38.567  37.579   1.710
15932W        W88280  16.291   0.367   0.363
15933W        W88281  33.021   8.224   5.294
15934W        W88282  11.694  13.152   3.805
15935W        W88283   9.869  42.923  12.487
15936W        W88284  38.046  23.151   2.300
15937W        W88285  20.746   8.884   0.781
15938W        W88286  38.864   8.872   0.450
15939W        W88287  38.842  26.514   0.895
15940W        W88288  32.949  14.693  11.535
15941W        W88289  43.834  35.925  13.041
15942W        W88290   0.986   3.350  10.433
15943W        W88291  32.481  12.681  13.376
15944W        W88292   3.343  36.023   1.359
15945W        W88293   7.314  36.849  13.397
15946W        W88294  25.064  15.800   2.344
15947W        W88295  43.509  32.519   1.269
15948W        W88296  29.970  15.301   0.247
15949W        W88297  29.472  10.219   2.853
15950W        W88298  28.993  31.119  12.535
15951W        W88299   0.409  20.195   2.808
15952W        W88300  13.737  28.572   4.795
15953W        W88301  27.149  20.753  12.470
15954W        W88302  10.695  22.667   0.404
15955W        W88303  32.134  19.216   0.954
15956W        W88304  44.827  40.876  11.436
15957W        W88305  35.854   4.780  10.903
15958W        W88306  11.343   4.942  13.445
15959W        W88307  31.986  27.632   0.400
15960W        W88308  34.910  43.333  12.022
15961W        W88309  12.799  26.081  12.839
15962W        W88310  37.056  21.202  10.959
15963W        W88311   2.332  36.992   0.899
15964W        W88312  37.959  35.957  10.504
15965W        W88313  14.704  15.730   1.731
15966W        W88314  19.216  30.431   0.408
15967W        W88315  38.468  11.666  13.903
15968W        W88316  39.821  29.104   0.271
15969W        W88317  24.218  17.262  13.879
15970W        W88318  15.637  21.700  12.344
15971W        W88319  17.799  40.865  14.945
15972W        W88320  25.123  18.172  11.430
15973W        W88321  11.719  42.322  13.922
15974W        W88322  33.384  38.393  10.424
15975W        W88323  21.748   4.404  10.576
15976W        W88324  44.497  32.932   4.334
15977W        W88325  19.711  19.602  13.866
15978W        W88326  44.953  23.118   3.789
15979W        W88327   8.176  11.684  12.959
15980W        W88328  17.089  39.881  10.925
15981W        W88329  16.656  24.985   2.316
15982W        W88330  14.627  23.501  14.294
15983W        W88331  41.462   1.809  14.825
15984W        W88332  33.576  17.683  14.450
15985W        W88333  23.532  22.553  11.121
15986W        W88334  39.838  28.021  13.902
15987W        W88335  22.611  16.608  12.015
15988W        W88336  10.146   0.949  12.443
15989W        W88337  11.782  24.570   0.434
15990W        W88338  38.010  10.685   0.306
15991W        W88339  32.410   9.159  11.110
15992W        W88340   7.683   5.874   2.677
15993W        W88341  37.580   0.753   1.931
15994W        W88342   7.201  22.528  10.445
15995W        W88343  42.406  16.694  11.509
15996W        W88344  11.261  21.529   2.267
15997W        W88345  44.813  12.253   1.342
15998W        W88346   0.851  18.760  12.012
15999W        W88347  22.066  24.689  10.432
16000W        W88348  26.202  30.503   4.637
16001W        W88349  26.673  37.438  13.974
16002W        W88350  21.598  30.074  14.802
16003W        W88351  14.802  30.525   2.384
16004W        W88352  38.864   5.395   4.738
16005W        W88353  40.472  12.184  13.404
16006W        W88354   4.389  27.525  10.478
16007W        W88355  14.774  28.177  11.971
16008W        W88356  27.482  18.679   2.349
16009W        W88357  13.765   5.904   1.872
16010W        W88358  34.914  36.841   1.327
16011W        W88359  22.247  18.114   3.275
16012W        W88360  31.063  34.988  11.879
16013W        W88361  41.376   2.764   0.875
16014W        W88362   5.304   5.337   1.745
16015W        W88363  10.160  34.397   1.242
16016W        W88364   0.401  10.203  12.979
16017W        W88365   0.908   9.696  12.498
16018W        W88366  28.972  38.887  11.963
16019W        W88367   2.850   2.295   3.224
16020W        W88368  13.326  34.500   4.717
16021W        W88369  18.607  19.278   1.931
16022W        W88370  29.005  42.904   0.462
16023W        W88371  38.063   9.373   2.757
16024W        W88372  12.669  34.473  11.505
16025W        W88373  23.024  42.824   0.436
16026W        W88374  20.177  28.545   3.354
16027W        W88375  44.994  23.135  11.930
16028W        W88376  20.215  44.373   1.294
16029W        W88377  20.083  14.340   2.214
16030W        W88378  19.574  43.783   3.774
16031W        W88379  42.949  41.011   3.859
16032W        W88380  11.200  11.279   2.866
16033W        W88381  34.969  17.098   0.760
16034W        W88382  23.667  20.131   3.230
16035W        W88383  13.171   1.348  13.995
16036W        W88384  19.204  33.020  11.876
16037W        W88385  23.004  15.285   1.857
16038W        W88386  42.342  42.806  13.308
16039W        W88387  18.283   1.449   0.845
16040W        W88388  26.639  30.514   0.481
16041W        W88389  34.480  22.231   1.841
16042W        W88390  23.519  36.868   0.803
16043W        W88391  18.628   2.798  10.933
16044W        W88392  35.003   4.867  14.515
16045W        W88393  19.613  43.999   4.668
16046W        W88394  25.688  41.955   2.756
16047W        W88395  41.937  24.593   2.783
16048W        W88396  26.058  10.850   0.296
16049W        W88397  10.222  16.730   1.698
16050W        W88398  40.866  19.115  14.898
16051W        W88399   0.411  38.388  12.565
16052W        W88400  33.986  44.474  10.887
16053W        W88401  12.163  23.172   1.830
16054W        W88402   4.880  13.250   4.644
16055W        W88403   8.229  42.006  14.306
16056W        W88404  19.275  38.417  13.479
16057W        W88405   7.793  18.172   4.257
16058W        W88406  15.809   8.309  11.031
16059W        W88407   8.175   0.412  14.818
16060W        W88408  21.642   6.698   0.417
16061W        W88409  40.888  35.456   4.638
16062W        W88410  40.367   1.876   1.857
16063W        W88411   5.262  41.794   1.238
16064W        W88412  22.726  41.439  12.428
16065W        W88413  39.480  33.051  11.087
16066W        W88414  16.275  32.623  14.908
16067W        W88415  26.471  13.156  11.518
16068W        W88416  31.465   0.364  11.953
16069W        W88417  12.726   1.914  14.404
16070W        W88418  17.084  43.449   2.208
16071W        W88419  22.094   6.220  13.520
16072W        W88420  37.013  19.753   2.895
16073W        W88421  25.485  41.833  14.507
16074W        W88422  17.786   2.438  11.557
16075W        W88423  38.502  38.073   3.867
16076W        W88424  25.105  10.736   0.271
16077W        W88425  13.607   0.761  14.969
16078W        W88426   0.395  29.464   4.179
16079W        W88427  40.426  30.649   0.869
16080W        W88428   0.898  20.059   0.960
16081W        W88429  28.030   5.405   1.869
16082W        W88430  38.327  11.364  10.513
16083W        W88431  26.536  28.138  10.612
16084W        W88432  39.448  29.504   0.379
16085W        W88433   5.854  24.087   3.323
16086W        W88434  40.985   8.347  10.999
16087W        W88435  11.723  23.521   1.390
16088W        W88436  26.163  38.459   2.370
16089W        W88437  37.038   7.900   0.756
16090W        W88438  32.978  25.544  10.615
16091W        W88439  32.035  18.148   4.268
16092W        W88440  12.183  38.431   3.221
16093W        W88441  39.859   7.726  14.297
16094W        W88442  14.665   8.699   4.635
16095W        W88443  22.582  14.633   2.881
16096W        W88444  41.829  15.603   2.667
16097W        W88445  14.690  38.420  11.607
16098W        W88446  35.487   5.841  11.429
16099W        W88447  12.205  14.124   1.450
16100W        W88448  13.114  37.409   4.667
16101W        W88449  21.686  37.572   4.655
16102W        W88450  26.058  24.011  14.300
16103W        W88451  11.280   0.796  10.616
16104W        W88452  11.225  44.272   3.242
16105W        W88453   0.929  21.733  13.805
16106W        W88454  38.958  12.204  13.481
16107W        W88455  26.086  19.220  10.541
16108W        W88456  30.523  13.174  13.416
16109W        W88457   5.288   9.228   0.805
16110W        W88458  29.492  44.450   2.277
16111W        W88459   3.308  40.317   4.781
16112W        W88460  28.539  29.165  11.463
16113W        W88461  27.038   8.831  10.617
16114W        W88462  25.085   9.161   1.366
16115W        W88463  10.783   6.823   2.803
16116W        W88464   7.406  34.954   3.668
16117W        W88465   5.228   8.835  14.315
16118W        W88466  16.276  32.088   0.460
16119W        W88467  43.916  26.576   3.814
16120W        W88468  13.627  38.537   1.732
16121W        W88469   8.826  40.912  11.003
16122W        W88470  22.151   0.908   4.292
16123W        W88471  15.722  18.191  12.029
16124W        W88472  44.958  23.687  10.460
16125W        W88473  34.491  37.412   2.862
16126W        W88474  26.656  41.040   4.618
16127W        W88475  36.862  40.458  11.912
16128W        W88476  29.971   2.742   1.327
16129W        W88477   3.298  36.347   2.316
16130W        W88478  17.250  31.443  11.386
16131W        W88479  10.834  32.080  14.293
16132W        W88480  19.272  37.950  14.913
16133W        W88481   9.289  41.393   4.617
16134W        W88482   1.777  23.036  10.554
16135W        W88483   2.933  22.101   3.316
16136W        W88484  15.152  14.172  14.942
16137W        W88485  14.294  26.137  14.921
16138W        W88486  39.379  34.952  12.430
16139W        W88487   0.919   4.359  12.078
16140W        W88488  27.667  26.985  12.955
16141W        W88489  26.485   3.288   5.175
16142W        W88490   2.317  14.690  12.074
16143W        W88491  43.866  29.130  11.412
16144W        W88492  10.140   8.196   4.302
16145W        W88493  30.424  35.406   0.872
16146W        W88494   1.842  14.204   1.353
16147W        W88495  29.626  31.096  11.105
16148W        W88496  30.544  21.026   3.678
16149W        W88497  24.116  33.013   1.861
16150W        W88498  41.928   8.386  14.345
16151W        W88499  17.713  25.100  13.813
16152W        W88500  18.292  43.318   4.342
16153W        W88501  24.043  34.496   4.286
16154W        W88502  33.410  23.075  14.416
16155W        W88503  17.687  41.515   4.144
16156W        W88504  14.190  16.305   3.710
16157W        W88505   4.891   6.765   3.344
16158W        W88506  29.504  43.438  10.894
16159W        W88507   9.846  14.602  12.374
16160W        W88508   4.409  23.191  12.842
16161W        W88509   9.149  31.469  12.087
16162W        W88510  32.422  26.191   2.212
16163W        W88511  38.903  28.008  10.090
16164W        W88512  34.497  14.634  13.447
16165W        W88513  22.173  34.932   0.925
16166W        W88514  31.567  43.772   2.405
16167W        W88515  29.960   8.789  13.361
16168W        W88516   6.689  28.998  11.450
16169W        W88517  20.684   8.656   4.310
16170W        W88518  32.137  30.577   1.299
16171W        W88519  21.723  12.212  10.941
16172W        W88520  35.384  36.582   2.404
16173W        W88521  13.211  40.921  13.406
16174W        W88522  11.656  26.068   4.633
16175W        W88523   4.401  13.107   1.916
16176W        W88524  37.047  31.576   4.709
16177W        W88525  12.333   5.889   4.828
16178W        W88526  40.336   6.392  14.284
16179W        W88527  20.256  29.012  10.059
16180W        W88528  25.503  13.725  13.419
16181W        W88529  18.221  42.799  11.589
16182W        W88530  37.344  18.173  10.144
16183W        W88531  37.412  18.575   2.841
16184W        W88532  15.261  35.556   4.603
16185W        W88533   3.819  13.684   0.285
16186W        W88534  34.926  36.409   1.791
16187W        W88535   6.187  15.598  13.384
16188W        W88536  43.392  36.991  10.523
16189W        W88537  14.204  25.981   1.873
16190W        W88538  27.018  11.145  12.963
16191W        W88539  25.504  33.041   2.673
16192W        W88540  17.225  23.516   0.868
16193W        W88541  31.516   7.284  12.340
16194W        W88542  14.147  34.512   3.711
16195W        W88543   8.212  10.790  11.441
16196W        W88544  39.009   0.769  10.474
16197W        W88545  25.703  12.203   2.310
16198W        W88546  12.763  25.594   4.776
16199W        W88547  34.080  44.855   0.857
16200W        W88548   7.826   1.821  13.030
16201W        W88549  33.102  11.829  12.091
16202W        W88550  24.593  43.329   4.317
16203W        W88551  32.599  32.475  13.510
16204W        W88552  33.885  43.845  12.849
16205W        W88553  30.488  20.704  14.890
16206W        W88554   6.372  29.599   4.797
16207W        W88555   4.834  43.281  13.357
16208W        W88556  33.880  26.110   4.216
16209W        W88557  33.882  24.710  13.432
16210W        W88558  43.010  21.054   2.839
16211W        W88559  16.093  36.456  11.126
16212W        W88560   3.851  19.633   1.750
16213W        W88561  36.414  37.406   5.132
16214W        W88562  24.716  28.106  11.110
16215W        W88563  27.181  27.971  10.914
16216W        W88564  24.185   4.936   3.790
16217W        W88565   2.836  29.115   4.750
16218W        W88566  25.578  12.770   2.847
16219W        W88567  35.998  34.030  14.866
16220W        W88568  39.342  31.056  11.053
16221W        W88569  33.392  31.510  10.921
16222W        W88570  11.793  18.136   0.468
16223W        W88571  33.897  22.640  13.824
16224W        W88572  35.897  13.116  14.380
16225W        W88573  34.079  19.147  10.939
16226W        W88574   7.366  22.565   2.894
16227W        W88575  35.879  33.921   4.689
16228W        W88576  18.763   9.309   2.234
16229W        W88577  32.080  37.510   5.184
16230W        W88578  23.984  37.561   4.777
16231W        W88579  16.763  36.020   1.410
16232W        W88580  27.550  27.641  14.386
16233W        W88581  12.731  39.062  14.315
16234W        W88582   3.406  39.484  14.922
16235W        W88583  38.481   4.263   4.258
16236W        W88584  43.510  38.912  14.409
16237W        W88585  34.405  28.015   1.733
16238W        W88586  20.752   2.363   4.624
16239W        W88587   7.811   2.757  11.080
16240W        W88588  40.491  43.375   4.793
16241W        W88589  37.364   4.228  10.058
16242W        W88590  19.566  16.665  14.468
16243W        W88591   4.939   3.350  13.321
16244W        W88592  31.093  35.504   3.345
16245W        W88593   3.415  36.904   2.795
16246W        W88594   2.466  42.389  14.445
16247W        W88595  17.276   3.243  14.029
16248W        W88596  41.471  36.894   1.388
16249W        W88597  26.965  39.315  11.046
16250W        W88598  19.661  32.537  14.508
16251W        W88599   8.276  40.911   0.916
16252W        W88600  17.275  19.543  12.477
16253W        W88601   3.746  42.004  11.107
16254W        W88602  25.148  30.580  13.050
16255W        W88603  15.320  39.488   1.436
16256W        W88604  32.017   8.292  10.490
16257W        W88605  28.991  10.798  12.343
16258W        W88606  30.638  28.623  12.547
16259W        W88607  34.532   4.406  10.586
16260W        W88608  32.416  26.201  13.467
16261W        W88609   5.710  23.569   2.218
16262W        W88610  10.194   5.832  12.359
16263W        W88611  22.686  15.631  12.432
16264W        W88612  43.377  23.587   2.788
16265W        W88613  30.955  17.795  14.295
16266W        W88614  23.230  39.510  12.422
16267W        W88615  36.921  38.010   0.786
16268W        W88616  24.580   0.377  11.587
16269W        W88617  11.755  27.527   3.812
16270W        W88618  11.347  34.035   0.452
16271W        W88619  35.874  15.263   1.866
16272W        W88620  22.236   9.316   4.271
16273W        W88621  41.344   9.712  14.025
16274W        W88622   2.842   2.266  11.379
16275W        W88623  26.619  14.801  10.536
16276W        W88624  21.091  40.965  10.538
16277W        W88625   0.981   4.726   4.829
16278W        W88626  29.612  22.110  10.583
16279W        W88627  41.373  24.587  12.365
16280W        W88628  31.566  41.437   0.469
16281W        W88629  12.796  38.538   2.349
16282W        W88630  26.106  21.149  10.439
16283W        W88631  43.422   7.350  12.578
16284W        W88632  42.319  30.003   2.412
16285W        W88633  34.940  21.648   4.681
16286W        W88634  37.554  35.910   4.673
16287W        W88635   0.372  41.860   2.398
16288W        W88636  35.105  20.132  12.005
16289W        W88637   9.728  44.356  13.396
16290W        W88638  21.151  40.314   2.891
16291W        W88639   2.784   6.377   2.286
16292W        W88640  17.753  10.634  14.296
16293W        W88641  32.421  40.979  14.838
16294W        W88642   3.798   4.847   0.255
16295W        W88643  28.678  41.879  11.861
16296W        W88644  15.670   1.919  12.579
16297W        W88645  40.469  32.625  10.990
16298W        W88646  15.108  42.460   2.245
16299W        W88647   6.810  26.588   1.422
16300W        W88648   6.286  39.396   2.790
16301W        W88649  14.734   7.358  13.896
16302W        W88650  35.860   1.325   1.424
16303W        W88651  33.559   7.336   9.676
16304W        W88652  44.953  10.734  13.467
16305W        W88653  24.522  35.892   4.277
16306W        W88654  35.446  44.956  14.279
16307W        W88655  14.719  11.235   0.955
16308W        W88656  26.981  34.944   3.784
16309W        W88657  41.967  21.688  10.967
16310W        W88658  17.216  26.541   9.926
16311W        W88659  16.766  40.329  10.943
16312W        W88660   7.416  23.502   1.274
16313W        W88661  30.112  20.758  12.494
16314W        W88662  26.974  28.621  12.056
16315W        W88663  13.679   4.790   2.692
16316W        W88664  11.706  16.799  11.009
16317W        W88665  38.520  18.256   1.919
16318W        W88666   3.391  40.837   4.219
16319W        W88667  25.176  37.831   1.712
16320W        W88668  16.087   4.358  14.282
16321W        W88669   5.429  33.584  14.791
16322W        W88670  27.632  15.125   2.800
16323W        W88671  12.716  30.431   3.360
16324W        W88672  22.192   1.826  14.299
16325W        W88673   1.419  37.374   1.335
16326W        W88674  18.683   2.269  10.520
16327W        W88675  35.377   9.154  10.603
16328W        W88676   1.742  30.572  10.417
16329W        W88677  26.570   0.386   4.172
16330W        W88678  15.319   9.388  12.515
16331W        W88679  10.356  17.780   1.348
16332W        W88680   0.783  20.583  13.408
16333W        W88681  39.428   8.895   2.277
16334W        W88682  12.187  19.076   0.415
16335W        W88683  14.116   1.315   1.740
16336W        W88684  34.418  38.954  12.043
16337W        W88685   6.769  33.402  14.354
16338W        W88686  40.337   9.648  13.897
16339W        W88687  34.596  13.107   3.715
16340W        W88688  44.411  25.205  10.924
16341W        W88689  30.973   4.309  11.477
16342W        W88690  18.107  30.601  11.471
16343W        W88691  44.010  27.652  10.549
16344W        W88692  18.581  34.915  13.053
16345W        W88693  15.798   3.429   3.820
16346W        W88694   6.273  27.978  12.912
16347W        W88695  12.197   2.364  11.067
16348W        W88696  15.128  20.712  11.427
16349W        W88697  20.741  43.939  13.369
16350W        W88698   4.739  16.677   3.710
16351W        W88699  25.548   2.944  10.633
16352W        W88700  21.213  10.175  11.573
16353W        W88701  14.273  40.822  14.404
16354W        W88702  15.660  21.043  12.412
16355W        W88703  29.600  12.702   3.691
16356W        W88704   0.788  16.655   4.184
16357W        W88705  28.004  33.612  11.066
16358W        W88706  14.683  28.949  10.066
16359W        W88707  31.981  32.053  13.533
16360W        W88708   3.397  26.162   4.754
16361W        W88709   8.782  28.993  11.063
16362W        W88710  16.168  21.641   1.820
16363W        W88711  20.101   1.310   4.228
16364W        W88712  27.555  11.148   4.748
16365W        W88713  16.678  19.251   4.830
16366W        W88714  12.706   6.771  13.051
16367W        W88715  38.563  12.156  12.505
16368W        W88716  32.562  30.507  14.438
16369W        W88717  33.947  36.455   3.720
16370W        W88718  24.535  29.560   1.694
16371W        W88719  42.859   4.297   4.185
16372W        W88720  41.410  44.384  13.976
16373W        W88721   5.408  36.870  10.917
16374W        W88722  20.542  23.206   0.896
16375W        W88723  13.328  15.611   5.260
16376W        W88724   9.279  37.902  11.583
16377W        W88725  35.058  23.027   2.879
16378W        W88726  42.481   5.291  13.356
16379W        W88727  32.571  42.457  13.451
16380W        W88728  35.451   9.887  11.117
16381W        W88729  25.102  42.854   0.872
16382W        W88730  16.806   1.351   0.377
16383W        W88731  29.973  37.572  10.947
16384W        W88732  10.656  17.755  12.340
16385W        W88733  31.097  44.832  12.001
16386W        W88734   8.338   6.184   4.269
16387W        W88735  43.893  33.605   3.843
16388W        W88736  18.597  26.507   3.841
16389W        W88737   8.820  18.223  10.024
16390W        W88738  11.848  17.727  14.903
16391W        W88739  19.138   9.155  14.275
16392W        W88740  38.026  11.659  14.462
16393W        W88741  41.466  39.322   2.842
16394W        W88742  40.489  19.239  11.078
16395W        W88743  33.017  17.681   0.885
16396W        W88744  25.608   2.301   4.254
16397W        W88745  44.928   6.759   2.669
16398W        W88746  13.202  35.971  10.993
16399W        W88747  19.568  33.101  14.779
16400W        W88748  11.232  32.409   1.769
16401W        W88749  22.718   3.416  11.576
16402W        W88750   3.456  36.454  11.471
16403W        W88751   9.199  15.711   3.333
16404W        W88752  39.970  14.254  13.437
16405W        W88753  10.807  33.626   1.239
16406W        W88754  26.499  23.633  11.936
16407W        W88755  11.730   7.839  12.877
16408W        W88756  44.755   6.850  10.616
16409W        W88757   3.259  39.960   4.764
16410W        W88758  33.429   9.373   4.709
16411W        W88759  26.203   6.322   0.850
16412W        W88760   7.881  20.627  10.589
16413W        W88761  30.995  37.343  11.880
16414W        W88762   8.300   2.936  11.467
16415W        W88763  29.945  35.971   2.747
16416W        W88764   2.933  21.129  12.989
16417W        W88765  21.674  38.522   0.327
16418W        W88766   2.398  37.569   3.290
16419W        W88767  42.340   6.905  11.533
16420W        W88768   7.802   9.172  14.896
16421W        W88769  34.576   5.871   0.466
16422W        W88770  42.438  11.231   2.361
16423W        W88771  20.101   1.955   3.351
16424W        W88772  24.521   9.645  13.459
16425W        W88773   3.395  44.355  13.522
16426W        W88774  29.950  20.166   3.382
16427W        W88775   6.348  11.642   0.940
16428W        W88776  12.658  25.110   0.354
16429W        W88777  19.650  31.482  14.974
16430W        W88778  29.437   1.941  14.886
16431W        W88779  18.640  12.321  11.527
16432W        W88780  24.034  34.425  10.553
16433W        W88781  44.348   1.406  11.402
16434W        W88782  37.440  26.209   0.298
16435W        W88783  32.903   1.382   0.895
16436W        W88784   2.826  37.879   0.324
16437W        W88785  12.746  13.126   4.135
16438W        W88786   4.882   6.216   2.178
16439W        W88787   0.423  44.844   2.339
16440W        W88788  18.555  35.573  13.862
16441W        W88789  44.410  20.100   4.222
16442W        W88790  12.690  14.816  12.943
16443W        W88791   3.729  31.407   2.192
16444W        W88792   2.873  43.769   4.348
16445W        W88793  38.038  36.088   4.322
16446W        W88794  22.212  19.137   3.186
16447W        W88795  33.420  32.598   4.271
16448W        W88796  34.873   8.273   4.712
16449W        W88797  20.703  24.600   2.822
16450W        W88798   8.687  43.899  12.570
16451W        W88799  21.676  20.650   4.696
16452W        W88800  14.803  42.440  10.494
16453W        W88801  31.027   8.405  14.855
16454W        W88802   4.837  21.528  10.922
16455W        W88803   3.770  16.080   4.672
16456W        W88804  34.528  17.764  11.961
16457W        W88805  38.007  44.315  10.438
16458W        W88806  42.016   5.842   2.841
16459W        W88807  26.543  36.055  10.122
16460W        W88808  11.712  14.647  12.369
16461W        W88809  16.164  16.672  10.488
16462W        W88810  12.616  19.274   0.744
16463W        W88811  38.828  43.337   2.899
16464W        W88812  26.625   9.361   1.211
16465W        W88813   3.894  21.065   0.454
16466W        W88814  18.278   6.854  13.037
16467W        W88815   8.377  42.436  13.864
16468W        W88816  43.809  37.355  14.360
16469W        W88817   6.282  15.281  12.456
16470W        W88818  19.598  25.469  13.015
16471W        W88819  41.920  31.582  13.332
16472W        W88820  17.708  19.664   0.454
16473W        W88821  11.262  28.930   1.774
16474W        W88822  18.197  44.446  14.298
16475W        W88823   6.306  30.606  10.932
16476W        W88824  22.549  26.106  10.507
16477W        W88825   8.827  33.512  11.402
16478W        W88826   3.444   1.787  12.483
16479W        W88827  37.368   9.195  10.548
16480W        W88828  31.123  31.944  12.575
16481W        W88829   4.801   6.773   3.792
16482W        W88830  13.199   0.977  12.381
16483W        W88831  33.094  33.971  11.510
16484W        W88832  13.776  25.992  14.957
16485W        W88833  30.559  13.256   3.638
16486W        W88834  26.470  31.411   1.933
16487W        W88835  37.928  27.071  10.451
16488W        W88836  16.653  18.631  13.852
16489W        W88837  13.342  12.805   0.820
16490W        W88838  39.522   4.211   0.775
16491W        W88839   0.943  36.487   1.859
16492W        W88840  22.037  16.708  11.399
16493W        W88841  33.623  35.435   2.732
16494W        W88842  32.920   9.297  11.974
16495W        W88843  39.384  12.313  14.836
16496W        W88844  18.227  16.800  12.572
16497W        W88845  16.099  30.589  14.974
16498W        W88846   4.703  11.320  11.128
16499W        W88847  15.753  43.335  10.541
16500W        W88848  23.590  41.464   4.257
16501W        W88849  34.533  21.607  11.899
16502W        W88850  12.666  17.102  12.395
16503W        W88851  37.867   1.910  13.476
16504W        W88852  38.975  23.660   4.244
16505W        W88853   4.767   6.817  13.370
16506W        W88854   6.235  24.571   0.818
16507W        W88855  27.123  12.618   0.748
16508W        W88856  12.688  29.055  14.403
16509W        W88857  42.500  24.079  10.902
16510W        W88858  19.238  45.000   0.445
16511W        W88859  33.023  40.411  12.361
16512W        W88860  31.134  39.061   4.159
16513W        W88861  14.278   5.199  13.493
16514W        W88862  34.055  41.797  13.531
16515W        W88863  19.081  22.612   4.733
16516W        W88864   4.735  15.637  14.908
16517W        W88865  29.599  31.420  12.946
16518W        W88866  43.501  12.839   1.804
16519W        W88867  21.700  32.998  13.973
16520W        W88868   1.959  12.339   2.279
16521W        W88869   6.901  43.496   3.198
16522W        W88870  33.402  37.445  12.899
16523W        W88871  31.604  25.511   3.785
16524W        W88872  36.068  39.552   1.770
16525W        W88873   6.874  31.014   4.326
16526W        W88874   2.372  18.083  13.411
16527W        W88875  33.909  33.565   4.627
16528W        W88876  32.113  25.110   0.253
16529W        W88877  34.896  17.704  14.327
16530W        W88878  39.447  26.023   4.268
16531W        W88879  34.882  13.206  10.448
16532W        W88880  43.910  38.980  14.932
16533W        W88881  27.993   7.361   2.208
16534W        W88882  27.133  31.589  12.937
16535W        W88883   0.781  23.649   1.410
16536W        W88884   6.189   9.735   4.176
16537W        W88885  44.273   3.224  13.438
16538W        W88886  42.899  41.337   4.817
16539W        W88887  31.036  28.542   3.708
16540W        W88888  10.876  42.988   3.359
16541W        W88889  41.913   1.763  10.024
16542W        W88890   4.255   3.406  14.892
16543W        W88891  31.054  13.819  12.065
16544W        W88892  40.367  18.672  13.908
16545W        W88893  16.604  29.493  14.413
16546W        W88894  14.653  25.084   2.783
16547W        W88895  15.728  44.320  13.539
16548W        W88896  44.884  16.251  14.441
16549W        W88897   1.256  11.363  14.958
16550W        W88898  26.486  19.751   3.268
16551W        W88899  31.140   4.847  14.835
16552W        W88900  32.995  28.989  13.822
16553W        W88901   3.322  32.891   3.718
16554W        W88902   2.247   6.188   4.195
16555W        W88903   4.775  26.205  13.803
16556W        W88904  26.465  16.301   2.236
16557W        W88905  10.276  28.051   4.645
16558W        W88906  17.578  14.600  11.868
16559W        W88907   7.691   0.816  14.355
16560W        W88908  43.417  38.571   1.908
16561W        W88909  12.803   6.370   4.689
16562W        W88910  12.160  13.739  10.428
16563W        W88911   2.808  25.975   3.714
16564W        W88912  43.345  40.320   0.482
16565W        W88913   0.459  39.362   0.248
16566W        W88914  34.604  22.143   3.264
16567W        W88915  20.199   0.250   2.740
16568W        W88916   1.768  15.738   4.628
16569W        W88917  23.725  15.228  14.342
16570W        W88918  33.424  37.402   5.263
16571W        W88919  15.296  30.414   0.304
16572W        W88920  33.405  22.069  11.568
16573W        W88921  44.909  33.092   3.830
16574W        W88922  24.092  33.487   0.747
16575W        W88923   1.914   1.929  10.536
16576W        W88924  16.635   8.200  10.407
16577W        W88925  29.023  27.543  14.791
16578W        W88926  32.506  15.088   2.807
16579W        W88927   9.823  19.751  12.826
16580W        W88928   0.827  16.765   0.938
16581W        W88929  34.871  15.762  10.888
16582W        W88930   2.964   1.733  11.864
16583W        W88931  11.704   0.399  12.467
16584W        W88932   3.946  37.566   1.413
16585W        W88933  43.297  23.140   0.878
16586W        W88934   1.448   7.751  10.640
16587W        W88935  16.766  41.329  10.907
16588W        W88936  39.887   9.270   4.262
16589W        W88937  15.600   3.377   4.601
16590W        W88938  40.883  41.855  11.548
16591W        W88939  25.603  34.998  14.844
16592W        W88940  42.361  32.011  13.420
16593W        W88941  37.505   6.678   0.749
16594W        W88942  12.718  21.625  10.469
16595W        W88943  26.177  19.638   4.780
16596W        W88944  26.187  23.117   0.914
16597W        W88945  33.516  23.523  13.941
16598W        W88946   6.238  30.963   2.727
16599W        W88947  11.246  23.637  12.930
16600W        W88948  43.782  21.582  11.610
16601W        W88949  33.521  22.011   2.724
16602W        W88950  32.016  42.482  11.873
16603W        W88951  41.483  35.357   4.294
16604W        W88952  21.075  17.233  11.393
16605W        W88953   2.243  25.966  11.096
16606W        W88954   1.848  28.504  13.994
16607W        W88955  28.653  34.538   1.864
16608W        W88956  23.556   0.940   4.305
16609W        W88957  13.143  28.454  10.643
16610W        W88958   5.766  27.069  10.518
16611W        W88959  17.798  44.487  12.009
16612W        W88960   7.237   2.290  11.026
16613W        W88961  22.105  36.053  14.845
16614W        W88962   4.701  10.872   2.735
16615W        W88963  19.146   0.471  13.975
16616W        W88964   3.399  23.022   3.747
16617W        W88965  23.502  26.535   3.221
16618W        W88966   3.760  41.334  14.809
16619W        W88967  25.587   8.221  11.981
16620W        W88968  33.563  29.470   0.862
16621W        W88969  24.644  23.022   3.360
16622W        W88970  11.689  34.389   2.669
16623W        W88971   3.335  36.496  10.561
16624W        W88972  28.106  12.651   4.338
16625W        W88973  19.275  14.594  13.345
16626W        W88974  35.506   2.834  14.352
16627W        W88975  16.287  33.468   2.690
16628W        W88976  38.037  10.836  13.441
16629W        W88977  44.408  38.515   0.883
16630W        W88978  21.565  39.831   3.751
16631W        W88979   6.387   0.746  10.965
16632W        W88980  41.035  22.221  11.073
16633W        W88981  10.678  39.365   1.779
16634W        W88982  12.844  25.043   4.683
16635W        W88983  13.228   6.261  10.589
16636W        W88984  39.445  19.146   2.800
16637W        W88985   6.745  18.762  12.061
16638W        W88986  13.323  14.736  11.961
16639W        W88987  42.838  12.737   4.339
16640W        W88988  27.544  19.218  11.437
16641W        W88989  33.081   3.316  12.534
16642W        W88990  43.504   2.445   0.310
16643W        W88991  30.084   7.772  14.360
16644W        W88992  35.078   0.875   4.333
16645W        W88993  12.215  11.235   1.891
16646W        W88994  21.540  24.681   3.179
16647W        W88995  10.215  39.554  12.962
16648W        W88996  23.092  34.477   3.163
16649W        W88997   8.786  22.168   4.731
16650W        W88998  35.989  28.082   4.263
16651W        W88999  31.489  33.104  13.478
16652W        W89000  21.601  27.510  14.006
16653W        W89001  18.083  36.058   2.403
16654W        W89002  43.397  31.523   4.684
16655W        W89003  26.980  15.103   0.920
16656W        W89004   2.333   6.766   4.642
16657W        W89005  28.082   6.387  12.029
16658W        W89006  33.009   4.832  14.770
16659W        W89007  30.084  21.752   2.888
16660W        W89008  31.132   2.893   4.628
16661W        W89009  13.137  24.013  10.539
16662W        W89010  10.197  16.205  12.025
16663W        W89011  28.001  26.964  13.967
16664W        W89012  10.792  17.255  11.460
16665W        W89013  34.095  16.207  11.600
16666W        W89014  37.866  15.295   1.288
16667W        W89015   5.733  31.907   1.320
16668W        W89016   6.428  31.425   2.844
16669W        W89017  38.821  29.651  10.440
16670W        W89018   6.340   6.391   3.723
16671W        W89019  13.212  41.331  12.377
16672W        W89020  16.101  30.134   4.725
16673W        W89021  22.018  44.290  12.023
16674W        W89022  15.718  21.537   0.833
16675W        W89023   1.961   2.339  13.853
16676W        W89024  27.590  43.891   3.848
16677W        W89025  42.968  14.631   0.327
16678W        W89026  24.501   0.307   1.400
16679W        W89027  40.455  32.086   4.634
16680W        W89028  42.514  28.596   0.334
16681W        W89029  12.239   7.356   3.344
16682W        W89030  25.970  17.769   0.315
16683W        W89031  20.088  39.360   4.208
16684W        W89032  23.220   5.395   1.891
16685W        W89033  29.434  30.145  10.492
16686W        W89034  38.957  41.529   2.345
16687W        W89035  26.524   9.360   0.308
16688W        W89036   0.988  37.379  12.559
16689W        W89037  10.794  22.251  11.575
16690W        W89038  26.011  40.958  10.505
16691W        W89039  34.405  36.402   3.834
16692W        W89040  14.338  10.747   1.796
16693W        W89041  22.047  18.190  14.031
16694W        W89042  12.788  23.532   4.154
16695W        W89043   7.738   1.821  14.420
16696W        W89044  44.986   1.472   0.736
16697W        W89045  41.303   3.288  14.978
16698W        W89046  25.516  28.634   3.360
16699W        W89047  35.098  15.091  13.543
16700W        W89048  14.818   9.839  11.471
16701W        W89049  20.246  27.630  12.900
16702W        W89050   9.390   9.816   0.900
16703W        W89051  44.393  40.331   2.302
16704W        W89052   4.323  14.676  11.481
16705W        W89053  22.041  42.435   3.180
16706W        W89054  32.422  37.471   0.366
16707W        W89055  23.024  42.295  10.957
16708W        W89056   0.448  40.316   0.273
16709W        W89057   4.446  12.338   0.769
16710W        W89058   7.212  24.503  11.930
16711W        W89059  34.005  26.152   1.931
16712W        W89060   7.290  43.842   0.361
16713W        W89061  28.111  29.620  12.563
16714W        W89062   3.247  36.932  11.553
16715W        W89063  29.575  28.987  10.937
16716W        W89064  27.642   4.315  13.506
16717W        W89065  38.028   7.263   5.738
16718W        W89066   6.778  18.775   0.352
16719W        W89067   1.422  31.117   0.850
16720W        W89068  13.121   7.250  14.475
16721W        W89069  44.451  37.488   5.165
16722W        W89070  20.704  37.385   1.775
16723W        W89071  40.360   6.389  12.955
16724W        W89072  33.941  33.888  13.488
16725W        W89073  35.418  32.597   2.761
16726W        W89074   4.762   0.813   0.884
16727W        W89075  26.037  13.647  12.903
16728W        W89076  36.977  23.110   2.377
16729W        W89077  23.169   4.810   2.308
16730W        W89078  40.875  37.083  12.925
16731W        W89079  23.192   1.806  13.340
16732W        W89080   4.837  44.401  10.140
16733W        W89081  14.811   5.817  14.500
16734W        W89082  20.061  17.125  12.061
16735W        W89083  24.555   0.321  13.380
16736W        W89084  21.197  16.230  12.999
16737W        W89085  26.105  12.300   0.369
16738W        W89086  28.489  17.261   1.757
16739W        W89087  33.971   4.739  10.971
16740W        W89088  23.626  22.038  13.840
16741W        W89089   6.765  19.672   0.826
16742W        W89090  11.210  11.243   4.781
16743W        W89091  25.625  25.502  12.461
16744W        W89092  38.447  11.847   1.320
16745W        W89093  30.591  35.055   0.835
16746W        W89094  14.686  44.970   3.782
16747W        W89095  32.454   5.705   1.737
16748W        W89096  28.174   6.285  10.602
16749W        W89097  22.042  35.002   2.831
16750W        W89098  42.440  36.896   4.680
16751W        W89099  12.786  33.420  14.776
16752W        W89100  39.027   6.214  11.481
16753W        W89101  42.806  26.111  13.059
16754W        W89102  10.150   3.761   3.264
16755W        W89103  12.196  26.080  11.029
16756W        W89104   0.452  32.074  13.931
16757W        W89105   3.753  31.491  11.978
16758W        W89106  34.436  18.113  11.069
16759W        W89107  38.407  43.785  10.632
16760W        W89108  23.199  42.844  12.911
16761W        W89109  42.969   9.758  10.978
16762W        W89110  28.447  15.759   2.288
16763W        W89111   1.339  28.143  12.909
16764W        W89112  39.046  32.602   5.314
16765W        W89113  36.008  36.913   4.267
16766W        W89114  11.196  21.050   3.354
16767W        W89115   8.396  22.640  12.438
16768W        W89116  20.089  40.471   4.749
16769W        W89117  20.106   0.432  12.005
16770W        W89118  27.138   3.274   0.344
16771W        W89119  21.728  40.908   2.858
16772W        W89120  22.227  26.510   2.835
16773W        W89121  44.846  32.950   0.258
16774W        W89122  13.834  25.068  11.919
16775W        W89123  25.188  36.856   2.687
16776W        W89124  26.463  31.514  12.464
16777W        W89125  15.726  17.285  11.516
16778W        W89126  39.492  28.982   3.821
16779W        W89127  44.407  28.667   4.655
16780W        W89128  17.610   8.683  14.455
16781W        W89129   9.213  14.178   3.338
16782W        W89130  22.227  30.501  15.000
16783W        W89131   9.332   5.352   2.823
16784W        W89132  16.670  16.623  12.953
16785W        W89133  28.553  36.859   3.280
16786W        W89134  22.564  34.603   3.327
16787W        W89135  28.496  26.583   3.786
16788W        W89136  26.663  43.293   0.437
16789W        W89137  18.622  18.723  12.004
16790W        W89138  44.440  30.126  13.995
16791W        W89139  10.188   2.272   9.958
16792W        W89140  13.267   7.205  13.061
16793W        W89141  15.621  27.158  14.951
16794W        W89142  21.032   8.181  12.942
16795W        W89143  16.681  13.625  10.101
16796W        W89144  27.984  18.230  13.027
16797W        W89145   5.849  27.990  12.866
16798W        W89146  22.021   9.275   1.857
16799W        W89147  23.106  20.151  13.338
16800W        W89148  38.005  30.057   3.314
16801W        W89149  21.189  26.474  13.947
16802W        W89150  26.033  43.824   0.933
16803W        W89151  31.542  27.013   2.844
16804W        W89152   7.785   3.263   0.316
16805W        W89153   6.713  22.139  13.809
16806W        W89154  16.072  29.543  12.358
16807W        W89155  11.707  21.595  10.604
16808W        W89156  17.161   4.371  14.876
16809W        W89157  43.953  36.577  13.459
16810W        W89158  39.385  42.498  14.290
16811W        W89159  21.115  35.906   1.720
16812W        W89160  17.607  14.197   3.374
16813W        W89161  43.430  26.662   0.444
16814W        W89162   8.367  27.129   0.302
16815W        W89163  23.149  42.383   3.197
16816W        W89164  14.178   2.341   1.838
16817W        W89165  11.799  40.042   3.186
16818W        W89166  34.061   1.426   2.260
16819W        W89167  10.791   2.855   0.951
16820W        W89168  39.560   7.855  11.927
16821W        W89169  30.614  35.408   4.837
16822W        W89170   7.398  23.630   2.765
16823W        W89171  35.434  23.619   4.323
16824W        W89172  35.408  13.757  13.982
16825W        W89173  17.690  37.954   1.341
16826W        W89174  39.393  30.449  12.078
16827W        W89175  26.552  19.546   9.963
16828W        W89176  33.891  29.950   1.833
16829W        W89177  36.427  28.931   0.955
16830W        W89178  33.417  30.969  13.875
16831W        W89179  40.957  10.222  10.490
16832W        W89180   0.316  11.128  14.437
16833W        W89181  44.844  35.899   2.749
16834W        W89182  12.843  43.804  10.577
16835W        W89183  40.520   8.686  13.923
16836W        W89184  15.816  44.291   4.786
16837W        W89185  10.688  11.166   2.388
16838W        W89186  38.350   1.956  14.515
16839W        W89187   3.404  11.363  14.447
16840W        W89188  34.988  11.746  10.455
16841W        W89189  41.840  25.065  13.946
16842W        W89190  24.983  33.442   0.838
16843W        W89191  24.984  10.232   3.724
16844W        W89192  25.713  34.434   2.724
16845W        W89193  12.736  40.981   4.346
16846W        W89194  23.208  36.450   2.675
16847W        W89195  33.461   8.743  14.501
16848W        W89196   5.429  19.094   2.419
16849W        W89197  11.130   2.943   4.287
16850W        W89198  22.215  30.028  14.399
16851W        W89199  43.816  33.051  14.818
16852W        W89200  26.119   5.923   4.187
16853W        W89201  12.648  17.124   0.365
16854W        W89202  16.100  34.562   4.263
16855W        W89203  35.426  42.369  14.962
16856W        W89204  11.796  28.583  10.120
16857W        W89205   6.417  41.021  13.887
16858W        W89206  27.508   3.718   4.743
16859W        W89207  17.609  13.625   9.465
16860W        W89208  19.248  12.209   0.425
16861W        W89209   5.899   1.469   4.657
16862W        W89210  16.136  22.011  10.989
16863W        W89211  24.013  12.266   1.714
16864W        W89212  38.957  28.108   4.656
16865W        W89213  36.379  18.677  14.891
16866W        W89214  38.493  43.512   4.654
16867W        W89215  16.279   8.735  11.932
16868W        W89216  28.062   0.765   3.241
16869W        W89217  16.088  29.977   2.681
16870W        W89218   0.834  38.534   4.176
16871W        W89219  42.382  23.609   2.192
16872W        W89220  22.716   4.328  10.429
16873W        W89221  33.911   6.391  10.599
16874W        W89222  37.500   0.791  11.976
16875W        W89223  20.137  41.293  12.997
16876W        W89224  32.067  44.320  12.570
16877W        W89225  10.830  32.966  11.440
16878W        W89226  37.046  26.645   0.330
16879W        W89227  25.084  33.405  13.997
16880W        W89228   1.392  37.964   4.294
16881W        W89229  20.233  30.559  10.934
16882W        W89230  28.551  36.546   1.248
16883W        W89231   4.821  32.429  13.414
16884W        W89232  30.017  35.484   4.343
16885W        W89233  16.612  40.035   3.810
16886W        W89234  10.651  26.609  11.884
16887W        W89235   4.738  22.142   2.375
16888W        W89236  18.725  44.953   0.901
16889W        W89237  37.873  21.617  14.280
16890W        W89238  40.943  39.903  12.364
16891W        W89239  28.997  11.240   2.365
16892W        W89240  21.603   7.715  12.368
16893W        W89241  31.006  17.635  12.842
16894W        W89242   2.374  31.497  13.035
16895W        W89243  13.780  20.743   4.692
16896W        W89244  38.386  38.372  10.434
16897W        W89245  29.654   5.311  10.965
16898W        W89246  37.991   5.358  10.597
16899W        W89247  26.963  13.294   1.319
16900W        W89248  18.156  44.763   4.656
16901W        W89249  33.568  40.314   1.414
16902W        W89250   0.838   6.719  12.889
16903W        W89251  28.540  33.881  10.633
16904W        W89252  32.396  18.094  10.968
16905W        W89253  22.568  21.108   2.900
16906W        W89254  25.660   6.346  12.391
16907W        W89255  15.808  27.633  11.422
16908W        W89256  14.695  23.548   2.227
16909W        W89257  36.347   3.293  11.414
16910W        W89258  27.098  26.962  10.947
16911W        W89259   8.808  14.216   0.285
16912W        W89260  40.869  12.667   1.900
16913W        W89261   8.808  42.854   1.875
16914W        W89262  39.968   5.294  14.974
16915W        W89263  26.059   3.361  10.534
16916W        W89264   6.243  21.719  13.443
16917W        W89265  36.382  27.466   3.794
16918W        W89266  44.869   2.339  13.449
16919W        W89267  18.587  38.998   9.962
16920W        W89268  35.037  21.027  13.522
16921W        W89269  14.653  11.270   2.756
16922W        W89270   9.155   9.740  13.528
16923W        W89271  16.598  41.323   0.823
16924W        W89272  42.344   8.284   0.314
16925W        W89273  21.232  35.012   3.295
16926W        W89274   7.797  32.482   0.448
16927W        W89275   3.249  39.383  12.394
16928W        W89276  14.158  26.558  12.042
16929W        W89277  37.963  29.510  10.444
16930W        W89278  20.629  13.347  11.992
16931W        W89279  25.570  10.179  10.544
16932W        W89280  13.142  11.726   1.272
16933W        W89281  41.939   3.446   1.902
16934W        W89282  35.911  11.757  13.527
16935W        W89283   3.294  43.953  11.882
16936W        W89284  32.030  16.776   0.942
16937W        W89285  10.714  25.600  11.588
16938W        W89286  13.275  41.877  12.076
16939W        W89287  28.631  10.370   3.855
16940W        W89288  11.238  20.196   0.957
16941W        W89289  24.725  24.504   3.707
16942W        W89290  44.958  36.530   3.850
16943W        W89291  36.932  26.014  11.976
16944W        W89292  32.432  39.444  13.038
16945W        W89293  32.473  44.503  10.016
16946W        W89294   0.778  23.034   0.926
16947W        W89295  34.563   3.846  11.042
16948W        W89296  33.491  27.614  10.503
16949W        W89297  27.621  19.199   1.737
16950W        W89298  28.460   5.861   0.423
16951W        W89299  17.282   5.203  10.579
16952W        W89300  24.682  34.477   4.761
16953W        W89301  14.704  25.972  11.098
16954W        W89302  43.418  16.174  11.536
16955W        W89303  18.647  40.477  11.881
16956W        W89304  35.010  25.140   1.876
16957W        W89305  22.537  25.065   1.394
16958W        W89306  25.964  20.044  14.313
16959W        W89307   3.765   0.759  14.973
16960W        W89308  27.617  42.928  14.946
16961W        W89309  22.745  12.637   2.823
16962W        W89310  23.574  31.963   0.826
16963W        W89311  43.990  14.713   3.190
16964W        W89312   3.855  25.197   4.351
16965W        W89313  43.017  17.607   2.187
16966W        W89314  40.924  30.576  11.443
16967W        W89315   9.151  11.673   4.248
16968W        W89316  13.190  17.626  14.412
16969W        W89317   3.854  40.874   4.220
16970W        W89318  14.289  25.169  13.459
16971W        W89319   7.852  32.925   0.375
16972W        W89320  41.021  31.517  11.398
16973W        W89321  11.766  26.547  11.386
16974W        W89322  43.843   5.929   1.884
16975W        W89323   4.944  40.496   1.391
16976W        W89324  40.951  11.262  11.491
16977W        W89325  35.968  36.934  14.450
16978W        W89326  16.191  16.078  11.494
16979W        W89327   9.279  19.698  13.005
16980W        W89328   7.850  24.149   3.276
16981W        W89329   2.781  13.682   2.741
16982W        W89330  26.481   0.267   2.875
16983W        W89331   3.812  36.865   1.443
16984W        W89332   6.340   9.871  12.541
16985W        W89333  37.421  27.546  13.818
16986W        W89334  25.039  11.191  14.317
16987W        W89335  32.612  35.521  13.408
16988W        W89336  22.998  13.262   2.864
16989W        W89337   6.338   1.367   3.261
16990W        W89338  31.111  30.576   3.204
16991W        W89339  41.877   3.865  13.037
16992W        W89340  31.912  42.438   1.892
16993W        W89341  33.450  12.770  11.579
16994W        W89342   3.769   5.709  13.470
16995W        W89343  32.123  23.682  13.512
16996W        W89344   3.302  15.249   1.251
16997W        W89345  33.419  33.609  13.321
16998W        W89346  16.103  27.482   3.693
16999W        W89347  19.180  34.473   2.284
17000W        W89348  38.427  18.270   2.693
17001W        W89349  16.583  22.099  11.543
17002W        W89350  19.773  35.881  12.009
17003W        W89351   1.311  15.822   9.932
17004W        W89352  30.466  21.695  11.414
17005W        W89353  14.270  34.595  13.350
17006W        W89354  24.195   8.248  11.477
17007W        W89355  15.790  36.945   2.279
17008W        W89356   2.874  33.408   0.755
17009W        W89357  44.432   9.154  11.453
17010W        W89358   6.223  17.790  13.464
17011W        W89359  21.530  19.570  12.928
17012W        W89360  43.435  20.176   4.200
17013W        W89361   4.373  37.999   3.638
17014W        W89362  13.257  12.238  13.810
17015W        W89363  18.056  11.163  14.424
17016W        W89364  28.489  32.963   1.309
17017W        W89365   6.247   5.831   2.195
17018W        W89366  14.140  23.655  14.977
17019W        W89367  40.908  25.121   3.236
17020W        W89368   0.423  38.924   3.755
17021W        W89369  26.155  34.582   1.698
17022W        W89370  25.994  37.347  13.892
17023W        W89371   7.260  17.186   3.723
17024W        W89372   7.857  39.341  14.905
17025W        W89373  42.969   4.878   0.422
17026W        W89374  32.083  10.228  14.874
17027W        W89375   4.845  35.921   4.739
17028W        W89376  19.185  19.758  13.858
17029W        W89377  25.551  18.655  14.506
17030W        W89378  26.080   3.323   0.351
17031W        W89379   1.412  34.020  12.489
17032W        W89380  39.485   9.154  14.784
17033W        W89381  19.580  28.530   2.803
17034W        W89382   7.258  37.892  12.954
17035W        W89383  44.342   3.399  14.992
17036W        W89384   1.974  31.426  14.802
17037W        W89385  23.143  36.558   3.779
17038W        W89386  32.028  18.121   4.768
17039W        W89387   6.741  10.339  13.944
17040W        W89388  42.880  30.517  14.802
17041W        W89389  19.746  39.981  11.011
17042W        W89390   4.286   1.889  11.401
17043W        W89391  34.994  43.296   2.283
17044W        W89392  24.592  10.673   1.929
17045W        W89393  25.571   0.912   3.763
17046W        W89394   4.211  21.720   1.269
17047W        W89395   7.715   3.894   0.290
17048W        W89396  18.253  18.293   3.162
17049W        W89397  42.804  30.518  11.943
17050W        W89398  30.062  15.160   3.689
17051W        W89399  12.360  40.937  13.525
17052W        W89400  44.856  12.140   0.358
17053W        W89401  39.893  14.600  12.017
17054W        W89402  10.338  19.538  12.412
17055W        W89403  13.109  32.139   3.823
17056W        W89404  17.710  33.014  10.905
17057W        W89405   7.691  22.252   1.242
17058W        W89406  39.497  37.489   0.462
17059W        W89407  24.021  16.595  12.037
17060W        W89408  18.682   4.741  11.115
17061W        W89409  11.704   6.331   1.776
17062W        W89410  32.916  16.116   1.754
17063W        W89411  30.550  15.787  13.792
17064W        W89412   3.281  35.932   0.301
17065W        W89413  17.587  27.668  10.412
17066W        W89414  11.782  38.899  12.882
17067W        W89415  26.131  34.593  12.038
17068W        W89416   8.180  38.428   0.297
17069W        W89417  43.788   6.875  11.551
17070W        W89418  21.233  15.248  13.934
17071W        W89419  44.836   1.260   3.350
17072W        W89420   5.814   5.726   0.742
17073W        W89421  23.536  17.716   0.317
17074W        W89422  29.474   4.389  12.362
17075W        W89423  24.629  40.308   3.386
17076W        W89424  31.039  13.158  10.533
17077W        W89425  14.658  39.472  14.417
17078W        W89426  39.524  34.112  12.462
17079W        W89427  17.586  17.225  12.363
17080W        W89428  27.022   4.734  11.596
17081W        W89429  12.299   4.835   1.923
17082W        W89430   7.671  32.071   1.803
17083W        W89431  24.677  17.291   2.803
17084W        W89432  18.699  38.479  11.545
17085W        W89433  37.573   6.243   4.790
17086W        W89434  36.036  22.171   1.806
17087W        W89435  43.826  14.728  13.056
17088W        W89436  25.673  36.943   1.708
17089W        W89437  18.715  29.938   0.340
17090W        W89438  27.955   8.655  10.471
17091W        W89439   0.798  25.063  14.491
17092W        W89440  10.744  42.348  14.416
17093W        W89441  42.391  24.171  13.871
17094W        W89442  35.503  31.930  13.438
17095W        W89443   9.692   7.298  11.857
17096W        W89444  39.428  20.132   3.208
17097W        W89445  36.447   7.779   1.902
17098W        W89446  24.139   8.340  14.965
17099W        W89447  30.480  17.662  10.556
17100W        W89448  44.418  34.449  12.042
17101W        W89449  25.685  38.963   3.651
17102W        W89450  43.811  34.110  14.357
17103W        W89451  31.640  20.202  14.779
17104W        W89452  26.043   2.337  13.469
17105W        W89453  40.449   5.742  10.933
17106W        W89454  25.521  29.110  14.011
17107W        W89455  29.563  43.316  10.418
17108W        W89456  21.111  22.223  11.908
17109W        W89457   6.269  28.489  14.302
17110W        W89458  13.278  44.888   4.686
17111W        W89459   3.799  17.748  10.608
17112W        W89460  39.872   5.864  11.386
17113W        W89461   4.832  40.001  11.961
17114W        W89462  30.998  35.009   5.729
17115W        W89463  43.783  13.779   3.768
17116W        W89464  17.278   4.826  11.517
17117W        W89465   0.818  41.296  10.926
17118W        W89466  43.971   8.759   5.245
17119W        W89467  15.752  21.737  13.413
17120W        W89468   8.892   2.294   2.887
17121W        W89469  36.476  29.945   4.766
17122W        W89470   7.184  28.053   0.862
17123W        W89471  38.851  32.619  14.347
17124W        W89472  25.214  21.223  14.470
17125W        W89473  43.349  10.705   0.480
17126W        W89474  38.544  39.498  11.060
17127W        W89475   5.327  21.535   1.354
17128W        W89476  30.455  25.032  12.853
17129W        W89477  43.390  39.343   4.633
17130W        W89478  29.568   0.357  14.816
17131W        W89479   6.426  17.251   2.411
17132W        W89480  27.061  42.858   3.631
17133W        W89481  18.242   1.281  14.887
17134W        W89482  19.232  26.693  11.916
17135W        W89483  11.213  15.319  14.385
17136W        W89484  27.590  20.576  13.027
17137W        W89485   4.303   8.379  11.119
17138W        W89486  24.579  15.775  13.796
17139W        W89487   1.905  20.679   0.265
17140W        W89488  33.003  37.461  14.961
17141W        W89489   3.947   7.773  11.497
17142W        W89490  35.536  18.216  14.460
17143W        W89491  26.984  13.270  12.966
17144W        W89492  11.246  43.784  14.887
17145W        W89493  24.094  21.058  12.515
17146W        W89494   2.950  39.947  10.541
17147W        W89495   7.263  10.197   1.390
17148W        W89496  33.620  10.230   0.257
17149W        W89497  14.327  40.441   0.923
17150W        W89498  34.099  19.123   4.636
17151W        W89499  21.741  37.930  11.465
17152W        W89500   3.879   2.449   0.456
17153W        W89501   9.644  21.072   1.869
17154W        W89502  19.208  16.693  14.353
17155W        W89503  19.718   6.709   0.820
17156W        W89504  10.193  29.172  11.067
17157W        W89505  35.525  20.121   2.249
17158W        W89506  28.000  24.133   2.731
17159W        W89507  17.291  18.552   1.842
17160W        W89508  30.521   4.401  12.832
17161W        W89509  20.672  31.425   2.264
17162W        W89510   4.806  29.029   0.393
17163W        W89511  29.538  20.220  13.952
17164W        W89512  16.076  14.703   0.784
17165W        W89513   3.805  28.554   2.683
17166W        W89514  14.294  35.908   2.731
17167W        W89515  44.274  22.590   4.817
17168W        W89516   3.925  26.959   0.295
17169W        W89517  12.652  14.267  12.500
17170W        W89518  34.024  20.749   4.293
17171W        W89519  16.596  31.558   1.392
17172W        W89520   1.399  39.499   0.272
17173W        W89521   8.343  43.953   1.361
17174W        W89522  31.091  27.117  14.974
17175W        W89523  16.179  23.074  10.448
17176W        W89524  27.607   9.192  13.389
17177W        W89525  38.392  27.045  11.473
17178W        W89526   5.814   1.955   4.740
17179W        W89527  10.741  36.550   1.920
17180W        W89528  11.295  15.153  11.043
17181W        W89529  34.479   6.921  12.382
17182W        W89530  31.573  21.577  10.958
17183W        W89531  39.927  36.994   4.296
17184W        W89532   6.714   0.828   4.206
17185W        W89533  41.814   9.149   1.236
17186W        W89534  21.716  42.411   0.818
17187W        W89535  40.311  14.111   9.982
17188W        W89536  44.438   9.276   0.261
17189W        W89537  19.725  30.929   1.867
17190W        W89538  35.942  34.998  11.474
17191W        W89539  10.265  41.892  12.574
17192W        W89540  24.679  34.063  10.516
17193W        W89541   8.303  22.552  10.088
17194W        W89542  10.251  18.583   0.303
17195W        W89543  35.358  27.650   3.760
17196W        W89544  12.164  37.530  13.337
17197W        W89545  31.624  17.121  13.489
17198W        W89546  13.625  32.575   0.463
17199W        W89547  21.131  39.492  13.011
17200W        W89548  40.410   9.673  10.432
17201W        W89549  31.076  12.794   4.603
17202W        W89550  13.801  31.039   2.701
17203W        W89551  21.183  13.109   0.857
17204W        W89552  43.021  12.808   4.727
17205W        W89553  35.007  33.529   3.772
17206W        W89554  15.158  13.630  14.861
17207W        W89555  37.344  31.640   1.407
17208W        W89556  22.593  39.371  14.360
17209W        W89557   9.681  30.566   1.276
17210W        W89558  30.088   8.253   1.373
17211W        W89559   4.329  20.250   4.332
17212W        W89560  18.784  28.531  11.542
17213W        W89561   1.427  21.634  13.911
17214W        W89562  12.152  30.512   4.131
17215W        W89563  42.998   9.727   4.827
17216W        W89564  24.698  16.798   2.817
17217W        W89565   9.337  24.074   1.429
17218W        W89566  31.422  26.539   4.739
17219W        W89567  38.404  22.676  13.374
17220W        W89568  10.690  37.052   1.318
17221W        W89569  35.973  12.318  11.063
17222W        W89570  17.091  40.345  11.592
17223W        W89571  42.955  21.238  12.874
17224W        W89572  32.106  15.329   4.237
17225W        W89573  31.557  17.745  10.464
17226W        W89574  15.618  25.674   0.948
17227W        W89575  43.966   2.233  14.832
17228W        W89576   8.779  11.258   0.879
17229W        W89577   5.278  13.272  12.422
17230W        W89578   1.830  25.479   2.786
17231W        W89579  14.107  13.131   1.805
17232W        W89580   4.363  28.090   4.133
17233W        W89581   9.880  29.651  11.564
17234W        W89582  28.573  26.483  10.931
17235W        W89583  41.835   7.304  14.473
17236W        W89584   6.721  29.652  12.488
17237W        W89585   4.213  31.115  13.936
17238W        W89586  19.768  24.213   1.909
17239W        W89587  39.418  29.169  11.014
17240W        W89588  16.665  25.498   1.399
17241W        W89589  40.430  39.904   1.735
17242W        W89590  19.593  15.717   4.775
17243W        W89591  22.061  36.462  14.505
17244W        W89592  19.150  16.631   4.819
17245W        W89593  27.941  14.742  11.874
17246W        W89594  27.494  24.057  10.509
17247W        W89595  38.940  16.658  11.984
17248W        W89596  34.943  20.127   1.418
17249W        W89597  21.752  27.045   3.148
17250W        W89598  29.101  28.947  14.771
17251W        W89599  12.816  33.542   3.729
17252W        W89600  15.213  35.047  13.064
17253W        W89601  24.589   3.243   1.792
17254W        W89602  17.071  34.607  10.504
17255W        W89603   1.425  15.584  13.376
17256W        W89604  11.743  21.673  14.402
17257W        W89605   3.286   1.735   3.338
17258W        W89606  26.189  21.110   2.395
17259W        W89607  23.233  20.109  12.071
17260W        W89608  30.434  11.630   0.764
17261W        W89609  35.926  13.160   2.402
17262W        W89610  43.501  25.108   4.675
17263W        W89611  14.191  18.662   0.813
17264W        W89612   5.208  31.439   0.760
17265W        W89613  44.443  26.961   1.738
17266W        W89614  13.835   8.873   0.384
17267W        W89615  12.126  14.180   2.254
17268W        W89616  36.094   6.886  14.494
17269W        W89617  33.106  38.496   4.209
17270W        W89618  11.819  20.711  12.080
17271W        W89619  43.507  44.350  11.596
17272W        W89620  42.485  38.552  10.443
17273W        W89621   0.285  27.975   4.272
17274W        W89622  23.632  18.218   4.139
17275W        W89623  30.076  37.395  14.792
17276W        W89624  23.682  32.141  12.830
17277W        W89625  16.581  33.565   1.216
17278W        W89626  33.963  13.340  11.014
17279W        W89627  24.559  33.408  14.307
17280W        W89628  25.066  30.127  11.540
17281W        W89629  37.531  36.566  14.451
17282W        W89630  23.992  37.077   2.245
17283W        W89631  44.379   6.380  14.430
17284W        W89632  27.964  43.003  10.954
17285W        W89633  12.332  43.883  11.017
17286W        W89634  13.661  29.959   2.787
17287W        W89635  18.571  41.953  10.643
17288W        W89636  19.166   6.357   2.790
17289W        W89637  22.194  28.446  13.453
17290W        W89638  25.980  26.971   3.737
17291W        W89639  25.973   0.479   3.225
17292W        W89640  43.275  38.929  12.887
17293W        W89641   5.879  11.362   1.250
17294W        W89642  12.699   1.886   4.646
17295W        W89643  22.997   8.366  11.394
17296W        W89644   6.702  15.634  14.833
17297W        W89645   6.701  22.045  11.127
17298W        W89646  40.400  27.549   2.408
17299W        W89647   6.739   8.837   0.427
17300W        W89648  21.216  26.006  14.963
17301W        W89649  20.223  25.681  13.440
17302W        W89650  10.196  14.259  13.340
17303W        W89651  30.923   9.655  10.464
17304W        W89652   5.247  40.907   4.785
17305W        W89653   0.772   4.363  13.892
17306W        W89654  21.124  29.982  10.585
17307W        W89655  16.727   5.353  14.438
17308W        W89656   3.724  27.486   4.234
17309W        W89657  26.982  15.697  12.962
17310W        W89658   4.913  25.965  10.081
17311W        W89659  17.674  30.597  13.051
17312W        W89660   4.371  43.843  11.116
17313W        W89661  11.636  18.159  11.982
17314W        W89662  28.996  38.396   3.657
17315W        W89663  44.500  21.257  10.020
17316W        W89664  11.337  25.038  13.864
17317W        W89665  40.988  22.133  14.905
17318W        W89666   8.300   3.745   4.616
17319W        W89667   4.831  30.565   1.360
17320W        W89668   0.270  41.474   4.783
17321W        W89669  30.099  44.331  11.899
17322W        W89670  29.977  42.521   1.430
17323W        W89671  20.090  23.536  11.932
17324W        W89672  42.480  29.073  11.111
17325W        W89673  44.794  10.249  14.341
17326W        W89674  26.625  17.072   4.122
17327W        W89675  34.522  11.799  13.963
17328W        W89676   0.969  44.763  14.516
17329W        W89677  13.618  23.563  12.846
17330W        W89678  33.618  21.120   3.730
17331W        W89679  24.121  18.096   2.256
17332W        W89680   8.887  44.438   3.244
17333W        W89681  10.675  43.906  10.562
17334W        W89682  29.499  33.614  12.958
17335W        W89683  23.573   8.829  13.957
17336W        W89684  26.687  23.716  11.061
17337W        W89685  27.510  14.624   2.784
17338W        W89686  19.582   5.223   0.816
17339W        W89687   3.262  26.026  13.329
17340W        W89688  36.382  31.463  13.526
17341W        W89689  36.089  12.768  10.440
17342W        W89690  28.677  36.537  14.342
17343W        W89691  28.562  10.877   1.346
17344W        W89692  44.817  12.758   3.283
17345W        W89693   2.921   1.354  12.345
17346W        W89694  37.541  23.105   4.633
17347W        W89695  43.333  12.777  12.358
17348W        W89696  39.485  32.113  12.388
17349W        W89697  20.650  18.236  12.448
17350W        W89698  32.018  38.012   2.892
17351W        W89699  44.963   0.858  14.327
17352W        W89700  33.502  20.603   3.178
17353W        W89701  25.629  16.281   3.311
17354W        W89702  40.892  19.256  14.431
17355W        W89703  28.529   2.376  12.445
17356W        W89704  37.355   4.732  12.958
17357W        W89705  42.884  19.155  13.830
17358W        W89706   3.251   3.392   0.958
17359W        W89707  36.993  36.026  12.569
17360W        W89708  15.674  11.300   3.156
17361W        W89709  24.497   4.789  13.039
17362W        W89710  15.108   2.897   4.264
17363W        W89711  30.658  24.712  13.370
17364W        W89712  23.213  33.516  12.550
17365W        W89713  32.025  25.195  14.495
17366W        W89714  44.995  36.955   0.354
17367W        W89715   8.773  44.956  12.443
17368W        W89716  14.629  28.098   3.205
17369W        W89717  17.580  10.696  12.882
17370W        W89718   6.196  31.033   2.244
17371W        W89719  26.962  19.701  12.578
17372W        W89720  27.142  25.123  14.930
17373W        W89721  33.902  18.584  13.854
17374W        W89722  27.117   6.759  14.277
17375W        W89723  16.776   1.315  12.064
17376W        W89724  21.031   0.934   4.175
17377W        W89725  23.504  12.656   3.779
17378W        W89726  22.548   4.240   4.751
17379W        W89727  34.371  41.015  13.830
17380W        W89728  29.591  44.368  10.023
17381W        W89729   2.909  26.553   4.830
17382W        W89730   3.779  20.093  13.489
17383W        W89731  23.122   4.424   3.164
17384W        W89732  37.556   6.199   3.332
17385W        W89733  13.200  31.920  13.863
17386W        W89734   3.747  37.370  10.972
17387W        W89735  18.057  44.388  10.891
17388W        W89736  21.726  22.195   0.838
17389W        W89737  11.754  22.159  12.468
17390W        W89738  26.051  37.885   4.289
17391W        W89739  11.659  44.480  11.373
17392W        W89740  43.829  39.322   1.405
17393W        W89741   3.797  30.420   4.640
17394W        W89742  37.387  41.521  13.825
17395W        W89743  44.265  44.291  13.825
17396W        W89744  27.583  26.208   3.354
17397W        W89745  11.704  35.515  11.520
17398W        W89746  34.916   9.809   2.400
17399W        W89747   0.826  35.521   0.803
17400W        W89748  34.046  38.471  13.533
17401W        W89749   0.250  29.110   1.261
17402W        W89750  27.020  33.507  10.491
17403W        W89751  33.060  12.147  11.480
17404W        W89752  31.014  33.922  12.476
17405W        W89753   9.776  40.881  14.916
17406W        W89754  14.316   8.362  12.897
17407W        W89755   1.466  44.924   1.905
17408W        W89756  16.161   5.288  14.440
17409W        W89757  18.592  13.711  13.532
17410W        W89758  43.797  31.077   1.807
17411W        W89759   4.219  10.364  13.471
17412W        W89760  17.232  39.935   1.932
17413W        W89761  33.055  28.140  12.562
17414W        W89762  15.268  43.440   3.362
17415W        W89763  41.011  17.202  14.777
17416W        W89764  13.329  35.937  14.296
17417W        W89765  28.633  12.125   2.741
17418W        W89766  35.088  38.465   1.908
17419W        W89767   0.842   2.353  12.968
17420W        W89768  33.941  17.181   0.869
17421W        W89769  29.128   1.462  12.959
17422W        W89770  17.638  38.931   1.450
17423W        W89771  11.643  31.573   0.343
17424W        W89772   7.845  29.558  10.464
17425W        W89773  19.543  12.645   1.342
17426W        W89774  33.879   9.240   1.387
17427W        W89775  34.573   9.724  12.927
17428W        W89776  19.048  21.753   2.361
17429W        W89777  32.579  28.093  12.851
17430W        W89778  32.523  35.880  12.907
17431W        W89779  26.035  26.626   3.195
17432W        W89780  30.117  31.134  13.397
17433W        W89781  23.504  17.565   3.338
17434W        W89782  39.383  36.061  14.474
17435W        W89783   0.868  15.612  13.517
17436W        W89784   3.865  24.514  10.987
17437W        W89785  33.946  38.009  10.571
17438W        W89786   8.761  23.004  10.088
17439W        W89787  43.401  28.643   1.781
17440W        W89788   1.421  43.514  11.012
17441W        W89789  14.603  31.984   1.255
17442W        W89790  30.970  31.487  14.807
17443W        W89791  10.815  35.965  10.447
17444W        W89792  15.780   1.790   3.378
17445W        W89793  29.976  43.925   1.825
17446W        W89794  36.486  29.158  10.488
17447W        W89795  23.670  42.917   1.326
17448W        W89796  39.038  15.757   3.730
17449W        W89797  16.112  10.216  11.999
17450W        W89798  19.599  14.178  12.965
17451W        W89799   3.300  29.642   1.728
17452W        W89800   0.482  14.144   1.872
17453W        W89801  21.115   0.365  13.463
17454W        W89802  44.895  20.616   4.290
17455W        W89803  18.782  42.903   4.201
17456W        W89804  38.071  29.572   0.937
17457W        W89805  34.480  23.564   4.836
17458W        W89806  40.457  11.158   1.863
17459W        W89807  17.140  21.693   4.226
17460W        W89808  42.361  13.243  14.375
17461W        W89809  37.882  41.920  10.610
17462W        W89810   2.375  25.158  10.156
17463W        W89811  17.210   6.731   1.263
17464W        W89812  32.023  42.779  12.942
17465W        W89813   1.342  18.638  13.330
17466W        W89814  33.618   2.411   2.709
17467W        W89815  43.966  10.306   4.239
17468W        W89816  21.075  21.188  12.981
17469W        W89817  14.254  12.132   4.334
17470W        W89818  26.172  29.560  13.832
17471W        W89819  10.721  14.782  12.078
17472W        W89820   9.882  16.224   0.871
17473W        W89821  32.580  13.654   1.313
17474W        W89822  20.099  29.588  11.407
17475W        W89823  15.210  44.385   3.759
17476W        W89824  38.387   1.926   3.315
17477W        W89825  23.717  32.414  14.440
17478W        W89826  10.765  34.439   0.372
17479W        W89827   2.838  18.733   3.848
17480W        W89828  38.863  11.785  14.965
17481W        W89829   3.819  43.447  12.864
17482W        W89830  38.373  41.306   4.684
17483W        W89831   5.282  27.119   4.814
17484W        W89832  37.057  11.213   3.682
17485W        W89833  37.852  37.382  12.972
17486W        W89834  23.727  27.532   4.198
17487W        W89835  19.631  20.057  11.403
17488W        W89836  37.887  20.255  10.414
17489W        W89837  29.148   7.333  13.030
17490W        W89838  22.079  37.032  11.014
17491W        W89839  40.516  28.465   3.296
17492W        W89840  23.639  14.198   3.639
17493W        W89841  13.692  35.487   1.248
17494W        W89842  17.605  26.179   0.463
17495W        W89843  39.991  17.642  10.918
17496W        W89844   0.748  24.138   1.834
17497W        W89845  35.466  28.623   1.236
17498W        W89846  15.796  28.535   3.327
17499W        W89847  14.795  19.711  13.800
17500W        W89848  14.244  33.878  12.955
17501W        W89849   5.252  41.817  13.452
17502W        W89850  41.426  16.628   1.282
17503W        W89851  29.939  30.035   3.262
17504W        W89852   0.335  34.429   0.330
17505W        W89853  34.884  24.021  12.544
17506W        W89854   2.842  29.058  11.992
17507W        W89855  22.613  32.968   4.174
17508W        W89856  17.644  21.685  12.434
17509W        W89857  38.069   3.914  14.311
17510W        W89858   7.336  16.236   1.703
17511W        W89859  19.052   4.296   4.679
17512W        W89860   8.769  44.345  13.504
17513W        W89861  39.929  12.199   4.166
17514W        W89862  39.953   4.256   3.796
17515W        W89863   5.791  44.990  11.604
17516W        W89864  36.996  27.688  14.774
17517W        W89865  32.026  26.634  10.455
17518W        W89866   9.272  26.038   4.248
17519W        W89867  18.201  10.191   3.769
17520W        W89868  29.125  29.175   1.767
17521W        W89869   7.172   9.199   0.400
17522W        W89870  34.895   5.865  11.103
17523W        W89871  28.980  44.458   2.884
17524W        W89872  22.055   3.847  14.514
17525W        W89873  15.730   8.305  13.990
17526W        W89874  25.205  31.142  14.010
17527W        W89875   4.214  44.348  14.985
17528W        W89876   8.895  31.506   0.290
17529W        W89877  11.338  21.714  11.434
17530W        W89878   9.880   3.817   1.394
17531W        W89879  27.642  44.940   1.256
17532W        W89880  12.239  21.108   2.290
17533W        W89881  43.506  17.800   4.275
17534W        W89882  40.941  33.614   3.291
17535W        W89883  15.303  34.493  11.071
17536W        W89884  32.483  34.944  12.080
17537W        W89885  34.915  19.655   1.852
17538W        W89886  43.332  18.246   0.380
17539W        W89887   5.791   5.354   3.232
17540W        W89888  13.232  25.995   1.915
17541W        W89889  40.863   7.365   2.407
17542W        W89890   2.810  33.938   4.228
17543W        W89891  36.931   9.781  10.440
17544W        W89892  27.055   9.664  14.443
17545W        W89893  39.011  23.728  13.922
17546W        W89894  16.231  44.332   1.922
17547W        W89895  42.491   0.435   3.161
17548W        W89896  43.007  15.144  12.432
17549W        W89897  24.171  23.154  10.921
17550W        W89898  20.746  40.441  11.435
17551W        W89899  23.672  32.033  13.857
17552W        W89900  40.457  35.895   5.278
17553W        W89901   7.824  44.374  13.427
17554W        W89902  18.650  35.563   4.180
17555W        W89903  42.011  22.133   4.206
17556W        W89904  38.898  25.156   3.865
17557W        W89905  39.331  14.170  12.510
17558W        W89906   0.253  41.968  13.868
17559W        W89907  33.016  29.094  11.971
17560W        W89908  34.978  42.413   4.691
17561W        W89909   2.834  20.244  10.967
17562W        W89910  41.338  18.062  13.982
17563W        W89911   6.919  41.002   1.231
17564W        W89912  17.298  19.285   2.825
17565W        W89913   1.808   1.284   0.371
17566W        W89914   5.836   3.422   4.623
17567W        W89915  13.195  43.969   3.845
17568W        W89916  15.294  40.024   3.312
17569W        W89917  37.405  11.148  10.521
17570W        W89918  24.498  19.765   4.139
17571W        W89919   7.329  26.106   3.354
17572W        W89920  42.325  42.807   0.300
17573W        W89921  41.404  19.222  11.950
17574W        W89922   2.271  44.824   4.171
17575W        W89923  32.585  43.972  13.500
17576W        W89924  28.662   2.876   3.367
17577W        W89925  43.772  13.663  14.871
17578W        W89926  36.504   7.260  12.088
17579W        W89927   8.886  17.080   5.285
17580W        W89928  26.185  13.164   0.858
17581W        W89929   6.907  10.828  10.418
17582W        W89930  27.612  41.014  13.864
17583W        W89931  14.132  22.708  12.960
17584W        W89932  26.468  19.244   2.212
17585W        W89933  15.733  34.480   0.919
17586W        W89934   8.223  24.648  14.431
17587W        W89935  21.524  38.070   4.251
17588W        W89936  31.576  40.045  12.878
17589W        W89937  10.809  28.451  11.532
17590W        W89938   0.777  44.443  14.989
17591W        W89939   6.883   9.695  13.841
17592W        W89940   4.712  21.263   3.683
17593W        W89941  18.142  12.207   1.904
17594W        W89942  15.691  27.634  12.465
17595W        W89943  27.587  34.084  11.600
17596W        W89944  29.475  17.141  10.898
17597W        W89945  30.496  13.183   2.755
17598W        W89946  22.526  11.764  13.508
17599W        W89947  29.120  42.442   2.852
17600W        W89948  19.059  23.103  13.063
17601W        W89949  23.513  35.388   2.415
17602W        W89950  26.048  36.409   4.318
17603W        W89951  35.981  24.219   1.358
17604W        W89952  18.605  43.332  13.500
17605W        W89953  36.424  25.693  12.557
17606W        W89954  25.688  44.351   1.452
17607W        W89955  28.984   5.742  13.448
17608W        W89956  33.450  11.355   0.255
17609W        W89957  14.300  15.820   0.962
17610W        W89958  11.328   9.231  14.805
17611W        W89959  15.779  19.707  10.157
17612W        W89960  28.482  35.460  11.932
17613W        W89961  41.956  11.825  10.583
17614W        W89962  38.820   4.728   4.807
17615W        W89963  20.586   7.415  10.579
17616W        W89964  35.581   1.288   2.688
17617W        W89965  27.950  17.084   2.883
17618W        W89966  12.824  18.621   3.262
17619W        W89967   7.226  16.164   3.720
17620W        W89968  44.844  12.234  12.011
17621W        W89969  24.069   9.309   1.449
17622W        W89970  42.949   0.423  12.942
17623W        W89971  25.564  17.082  13.434
17624W        W89972  43.415  21.050   3.638
17625W        W89973   4.225   9.832   2.318
17626W        W89974   1.430  19.628  10.602
17627W        W89975   5.249  37.335  11.414
17628W        W89976  22.507  44.465  14.937
17629W        W89977  44.303  36.995  13.992
17630W        W89978  40.825  33.400   3.646
17631W        W89979  38.001  20.132   2.371
17632W        W89980  36.993  38.888  11.047
17633W        W89981  30.907  25.647  13.929
17634W        W89982  34.058  30.507   3.358
17635W        W89983   2.769  44.935   4.178
17636W        W89984  33.999  23.564   4.799
17637W        W89985  42.961  27.034   3.163
17638W        W89986  16.204  12.235   0.480
17639W        W89987  24.626  25.582  10.962
17640W        W89988  19.159   1.393  11.452
17641W        W89989  15.094  11.623   4.654
17642W        W89990  35.545   7.724  12.476
17643W        W89991  29.655  36.514   2.822
17644W        W89992  37.560   9.789   1.786
17645W        W89993  41.527   3.793   1.382
17646W        W89994  35.949  23.144   1.893
17647W        W89995  21.222  14.739   0.797
17648W        W89996  30.056  22.043  13.379
17649W        W89997  34.476  36.036   1.713
17650W        W89998  35.044  30.918   0.454
17651W        W89999  39.352   0.320   2.870
17652W        W90000  12.837  25.569  12.565
17653W        W90001  15.776  11.850   1.874
17654W        W90002  26.072  22.543  11.550
17655W        W90003  30.031  32.041   2.762
17656W        W90004  37.969   8.801   0.426
17657W        W90005  36.573  29.548  11.484
17658W        W90006  40.483  14.753   3.860
17659W        W90007  27.668  16.120   2.796
17660W        W90008  37.981   6.249  14.819
17661W        W90009   9.851  12.142  14.506
17662W        W90010  26.647  32.580  12.835
17663W        W90011  14.149  28.116   4.786
17664W        W90012  34.040   7.342  11.984
17665W        W90013  23.119  42.862  13.982
17666W        W90014  25.619  30.557   4.307
17667W        W90015  35.378   1.275  10.615
17668W        W90016   3.841   5.213  12.455
17669W        W90017   1.802   1.882   3.640
17670W        W90018   2.362  41.930   1.387
17671W        W90019  33.424   9.181   3.159
17672W        W90020  24.174   6.212   1.341
17673W        W90021  26.589  41.908  14.820
17674W        W90022  31.128  12.124   2.333
17675W        W90023  12.268  31.442   2.368
17676W        W90024  22.630  35.387  14.346
17677W        W90025  32.546  33.600  10.158
17678W        W90026  32.426  42.830  10.424
17679W        W90027  31.077  31.438   3.782
17680W        W90028  22.067  38.943   2.764
17681W        W90029  24.613  29.505  13.470
17682W        W90030  12.792  39.484   4.759
17683W        W90031   6.363  41.801   1.295
17684W        W90032  28.106  27.514  12.090
17685W        W90033  18.281  15.128  13.955
17686W        W90034   2.466  11.173  14.457
17687W        W90035  24.683  40.041   2.404
17688W        W90036  31.937  19.651   3.779
17689W        W90037  20.260  41.795  14.488
17690W        W90038  26.078   4.893   2.777
17691W        W90039  37.394  16.143  11.926
17692W        W90040  19.600  12.316  13.817
17693W        W90041  42.886   3.445  12.414
17694W        W90042   0.382  44.783   2.818
17695W        W90043  34.400  17.193   4.194
17696W        W90044  26.565  35.101  12.006
17697W        W90045  37.868  11.785  10.910
17698W        W90046  18.694  19.750  13.045
17699W        W90047  38.410  38.528  14.376
17700W        W90048  18.715  43.961   4.219
17701W        W90049  14.177  41.466  10.037
17702W        W90050   8.184  40.353   1.705
17703W        W90051  38.420  31.004   4.267
17704W        W90052  29.479  25.483  10.470
17705W        W90053  14.138   2.426  12.931
17706W        W90054   1.800  28.623  12.495
17707W        W90055  44.287   2.418  14.918
17708W        W90056  34.395   2.825   1.777
17709W        W90057  20.566  15.662  14.848
17710W        W90058  16.106  16.595  11.872
17711W        W90059   1.273  36.421  11.591
17712W        W90060  15.813  25.668   2.792
17713W        W90061  25.034  18.228   2.759
17714W        W90062  35.909   8.828   2.285
17715W        W90063  41.429   4.893   3.724
17716W        W90064  12.193   3.866   4.721
17717W        W90065  21.645  18.735  11.885
17718W        W90066  21.647  12.771  10.556
17719W        W90067  24.585  28.494   0.754
17720W        W90068  44.415  23.691  10.410
17721W        W90069  34.427  38.539   1.345
17722W        W90070  35.019  31.585  12.959
17723W        W90071  33.943  27.471  13.501
17724W        W90072  17.287   4.423   1.287
17725W        W90073  20.235  34.901  12.389
17726W        W90074  41.998  23.077  12.527
17727W        W90075  32.911  41.447  10.966
17728W        W90076  25.679  38.980   0.739
17729W        W90077  30.496  31.147  12.043
17730W        W90078   5.713  42.517  11.432
17731W        W90079  19.726  16.737  13.359
17732W        W90080  41.812  40.920   1.925
17733W        W90081  36.918  29.139  10.409
17734W        W90082   8.792  19.600   2.672
17735W        W90083  31.055  31.921   4.196
17736W        W90084  34.921  44.393   2.288
17737W        W90085   9.364  25.553  10.939
17738W        W90086  33.051   3.716  13.394
17739W        W90087  23.042   4.417   4.634
17740W        W90088   1.319  36.075  13.417
17741W        W90089  24.036  24.672   1.881
17742W        W90090  42.990  20.036  12.989
17743W        W90091  29.648   1.756  11.603
17744W        W90092   3.261  33.949  11.589
17745W        W90093  37.489  44.263   3.637
17746W        W90094   6.802  27.174  11.028
17747W        W90095   5.691  18.283   0.741
17748W        W90096  32.472  22.633  11.576
17749W        W90097  29.932   3.808   0.462
17750W        W90098  42.299  15.665   1.866
17751W        W90099  42.405   8.896   0.417
17752W        W90100  10.723   3.762   0.893
17753W        W90101  25.005  25.045  13.503
17754W        W90102  40.885  39.331   4.251
17755W        W90103   6.261  34.376  10.945
17756W        W90104  24.195   4.795   0.376
17757W        W90105  10.268   6.694  12.433
17758W        W90106  39.326  16.721  14.836
17759W        W90107  15.737   4.401  10.111
17760W        W90108  19.686  25.612   5.313
17761W        W90109  18.629  11.623  12.937
17762W        W90110  11.830  22.185  11.048
17763W        W90111  12.260  18.153  11.484
17764W        W90112  42.406  24.687  11.023
17765W        W90113  36.039  22.238  12.984
17766W        W90114  28.513  40.860   0.933
17767W        W90115  19.265   2.805   4.600
17768W        W90116   7.379  21.731  10.035
17769W        W90117  20.192  11.791  10.903
17770W        W90118  42.028  14.772  14.872
17771W        W90119  39.825  34.585  12.085
17772W        W90120  37.903  15.704  14.999
17773W        W90121  38.547   4.387  13.049
17774W        W90122  30.469  34.566   1.853
17775W        W90123   3.250   3.891  11.390
17776W        W90124   9.382  42.954   3.798
17777W        W90125  32.433  13.756   2.697
17778W        W90126  44.485  43.512   0.417
17779W        W90127   5.424  34.905   2.785
17780W        W90128   0.761   1.257   1.889
17781W        W90129  43.887  18.734   1.395
17782W        W90130  36.021  37.538   1.447
17783W        W90131  21.197   7.173  11.549
17784W        W90132  13.821  36.017  11.092
17785W        W90133  30.509  17.264   4.297
17786W        W90134  43.298   3.439  11.591
17787W        W90135  34.463  32.079  13.000
17788W        W90136   2.869  25.996   0.354
17789W        W90137  24.976  41.380  13.416
17790W        W90138   9.774   9.765  11.372
17791W        W90139  33.624   6.837   5.108
17792W        W90140   3.854   7.223   0.856
17793W        W90141  42.925  12.845  12.537
17794W        W90142  23.501  44.320   3.351
17795W        W90143  31.568  19.569   1.345
17796W        W90144   8.295  29.151  14.370
17797W        W90145  39.513   9.386   4.332
17798W        W90146  36.086  16.755   2.666
17799W        W90147  40.888   5.439   3.342
17800W        W90148  31.089  33.421  12.430
17801W        W90149  12.664  12.790   1.218
17802W        W90150  15.086  29.516  12.841
17803W        W90151  41.465  19.253  10.923
17804W        W90152  15.655  16.627  12.471
17805W        W90153   2.723   6.325  12.517
17806W        W90154  11.363  43.999   0.346
17807W        W90155   5.384  39.994  14.850
17808W        W90156   0.401  12.801  10.611
17809W        W90157  21.545   0.764   0.870
17810W        W90158   8.231  34.999   2.875
17811W        W90159  38.853  43.883   4.148
17812W        W90160  21.697  35.585  12.084
17813W        W90161   2.958  35.554  11.531
17814W        W90162  17.601   4.327  14.436
17815W        W90163  17.124  37.946   1.809
17816W        W90164  39.928  37.515   0.852
17817W        W90165  32.606   8.198   1.737
17818W        W90166  15.260   2.422   3.851
17819W        W90167  24.168  34.461  11.939
17820W        W90168  33.875  25.043  14.845
17821W        W90169   4.771  30.018  12.535
17822W        W90170   7.171  14.161  14.419
17823W        W90171  31.474  40.458  11.422
17824W        W90172  35.877  30.421  13.447
17825W        W90173  24.029  38.342  12.029
17826W        W90174  31.931  41.974   0.845
17827W        W90175  41.481  31.965  13.794
17828W        W90176   2.393   5.340  12.509
17829W        W90177  41.916  27.650  13.419
17830W        W90178  17.662  44.428   0.931
17831W        W90179  29.633   5.383  10.527
17832W        W90180  22.188  15.166   0.297
17833W        W90181  40.511  15.581  13.881
17834W        W90182  31.581  34.109   3.255
17835W        W90183  28.141  41.433  14.325
17836W        W90184  25.645  11.835   2.670
17837W        W90185  36.499  34.549   1.269
17838W        W90186  23.181  14.687  11.612
17839W        W90187  20.604  40.022   2.225
17840W        W90188  24.044  33.024   1.329
17841W        W90189  30.614  10.204  14.965
17842W        W90190  30.076  33.572  11.957
17843W        W90191   1.860  19.534   3.330
17844W        W90192  19.150  43.978   1.411
17845W        W90193  30.117  29.586  11.434
17846W        W90194   2.845  39.956   0.784
17847W        W90195  12.256   6.727  11.109
17848W        W90196  30.016   7.246   0.837
17849W        W90197  40.478  37.873   3.739
17850W        W90198  28.072  23.020  10.457
17851W        W90199  15.147  39.394   4.758
17852W        W90200  31.947  18.712  10.627
17853W        W90201  14.287   6.793   4.835
17854W        W90202   4.407  26.108  11.519
17855W        W90203  12.236   3.711  11.098
17856W        W90204  39.352  15.727   4.130
17857W        W90205   4.799   6.758   2.688
17858W        W90206  34.111  29.562   1.767
17859W        W90207  13.700  43.432  10.468
17860W        W90208   0.351  44.993  14.830
17861W        W90209  42.928  15.606   2.359
17862W        W90210  20.200  27.036  11.055
17863W        W90211  19.671  16.712   2.738
17864W        W90212  29.479  26.062  11.593
17865W        W90213  28.970  33.384   3.789
17866W        W90214  21.528  40.391  13.336
17867W        W90215  21.574   3.219   4.782
17868W        W90216  12.286  11.219  14.780
17869W        W90217  31.984  34.117   9.944
17870W        W90218  22.678  24.718   0.339
17871W        W90219  35.896   7.757   2.900
17872W        W90220  29.930  19.070  14.878
17873W        W90221  29.150  39.336  11.454
17874W        W90222  15.247   5.392   4.139
17875W        W90223  39.323   3.240   1.217
17876W        W90224   5.793  18.147   1.294
17877W        W90225  25.979   7.221  13.045
17878W        W90226  34.947  23.209   4.679
17879W        W90227  39.338  41.002  12.571
17880W        W90228   0.767  40.835  12.985
17881W        W90229  10.178  44.387   0.753
17882W        W90230  27.617  35.541  11.108
17883W        W90231   7.879  40.503  14.940
17884W        W90232  15.128  36.366   1.777
17885W        W90233   9.813  14.647   2.294
17886W        W90234  32.096  39.442  12.948
17887W        W90235  34.903  23.572  13.525
17888W        W90236  10.718  31.070  12.480
17889W        W90237  35.930  36.368   4.300
17890W        W90238  29.963   6.217  13.397
17891W        W90239  20.123  42.428   4.328
17892W        W90240  25.691  36.005   0.843
17893W        W90241  36.377   8.704  14.943
17894W        W90242  26.027   4.341  11.006
17895W        W90243  32.069   9.801   2.358
17896W        W90244  37.552  34.423   4.652
17897W        W90245  12.331   4.406  11.486
17898W        W90246  42.916  17.092   5.298
17899W        W90247  29.981  18.768   1.699
17900W        W90248  30.132  17.182   3.730
17901W        W90249  11.232  26.500   3.825
17902W        W90250  39.470  22.608  11.009
17903W        W90251   9.788  11.858  10.606
17904W        W90252   1.872  31.965   4.650
17905W        W90253  17.210  34.052   2.677
17906W        W90254  39.825  22.043   4.263
17907W        W90255   5.872  37.491   4.641
17908W        W90256  16.692  43.450   3.375
17909W        W90257  39.905  19.088   3.262
17910W        W90258  12.807  16.659   1.867
17911W        W90259  13.643  39.874   0.273
17912W        W90260   7.414   9.660  11.524
17913W        W90261  31.959  40.464  11.086
17914W        W90262  30.635  33.487   2.347
17915W        W90263  39.967  18.632  11.514
17916W        W90264  32.933  17.781   1.716
17917W        W90265  13.628  40.836   3.264
17918W        W90266   3.882   3.782  10.631
17919W        W90267  24.091  42.943   0.424
17920W        W90268  29.093  31.993   4.775
17921W        W90269  31.914  24.221  12.031
17922W        W90270  16.701  14.211   2.835
17923W        W90271  30.978  42.427   0.325
17924W        W90272   0.475  31.500  11.470
17925W        W90273  42.390  14.736  13.385
17926W        W90274   0.877   8.272  10.408
17927W        W90275  40.968  29.472   4.830
17928W        W90276  13.106  36.590   4.262
17929W        W90277  39.898   3.239  12.994
17930W        W90278  17.096  35.898   1.885
17931W        W90279  25.993   4.251   1.695
17932W        W90280  16.674  25.514   1.890
17933W        W90281  28.476   2.445  14.349
17934W        W90282  44.420   6.194   2.235
17935W        W90283   3.414  23.533   1.333
17936W        W90284  22.220  34.042   1.829
17937W        W90285  18.658  12.799  11.000
17938W        W90286  10.256  23.643   4.176
17939W        W90287  30.465  35.506   0.301
17940W        W90288  35.434  44.291   2.278
17941W        W90289  31.021  34.566   1.915
17942W        W90290  16.802  14.296   3.688
17943W        W90291  36.356  31.537   3.764
17944W        W90292   1.380   4.898   3.298
17945W        W90293  36.431  39.893   4.729
17946W        W90294   7.276   5.848  13.496
17947W        W90295  25.197  39.060  13.876
17948W        W90296   3.781  27.487  11.970
17949W        W90297  19.142  35.497   1.434
17950W        W90298  44.415  20.102   4.672
17951W        W90299  16.606  15.771   3.165
17952W        W90300  12.355  19.736   2.665
17953W        W90301  43.356  23.509  14.453
17954W        W90302  22.182  35.577  12.411
17955W        W90303  31.088  24.628  12.051
17956W        W90304  40.521  21.262  10.560
17957W        W90305  28.159  18.127   2.815
17958W        W90306  30.080   7.190   0.471
17959W        W90307  22.168   0.778   0.733
17960W        W90308  37.418  20.741  13.401
17961W        W90309  23.080  34.515  11.401
17962W        W90310  10.249  19.073   2.304
17963W        W90311   7.257  36.574   3.740
17964W        W90312  21.652   1.477  13.979
17965W        W90313  36.383  34.878  11.563
17966W        W90314   9.877  25.137   1.279
17967W        W90315  30.966  28.946   1.405
17968W        W90316   1.806  27.485  13.877
17969W        W90317  35.476   6.199  12.352
17970W        W90318  28.629  37.480  14.364
17971W        W90319  18.670  26.134   2.347
17972W        W90320   0.338  10.756   3.325
17973W        W90321   7.791  16.624  14.799
17974W        W90322  31.554  38.393   0.438
17975W        W90323   8.230  13.671  13.806
17976W        W90324  12.714  43.865   3.720
17977W        W90325   0.265  12.196   4.242
17978W        W90326  40.476  17.764  12.844
17979W        W90327  18.768   4.277  10.454
17980W        W90328  15.124  27.569   2.361
17981W        W90329  18.648  15.213  12.000
17982W        W90330  21.018  25.619  13.496
17983W        W90331  23.085  17.783  12.493
17984W        W90332  32.943  22.581  14.919
17985W        W90333  29.157  11.313   2.868
17986W        W90334  14.137  40.514   3.838
17987W        W90335  33.968   1.329  11.480
17988W        W90336  34.950  10.719  10.500
17989W        W90337  21.144  17.129   0.847
17990W        W90338   2.449  12.141   1.804
17991W        W90339  16.645  21.162   4.824
17992W        W90340  18.706  11.761  10.036
17993W        W90341  12.644  41.395   1.784
17994W        W90342  25.586  25.183  10.603
17995W        W90343  36.035  22.569   1.402
17996W        W90344  12.730  18.607  12.397
17997W        W90345  26.484  43.939   3.672
17998W        W90346   1.291  25.506   2.384
17999W        W90347  17.238  40.475   3.254
18000W        W90348   6.899   1.282   2.806
18001W        W90349  14.830  12.842  13.912
18002W        W90350  14.157  12.719   5.188
18003W        W90351  11.730  16.743   1.904
18004W        W90352   9.709  41.835   4.331
18005W        W90353  13.282  40.913   2.414
18006W        W90354  33.058  24.631   0.388
18007W        W90355  19.240  21.650  14.807
18008W        W90356   6.427  26.186  13.332
18009W        W90357  35.013   6.756  13.467
18010W        W90358  13.227  12.672   2.248
18011W        W90359  35.571  21.200   3.221
18012W        W90360  28.546  23.105   1.331
18013W        W90361  13.335  15.297  13.467
18014W        W90362  25.574  38.412  11.532
18015W        W90363  42.780  27.681   3.797
18016W        W90364  19.231   1.390   2.366
18017W        W90365  16.077  40.404  14.909
18018W        W90366   6.242  13.265  11.449
18019W        W90367  14.612  32.516  13.347
18020W        W90368   5.779   7.229  11.998
18021W        W90369  29.110  23.538  14.969
18022W        W90370  24.672  40.800   0.960
18023W        W90371  40.046  33.538  13.917
18024W        W90372  42.809  11.730   3.256
18025W        W90373   5.246  14.747   1.925
18026W        W90374  15.623  44.287  14.396
18027W        W90375  38.883  16.711  13.478
18028W        W90376  30.123   2.322  10.446
18029W        W90377  34.111  44.873  10.641
18030W        W90378  23.167  24.681   4.763
18031W        W90379  19.238  34.103   2.783
18032W        W90380  30.657  22.023   3.207
18033W        W90381  36.399   1.813   4.669
18034W        W90382   6.722  28.057   1.303
18035W        W90383  11.142  28.462   3.194
18036W        W90384   6.696  13.171  13.546
18037W        W90385   2.370  18.203   4.282
18038W        W90386  16.083  19.283  11.077
18039W        W90387  43.352   7.174  11.034
18040W        W90388  10.692   6.400  11.892
18041W        W90389  18.677  37.037  13.871
18042W        W90390   8.188  37.478  11.128
18043W        W90391   7.730   4.376  10.915
18044W        W90392   4.250  15.695   0.820
18045W        W90393  39.976  11.219  14.305
18046W        W90394  25.213   6.709   4.260
18047W        W90395  42.943  43.922   1.258
18048W        W90396  40.336  27.968   0.307
18049W        W90397  42.854  25.671  14.423
18050W        W90398  14.137  36.527  14.362
18051W        W90399  12.643  33.942  10.958
18052W        W90400  39.929  27.023  11.904
18053W        W90401  11.364  28.038  14.902
18054W        W90402  39.813  26.957  11.460
18055W        W90403  28.160  44.269  14.289
18056W        W90404  14.186  14.236   0.409
18057W        W90405  34.448   3.230  13.460
18058W        W90406   1.790  44.305  14.291
18059W        W90407   1.314  22.563  12.518
18060W        W90408  14.269  11.341  11.036
18061W        W90409   2.843  13.125  14.822
18062W        W90410   4.712  20.752  14.469
18063W        W90411  17.612  11.250  12.969
18064W        W90412  30.920   1.751  11.011
18065W        W90413  28.103  24.124   2.238
18066W        W90414  35.526  44.841  13.004
18067W        W90415  19.762   5.312   2.823
18068W        W90416  36.024  33.937  10.558
18069W        W90417  31.408  39.467   0.457
18070W        W90418  37.842  34.369   4.180
18071W        W90419   4.281  41.430  14.799
18072W        W90420  40.976  44.883  10.946
18073W        W90421  17.705  31.043   5.639
18074W        W90422  34.917  36.531  10.004
18075W        W90423  33.545  17.564   3.821
18076W        W90424   4.248   3.780   2.243
18077W        W90425  21.149  27.064  10.953
18078W        W90426  37.909  44.361  13.485
18079W        W90427   6.411  41.364  11.397
18080W        W90428  33.536   2.380   4.701
18081W        W90429  21.578  15.678  13.349
18082W        W90430  12.251   4.753  13.543
18083W        W90431  40.469  25.472  10.532
18084W        W90432  42.999  10.774  12.836
18085W        W90433  20.692  20.728   1.351
18086W        W90434  22.525  27.069   0.483
18087W        W90435  12.693  21.661   2.760
18088W        W90436  25.133  15.742  10.524
18089W        W90437  35.573   7.884   2.750
18090W        W90438   8.304  16.744  12.087
18091W        W90439  28.127   8.824  12.089
18092W        W90440  20.679  27.030   0.809
18093W        W90441   4.241  27.159   1.217
18094W        W90442  41.410  20.694   4.270
18095W        W90443  34.523   2.765  14.481
18096W        W90444   2.819  12.809   4.644
18097W        W90445  33.979  20.546  12.956
18098W        W90446  15.648  11.163   1.867
18099W        W90447  12.831  18.259  11.885
18100W        W90448  26.549  24.197   1.414
18101W        W90449   9.279  44.487  11.574
18102W        W90450  38.930  25.213  14.451
18103W        W90451  24.093  33.534  12.358
18104W        W90452  33.049   4.788   1.375
18105W        W90453   6.851  14.126  12.831
18106W        W90454  29.513  37.925  11.957
18107W        W90455  20.536  23.217   3.786
18108W        W90456  21.216  26.206   3.317
18109W        W90457  34.104  30.109   4.659
18110W        W90458   2.766  42.449  11.856
18111W        W90459  35.465  22.155  14.824
18112W        W90460  11.748  40.962  12.962
18113W        W90461  41.943   3.833   1.754
18114W        W90462  37.984  42.389   0.388
18115W        W90463   2.417  42.798   4.725
18116W        W90464   4.285  23.628  13.365
18117W        W90465  28.125  14.799   2.332
18118W        W90466  26.956  25.679   4.159
18119W        W90467  19.082  35.974  13.829
18120W        W90468  36.860  36.484   3.791
18121W        W90469  13.165  16.119   1.279
18122W        W90470   6.920  10.806   1.695
18123W        W90471  41.428  26.195  14.881
18124W        W90472  30.454  44.377   4.163
18125W        W90473  15.256  23.637  13.042
18126W        W90474  17.740   1.797   3.632
18127W        W90475   9.693   2.451   1.415
18128W        W90476  19.578  21.612  12.401
18129W        W90477  30.553  15.641   4.658
18130W        W90478  24.070  25.129   2.791
18131W        W90479  38.432  10.766  11.373
18132W        W90480  28.586  22.082  11.600
18133W        W90481  42.526   3.253  13.805
18134W        W90482   8.829  19.771   1.848
18135W        W90483  20.197  29.963   0.472
18136W        W90484  15.135  32.018  12.366
18137W        W90485  24.107  19.072  14.802
18138W        W90486  26.017  41.900  10.622
18139W        W90487   2.472  32.398   0.875
18140W        W90488  39.046   3.382   1.888
18141W        W90489  41.385  16.175  13.495
18142W        W90490  35.415   0.407   1.803
18143W        W90491   9.163  30.067  10.506
18144W        W90492  28.126  23.495  11.923
18145W        W90493  16.190  17.590  10.523
18146W        W90494  11.311   7.269   1.873
18147W        W90495  30.045  29.662   0.316
18148W        W90496   7.882  31.463  14.342
18149W        W90497  23.207  35.475   1.917
18150W        W90498  25.683  42.513  11.882
18151W        W90499  15.726   4.224  14.759
18152W        W90500  32.991  12.162  12.957
18153W        W90501  41.009  20.704  12.493
18154W        W90502  34.941  25.059   0.929
18155W        W90503  25.635  23.065   0.250
18156W        W90504  20.162  17.280  14.367
18157W        W90505   7.681   7.780  11.527
18158W        W90506  43.433  22.624   1.415
18159W        W90507   9.869   1.275   1.933
18160W        W90508   6.424  26.531   3.739
18161W        W90509  12.733  30.597   2.833
18162W        W90510  41.952  27.465  14.512
18163W        W90511  43.846   9.817   2.790
18164W        W90512   5.301   7.213  14.417
18165W        W90513   0.402  42.382   2.693
18166W        W90514  22.526  40.526  10.508
18167W        W90515  35.034  36.470   1.298
18168W        W90516  22.010  10.178   1.358
18169W        W90517   7.279  19.729   1.836
18170W        W90518  40.442  33.096   2.786
18171W        W90519  27.555  42.383  10.631
18172W        W90520   3.268  35.450   2.750
18173W        W90521   9.388  30.518   2.236
18174W        W90522  13.349  19.752  12.993
18175W        W90523  36.049  10.694  12.433
18176W        W90524   5.427  15.140  12.370
18177W        W90525  40.376  38.057  13.441
18178W        W90526  25.102   8.688  14.835
18179W        W90527   1.966  14.778  10.523
18180W        W90528  34.451  21.173  13.922
18181W        W90529   2.378   3.413  14.806
18182W        W90530   8.269  32.548  13.931
18183W        W90531  44.301  18.235  10.570
18184W        W90532  17.091   3.449  11.435
18185W        W90533  38.836  28.053  10.972
18186W        W90534   1.817   9.173  14.296
18187W        W90535   8.837  37.570  13.882
18188W        W90536  36.359  41.801   1.884
18189W        W90537  35.962  42.931  13.483
18190W        W90538   9.831  33.013   4.148
18191W        W90539   9.662   1.361   3.243
18192W        W90540  42.310  10.266  11.454
18193W        W90541  39.901  18.641  12.887
18194W        W90542  30.965  26.108   2.376
18195W        W90543   2.261  43.373  11.119
18196W        W90544  33.576  39.453   3.332
18197W        W90545   2.914  37.843   3.685
18198W        W90546  41.364   5.379   3.743
18199W        W90547  40.452  44.408   1.343
18200W        W90548  21.054  12.753  11.096
18201W        W90549  32.477  42.825   5.093
18202W        W90550  35.082   1.355  12.968
18203W        W90551   3.734  28.635  11.095
18204W        W90552  33.959  11.798   0.805
18205W        W90553   6.793  16.257   1.219
18206W        W90554   1.740   1.903  12.534
18207W        W90555  33.114  35.884   2.234
18208W        W90556   0.489  16.682   2.666
18209W        W90557  44.324  23.020  11.500
18210W        W90558  22.097  21.069  12.410
18211W        W90559  17.596  23.544   2.842
18212W        W90560  19.767  29.948   4.187
18213W        W90561   4.728   8.203   3.703
18214W        W90562   9.649  25.119   1.701
18215W        W90563   6.284  29.492   4.288
18216W        W90564  13.261  34.564   3.675
18217W        W90565  11.281  13.203   4.747
18218W        W90566  43.979  38.371   2.263
18219W        W90567  29.924  20.208  12.559
18220W        W90568  34.409  21.243   5.574
18221W        W90569  23.644  11.180  14.810
18222W        W90570   6.262   5.251  11.932
18223W        W90571  42.334  17.694   2.291
18224W        W90572   3.835  44.441   3.856
18225W        W90573   1.868   2.292   0.282
18226W        W90574  34.888   6.868  14.426
18227W        W90575  16.175  43.801   0.739
18228W        W90576   1.788  26.615   1.741
18229W        W90577  32.063  29.080   1.843
18230W        W90578  20.186  14.337   5.192
18231W        W90579  13.839  23.092  14.846
18232W        W90580   6.252  39.542  14.411
18233W        W90581  16.264  22.690   2.243
18234W        W90582  21.177  42.798  14.789
18235W        W90583  35.922  44.410   3.179
18236W        W90584  38.525  44.975   0.864
18237W        W90585   8.404  33.103   1.428
18238W        W90586  15.237  35.431   3.304
18239W        W90587  15.697   7.725  14.927
18240W        W90588  21.116   5.704   3.290
18241W        W90589  35.531  40.828  12.458
18242W        W90590  23.015  16.174   3.769
18243W        W90591  21.539   2.391   1.328
18244W        W90592  30.514   0.465  12.410
18245W        W90593   4.255   4.856  13.834
18246W        W90594   4.942  41.487  10.533
18247W        W90595  21.215  40.807  13.504
18248W        W90596  37.892  31.953   4.682
18249W        W90597  39.495  13.264  13.842
18250W        W90598  27.173  11.787  13.946
18251W        W90599   8.319   6.708  13.522
18252W        W90600   4.743  11.690   4.296
18253W        W90601  26.193  12.338   4.826
18254W        W90602  14.311  15.606  13.854
18255W        W90603  40.496  34.119   1.388
18256W        W90604  25.538   9.739  13.029
18257W        W90605   2.298   3.292   1.796
18258W        W90606  16.594   1.431   1.247
18259W        W90607  44.278  38.932  13.885
18260W        W90608  20.663  44.350  12.890
18261W        W90609   2.902  40.995   1.284
18262W        W90610  43.482  11.689  14.358
18263W        W90611  38.337  38.390  14.784
18264W        W90612  15.240  18.262   0.268
18265W        W90613  33.075  20.186   0.845
18266W        W90614  36.387  33.620   5.178
18267W        W90615  22.200   3.774   4.201
18268W        W90616  10.705  37.965   0.831
18269W        W90617  39.414  38.513   3.277
18270W        W90618  29.531  38.346  13.432
18271W        W90619   2.761  17.149  12.574
18272W        W90620  41.370  44.980  13.992
18273W        W90621  24.531  33.931   0.443
18274W        W90622  19.044  37.349   4.828
18275W        W90623  19.091  29.050   5.199
18276W        W90624  17.126   0.388  11.876
18277W        W90625  32.451   0.888   0.879
18278W        W90626  39.368  39.472  13.961
18279W        W90627  36.529  13.159  13.870
18280W        W90628  40.511  31.075   0.246
18281W        W90629  19.735   8.291  14.336
18282W        W90630  19.737  17.292  14.465
18283W        W90631  15.202   1.298  14.460
18284W        W90632  24.583   9.232   1.838
18285W        W90633  26.599   2.426  11.459
18286W        W90634  30.440  20.211   3.676
18287W        W90635   2.453  19.630  10.038
18288W        W90636  17.776  40.050   2.700
18289W        W90637   2.936  42.021   1.883
18290W        W90638  11.632  28.566   1.231
18291W        W90639  10.785  20.597  13.062
18292W        W90640  36.585  43.993   0.354
18293W        W90641  22.074  23.646   4.646
18294W        W90642  41.346  43.955   1.767
18295W        W90643   4.725  32.999   1.406
18296W        W90644  10.236  25.997   4.742
18297W        W90645  26.086  41.418   1.839
18298W        W90646  27.974  12.612  10.925
18299W        W90647  38.047   5.847   0.264
18300W        W90648  15.656   6.919   0.859
18301W        W90649  14.205  12.736  13.051
18302W        W90650  30.033  27.135   3.330
18303W        W90651  44.279  19.740  14.844
18304W        W90652   8.232  25.669  10.575
18305W        W90653  30.147  12.711   4.144
18306W        W90654  28.946  31.928   4.128
18307W        W90655   2.947  11.322   3.651
18308W        W90656  23.223  17.118   3.777
18309W        W90657  11.668  44.877  12.011
18310W        W90658  14.180   6.733  13.040
18311W        W90659  13.787  12.289  12.881
18312W        W90660  35.964   1.465  13.055
18313W        W90661  31.543  41.973   3.788
18314W        W90662  42.480   0.458  13.498
18315W        W90663  37.364  41.486  12.087
18316W        W90664  44.934  32.580  10.638
18317W        W90665  30.616  18.769   4.277
18318W        W90666  25.556  16.754  11.465
18319W        W90667  17.628  26.054   2.337
18320W        W90668  29.014   4.439  13.459
18321W        W90669   3.375  14.797   3.764
18322W        W90670  31.022   6.321  14.875
18323W        W90671  36.514  10.213  14.025
18324W        W90672  41.320  41.441  10.908
18325W        W90673  31.631  24.600   4.753
18326W        W90674  32.100   7.885   3.256
18327W        W90675   2.959  44.497   0.941
18328W        W90676  26.071  10.252  11.957
18329W        W90677  20.131  19.098  12.395
18330W        W90678  20.163   7.347  12.907
18331W        W90679  17.122  20.155   4.691
18332W        W90680  39.558   3.841  11.956
18333W        W90681  29.174  12.122  12.882
18334W        W90682   6.355   2.260  14.015
18335W        W90683  44.982  13.753  14.012
18336W        W90684  38.443  32.506   2.412
18337W        W90685   2.844  43.904   4.749
18338W        W90686  34.402  13.128   2.357
18339W        W90687  12.340  14.706  11.402
18340W        W90688  26.475  34.543   1.381
18341W        W90689  18.702  38.458   0.376
18342W        W90690   4.255  39.935   2.365
18343W        W90691  11.257  21.527   5.711
18344W        W90692  35.559  14.146  10.567
18345W        W90693  41.914  16.794  12.570
18346W        W90694  35.545  10.310   4.623
18347W        W90695  35.958  19.218   0.877
18348W        W90696  34.042   5.719  10.920
18349W        W90697   0.774  37.553   3.849
18350W        W90698  10.340  41.342  13.548
18351W        W90699   2.779  14.710  12.013
18352W        W90700  21.216   7.677  11.569
18353W        W90701  37.844  34.066   2.690
18354W        W90702  31.541  41.001   4.827
18355W        W90703  38.065  20.590  10.577
18356W        W90704   5.800   0.402  14.894
18357W        W90705  32.136   1.457  11.524
18358W        W90706  37.021  41.792  14.962
18359W        W90707   0.840  14.314   5.152
18360W        W90708  20.653  11.186  11.875
18361W        W90709   1.271   0.270   4.656
18362W        W90710  42.359   8.197  12.911
18363W        W90711  18.161  35.862   3.754
18364W        W90712  29.613  18.094   9.999
18365W        W90713  17.698  30.036   3.281
18366W        W90714   0.384   7.789  13.908
18367W        W90715  35.968  37.571   2.333
18368W        W90716  44.421   3.730  13.971
18369W        W90717   6.264  25.676  13.866
18370W        W90718  37.412   9.701  10.999
18371W        W90719  44.847  11.854  13.390
18372W        W90720  27.087  34.986   3.318
18373W        W90721   5.406  35.868   4.715
18374W        W90722   3.459   4.277   2.845
18375W        W90723  33.475  13.642  10.404
18376W        W90724  36.970  24.182   4.254
18377W        W90725  14.095  14.153   2.378
18378W        W90726   4.302  21.123   1.346
18379W        W90727  36.894   6.346  13.848
18380W        W90728  24.162  30.525  12.007
18381W        W90729  28.607  42.937  12.993
18382W        W90730  23.117   7.218   2.388
18383W        W90731  30.471  44.492  14.908
18384W        W90732   6.768  10.692  11.479
18385W        W90733  11.247  34.876   2.757
18386W        W90734  11.234  34.078  11.042
18387W        W90735  19.279  41.396   4.617
18388W        W90736  30.486   4.824   1.391
18389W        W90737   7.684  17.694  12.844
18390W        W90738  33.515  31.942   0.939
18391W        W90739  21.685   5.919  12.523
18392W        W90740  27.186   8.290   1.265
18393W        W90741  25.182   9.833   3.364
18394W        W90742   1.248  19.277   0.868
18395W        W90743  33.107   9.718  13.358
18396W        W90744   4.245  21.101  11.554
18397W        W90745  31.088   0.875  13.039
18398W        W90746  31.536   9.296   2.829
18399W        W90747   7.326  31.563   4.303
18400W        W90748  34.418  37.535   0.822
18401W        W90749  19.719  20.767  12.358
18402W        W90750   3.820  12.699   4.288
18403W        W90751  24.598  38.470  12.343
18404W        W90752   9.832  44.779  14.488
18405W        W90753  41.484  23.152   0.896
18406W        W90754  32.948  20.755   1.920
18407W        W90755  33.066  42.789  14.781
18408W        W90756  13.347   2.787   0.288
18409W        W90757  34.605  25.054  13.542
18410W        W90758  42.398  19.211   1.933
18411W        W90759   4.313  17.668   0.373
18412W        W90760  24.711  27.115  10.498
18413W        W90761  43.998  20.696  14.842
18414W        W90762  20.190  19.279  11.578
18415W        W90763  18.237  21.068  14.011
18416W        W90764   9.830  26.103   4.251
18417W        W90765  33.004  25.157  10.442
18418W        W90766  37.988  23.155  13.429
18419W        W90767  10.768  10.200   1.294
18420W        W90768  29.577  30.522   1.738
18421W        W90769  12.630  36.555   1.355
18422W        W90770   4.829   3.373  11.486
18423W        W90771  37.386  10.145   3.693
18424W        W90772   6.786  14.775  12.935
18425W        W90773   9.217  31.562   4.128
18426W        W90774   9.296  22.139  12.845
18427W        W90775   2.877  17.104  13.940
18428W        W90776  41.335   3.773  14.859
18429W        W90777  39.829  43.479  11.553
18430W        W90778  13.674  27.078  14.885
18431W        W90779  42.000   3.730  10.584
18432W        W90780  31.474   4.794   2.257
18433W        W90781  26.558   1.290   2.740
18434W        W90782  32.429  39.967  14.001
18435W        W90783   0.856   5.697   1.267
18436W        W90784  25.528  38.890   1.290
18437W        W90785  37.843  11.862   4.150
18438W        W90786  44.778  40.451   0.418
18439W        W90787   6.405  15.746  11.388
18440W        W90788  32.892  12.774   2.666
18441W        W90789  24.506  15.803  14.447
18442W        W90790   3.320   2.362   2.342
18443W        W90791  36.425  25.169  11.552
18444W        W90792  38.418  25.489   0.284
18445W        W90793  43.002   2.863   0.435
18446W        W90794  23.498   6.257   2.276
18447W        W90795  39.540  24.124  11.079
18448W        W90796  28.026  35.957   3.258
18449W        W90797  35.567  36.562  11.935
18450W        W90798  11.831  40.334  13.901
18451W        W90799  13.290  18.696  13.845
18452W        W90800  22.181  43.805  11.105
18453W        W90801  10.282  34.571   4.795
18454W        W90802  25.552  19.062  13.410
18455W        W90803  36.549  21.629   3.337
18456W        W90804   6.782  22.089   3.148
18457W        W90805  12.212  34.419  13.484
18458W        W90806   1.369  40.482  11.055
18459W        W90807  26.071  37.885   2.376
18460W        W90808   0.915  31.901  10.487
18461W        W90809  23.155  32.464   0.756
18462W        W90810  35.010  26.466  11.051
18463W        W90811  15.713  19.227   1.388
18464W        W90812  43.442  27.576   1.423
18465W        W90813  21.588   8.353   4.298
18466W        W90814  27.194  10.364   4.610
18467W        W90815   6.237  15.247   1.809
18468W        W90816   3.879   9.755   4.202
18469W        W90817  27.541   0.783   2.667
18470W        W90818  44.876   5.279  13.339
18471W        W90819  32.924  24.135  12.850
18472W        W90820  32.519  42.348  11.028
18473W        W90821  34.869  12.707  10.156
18474W        W90822  27.616  21.728   1.877
18475W        W90823  26.571   1.765   0.866
18476W        W90824  24.986  12.297   3.759
18477W        W90825  37.851  40.484   4.321
18478W        W90826  10.840  44.371   3.742
18479W        W90827  34.963   0.956  11.104
18480W        W90828  16.629  43.445  13.308
18481W        W90829  15.731   5.200  10.624
18482W        W90830  28.587  19.269  11.394
18483W        W90831   2.399  21.075  13.036
18484W        W90832   3.861  23.002  12.449
18485W        W90833  32.953  23.614   3.244
18486W        W90834  13.329  14.798   2.263
18487W        W90835  29.447  32.425  12.569
18488W        W90836   0.471  22.104   4.155
18489W        W90837  18.131  18.164   2.716
18490W        W90838  29.475  16.574  13.373
18491W        W90839  34.575  33.947   1.775
18492W        W90840  38.370  28.511  12.937
18493W        W90841  28.442   4.880   2.373
18494W        W90842  42.924   4.890   0.795
18495W        W90843  17.182  19.260   3.291
18496W        W90844  37.401  21.706   0.805
18497W        W90845  10.378   6.370  10.442
18498W        W90846  24.563  41.995  11.086
18499W        W90847  31.005  21.164   3.343
18500W        W90848   9.859   6.700   4.196
18501W        W90849  11.209  17.637  13.538
18502W        W90850  27.123  23.501  13.041
18503W        W90851  41.981  13.167  13.949
18504W        W90852  23.596  34.872  13.545
18505W        W90853  23.112  38.847   0.742
18506W        W90854   8.762  20.745   3.680
18507W        W90855  32.099   9.748  12.924
18508W        W90856   9.212  23.991  14.954
18509W        W90857  24.538  36.506   1.747
18510W        W90858  17.768  39.316  14.932
18511W        W90859  12.294   1.926   0.417
18512W        W90860  30.491  43.474   4.239
18513W        W90861  12.354   0.337   1.439
18514W        W90862  25.151  25.132   0.944
18515W        W90863  30.009  21.187  13.420
18516W        W90864   3.274  23.046   3.212
18517W        W90865   1.351  19.753  14.959
18518W        W90866  38.484  14.158  12.356
18519W        W90867  37.877  31.623   3.773
18520W        W90868   8.696  20.664  10.082
18521W        W90869  14.240  41.327  12.480
18522W        W90870  27.681  44.862   3.755
18523W        W90871   6.891  13.639   0.838
18524W        W90872   5.833  31.918   5.619
18525W        W90873  11.849  33.077   1.716
18526W        W90874  25.198   5.781  10.570
18527W        W90875  21.650  43.336  14.850
18528W        W90876  29.984  16.754  11.524
18529W        W90877  43.498  41.820   3.376
18530W        W90878  10.769  16.778  11.579
18531W        W90879  14.672  36.557   0.302
18532W        W90880  38.384  14.666   0.816
18533W        W90881   2.832  10.298   4.132
18534W        W90882  30.128  33.012   1.757
18535W        W90883  10.813  20.560  14.285
18536W        W90884  36.854  14.113  12.999
18537W        W90885  17.665   7.802   2.383
18538W        W90886  36.418  38.004   0.953
18539W        W90887  22.525  20.254  14.758
18540W        W90888  15.249   9.879  10.559
18541W        W90889  30.478  42.423  11.000
18542W        W90890   1.469  10.782   4.160
18543W        W90891  30.613  14.617  13.895
18544W        W90892  29.988  17.136   1.409
18545W        W90893  13.749  14.784  12.894
18546W        W90894  37.418  18.694  13.924
18547W        W90895   4.304  24.640  12.373
18548W        W90896  31.948   9.703  12.448
18549W        W90897  27.588   8.825  12.011
18550W        W90898   2.391  21.078   1.313
18551W        W90899  43.781  11.160  13.482
18552W        W90900  40.455  19.739  12.874
18553W        W90901  37.455   4.311   2.405
18554W        W90902  20.038  34.369   2.821
18555W        W90903  18.144  39.420  13.926
18556W        W90904  31.013  16.694  10.929
18557W        W90905  24.103  15.787   0.803
18558W        W90906  15.611  35.553   4.666
18559W        W90907   8.793   5.278   2.786
18560W        W90908   5.798  30.509   4.121
18561W        W90909  14.330   4.827  10.999
18562W        W90910  42.294   9.180   2.713
18563W        W90911   0.922  10.793  12.058
18564W        W90912  35.025  16.300  12.001
18565W        W90913  27.089  18.604   4.704
18566W        W90914  39.016   4.741   3.675
18567W        W90915  27.674  18.551  13.974
18568W        W90916  27.110   5.233   0.942
18569W        W90917   0.251  44.904  14.002
18570W        W90918   9.853   6.922   0.480
18571W        W90919  43.892  40.543  13.973
18572W        W90920  13.635  41.842   2.262
18573W        W90921   7.223  18.591   4.277
18574W        W90922  44.915  37.079   1.361
18575W        W90923  21.127  15.599   4.313
18576W        W90924  13.235  19.281  11.496
18577W        W90925  39.854  43.868  14.382
18578W        W90926  10.200  20.191  11.475
18579W        W90927   9.356   8.282   2.772
18580W        W90928  11.791   2.257  12.526
18581W        W90929  13.130   1.862   2.225
18582W        W90930  22.183  21.146   4.728
18583W        W90931   8.395  41.401   3.759
18584W        W90932  35.108  37.415   1.398
18585W        W90933  27.447  34.988   2.349
18586W        W90934  19.638   2.849   0.823
18587W        W90935  28.625  36.040   3.197
18588W        W90936  28.068  42.387   4.216
18589W        W90937  11.267  33.893  12.368
18590W        W90938  44.259   5.386   0.309
18591W        W90939  31.590   4.419   4.605
18592W        W90940  11.322   4.299  11.536
18593W        W90941  33.101  18.152  10.496
18594W        W90942  29.614   3.429   0.752
18595W        W90943  16.284   8.374  10.404
18596W        W90944  42.919   5.373   1.445
18597W        W90945  44.324  25.216   1.928
18598W        W90946  38.908  15.193  13.523
18599W        W90947   0.336  33.562   2.179
18600W        W90948  29.080  37.482  10.599
18601W        W90949  35.433   0.770  14.984
18602W        W90950  32.571   8.399  11.054
18603W        W90951  43.824  20.711  12.839
18604W        W90952  22.052  19.052   2.399
18605W        W90953  30.963  12.200  13.351
18606W        W90954  28.084  23.491   3.369
18607W        W90955  38.338  27.150   0.453
18608W        W90956   1.313  28.481  13.970
18609W        W90957  26.596  30.011   0.392
18610W        W90958  32.415  33.002   2.262
18611W        W90959  12.675  19.113   1.297
18612W        W90960  33.422  27.965  12.010
18613W        W90961  31.424  37.448  13.926
18614W        W90962  21.032  40.393   3.151
18615W        W90963  38.327   1.861  11.087
18616W        W90964  18.604  22.007   2.740
18617W        W90965  14.111  43.310  13.889
18618W        W90966  17.067   8.314  14.841
18619W        W90967  34.391  39.983   2.740
18620W        W90968  27.021  13.278   1.851
18621W        W90969   3.319   3.822   2.830
18622W        W90970  20.662   5.916  12.358
18623W        W90971  10.721   3.331  11.387
18624W        W90972  27.154   1.943  14.365
18625W        W90973  11.830  24.717   1.261
18626W        W90974  21.543  20.530   0.391
18627W        W90975   2.321  24.107  11.116
18628W        W90976  28.567  15.677   3.669
18629W        W90977  33.456  43.936   1.823
18630W        W90978   9.678   7.804   1.738
18631W        W90979   8.830   2.247  12.344
18632W        W90980  13.750  18.080  12.889
18633W        W90981  20.763  27.984   3.639
18634W        W90982   0.407   3.362   1.798
18635W        W90983   8.295  41.370  13.857
18636W        W90984  16.192  25.123   0.778
18637W        W90985   1.772  23.048  11.873
18638W        W90986   9.686  41.460  14.294
18639W        W90987   2.426  22.133  11.966
18640W        W90988   0.446  30.153   4.631
18641W        W90989   1.820  21.020  14.975
18642W        W90990  24.139  13.834  14.397
18643W        W90991  24.518  38.847   1.239
18644W        W90992  17.792  12.119  12.050
18645W        W90993  44.306  38.339  14.369
18646W        W90994  21.167  43.965   4.775
18647W        W90995   3.861   9.720  13.995
18648W        W90996   9.863   7.715  11.041
18649W        W90997  43.804   9.175  11.862
18650W        W90998  28.138  41.520   5.178
18651W        W90999  24.621   1.307   3.293
18652W        W91000  31.589  14.298   4.769
18653W        W91001   7.332  25.013  14.885
18654W        W91002   8.882  44.759  14.952
18655W        W91003  38.492   4.905   1.746
18656W        W91004  10.289  14.698  14.839
18657W        W91005  22.251  23.673   0.409
18658W        W91006  32.979  42.807  11.959
18659W        W91007   7.263  26.559   9.931
18660W        W91008   4.262  39.932  10.642
18661W        W91009  39.911  40.531  13.865
18662W        W91010  42.032  26.550   4.129
18663W        W91011  17.566   9.751   4.680
18664W        W91012  26.700  30.081  13.451
18665W        W91013  40.514   1.938   4.816
18666W        W91014  17.634   6.193   1.873
18667W        W91015  32.469  31.630  14.961
18668W        W91016  44.396  34.415  12.851
18669W        W91017  40.806   2.894  11.420
18670W        W91018  20.057  25.112   5.165
18671W        W91019  29.538  26.029  13.031
18672W        W91020   2.860   2.364  11.020
18673W        W91021  31.468   6.320   4.243
18674W        W91022   6.207  44.389  12.957
18675W        W91023  33.525   8.257  14.345
18676W        W91024  10.824  29.111   3.253
18677W        W91025  13.842  24.083   1.734
18678W        W91026  16.693   4.919   4.302
18679W        W91027   4.405   1.768  13.809
18680W        W91028  24.228  21.625  14.823
18681W        W91029  44.836   0.256  14.880
18682W        W91030  35.864   9.741  11.952
18683W        W91031  15.821  19.652   1.267
18684W        W91032   5.316  12.805  12.536
18685W        W91033  24.999  26.102   0.796
18686W        W91034  25.569  43.377  10.576
18687W        W91035  29.436  25.507   4.647
18688W        W91036   2.285   6.332  13.877
18689W        W91037  41.867  42.809  14.428
18690W        W91038  15.706  19.249   3.691
18691W        W91039  21.135   6.191  12.474
18692W        W91040  13.625   8.223  11.093
18693W        W91041  36.386  10.707  13.533
18694W        W91042  42.452  43.826   4.756
18695W        W91043  28.554  39.446   0.915
18696W        W91044  40.814  24.489  12.048
18697W        W91045  25.035  34.613   0.342
18698W        W91046  28.159   1.266   2.887
18699W        W91047  40.399  20.124   2.388
18700W        W91048  24.628  29.546   1.377
18701W        W91049  10.655  40.846   2.838
18702W        W91050  28.110  39.464   0.849
18703W        W91051  41.334  42.512  13.877
18704W        W91052  44.970  14.290  14.902
18705W        W91053  40.524  34.991   0.851
18706W        W91054  37.353   5.252   0.317
18707W        W91055  31.982  41.309  13.335
18708W        W91056  42.835   7.682   4.318
18709W        W91057  30.907  37.982   3.272
18710W        W91058  38.457   7.351  11.980
18711W        W91059  38.522  15.765  14.814
18712W        W91060  20.631  18.222  11.423
18713W        W91061  38.478  27.487   3.815
18714W        W91062  32.423  22.601  13.902
18715W        W91063  38.949  34.953  11.051
18716W        W91064  40.869   6.231  12.931
18717W        W91065  25.568   1.310  10.894
18718W        W91066  27.172  23.702  12.425
18719W        W91067   1.934  34.110   3.237
18720W        W91068  24.041  17.195   0.380
18721W        W91069  37.056   6.677   3.806
18722W        W91070  16.234  43.766   2.764
18723W        W91071  29.666  36.973   2.847
18724W        W91072  33.026  24.497   4.821
18725W        W91073   8.875  26.578   3.679
18726W        W91074  20.121   1.746   4.199
18727W        W91075  18.252  16.211   1.307
18728W        W91076  43.982  41.384  14.923
18729W        W91077  10.150  10.160  11.893
18730W        W91078  22.236  27.124  11.995
18731W        W91079  32.996  36.879  11.483
18732W        W91080  24.068  43.492   4.837
18733W        W91081   1.294  40.921  10.617
18734W        W91082  13.672   8.165   4.289
18735W        W91083  33.935  15.264  14.450
18736W        W91084  32.018  23.516   3.861
18737W        W91085   9.357  44.497  12.406
18738W        W91086  21.063  35.857  10.434
18739W        W91087   5.844   7.851   2.240
18740W        W91088  25.214  10.333  13.811
18741W        W91089  31.096  37.950   0.382
18742W        W91090  16.286  12.813   2.276
18743W        W91091  16.752  26.972   2.692
18744W        W91092  23.006   6.393  13.056
18745W        W91093   5.812  27.173  12.455
18746W        W91094  35.448  35.401  10.508
18747W        W91095   5.767  18.236   2.810
18748W        W91096   7.877   2.317  12.863
18749W        W91097  39.951  40.873   1.326
18750W        W91098  28.142  12.735   0.829
18751W        W91099  40.470  36.971  11.080
18752W        W91100  15.815  10.304   5.256
18753W        W91101  42.028  33.876  14.328
18754W        W91102  12.139  17.688  12.954
18755W        W91103  22.225   7.701  11.585
18756W        W91104  35.020  33.049  10.954
18757W        W91105   0.466  39.030  13.836
18758W        W91106  34.934  27.631   1.450
18759W        W91107  11.340  36.852   1.289
18760W        W91108  28.476   9.733   4.136
18761W        W91109  22.526  43.289   1.907
18762W        W91110   7.756  35.364   4.261
18763W        W91111  28.023   2.789   3.751
18764W        W91112  10.248   2.283   2.858
18765W        W91113  32.547   3.916  14.398
18766W        W91114   9.735  19.606  10.091
18767W        W91115  24.502  16.309   4.800
18768W        W91116   6.235  38.463  11.860
18769W        W91117  29.520  15.681  10.155
18770W        W91118  34.022  12.714  11.920
18771W        W91119  39.871  38.566   3.212
18772W        W91120   9.774  36.355   2.224
18773W        W91121   7.211  17.745  12.547
18774W        W91122  40.048   1.956  13.823
18775W        W91123  31.470  41.340   3.377
18776W        W91124  29.074  44.897   2.771
18777W        W91125   8.900  30.132  12.481
18778W        W91126  42.492  29.974   3.685
18779W        W91127  25.502  38.067   0.451
18780W        W91128  26.553  37.513   4.136
18781W        W91129  20.628  15.630  12.863
18782W        W91130  16.785  43.461   4.268
18783W        W91131  14.600  12.218   3.377
18784W        W91132  42.396  40.306   2.692
18785W        W91133  28.448  41.029  14.851
18786W        W91134   0.856  30.057   3.763
18787W        W91135  31.025  35.407   0.326
18788W        W91136  37.074  31.072   0.341
18789W        W91137  16.795   0.336  13.504
18790W        W91138  36.490   1.451   3.827
18791W        W91139  39.467  28.649  11.427
18792W        W91140  17.660  31.152   0.459
18793W        W91141  30.105  38.388   4.345
18794W        W91142   9.855  26.133   3.342
18795W        W91143  33.993   8.344   2.832
18796W        W91144  11.786  35.904   5.173
18797W        W91145  29.500  42.449   4.793
18798W        W91146  26.614  21.063  14.374
18799W        W91147  15.245  40.854  14.444
18800W        W91148  33.467  25.168   1.820
18801W        W91149  37.562  14.176   0.792
18802W        W91150  31.422   8.329   3.668
18803W        W91151   1.324  15.203  12.868
18804W        W91152  38.473  17.174  11.391
18805W        W91153  22.098  32.970  12.437
18806W        W91154   9.264  27.067  11.090
18807W        W91155  20.706  10.284  10.605
18808W        W91156  12.174  29.428  10.591
18809W        W91157  11.367  32.635   1.349
18810W        W91158   2.408  18.643   0.855
18811W        W91159  37.500  16.568   2.383
18812W        W91160  11.859  35.445  12.988
18813W        W91161  12.836  39.033  14.994
18814W        W91162  27.105   0.836   0.938
18815W        W91163  12.680  35.419  14.015
18816W        W91164  15.140  13.160  13.876
18817W        W91165  11.823  24.512  14.316
18818W        W91166  10.673   2.367  13.413
18819W        W91167  23.592  33.991  10.464
18820W        W91168   1.448  26.111  13.019
18821W        W91169  24.095  39.448  14.919
18822W        W91170  26.655  41.483   3.318
18823W        W91171  34.081   1.383   0.377
18824W        W91172  31.569  10.369  13.042
18825W        W91173  23.530  44.497  11.921
18826W        W91174  14.624  14.734   9.968
18827W        W91175   2.279  39.424   2.376
18828W        W91176   6.793  16.081   2.756
18829W        W91177  23.061   7.858  14.771
18830W        W91178  21.200  35.095   0.301
18831W        W91179  39.408  11.140  12.878
18832W        W91180   8.690  40.036   4.826
18833W        W91181   9.873   5.357  10.905
18834W        W91182  18.752  21.610  14.942
18835W        W91183  10.144   5.220  12.980
18836W        W91184   6.746  25.158   0.732
18837W        W91185  34.043  43.939   3.648
18838W        W91186   4.441  30.476  11.396
18839W        W91187   2.269   2.459  12.924
18840W        W91188  11.180  37.523  13.491
18841W        W91189  25.525  16.600  12.887
18842W        W91190  11.165  12.848  14.386
18843W        W91191  21.220  39.857  14.286
18844W        W91192  39.931   9.817   2.830
18845W        W91193  30.997  43.853  12.077
18846W        W91194  15.298  13.665  10.559
18847W        W91195  37.470  21.202   4.817
18848W        W91196  23.054  37.001  12.364
18849W        W91197  21.517  43.437   3.307
18850W        W91198  25.985  34.568  13.883
18851W        W91199   9.350   3.944   1.242
18852W        W91200  32.108   6.190   0.746
18853W        W91201  12.171  29.658   2.852
18854W        W91202   5.308  40.854   1.449
18855W        W91203  16.624  30.998   1.339
18856W        W91204  40.542   3.314  14.294
18857W        W91205  33.108  33.618   3.790
18858W        W91206  14.672  28.618   2.679
18859W        W91207   3.932  25.483  13.497
18860W        W91208  41.505   2.763  13.443
18861W        W91209  20.091  24.534  13.507
18862W        W91210  12.145  29.929  11.422
18863W        W91211  30.580  13.229  11.376
18864W        W91212  41.300   7.856  11.074
18865W        W91213  10.733  22.049   5.618
18866W        W91214  30.955  25.217  13.834
18867W        W91215  24.483   5.892   2.804
18868W        W91216  17.074  38.519   0.965
18869W        W91217  37.983   0.324   3.685
18870W        W91218   6.887  28.082   1.926
18871W        W91219  24.627   6.845  10.993
18872W        W91220  19.715  24.136   4.352
18873W        W91221  31.000   8.711   2.374
18874W        W91222  38.060  19.538  11.416
18875W        W91223  28.657   8.667  13.917
18876W        W91224   2.287  42.812  10.438
18877W        W91225  24.200  15.254   2.235
18878W        W91226  28.008  45.000   4.176
18879W        W91227  15.287  43.007  10.913
18880W        W91228  29.473  36.350  12.492
18881W        W91229  32.019  25.650   3.751
18882W        W91230  19.674  30.065   3.264
18883W        W91231   7.842  42.903  12.483
18884W        W91232  43.439  36.479   3.216
18885W        W91233   8.660  11.773   3.648
18886W        W91234  20.750  26.097   2.286
18887W        W91235  11.221  10.254   1.733
18888W        W91236  37.897   3.779   2.817
18889W        W91237  29.542  23.559   1.698
18890W        W91238   1.307  37.549   3.171
18891W        W91239  29.010  39.314  13.444
18892W        W91240  37.413  17.590  11.493
18893W        W91241   5.225  37.526   4.170
18894W        W91242  30.137  18.237  12.928
18895W        W91243  24.133  23.087   1.827
18896W        W91244  20.271  12.851   9.958
18897W        W91245  37.000   7.382   3.245
18898W        W91246  33.960  17.774   3.272
18899W        W91247  42.885  36.542  10.425
18900W        W91248  14.761  17.749  10.578
18901W        W91249  36.031   4.287  14.976
18902W        W91250  30.536  18.258  12.044
18903W        W91251  34.894   1.959  11.459
18904W        W91252   7.397  34.555   0.846
18905W        W91253  36.579  30.505   2.858
18906W        W91254  34.480  20.114  11.034
18907W        W91255  22.689   3.227   4.792
18908W        W91256  17.060   3.783  10.940
18909W        W91257  30.644  28.986   0.803
18910W        W91258   3.944  23.627  12.521
18911W        W91259  38.540   5.194   2.734
18912W        W91260  35.479  38.879   1.836
18913W        W91261   1.440  22.651   0.344
18914W        W91262  19.157  30.973   2.412
18915W        W91263  11.713  19.741  13.030
18916W        W91264   2.920  17.736   0.366
18917W        W91265  29.169  40.540   1.225
18918W        W91266  15.195  42.307   4.181
18919W        W91267  24.027   2.819  12.005
18920W        W91268  24.520  32.624  10.979
18921W        W91269   7.280  40.496   4.314
18922W        W91270  17.082   4.928  14.824
18923W        W91271  20.587  41.997   1.329
18924W        W91272  24.634  31.940  14.917
18925W        W91273  17.117  37.341   4.186
18926W        W91274  41.835   4.306  10.944
18927W        W91275  16.766  22.505   1.743
18928W        W91276  29.070  33.432   4.705
18929W        W91277  25.206   2.775   2.293
18930W        W91278  44.411  19.545   5.213
18931W        W91279  29.502   6.894  12.066
18932W        W91280  42.302  44.369   3.730
18933W        W91281  31.548  39.016   1.907
18934W        W91282  11.198  42.918  10.904
18935W        W91283   3.252  29.128   1.781
18936W        W91284  29.643   7.278   4.198
18937W        W91285  19.046  24.688  10.581
18938W        W91286  33.954  29.554  11.603
18939W        W91287  15.293  20.725  12.057
18940W        W91288  14.115  12.661  11.548
18941W        W91289  14.643  21.645  10.636
18942W        W91290  43.000  16.602   1.447
18943W        W91291  34.556  18.766  13.828
18944W        W91292  22.717  23.990   5.269
18945W        W91293  35.932  29.646  14.021
18946W        W91294  28.525  27.555  14.792
18947W        W91295  40.899  36.358   3.298
18948W        W91296   1.242  31.507  14.903
18949W        W91297  24.153  14.156   1.304
18950W        W91298  21.035  31.983  11.862
18951W        W91299   1.771  18.734   4.154
18952W        W91300  35.898  14.249   2.665
18953W        W91301   1.480  34.016  11.119
18954W        W91302   1.384  25.209  11.473
18955W        W91303  39.851   4.900  13.404
18956W        W91304  41.510  26.509   2.201
18957W        W91305  24.501   9.685   1.284
18958W        W91306  38.419  24.043  13.060
18959W        W91307  42.833  27.072   4.145
18960W        W91308  39.411  35.487  13.444
18961W        W91309  31.445  13.153  11.606
18962W        W91310   4.354  16.197   2.276
18963W        W91311  22.034  31.418  11.995
18964W        W91312   5.919   8.796  12.557
18965W        W91313   3.769   6.686   3.371
18966W        W91314   2.799   4.270   2.861
18967W        W91315  42.012   0.792  12.410
18968W        W91316   8.279  39.511  12.854
18969W        W91317  30.537  38.543   2.891
18970W        W91318  28.141  25.149   3.302
18971W        W91319  33.597  23.711   1.368
18972W        W91320  39.997  31.103   4.220
18973W        W91321  33.049  23.129  12.578
18974W        W91322   8.315  19.239   1.322
18975W        W91323  11.839   1.451   1.334
18976W        W91324  28.972  38.449   3.239
18977W        W91325  21.588  10.855  13.022
18978W        W91326  10.696  27.673  12.488
18979W        W91327  13.632   6.896  13.884
18980W        W91328   9.342  14.651  13.930
18981W        W91329  43.833  24.033  11.089
18982W        W91330  16.713  15.210  12.362
18983W        W91331  22.219   6.752  14.282
18984W        W91332   3.865  42.411  11.944
18985W        W91333  44.341   0.831   0.320
18986W        W91334  27.113  10.677  14.805
18987W        W91335   6.412  11.730  11.981
18988W        W91336  32.954  40.531  13.370
18989W        W91337  36.391  43.870   1.241
18990W        W91338  13.176  10.726  11.016
18991W        W91339  27.647   2.267   3.189
18992W        W91340  42.447  28.090   3.212
18993W        W91341  10.211  34.016   4.175
18994W        W91342   1.763  12.124  12.360
18995W        W91343   7.860  14.122  11.956
18996W        W91344   6.317  34.039   1.736
18997W        W91345   1.315  20.109   4.663
18998W        W91346  39.536  19.265   1.337
18999W        W91347  22.600  32.485  12.078
19000W        W91348  32.026  27.075  13.515
19001W        W91349  18.144   9.720   0.328
19002W        W91350   4.217   1.956   2.335
19003W        W91351  21.600  19.725   0.909
19004W        W91352  23.574  42.302   0.811
19005W        W91353  31.105  41.431   2.246
19006W        W91354  36.572  32.077  14.996
19007W        W91355  26.088  32.142  10.582
19008W        W91356  33.908  11.747  10.519
19009W        W91357  19.240   5.349  12.511
19010W        W91358   4.934   3.410  10.022
19011W        W91359   0.813  21.132  13.443
19012W        W91360  41.928  29.061   2.305
19013W        W91361  22.687   1.310   0.928
19014W        W91362  38.824  15.202   3.847
19015W        W91363  37.368   8.386  10.421
19016W        W91364   1.929  41.827  13.844
19017W        W91365  19.679  41.960  13.426
19018W        W91366  40.046  38.561   1.236
19019W        W91367  12.774   9.770   3.156
19020W        W91368  25.015   3.943   0.400
19021W        W91369   7.231  31.520   0.831
19022W        W91370  14.132  10.661   3.153
19023W        W91371  16.810  39.519  10.602
19024W        W91372  21.690  27.095  11.472
19025W        W91373  23.204  25.987  14.855
19026W        W91374  22.228  36.442  11.494
19027W        W91375  39.007  34.026  11.479
19028W        W91376   3.724  44.997  13.435
19029W        W91377  18.623  18.610   2.806
19030W        W91378  36.488  24.104  14.799
19031W        W91379  18.075   6.334   1.792
19032W        W91380  37.532  27.628   0.279
19033W        W91381  36.961  15.638   0.343
19034W        W91382  22.075  39.064  10.485
19035W        W91383  43.920  27.640   1.408
19036W        W91384  28.649  16.727  14.955
19037W        W91385   5.770   9.801  13.322
19038W        W91386  33.556  18.550   2.708
19039W        W91387  11.712  21.614   5.315
19040W        W91388  31.563  34.894  11.999
19041W        W91389  39.896  17.702   1.803
19042W        W91390  38.867   4.743   9.502
19043W        W91391  41.916  10.734   0.936
19044W        W91392  22.539  42.470   1.924
19045W        W91393  37.941  24.627   0.344
19046W        W91394  42.010  41.534  11.014
19047W        W91395  10.343  13.683  14.851
19048W        W91396  24.124  29.046  13.334
19049W        W91397  11.257  42.894   3.369
19050W        W91398   9.833  17.569  14.760
19051W        W91399  44.322  12.846   2.379
19052W        W91400   2.947  35.591  12.832
19053W        W91401   4.448  18.062  13.926
19054W        W91402  11.288  14.318   0.895
19055W        W91403  25.020  14.154   3.295
19056W        W91404   1.397   7.779  14.862
19057W        W91405  14.293  37.833  11.048
19058W        W91406  43.377   0.428   2.776
19059W        W91407  42.870  31.140   2.709
19060W        W91408   5.373   7.811  13.528
19061W        W91409  30.592  10.761  11.982
19062W        W91410  20.213   9.785  12.373
19063W        W91411  30.970  35.528   2.885
19064W        W91412  43.917  13.713   2.728
19065W        W91413   0.810   8.286   1.755
19066W        W91414  38.895  42.382  12.509
19067W        W91415  18.079   5.738   4.271
19068W        W91416  27.966  38.827  13.339
19069W        W91417  27.532  42.507   1.445
19070W        W91418  38.897   7.804  13.411
19071W        W91419  20.124  33.026  14.763
19072W        W91420  30.089  40.030  10.539
19073W        W91421  25.604  43.853   3.154
19074W        W91422   1.885  41.322  13.914
19075W        W91423  37.343  29.150  10.946
19076W        W91424   6.836  16.664   0.348
19077W        W91425  14.598  41.400   4.223
19078W        W91426  26.970  32.923   3.246
19079W        W91427  43.769  13.654   4.198
19080W        W91428  26.151   5.360   1.331
19081W        W91429  25.031  24.574  14.837
19082W        W91430  30.046  12.696  14.819
19083W        W91431  26.644  20.257   2.663
19084W        W91432  33.911   5.248  14.916
19085W        W91433   7.728   0.288   3.383
19086W        W91434   3.231  22.138  10.105
19087W        W91435  26.469  43.913  14.898
19088W        W91436  31.622   1.903  14.504
19089W        W91437  13.804  13.144  11.930
19090W        W91438  36.347  37.524   3.868
19091W        W91439  12.160  13.827  10.903
19092W        W91440  41.538  20.235   3.190
19093W        W91441  23.110  17.773  11.540
19094W        W91442   3.242  21.676  12.431
19095W        W91443  17.070  13.198   0.443
19096W        W91444   9.243  43.954   3.351
19097W        W91445  40.845  42.785  11.479
19098W        W91446  27.578   1.959   4.774
19099W        W91447  24.643  23.133   2.870
19100W        W91448  28.104  39.862  12.986
19101W        W91449  38.921  30.040   4.122
19102W        W91450   5.886  20.625   4.612
19103W        W91451  44.370  13.253   1.812
19104W        W91452  35.906  24.631   0.842
19105W        W91453  22.538  26.059  12.558
19106W        W91454  23.202  24.592  13.410
19107W        W91455  36.361  24.516  10.985
19108W        W91456  39.318   6.357   0.733
19109W        W91457  40.501  22.560  10.527
19110W        W91458  28.148   0.975  14.016
19111W        W91459  28.079  12.245  13.372
19112W        W91460  23.653   5.840   3.348
19113W        W91461  33.451  13.759  13.324
19114W        W91462  38.352  37.413  12.999
19115W        W91463  33.397   0.427   0.420
19116W        W91464   4.846   5.764   3.345
19117W        W91465  34.584  33.945  12.443
19118W        W91466  37.066  40.485   0.258
19119W        W91467   8.259  13.326  14.443
19120W        W91468  15.753  16.608  12.096
19121W        W91469  21.067  17.293  13.923
19122W        W91470  22.570   9.764  11.521
19123W        W91471  26.602  44.339  13.806
19124W        W91472  12.681   0.868  14.478
19125W        W91473  34.912  12.793  13.058
19126W        W91474  14.606  40.366   3.182
19127W        W91475  44.811  20.602   0.839
19128W        W91476   5.765  13.262  14.972
19129W        W91477   3.738   6.288  11.504
19130W        W91478  23.121  25.995   2.354
19131W        W91479  22.148  38.879   3.757
19132W        W91480  24.086  11.199   3.178
19133W        W91481   9.665  13.179  13.529
19134W        W91482  23.672  28.645  12.984
19135W        W91483  27.077  28.061  10.084
19136W        W91484  23.494  38.483  10.922
19137W        W91485  27.060   2.806  10.430
19138W        W91486  33.001   9.334  12.449
19139W        W91487  20.239  16.687   4.215
19140W        W91488  32.475  10.674   4.303
19141W        W91489  12.715   4.276  13.481
19142W        W91490  31.599  20.680  11.547
19143W        W91491   3.334  10.188   1.238
19144W        W91492  31.951  30.081  12.026
19145W        W91493  23.732  43.765   4.669
19146W        W91494  34.605  28.619   4.767
19147W        W91495  36.990  34.415   1.334
19148W        W91496   4.783  24.980   5.111
19149W        W91497   9.678  21.049   4.737
19150W        W91498  11.735  41.024  13.320
19151W        W91499  43.479  15.089   1.447
19152W        W91500  32.138   5.414   2.835
19153W        W91501   1.282  27.517  12.876
19154W        W91502   2.948  41.403   3.805
19155W        W91503  24.709  33.508   3.644
19156W        W91504   3.355  30.447   0.838
19157W        W91505  36.053  37.511   1.863
19158W        W91506  44.490   4.325  14.474
19159W        W91507  35.360   1.899  12.993
19160W        W91508  15.160  28.484  14.494
19161W        W91509  39.930  30.451  11.896
19162W        W91510   7.752  24.561   2.407
19163W        W91511  28.491  38.509   2.409
19164W        W91512  34.991  15.290   4.742
19165W        W91513  28.940  41.400  11.580
19166W        W91514  30.960  31.532  10.413
19167W        W91515   8.178  31.120   4.267
19168W        W91516  12.782  36.082  11.962
19169W        W91517   7.187  41.861   2.298
19170W        W91518  27.953  41.301   2.239
19171W        W91519  44.501  28.647   1.309
19172W        W91520  23.517   0.265   2.885
19173W        W91521  11.158  10.207   4.635
19174W        W91522  13.297  43.429   4.804
19175W        W91523  39.838   2.739   0.905
19176W        W91524  18.603  17.202   2.192
19177W        W91525  20.163   8.693  11.440
19178W        W91526  18.238  22.181   2.675
19179W        W91527   3.382  24.653  13.312
19180W        W91528  23.206  34.965   1.809
19181W        W91529   1.480   6.801  13.963
19182W        W91530   0.925  32.984  13.353
19183W        W91531   3.398   1.745   1.422
19184W        W91532   7.290  38.544   4.770
19185W        W91533  13.340  23.734  13.940
19186W        W91534   4.278  31.050   2.875
19187W        W91535  37.429  35.895   0.727
19188W        W91536  11.189  19.179   4.750
19189W        W91537  35.465  24.503  13.829
19190W        W91538  21.038  24.507   1.245
19191W        W91539   9.328  36.361   3.281
19192W        W91540  27.472   0.812   2.397
19193W        W91541   3.457  25.095  10.547
19194W        W91542  34.877  29.992  11.920
19195W        W91543  22.679   6.826  13.418
19196W        W91544  38.363  30.493   3.760
19197W        W91545  19.533   3.912   4.824
19198W        W91546  27.166  30.633   5.177
19199W        W91547   3.385  25.002  11.014
19200W        W91548  15.139  37.507  12.574
19201W        W91549  12.783   4.272  14.404
19202W        W91550  28.000  15.641   4.119
19203W        W91551  22.081  39.910  10.928
19204W        W91552  37.506  42.463  14.419
19205W        W91553  10.641   0.816  11.463
19206W        W91554  34.880  11.823   3.641
19207W        W91555  11.233  40.515   3.220
19208W        W91556  40.028  41.330   3.378
19209W        W91557  18.656   1.312  13.804
19210W        W91558  38.571  22.233   1.364
19211W        W91559  16.791  26.537  10.424
19212W        W91560  40.866  42.491   0.261
19213W        W91561  35.021   4.876   1.839
19214W        W91562  27.599   0.776  10.980
19215W        W91563  28.151  21.105  10.057
19216W        W91564  38.492   2.391   2.690
19217W        W91565   9.753  38.991   4.279
19218W        W91566   4.888  42.519   4.152
19219W        W91567  29.652   3.743  10.890
19220W        W91568   6.851   4.404  14.883
19221W        W91569  26.518   8.270  10.437
19222W        W91570   2.387  19.769  11.493
19223W        W91571  17.767  15.296   0.745
19224W        W91572  25.028  31.442   2.403
19225W        W91573  27.134  24.599   3.849
19226W        W91574  35.877  41.935  13.525
19227W        W91575   9.850  37.390  10.942
19228W        W91576   1.960  21.201  13.863
19229W        W91577  35.958  14.821  11.117
19230W        W91578  30.652  25.008  10.925
19231W        W91579  29.932  35.382  11.523
19232W        W91580  25.685  35.563  14.967
19233W        W91581   9.177  13.261  13.000
19234W        W91582  34.098   5.363  13.050
19235W        W91583  20.150  12.624  11.382
19236W        W91584  36.505  16.644   4.296
19237W        W91585  31.088  32.923   1.394
19238W        W91586  25.007   1.827   2.300
19239W        W91587  23.550  10.788  14.494
19240W        W91588  21.734   7.249  13.802
19241W        W91589  16.152  21.071  10.475
19242W        W91590  34.427  38.911  13.063
19243W        W91591   2.255  26.161  14.366
19244W        W91592  35.434  30.571  14.305
19245W        W91593  11.729  24.111   0.438
19246W        W91594  10.644  28.436  14.435
19247W        W91595  12.351   0.746   4.208
19248W        W91596  26.166  38.406  14.952
19249W        W91597  11.812  39.881   4.144
19250W        W91598  24.168   1.421  11.520
19251W        W91599  43.315  17.128   3.778
19252W        W91600   2.334  26.656   2.887
19253W        W91601   4.407  21.079   0.448
19254W        W91602   1.250  16.154  11.436
19255W        W91603  30.058  40.999  12.987
19256W        W91604  30.155  31.472  11.522
19257W        W91605  42.912  42.928   0.315
19258W        W91606  25.194  43.397   3.203
19259W        W91607  16.159  38.389  12.383
19260W        W91608  27.663  38.997  13.912
19261W        W91609  16.225  38.027   4.225
19262W        W91610  12.181  26.509  10.444
19263W        W91611  15.130  11.864  13.920
19264W        W91612  20.574  32.995   4.341
19265W        W91613  18.784   6.778  11.445
19266W        W91614   6.896   3.775  12.996
19267W        W91615   5.265  41.333  12.903
19268W        W91616   0.855  22.507   1.441
19269W        W91617  32.084   8.310   2.301
19270W        W91618  16.205  21.576  10.501
19271W        W91619   7.778   1.842  13.383
19272W        W91620  39.429  13.158   3.770
19273W        W91621  18.747  34.110  13.055
19274W        W91622  17.571  41.470   3.163
19275W        W91623  18.615  40.976   1.281
19276W        W91624  33.093  27.085  12.093
19277W        W91625  18.063  14.811   3.270
19278W        W91626   7.394   5.853  11.042
19279W        W91627   1.761   8.301   0.475
19280W        W91628   1.393  14.803   1.334
19281W        W91629   7.398  12.799  14.765
19282W        W91630  39.441  35.475   4.192
19283W        W91631  23.677  13.339  14.415
19284W        W91632  15.649  25.506   4.728
19285W        W91633  28.047  14.768   1.347
19286W        W91634  40.922  43.401   4.272
19287W        W91635  37.389  28.483   4.176
19288W        W91636   1.308  12.614  13.013
19289W        W91637  33.899  35.473   3.217
19290W        W91638  17.661  11.363   0.754
19291W        W91639  26.142  39.033  13.834
19292W        W91640  10.748   6.846  14.853
19293W        W91641  10.808  38.553   4.287
19294W        W91642   6.740  41.003  13.503
19295W        W91643  31.634   1.316  13.020
19296W        W91644  25.010  13.718  14.002
19297W        W91645  18.555  25.139   9.939
19298W        W91646  29.522  13.280   2.364
19299W        W91647  24.091   5.779   3.371
19300W        W91648  40.364  20.153   3.335
19301W        W91649  43.354  33.587   3.215
19302W        W91650  19.050  35.515   2.186
19303W        W91651  34.962  39.009   4.186
19304W        W91652   1.804  34.028   2.819
19305W        W91653  43.828  44.009   3.700
19306W        W91654  34.879  14.244  14.485
19307W        W91655  38.045   3.227   4.240
19308W        W91656   9.749  37.537   4.248
19309W        W91657  37.378  31.598  12.908
19310W        W91658   5.887  41.486   0.359
19311W        W91659   8.718  15.304  14.297
19312W        W91660  21.079  34.481  12.560
19313W        W91661  29.147  34.084  12.415
19314W        W91662  20.709  22.109   0.378
19315W        W91663  23.581  19.559  13.003
19316W        W91664  27.100  24.711  12.546
19317W        W91665   3.412   2.245  10.439
19318W        W91666  26.462  18.291  13.385
19319W        W91667  39.921   4.266   2.866
19320W        W91668   1.325  13.257  14.353
19321W        W91669  40.010  17.065  11.521
19322W        W91670  35.006  16.168   4.125
19323W        W91671   2.411  27.942  12.478
19324W        W91672  43.958  21.120  12.426
19325W        W91673  44.371  33.495   4.244
19326W        W91674  44.491  20.767  13.534
19327W        W91675  19.103  44.829   1.211
19328W        W91676  30.575  10.725   1.429
19329W        W91677  40.864  28.980  14.997
19330W        W91678  37.857   7.394   4.674
19331W        W91679   9.809  23.071  14.439
19332W        W91680  41.981   8.168   0.729
19333W        W91681  36.529   9.263   2.703
19334W        W91682  44.763  18.155   3.168
19335W        W91683  34.381  30.609  12.068
19336W        W91684  42.463  35.866   0.407
19337W        W91685  10.831  15.201  10.544
19338W        W91686  37.957  25.182   0.440
19339W        W91687  29.468  12.252  14.426
19340W        W91688  40.347   1.872  12.575
19341W        W91689   1.762  22.085  14.808
19342W        W91690   5.831  36.526  12.508
19343W        W91691  12.737   3.298  13.951
19344W        W91692  24.194  43.373  11.528
19345W        W91693  33.543  30.418  12.918
19346W        W91694  39.442  11.861   4.618
19347W        W91695  33.477   4.824  11.406
19348W        W91696  13.836  13.644   1.420
19349W        W91697   6.810  21.077  14.939
19350W        W91698  25.114  18.150  12.004
19351W        W91699   9.295   6.756  11.426
19352W        W91700   7.765  10.695   3.255
19353W        W91701  30.545  44.372   1.290
19354W        W91702   9.327  24.494   2.350
19355W        W91703   8.878  21.125  11.097
19356W        W91704  30.614  42.807  14.776
19357W        W91705  33.522   0.446  14.903
19358W        W91706   6.303   9.389   3.176
19359W        W91707  24.659   4.273  13.983
19360W        W91708   7.276  43.826  12.567
19361W        W91709  28.099   3.912  14.989
19362W        W91710  18.651  11.777  12.021
19363W        W91711  42.486   0.887  14.829
19364W        W91712  19.542  35.052   4.816
19365W        W91713   2.721  23.669   4.729
19366W        W91714  35.857  16.802  11.087
19367W        W91715  26.478  32.576   3.671
19368W        W91716  15.676  22.716  10.914
19369W        W91717  26.042  29.585   1.882
19370W        W91718   7.384  20.707   1.392
19371W        W91719  31.466  33.010   2.369
19372W        W91720  29.465  38.561   1.387
19373W        W91721  27.979   2.760  13.890
19374W        W91722  40.870  14.124   0.447
19375W        W91723  40.936  29.435   4.237
19376W        W91724  39.047  34.391  12.455
19377W        W91725  10.776  37.489  13.876
19378W        W91726  29.149  24.479   4.140
19379W        W91727  20.154  30.124  10.975
19380W        W91728  21.035   6.876   0.389
19381W        W91729  43.390  31.646  14.342
19382W        W91730  14.205  34.433   2.253
19383W        W91731  36.592  43.368  12.557
19384W        W91732  14.233  41.531  10.894
19385W        W91733  25.140   8.801   9.629
19386W        W91734  23.667  35.560  14.879
19387W        W91735   3.307   2.963   4.668
19388W        W91736  21.036  30.650  13.023
19389W        W91737  28.546  44.481   2.296
19390W        W91738  26.583  29.064  11.589
19391W        W91739  34.417  22.515   0.324
19392W        W91740  31.464  24.526  10.463
19393W        W91741   1.424  20.172   3.338
19394W        W91742  37.038  38.557  12.364
19395W        W91743  26.665  43.856   9.940
19396W        W91744  10.246  29.664  12.542
19397W        W91745   6.300  43.293  14.368
19398W        W91746   3.911  32.947  14.958
19399W        W91747   9.814  16.803   4.258
19400W        W91748  15.674  16.269  13.881
19401W        W91749   9.295   5.835  11.037
19402W        W91750  12.649  10.258   2.201
19403W        W91751  16.587  44.928  11.107
19404W        W91752   7.890  35.857  14.414
19405W        W91753  30.539  16.265  13.488
19406W        W91754  33.557  20.201   2.737
19407W        W91755  12.272   1.821   0.858
19408W        W91756   4.757   9.287  12.366
19409W        W91757  42.787  26.565  11.939
19410W        W91758  22.714  39.537  13.494
19411W        W91759   2.346  35.453  13.444
19412W        W91760   0.822  30.558  14.837
19413W        W91761   3.873  43.367   2.700
19414W        W91762  39.401   9.181  14.426
19415W        W91763   5.348  22.728   0.336
19416W        W91764  43.999  39.455  11.062
19417W        W91765  37.851  37.343   4.643
19418W        W91766  18.611  27.049   3.369
19419W        W91767  32.520  32.041  14.364
19420W        W91768  29.953  14.667  13.050
19421W        W91769   4.444  17.280   1.279
19422W        W91770  25.672  18.084   1.852
19423W        W91771  41.429  10.351   2.753
19424W        W91772  20.532  33.936   4.314
19425W        W91773  34.397  33.026  12.454
19426W        W91774  35.533  39.027  12.922
19427W        W91775  12.750  28.960   4.739
19428W        W91776  13.695   1.779  14.766
19429W        W91777  36.463  21.107  12.453
19430W        W91778  22.019  34.042  14.360
19431W        W91779  12.244   3.726  14.375
19432W        W91780  37.836  21.106  10.975
19433W        W91781  39.061   8.705   1.429
19434W        W91782  31.061  21.185   2.779
19435W        W91783   4.922  18.114   4.328
19436W        W91784  43.513  22.582   2.702
19437W        W91785  10.355  10.336  14.418
19438W        W91786  41.887  28.154  11.038
19439W        W91787  41.515  35.068   0.439
19440W        W91788  30.599  12.622  10.901
19441W        W91789  25.574  15.218   0.901
19442W        W91790  22.017  11.797  13.519
19443W        W91791   9.300  38.446  12.955
19444W        W91792  23.544  30.947  11.423
19445W        W91793   7.205  38.846   3.305
19446W        W91794  43.475  31.909   2.735
19447W        W91795  23.116  28.626  10.935
19448W        W91796  44.786  22.655  14.919
19449W        W91797  44.397  37.376   3.651
19450W        W91798   7.381  38.361   1.400
19451W        W91799  29.469   7.211   3.671
19452W        W91800  37.453   4.262   3.801
19453W        W91801  44.987  24.630  10.985
19454W        W91802  19.694  13.805   4.718
19455W        W91803  32.945  35.498  11.509
19456W        W91804  33.008   1.763  14.383
19457W        W91805   4.407   8.403   3.331
19458W        W91806   3.234  36.876   2.189
19459W        W91807  34.434  20.557  14.864
19460W        W91808  28.491   7.785  13.939
19461W        W91809  25.097  40.847  13.370
19462W        W91810  25.507  30.538   1.329
19463W        W91811  30.943   2.927  12.836
19464W        W91812  41.902  25.507   2.666
19465W        W91813  11.729  36.897   0.431
19466W        W91814   6.198  23.073  13.871
19467W        W91815  34.052  20.203   2.299
19468W        W91816   1.737   5.264   1.865
19469W        W91817  22.203  21.618   0.320
19470W        W91818   4.866  19.129  12.414
19471W        W91819  16.091  14.292   3.354
19472W        W91820   5.360   1.333   2.865
19473W        W91821  37.480  22.111  10.010
19474W        W91822  10.208   4.818   3.747
19475W        W91823  33.884  19.742  14.400
19476W        W91824  42.845   1.289   3.379
19477W        W91825  27.689  22.133  10.517
19478W        W91826  36.511  13.183  12.502
19479W        W91827  22.057  31.098  11.440
19480W        W91828  24.024  25.586  11.449
19481W        W91829  17.696  43.315   0.891
19482W        W91830  28.954  11.179  12.061
19483W        W91831  39.848  36.967   2.389
19484W        W91832  11.834   0.801   2.669
19485W        W91833  37.892  30.446  12.410
19486W        W91834  17.241  40.973  11.874
19487W        W91835  13.825  39.377  13.435
19488W        W91836  39.326  43.889  12.038
19489W        W91837   0.881  33.024  11.111
19490W        W91838  40.805  42.379   1.355
19491W        W91839  22.635  21.652  13.959
19492W        W91840   1.738  22.611   1.388
19493W        W91841   1.938  14.310   3.146
19494W        W91842  43.841   7.746  14.435
19495W        W91843  27.956  13.738  13.932
19496W        W91844  17.656  19.775  13.986
19497W        W91845  29.142  39.494   4.618
19498W        W91846  33.460  13.768   4.835
19499W        W91847  35.962  28.976  10.642
19500W        W91848  14.108  10.637  10.414
19501W        W91849   4.773  32.500  11.408
19502W        W91850  44.935  32.079  11.039
19503W        W91851  44.851   5.757   4.205
19504W        W91852  40.302  27.090   1.859
19505W        W91853   1.287  39.888  14.420
19506W        W91854   8.836  31.504  10.441
19507W        W91855   3.412  39.423  13.430
19508W        W91856  35.035  23.045   2.270
19509W        W91857  33.984  37.845  14.901
19510W        W91858  40.036  31.069  12.877
19511W        W91859   4.856  34.060   2.259
19512W        W91860  24.007  38.398   1.702
19513W        W91861  37.982  31.420  14.464
19514W        W91862  44.267  26.618  14.281
19515W        W91863   5.235  27.070  12.842
19516W        W91864  44.791   9.814   3.329
19517W        W91865  27.123  41.305  12.452
19518W        W91866   5.348  39.056   0.767
19519W        W91867   4.243  41.410   4.320
19520W        W91868  32.523  34.918  11.424
19521W        W91869  20.662  15.759   4.273
19522W        W91870   9.828  38.833   1.449
19523W        W91871  40.821  29.924  14.280
19524W        W91872  18.713   9.859  12.430
19525W        W91873  35.043  35.534   3.145
19526W        W91874  34.968   1.283  11.096
19527W        W91875  29.951   6.698   9.495
19528W        W91876  19.246  28.601  12.538
19529W        W91877   1.872  21.635  10.540
19530W        W91878  23.113  37.558  14.793
19531W        W91879  13.643  28.953   0.442
19532W        W91880  16.640  23.720   1.210
19533W        W91881  18.136   3.751   4.204
19534W        W91882  17.660  12.303  12.437
19535W        W91883   4.439  44.343   3.701
19536W        W91884  16.307  14.816  13.886
19537W        W91885  11.131  31.581  11.120
19538W        W91886  21.243  39.889   1.700
19539W        W91887  28.456  43.882   1.734
19540W        W91888  16.072  37.514   4.823
19541W        W91889  19.114  31.036   0.774
19542W        W91890  39.817  25.030   5.106
19543W        W91891   8.341   8.786  11.474
19544W        W91892  32.108  40.995   2.356
19545W        W91893  41.322  23.168  10.582
19546W        W91894  13.625   0.353   0.280
19547W        W91895  32.503   7.394  10.921
19548W        W91896  33.074  40.922   4.152
19549W        W91897  38.986  26.698   0.470
19550W        W91898  19.112   9.376   0.833
19551W        W91899  37.944  39.064  12.571
19552W        W91900  39.938  10.221  13.870
19553W        W91901  21.621  18.050   1.296
19554W        W91902  24.512  37.042  10.985
19555W        W91903  38.900   5.848   2.201
19556W        W91904  44.842  37.891   0.274
19557W        W91905   2.955  37.071   1.932
19558W        W91906  30.576  36.063  11.035
19559W        W91907  12.750  19.184  11.508
19560W        W91908  15.213  32.422   4.141
19561W        W91909   1.275  20.156  11.931
19562W        W91910  34.937  29.133   4.782
19563W        W91911  32.912  43.910  12.410
19564W        W91912  13.285  34.492  13.391
19565W        W91913  39.881   1.933   1.777
19566W        W91914  44.865   1.746  12.859
19567W        W91915  36.971  29.473  10.926
19568W        W91916  36.968  21.622   4.598
19569W        W91917  26.489  19.540  12.565
19570W        W91918  31.611  12.137  12.050
19571W        W91919  39.345   3.757  13.383
19572W        W91920  10.862  44.417  10.061
19573W        W91921  37.526  41.839   0.267
19574W        W91922  28.167  32.993   2.727
19575W        W91923  44.400  39.988  10.494
19576W        W91924  30.085   1.887  14.868
19577W        W91925  36.976  25.048   3.721
19578W        W91926  12.170  41.344   1.845
19579W        W91927  21.141   6.837  10.561
19580W        W91928  37.907  29.954  10.897
19581W        W91929   9.643  43.942  12.953
19582W        W91930   1.444   5.436   2.838
19583W        W91931  11.803  19.084   1.314
19584W        W91932   9.160  25.639  14.438
19585W        W91933  28.470  23.073  10.502
19586W        W91934  43.362  44.805  14.338
19587W        W91935  16.734  38.841   4.353
19588W        W91936  33.408   2.829  11.472
19589W        W91937  17.061  17.258   3.799
19590W        W91938  14.159  27.182   4.253
19591W        W91939  14.273  32.026  14.350
19592W        W91940   0.766  42.010   0.417
19593W        W91941  32.574  22.012   1.257
19594W        W91942   9.215   9.158  10.490
19595W        W91943   2.404   2.782  12.997
19596W        W91944   7.857   2.376   2.768
19597W        W91945  35.900  18.064  12.343
19598W        W91946   6.192  28.519  12.495
19599W        W91947  18.237  10.161   0.350
19600W        W91948  36.390  26.468   4.824
19601W        W91949  30.522  42.940   4.742
19602W        W91950  42.971   2.751   4.614
19603W        W91951  17.615  13.153   4.799
19604W        W91952  17.182   5.388   3.655
19605W        W91953   7.877  27.036   1.244
19606W        W91954  26.172  43.361  13.936
19607W        W91955  38.437  31.453  13.916
19608W        W91956  19.136  13.712  11.559
19609W        W91957  18.283  22.676  14.942
19610W        W91958  29.657  23.986  10.639
19611W        W91959  16.575  30.931   0.407
19612W        W91960  17.620  23.608   0.253
19613W        W91961  20.721  12.723   3.654
19614W        W91962   2.340  31.440   4.317
19615W        W91963  17.556  22.733   2.741
19616W        W91964  34.921   1.783  12.079
19617W        W91965  13.194  35.944   1.220
19618W        W91966   3.245   3.442   3.226
19619W        W91967   7.807  29.138  11.387
19620W        W91968  24.041  29.151  10.080
19621W        W91969  27.970  16.139   2.793
19622W        W91970  27.642   9.809   3.634
19623W        W91971   2.442   2.326  14.019
19624W        W91972  21.109  12.653   2.414
19625W        W91973  29.582  25.166  14.916
19626W        W91974  27.035  44.393  11.462
19627W        W91975  32.399   5.391  10.126
19628W        W91976  11.281  29.624  11.440
19629W        W91977  27.460  38.389  11.978
19630W        W91978  26.091  17.155   3.656
19631W        W91979  14.296  33.974   2.878
19632W        W91980   5.306  33.499   0.954
19633W        W91981  43.920  23.697  12.374
19634W        W91982  30.590  16.286  14.913
19635W        W91983   3.336  33.543  10.634
19636W        W91984  29.953  32.474   0.429
19637W        W91985  23.649   5.255   3.749
19638W        W91986  38.571  21.733  12.048
19639W        W91987  44.955  24.115  12.013
19640W        W91988  17.759  38.057  11.403
19641W        W91989   1.955  17.566  12.856
19642W        W91990   6.211   9.385   1.845
19643W        W91991  39.333  19.568  13.826
19644W        W91992  25.988   8.778  12.564
19645W        W91993  12.733  44.504   0.476
19646W        W91994  22.069  43.914   3.186
19647W        W91995  38.474  43.972   3.273
19648W        W91996   8.719  17.156  14.772
19649W        W91997  40.027  26.605   1.931
19650W        W91998  28.649  31.043  12.424
19651W        W91999  43.793  36.850   0.786
19652W        W92000  16.134   5.736  11.467
19653W        W92001  18.137   0.926  11.968
19654W        W92002  37.967  35.966   1.894
19655W        W92003  44.415  42.844  14.315
19656W        W92004  34.986  20.565   5.181
19657W        W92005   2.411  38.963   4.310
19658W        W92006   5.899   3.814   1.812
19659W        W92007  13.312  23.192   4.795
19660W        W92008  36.575  28.590   0.399
19661W        W92009  37.355  29.940   2.197
19662W        W92010  36.360   3.873   3.752
19663W        W92011  39.965  11.333   2.752
19664W        W92012  25.565  14.651  11.055
19665W        W92013  14.679  16.608   0.903
19666W        W92014  43.303  44.874   1.238
19667W        W92015  42.884   8.808  11.401
19668W        W92016  23.536  12.357  10.981
19669W        W92017  24.571  36.354   0.747
19670W        W92018  32.962  35.911  12.447
19671W        W92019  39.934  24.720   0.931
19672W        W92020  37.485  13.657   1.242
19673W        W92021  31.608  29.481  14.341
19674W        W92022   4.349  26.971  11.376
19675W        W92023  26.568  44.755   1.316
19676W        W92024  11.854   4.929  10.106
19677W        W92025  26.641   9.213  11.472
19678W        W92026  23.519  34.491   0.827
19679W        W92027   2.963  29.521   2.210
19680W        W92028  11.192  18.281  14.963
19681W        W92029   3.408  23.630  12.526
19682W        W92030  19.270  43.955   1.830
19683W        W92031  32.034  30.066   4.685
19684W        W92032  14.121  36.903   4.244
19685W        W92033  35.548  34.042  12.405
19686W        W92034  12.752  42.297  14.939
19687W        W92035  20.659  37.983  12.904
19688W        W92036   5.317  44.312   1.734
19689W        W92037  24.553  24.228  10.441
19690W        W92038  44.333   0.867  10.521
19691W        W92039   8.333  40.467  14.957
19692W        W92040   4.839  28.088   4.829
19693W        W92041   9.760  25.476   2.844
19694W        W92042  37.488  37.339  12.895
19695W        W92043  25.619   1.273   4.679
19696W        W92044  18.637  10.319   3.758
19697W        W92045  21.672  36.006  14.939
19698W        W92046  44.817   7.231   4.182
19699W        W92047  29.608   2.382   0.450
19700W        W92048  38.477  22.541   1.438
19701W        W92049  20.195  16.670  13.919
19702W        W92050  42.812   0.792   4.701
19703W        W92051   5.217   1.292   1.405
19704W        W92052  39.816  29.610   2.704
19705W        W92053   0.293  39.395  14.382
19706W        W92054  11.688  23.703   1.801
19707W        W92055   6.423  30.630  13.371
19708W        W92056  25.504  33.559   1.447
19709W        W92057  13.325  20.605  12.537
19710W        W92058  15.093  11.165  10.926
19711W        W92059  36.350   0.421  11.498
19712W        W92060  29.624  41.399  10.138
19713W        W92061  31.585   4.388   2.893
19714W        W92062  16.158  42.418   0.401
19715W        W92063  29.117   4.385   3.701
19716W        W92064  35.072   8.660  14.810
19717W        W92065  39.897  21.690  11.064
19718W        W92066  27.682   3.453  12.483
19719W        W92067  24.614  19.658   3.849
19720W        W92068   5.690  22.612  12.390
19721W        W92069  26.000  23.057  11.566
19722W        W92070  17.788  12.253  14.495
19723W        W92071  10.337   8.861   3.282
19724W        W92072  36.968  25.618   2.221
19725W        W92073  29.482  42.874   2.715
19726W        W92074  37.441  39.032  11.424
19727W        W92075  10.815  39.063   2.812
19728W        W92076  12.140  21.076   2.665
19729W        W92077  29.655   5.386   2.830
19730W        W92078  30.104  13.223   4.177
19731W        W92079  15.088  30.422  12.375
19732W        W92080  39.314  30.440  12.884
19733W        W92081  33.444   1.447  13.379
19734W        W92082  16.297  28.440   0.795
19735W        W92083   2.440   1.344  10.973
19736W        W92084   0.317  37.855   4.801
19737W        W92085  39.454  26.509  13.036
19738W        W92086   3.833  25.541  14.980
19739W        W92087  26.015  22.614  13.831
19740W        W92088  36.045  14.827  12.026
19741W        W92089  11.248  26.969   3.691
19742W        W92090  18.703  44.392  12.859
19743W        W92091  25.041  27.609   2.841
19744W        W92092   7.726   1.394  10.567
19745W        W92093   6.754  13.333  13.041
19746W        W92094   9.171   3.450   2.185
19747W        W92095  44.778  28.944  11.007
19748W        W92096   1.459  41.013  13.888
19749W        W92097  11.242   8.864   3.675
19750W        W92098  17.721  16.306   2.725
19751W        W92099  14.594  30.158  12.392
19752W        W92100  35.933   0.859   3.830
19753W        W92101  31.926  42.461  14.989
19754W        W92102  24.587  34.933  12.575
19755W        W92103   0.410  16.113   0.399
19756W        W92104  44.829  26.499  11.943
19757W        W92105  21.568  16.217  11.985
19758W        W92106   3.782  14.129   5.277
19759W        W92107   9.688  19.128   9.659
19760W        W92108  16.743  32.924  11.409
19761W        W92109  19.238  14.119  11.057
19762W        W92110  31.492  34.563  14.473
19763W        W92111  28.132  39.036   5.319
19764W        W92112  30.641  21.680   3.792
19765W        W92113  43.947   3.787  13.411
19766W        W92114  13.827   0.293  12.856
19767W        W92115  30.470  10.676   2.840
19768W        W92116  19.678  18.788  14.862
19769W        W92117  15.632  43.893   3.347
19770W        W92118  42.783  16.758   4.680
19771W        W92119  15.775  38.062   4.211
19772W        W92120  19.093  29.460   5.144
19773W        W92121  22.603  12.811   4.653
19774W        W92122  42.806  10.295  10.999
19775W        W92123  12.800   0.798  13.055
19776W        W92124   5.891  15.633  12.076
19777W        W92125   7.379   7.221  12.511
19778W        W92126  19.159  35.040  14.986
19779W        W92127  35.071  19.692   0.923
19780W        W92128  42.801   7.750   1.870
19781W        W92129  32.929  14.590  14.408
19782W        W92130   7.377  20.042  11.017
19783W        W92131  42.874  40.814   1.823
19784W        W92132  24.100  32.052  14.930
19785W        W92133   1.960   0.370   3.226
19786W        W92134  12.721  40.803  14.915
19787W        W92135  28.568  36.492   3.704
19788W        W92136  24.146  42.433  12.497
19789W        W92137  32.089  41.865   0.320
19790W        W92138  13.738  10.764  13.505
19791W        W92139  41.923  44.373   0.931
19792W        W92140   8.260   4.419   1.214
19793W        W92141  37.950  18.645  14.477
19794W        W92142   7.319  11.194  10.433
19795W        W92143  31.011  44.307  13.366
19796W        W92144  14.160   6.360   1.328
19797W        W92145  21.756   8.781   2.393
19798W        W92146   2.377  28.179  10.157
19799W        W92147   5.876  37.846   0.814
19800W        W92148  31.645  17.583  12.841
19801W        W92149  41.439  34.889  13.416
19802W        W92150  24.216  30.641   2.347
19803W        W92151  20.564  35.045  11.394
19804W        W92152  20.060  42.302   4.760
19805W        W92153  14.656  29.479   3.758
19806W        W92154  35.859  20.744   5.587
19807W        W92155  20.601   2.450   2.333
19808W        W92156  42.976  19.247   4.751
19809W        W92157  19.086  24.110  14.767
19810W        W92158  13.217   8.278   2.831
19811W        W92159   4.285  30.619   0.372
19812W        W92160  27.943  19.571  11.000
19813W        W92161  12.725  11.163   0.868
19814W        W92162   3.393  43.466   3.684
19815W        W92163  40.371  29.526   4.712
19816W        W92164  19.667  30.062   0.910
19817W        W92165  32.918  14.140   2.351
19818W        W92166  42.779  14.103  13.538
19819W        W92167  27.984  24.700  12.406
19820W        W92168   2.366  20.747  12.834
19821W        W92169   9.300  39.854   3.715
19822W        W92170   9.301  10.655  11.095
19823W        W92171   3.926  44.265  12.426
19824W        W92172  27.167  33.893  11.405
19825W        W92173   5.330  43.873  13.883
19826W        W92174   8.874  26.167  12.580
19827W        W92175  19.757  23.127   1.803
19828W        W92176  12.122  10.318  12.934
19829W        W92177  29.496  32.913   3.301
19830W        W92178  25.997  15.134   1.929
19831W        W92179  35.951  20.752   0.899
19832W        W92180  22.220  37.998   4.604
19833W        W92181  38.419  15.099  13.801
19834W        W92182  31.404  25.707   0.960
19835W        W92183  18.781  13.722  14.787
19836W        W92184  13.134  23.230  11.892
19837W        W92185   6.297   8.405   1.784
19838W        W92186   4.799  21.157  11.578
19839W        W92187  27.031  15.821  14.497
19840W        W92188   3.252  20.529  13.443
19841W        W92189  38.837  14.197  10.640
19842W        W92190  15.219  24.504   1.906
19843W        W92191  22.049   6.914   0.802
19844W        W92192   5.233  23.636  14.957
19845W        W92193  35.935  11.168   0.762
19846W        W92194   9.309   9.341  12.392
19847W        W92195  28.441  15.223   2.667
19848W        W92196   2.771  17.184   3.290
19849W        W92197  18.734  26.969  12.879
19850W        W92198  32.008  24.051   1.386
19851W        W92199  16.165   6.376  13.993
19852W        W92200  37.945  40.345   1.384
19853W        W92201  33.464  35.919  12.566
19854W        W92202  37.895  20.583  12.459
19855W        W92203  32.998  10.336  13.939
19856W        W92204  19.094  41.921  12.912
19857W        W92205  39.509  18.166  11.043
19858W        W92206  26.545  40.548   2.842
19859W        W92207  21.677  17.615   2.854
19860W        W92208  34.534  19.154   2.688
19861W        W92209  36.995  31.635   3.652
19862W        W92210  26.467  21.645   0.364
19863W        W92211  38.033   3.438   1.365
19864W        W92212   9.348  35.939  14.443
19865W        W92213   1.746  14.270  12.512
19866W        W92214  10.178  34.023   1.246
19867W        W92215  43.355  25.015  10.428
19868W        W92216  37.390  40.461  12.530
19869W        W92217  40.549  37.064   0.821
19870W        W92218  35.855  19.257   4.616
19871W        W92219  34.011  19.105  12.525
19872W        W92220  34.423  33.029   3.772
19873W        W92221  33.572  44.994   0.263
19874W        W92222   4.221  37.572   0.877
19875W        W92223  23.541  10.826   0.896
19876W        W92224   2.894   6.901  12.580
19877W        W92225  18.683  19.241   0.815
19878W        W92226  19.214   0.753  10.489
19879W        W92227   7.876  30.554  12.835
19880W        W92228  19.641   5.333  11.991
19881W        W92229  25.177  25.642  11.963
19882W        W92230  32.525  41.794  10.892
19883W        W92231  13.308  37.931  13.858
19884W        W92232   3.727  13.321  13.951
19885W        W92233  18.553   4.771  10.012
19886W        W92234  37.839  19.081   1.839
19887W        W92235  29.122  41.988   0.474
19888W        W92236  44.388   3.393  12.480
19889W        W92237  20.630  20.136  14.021
19890W        W92238  15.264  36.888  10.482
19891W        W92239  19.273  44.445   1.223
19892W        W92240  17.214  23.081  10.606
19893W        W92241  26.038  40.536   3.666
19894W        W92242  38.933  16.174  12.900
19895W        W92243  17.722  32.538   3.809
19896W        W92244  28.505   0.328   1.699
19897W        W92245  24.012   2.954  13.486
19898W        W92246  21.089  24.692   4.732
19899W        W92247  22.723  13.746  13.946
19900W        W92248  44.875   0.960   3.148
19901W        W92249   9.846  28.141  12.550
19902W        W92250  27.684  32.990  13.977
19903W        W92251  25.707   5.438   4.802
19904W        W92252  18.717  19.071   4.794
19905W        W92253   9.329  37.534   1.798
19906W        W92254  24.626  23.628   4.643
19907W        W92255  39.993  28.131   2.410
19908W        W92256  18.124  33.031  12.887
19909W        W92257  13.157  20.257  12.541
19910W        W92258  17.292  26.495  13.404
19911W        W92259  39.003  12.739   5.127
19912W        W92260  14.604  22.724   1.325
19913W        W92261   1.902  41.531   2.239
19914W        W92262   7.366  18.133  10.460
19915W        W92263  38.413  33.109  14.275
19916W        W92264  40.318  32.569  10.563
19917W        W92265  44.790  17.224  10.953
19918W        W92266  29.550  41.983   1.927
19919W        W92267  37.940  15.207  11.105
19920W        W92268  24.159  41.519   0.842
19921W        W92269   2.260  44.914  10.508
19922W        W92270  34.941  14.110   2.734
19923W        W92271  19.164   6.747  14.911
19924W        W92272  29.942   6.701   5.627
19925W        W92273  43.318  21.668  14.015
19926W        W92274  19.542  36.373   0.425
19927W        W92275  43.892  42.030   2.852
19928W        W92276  10.373  22.558   0.862
19929W        W92277  37.507  12.305  13.338
19930W        W92278  10.797  27.490  11.525
19931W        W92279  15.303  38.339  12.380
19932W        W92280  29.647  33.427   3.381
19933W        W92281  33.013   5.275   5.196
19934W        W92282  33.612  22.154   0.361
19935W        W92283   9.881  19.132  12.020
19936W        W92284  29.577  31.641  13.902
19937W        W92285  21.556  40.446  11.454
19938W        W92286  18.277   6.267   3.678
19939W        W92287  28.647  25.157   2.797
19940W        W92288   9.864  14.776  14.368
19941W        W92289  20.121  28.484   2.728
19942W        W92290  26.979  24.702   2.241
19943W        W92291   6.849  44.365  11.909
19944W        W92292  30.096   2.315   4.167
19945W        W92293  15.091  16.128   3.248
19946W        W92294  18.634   0.275   2.289
19947W        W92295   3.313  34.385   4.803
19948W        W92296  35.910  38.390  14.860
19949W        W92297  39.053  43.327   1.249
19950W        W92298   8.781  11.812  10.506
19951W        W92299  34.518  16.299   2.365
19952W        W92300  40.544  17.247  12.512
19953W        W92301   8.804  25.584   3.342
19954W        W92302  23.059   1.397   3.865
19955W        W92303  43.813   1.294   2.786
19956W        W92304   8.160  18.075  12.426
19957W        W92305   0.447  27.053   4.197
19958W        W92306  43.398  41.922  12.535
19959W        W92307  13.764  42.998   2.683
19960W        W92308   8.350  28.631  11.433
19961W        W92309  15.715  38.837  12.971
19962W        W92310  18.672  12.312  13.400
19963W        W92311  29.996  33.561   1.321
19964W        W92312   0.869   3.258   2.812
19965W        W92313  24.077  30.438  10.516
19966W        W92314  44.783  23.126  12.577
19967W        W92315   7.683  38.976  14.341
19968W        W92316  24.655   9.757   5.211
19969W        W92317  32.462   2.941  13.511
19970W        W92318   3.811  27.562  14.997
19971W        W92319  10.864   7.344  10.519
19972W        W92320  29.578   0.323  13.541
19973W        W92321  38.981  43.968   1.784
19974W        W92322  20.748  21.693   2.291
19975W        W92323   2.910  14.607   1.934
19976W        W92324  10.693  23.591  10.480
19977W        W92325  12.649  37.962  12.004
19978W        W92326  20.703  19.099  10.449
19979W        W92327   7.752  22.558  13.375
19980W        W92328  34.870  16.697  11.855
19981W        W92329  13.168  19.641   4.716
19982W        W92330   5.871  31.120  14.378
19983W        W92331  20.729  14.681   2.195
19984W        W92332  25.469  22.086  10.907
19985W        W92333  39.015   0.393  13.387
19986W        W92334  13.343  23.203   4.296
19987W        W92335  11.224  29.547  14.494
19988W        W92336  38.921  24.172  12.436
19989W        W92337  16.711  44.469  14.386
19990W        W92338   4.736  19.691  14.457
19991W        W92339  40.475   6.221   2.230
19992W        W92340  28.552  27.500  12.509
19993W        W92341  42.001  37.563  14.341
19994W        W92342  39.899  32.989  12.514
19995W        W92343  43.430  14.128   4.129
19996W        W92344  12.807  39.870  11.948
19997W        W92345  32.397  21.023   0.254
19998W        W92346   1.274  19.735   3.852
19999W        W92347   8.248   4.449  14.791
20000W        W92348  10.789  28.935   3.774
20001W        W92349   9.254  18.736   0.248
20002W        W92350  20.032  15.712  14.436
20003W        W92351  14.291  44.837   0.752
20004W        W92352  36.462  28.475  13.479
20005W        W92353  20.670  43.442  14.996
20006W        W92354  35.521  12.663   2.195
20007W        W92355  20.733  42.920   2.880
20008W        W92356  42.294  16.175  10.437
20009W        W92357  43.304  13.327   0.267
20010W        W92358  41.503  37.844  14.435
20011W        W92359   1.259  24.559   3.227
20012W        W92360  41.508  16.104   4.124
20013W        W92361  14.668  27.568   0.396
20014W        W92362   6.873   8.290  10.452
20015W        W92363   2.864   8.793   4.248
20016W        W92364  38.348   1.461   4.807
20017W        W92365  32.141  16.242   1.411
20018W        W92366   1.910  22.137   2.410
20019W        W92367  32.528  14.645  14.439
20020W        W92368  18.282  43.994   0.259
20021W        W92369  39.841  10.874  10.572
20022W        W92370  16.762  19.615   2.204
20023W        W92371  12.209  22.503  12.861
20024W        W92372  27.692  11.342   2.680
20025W        W92373  41.800  23.152   0.327
20026W        W92374  10.818   7.785  10.970
20027W        W92375  29.605  42.963   4.301
20028W        W92376  42.868  40.800  14.770
20029W        W92377  44.854  42.947  14.797
20030W        W92378   2.404   0.788  10.553
20031W        W92379  37.540  39.842   1.821
20032W        W92380   8.705   3.949   3.233
20033W        W92381  17.663  19.186  10.635
20034W        W92382  34.463   1.834  13.905
20035W        W92383   6.392  22.515   3.746
20036W        W92384  15.296  37.389  13.343
20037W        W92385  38.492  10.213  11.524
20038W        W92386  32.443   9.350  10.480
20039W        W92387   3.220  15.697  12.890
20040W        W92388   5.771   6.767  13.391
20041W        W92389  43.870  43.781  10.421
20042W        W92390   5.930  23.664  13.373
20043W        W92391  14.826   8.375   0.263
20044W        W92392  12.642  41.816   3.728
20045W        W92393  10.228   7.184  13.376
20046W        W92394  10.163  30.026  14.781
20047W        W92395  41.958   6.333  13.804
20048W        W92396  21.687  40.926   1.275
20049W        W92397  26.095  17.680   3.239
20050W        W92398  31.108  33.413  11.503
20051W        W92399  29.636  33.419  11.948
20052W        W92400  20.627  36.944   3.847
20053W        W92401   3.281  12.641  12.444
20054W        W92402  16.287   3.387  14.321
20055W        W92403  42.805  28.096  13.389
20056W        W92404  40.311  12.767   1.900
20057W        W92405  43.011  40.505   5.171
20058W        W92406  39.819  43.837  12.426
20059W        W92407   8.329  15.159   4.724
20060W        W92408  34.467  34.584  10.953
20061W        W92409  14.796  22.531  12.841
20062W        W92410  38.402   7.380  13.501
20063W        W92411  36.544  15.806  13.367
20064W        W92412  43.369   6.771  14.931
20065W        W92413  43.935  36.943  13.845
20066W        W92414   7.883  23.997   0.276
20067W        W92415  10.226   4.246  14.313
20068W        W92416  12.154   1.327   4.227
20069W        W92417  39.350   3.824   4.329
20070W        W92418  39.425  23.616   2.200
20071W        W92419   9.229  17.681  12.078
20072W        W92420  25.979  31.033   3.358
20073W        W92421  14.685   5.418   1.382
20074W        W92422  18.109  33.924  11.385
20075W        W92423  31.574  32.106  10.564
20076W        W92424  20.274  40.534   0.252
20077W        W92425  42.917  29.520  14.973
20078W        W92426   1.959  18.262  14.785
20079W        W92427  21.156  25.567  13.010
20080W        W92428   5.843  27.180  11.022
20081W        W92429  14.267  10.276   2.844
20082W        W92430  26.697  38.907  14.283
20083W        W92431   3.341  42.880  11.576
20084W        W92432  19.196  18.175  11.525
20085W        W92433  30.445  22.715  14.514
20086W        W92434  32.098  28.933   4.155
20087W        W92435  19.599  36.028   4.119
20088W        W92436  38.465  11.748  13.471
20089W        W92437  39.450  43.318  10.580
20090W        W92438  14.172  32.402  13.993
20091W        W92439  42.377  34.611   2.799
20092W        W92440  33.490  14.187   1.438
20093W        W92441   9.330  29.571   2.326
20094W        W92442  37.948  12.255  12.361
20095W        W92443  10.255  29.979   3.677
20096W        W92444  15.173  38.919   2.888
20097W        W92445  17.629  30.117  11.419
20098W        W92446  35.444  12.249  13.901
20099W        W92447  24.571  30.453  12.002
20100W        W92448   2.819   7.733   2.740
20101W        W92449   6.212  32.421  10.069
20102W        W92450  37.367  25.633  12.391
20103W        W92451  24.058  39.048  11.887
20104W        W92452   4.215  16.608  14.278
20105W        W92453  41.923  38.524   4.216
20106W        W92454  42.951   4.395  11.110
20107W        W92455  11.763  22.125   3.193
20108W        W92456  36.470  36.522   2.823
20109W        W92457  28.062  44.446   3.670
20110W        W92458  23.503   6.918  11.599
20111W        W92459  29.146  23.011  14.332
20112W        W92460  32.897  37.434   4.266
20113W        W92461  44.926   6.887   0.358
20114W        W92462   2.835  24.034   3.689
20115W        W92463  22.633  24.128  14.905
20116W        W92464  18.578  34.884   3.777
20117W        W92465  18.590   5.289   2.388
20118W        W92466  20.558  30.053   1.723
20119W        W92467   9.760  24.153  14.301
20120W        W92468   1.241   0.751  13.444
20121W        W92469  31.093  40.498   1.296
20122W        W92470  38.983  15.735   5.227
20123W        W92471  23.493   8.726   5.271
20124W        W92472  25.593  34.963   2.777
20125W        W92473  13.249   2.263  11.066
20126W        W92474  42.354  31.138   3.855
20127W        W92475   7.808  32.630   3.350
20128W        W92476  40.970  16.783   3.813
20129W        W92477  41.019   0.988  14.815
20130W        W92478   0.915  40.861  11.417
20131W        W92479  10.272  19.779  13.969
20132W        W92480  31.147  12.792   1.743
20133W        W92481  30.988  20.739   0.391
20134W        W92482  21.134  28.134  10.911
20135W        W92483   3.454  39.380   0.463
20136W        W92484  35.105   4.730  11.077
20137W        W92485   5.323  36.966   4.230
20138W        W92486  32.024  21.613   0.787
20139W        W92487  32.954  44.364  10.618
20140W        W92488  31.498  34.037   2.711
20141W        W92489   5.200  20.169   0.808
20142W        W92490  35.582   1.949  11.028
20143W        W92491  13.149  18.257   3.330
20144W        W92492  32.597  31.569  14.321
20145W        W92493  23.239  41.881   0.745
20146W        W92494  15.126   0.448   2.250
20147W        W92495   6.701   2.425  12.006
20148W        W92496   6.874  37.406   4.632
20149W        W92497   3.232  11.365   0.459
20150W        W92498   6.816  30.006   3.158
20151W        W92499   3.876  13.601   0.887
20152W        W92500  34.615   0.301  11.868
20153W        W92501  43.011  37.404   1.297
20154W        W92502  28.972   9.883  11.908
20155W        W92503  23.615  39.492  14.950
20156W        W92504   5.361   8.319   4.822
20157W        W92505  23.171   4.244  13.959
20158W        W92506   8.377  19.186   0.286
20159W        W92507  38.431  24.699  14.471
20160W        W92508  29.516  41.493   5.212
20161W        W92509  38.466  10.674  10.515
20162W        W92510  40.928  10.690   0.735
20163W        W92511  14.309   7.784   3.367
20164W        W92512   0.969  26.479  13.492
20165W        W92513  34.527  27.974   1.317
20166W        W92514   4.932   2.447  12.823
20167W        W92515  18.067  20.674   4.709
20168W        W92516   5.829   0.778   0.952
20169W        W92517  19.253  17.786   3.156
20170W        W92518   2.794  23.654   0.820
20171W        W92519  21.702  31.585  14.971
20172W        W92520  39.471  17.587   0.849
20173W        W92521  19.256  22.197   1.756
20174W        W92522  32.953  30.095  11.591
20175W        W92523  43.810  16.593   4.835
20176W        W92524  22.701  34.567  14.366
20177W        W92525  13.138  36.872  11.611
20178W        W92526  37.060  44.007  11.510
20179W        W92527  29.621  22.685   1.724
20180W        W92528  24.990   6.388  11.097
20181W        W92529  21.208  12.642   4.622
20182W        W92530  28.568  28.024   2.280
20183W        W92531  39.434  18.605   2.880
20184W        W92532  37.532  20.600   2.363
20185W        W92533  32.956  37.022   1.916
20186W        W92534  18.242  25.161   1.299
20187W        W92535  31.591  20.067  11.565
20188W        W92536  38.440   0.343  14.404
20189W        W92537  15.230  38.951  11.409
20190W        W92538   9.846   9.237  10.905
20191W        W92539   1.862  24.048  13.957
20192W        W92540  35.533  10.169   1.356
20193W        W92541  39.402  21.589   1.894
20194W        W92542  31.937  14.719  11.448
20195W        W92543  28.080   6.866   1.722
20196W        W92544  26.523  26.669   5.097
20197W        W92545  35.434  29.567  13.900
20198W        W92546  26.116  10.367   2.719
20199W        W92547   1.789   7.350  10.897
20200W        W92548  13.191  30.523   5.277
20201W        W92549   8.322  31.405  12.842
20202W        W92550  34.573  35.545  11.889
20203W        W92551  29.605  27.607  12.845
20204W        W92552  24.543  40.873   4.690
20205W        W92553  31.434   2.368   2.207
20206W        W92554  41.031  10.217   1.360
20207W        W92555   8.165  37.382  11.981
20208W        W92556   9.740   9.388  11.465
20209W        W92557  21.645   9.793   4.645
20210W        W92558  34.524  10.312  14.280
20211W        W92559  27.663  23.216   0.964
20212W        W92560  40.893  37.976  13.977
20213W        W92561  34.940   4.852   4.242
20214W        W92562  12.805   1.345  14.977
20215W        W92563  27.575  23.589   2.850
20216W        W92564  11.320  25.632  10.452
20217W        W92565  26.094  36.489   0.949
20218W        W92566   8.259  10.346   2.832
20219W        W92567  15.797  44.774   4.230
20220W        W92568  37.020  36.024   2.901
20221W        W92569  29.624   9.336  14.790
20222W        W92570  32.929  12.251  12.029
20223W        W92571  34.108  28.964  14.822
20224W        W92572  18.125  40.478   1.754
20225W        W92573  15.228  35.585   1.247
20226W        W92574  27.564   7.242   2.875
20227W        W92575  28.477  21.086   0.741
20228W        W92576  41.866   1.441   1.876
20229W        W92577  18.127  24.628   1.437
20230W        W92578  10.236  44.878  11.394
20231W        W92579  20.585  25.138  12.548
20232W        W92580  29.927  10.377   3.175
20233W        W92581   2.379  21.114  13.352
20234W        W92582  26.469  25.218  13.905
20235W        W92583  41.500  18.193   3.294
20236W        W92584  34.030  34.426   4.322
20237W        W92585  39.494  44.998  13.948
20238W        W92586  29.509  16.146  13.334
20239W        W92587   4.264  38.498  12.470
20240W        W92588  41.887  16.291   1.370
20241W        W92589   4.382  30.928   3.681
20242W        W92590  12.775  37.915   2.820
20243W        W92591  23.154  37.014   1.257
20244W        W92592   5.324  44.296  10.581
20245W        W92593  22.155  40.858  12.942
20246W        W92594  18.197   2.338   1.214
20247W        W92595  13.236   0.818  12.989
20248W        W92596  33.033   8.893  14.030
20249W        W92597  22.552  16.633   4.772
20250W        W92598  40.472  33.074  14.847
20251W        W92599  18.778  28.508   0.397
20252W        W92600  39.926  33.127   1.212
20253W        W92601  15.586   5.394  14.336
20254W        W92602  43.982  18.131   4.346
20255W        W92603   0.312  42.965   2.865
20256W        W92604  17.767  37.558  12.865
20257W        W92605  10.639  17.628  10.599
20258W        W92606  37.400  12.624   0.878
20259W        W92607   2.952  33.081   0.444
20260W        W92608  23.641  18.710   1.773
20261W        W92609   1.818  16.256  10.455
20262W        W92610   5.420  16.293  13.504
20263W        W92611  31.644  37.342  13.506
20264W        W92612  23.624  35.552   3.317
20265W        W92613   9.777  20.681  12.403
20266W        W92614  21.559  14.255  10.912
20267W        W92615   7.174  12.228   2.704
20268W        W92616   9.272  19.594  14.860
20269W        W92617   4.930  16.717   4.688
20270W        W92618  27.025  22.572  12.573
20271W        W92619  29.449  36.877  13.512
20272W        W92620  32.458  17.775  14.432
20273W        W92621  30.961   1.404  13.989
20274W        W92622   0.750  31.117   2.392
20275W        W92623  18.101  19.078  10.962
20276W        W92624   2.469  32.137   0.417
20277W        W92625  24.012  42.919   4.654
20278W        W92626  20.677  18.250  12.865
20279W        W92627  10.360  14.144  11.048
20280W        W92628  19.688  12.174  13.335
20281W        W92629  39.848  40.875  12.457
20282W        W92630   8.162  10.765   0.776
20283W        W92631  22.635  22.203  14.860
20284W        W92632  21.147   0.786  12.347
20285W        W92633   9.371  11.741  14.435
20286W        W92634  15.664  34.946  11.596
20287W        W92635   6.854  41.860  11.025
20288W        W92636  15.156   4.246  12.539
20289W        W92637  35.048   9.829   1.915
20290W        W92638   8.325  43.769  13.818
20291W        W92639   3.385  35.428   4.308
20292W        W92640  12.848  41.305  14.350
20293W        W92641  18.769   3.937   4.266
20294W        W92642  30.465   7.318  13.937
20295W        W92643  16.088  23.142  12.873
20296W        W92644  13.238   0.871   5.141
20297W        W92645  41.514   1.802  14.328
20298W        W92646   6.783  26.978   2.683
20299W        W92647  32.570  27.090  14.970
20300W        W92648   7.277  36.852   2.670
20301W        W92649  20.530  29.638  11.016
20302W        W92650   8.312  16.680  14.863
20303W        W92651  44.361  12.268  13.323
20304W        W92652  27.562  11.358   3.179
20305W        W92653  24.693  36.866  13.324
20306W        W92654  39.351  19.546   2.249
20307W        W92655   9.822   6.718  12.918
20308W        W92656   2.764  27.492   1.755
20309W        W92657  41.024   4.283   4.650
20310W        W92658  19.066  17.746  12.354
20311W        W92659  20.722   2.376  10.615
20312W        W92660  40.842  19.742   3.204
20313W        W92661  11.858   7.379  14.453
20314W        W92662  35.387  37.424  13.890
20315W        W92663   7.180   0.425   2.246
20316W        W92664  27.619   7.817  14.955
20317W        W92665   5.249  42.964   4.303
20318W        W92666  33.525  34.863   3.291
20319W        W92667  14.165   6.324   0.357
20320W        W92668  23.232  12.332  14.457
20321W        W92669  30.578  40.036  11.016
20322W        W92670  21.057  12.742  10.624
20323W        W92671  22.661  25.654   2.892
20324W        W92672  39.973  43.284  13.021
20325W        W92673  18.752   7.368  10.627
20326W        W92674   3.910  13.828   4.347
20327W        W92675  29.993   1.245   3.805
20328W        W92676   4.841   2.291   2.746
20329W        W92677   8.865  22.189  13.452
20330W        W92678  40.040  11.340   0.405
20331W        W92679  31.592  22.650   0.326
20332W        W92680  33.921  37.062   5.615
20333W        W92681  17.632  42.855   1.815
20334W        W92682  44.322  25.677   2.275
20335W        W92683   1.959  27.175   2.366
20336W        W92684  27.553  27.642  11.562
20337W        W92685  36.508   4.342  11.017
20338W        W92686  21.141   0.401   2.352
20339W        W92687  39.483  13.788   1.420
20340W        W92688  29.556  19.653  11.539
20341W        W92689   8.301  14.723   4.256
20342W        W92690  13.686  40.372  12.518
20343W        W92691   0.769  24.994   1.395
20344W        W92692   5.423  30.470   2.768
20345W        W92693  19.776  37.419   1.746
20346W        W92694  28.099  33.573   5.129
20347W        W92695  39.889  31.140  11.985
20348W        W92696  15.237  26.126   4.116
20349W        W92697  26.523  36.464  10.441
20350W        W92698   9.303  39.482   2.738
20351W        W92699  23.717  11.796   1.723
20352W        W92700  34.408   5.925   3.198
20353W        W92701   5.203  44.487  13.443
20354W        W92702   6.771  26.153   0.831
20355W        W92703  30.563  20.235   1.410
20356W        W92704   9.295  30.006  13.381
20357W        W92705  36.403   9.261   1.354
20358W        W92706   8.321   5.760   2.736
20359W        W92707  29.003  33.986  13.835
20360W        W92708   4.848   7.299  12.486
20361W        W92709  26.106  10.654   4.162
20362W        W92710  16.198  19.235  12.428
20363W        W92711   4.223  40.936   2.363
20364W        W92712  18.282   8.294   4.647
20365W        W92713  44.836  30.601  14.830
20366W        W92714   6.912  40.437  11.896
20367W        W92715  21.741  17.195   4.236
20368W        W92716   2.746  38.894   1.717
20369W        W92717  15.194  22.505   3.156
20370W        W92718  34.509  44.912  14.450
20371W        W92719  18.135  10.275  10.963
20372W        W92720   7.841  39.403   2.295
20373W        W92721  12.840  43.424   2.304
20374W        W92722  41.432  18.169   1.780
20375W        W92723  17.756  37.072   3.205
20376W        W92724  34.101   0.255  10.901
20377W        W92725  14.760  24.198   9.930
20378W        W92726  25.183  32.944   0.889
20379W        W92727  20.120  37.015   1.392
20380W        W92728   6.400   0.298  11.039
20381W        W92729  35.977  20.272  13.054
20382W        W92730   2.787  29.019   2.403
20383W        W92731   5.245  39.874   0.382
20384W        W92732  22.739   9.771  12.967
20385W        W92733  19.222  38.516   1.252
20386W        W92734   4.347  22.717   0.850
20387W        W92735  30.000   7.767  11.374
20388W        W92736  21.261  38.345   1.867
20389W        W92737  16.226  38.539  10.961
20390W        W92738  38.407  28.639  14.021
20391W        W92739  29.479  12.258  13.909
20392W        W92740  20.539  44.267  12.005
20393W        W92741  35.377  25.148   3.297
20394W        W92742   4.874   2.420  13.319
20395W        W92743   9.291  25.468   0.281
20396W        W92744  33.425  11.807   1.225
20397W        W92745  21.243  39.337  11.957
20398W        W92746  13.624   7.889  12.070
20399W        W92747  41.803   7.784  10.979
20400W        W92748  40.052  39.538  11.907
20401W        W92749  10.167  23.229   2.819
20402W        W92750  17.597  21.183  13.444
20403W        W92751  31.029  28.960  11.111
20404W        W92752  10.372  42.973   3.170
20405W        W92753  44.305  15.685  13.473
20406W        W92754  30.996  37.408   2.779
20407W        W92755  31.922  20.747  10.915
20408W        W92756  21.263  22.087  13.848
20409W        W92757  43.896  35.545   0.377
20410W        W92758   4.407  28.127  10.932
20411W        W92759  32.495  39.847  14.314
20412W        W92760  41.919   5.311  10.503
20413W        W92761  24.143  44.341   0.958
20414W        W92762  36.055   6.702  13.388
20415W        W92763   0.341  28.444   4.711
20416W        W92764  12.847   0.758   4.153
20417W        W92765  30.995   7.783  12.878
20418W        W92766  35.859  34.102   2.354
20419W        W92767   8.676  13.766   4.181
20420W        W92768  22.573   0.486   4.283
20421W        W92769  15.672  30.499   1.434
20422W        W92770  42.922  27.062  11.417
20423W        W92771  10.233  16.607   1.355
20424W        W92772   9.803  28.097  11.378
20425W        W92773  38.983  29.121  13.025
20426W        W92774  20.175  38.056  12.579
20427W        W92775  23.229  38.468   3.712
20428W        W92776  34.866  33.082   0.787
20429W        W92777  12.258  26.986   3.319
20430W        W92778  30.989  13.135  13.337
20431W        W92779  35.956  12.238   4.334
20432W        W92780   2.249  14.637   3.644
20433W        W92781  22.021  41.974  13.909
20434W        W92782   9.204  38.474   0.767
20435W        W92783  21.639  26.551   0.776
20436W        W92784  42.999  24.194   0.274
20437W        W92785  43.336   3.730  12.381
20438W        W92786  14.111   5.863   1.754
20439W        W92787  26.695  36.911  10.966
20440W        W92788   8.235  21.694  14.492
20441W        W92789  34.373  36.482   1.328
20442W        W92790  10.153  32.930  10.921
20443W        W92791  11.373  16.744   2.248
20444W        W92792  40.406  14.242   1.272
20445W        W92793  15.126   2.828   2.826
20446W        W92794  37.861  39.552   3.375
20447W        W92795  28.677  10.320  12.409
20448W        W92796   7.241   1.818  10.625
20449W        W92797  27.496  12.246   0.299
20450W        W92798  32.989  20.167  10.583
20451W        W92799  42.914  33.556  11.990
20452W        W92800  29.025  26.023  12.447
20453W        W92801  20.100  14.258   4.154
20454W        W92802   0.985  26.678  10.023
20455W        W92803   4.706   9.753  12.379
20456W        W92804  38.428  14.756  10.475
20457W        W92805   4.204  37.957  11.876
20458W        W92806  21.540   9.774  13.535
20459W        W92807  26.640  15.218  12.972
20460W        W92808   3.224   4.852  12.344
20461W        W92809  25.543  23.135   2.900
20462W        W92810  19.544  29.170   4.319
20463W        W92811  27.094  34.956   2.386
20464W        W92812  17.285   2.380   3.741
20465W        W92813   0.267  40.338  14.414
20466W        W92814  31.130   3.370   3.349
20467W        W92815  16.812  25.996   2.300
20468W        W92816  24.501  20.032   2.879
20469W        W92817  13.744   0.831   0.462
20470W        W92818  24.669  35.021   1.299
20471W        W92819  17.095  30.117  13.310
20472W        W92820   8.715  35.930   0.918
20473W        W92821   3.278  19.177  10.489
20474W        W92822   2.429  31.562  12.054
20475W        W92823  35.922  39.862   3.167
20476W        W92824  43.432  26.483  14.767
20477W        W92825  34.968  39.051   2.891
20478W        W92826  31.608  12.700   3.719
20479W        W92827  21.153  30.518   4.147
20480W        W92828  44.455   8.405   1.929
20481W        W92829  34.113  43.326   0.870
20482W        W92830  28.538  37.348   0.469
20483W        W92831  42.805  40.992   3.301
20484W        W92832  24.136   0.850  14.291
20485W        W92833   2.780  25.045   1.328
20486W        W92834  19.704   8.312  12.905
20487W        W92835   2.334  37.389   0.315
20488W        W92836   1.243  27.958  14.882
20489W        W92837  17.279  17.696  12.953
20490W        W92838   0.760  11.765  10.454
20491W        W92839  22.712  20.689   4.202
20492W        W92840  23.219  34.457   2.901
20493W        W92841  44.904  38.859   4.220
20494W        W92842  24.081  34.116  13.445
20495W        W92843   9.343  16.619  12.973
20496W        W92844  43.775   7.846  13.894
20497W        W92845   2.327  40.538  10.128
20498W        W92846  38.960  13.745   3.813
20499W        W92847   0.903   9.176  10.553
20500W        W92848  30.108  20.140  13.493
20501W        W92849  31.638   5.744  11.123
20502W        W92850  16.811  19.697  14.808
20503W        W92851  21.120  27.132  14.029
20504W        W92852   3.301  40.999   0.276
20505W        W92853  28.018  30.062   3.683
20506W        W92854  37.836  16.684   3.845
20507W        W92855  16.590  35.381  10.985
20508W        W92856  33.017   8.851   1.238
20509W        W92857  25.652   1.868   0.422
20510W        W92858  19.244  36.080  14.798
20511W        W92859   0.981  34.479  11.421
20512W        W92860  30.110  22.049  13.818
20513W        W92861  30.908  37.959   2.796
20514W        W92862  43.306  40.884   2.195
20515W        W92863  23.179  39.543  11.884
20516W        W92864   7.368  28.181   1.432
20517W        W92865  24.215  38.449  12.912
20518W        W92866  27.540   9.721  12.418
20519W        W92867  22.501  23.694   4.615
20520W        W92868  24.549  10.713  12.360
20521W        W92869  25.707   8.705  14.462
20522W        W92870  20.074  44.352  13.377
20523W        W92871  22.617  28.447  13.334
20524W        W92872   1.963  25.663  11.986
20525W        W92873  10.367   7.199  14.851
20526W        W92874  21.169  37.844  11.001
20527W        W92875   0.434  13.656  14.829
20528W        W92876  10.788  34.062   3.162
20529W        W92877   0.471  28.067  14.870
20530W        W92878  13.746  18.689   3.635
20531W        W92879   6.723   2.450   0.298
20532W        W92880  21.074  13.191   0.316
20533W        W92881  12.659   0.809  11.432
20534W        W92882  32.909  21.733   4.710
20535W        W92883  30.079  41.989   4.281
20536W        W92884  16.679  17.567   3.680
20537W        W92885   6.877  27.092   0.858
20538W        W92886  44.311   4.297   2.826
20539W        W92887   4.240  30.090  12.490
20540W        W92888  40.845  30.443   3.754
20541W        W92889  16.183  44.328  13.942
20542W        W92890  43.909  42.956  14.769
20543W        W92891   2.306  20.599  12.451
20544W        W92892  21.735  19.273   0.301
20545W        W92893  11.829  30.090  10.567
20546W        W92894  21.746   2.773   0.256
20547W        W92895  37.478  15.168  10.890
20548W        W92896  41.813  38.358  13.961
20549W        W92897  30.146  39.355  12.564
20550W        W92898  24.491  10.676   0.941
20551W        W92899  17.709  25.997   3.829
20552W        W92900  39.018  22.203   4.267
20553W        W92901  19.240  26.637  10.541
20554W        W92902  20.094   5.225   3.224
20555W        W92903   4.309   2.954   0.278
20556W        W92904  29.461  22.700   5.140
20557W        W92905  21.022  29.083   4.639
20558W        W92906  41.368  13.681   2.681
20559W        W92907   4.762  38.039   4.672
20560W        W92908  29.101   9.337   0.885
20561W        W92909  43.463  21.549   1.223
20562W        W92910  10.707  14.614   4.198
20563W        W92911  21.689  29.584   2.873
20564W        W92912  23.122  13.341   0.337
20565W        W92913  12.724   2.323  13.998
20566W        W92914  37.834  38.454   2.724
20567W        W92915   4.758   5.915  10.501
20568W        W92916  29.613   5.710  14.864
20569W        W92917  24.190  18.754  11.000
20570W        W92918  34.957   0.948  11.949
20571W        W92919   4.382  34.588  12.453
20572W        W92920  17.587  17.602  13.034
20573W        W92921  43.401  43.021   2.788
20574W        W92922  31.605   9.250  11.959
20575W        W92923  38.546  27.468  12.044
20576W        W92924  23.584  44.493  12.343
20577W        W92925   8.831   9.749  12.856
20578W        W92926  31.446   8.735   0.881
20579W        W92927  25.591   0.472   2.414
20580W        W92928  20.133  39.874   2.272
20581W        W92929   3.323  17.140   5.321
20582W        W92930  30.934  30.914  12.885
20583W        W92931   2.765  13.314   3.817
20584W        W92932  42.365   3.410   1.361
20585W        W92933  15.710  31.509  12.499
20586W        W92934  26.488  27.633  13.954
20587W        W92935  12.846   4.308  11.517
20588W        W92936  44.933  18.669  11.894
20589W        W92937  27.142  21.231   3.328
20590W        W92938  30.997  27.575   4.636
20591W        W92939  26.166  36.856   3.724
20592W        W92940  27.971  41.851  11.909
20593W        W92941   6.913  43.008   1.260
20594W        W92942   2.810   3.810   0.745
20595W        W92943  43.017  30.929   0.787
20596W        W92944  32.604  36.425  12.960
20597W        W92945   2.372  27.519  14.511
20598W        W92946  37.412   6.401   5.283
20599W        W92947  29.096  14.173   3.718
20600W        W92948  19.666   8.878   0.245
20601W        W92949   2.372   7.171   4.610
20602W        W92950  20.558  39.431  14.496
20603W        W92951  20.031  28.520   0.813
20604W        W92952  19.626   0.897  13.400
20605W        W92953  21.253  34.521  13.893
20606W        W92954  15.667  12.142  13.967
20607W        W92955  34.403   5.196   1.853
20608W        W92956  42.006   0.884  10.420
20609W        W92957  32.120  32.110   4.149
20610W        W92958  41.789  43.360   2.795
20611W        W92959  15.328  20.725   3.801
20612W        W92960  11.656  34.484  11.963
20613W        W92961  15.158  21.233  10.479
20614W        W92962  10.761   3.255   9.946
20615W        W92963  32.116  40.925  13.356
20616W        W92964  14.271   2.393   0.469
20617W        W92965  29.432  13.223  14.506
20618W        W92966   7.268  39.053   2.358
20619W        W92967  20.533  33.435   1.726
20620W        W92968  33.577   5.706   2.739
20621W        W92969  20.636  22.568   4.157
20622W        W92970  10.340  37.006   4.132
20623W        W92971  38.554  21.743   2.764
20624W        W92972   1.764  12.325   1.439
20625W        W92973  41.908  32.967  11.011
20626W        W92974  26.063  19.777   2.178
20627W        W92975  27.629  30.545  13.525
20628W        W92976  19.671  15.217  13.895
20629W        W92977   2.367  13.662   3.295
20630W        W92978   3.910  39.881   3.372
20631W        W92979  18.206   7.400  14.445
20632W        W92980  11.272  11.127  12.455
20633W        W92981  28.152  15.270   0.275
20634W        W92982  21.177   0.854  13.344
20635W        W92983   0.398  24.082   1.232
20636W        W92984   2.443  12.781  14.515
20637W        W92985  31.522  28.611  12.557
20638W        W92986  42.415  22.158   1.779
20639W        W92987  24.508   6.421   2.665
20640W        W92988  25.471  40.835   2.713
20641W        W92989   1.431   6.736  14.805
20642W        W92990  35.944  43.977   0.931
20643W        W92991  31.476  38.943  14.455
20644W        W92992  23.240  42.800   1.279
20645W        W92993  18.705  26.677   1.910
20646W        W92994  34.991   1.809   5.093
20647W        W92995   9.839  12.174  12.422
20648W        W92996  22.562  17.111   3.804
20649W        W92997  43.310  42.827  11.082
20650W        W92998  42.955   7.764   2.257
20651W        W92999  13.134   5.729   9.519
20652W        W93000  22.028  26.640   1.892
20653W        W93001  29.922  35.089  10.570
20654W        W93002  21.080  27.142  11.503
20655W        W93003  21.084   6.428  14.992
20656W        W93004  19.194  42.340   1.903
20657W        W93005  36.048  15.145  14.295
20658W        W93006   2.290  29.942  12.540
20659W        W93007  17.766  21.055  12.033
20660W        W93008  35.438  24.101   3.337
20661W        W93009   1.408  39.313   1.788
20662W        W93010  38.397   8.803  13.324
20663W        W93011  43.895  19.707   1.838
20664W        W93012  23.574   5.870   4.628
20665W        W93013  22.191  18.204   0.248
20666W        W93014  21.169  22.714   1.830
20667W        W93015   5.896  20.121   0.886
20668W        W93016  29.160  22.701   2.790
20669W        W93017  28.544  31.441  12.892
20670W        W93018  21.180  29.991   2.397
20671W        W93019   6.909   4.424  13.806
20672W        W93020   1.759  12.839   3.335
20673W        W93021  20.084  21.123  13.880
20674W        W93022  42.377   0.341   4.159
20675W        W93023  18.723  37.455   3.857
20676W        W93024  43.981  17.187  12.499
20677W        W93025  20.735  19.059  11.571
20678W        W93026  43.352  27.947  10.041
20679W        W93027  29.493  41.919  13.923
20680W        W93028   3.283  35.419  12.052
20681W        W93029  30.464  20.548   0.966
20682W        W93030  21.603   7.784   1.398
20683W        W93031  43.506   4.359  14.506
20684W        W93032  32.095  37.911  11.373
20685W        W93033  14.179  26.483   3.861
20686W        W93034  44.782  27.139   3.854
20687W        W93035  10.755  21.151  14.338
20688W        W93036  42.807  32.596  14.373
20689W        W93037  43.937  22.186   3.674
20690W        W93038  11.851  12.723   4.655
20691W        W93039  14.666  19.067  14.945
20692W        W93040   2.240  17.750  14.460
20693W        W93041  34.542  36.881  10.419
20694W        W93042  13.646   1.466   2.182
20695W        W93043  33.077  21.088   2.394
20696W        W93044   1.887  29.433  11.557
20697W        W93045  26.085   3.795   2.225
20698W        W93046  31.036  40.913  14.469
20699W        W93047  38.914  41.922  12.931
20700W        W93048  20.226   0.485  13.329
20701W        W93049   1.266  31.621  10.522
20702W        W93050  21.129  22.736   0.799
20703W        W93051  44.424   7.265   2.744
20704W        W93052  13.638  33.001  12.550
20705W        W93053  29.103  40.444   0.911
20706W        W93054  35.377  40.447   1.337
20707W        W93055  43.772  28.527   2.767
20708W        W93056  42.838   6.795  11.534
20709W        W93057  15.647   2.809   0.456
20710W        W93058   4.416  41.300   1.813
20711W        W93059  40.402  22.084   4.746
20712W        W93060  21.713  32.502   0.247
20713W        W93061  22.183  10.289  11.423
20714W        W93062  32.137  44.291   2.180
20715W        W93063  24.721   7.264   1.864
20716W        W93064   4.823  18.594   2.833
20717W        W93065  13.193  36.991  14.392
20718W        W93066   6.803  26.653   2.214
20719W        W93067  30.620  36.465  12.882
20720W        W93068  37.920  44.839   1.242
20721W        W93069  44.912  34.557   4.317
20722W        W93070   7.276  32.571   0.917
20723W        W93071  15.621   9.677  14.504
20724W        W93072   6.729   5.200  13.058
20725W        W93073   4.919  26.952  13.868
20726W        W93074   1.361  36.962  12.461
20727W        W93075   1.344   5.734  14.286
20728W        W93076  10.709  37.056  12.833
20729W        W93077  17.187  27.178   2.281
20730W        W93078   1.294  32.038  12.088
20731W        W93079  17.560   2.373  12.493
20732W        W93080  44.325  35.998  11.016
20733W        W93081  27.527  29.619   1.812
20734W        W93082   2.382  42.368   2.728
20735W        W93083  37.413  27.092  12.580
20736W        W93084  16.176  25.107   2.790
20737W        W93085  15.224  13.788   3.220
20738W        W93086  14.747  23.734   1.238
20739W        W93087   7.207   9.308  11.018
20740W        W93088  33.981  21.627   3.229
20741W        W93089  36.920  36.379   1.694
20742W        W93090  40.026  11.165   4.200
20743W        W93091  25.599   8.772  12.388
20744W        W93092  16.670  27.629  13.938
20745W        W93093  32.404  20.722   3.380
20746W        W93094  16.804  22.646  12.461
20747W        W93095  14.190   8.235  13.433
20748W        W93096  41.479  37.889   3.744
20749W        W93097  18.591   3.864   1.877
20750W        W93098  11.670  11.730   3.218
20751W        W93099  32.398  10.204   0.294
20752W        W93100  44.399  34.415   1.406
20753W        W93101  25.631  17.100  14.420
20754W        W93102  40.868  25.672   1.869
20755W        W93103  43.943  28.099  13.394
20756W        W93104  42.923  34.448   3.241
20757W        W93105   6.851  38.056   0.331
20758W        W93106  36.881  15.098  14.891
20759W        W93107  13.326  39.979   2.856
20760W        W93108  20.658  31.931  10.502
20761W        W93109  40.467   2.758   1.298
20762W        W93110  38.997   5.331   2.248
20763W        W93111  12.227  20.219   3.238
20764W        W93112   0.802  20.570   4.302
20765W        W93113   2.736  16.711  13.795
20766W        W93114  36.991  24.709   0.371
20767W        W93115  34.527  35.885  10.420
20768W        W93116  43.477   9.697  10.505
20769W        W93117  10.805   1.801  10.552
20770W        W93118   4.205  31.077  14.306
20771W        W93119   7.731  18.666  13.455
20772W        W93120  44.433   2.945   2.856
20773W        W93121   8.772  13.344   4.230
20774W        W93122  19.717  35.398   2.824
20775W        W93123  13.221  44.897   2.348
20776W        W93124  22.550  34.591   4.617
20777W        W93125  28.554   5.695  10.941
20778W        W93126  21.578   0.765  13.438
20779W        W93127  41.401   9.266   1.277
20780W        W93128  30.077   6.354  12.070
20781W        W93129  28.467  38.834   4.620
20782W        W93130  43.971  22.082   4.649
20783W        W93131  11.353   4.439   5.594
20784W        W93132   0.447  33.399  13.443
20785W        W93133  11.669  32.992  13.384
20786W        W93134  21.693  38.546   4.735
20787W        W93135   2.935  39.498  10.420
20788W        W93136  19.726  13.166  12.362
20789W        W93137  18.625  38.921   2.351
20790W        W93138  44.372  42.377  12.868
20791W        W93139  29.092  24.217   0.371
20792W        W93140  22.159   7.227   4.732
20793W        W93141  32.525   5.737   2.242
20794W        W93142  43.904  32.114   4.751
20795W        W93143  18.753  15.253  14.923
20796W        W93144  25.168  26.986  14.492
20797W        W93145  24.223  15.790  11.123
20798W        W93146  24.069  16.108  11.930
20799W        W93147  44.416  27.059   5.194
20800W        W93148  17.700  43.413  10.482
20801W        W93149   2.906   7.224   0.897
20802W        W93150  27.685  24.204   1.704
20803W        W93151  31.564  22.554   1.837
20804W        W93152   3.434  41.962   0.930
20805W        W93153   1.907  42.804   3.195
20806W        W93154   5.370  40.392  11.579
20807W        W93155   0.817  15.578   2.349
20808W        W93156  30.586  39.443  14.327
20809W        W93157   6.855  10.220   0.395
20810W        W93158  30.449  19.546   0.463
20811W        W93159  38.068   4.342   4.300
20812W        W93160  21.727  21.743   0.469
20813W        W93161  28.586  43.967   4.767
20814W        W93162  23.736   4.399  10.487
20815W        W93163  18.720  30.152  11.017
20816W        W93164  44.989  22.190  11.097
20817W        W93165  19.762  38.485   4.656
20818W        W93166  15.111  18.694  14.498
20819W        W93167  11.364  40.403  13.535
20820W        W93168  23.150   6.696  13.325
20821W        W93169  38.829   5.735  13.807
20822W        W93170  29.008   3.315   4.258
20823W        W93171   4.261   2.737   1.369
20824W        W93172  44.965  38.914  10.022
20825W        W93173  34.960  28.628  12.952
20826W        W93174  14.648  35.858   2.783
20827W        W93175  23.495  40.873   4.157
20828W        W93176   7.903  22.570   0.755
20829W        W93177  12.199  37.018  13.519
20830W        W93178  33.924  22.105  11.904
20831W        W93179  33.601  17.143  13.853
20832W        W93180  30.439  14.768   0.402
20833W        W93181  18.576  26.120  12.873
20834W        W93182  19.664  22.512   3.762
20835W        W93183  19.704  31.472  13.405
20836W        W93184   2.782  25.589  10.440
20837W        W93185   8.244  42.948   2.729
20838W        W93186  39.497  11.831  12.551
20839W        W93187  13.344  21.147   1.921
20840W        W93188   5.835  32.885  11.893
20841W        W93189  34.406  11.862  12.832
20842W        W93190  35.087   2.445   2.810
20843W        W93191  10.673   6.412   1.704
20844W        W93192   4.762   4.782   1.448
20845W        W93193   7.335  44.478   1.442
20846W        W93194  18.110  14.646   1.841
20847W        W93195  29.079  42.812   2.677
20848W        W93196  29.925  39.013   0.968
20849W        W93197  20.590   4.705   0.904
20850W        W93198  18.152  42.879  12.056
20851W        W93199  34.546  26.200  11.123
20852W        W93200  32.548   7.209   3.802
20853W        W93201   8.359  38.954  14.844
20854W        W93202  17.655  31.404  10.148
20855W        W93203  10.313  25.628   2.830
20856W        W93204   4.388  43.360   3.834
20857W        W93205  44.408  34.489   1.932
20858W        W93206  20.251  22.072  13.019
20859W        W93207  10.707  20.748   9.439
20860W        W93208   8.334  30.431  12.922
20861W        W93209  22.576  18.691  10.437
20862W        W93210  40.883  15.170  13.384
20863W        W93211  36.488  12.144   3.199
20864W        W93212  31.019  33.948   2.220
20865W        W93213  11.355  10.156  13.823
20866W        W93214  44.325  41.833   2.268
20867W        W93215  36.572  16.219  11.548
20868W        W93216  42.284  41.032   1.713
20869W        W93217  31.501  15.103  11.875
20870W        W93218  27.468  10.819  12.443
20871W        W93219  24.158  11.128  13.948
20872W        W93220  13.809  38.339  12.077
20873W        W93221  42.420  26.083  12.453
20874W        W93222  43.957   1.832  14.457
20875W        W93223  11.651   6.362   9.557
20876W        W93224  28.016   4.380   3.830
20877W        W93225   1.928  17.607  11.088
20878W        W93226  34.546  37.837   1.835
20879W        W93227  37.426  32.424   4.227
20880W        W93228  23.547  32.390  14.016
20881W        W93229  13.802   3.931  14.968
20882W        W93230  15.679  19.066  13.461
20883W        W93231   2.937  19.737  14.308
20884W        W93232  40.463   8.715   1.272
20885W        W93233  35.075  16.182   2.809
20886W        W93234   8.850   2.738  10.931
20887W        W93235  44.849  35.380   4.141
20888W        W93236  11.675  20.703   0.764
20889W        W93237   3.315  29.572  13.337
20890W        W93238  39.385  32.599   0.288
20891W        W93239  23.631   9.695   4.134
20892W        W93240  23.581  34.499   0.354
20893W        W93241  25.051  29.052  12.493
20894W        W93242  35.060  38.375  12.485
20895W        W93243  36.546  22.012   5.091
20896W        W93244   9.257   3.890  13.310
20897W        W93245  43.933  15.302  12.974
20898W        W93246  15.605   4.704  10.458
20899W        W93247  17.783  43.427  14.014
20900W        W93248  30.459  31.511  11.583
20901W        W93249  25.141  23.232   4.744
20902W        W93250  38.376  25.174  13.797
20903W        W93251   5.793  44.317  14.487
20904W        W93252  44.484  33.988  13.895
20905W        W93253  27.624   2.858   4.800
20906W        W93254  42.809   2.362  12.892
20907W        W93255  23.572  12.665   3.234
20908W        W93256  38.357  33.606  11.985
20909W        W93257  10.831   5.918  14.816
20910W        W93258  14.273  15.676   0.290
20911W        W93259  27.645  16.811  11.448
20912W        W93260  38.571   3.832   2.407
20913W        W93261  43.872  15.810  11.883
20914W        W93262  24.165  15.276   0.436
20915W        W93263  30.083  18.617  11.119
20916W        W93264  24.647  14.198  11.898
20917W        W93265  28.515  18.643  13.975
20918W        W93266   9.852   6.276   2.397
20919W        W93267  37.408  42.462  12.907
20920W        W93268  40.518  38.561  13.318
20921W        W93269  40.387  30.945  10.558
20922W        W93270  33.405   0.345   3.231
20923W        W93271   4.836  37.442   4.123
20924W        W93272  43.273  17.258  12.432
20925W        W93273  10.700  11.271   0.868
20926W        W93274   4.333  44.923   3.233
20927W        W93275  38.350   7.702  12.015
20928W        W93276   4.786  35.461   0.924
20929W        W93277  11.782   4.399  11.008
20930W        W93278  38.918   8.328   1.393
20931W        W93279  39.024  25.084   0.930
20932W        W93280   4.911  17.307   4.692
20933W        W93281  11.354  26.075  10.999
20934W        W93282  23.541  42.948   3.728
20935W        W93283  19.553   2.283  11.051
20936W        W93284  20.536  20.599   3.659
20937W        W93285   8.282  33.526   0.808
20938W        W93286  13.275  42.883  11.020
20939W        W93287   9.230  44.346  10.103
20940W        W93288  12.227  26.044   4.639
20941W        W93289  23.161  35.495   3.723
20942W        W93290  11.849  30.611   2.748
20943W        W93291  11.257  37.863   4.644
20944W        W93292  26.586  25.484   1.224
20945W        W93293  36.536  26.077  10.942
20946W        W93294  40.413  25.680   4.728
20947W        W93295   5.271  32.590  10.935
20948W        W93296  34.459  40.372  14.405
20949W        W93297   2.363  23.530   3.798
20950W        W93298  32.962  34.376  11.454
20951W        W93299  11.805  35.895   2.759
20952W        W93300  36.999  37.554  13.968
20953W        W93301  34.062   2.952   2.771
20954W        W93302   6.222  11.313  11.411
20955W        W93303  34.570   7.326   0.821
20956W        W93304  29.569   7.685   0.480
20957W        W93305   9.315  32.060   5.092
20958W        W93306  22.539  21.695  14.981
20959W        W93307  20.175  17.116   1.376
20960W        W93308   5.350  20.676   4.246
20961W        W93309   6.284  30.942  14.354
20962W        W93310  37.554  11.830   1.302
20963W        W93311  30.608  26.962  13.012
20964W        W93312  14.771  19.237  10.460
20965W        W93313  12.244  38.335   4.300
20966W        W93314  38.533  25.068  12.488
20967W        W93315  13.160  27.557  11.585
20968W        W93316  41.499  38.360  11.580
20969W        W93317  22.623  13.807   0.264
20970W        W93318  38.986  21.150  14.839
20971W        W93319  39.341   3.228  14.340
20972W        W93320  27.168  21.211   2.895
20973W        W93321   1.402  42.304  10.959
20974W        W93322  35.037  30.139   2.789
20975W        W93323  24.160  31.466  12.998
20976W        W93324  33.007  16.652   3.665
20977W        W93325   2.238  25.042  12.341
20978W        W93326  33.061  39.055  12.346
20979W        W93327   7.792  13.759  13.512
20980W        W93328   3.736  19.084   3.862
20981W        W93329  13.348  28.162   4.713
20982W        W93330   7.703   7.894  13.954
20983W        W93331   3.941  31.975   2.778
20984W        W93332  14.151  37.530   4.778
20985W        W93333   1.286  13.245  12.507
20986W        W93334  23.098  34.106  13.898
20987W        W93335  34.528  37.029   1.862
20988W        W93336  42.415  33.536   2.192
20989W        W93337  11.680  14.094  14.290
20990W        W93338   9.834   8.858  14.360
20991W        W93339   6.729  35.575  12.354
20992W        W93340   0.321  37.925  12.077
20993W        W93341  24.633  30.956  13.858
20994W        W93342  43.381   5.214   0.811
20995W        W93343   7.865  39.926   4.601
20996W        W93344  30.617  26.496   1.908
20997W        W93345   4.817  36.500  12.982
20998W        W93346  12.614   0.357   1.841
20999W        W93347  19.652  35.543   0.425
21000W        W93348  17.268  17.558   1.902
21001W        W93349  11.239  35.408  11.447
21002W        W93350  39.819  40.319  12.982
21003W        W93351  31.973  28.548  10.455
21004W        W93352   4.726  44.804   2.213
21005W        W93353  35.950  31.608  14.983
21006W        W93354   0.438  25.027  10.444
21007W        W93355  16.186  23.005  12.089
21008W        W93356  40.029  13.664   2.769
21009W        W93357  33.593   1.948  11.877
21010W        W93358   8.707  29.500  12.445
21011W        W93359   8.769  33.542  11.905
21012W        W93360  36.500   5.377  12.036
21013W        W93361   9.286  35.896  10.529
21014W        W93362  42.907  36.430  14.295
21015W        W93363  32.941   7.417  13.424
21016W        W93364  22.146   6.375  14.426
21017W        W93365  15.105  32.964  13.809
21018W        W93366  29.571  19.075  13.397
21019W        W93367  25.071  27.463   0.731
21020W        W93368  16.126   8.701   3.752
21021W        W93369   5.395  15.639   4.229
21022W        W93370  32.525  40.311   2.213
21023W        W93371   1.910  23.216   0.405
21024W        W93372  34.444   6.835  11.979
21025W        W93373  31.018  37.553  14.028
21026W        W93374  44.782  43.372  12.350
21027W        W93375  39.317  29.954   4.342
21028W        W93376   2.463   6.885  11.437
21029W        W93377  15.816  34.890   1.368
21030W        W93378  17.613  14.127   0.958
21031W        W93379   5.919  15.282  13.319
21032W        W93380  38.461  15.707  14.351
21033W        W93381  43.874  33.483   2.251
21034W        W93382  12.207  38.339  12.046
21035W        W93383   5.752  23.135  13.461
21036W        W93384  19.127  34.375  10.913
21037W        W93385  41.983  44.329  11.465
21038W        W93386  16.697  11.836   2.820
21039W        W93387  14.711   4.251  13.858
21040W        W93388  23.066  44.970   1.423
21041W        W93389  38.469  36.054   3.811
21042W        W93390  38.821  28.961  11.883
21043W        W93391  38.389  13.179   3.828
21044W        W93392   5.326  30.152  11.948
21045W        W93393  13.168  24.702  14.839
21046W        W93394  44.500  42.352  12.046
21047W        W93395  15.117  16.790   0.278
21048W        W93396  18.590  22.175   4.270
21049W        W93397   4.709  44.411  13.497
21050W        W93398   3.799   1.801   5.103
21051W        W93399  29.174   5.255  11.506
21052W        W93400  12.254   5.919   2.312
21053W        W93401  21.544  21.740  14.864
21054W        W93402  16.582  25.213  12.425
21055W        W93403   9.209  28.083   2.403
21056W        W93404  44.323  27.664  14.476
21057W        W93405  12.766  38.848  14.025
21058W        W93406   3.453  10.353   4.156
21059W        W93407  35.990   5.417  10.949
21060W        W93408  32.399  13.283  14.335
21061W        W93409  44.947  19.660   0.436
21062W        W93410  13.641   6.318  14.502
21063W        W93411  18.677   8.205  11.873
21064W        W93412  24.649  38.477   3.188
21065W        W93413   4.450  39.811  14.513
21066W        W93414  11.205  20.637  14.317
21067W        W93415  10.665  14.806   3.196
21068W        W93416  34.549   3.430   3.333
21069W        W93417  17.589  36.399  11.936
21070W        W93418  25.547  15.302   0.257
21071W        W93419   7.364  40.802  13.358
21072W        W93420  33.608   8.658  14.998
21073W        W93421  33.433  13.787  11.376
21074W        W93422  39.375  19.206  12.005
21075W        W93423  26.533  10.810   1.801
21076W        W93424   0.970  42.837   1.377
21077W        W93425  34.612  15.652  11.442
21078W        W93426   6.681  17.776   1.924
21079W        W93427  21.538  21.262   1.848
21080W        W93428  19.614  24.590  10.899
21081W        W93429   4.787   2.334  13.908
21082W        W93430  24.056  12.681   2.761
21083W        W93431  29.161   5.906   3.174
21084W        W93432  35.005  26.159  13.975
21085W        W93433   8.810  14.594   1.285
21086W        W93434  35.882   7.776   3.828
21087W        W93435  28.083   4.921  12.094
21088W        W93436   3.837  32.413   0.426
21089W        W93437  35.540  44.394  10.458
21090W        W93438  42.370  23.990  12.500
21091W        W93439  27.602   0.283   1.214
21092W        W93440  37.447  34.429   0.963
21093W        W93441  27.532  20.104  12.432
21094W        W93442   8.667  24.675  13.002
21095W        W93443  28.541   7.729   3.644
21096W        W93444   1.782  20.733  13.948
21097W        W93445  19.618   9.713  14.950
21098W        W93446  38.518   2.739  12.511
21099W        W93447  33.453   1.296  14.449
21100W        W93448  17.234  17.138   1.850
21101W        W93449  18.778  15.792  14.411
21102W        W93450   9.863   4.397   2.346
21103W        W93451  32.031  21.174  14.478
21104W        W93452  18.250   4.355   2.312
21105W        W93453   8.207  17.174   2.240
21106W        W93454  37.478  37.401   4.737
21107W        W93455  34.056  23.623   2.664
21108W        W93456  11.359  40.442  12.477
21109W        W93457  15.260   7.741  12.438
21110W        W93458  12.175  36.003  11.402
21111W        W93459  40.472   8.395  12.064
21112W        W93460  28.616   4.406  10.488
21113W        W93461  44.897  29.653  14.908
21114W        W93462  13.808  15.680  11.542
21115W        W93463  35.562  19.638  12.992
21116W        W93464  24.614  18.790  11.002
21117W        W93465  34.451  38.500   2.798
21118W        W93466  18.555  41.892   2.692
21119W        W93467  37.052   0.306   4.168
21120W        W93468  20.686  25.607   3.863
21121W        W93469  42.819  23.662   2.298
21122W        W93470  20.043  37.446  12.022
21123W        W93471   2.809  25.152   4.187
21124W        W93472   4.893   5.867   1.703
21125W        W93473  30.952  34.501  14.303
21126W        W93474   1.396  25.582  13.487
21127W        W93475  30.535  43.920  11.108
21128W        W93476  38.452  29.467  14.332
21129W        W93477  43.858  14.309   2.209
21130W        W93478  43.807  40.420   2.217
21131W        W93479   9.698  29.492   4.266
21132W        W93480   2.235  32.602   2.692
21133W        W93481  39.810  41.999  13.541
21134W        W93482  33.544  29.510  10.914
21135W        W93483  15.104  23.053  11.856
21136W        W93484  34.450  12.685   1.225
21137W        W93485  34.425  32.915   0.474
21138W        W93486  29.957   7.197   5.805
21139W        W93487  24.505  18.789   1.777
21140W        W93488  35.912  22.089  11.502
21141W        W93489  32.424  27.073   4.308
21142W        W93490  42.908  30.506   0.386
21143W        W93491  34.583  33.939  14.314
21144W        W93492   1.269  28.133  12.032
21145W        W93493  12.191   2.721  14.801
21146W        W93494  37.077  22.239   1.923
21147W        W93495  40.040  32.116  13.947
21148W        W93496  36.932  31.533  12.968
21149W        W93497  33.875  10.646   0.255
21150W        W93498  17.278   7.262   1.704
21151W        W93499   1.911  34.866   0.766
21152W        W93500  41.033  40.419  10.465
21153W        W93501   9.756  25.590   3.629
21154W        W93502  32.565  29.039   1.380
21155W        W93503  11.147  42.959   2.265
21156W        W93504   4.232   6.325  10.606
21157W        W93505  38.021   4.205   9.968
21158W        W93506  39.345  17.715   2.392
21159W        W93507  16.175  28.054  10.450
21160W        W93508  27.581  36.891  13.053
21161W        W93509  27.143   6.348  10.063
21162W        W93510  35.536   8.395   3.783
21163W        W93511  12.626  32.426  10.932
21164W        W93512  31.601  31.498   0.757
21165W        W93513  35.421  42.410  10.916
21166W        W93514  10.838  19.633   3.374
21167W        W93515  21.048  10.851  12.976
21168W        W93516  22.509   3.327   1.754
21169W        W93517  24.491  43.916  13.868
21170W        W93518  42.281  36.584  12.896
21171W        W93519   0.467  33.041  11.858
21172W        W93520  31.516  29.930  13.813
21173W        W93521  44.285  22.747   4.290
21174W        W93522  40.969  43.479  14.824
21175W        W93523  12.242  11.283  12.020
21176W        W93524  27.495   0.940   0.269
21177W        W93525  19.213  33.045   2.206
21178W        W93526  11.799  25.029   3.196
21179W        W93527   8.189  20.068   4.185
21180W        W93528  12.809  21.192   2.804
21181W        W93529  16.274  14.226  14.822
21182W        W93530  29.438  37.345  10.035
21183W        W93531  19.736   5.361  13.994
21184W        W93532  21.089   0.436  14.387
21185W        W93533  31.555   1.852  13.882
21186W        W93534   8.884  17.118  12.045
21187W        W93535  12.327  22.704   1.395
21188W        W93536  16.771  10.211  11.895
21189W        W93537   8.359   3.918  14.986
21190W        W93538   9.273   0.968   0.858
21191W        W93539  33.531  29.149   5.308
21192W        W93540  22.625   1.858  10.984
21193W        W93541   1.398  41.320  13.392
21194W        W93542  35.531  16.105  11.125
21195W        W93543  40.303   9.225   0.342
21196W        W93544  15.180  29.974  10.476
21197W        W93545  40.030  17.725  10.513
21198W        W93546  33.921  34.057   0.881
21199W        W93547  13.107  30.126   0.892
21200W        W93548  35.398   2.895  10.947
21201W        W93549  28.589  16.176   1.265
21202W        W93550  32.429   6.205   1.361
21203W        W93551  21.100   4.405   0.361
21204W        W93552  32.631  15.278  14.468
21205W        W93553  38.017  30.087  12.078
21206W        W93554  11.748  37.933   3.778
21207W        W93555  18.095  35.440  14.838
21208W        W93556  24.518  35.484  12.858
21209W        W93557   0.383  30.551  12.952
21210W        W93558   2.364  19.635  10.624
21211W        W93559  29.508  37.367  14.510
21212W        W93560  13.206  14.670  12.550
21213W        W93561  30.112   0.360   2.258
21214W        W93562  22.705  23.227  14.469
21215W        W93563   8.180  14.231  13.872
21216W        W93564  42.435  21.726   3.720
21217W        W93565  35.970  31.106   2.665
21218W        W93566  27.478  27.076   4.120
21219W        W93567   3.792  44.412  10.973
21220W        W93568  18.077  22.548  14.378
21221W        W93569  31.034  28.161  13.862
21222W        W93570  32.483   9.818  11.071
21223W        W93571  32.953  42.960   1.758
21224W        W93572   7.906  23.088   0.778
21225W        W93573   4.450   3.953   0.832
21226W        W93574  23.622   7.810   3.241
21227W        W93575  40.928  16.785   0.272
21228W        W93576  15.794  22.154   9.939
21229W        W93577  21.628  42.387  14.281
21230W        W93578  16.099  42.419  13.029
21231W        W93579  10.374  17.235   5.191
21232W        W93580  15.248  38.396  11.927
21233W        W93581  19.118  21.244   0.811
21234W        W93582  15.268  38.511   0.371
21235W        W93583  30.989  42.423   1.234
21236W        W93584  32.614  39.384  11.577
21237W        W93585  28.575  44.871  14.455
21238W        W93586  13.776  33.599  12.536
21239W        W93587  39.037  30.126  11.049
21240W        W93588  40.982   1.273  10.621
21241W        W93589  40.930  26.561   3.263
21242W        W93590  33.880  27.945  12.416
21243W        W93591  28.658  21.257  14.854
21244W        W93592  27.090  32.938  11.475
21245W        W93593  36.077   3.842  13.806
21246W        W93594  42.897  44.828   4.799
21247W        W93595  18.750  23.562   2.396
21248W        W93596  31.901  12.735  10.521
21249W        W93597  42.296  30.007   4.281
21250W        W93598  29.594   6.746  14.424
21251W        W93599  13.707   6.782  14.904
21252W        W93600  44.770   3.312  13.028
21253W        W93601   6.427   5.783  11.386
21254W        W93602   8.201  10.748  14.443
21255W        W93603  16.313  25.082  14.763
21256W        W93604   1.876  23.182   0.867
21257W        W93605  33.429   6.422  13.841
21258W        W93606   7.220  25.189   0.280
21259W        W93607  28.081  13.735   3.295
21260W        W93608  31.979  28.632  12.823
21261W        W93609  41.846  28.017   3.359
21262W        W93610  42.354   3.272  10.569
21263W        W93611   3.855   4.412  12.900
21264W        W93612  16.746  35.492  10.636
21265W        W93613  17.140  40.351  13.827
21266W        W93614  30.080   9.153  13.018
21267W        W93615   3.740  23.995  14.476
21268W        W93616  17.145  20.129  12.431
21269W        W93617  43.017   6.236   0.943
21270W        W93618  21.712  31.923  11.458
21271W        W93619  30.110   4.227   0.347
21272W        W93620   3.454  21.095  14.972
21273W        W93621  21.535  23.041  14.323
21274W        W93622  41.374  17.135  13.050
21275W        W93623  20.741  23.620  10.953
21276W        W93624   3.880  29.022  11.048
21277W        W93625  18.557   7.415   9.981
21278W        W93626  29.546   7.218  14.385
21279W        W93627  13.608  30.089   0.804
21280W        W93628  30.546   9.317   0.435
21281W        W93629  16.138  35.495  11.405
21282W        W93630  29.543   2.754  11.427
21283W        W93631   0.966   5.378   4.231
21284W        W93632   1.255  31.014  10.933
21285W        W93633   8.848  29.072  13.817
21286W        W93634  42.523  34.457   0.371
21287W        W93635  44.389   7.714  14.796
21288W        W93636  42.913  29.012   3.784
21289W        W93637  19.725  32.987  12.536
21290W        W93638  17.182  35.078   0.381
21291W        W93639  16.090  34.948   1.718
21292W        W93640  10.252   8.368   1.758
21293W        W93641   9.236  29.527  14.388
21294W        W93642  23.564   3.422  12.017
21295W        W93643  27.084  30.984  13.856
21296W        W93644  26.025  25.069   1.429
21297W        W93645  10.190  12.726  10.487
21298W        W93646  39.371  39.392   1.778
21299W        W93647   3.862  17.151   1.771
21300W        W93648   6.233  18.763  14.452
21301W        W93649  35.358  44.883  11.562
21302W        W93650  19.563  39.359  12.473
21303W        W93651   7.759   5.224   2.293
21304W        W93652  27.503   4.344   2.369
21305W        W93653  21.122  28.056   0.265
21306W        W93654  26.958  19.741  14.820
21307W        W93655  33.096   9.849  14.418
21308W        W93656  29.172  34.108  10.617
21309W        W93657  30.051  38.451  10.629
21310W        W93658  16.163  39.412  10.531
21311W        W93659  17.676  36.585   3.868
21312W        W93660  29.563  22.179   0.359
21313W        W93661  10.305  18.177   2.310
21314W        W93662  15.119  17.619   3.316
21315W        W93663  18.106   7.203   2.417
21316W        W93664  28.529  31.484  11.545
21317W        W93665  43.966  10.661  13.541
21318W        W93666  25.138  40.308  12.919
21319W        W93667  42.982  19.558   0.743
21320W        W93668  31.428  42.919   4.690
21321W        W93669  41.796  12.666   4.239
21322W        W93670  25.990  14.742  14.410
21323W        W93671  23.670  23.190   3.167
21324W        W93672  37.990  40.859   3.852
21325W        W93673  35.579  16.293  11.881
21326W        W93674  20.651  23.014   4.660
21327W        W93675  25.567  40.525   4.196
21328W        W93676  30.907  19.652   3.735
21329W        W93677  42.988  32.535   1.760
21330W        W93678  38.941  25.504  12.535
21331W        W93679  33.540  42.321   1.722
21332W        W93680   8.243  11.816   3.687
21333W        W93681  22.085   0.282  11.058
21334W        W93682  10.716  17.609   1.808
21335W        W93683  42.836  12.330   1.698
21336W        W93684  15.733   1.841  10.909
21337W        W93685   5.238  33.518  13.994
21338W        W93686  28.563   6.896   4.645
21339W        W93687   7.783  17.061  13.332
21340W        W93688  31.506  43.458   2.891
21341W        W93689  28.033  21.052   1.402
21342W        W93690  43.441  13.250  11.875
21343W        W93691  38.502   4.332   1.833
21344W        W93692  11.650  31.478  13.028
21345W        W93693  13.834   7.729   2.325
21346W        W93694  30.974  16.774  14.845
21347W        W93695  24.602  10.320   1.787
21348W        W93696  11.747  35.498   0.746
21349W        W93697   8.277  44.785  11.376
21350W        W93698  44.474  34.554  11.559
21351W        W93699  43.983  27.613   4.733
21352W        W93700  26.496  33.083   4.727
21353W        W93701  10.255  10.813  11.552
21354W        W93702   8.324  10.347   0.868
21355W        W93703   6.720  25.589  11.858
21356W        W93704  38.054  10.330  12.840
21357W        W93705  28.971  27.024  12.058
21358W        W93706  32.944  37.076   5.597
21359W        W93707  15.664   9.683  11.937
21360W        W93708  43.955  28.128   4.211
21361W        W93709  32.434  44.410   4.203
21362W        W93710  34.929  40.336   4.629
21363W        W93711  27.555  21.758  14.508
21364W        W93712  42.460  43.961  14.475
21365W        W93713   2.258   8.676   9.982
21366W        W93714   8.398  12.134   3.783
21367W        W93715  13.188   3.924   4.760
21368W        W93716  36.031   2.354   0.791
21369W        W93717  22.529  24.183  13.342
21370W        W93718  32.092   4.333  11.910
21371W        W93719  29.595   9.175  12.435
21372W        W93720   1.419   7.908   2.283
21373W        W93721   6.322  14.272  13.958
21374W        W93722  17.154   9.203  10.458
21375W        W93723  14.688  35.912  10.948
21376W        W93724  23.180   7.752  14.318
21377W        W93725  14.133   4.426   3.691
21378W        W93726   6.351  21.618   2.351
21379W        W93727  25.603   8.280   0.786
21380W        W93728  37.029   7.828  14.764
21381W        W93729  33.439  15.695   0.453
21382W        W93730  31.127  25.518  12.914
21383W        W93731   1.464   5.736  13.949
21384W        W93732  25.471   9.165   3.750
21385W        W93733  29.584  29.555   1.280
21386W        W93734  27.453  17.621   1.802
21387W        W93735  24.077  16.800   0.900
21388W        W93736  11.840  15.145  11.880
21389W        W93737  32.941   3.404  11.981
21390W        W93738   0.878  11.231  14.399
21391W        W93739   3.378  18.768   3.834
21392W        W93740  26.109  41.514  13.026
21393W        W93741  43.391   7.717   2.341
21394W        W93742  13.628  36.007  12.931
21395W        W93743  10.802  22.037   0.896
21396W        W93744  30.652  20.272  11.061
21397W        W93745  17.286  19.220   4.142
21398W        W93746  35.372   7.407   4.204
21399W        W93747  18.240  38.950  10.600
21400W        W93748  39.811  32.051  13.036
21401W        W93749  41.444  36.048  14.369
21402W        W93750  43.489  39.949  14.983
21403W        W93751  26.143  30.628  10.477
21404W        W93752  10.201  13.279   2.895
21405W        W93753  31.917  25.196  10.542
21406W        W93754   7.909  33.455   3.224
21407W        W93755  42.015  24.074   2.810
21408W        W93756  35.455  14.783   1.917
21409W        W93757  37.883  37.877   4.687
21410W        W93758  12.178   0.297   4.315
21411W        W93759  32.558  38.327   4.724
21412W        W93760  14.168  10.196  10.455
21413W        W93761  38.940   3.766   3.830
21414W        W93762  25.186  25.116   2.247
21415W        W93763  26.652  14.754  14.979
21416W        W93764  18.657   2.866  13.316
21417W        W93765  43.940  42.317  14.914
21418W        W93766  44.791  38.934  12.017
21419W        W93767  24.661  42.933  12.931
21420W        W93768   3.828   8.311   1.237
21421W        W93769  42.409   7.345   0.791
21422W        W93770  21.565  36.841  11.941
21423W        W93771  27.145   4.855  13.489
21424W        W93772  20.762   9.744   1.368
21425W        W93773  20.086  24.606   2.724
21426W        W93774   4.879  22.082  14.368
21427W        W93775   7.251  34.034  11.868
21428W        W93776  42.019  30.081  12.894
21429W        W93777  44.978  18.148  14.335
21430W        W93778  33.398  34.427   9.591
21431W        W93779   0.422   6.421   4.659
21432W        W93780  43.982  42.791  14.393
21433W        W93781  11.831   0.758   0.325
21434W        W93782  20.103  18.614  13.021
21435W        W93783  10.306  19.108  10.543
21436W        W93784  41.860  27.950   0.242
21437W        W93785  17.204  44.285   1.851
21438W        W93786  11.836  16.725  12.958
21439W        W93787  19.665  35.077   2.414
21440W        W93788  26.065  24.111   2.882
21441W        W93789  31.426   0.897  14.924
21442W        W93790   5.197  22.190  11.559
21443W        W93791  23.006  11.298   4.624
21444W        W93792  44.411  29.423   2.313
21445W        W93793   8.724  28.109   4.642
21446W        W93794   2.457  11.268  11.857
21447W        W93795  25.160  14.650  10.513
21448W        W93796  44.303   7.687  10.425
21449W        W93797  32.440   5.359  11.107
21450W        W93798  41.535  29.932  12.526
21451W        W93799  22.515  30.441   4.302
21452W        W93800  14.097  10.227   0.908
21453W        W93801  25.637  30.913  10.552
21454W        W93802  18.112  20.537   0.862
21455W        W93803   7.340  27.543   2.244
21456W        W93804  11.195  35.897  12.929
21457W        W93805  30.960   3.801  12.433
21458W        W93806  15.185  32.942   2.692
21459W        W93807  42.442  42.466  14.796
21460W        W93808   3.370  38.829   0.323
21461W        W93809  29.668  17.160  13.988
21462W        W93810  41.913  41.523   1.699
21463W        W93811  15.228   2.403  13.398
21464W        W93812  28.573  41.937  12.886
21465W        W93813  22.119  24.065  11.073
21466W        W93814  27.653  11.329   1.441
21467W        W93815  34.463  40.392  11.955
21468W        W93816  37.354   5.752  14.798
21469W        W93817   6.387  31.643   3.744
21470W        W93818  32.464  31.081   0.851
21471W        W93819   4.896  15.579   0.428
21472W        W93820   4.264  15.327  10.952
21473W        W93821  10.866   0.879   3.638
21474W        W93822  15.273  13.804   4.817
21475W        W93823  30.967  28.060   4.348
21476W        W93824  11.753  37.573   1.878
21477W        W93825  26.693  27.556  14.845
21478W        W93826   4.443  14.817   3.868
21479W        W93827  20.545   2.919   0.931
21480W        W93828  20.197  19.614  12.432
21481W        W93829  19.638   6.696  13.796
21482W        W93830  30.508  28.109  14.473
21483W        W93831  43.505   3.241  10.414
21484W        W93832  25.620   1.274  10.438
21485W        W93833  12.227   3.335   4.332
21486W        W93834  11.754   0.381  10.541
21487W        W93835  29.553  34.003   3.295
21488W        W93836  19.761  14.233   1.929
21489W        W93837  10.142  10.266   1.323
21490W        W93838   0.979  26.182   3.658
21491W        W93839  10.678  17.295  14.018
21492W        W93840   2.292  33.963   1.218
21493W        W93841  29.484   5.694   0.338
21494W        W93842  27.504  12.269  11.379
21495W        W93843  16.174  38.957   4.619
21496W        W93844  17.202  14.594  12.058
21497W        W93845   2.342   1.948  13.383
21498W        W93846  35.564  40.305  11.392
21499W        W93847   5.342   5.770   1.266
21500W        W93848  41.418  38.992  10.482
21501W        W93849  27.164   3.758   1.218
21502W        W93850  38.326  24.645  11.483
21503W        W93851  14.305   5.353   0.470
21504W        W93852  28.581  34.615   4.813
21505W        W93853  43.815  10.289  12.926
21506W        W93854  14.602  40.435  14.338
21507W        W93855   1.299  35.557   4.126
21508W        W93856  12.147   0.889   2.863
21509W        W93857  33.046  42.919   4.295
21510W        W93858  15.172  12.649   4.611
21511W        W93859  38.895  44.495   5.164
21512W        W93860  22.230  17.198   2.313
21513W        W93861   8.705  20.198  10.074
21514W        W93862  28.974  13.719  11.015
21515W        W93863  17.133  24.586  12.550
21516W        W93864  14.308  22.165   2.766
21517W        W93865   9.189  19.118   4.290
21518W        W93866  29.636  37.971   4.803
21519W        W93867  14.692   3.431  14.362
21520W        W93868  40.475  24.527   3.795
21521W        W93869   7.782  27.454  10.616
21522W        W93870  19.144  31.577   4.613
21523W        W93871  15.087   7.853  13.443
21524W        W93872  25.679  24.191   0.265
21525W        W93873  31.494   3.261  10.541
21526W        W93874  35.988   8.850   4.817
21527W        W93875   9.667  41.956  12.416
21528W        W93876  41.825  15.710  11.064
21529W        W93877  19.731  19.225  11.556
21530W        W93878  34.430  42.925   3.822
21531W        W93879  33.400   1.817  13.997
21532W        W93880  39.849   0.274   1.235
21533W        W93881  21.653  10.723  13.349
21534W        W93882  37.849  30.540   2.287
21535W        W93883  14.180   9.854  10.987
21536W        W93884  16.179  15.268  13.498
21537W        W93885   6.874   1.839   2.261
21538W        W93886  19.695   4.807  14.433
21539W        W93887  33.091   7.384  10.123
21540W        W93888  34.120  11.373  14.337
21541W        W93889  39.038  44.365   4.803
21542W        W93890  28.029  29.102   4.284
21543W        W93891  10.678  20.050  12.877
21544W        W93892  10.222   9.232   0.392
21545W        W93893   8.272  38.497  12.022
21546W        W93894  40.996  16.195   3.371
21547W        W93895  12.145  16.593  12.968
21548W        W93896  30.004  30.954  12.842
21549W        W93897  11.238  24.724  11.445
21550W        W93898  39.959  17.103   4.664
21551W        W93899  22.694  12.671  10.610
21552W        W93900  43.356  24.015   1.835
21553W        W93901  33.540  38.023  11.923
21554W        W93902  17.688  37.985  14.834
21555W        W93903   5.784  41.041   4.833
21556W        W93904  26.663  43.017   1.345
21557W        W93905  18.722  35.530  11.603
21558W        W93906  42.994  20.584  14.330
21559W        W93907   1.753  15.147  11.481
21560W        W93908  34.103  34.071   2.763
21561W        W93909  21.720  17.208  11.095
21562W        W93910  39.861  39.818   3.757
21563W        W93911  24.716  26.056   1.234
21564W        W93912  34.570  38.068  14.007
21565W        W93913   0.769  22.700  11.073
21566W        W93914  19.718  42.458   1.430
21567W        W93915  11.754  43.987   1.724
21568W        W93916   8.210  27.576  14.387
21569W        W93917  22.648  33.426   4.123
21570W        W93918  35.862  32.472   2.412
21571W        W93919  40.037   8.276   1.402
21572W        W93920  37.366  14.768   1.237
21573W        W93921  17.768  19.258  14.287
21574W        W93922  10.329  24.130  11.110
21575W        W93923  24.699  40.342  14.442
21576W        W93924   8.326   7.287   0.328
21577W        W93925  11.855  37.426   2.806
21578W        W93926   4.429   0.964   3.715
21579W        W93927  26.206  26.116   0.945
21580W        W93928  14.237  28.152   1.909
21581W        W93929  31.998  12.261  14.303
21582W        W93930   0.361  10.651   2.278
21583W        W93931  44.835   1.304   1.767
21584W        W93932  10.255   0.905   4.169
21585W        W93933  24.713  20.676  12.459
21586W        W93934   9.736  28.936   3.231
21587W        W93935   8.263  38.559  10.919
21588W        W93936  17.571  30.417  13.345
21589W        W93937   7.686  34.961  10.410
21590W        W93938  32.393  41.891  12.884
21591W        W93939  26.668  36.483  12.484
21592W        W93940   2.462  35.360  12.354
21593W        W93941   7.183  11.278  11.964
21594W        W93942  21.238  37.884  13.484
21595W        W93943  17.655  20.134  11.078
21596W        W93944  32.119   8.663   0.742
21597W        W93945  40.019  30.475   4.317
21598W        W93946  27.167  13.212  13.504
21599W        W93947  23.146  21.715   3.808
21600W        W93948  20.077   4.785   2.337
21601W        W93949  16.086  28.181  10.062
21602W        W93950  19.605  39.361   1.833
21603W        W93951   4.270  15.125   1.848
21604W        W93952  11.819  36.390   2.377
21605W        W93953   5.433  20.694  13.547
21606W        W93954  18.179  15.682  14.919
21607W        W93955  32.930  40.470   1.815
21608W        W93956  28.435   6.802  14.376
21609W        W93957  36.981  16.088  13.902
21610W        W93958   9.179  19.757   2.380
21611W        W93959  25.570  35.855  12.363
21612W        W93960  22.556   4.878   4.688
21613W        W93961   0.377  25.656  11.392
21614W        W93962  18.207  12.822   0.877
21615W        W93963  36.942   2.346   2.662
21616W        W93964  16.221  24.078  14.465
21617W        W93965  43.969   1.896  14.981
21618W        W93966   5.209  17.081  14.954
21619W        W93967   6.349  36.561   4.256
21620W        W93968  28.467  44.271  12.403
21621W        W93969  13.712  16.192  13.911
21622W        W93970  22.140   8.269   4.283
21623W        W93971  34.596   9.299   0.257
21624W        W93972  24.058   0.368   4.186
21625W        W93973  31.990  30.508   1.715
21626W        W93974  23.657  44.275  13.356
21627W        W93975  28.088  30.601   4.632
21628W        W93976  12.636  33.114   3.825
21629W        W93977  41.967  11.673   9.992
21630W        W93978  30.006  40.045  13.910
21631W        W93979  22.616  22.154  12.072
21632W        W93980  24.092   8.879   4.646
21633W        W93981  13.203  15.719  11.482
21634W        W93982  30.157  12.688   4.787
21635W        W93983  29.950  29.037   4.794
21636W        W93984  40.973  25.529  10.575
21637W        W93985   9.297  34.018   3.848
21638W        W93986  16.218   9.310   4.346
21639W        W93987  25.571   7.401  10.945
21640W        W93988  32.945  24.104  10.519
21641W        W93989  14.176  32.401  12.862
21642W        W93990  43.797  25.563   2.276
21643W        W93991   0.845  25.686  13.027
21644W        W93992  30.149  22.699   0.292
21645W        W93993   2.342  29.964  14.869
21646W        W93994   9.697  12.361   0.792
21647W        W93995  27.023  20.580   0.308
21648W        W93996  16.650  31.442  10.473
21649W        W93997   5.910  18.231   1.908
21650W        W93998  23.205  39.962  13.477
21651W        W93999  18.631  38.832  12.885
21652W        W94000  43.800  42.373   3.278
21653W        W94001  19.750  33.531  11.513
21654W        W94002  18.235  27.684   0.443
21655W        W94003   0.815  39.464   1.305
21656W        W94004   5.324  21.731  12.916
21657W        W94005  21.262  22.558   1.320
21658W        W94006   5.884  37.009  10.431
21659W        W94007  25.548  40.523   1.344
21660W        W94008  23.550  41.830  14.954
21661W        W94009   5.300  22.154  11.073
21662W        W94010   3.350  10.715   4.732
21663W        W94011   4.730   1.414   0.305
21664W        W94012  34.982  30.578  11.114
21665W        W94013  32.044  24.604   3.816
21666W        W94014   3.437  37.888  12.993
21667W        W94015  28.463  33.125  10.486
21668W        W94016  31.946   1.973   2.201
21669W        W94017  20.246  26.168   0.434
21670W        W94018   8.330  13.254   2.855
21671W        W94019  32.965   7.402   3.862
21672W        W94020  34.874   1.392   3.775
21673W        W94021  36.438  12.796  14.306
21674W        W94022  34.933  17.676   4.732
21675W        W94023  24.595  38.937  11.014
21676W        W94024  14.650  24.987   1.397
21677W        W94025  22.526  18.664   2.834
21678W        W94026   3.789  40.432   0.332
21679W        W94027  13.689  36.849   2.870
21680W        W94028  44.376   2.388   1.918
21681W        W94029  18.576  20.108  14.831
21682W        W94030  42.823  36.365   4.650
21683W        W94031   4.886  10.240   2.852
21684W        W94032  39.909   3.756   1.829
21685W        W94033  41.351  41.955  10.476
21686W        W94034   3.723  40.017  12.002
21687W        W94035  38.042  13.605   3.305
21688W        W94036   7.193  13.144   4.611
21689W        W94037  15.109  31.962  10.898
21690W        W94038  44.815  19.233  12.352
21691W        W94039  11.178  21.249  13.354
21692W        W94040  39.960   6.311  12.575
21693W        W94041   4.241  43.844  10.587
21694W        W94042  43.463  38.902   0.922
21695W        W94043   0.471  16.789  14.322
21696W        W94044  25.062  43.926   2.198
21697W        W94045  16.191   5.308   4.327
21698W        W94046  39.388   0.766   0.950
21699W        W94047  16.732  24.128   4.176
21700W        W94048  33.488  43.496  14.808
21701W        W94049  23.727  36.452  14.958
21702W        W94050  16.653   6.808  14.378
21703W        W94051  44.449   6.733   0.454
21704W        W94052  25.625  20.193  10.893
21705W        W94053  14.319  43.929   2.291
21706W        W94054   5.378  19.596   4.133
21707W        W94055   9.705   8.250  11.908
21708W        W94056  10.871   1.288   3.774
21709W        W94057  23.653   7.861   1.833
21710W        W94058  24.987  24.666  13.308
21711W        W94059  17.305  10.145  14.975
21712W        W94060  26.525  10.816   1.225
21713W        W94061  32.918   3.851   3.165
21714W        W94062  23.047  21.170  10.426
21715W        W94063  11.283   5.814  14.778
21716W        W94064   3.375   1.768  11.049
21717W        W94065  28.513  44.816  12.838
21718W        W94066   9.818   6.313  10.567
21719W        W94067   9.230  19.541   1.741
21720W        W94068  24.988   4.882   1.263
21721W        W94069  44.330  31.008   4.182
21722W        W94070  18.634  43.883   3.326
21723W        W94071   1.787  44.440  12.075
21724W        W94072   5.875  24.008   2.758
21725W        W94073  15.746   1.362   2.354
21726W        W94074   0.375  31.625   1.284
21727W        W94075  35.532  16.242   1.398
21728W        W94076  31.082  25.110   5.130
21729W        W94077  27.640   6.735   3.835
21730W        W94078   4.256  23.223   1.377
21731W        W94079  38.432  43.012   4.237
21732W        W94080  14.773  42.933   2.340
21733W        W94081  40.929  11.719   0.815
21734W        W94082  23.537   0.258   3.152
21735W        W94083  12.157  43.892   2.703
21736W        W94084  17.101   2.467   4.133
21737W        W94085  12.173  38.555  14.024
21738W        W94086  13.704  14.764   3.228
21739W        W94087  34.488  11.733  13.320
21740W        W94088  21.182   3.455   2.212
21741W        W94089  42.023  44.406   4.141
21742W        W94090   4.301   9.346  14.474
21743W        W94091   2.755  32.399  14.982
21744W        W94092  40.009  43.772   2.796
21745W        W94093   1.912  42.814  14.909
21746W        W94094  25.966  44.879  14.494
21747W        W94095  16.638  32.593   3.306
21748W        W94096  18.077  23.119   0.337
21749W        W94097  18.577  20.673  11.957
21750W        W94098  42.891  11.710   1.266
21751W        W94099  18.074  26.457   4.708
21752W        W94100  44.871  39.451   1.754
21753W        W94101  30.598  11.140  14.491
21754W        W94102   3.914  15.605   4.703
21755W        W94103  34.588  35.072   0.260
21756W        W94104  27.680  17.255   3.781
21757W        W94105  13.158   5.857  12.932
21758W        W94106  33.937  17.290   4.348
21759W        W94107  29.105   6.732  13.420
21760W        W94108  26.671  41.483  13.346
21761W        W94109  28.658   1.404   2.856
21762W        W94110  17.560  14.632   3.675
21763W        W94111   1.456   4.320  11.006
21764W        W94112  19.104   2.750  11.517
21765W        W94113  18.587  13.351  14.832
21766W        W94114   9.886  43.333   2.352
21767W        W94115  34.982  40.362  14.025
21768W        W94116  32.918  11.686   2.824
21769W        W94117  14.632  37.968  11.878
21770W        W94118  40.466  27.553   4.256
21771W        W94119  37.903  38.564  10.478
21772W        W94120  28.048  17.574  12.366
21773W        W94121  22.658  24.688   3.382
21774W        W94122  25.712  43.986  11.974
21775W        W94123  13.282   0.846  13.812
21776W        W94124  30.934   3.771   4.345
21777W        W94125  37.874  43.387   3.309
21778W        W94126   8.709  37.999   3.816
21779W        W94127  10.346  18.692   1.891
21780W        W94128  39.398  38.057   4.210
21781W        W94129  25.175  32.401   4.767
21782W        W94130  34.948  27.025   3.841
21783W        W94131  32.902  24.493   1.764
21784W        W94132   8.302  23.495   0.882
21785W        W94133  43.401  33.621  11.606
21786W        W94134  30.996  34.041  11.078
21787W        W94135  43.872  23.535  11.541
21788W        W94136   2.879  13.778   0.884
21789W        W94137  30.486  41.956   1.801
21790W        W94138  14.803   6.263  14.383
21791W        W94139  10.235  41.487   3.381
21792W        W94140   0.247   7.745   0.288
21793W        W94141  35.603  39.035   2.866
21794W        W94142  30.939   0.857   3.301
21795W        W94143  28.499  33.380  10.505
21796W        W94144   6.252  27.086   1.257
21797W        W94145  44.285  36.583  14.410
21798W        W94146   5.865  25.963   4.642
21799W        W94147  40.503   3.314  12.494
21800W        W94148  28.161   4.230   4.178
21801W        W94149  17.182  18.252  12.888
21802W        W94150   6.390  18.682   2.764
21803W        W94151   0.383  43.299  10.417
21804W        W94152  11.773  42.931   3.813
21805W        W94153  26.533  27.491   1.764
21806W        W94154  21.695   5.289   0.468
21807W        W94155  15.265  11.217  12.985
21808W        W94156  33.103  17.733  14.842
21809W        W94157   1.756  44.967  11.435
21810W        W94158  24.199  38.428  10.469
21811W        W94159  21.667   4.703  10.443
21812W        W94160  25.622  11.285  10.552
21813W        W94161  37.380  35.603  11.500
21814W        W94162  32.562  32.939   1.272
21815W        W94163  29.011  29.500   0.901
21816W        W94164  33.995  35.955  12.999
21817W        W94165   5.358   6.854  11.878
21818W        W94166  43.326  38.505  12.994
21819W        W94167  22.707  35.527  12.466
21820W        W94168  31.109  22.707  14.956
21821W        W94169  36.540  24.018  11.860
21822W        W94170   2.271  41.919  12.071
21823W        W94171  11.770  36.862  12.376
21824W        W94172  17.668  17.632   3.726
21825W        W94173  28.120  41.351  13.439
21826W        W94174  34.508   8.337   1.391
21827W        W94175  16.187  13.153  10.604
21828W        W94176  21.633  12.150   1.910
21829W        W94177  44.824   3.443   1.806
21830W        W94178  42.464  39.814   4.667
21831W        W94179  40.831  19.670  12.452
21832W        W94180   0.360   9.781   3.717
21833W        W94181  19.155  30.041  13.401
21834W        W94182  36.557   9.716   4.770
21835W        W94183  23.171   3.722   4.275
21836W        W94184  42.971  39.471  12.944
21837W        W94185  38.827   9.182  10.551
21838W        W94186  36.452  29.031   3.185
21839W        W94187  15.628  37.367  11.948
21840W        W94188  42.384  42.004   2.810
21841W        W94189  29.479  25.014   9.959
21842W        W94190  12.237  12.732  14.829
21843W        W94191  34.117   9.236   0.837
21844W        W94192   1.922  33.958  11.978
21845W        W94193   8.236  44.770   0.301
21846W        W94194  36.980  37.412  11.376
21847W        W94195  36.471  31.974  10.111
21848W        W94196   5.334   7.329  12.424
21849W        W94197  35.543  22.145  11.605
21850W        W94198  37.927  43.335   2.270
21851W        W94199  35.991  43.811   2.764
21852W        W94200  14.602  20.626   0.967
21853W        W94201  19.041  31.976  11.039
21854W        W94202  34.078  34.968   2.840
21855W        W94203  42.032  33.475  11.496
21856W        W94204  42.805  22.089  11.397
21857W        W94205   0.766  35.411   2.886
21858W        W94206  42.918  32.890   3.172
21859W        W94207  42.505   4.264   0.293
21860W        W94208  17.229   8.305   2.767
21861W        W94209  38.841  35.362   2.714
21862W        W94210  13.218  28.516   4.175
21863W        W94211  15.295   0.921   1.919
21864W        W94212  35.560  20.763   3.187
21865W        W94213  15.818  13.835  11.471
21866W        W94214  15.191  30.611   3.804
21867W        W94215  39.948   6.708   2.770
21868W        W94216  16.592  29.496   4.134
21869W        W94217  15.283   3.447  12.565
21870W        W94218  13.150  14.337   4.817
21871W        W94219  14.336   6.844  11.426
21872W        W94220  33.408  39.952  10.606
21873W        W94221  36.490  31.043  10.419
21874W        W94222  29.154  30.620  10.937
21875W        W94223  40.319  44.449   5.181
21876W        W94224  38.850  11.161  12.572
21877W        W94225  43.398  29.587  11.454
21878W        W94226  29.111  28.098  13.504
21879W        W94227  23.681  17.270  11.457
21880W        W94228  41.786  35.961  10.119
21881W        W94229  38.569  21.144  14.347
21882W        W94230   9.666  43.873   4.163
21883W        W94231  36.507  27.957   5.207
21884W        W94232  19.616  31.479   4.311
21885W        W94233  40.532   8.899   5.165
21886W        W94234  24.506  40.812  10.966
21887W        W94235  12.837  15.191   0.848
21888W        W94236  19.077  29.143  11.525
21889W        W94237   1.755  29.483  12.057
21890W        W94238  30.151  44.488  11.506
21891W        W94239  11.626  24.211   2.862
21892W        W94240   9.683  41.422   1.370
21893W        W94241  22.530  13.236  12.940
21894W        W94242  19.266  12.698   1.374
21895W        W94243  15.120   9.151   0.386
21896W        W94244  12.129  25.632   0.922
21897W        W94245  25.608  38.551  13.323
21898W        W94246  35.455  29.511   4.203
21899W        W94247  10.798  26.472   5.173
21900W        W94248  38.390  22.607   9.997
21901W        W94249  14.308   8.679   3.767
21902W        W94250  21.533  18.221  12.354
21903W        W94251  15.789  38.473   3.688
21904W        W94252  33.612   4.927  12.046
21905W        W94253  44.763  43.998   4.353
21906W        W94254   5.764  15.215  13.994
21907W        W94255  42.823  21.668   1.449
21908W        W94256  22.021  32.529   2.700
21909W        W94257  17.736  17.599  11.056
21910W        W94258  19.774  23.638  10.947
21911W        W94259  16.144  20.044   3.161
21912W        W94260  30.979  44.321  12.472
21913W        W94261  22.701  39.029  14.362
21914W        W94262   0.829  12.269   4.688
21915W        W94263  14.694  24.634   0.405
21916W        W94264  43.980  25.558   4.273
21917W        W94265   2.286  21.159  13.898
21918W        W94266  37.080  34.054   3.327
21919W        W94267   2.858  21.643  11.571
21920W        W94268  10.840  28.598   2.788
21921W        W94269   7.839  33.893  11.539
21922W        W94270  26.184  43.851  10.626
21923W        W94271  29.430  13.334   3.167
21924W        W94272   9.878  41.965  11.882
21925W        W94273   1.897   5.309  14.484
21926W        W94274   8.402  18.228   1.420
21927W        W94275  41.994   7.280  13.905
21928W        W94276   9.878   9.312  12.830
21929W        W94277  32.425  42.831  14.471
21930W        W94278  16.259  42.887   0.293
21931W        W94279  13.303  25.503  12.501
21932W        W94280  28.936  12.705   0.472
21933W        W94281   0.806   3.461   3.735
21934W        W94282   1.811   8.734   2.774
21935W        W94283   2.923  43.807   3.268
21936W        W94284  42.370  35.456  12.001
21937W        W94285  32.096  28.613   4.200
21938W        W94286   1.478   1.765  14.960
21939W        W94287  39.556  14.724   2.868
21940W        W94288  26.040  35.409   2.228
21941W        W94289   4.784  13.198   0.419
21942W        W94290  38.919  27.986   1.263
21943W        W94291  15.803  35.396  11.018
21944W        W94292  28.442   2.412  12.970
21945W        W94293  27.134  33.111  10.575
21946W        W94294  33.584   7.815   9.462
21947W        W94295  31.973  34.605  12.032
21948W        W94296   8.332  43.991  11.008
21949W        W94297  18.190  17.691   2.181
21950W        W94298  36.352   3.855  11.871
21951W        W94299  31.539  24.598   3.731
21952W        W94300   7.842   1.292   3.686
21953W        W94301  36.916   9.866  12.905
21954W        W94302  32.587   8.179  11.528
21955W        W94303   5.435  38.833  14.292
21956W        W94304   7.358  44.921   0.335
21957W        W94305  44.359  30.022   0.336
21958W        W94306  39.030  43.515   3.665
21959W        W94307  30.577  21.645  12.046
21960W        W94308  23.177  39.900   4.336
21961W        W94309  25.705  35.929  13.500
21962W        W94310  28.575  40.350   4.298
21963W        W94311   3.848  10.824  13.376
21964W        W94312  29.607  33.941   4.817
21965W        W94313  39.521  37.383   4.265
21966W        W94314  44.833  32.969   1.884
21967W        W94315  11.728  23.227   3.183
21968W        W94316  11.151   6.302   3.754
21969W        W94317   4.811  23.709   3.296
21970W        W94318  28.481  36.974  12.863
21971W        W94319  42.368   9.733  12.922
21972W        W94320  43.447  39.511   0.732
21973W        W94321  29.484  29.952   0.754
21974W        W94322  36.932   6.222   4.254
21975W        W94323   7.262   9.834  12.962
21976W        W94324  15.230  10.857   4.317
21977W        W94325  10.871  20.558   1.767
21978W        W94326  32.007  14.702   3.695
21979W        W94327  32.476  21.110  12.392
21980W        W94328  39.937   1.471  11.611
21981W        W94329  41.988  30.622  11.522
21982W        W94330  28.555  27.083   0.826
21983W        W94331   5.874  41.904  10.906
21984W        W94332  25.569  38.859   3.313
21985W        W94333  11.274  10.284   2.187
21986W        W94334  20.760  30.032   4.122
21987W        W94335  41.984   0.892  13.801
21988W        W94336  13.304  34.882   1.289
21989W        W94337   9.356  34.389  13.875
21990W        W94338  20.566  10.267   3.630
21991W        W94339  23.145   7.360   5.201
21992W        W94340  33.397  44.445  12.386
21993W        W94341  40.886  30.478  11.078
21994W        W94342  42.013  33.072   3.192
21995W        W94343  37.422  28.505   1.368
21996W        W94344  10.654  14.668  11.031
21997W        W94345  32.427   0.763   3.326
21998W        W94346  33.573  26.657  11.576
21999W        W94347   2.960  31.059   3.663
22000W        W94348  25.514  15.686  13.413
22001W        W94349  33.453  13.679   3.629
22002W        W94350  31.102  22.164  12.450
22003W        W94351   3.876  27.585   2.327
22004W        W94352  11.762  37.996  12.420
22005W        W94353  20.614   1.919  10.609
22006W        W94354  22.670  10.662  14.904
22007W        W94355  40.935   0.364   1.399
22008W        W94356  16.222   9.252  14.769
22009W        W94357   7.287  43.341   4.755
22010W        W94358  36.983   4.890  10.921
22011W        W94359  10.731  10.714  14.491
22012W        W94360  36.533   6.372  10.964
22013W        W94361  40.043   8.742   0.369
22014W        W94362   9.305   9.872  12.001
22015W        W94363  25.549  37.873  11.945
22016W        W94364  27.967  35.485  11.967
22017W        W94365  37.053  13.254   4.170
22018W        W94366  12.316  17.070  14.762
22019W        W94367   4.252  18.163   2.316
22020W        W94368  22.061   7.686   1.283
22021W        W94369  16.226  37.491   2.324
22022W        W94370  12.795  12.344   3.870
22023W        W94371  36.395  26.526  12.468
22024W        W94372   2.467  44.800   0.883
22025W        W94373  25.485  12.634   1.252
22026W        W94374  44.806  23.717  14.277
22027W        W94375  41.337  14.184  12.870
22028W        W94376  36.952  40.304  10.928
22029W        W94377  36.592  17.286   0.325
22030W        W94378  10.191  27.672   1.701
22031W        W94379   5.407  24.500  13.344
22032W        W94380   4.913  13.703   0.863
22033W        W94381  38.067  37.040   4.176
22034W        W94382  32.996   7.685  13.500
22035W        W94383   1.263  15.328   4.261
22036W        W94384  20.554  22.219   3.221
22037W        W94385  17.652  13.207   5.116
22038W        W94386  42.925  26.063  11.081
22039W        W94387   1.445  10.860  12.064
22040W        W94388  35.865  43.930  11.579
22041W        W94389   2.449  38.011   1.277
22042W        W94390  24.576   6.339  12.836
22043W        W94391  44.406  26.467   4.255
22044W        W94392   1.469  36.584   0.944
22045W        W94393  34.895   7.744  11.007
22046W        W94394  38.380  23.506   1.218
22047W        W94395  38.044  27.550   4.610
22048W        W94396  35.472  44.456   3.641
22049W        W94397  37.407  44.967   0.340
22050W        W94398  10.714  44.930   0.759
22051W        W94399  42.970  40.509   2.795
22052W        W94400  16.787  36.576   3.735
22053W        W94401  38.838  12.789   1.415
22054W        W94402  12.818  34.486   4.648
22055W        W94403   3.378  31.043  14.324
22056W        W94404  32.992  29.022  14.972
22057W        W94405  11.660  31.475   2.803
22058W        W94406   4.699  25.141  14.913
22059W        W94407  22.574  27.177   3.719
22060W        W94408  42.293  34.943   1.906
22061W        W94409  25.087  22.580  14.515
22062W        W94410   1.849  10.875   2.854
22063W        W94411   1.865   9.375   0.812
22064W        W94412  42.888  31.585  11.968
22065W        W94413  12.644   4.425   2.269
22066W        W94414  31.134  17.722  10.415
22067W        W94415  28.577   9.648  14.964
22068W        W94416   8.280  28.943   4.253
22069W        W94417  19.535  19.711   0.248
22070W        W94418  40.408  29.046  12.414
22071W        W94419  41.021   2.339  14.878
22072W        W94420  28.058  22.181  13.956
22073W        W94421  18.057  11.813  10.986
22074W        W94422  20.575   5.198   4.668
22075W        W94423  17.748  32.008  12.358
22076W        W94424  24.593  23.532  14.393
22077W        W94425  37.570  22.694  14.822
22078W        W94426   6.837  42.345   1.843
22079W        W94427  19.253  17.668  14.297
22080W        W94428  31.643  19.184  11.978
22081W        W94429  27.011  38.951   1.405
22082W        W94430  44.964  22.567  13.372
22083W        W94431  17.247   7.305   2.400
22084W        W94432  34.408  28.532  14.469
22085W        W94433  10.192  11.339   2.841
22086W        W94434  41.435  38.336  12.462
22087W        W94435  25.197  14.726   2.702
22088W        W94436  17.171  18.189   0.726
22089W        W94437  43.373  20.112  11.915
22090W        W94438  17.650   1.266   2.194
22091W        W94439  22.145  14.669   3.240
22092W        W94440  17.157  24.703   1.911
22093W        W94441  42.969  28.007   0.797
22094W        W94442  28.504  22.231   3.703
22095W        W94443  21.111  29.427   2.415
22096W        W94444   9.155  42.982  14.427
22097W        W94445  30.990  11.713   5.125
22098W        W94446  32.460   7.227  13.309
22099W        W94447  23.151   6.868   4.664
22100W        W94448   5.360  12.327  14.875
22101W        W94449  34.937  11.175   4.606
22102W        W94450  11.326  40.333  11.990
22103W        W94451  19.219  28.578   9.645
22104W        W94452  20.208  34.560   1.801
22105W        W94453  17.307   0.798   0.319
22106W        W94454   4.348  23.208  13.974
22107W        W94455  24.539  39.040   1.811
22108W        W94456  35.369  31.898  11.398
22109W        W94457  12.276  26.092   0.380
22110W        W94458  35.496  25.989  13.543
22111W        W94459  10.150  23.699   4.690
22112W        W94460  21.263  30.038   0.469
22113W        W94461  12.636   1.790  11.992
22114W        W94462   1.788  22.638  12.346
22115W        W94463  43.347  21.658  12.445
22116W        W94464  24.220  23.231   2.827
22117W        W94465   6.402  19.059   4.826
22118W        W94466  24.568  26.518  13.841
22119W        W94467  32.633  12.239   0.349
22120W        W94468  14.824  22.694  12.091
22121W        W94469  30.656  41.424  12.905
22122W        W94470  38.983  41.322  11.033
22123W        W94471  25.531  29.105   1.812
22124W        W94472  37.989  18.296   1.749
22125W        W94473  36.439  24.174   4.809
22126W        W94474  43.923  23.088  13.349
22127W        W94475  41.506  38.826  11.965
22128W        W94476  38.358  37.855   2.805
22129W        W94477  34.997  34.540  13.937
22130W        W94478  24.630  13.150  14.512
22131W        W94479  35.932  25.506   2.372
22132W        W94480  24.136  17.620  13.835
22133W        W94481   5.793  35.417  11.117
22134W        W94482  17.199  23.092  14.992
22135W        W94483  33.952  26.063   2.183
22136W        W94484  26.642  13.762   3.715
22137W        W94485   5.900  27.524  11.028
22138W        W94486  19.707  21.648   3.370
22139W        W94487   5.692  35.470   0.888
22140W        W94488  24.985  37.847   1.335
22141W        W94489  41.472  12.206  14.375
22142W        W94490  38.463  10.310  10.030
22143W        W94491  24.573  28.611  11.423
22144W        W94492   9.741  27.515  10.925
22145W        W94493   9.265  11.353  13.027
22146W        W94494  35.052  29.069  14.958
22147W        W94495  29.469  35.494  13.347
22148W        W94496  15.746  35.880  12.501
22149W        W94497   3.879  13.641  12.892
22150W        W94498   6.287  42.482   2.874
22151W        W94499   9.154  30.613  13.864
22152W        W94500  22.180  14.321   3.212
22153W        W94501  35.876  34.547   4.654
22154W        W94502   2.302  12.843  11.083
22155W        W94503  42.858  16.645  11.403
22156W        W94504  13.198  22.708   2.851
22157W        W94505   1.347  39.036   0.452
22158W        W94506  16.285   9.345  14.319
22159W        W94507  38.435  11.849   4.145
22160W        W94508  32.124  22.607  13.013
22161W        W94509  24.165  39.412   3.178
22162W        W94510  38.029  12.707   1.406
22163W        W94511  37.883  29.107  12.849
22164W        W94512  23.062   7.886   5.317
22165W        W94513  10.693  23.558   4.118
22166W        W94514  26.157  39.014   4.762
22167W        W94515  35.101  21.665  12.949
22168W        W94516  30.517   9.382   1.757
22169W        W94517  29.002  33.088  12.057
22170W        W94518  43.782  21.042  10.092
22171W        W94519  15.700  12.812   1.731
22172W        W94520  26.562  17.206  10.436
22173W        W94521   7.775  18.556   0.833
22174W        W94522  32.500  27.067  10.452
22175W        W94523  26.997  14.154   3.146
22176W        W94524  15.790   2.244  13.397
22177W        W94525  14.722  20.644   2.690
22178W        W94526   1.291  22.998   0.963
22179W        W94527   5.826  12.332   1.350
22180W        W94528  12.300  13.111   2.276
22181W        W94529  35.985  15.605   2.316
22182W        W94530  43.954  13.109  11.882
22183W        W94531  14.738  15.749  10.932
22184W        W94532  12.747  24.650  11.898
22185W        W94533  11.150  34.567  12.341
22186W        W94534  14.213  34.969  14.392
22187W        W94535   8.698  17.095  13.457
22188W        W94536  32.444   5.205   9.455
22189W        W94537   7.277  24.681  11.400
22190W        W94538  11.831   1.776   2.202
22191W        W94539  39.466   6.680  10.559
22192W        W94540  39.922   6.861   3.700
22193W        W94541  14.640  36.976   0.408
22194W        W94542   3.298  31.441   3.209
22195W        W94543  44.868  37.362   0.958
22196W        W94544  23.006  24.488  12.550
22197W        W94545   3.288  21.123   4.719
22198W        W94546   6.733  11.627   3.799
22199W        W94547  10.238  10.313   1.922
22200W        W94548   0.326   8.283  13.539
22201W        W94549   6.425  42.950   1.830
22202W        W94550  35.517   3.439  11.556
22203W        W94551  12.834  10.253   1.315
22204W        W94552  26.607  19.183  14.935
22205W        W94553  39.928  33.427   2.784
22206W        W94554  27.547  12.806   4.738
22207W        W94555  10.362  29.564   1.391
22208W        W94556  29.920  37.523   1.388
22209W        W94557   9.394  11.656   2.778
22210W        W94558  11.258  24.057   1.388
22211W        W94559  14.177  25.536  10.549
22212W        W94560  34.085  37.543   1.390
22213W        W94561   9.786  37.924   1.346
22214W        W94562   1.927   3.379   4.609
22215W        W94563  25.105  42.502   1.354
22216W        W94564  42.822   8.204  13.035
22217W        W94565   8.400  44.769  11.979
22218W        W94566  29.491  23.203   1.384
22219W        W94567  44.942  42.791   4.300
22220W        W94568  31.004  12.334   0.840
22221W        W94569  23.130  13.770   2.826
22222W        W94570  37.855  21.021  14.344
22223W        W94571  15.757   4.805   5.209
22224W        W94572  28.182  36.463  13.529
22225W        W94573  33.083  37.948  11.992
22226W        W94574   3.752  40.911  10.436
22227W        W94575  31.412  19.537   3.205
22228W        W94576  16.794  30.469  13.444
22229W        W94577  28.571  42.409  11.382
22230W        W94578  11.251  23.174   2.270
22231W        W94579   4.766  18.268   2.354
22232W        W94580  37.527  29.640  12.020
22233W        W94581  39.969   0.321   0.416
22234W        W94582   6.733  28.931   1.404
22235W        W94583  19.182  43.457  11.865
22236W        W94584  31.151  39.047  12.823
22237W        W94585  21.228  37.489   3.751
22238W        W94586  23.985   5.273  10.958
22239W        W94587  36.369  43.365  14.432
22240W        W94588  38.059  44.893   2.314
22241W        W94589  27.486  10.370  14.801
22242W        W94590  35.057   3.346   1.293
22243W        W94591  32.564  40.485  11.965
22244W        W94592   0.776  43.382  10.491
22245W        W94593  11.261  15.774   1.263
22246W        W94594  36.590   4.872   4.299
22247W        W94595  24.711  13.696   4.764
22248W        W94596   5.419  40.012  14.470
22249W        W94597  16.185  36.578   1.926
22250W        W94598   2.732  27.013   1.226
22251W        W94599  14.751  23.615  14.912
22252W        W94600   6.420   5.704  14.364
22253W        W94601  10.859  22.147  12.508
22254W        W94602  24.001  31.620   3.737
22255W        W94603   5.703  26.156  13.023
22256W        W94604  38.343  18.713   0.809
22257W        W94605  15.647  18.278  11.075
22258W        W94606  26.488  21.688  14.864
22259W        W94607  41.892   2.919   0.804
22260W        W94608  20.051  31.960  14.975
22261W        W94609  10.670  10.365  14.957
22262W        W94610  33.003   3.714  11.982
22263W        W94611  42.795  39.427   4.169
22264W        W94612  40.498   3.842   1.913
22265W        W94613  37.451  34.491   1.772
22266W        W94614   0.259  34.024  11.495
22267W        W94615  35.874   2.878   2.353
22268W        W94616  15.140  12.776   3.312
22269W        W94617  36.407  16.227  14.332
22270W        W94618  11.128  29.478  14.836
22271W        W94619   2.403   1.878  14.890
22272W        W94620  17.304  13.266  13.544
22273W        W94621   5.323   6.894  13.537
22274W        W94622  28.133  28.671  12.857
22275W        W94623   7.394  17.265  14.005
22276W        W94624   1.475   8.160  12.376
22277W        W94625  33.453   4.239  11.075
22278W        W94626  25.647  36.059   0.344
22279W        W94627  27.957  33.932   2.195
22280W        W94628  41.487  38.961   0.390
22281W        W94629   2.797  37.566   1.241
22282W        W94630  14.742  39.518  13.516
22283W        W94631  25.079   3.431   1.401
22284W        W94632  38.455  28.576  10.563
22285W        W94633  28.079  31.068   3.723
22286W        W94634  32.457  18.660  12.895
22287W        W94635  16.648  30.448  14.903
22288W        W94636  31.412  24.597  11.607
22289W        W94637  38.933  34.529   3.288
22290W        W94638  34.905  27.567   3.310
22291W        W94639  41.415  14.263   3.226
22292W        W94640   8.323  37.340   1.793
22293W        W94641  39.440  31.531   2.314
22294W        W94642  10.224  34.970  12.443
22295W        W94643  12.141  24.497  14.479
22296W        W94644  10.741  16.734   2.872
22297W        W94645  12.676  12.743  13.969
22298W        W94646  32.992   8.724   1.714
22299W        W94647  35.483  37.869  12.005
22300W        W94648  17.097   5.430   3.208
22301W        W94649  27.086  43.976   4.269
22302W        W94650  16.085  43.388   1.859
22303W        W94651  16.804  36.434  11.475
22304W        W94652  34.117  18.218  11.607
22305W        W94653  38.540  11.255  11.577
22306W        W94654  31.138  25.094   1.725
22307W        W94655  38.936  39.472  12.489
22308W        W94656   3.858   1.357   4.605
22309W        W94657  24.706  36.921   1.228
22310W        W94658  20.082  11.216   3.837
22311W        W94659   1.910  25.120  14.787
22312W        W94660  30.008  25.112  12.030
22313W        W94661  23.017  34.565  10.437
22314W        W94662   2.334  30.097  11.063
22315W        W94663   5.379  15.726   2.700
22316W        W94664  13.265  31.533   0.833
22317W        W94665  23.511  26.125   3.787
22318W        W94666   4.931   0.412  14.406
22319W        W94667  39.328  15.792  13.019
22320W        W94668  37.376  30.962   0.323
22321W        W94669  19.095  36.029   2.398
22322W        W94670  19.243  43.456  11.407
22323W        W94671   4.215   5.314  14.791
22324W        W94672  27.640  18.684  13.307
22325W        W94673   9.744  38.919   0.325
22326W        W94674   1.934  35.916   2.850
22327W        W94675  36.922  29.439  12.506
22328W        W94676  41.360  43.886  11.035
22329W        W94677  42.318  10.733   3.639
22330W        W94678  25.618  31.124  12.054
22331W        W94679  31.079  21.261  12.394
22332W        W94680  44.297  26.592   1.214
22333W        W94681  30.146   9.712   4.709
22334W        W94682   3.429  41.786   3.865
22335W        W94683  16.645  20.269  11.865
22336W        W94684  29.474  37.079   3.855
22337W        W94685  32.030  40.957   0.357
22338W        W94686   4.829  30.610  14.297
22339W        W94687  35.037  27.647  11.575
22340W        W94688  39.938  22.723   1.375
22341W        W94689  42.427  21.575  12.917
22342W        W94690  24.520  31.042   2.892
22343W        W94691  39.926   0.264   2.415
22344W        W94692  10.244  30.056  11.893
22345W        W94693  38.072   3.842  10.526
22346W        W94694  25.009  35.432   4.181
22347W        W94695   4.792   3.266   4.753
22348W        W94696  29.434  14.648  11.997
22349W        W94697  14.149  29.609   1.340
22350W        W94698  35.068  34.022   0.256
22351W        W94699  18.133  29.057  14.515
22352W        W94700  27.504  39.001  11.949
22353W        W94701  23.595  42.486  12.987
22354W        W94702  21.716   0.343  12.032
22355W        W94703  22.725  10.232  12.421
22356W        W94704  27.500  14.144   4.685
22357W        W94705  21.045   6.325   4.140
22358W        W94706  29.427   6.313  13.335
22359W        W94707  18.249  42.494  11.921
22360W        W94708   8.701  18.713   2.844
22361W        W94709  24.615  21.555  13.439
22362W        W94710   4.247  13.639   4.191
22363W        W94711  10.833  10.876  11.932
22364W        W94712   4.278   1.976   0.279
22365W        W94713  41.513  17.684   3.645
22366W        W94714  24.631   9.717   2.886
22367W        W94715  42.385  29.506   0.431
22368W        W94716  29.618   4.359  12.832
22369W        W94717  16.113   9.374  11.111
22370W        W94718  12.356   8.705  10.531
22371W        W94719  17.619   2.237  13.026
22372W        W94720  30.161  40.960  11.506
22373W        W94721  44.769   7.194   4.667
22374W        W94722  23.531  36.991  14.464
22375W        W94723  34.540  31.426  12.423
22376W        W94724  14.308  40.399  10.425
22377W        W94725   1.853  33.611   3.209
22378W        W94726   3.222  29.030  12.836
22379W        W94727  11.798  40.921  14.810
22380W        W94728  27.005  44.937   0.266
22381W        W94729  13.308  41.537   4.736
22382W        W94730  36.538  15.720  13.818
22383W        W94731  17.791  32.931  13.533
22384W        W94732  23.042  13.774   0.386
22385W        W94733  36.468  30.618  13.394
22386W        W94734   4.374  21.687   4.206
22387W        W94735  27.996  29.054  13.385
22388W        W94736  26.657   2.934  13.822
22389W        W94737   3.458  44.874  13.432
22390W        W94738  25.185  39.830   3.261
22391W        W94739  44.446  28.655  14.381
22392W        W94740   5.725  26.480  10.629
22393W        W94741  16.190  17.788  13.375
22394W        W94742  17.077  34.939   0.728
22395W        W94743  40.440  20.761   1.211
22396W        W94744  37.922   2.347  13.525
22397W        W94745  42.989  14.097  12.871
22398W        W94746   5.818  42.455  13.017
22399W        W94747   1.423  43.300   0.726
22400W        W94748  29.503  16.573  10.531
22401W        W94749  26.490  34.018  13.514
22402W        W94750   4.898  16.307   1.416
22403W        W94751  44.487   6.818  11.055
22404W        W94752   3.414  23.668   0.371
22405W        W94753  35.568  32.890   1.273
22406W        W94754  15.289   4.739  14.844
22407W        W94755  13.129   6.364  13.837
22408W        W94756  22.047  23.519  11.412
22409W        W94757  38.394   1.950  12.968
22410W        W94758   7.817  32.049   4.728
22411W        W94759  14.761   4.268  12.464
22412W        W94760  15.660  16.793   9.938
22413W        W94761  24.158   7.276  11.398
22414W        W94762  35.893   6.771  10.595
22415W        W94763  12.222   1.387  14.447
22416W        W94764  42.296  22.511   0.410
22417W        W94765  15.711   0.443   4.142
22418W        W94766   6.777   9.266  11.541
22419W        W94767   0.446   5.881  12.376
22420W        W94768   9.308  43.489   2.248
22421W        W94769  31.473  37.367   0.345
22422W        W94770  31.646  18.726   0.778
22423W        W94771  24.023  35.576   3.345
22424W        W94772  44.765  18.634  10.563
22425W        W94773  18.063   1.315   3.860
22426W        W94774  22.586  34.978  12.027
22427W        W94775  29.124  19.186  14.864
22428W        W94776  23.694  26.635   2.677
22429W        W94777  40.505  37.436  11.955
22430W        W94778  29.939  28.940  10.435
22431W        W94779   6.385  19.273   1.435
22432W        W94780  20.725  10.258  14.981
22433W        W94781  10.194   9.272   4.331
22434W        W94782  42.957  35.515   2.741
22435W        W94783  30.546  12.751   3.847
22436W        W94784  11.656  30.504   4.297
22437W        W94785   2.431  25.515  11.529
22438W        W94786   2.905  41.397  12.450
22439W        W94787   1.325  14.294   4.320
22440W        W94788  41.950   2.873   1.788
22441W        W94789  19.551  42.365  13.333
22442W        W94790  37.548  22.118   0.943
22443W        W94791  18.077   2.781   3.321
22444W        W94792  26.101  39.329  11.411
22445W        W94793  36.064   0.290  11.484
22446W        W94794  43.803  44.267   1.443
22447W        W94795  13.146  34.050  11.584
22448W        W94796   2.395  19.696  12.086
22449W        W94797  18.730   1.382  14.938
22450W        W94798  24.702  20.131  11.125
22451W        W94799  36.069  43.443   1.908
22452W        W94800  22.245  20.570   3.698
22453W        W94801  34.990   0.288  10.147
22454W        W94802  16.574  38.907  14.312
22455W        W94803  16.672  16.603   4.350
22456W        W94804   8.754   3.290  14.479
22457W        W94805  21.584  42.292   3.307
22458W        W94806   8.745  17.615  13.967
22459W        W94807  22.668  40.931  10.917
22460W        W94808  33.535  36.011  13.000
22461W        W94809  12.256  16.666  13.992
22462W        W94810  25.996   9.754  12.889
22463W        W94811   8.190  11.804  12.007
22464W        W94812   3.278  25.482   2.894
22465W        W94813  25.116  21.522  12.580
22466W        W94814  31.040  12.739  14.013
22467W        W94815  14.616   4.322  11.115
22468W        W94816   7.805  19.540   1.425
22469W        W94817  24.048  30.488   0.345
22470W        W94818  41.950  43.810   2.822
22471W        W94819  32.937  19.742   2.743
22472W        W94820  32.536  42.490   1.770
22473W        W94821  29.925  40.817  10.968
22474W        W94822  23.176  32.985   1.409
22475W        W94823  26.080  25.048   0.329
22476W        W94824  25.587  41.400   4.780
22477W        W94825  24.131  25.583  13.016
22478W        W94826  16.283   4.908   0.879
22479W        W94827  31.150  20.219   2.898
22480W        W94828  44.958  44.393  11.049
22481W        W94829  23.191  10.678   2.749
22482W        W94830  17.664  13.611   5.738
22483W        W94831  37.085  36.982   4.669
22484W        W94832  16.778  40.317   2.799
22485W        W94833  35.962  35.475  12.921
22486W        W94834  41.927  21.540  10.516
22487W        W94835  32.096  42.849   0.809
22488W        W94836   4.204  39.507   0.832
22489W        W94837  17.233  24.080   0.921
22490W        W94838  19.721  42.926  14.515
22491W        W94839  37.855  11.845  11.481
22492W        W94840   8.236  42.500   3.293
22493W        W94841   9.347  36.502   0.314
22494W        W94842  19.125   9.395   4.799
22495W        W94843  29.053   5.420   0.948
22496W        W94844  21.539  39.477  13.882
22497W        W94845   9.836  25.070  12.974
22498W        W94846  39.934  40.993   0.743
22499W        W94847   3.409  42.487   1.228
22500W        W94848  11.281   1.423   4.324
22501W        W94849  34.001   4.917  10.425
22502W        W94850  36.845  44.335   2.219
22503W        W94851  12.667  39.032   2.278
22504W        W94852  43.820  23.499  12.824
22505W        W94853   2.814   3.793  14.866
22506W        W94854  22.214  23.616   2.708
22507W        W94855  42.431  24.647   3.801
22508W        W94856   9.239  38.929  12.034
22509W        W94857  39.458  21.132   1.721
22510W        W94858  19.221  16.254  14.025
22511W        W94859   2.846  21.623   0.276
22512W        W94860  38.007  44.470  12.471
22513W        W94861  10.838  23.501  14.889
22514W        W94862  25.087   0.255  13.049
22515W        W94863   4.797  44.283  10.514
22516W        W94864  13.226  19.065  11.101
22517W        W94865  32.037   6.813   0.370
22518W        W94866  24.652  37.959  14.498
22519W        W94867  18.129  31.048  12.032
22520W        W94868   9.249  20.724  11.426
22521W        W94869   8.869  14.186  14.506
22522W        W94870  24.175  38.050  11.548
22523W        W94871  44.979  14.114   4.139
22524W        W94872  10.685   1.929   4.808
22525W        W94873  15.279   8.720   2.886
22526W        W94874   7.221  23.203  12.029
22527W        W94875   4.205  29.579  13.488
22528W        W94876   0.961  34.606   4.353
22529W        W94877  30.045  21.604  11.125
22530W        W94878  16.214   9.680  12.954
22531W        W94879  32.491  18.127  11.471
22532W        W94880  17.087  40.925  13.416
22533W        W94881   9.305  36.987  10.564
22534W        W94882  27.953   2.342   0.927
22535W        W94883  23.527  15.674  12.051
22536W        W94884  34.453  31.941   0.461
22537W        W94885  21.206  43.881   0.911
22538W        W94886  10.312  31.953   2.378
22539W        W94887  13.714  22.641   3.767
22540W        W94888  19.751  15.163   4.165
22541W        W94889  30.966  23.235  13.378
22542W        W94890  26.584   1.763  13.878
22543W        W94891  39.451   7.881   2.823
22544W        W94892  21.243  44.445   0.263
22545W        W94893  37.839  31.633  13.043
22546W        W94894  36.502  18.144   1.702
22547W        W94895  34.083  12.291   2.410
22548W        W94896  31.521  37.509   1.402
22549W        W94897  34.027  44.754   1.710
22550W        W94898  36.426  17.171   3.634
22551W        W94899  27.524  31.077  14.278
22552W        W94900  40.811  42.852   0.442
22553W        W94901  19.542   3.871  12.054
22554W        W94902  41.294  13.807   2.223
22555W        W94903  26.458  11.322   9.990
22556W        W94904  19.263  42.466   2.692
22557W        W94905  28.947  12.781  13.909
22558W        W94906  31.582  31.102  12.538
22559W        W94907  10.821  44.001  13.408
22560W        W94908  36.489  36.388  13.441
22561W        W94909  37.919   4.332  14.915
22562W        W94910  40.392  32.540  11.507
22563W        W94911  36.445   9.756  14.966
22564W        W94912  34.002  21.564  13.385
22565W        W94913  44.458   8.240  11.118
22566W        W94914  11.865   4.704  10.550
22567W        W94915  33.490  37.940  12.881
22568W        W94916  26.676  16.765   3.747
22569W        W94917  25.085   1.835  13.925
22570W        W94918  39.510  10.838   4.249
22571W        W94919  14.603  28.105  14.981
22572W        W94920   9.370  13.720   2.742
22573W        W94921  24.630  36.976   0.837
22574W        W94922  41.844  12.796  10.494
22575W        W94923   0.937  10.846  12.372
22576W        W94924  39.362  40.391  14.980
22577W        W94925   5.698  17.169  13.804
22578W        W94926  13.612  16.143  10.433
22579W        W94927  13.727  19.215   2.688
22580W        W94928  19.103  38.856   1.694
22581W        W94929  32.418  19.623  11.380
22582W        W94930   9.673   3.713   4.133
22583W        W94931   6.235   9.675  12.991
22584W        W94932  21.177  31.460  14.877
22585W        W94933  40.485   3.414   3.336
22586W        W94934  21.615   7.803  14.386
22587W        W94935  20.610  37.561  10.451
22588W        W94936   6.845  17.226   0.874
22589W        W94937  21.056  44.774   3.336
22590W        W94938  38.935   0.947  13.360
22591W        W94939  15.233  33.929   0.801
22592W        W94940  39.936  26.018   4.150
22593W        W94941  25.547  15.120  10.954
22594W        W94942  13.346  17.303   0.369
22595W        W94943  43.826  35.057   0.744
22596W        W94944  43.945  38.440   4.724
22597W        W94945  44.447  21.233  10.609
22598W        W94946  29.502  36.007  12.419
22599W        W94947   0.931   8.659   3.800
22600W        W94948  24.631  32.090   1.784
22601W        W94949   4.328  40.925   3.715
22602W        W94950   2.425  15.605  10.580
22603W        W94951  15.225  11.220  11.503
22604W        W94952  29.074  22.998   3.331
22605W        W94953  11.808  44.932  10.615
22606W        W94954  22.028   3.250  10.584
22607W        W94955  18.149  42.421  10.918
22608W        W94956   6.381  36.065   2.695
22609W        W94957  25.546   8.245   3.245
22610W        W94958  27.656  22.119  13.331
22611W        W94959  40.813   3.286  14.813
22612W        W94960   9.685  39.513   0.845
22613W        W94961  31.988  20.238  11.545
22614W        W94962  23.104  29.510  11.858
22615W        W94963   2.967  41.869  11.877
22616W        W94964  32.465  10.665   3.693
22617W        W94965  10.779   2.285  14.845
22618W        W94966  14.727   0.364   0.890
22619W        W94967   0.769  25.648   4.711
22620W        W94968  39.816  38.007  12.480
22621W        W94969   8.248   2.265  13.898
22622W        W94970  31.149  18.591  11.387
22623W        W94971   3.414  27.448  11.448
22624W        W94972  19.771  34.571   1.696
22625W        W94973   6.917  13.668  13.914
22626W        W94974  17.217  16.163   0.732
22627W        W94975  28.476   4.792   0.288
22628W        W94976  29.053   8.775  14.775
22629W        W94977   8.231  44.429  12.051
22630W        W94978   7.911  25.613   0.852
22631W        W94979  21.150  33.099   4.641
22632W        W94980  13.791  15.794   0.740
22633W        W94981  25.595  21.081  12.051
22634W        W94982  26.635   1.356  14.331
22635W        W94983  38.383  13.691   2.690
22636W        W94984  20.763  10.791   2.304
22637W        W94985  36.872  30.082   4.679
22638W        W94986  33.957   1.354   1.917
22639W        W94987  24.050  27.579   3.228
22640W        W94988  29.603   3.755  12.891
22641W        W94989  27.160  24.651   0.889
22642W        W94990   7.749  15.614   3.691
22643W        W94991  13.627  27.604   3.311
22644W        W94992  22.746  21.570  14.396
22645W        W94993  23.683   4.781   1.876
22646W        W94994  32.453  31.463   4.741
22647W        W94995  32.072  26.188  11.418
22648W        W94996  39.001   9.741  12.558
22649W        W94997   6.781  43.811   2.414
22650W        W94998  32.426  10.823   4.772
22651W        W94999   1.241  24.087  13.010
22652W        W95000  11.355   5.265  11.984
22653W        W95001   3.373  33.403  14.488
22654W        W95002  24.500  15.226   2.399
22655W        W95003  23.042   5.767   1.245
22656W        W95004  10.285  29.130  14.007
22657W        W95005   8.654  25.614   3.773
22658W        W95006  30.924   7.332   1.850
22659W        W95007  11.321  22.250  12.032
22660W        W95008  34.060  33.405  11.383
22661W        W95009   8.875  20.240  12.062
22662W        W95010  26.672  18.294   0.727
22663W        W95011  39.044   7.244   2.840
22664W        W95012  36.573  20.659  10.936
22665W        W95013  31.408  30.506  11.569
22666W        W95014  24.009  33.433   0.265
22667W        W95015  22.526  36.913  12.543
22668W        W95016  32.929   2.783   3.685
22669W        W95017  41.472  11.800  11.932
22670W        W95018  42.484  20.722   0.958
22671W        W95019  16.699   5.864  14.887
22672W        W95020  16.641  43.493   2.409
22673W        W95021  27.007  40.928   0.772
22674W        W95022   1.812  33.030   1.914
22675W        W95023   4.402  18.620   4.286
22676W        W95024   6.336   6.724  10.984
22677W        W95025  39.045  39.473  11.859
22678W        W95026   6.686  32.927  13.322
22679W        W95027  33.100   4.806   3.377
22680W        W95028  23.027  19.567   0.852
22681W        W95029  21.735  32.066   1.711
22682W        W95030  43.488   1.867   0.921
22683W        W95031  14.620  13.762  13.961
22684W        W95032   8.680  11.776   2.305
22685W        W95033   8.795  16.610  11.070
22686W        W95034  23.191  41.500   2.886
22687W        W95035  21.081  34.957   3.808
22688W        W95036  28.134  42.310  12.869
22689W        W95037  35.480  43.288   4.759
22690W        W95038   8.734  21.045  11.475
22691W        W95039  21.561  29.098   2.403
22692W        W95040  17.617   1.312  12.348
22693W        W95041  33.569   4.887   5.165
22694W        W95042  36.928  25.049  12.859
22695W        W95043  13.748  16.106   0.423
22696W        W95044  36.384   4.368   5.234
22697W        W95045   0.959  23.681  10.122
22698W        W95046   8.863   3.222  12.071
22699W        W95047  44.788   7.900  13.856
22700W        W95048  33.891   7.409  12.843
22701W        W95049  17.292  24.562  10.999
22702W        W95050  12.612  25.963   2.882
22703W        W95051  39.454  13.622  12.556
22704W        W95052  12.829  33.087   4.216
22705W        W95053  40.317  18.658   2.685
22706W        W95054  21.156   7.899  10.496
22707W        W95055  28.933  12.281  12.397
22708W        W95056  35.569  25.659  14.919
22709W        W95057   0.362  36.985   3.302
22710W        W95058  24.694  33.917   3.171
22711W        W95059  10.642  18.197  12.056
22712W        W95060  32.909  24.011   4.615
22713W        W95061  10.632  34.453   2.881
22714W        W95062  31.045   2.779  10.548
22715W        W95063  43.919  15.747  10.962
22716W        W95064   4.325  29.523  14.489
22717W        W95065  12.675  32.942  14.789
22718W        W95066  26.492  20.610  13.482
22719W        W95067  20.550   8.877   2.877
22720W        W95068  40.888  27.094  14.955
22721W        W95069  12.657  23.116  12.950
22722W        W95070   7.252   5.693  11.404
22723W        W95071  25.674   9.761  13.318
22724W        W95072  39.478  24.620  13.924
22725W        W95073  25.514  24.019   2.356
22726W        W95074   7.319   3.953   1.758
22727W        W95075  28.533  22.707   4.316
22728W        W95076  43.935  43.415   2.734
22729W        W95077  20.193  17.119   4.642
22730W        W95078   7.898  30.082   2.373
22731W        W95079  23.017   1.796   4.219
22732W        W95080  28.637  16.212  11.884
22733W        W95081  42.459  36.591   1.333
22734W        W95082  37.578  17.154   1.834
22735W        W95083  35.913  26.102  14.966
22736W        W95084  39.958  30.469  12.991
22737W        W95085  30.040  20.175   2.882
22738W        W95086  24.602  15.726   5.224
22739W        W95087  15.625  23.703  12.862
22740W        W95088  41.532  42.394  13.379
22741W        W95089  39.553  15.617   4.665
22742W        W95090  41.844   0.461   2.792
22743W        W95091  29.046  23.531  11.565
22744W        W95092   7.847  42.884  12.845
22745W        W95093   6.768  11.665   3.345
22746W        W95094  24.173  27.640   2.778
22747W        W95095  28.044  42.804  10.418
22748W        W95096  23.154  14.209   3.653
22749W        W95097  10.211   8.829   4.123
22750W        W95098  13.644  37.905   2.872
22751W        W95099  33.106  40.424   1.364
22752W        W95100  11.738  25.483  14.002
22753W        W95101  27.578  41.011   2.262
22754W        W95102   4.718  27.949   5.191
22755W        W95103  32.932  17.065  10.605
22756W        W95104  38.562  43.879  11.070
22757W        W95105  25.080  27.533  10.087
22758W        W95106  40.848  22.570  11.461
22759W        W95107  41.870  43.894  11.498
22760W        W95108  43.835  35.563   2.853
22761W        W95109  35.066  35.965  13.542
22762W        W95110  39.507  25.573   3.340
22763W        W95111  14.169  29.604   0.749
22764W        W95112   6.213  12.770   5.081
22765W        W95113   2.905  15.314  12.414
22766W        W95114  28.042   3.858   0.455
22767W        W95115  22.506  24.540  13.020
22768W        W95116  32.952  19.056   4.136
22769W        W95117   4.926  11.732   1.804
22770W        W95118  31.114  44.885   2.394
22771W        W95119  25.576  33.096   1.756
22772W        W95120   1.848  11.169   2.182
22773W        W95121  43.504   0.757  10.131
22774W        W95122  12.659  37.910   3.741
22775W        W95123  11.863  40.430  11.896
22776W        W95124  27.164  42.489   3.205
22777W        W95125  27.539   1.398  11.498
22778W        W95126  36.942  13.650   1.419
22779W        W95127  26.091  26.653   0.793
22780W        W95128   9.754   1.734   1.785
22781W        W95129  31.562  27.548  14.432
22782W        W95130  26.077  12.253  13.311
22783W        W95131  39.929  39.047  11.445
22784W        W95132  40.808  17.664   0.319
22785W        W95133  19.052  28.083  14.362
22786W        W95134  41.322   3.860  13.058
22787W        W95135  26.165  18.289  14.283
22788W        W95136  36.011  22.648  12.497
22789W        W95137  26.627   2.757   2.355
22790W        W95138  43.770  33.123  12.090
22791W        W95139  23.105   7.370   1.442
22792W        W95140   9.265  12.331   1.768
22793W        W95141   8.684  39.918   4.261
22794W        W95142  37.337  27.545  10.993
22795W        W95143   1.434  18.173   3.697
22796W        W95144  18.770  44.883  13.311
22797W        W95145  43.476  23.613   2.404
22798W        W95146   3.903  33.484   1.926
22799W        W95147  41.498  27.043   1.281
22800W        W95148  43.993  37.921   4.603
22801W        W95149  44.453  12.652  11.456
22802W        W95150   4.721  16.727  14.775
22803W        W95151  18.249  32.626  14.340
22804W        W95152  34.997   6.375  11.976
22805W        W95153   5.767  11.161   4.270
22806W        W95154  34.057  27.071   3.740
22807W        W95155  24.521  18.094   1.866
22808W        W95156  21.741   0.336  11.575
22809W        W95157   9.222  11.864  13.971
22810W        W95158  26.122  16.226   3.175
22811W        W95159  33.999  42.789  12.978
22812W        W95160   3.428  23.614  13.942
22813W        W95161  24.566  24.066   3.170
22814W        W95162   9.250  12.116   2.297
22815W        W95163   7.263  12.229  11.997
22816W        W95164  27.613  33.953   1.758
22817W        W95165  44.913  28.153  12.875
22818W        W95166  42.506   7.388  13.036
22819W        W95167  42.845  44.921  12.443
22820W        W95168  41.400  38.965   2.253
22821W        W95169   9.179  11.277   3.686
22822W        W95170  11.174  15.123  11.892
22823W        W95171  21.191   8.164  10.134
22824W        W95172   5.256   5.840   3.734
22825W        W95173   1.318  13.819  11.592
22826W        W95174  38.442   2.739  14.415
22827W        W95175  24.118  40.879   0.312
22828W        W95176  38.414  40.044   2.696
22829W        W95177   5.281  15.297   2.724
22830W        W95178  14.812  14.723  11.976
22831W        W95179   0.763  20.680   4.754
22832W        W95180  32.024  42.937  12.061
22833W        W95181  16.699   0.273  12.021
22834W        W95182  10.311  25.198   1.835
22835W        W95183  28.139   0.252  14.398
22836W        W95184  38.824  44.383   1.814
22837W        W95185   2.897  40.927  13.809
22838W        W95186  24.568  31.032   4.129
22839W        W95187  10.359   3.878  12.908
22840W        W95188  23.708   6.824   0.909
22841W        W95189  38.565  26.154  14.956
22842W        W95190  34.924  14.280   5.206
22843W        W95191   5.220   4.449  13.317
22844W        W95192  33.451  35.086  14.355
22845W        W95193  21.687  11.672   1.802
22846W        W95194  18.151  20.654   3.743
22847W        W95195  10.746  40.895  10.986
22848W        W95196  32.911  14.322   1.264
22849W        W95197  27.161  36.017  13.887
22850W        W95198  25.695  23.501  12.564
22851W        W95199  36.411   6.334   0.923
22852W        W95200  24.988   7.790   3.360
22853W        W95201  39.826   1.755  11.516
22854W        W95202  36.434  30.067  10.586
22855W        W95203  19.776  18.253   3.668
22856W        W95204  34.506   1.781   3.719
22857W        W95205   9.723  25.581  14.435
22858W        W95206   5.897  18.098  14.487
22859W        W95207  21.639  37.519   3.855
22860W        W95208  32.948  38.441   4.621
22861W        W95209  38.554   9.361   1.703
22862W        W95210  34.500   6.205   2.400
22863W        W95211  33.041  25.005  14.814
22864W        W95212  21.557  43.506  13.957
22865W        W95213  33.001  26.477  11.889
22866W        W95214   0.443   4.234  13.891
22867W        W95215  43.474  11.228   4.159
22868W        W95216   2.854  35.918  11.454
22869W        W95217   8.704   7.874  13.968
22870W        W95218  17.155  44.936   0.366
22871W        W95219  44.949  20.124  10.465
22872W        W95220   9.718  35.491  12.437
22873W        W95221   6.308  18.181  13.873
22874W        W95222  43.288  34.443   4.242
22875W        W95223  32.106  26.148  14.279
22876W        W95224  36.943  38.413   4.270
22877W        W95225  25.183  18.607   1.355
22878W        W95226  28.941  12.327  11.497
22879W        W95227  12.257  17.237  10.591
22880W        W95228   2.235  42.776  11.565
22881W        W95229  17.692  20.682  13.988
22882W        W95230  32.030  29.521   3.313
22883W        W95231   7.352  36.985   1.377
22884W        W95232  32.989  13.795  13.529
22885W        W95233  32.525  43.312  14.779
22886W        W95234  37.581   9.249  14.501
22887W        W95235  30.527   9.715  14.768
22888W        W95236  34.590   3.784   2.849
22889W        W95237  31.459   9.835  13.478
22890W        W95238  38.075  35.036   3.242
22891W        W95239  26.984  33.594   3.353
22892W        W95240  13.719  38.453  13.971
22893W        W95241  39.409  36.067   5.125
22894W        W95242  43.900  24.178  13.044
22895W        W95243  10.223  40.472  12.994
22896W        W95244  14.103  30.489   1.427
22897W        W95245  42.897   3.239  14.435
22898W        W95246   4.741   7.827   1.745
22899W        W95247  24.069  19.147   4.733
22900W        W95248  34.525  30.912   4.794
22901W        W95249  42.286  17.107  12.020
22902W        W95250   0.343  41.459   0.820
22903W        W95251  36.495   3.756   4.623
22904W        W95252  43.352   3.383   3.791
22905W        W95253  40.387   7.889  13.036
22906W        W95254   6.314   2.818  13.395
22907W        W95255   5.229   2.361  13.504
22908W        W95256  23.593  42.518  14.288
22909W        W95257  35.507  40.497  12.905
22910W        W95258   0.835  23.991   4.189
22911W        W95259  24.606  40.947   0.445
22912W        W95260  20.568  35.960   4.708
22913W        W95261  25.188  16.722   3.768
22914W        W95262   3.308  38.011  14.958
22915W        W95263   4.826   0.865   3.146
22916W        W95264  22.732  38.013  12.579
22917W        W95265  40.460  24.208  10.570
22918W        W95266  15.216  42.894   2.364
22919W        W95267   7.224  32.026  13.436
22920W        W95268   9.279   3.331  11.429
22921W        W95269  33.531  14.138   3.663
22922W        W95270  22.251  44.489  13.494
22923W        W95271  13.139  29.075  11.987
22924W        W95272   9.708  28.597   2.903
22925W        W95273  11.768  15.319   0.411
22926W        W95274  25.097   0.355  14.792
22927W        W95275  24.117  10.356  12.426
22928W        W95276   4.833  13.629  13.352
22929W        W95277  38.446  26.002   0.278
22930W        W95278   9.814  38.407   0.817
22931W        W95279   1.348  18.773   2.692
22932W        W95280  22.656  31.588  12.984
22933W        W95281  14.212  42.904  13.525
22934W        W95282  21.742  21.751  13.526
22935W        W95283  17.632   7.888  12.521
22936W        W95284  14.313  40.438   0.294
22937W        W95285  12.138   8.329   0.754
22938W        W95286  33.996  44.443   1.398
22939W        W95287   0.306  28.072   1.416
22940W        W95288  35.865   1.280   0.456
22941W        W95289  36.364   6.828  14.468
22942W        W95290  37.949  17.577  13.898
22943W        W95291  24.992  19.621   1.227
22944W        W95292  36.073  32.921  12.881
22945W        W95293  31.480   3.363   1.795
22946W        W95294  21.210   5.749  12.903
22947W        W95295  23.546   9.163  14.367
22948W        W95296  41.975   5.739  14.778
22949W        W95297  33.965  30.950  12.499
22950W        W95298  26.979  29.160   3.268
22951W        W95299  15.712  40.974   0.957
22952W        W95300  38.343  32.017   4.784
22953W        W95301  40.856  18.107   3.174
22954W        W95302  14.271  22.647   0.388
22955W        W95303  36.504  17.075   1.394
22956W        W95304  17.592  21.566   1.694
22957W        W95305  33.977  38.914   2.216
22958W        W95306  40.815  37.936   2.399
22959W        W95307  23.592  32.984   0.282
22960W        W95308   9.334  43.811   0.899
22961W        W95309  19.617   7.298  13.438
22962W        W95310   6.191  35.876  11.561
22963W        W95311  19.762  24.659  13.031
22964W        W95312  35.411  38.423  11.882
22965W        W95313  16.595  28.058   2.878
22966W        W95314  16.210  19.746  10.561
22967W        W95315  14.273   8.898   1.928
22968W        W95316  34.524  10.861   4.803
22969W        W95317  24.518  25.610  12.559
22970W        W95318  39.000  38.865   9.928
22971W        W95319  44.272  31.134  10.110
22972W        W95320  34.936   0.249  13.376
22973W        W95321  42.403   9.265   2.227
22974W        W95322  38.378   2.438  12.951
22975W        W95323  22.642  28.674   4.184
22976W        W95324  13.312  20.118   2.362
22977W        W95325  32.018  38.887   5.313
22978W        W95326   4.904  36.568   1.392
22979W        W95327  26.110  10.849  11.598
22980W        W95328  32.902  18.651   4.118
22981W        W95329  38.992  36.369  11.024
22982W        W95330  32.509   9.246   3.763
22983W        W95331  31.015   9.317  13.928
22984W        W95332  37.577  44.999  13.374
22985W        W95333   3.345  34.879  10.956
22986W        W95334  15.621  14.184   9.489
22987W        W95335   3.741   0.373   4.768
22988W        W95336  21.583  35.359   4.268
22989W        W95337   5.259  44.403   2.377
22990W        W95338  10.857  37.932  13.389
22991W        W95339  42.848  32.611   4.752
22992W        W95340  36.046  42.839   2.257
22993W        W95341  30.164  41.446  11.402
22994W        W95342  16.663   1.825  13.939
22995W        W95343  15.700  12.353   4.698
22996W        W95344  42.432   4.852  11.968
22997W        W95345  11.625  40.348  14.386
22998W        W95346  14.140  19.190   2.666
22999W        W95347  12.240   6.911   5.623
23000W        W95348   5.370  20.199  10.608
23001W        W95349  41.349  26.575  12.393
23002W        W95350  22.558  12.279   2.860
23003W        W95351  16.131  30.970  11.393
23004W        W95352  23.648  15.108  10.433
23005W        W95353  36.404  44.352   3.205
23006W        W95354  41.829  27.072  11.937
23007W        W95355   4.930  29.149   1.825
23008W        W95356  44.300  32.907   4.838
23009W        W95357  35.064  26.191  10.598
23010W        W95358  33.589  26.152   0.435
23011W        W95359  18.076  42.435   0.272
23012W        W95360  37.560  20.722   5.118
23013W        W95361  32.445  26.637  13.409
23014W        W95362  21.592  20.547   3.290
23015W        W95363   2.804  31.009  14.505
23016W        W95364  30.502  39.410   4.177
23017W        W95365  23.017  38.341   0.793
23018W        W95366  38.849  35.053   0.805
23019W        W95367  26.542  21.628  13.380
23020W        W95368   7.699  40.449   4.142
23021W        W95369  29.589  32.393  11.936
23022W        W95370   3.241  40.832  12.455
23023W        W95371  24.218  28.537  12.444
23024W        W95372   9.351  31.537  13.913
23025W        W95373  29.532   5.757   4.659
23026W        W95374   6.227  16.794   0.328
23027W        W95375  41.317  21.733  11.921
23028W        W95376  22.730   2.747  12.522
23029W        W95377  11.194  11.720   4.224
23030W        W95378  40.317  42.858   3.786
23031W        W95379  34.438  12.737   3.291
23032W        W95380   8.770  17.783   1.901
23033W        W95381  12.722  35.474  12.429
23034W        W95382  28.439   6.852  12.922
23035W        W95383   6.865   8.382  14.501
23036W        W95384  19.711  16.095  14.398
23037W        W95385  19.775  17.774   1.331
23038W        W95386  38.971  36.004  10.099
23039W        W95387  15.712  14.663   0.853
23040W        W95388   7.804  30.122  13.990
23041W        W95389  15.126  24.093  12.074
23042W        W95390  35.570  36.525  12.987
23043W        W95391  12.293  17.575  13.318
23044W        W95392  10.283  14.829   2.239
23045W        W95393   2.415  13.211  14.418
23046W        W95394  36.006  27.686  10.471
23047W        W95395  15.629  44.299   2.292
23048W        W95396  11.644  34.077  12.923
23049W        W95397  17.139  43.460  10.082
23050W        W95398  27.129  29.162  12.484
23051W        W95399  44.485   5.687  14.289
23052W        W95400  43.507  42.362  14.465
23053W        W95401  35.395  28.482  11.434
23054W        W95402  16.315  14.181  12.091
23055W        W95403  22.111   4.226  11.429
23056W        W95404  44.763  27.571  13.331
23057W        W95405   7.372   2.256   1.834
23058W        W95406   4.727   9.344   3.637
23059W        W95407  26.190  26.100  14.483
23060W        W95408  44.293  42.010   3.161
23061W        W95409  23.689  18.683  14.935
23062W        W95410  13.734   9.886   4.153
23063W        W95411  35.042  27.198  14.323
23064W        W95412   7.693  30.021  12.373
23065W        W95413  24.587  23.585  10.626
23066W        W95414  10.339  20.211  10.915
23067W        W95415  35.493  34.872  13.467
23068W        W95416   8.245  25.651  14.015
23069W        W95417  42.374   5.308  12.505
23070W        W95418  42.799  41.329   1.912
23071W        W95419   6.191  43.808   2.405
23072W        W95420  15.183   6.388   2.381
23073W        W95421   8.404  13.116  11.070
23074W        W95422  34.483  11.288   1.883
23075W        W95423   3.723  12.819  14.840
23076W        W95424  40.417  23.673  12.376
23077W        W95425  33.917  13.318   2.755
23078W        W95426  32.994   5.730   9.932
23079W        W95427  11.149   0.805   4.243
23080W        W95428  23.138   7.794  12.948
23081W        W95429  28.627   9.805   1.241
23082W        W95430   7.812  19.228  12.436
23083W        W95431   9.664  12.654  11.914
23084W        W95432   0.260  36.061  14.784
23085W        W95433  26.467  42.522  10.478
23086W        W95434   2.279  33.069  11.448
23087W        W95435  22.071  39.381  12.003
23088W        W95436  14.163  14.235   0.849
23089W        W95437  37.076  20.243  14.824
23090W        W95438  31.472  40.906  10.597
23091W        W95439  33.509  30.560   4.130
23092W        W95440  34.084  16.186  12.036
23093W        W95441  42.432  14.323  10.408
23094W        W95442  15.310   7.746  14.979
23095W        W95443  28.467  30.538   5.212
23096W        W95444  20.160  29.508  12.571
23097W        W95445  34.499  13.699  13.332
23098W        W95446  21.084  34.043   3.198
23099W        W95447  40.423  31.461  13.327
23100W        W95448  44.321  35.983   4.818
23101W        W95449  28.493  20.137   4.237
23102W        W95450  32.059  29.612   2.774
23103W        W95451   6.708  24.608  14.999
23104W        W95452  40.966  11.657   0.396
23105W        W95453  13.175  39.486   1.882
23106W        W95454  24.635  13.132   3.232
23107W        W95455   4.399  39.538  11.967
23108W        W95456   0.779  37.894  14.806
23109W        W95457  16.760  32.403  13.804
23110W        W95458  20.032   3.294   5.184
23111W        W95459  41.898  42.020  13.791
23112W        W95460   1.288  11.302   0.337
23113W        W95461  41.450  23.669  12.851
23114W        W95462  24.137  34.419   1.346
23115W        W95463  33.983   0.356   3.149
23116W        W95464   2.464   5.733   2.409
23117W        W95465  33.617  23.110   3.820
23118W        W95466  30.053  41.990   2.291
23119W        W95467   4.289   3.942  10.924
23120W        W95468  28.089  24.143  12.544
23121W        W95469   4.915  21.215   2.881
23122W        W95470  19.245  29.974   4.695
23123W        W95471  35.890  22.681   9.933
23124W        W95472  19.139  15.292   4.245
23125W        W95473   8.256  18.075  14.295
23126W        W95474  19.058  32.970  10.494
23127W        W95475  22.181  41.906  10.515
23128W        W95476  29.169  16.271   0.253
23129W        W95477  23.657   3.363  11.581
23130W        W95478  41.501  42.464   0.316
23131W        W95479  32.934  17.745   1.363
23132W        W95480  31.029   7.261  13.442
23133W        W95481  22.108  15.180   2.863
23134W        W95482  36.405   1.746  11.439
23135W        W95483   3.305  41.380  10.962
23136W        W95484  16.132  25.691  14.829
23137W        W95485  18.765  20.149  12.026
23138W        W95486  41.430   4.785  13.905
23139W        W95487  28.087  40.000   4.815
23140W        W95488  31.976  13.182  10.524
23141W        W95489  21.704  44.361   1.448
23142W        W95490  24.062  28.593  10.506
23143W        W95491   5.840   2.734   1.879
23144W        W95492  35.427   7.204  11.991
23145W        W95493  24.622  38.437   3.857
23146W        W95494  38.454  39.910   0.410
23147W        W95495   6.913  40.818   2.771
23148W        W95496   1.236   3.712   3.648
23149W        W95497  29.956  22.165  12.560
23150W        W95498  13.279   6.387  14.284
23151W        W95499  13.626  35.513   3.168
23152W        W95500  35.528  16.162  10.458
23153W        W95501   9.380   7.753   1.794
23154W        W95502  12.117  39.924   2.739
23155W        W95503  11.279  37.493   0.280
23156W        W95504   5.896  27.666   4.741
23157W        W95505  24.533  37.957   1.445
23158W        W95506  28.543  26.044   2.373
23159W        W95507   4.331  33.999  14.839
23160W        W95508  16.285  27.940  14.791
23161W        W95509  24.627  28.533  10.986
23162W        W95510  23.183  23.185   2.804
23163W        W95511   2.320  30.068   0.353
23164W        W95512   7.348   7.749   4.127
23165W        W95513   8.371  35.360  14.380
23166W        W95514  37.502  31.646   0.296
23167W        W95515  40.447  11.773   0.860
23168W        W95516  27.148  26.999  13.373
23169W        W95517   4.268  17.666  12.087
23170W        W95518   2.796  21.217   1.290
23171W        W95519  13.808  25.072   0.316
23172W        W95520  11.362  29.144  13.061
23173W        W95521  14.652  27.161  13.500
23174W        W95522  37.344   6.734   4.190
23175W        W95523  25.568  25.583  11.032
23176W        W95524   9.320  16.583  11.021
23177W        W95525  18.561  34.557   5.171
23178W        W95526  10.758  14.172  12.923
23179W        W95527  29.614   4.429  11.005
23180W        W95528  25.691  18.102   4.180
23181W        W95529  15.612  16.202   2.862
23182W        W95530   1.462  19.117   1.747
23183W        W95531  28.491   1.774   0.243
23184W        W95532  19.269   7.723   2.401
23185W        W95533  19.574  31.036  11.417
23186W        W95534   2.941   1.887   2.827
23187W        W95535  33.478  20.595   1.757
23188W        W95536  37.563   6.913   2.689
23189W        W95537  41.822   0.839   1.224
23190W        W95538   6.348  29.590   5.085
23191W        W95539  10.644   2.961  13.991
23192W        W95540  37.353  40.856  14.510
23193W        W95541  22.225  35.559  11.006
23194W        W95542  36.508   8.797   4.113
23195W        W95543   0.886  21.177   1.320
23196W        W95544  19.557  23.580  11.866
23197W        W95545  17.672  31.596  10.622
23198W        W95546  13.234  16.779   2.731
23199W        W95547   3.249  32.425  10.899
23200W        W95548  13.673  20.563   3.286
23201W        W95549  40.324  31.600  11.468
23202W        W95550  36.495   4.272   3.714
23203W        W95551   9.386  17.701   0.401
23204W        W95552  10.786  25.982  14.760
23205W        W95553  38.925  42.987  13.046
23206W        W95554  30.971  20.052   0.299
23207W        W95555  22.545  29.035   1.306
23208W        W95556  34.564  35.508   0.352
23209W        W95557  35.385   6.896  10.540
23210W        W95558  17.561  10.865   0.861
23211W        W95559  22.554  32.616  11.581
23212W        W95560   6.716  34.865   4.653
23213W        W95561   2.931   0.473   1.740
23214W        W95562  34.535  20.569  12.990
23215W        W95563  14.619  35.413   3.814
23216W        W95564  28.574  12.628   4.239
23217W        W95565  21.039  44.428  12.909
23218W        W95566  29.107  33.982  14.396
23219W        W95567  19.609  27.516   3.157
23220W        W95568   6.822  28.575  14.873
23221W        W95569  35.953  29.659  12.424
23222W        W95570  16.587   0.281   1.316
23223W        W95571  41.932  29.435   4.255
23224W        W95572  32.036  14.725   0.793
23225W        W95573  34.416  20.621   0.278
23226W        W95574  26.101  17.225   2.853
23227W        W95575   4.371  18.786   2.305
23228W        W95576  39.486  22.135   1.401
23229W        W95577  33.989  21.660  11.437
23230W        W95578   9.649  34.589   4.749
23231W        W95579  10.848  24.568  12.574
23232W        W95580  11.766  11.150   1.742
23233W        W95581  37.552   0.293  10.917
23234W        W95582  14.245  17.093   1.697
23235W        W95583  36.999  43.872  14.280
23236W        W95584  38.349  15.766   2.745
23237W        W95585  20.058   4.737  10.086
23238W        W95586  31.555  21.700  14.934
23239W        W95587  36.079  26.102   1.352
23240W        W95588  22.518  37.386   0.800
23241W        W95589  11.672  12.153   1.844
23242W        W95590  20.594   5.834   0.396
23243W        W95591   2.776  23.048   3.824
23244W        W95592   9.332  43.788  12.537
23245W        W95593  29.979   1.786  14.333
23246W        W95594  13.205   1.961   4.183
23247W        W95595  32.434   0.455   2.667
23248W        W95596  39.058   7.698   2.870
23249W        W95597  18.673  29.007   1.815
23250W        W95598  41.537  10.842  10.959
23251W        W95599  28.079   5.811   2.867
23252W        W95600   6.283  28.103  12.507
23253W        W95601  36.080  17.613   2.321
23254W        W95602  21.619   9.773  12.409
23255W        W95603   8.821  35.963  13.519
23256W        W95604   2.385  28.540   2.708
23257W        W95605  38.391  31.628   3.373
23258W        W95606  39.434  15.696   1.912
23259W        W95607  23.074   2.386  10.466
23260W        W95608  43.872   4.777  12.546
23261W        W95609  19.235  23.519  12.905
23262W        W95610  10.332   8.808  10.520
23263W        W95611  18.201  31.475  14.275
23264W        W95612  20.695  18.686  14.903
23265W        W95613  40.852   6.328  13.480
23266W        W95614  39.518  42.928   2.717
23267W        W95615  30.001  14.653  11.015
23268W        W95616  24.613   4.333  12.072
23269W        W95617   5.882   0.331   2.310
23270W        W95618  35.916   2.793  13.044
23271W        W95619  41.349   3.347  14.324
23272W        W95620   5.345  41.963  12.005
23273W        W95621  20.662   9.870   0.384
23274W        W95622  21.114   8.677   5.198
23275W        W95623  21.208   7.683  14.884
23276W        W95624  39.521  23.615  12.383
23277W        W95625  43.868  39.866  13.365
23278W        W95626  23.110  36.573   0.308
23279W        W95627  12.829  39.368   2.391
23280W        W95628  17.139  42.811   3.737
23281W        W95629  21.655  40.015   1.740
23282W        W95630   1.483  40.410  13.942
23283W        W95631  16.632  29.122  12.362
23284W        W95632   4.896   9.175   1.828
23285W        W95633  29.151  15.816   3.167
23286W        W95634  18.244  36.969   1.753
23287W        W95635  12.241  32.627  13.506
23288W        W95636  19.708  35.977  13.046
23289W        W95637   3.908  18.279  13.824
23290W        W95638  37.571  44.350  13.801
23291W        W95639   6.245   9.165   4.289
23292W        W95640  40.005  21.638   1.885
23293W        W95641  43.910  14.814  13.308
23294W        W95642  15.247  31.947   2.880
23295W        W95643   7.676  24.013  11.098
23296W        W95644  36.443  33.122   0.754
23297W        W95645   2.431  13.151   2.338
23298W        W95646  41.923  37.358  12.875
23299W        W95647  21.129  19.687  14.922
23300W        W95648  16.105   6.781   1.782
23301W        W95649   3.315  22.557  13.878
23302W        W95650   8.823  12.178  14.411
23303W        W95651  29.044  27.598   3.758
23304W        W95652  20.551  12.726   4.719
23305W        W95653   9.845  27.552  11.612
23306W        W95654  44.868  24.199  11.092
23307W        W95655  28.144  38.058   0.355
23308W        W95656  18.206   7.729   1.296
23309W        W95657  32.540  25.000   1.386
23310W        W95658   7.319  24.626  12.433
23311W        W95659  39.828   9.672  11.026
23312W        W95660  30.076  18.621  11.498
23313W        W95661  24.623  44.854   0.822
23314W        W95662  34.469  38.357  13.432
23315W        W95663  28.631  40.992   1.236
23316W        W95664  36.593  33.908  14.298
23317W        W95665  30.620  37.429  10.505
23318W        W95666  33.419   9.200  10.574
23319W        W95667  38.501  33.938   1.710
23320W        W95668  43.474  38.899   1.251
23321W        W95669  27.053  16.251  13.860
23322W        W95670  36.054  13.114  12.060
23323W        W95671  15.803   6.404   2.869
23324W        W95672  36.439  16.657  12.536
23325W        W95673  25.997  12.654  14.924
23326W        W95674  38.432  41.381   1.775
23327W        W95675  44.333  11.825  10.566
23328W        W95676  31.100  33.030   3.350
23329W        W95677  17.771  41.830   0.904
23330W        W95678  26.587   3.763   0.462
23331W        W95679  29.615   8.751  12.534
23332W        W95680  43.999   5.837  12.067
23333W        W95681  34.399  21.026  12.428
23334W        W95682  42.928   5.322  11.555
23335W        W95683   8.303  28.644  14.021
23336W        W95684  29.593   3.269  13.387
23337W        W95685  33.607  25.188   0.429
23338W        W95686   6.845  14.638  10.531
23339W        W95687  16.580  41.529   1.309
23340W        W95688  40.977   5.848   0.442
23341W        W95689  36.936  19.728  11.116
23342W        W95690  24.585  21.670  12.547
23343W        W95691  36.062  38.412  14.296
23344W        W95692  19.254  14.162   2.231
23345W        W95693  34.432  34.507  11.434
23346W        W95694  40.858  44.889  14.314
23347W        W95695  11.678  30.459   0.769
23348W        W95696  12.315  39.939  11.596
23349W        W95697  22.581   4.802   2.284
23350W        W95698  39.335   0.308   4.217
23351W        W95699  24.122  37.419   4.302
23352W        W95700  18.773  35.856   4.183
23353W        W95701  17.242  42.327   3.684
23354W        W95702  36.355  36.096  10.491
23355W        W95703  11.172  25.962   2.698
23356W        W95704  10.165  19.141  11.530
23357W        W95705  35.523  26.097  10.447
23358W        W95706   8.840  33.025   0.405
23359W        W95707  33.929   9.730  11.878
23360W        W95708   3.847  33.518  12.023
23361W        W95709  24.640   3.403  14.007
23362W        W95710  33.500  38.553   0.363
23363W        W95711  14.097  20.696  13.953
23364W        W95712  32.475   2.907   1.847
23365W        W95713  17.666  32.402  11.401
23366W        W95714  32.899  27.482  13.048
23367W        W95715  23.197  44.833   0.857
23368W        W95716   4.265  16.773  13.979
23369W        W95717  24.211  34.072   3.729
23370W        W95718  36.089  37.486   5.270
23371W        W95719   6.420  32.619   4.301
23372W        W95720  21.132  32.982  14.502
23373W        W95721  31.038  35.964   9.615
23374W        W95722  18.104  36.394   3.700
23375W        W95723  33.055   7.231   0.803
23376W        W95724   8.356  17.182  11.512
23377W        W95725  40.973  41.505  11.533
23378W        W95726  14.615  39.963  10.596
23379W        W95727   7.394  29.633  14.793
23380W        W95728   4.790  12.132  10.439
23381W        W95729  44.447   9.264  13.367
23382W        W95730  20.061  40.467   2.839
23383W        W95731   1.267  17.625   1.931
23384W        W95732  29.988  36.365   4.264
23385W        W95733  27.637  21.079   2.398
23386W        W95734  19.714  16.175  14.826
23387W        W95735  30.456  18.093   0.824
23388W        W95736  36.045  12.314   1.371
23389W        W95737  36.427  42.292   1.729
23390W        W95738  43.461  22.644  11.020
23391W        W95739  12.118  27.691  14.889
23392W        W95740  30.920  12.792  14.939
23393W        W95741   8.748  34.100  14.509
23394W        W95742  12.688   0.964  13.422
23395W        W95743  28.440   3.240   5.256
23396W        W95744  34.602   8.202   3.238
23397W        W95745  13.303  18.600  11.085
23398W        W95746  35.863  10.805  14.836
23399W        W95747  42.954  16.692   3.226
23400W        W95748  27.512  39.527  11.885
23401W        W95749  13.796  36.375  11.967
23402W        W95750  36.432  25.518  12.081
23403W        W95751  29.615   3.287   3.719
23404W        W95752   6.357  35.037  12.388
23405W        W95753  43.879   6.233   0.325
23406W        W95754  14.271  34.545  12.516
23407W        W95755   9.293   0.390  13.522
23408W        W95756  18.058  33.086  11.931
23409W        W95757  27.526  20.555   4.177
23410W        W95758  19.676  19.743   0.739
23411W        W95759  32.036  41.346   3.857
23412W        W95760   4.362  37.479   4.654
23413W        W95761   5.416  16.073  14.404
23414W        W95762   0.308  36.092  12.900
23415W        W95763  13.117  35.106   1.801
23416W        W95764  18.212  21.143   1.352
23417W        W95765  27.059   3.953  10.644
23418W        W95766  29.155   6.812   0.916
23419W        W95767   3.916  44.908   3.729
23420W        W95768  34.106   9.657   1.416
23421W        W95769  44.895  10.706   2.353
23422W        W95770   0.260  33.084   0.250
23423W        W95771  42.953  33.447   0.827
23424W        W95772  10.160  29.016  10.617
23425W        W95773  20.648   6.744  11.561
23426W        W95774  28.455   3.417   2.199
23427W        W95775  26.641  25.555   1.819
23428W        W95776  24.191  11.657  10.052
23429W        W95777  43.805   2.783  10.536
23430W        W95778  37.459   1.308   4.797
23431W        W95779  16.605  24.573   2.363
23432W        W95780  19.161  31.923   9.581
23433W        W95781   5.226  37.578  12.989
23434W        W95782  43.434  40.919   3.327
23435W        W95783  34.568  42.295   0.357
23436W        W95784  11.154  30.649   1.769
23437W        W95785   0.745  28.469  12.841
23438W        W95786  12.621   1.261   3.355
23439W        W95787  20.568  29.436  10.085
23440W        W95788  38.461  15.152  11.960
23441W        W95789  44.775  11.242   4.829
23442W        W95790  37.359  18.763  11.511
23443W        W95791   6.236  12.290  12.944
23444W        W95792  39.334  24.638   2.325
23445W        W95793   4.888  23.158  12.845
23446W        W95794  16.192  21.123   3.831
23447W        W95795  43.476  17.758   0.276
23448W        W95796   1.312  38.345  12.414
23449W        W95797  36.440   1.393   1.342
23450W        W95798   0.854  15.202   3.739
23451W        W95799  40.403   5.922   2.357
23452W        W95800   2.233  35.888  14.312
23453W        W95801  19.587   3.382  14.451
23454W        W95802  10.279  41.790   1.443
23455W        W95803  29.103   0.965  12.039
23456W        W95804  23.607  32.515   4.780
23457W        W95805  20.181  20.168   0.439
23458W        W95806  11.809  41.894   3.671
23459W        W95807   9.171  26.166  11.384
23460W        W95808  28.155  15.169   3.285
23461W        W95809  25.097  44.798   1.226
23462W        W95810  28.503  13.712  11.539
23463W        W95811  27.182   9.843  13.541
23464W        W95812  28.106  11.806  12.836
23465W        W95813  26.145  19.578   2.677
23466W        W95814   2.852   3.865  12.366
23467W        W95815  32.072  15.187  13.923
23468W        W95816  25.683  23.083   1.377
23469W        W95817  41.873   0.988   0.276
23470W        W95818  24.501  25.678   2.673
23471W        W95819   8.835  13.806  12.492
23472W        W95820  38.325  26.101  11.388
23473W        W95821  21.651  41.827  14.941
23474W        W95822  39.935   6.745  13.365
23475W        W95823   0.457  19.775   3.662
23476W        W95824   0.947  22.996   4.780
23477W        W95825  40.902  14.212   1.745
23478W        W95826  22.233  20.052   3.636
23479W        W95827  43.795  41.334   1.444
23480W        W95828  23.593   4.702  11.601
23481W        W95829  14.206   7.332  14.487
23482W        W95830  37.576   7.234  12.955
23483W        W95831  24.097  10.315  13.484
23484W        W95832  36.095  38.398  11.423
23485W        W95833  28.968  36.565  14.288
23486W        W95834  27.460  20.733   3.240
23487W        W95835  29.959  34.061   1.375
23488W        W95836  32.466   3.333  14.899
23489W        W95837  39.979  25.660   4.327
23490W        W95838  23.671  42.835  10.460
23491W        W95839   6.214   3.238   2.794
23492W        W95840  21.163   9.757   1.815
23493W        W95841   5.206   9.829   2.700
23494W        W95842  22.567  12.783   3.331
23495W        W95843  29.482  14.209   0.261
23496W        W95844  23.032  16.171   1.704
23497W        W95845  40.358   6.714  11.026
23498W        W95846  30.942  21.101   2.391
23499W        W95847  37.880  35.456  14.439
23500W        W95848  32.941  40.497   2.709
23501W        W95849  40.538  27.950  12.886
23502W        W95850  40.025   3.882   3.698
23503W        W95851  12.834  37.031  12.539
23504W        W95852  26.146  39.463  14.899
23505W        W95853  14.133  25.664   3.705
23506W        W95854  37.451  30.423  11.950
23507W        W95855  25.670   4.435  14.277
23508W        W95856  13.696  22.150   4.826
23509W        W95857  44.320  33.571  11.404
23510W        W95858   5.904  37.882   3.261
23511W        W95859  20.536  38.942   4.211
23512W        W95860  22.214  16.177  11.920
23513W        W95861   2.796   4.408  10.901
23514W        W95862  12.854  20.256  14.914
23515W        W95863  31.453  26.100  12.490
23516W        W95864   4.291  43.851   0.328
23517W        W95865   0.956  39.497  12.948
23518W        W95866  13.224  41.395  10.459
23519W        W95867  44.278  34.896   0.384
23520W        W95868  44.325  28.539  12.057
23521W        W95869   8.284  20.744  12.854
23522W        W95870  37.031  12.789   3.768
23523W        W95871  16.598  24.073   4.730
23524W        W95872  11.228   7.181  11.991
23525W        W95873  31.610   5.367   3.866
23526W        W95874  31.981  13.269  13.494
23527W        W95875   5.407  35.864  11.887
23528W        W95876  30.648  18.064   1.221
23529W        W95877  27.466   6.697   1.387
23530W        W95878  18.100  25.036   3.841
23531W        W95879  43.005  23.629  10.632
23532W        W95880  15.651  29.007   9.966
23533W        W95881   9.211  43.400   0.326
23534W        W95882  44.837   6.306   3.693
23535W        W95883  22.118  24.116  12.527
23536W        W95884  16.158   5.216   3.228
23537W        W95885  39.413  18.157  12.407
23538W        W95886   9.308   3.817   2.782
23539W        W95887  22.206   7.687  13.429
23540W        W95888  15.764  22.027   4.808
23541W        W95889   7.888  35.012  12.404
23542W        W95890  34.007  32.885  10.951
23543W        W95891   0.260  31.117   1.341
23544W        W95892  32.022  10.247   3.696
23545W        W95893  33.019  33.112  14.862
23546W        W95894  16.580  36.519   4.669
23547W        W95895  24.545  43.339  13.547
23548W        W95896  21.644  27.586   1.256
23549W        W95897  39.882  17.121  12.508
23550W        W95898  37.849  18.110  14.320
23551W        W95899  25.111  23.164   3.831
23552W        W95900  33.076  32.451  14.807
23553W        W95901  26.588  42.004  12.339
23554W        W95902  26.983  30.472  12.397
23555W        W95903  16.656   6.833   4.600
23556W        W95904  20.258   6.838  14.401
23557W        W95905   3.340  37.470   0.736
23558W        W95906  38.036  25.964  13.407
23559W        W95907  21.683  39.487  11.858
23560W        W95908   0.923  32.451   0.347
23561W        W95909  40.544   4.710  10.135
23562W        W95910  32.958  27.017   1.327
23563W        W95911  14.778  38.402   1.437
23564W        W95912  25.142   1.750  12.557
23565W        W95913  32.605  14.102   5.210
23566W        W95914  10.825  41.838   0.427
23567W        W95915  25.213  38.985   4.193
23568W        W95916  18.700   8.367   3.634
23569W        W95917  15.146  44.968   2.888
23570W        W95918  32.473  31.596   3.791
23571W        W95919  44.931  37.422   2.380
23572W        W95920  21.033  16.621  14.329
23573W        W95921  39.907  13.236  12.838
23574W        W95922  12.835   5.350  13.015
23575W        W95923  40.843  21.725  12.535
23576W        W95924  21.573  23.697   3.382
23577W        W95925   2.883   1.884   2.247
23578W        W95926   6.707  27.962  12.908
23579W        W95927  31.896  29.517   1.413
23580W        W95928   7.321  42.916   0.964
23581W        W95929  13.274  27.530   1.343
23582W        W95930  29.064  43.404   1.795
23583W        W95931  20.031  21.577  12.831
23584W        W95932  44.896  10.158  10.492
23585W        W95933  40.399   3.859  11.585
23586W        W95934  36.363  43.437   1.796
23587W        W95935   0.438  33.438   2.869
23588W        W95936  15.644  40.377   3.679
23589W        W95937  27.053   6.264  14.904
23590W        W95938   8.879  27.578  10.413
23591W        W95939  44.311  32.605   3.181
23592W        W95940  17.244   4.804   2.804
23593W        W95941  32.117   9.332  12.461
23594W        W95942  38.010  24.116   1.376
23595W        W95943  29.530  31.560   4.220
23596W        W95944  27.636  20.082  12.951
23597W        W95945  35.395  23.571  12.951
23598W        W95946  19.760  36.859   3.689
23599W        W95947  29.155  14.173   0.359
23600W        W95948   7.808  44.383   3.256
23601W        W95949  39.850   3.859  10.939
23602W        W95950  29.638  16.291  14.351
23603W        W95951  21.145  32.458   0.734
23604W        W95952  35.853  39.976   1.278
23605W        W95953   6.194  26.166   0.294
23606W        W95954  26.586   6.819  10.625
23607W        W95955  27.664  23.082  11.531
23608W        W95956  20.274  15.306  11.609
23609W        W95957  12.805  21.065  13.892
23610W        W95958  32.924  37.895   2.316
23611W        W95959   4.712  37.972  13.846
23612W        W95960  27.007  34.020   0.305
23613W        W95961   1.884  21.127  11.922
23614W        W95962  43.345  26.539   0.965
23615W        W95963   1.940  15.178   0.272
23616W        W95964   6.858  42.927   3.857
23617W        W95965  30.129  41.942  11.085
23618W        W95966  30.651  25.515  14.759
23619W        W95967  22.238  18.067  14.472
23620W        W95968  32.891  15.654   3.362
23621W        W95969  24.156  16.205  13.025
23622W        W95970  34.999  15.699   3.161
23623W        W95971  28.029  19.049   1.390
23624W        W95972  27.575  24.599   4.765
23625W        W95973   3.857  15.710  11.860
23626W        W95974   6.385  14.112  12.030
23627W        W95975  39.050  31.579   0.324
23628W        W95976  22.572   1.965   4.210
23629W        W95977  11.734  22.205  10.561
23630W        W95978  40.462   8.688  13.001
23631W        W95979  33.407  39.974  11.432
23632W        W95980  24.178  41.419   1.246
23633W        W95981  29.436  26.663  10.453
23634W        W95982  39.056  37.580  14.915
23635W        W95983  11.643  30.026   3.733
23636W        W95984   9.729  20.536  11.088
23637W        W95985  16.287  29.455  10.494
23638W        W95986  44.839   2.464  14.337
23639W        W95987  27.197  14.331  14.842
23640W        W95988  34.949  18.119   1.809
23641W        W95989  19.041  11.621  14.475
23642W        W95990  30.567  27.977  12.576
23643W        W95991   5.252  22.580   3.382
23644W        W95992  37.904  32.892  10.597
23645W        W95993   9.230  25.109  12.437
23646W        W95994  16.097  35.532  11.096
23647W        W95995  20.262  26.529   0.842
23648W        W95996  30.421  27.685  13.038
23649W        W95997  15.596  18.724  10.475
23650W        W95998  32.545  12.823   3.239
23651W        W95999   4.311  32.947  12.871
23652W        W96000   9.210   3.230   0.260
23653W        W96001  44.352  28.087   0.909
23654W        W96002  21.702  42.828  14.481
23655W        W96003  28.063  17.148  11.009
23656W        W96004   2.352  22.225  14.013
23657W        W96005  12.175  12.182  13.485
23658W        W96006  38.559  32.127   1.357
23659W        W96007  22.174   8.816  13.936
23660W        W96008  30.003   3.404  11.932
23661W        W96009  37.987  27.615   3.159
23662W        W96010  10.227  10.190   4.145
23663W        W96011  33.467  17.665  10.526
23664W        W96012  13.186  31.561  11.917
23665W        W96013  40.818   0.317  14.899
23666W        W96014  38.906  30.930   0.812
23667W        W96015  22.701   2.430  10.626
23668W        W96016   0.312  12.206  10.545
23669W        W96017  24.725  20.598   0.453
23670W        W96018  13.610  21.522  12.485
23671W        W96019  39.415   1.754   2.371
23672W        W96020   7.803   6.187  10.007
23673W        W96021   3.347  33.926  13.945
23674W        W96022  17.677  19.165   3.170
23675W        W96023  41.024  39.863  14.389
23676W        W96024  14.334  23.599   1.920
23677W        W96025  18.140  40.910  13.025
23678W        W96026  39.522  13.829   2.783
23679W        W96027  33.932   5.823  11.534
23680W        W96028  42.337  36.055   1.709
23681W        W96029   0.885  43.000  12.850
23682W        W96030  15.582   0.362  14.824
23683W        W96031  38.568  31.933  14.357
23684W        W96032  27.546  41.802  10.596
23685W        W96033  12.839  34.508   1.443
23686W        W96034  40.509   9.317   1.841
23687W        W96035   9.252  17.298  12.567
23688W        W96036  11.868  21.590  14.960
23689W        W96037  28.574  18.181   1.427
23690W        W96038  23.675  27.490   2.862
23691W        W96039  28.477  29.103   4.146
23692W        W96040  39.430  10.366   2.829
23693W        W96041  33.118  24.020  10.893
23694W        W96042  34.457  15.176  11.566
23695W        W96043   1.258  22.155   3.787
23696W        W96044   6.428  21.209  13.337
23697W        W96045  19.742  28.664   2.188
23698W        W96046  15.262  43.896   2.368
23699W        W96047  40.900   9.168   2.278
23700W        W96048  34.570   1.976  14.321
23701W        W96049  36.394  22.237  14.414
23702W        W96050  30.105  34.374   2.284
23703W        W96051   7.786   9.270  14.340
23704W        W96052  20.029  23.556   0.902
23705W        W96053  37.984   5.280  14.467
23706W        W96054  40.347  14.187  13.356
23707W        W96055  11.634  39.062   2.256
23708W        W96056  38.509  31.578   4.327
23709W        W96057   4.943  44.818   9.953
23710W        W96058  39.894  28.487   0.445
23711W        W96059  36.563   5.710   4.747
23712W        W96060  35.044  22.678  12.493
23713W        W96061  19.602  32.011   4.266
23714W        W96062  42.902  32.464   2.890
23715W        W96063  18.630  14.831  14.990
23716W        W96064   8.325   7.292   4.806
23717W        W96065  39.469  25.648  10.985
23718W        W96066  26.997  28.547  11.549
23719W        W96067   3.302  25.067  12.094
23720W        W96068   9.753  28.472   0.332
23721W        W96069  12.309  18.722   3.365
23722W        W96070  44.881   0.320   3.210
23723W        W96071   2.291  35.959  10.521
23724W        W96072  27.024  15.699   2.823
23725W        W96073  29.996  12.190   2.410
23726W        W96074  31.439   0.811  12.498
23727W        W96075   4.211  11.165  14.003
23728W        W96076  25.150  34.487   2.322
23729W        W96077   0.360   1.893   2.782
23730W        W96078  41.494  44.852   1.865
23731W        W96079  43.890  26.496   4.624
23732W        W96080   2.436  17.141   4.161
23733W        W96081   3.769  24.528   1.360
23734W        W96082  37.057   1.865  10.946
23735W        W96083  21.589  14.658   4.789
23736W        W96084  35.901  11.175  10.552
23737W        W96085   9.171  16.131  11.118
23738W        W96086  19.236  13.271   0.330
23739W        W96087  34.045   9.216   2.310
23740W        W96088  15.120  42.448  12.055
23741W        W96089  25.707  25.982  11.084
23742W        W96090   6.227  10.272   1.446
23743W        W96091  14.292  38.004  11.500
23744W        W96092  11.261  35.510  11.042
23745W        W96093  21.144  12.610  13.864
23746W        W96094  29.609  11.694   3.225
23747W        W96095  20.115  41.890   1.348
23748W        W96096  10.325  42.345   2.721
23749W        W96097  42.415   7.677   0.913
23750W        W96098  26.495  38.367  13.529
23751W        W96099  15.187  12.213   3.691
23752W        W96100  44.807  40.400   1.908
23753W        W96101  39.914  32.893   0.812
23754W        W96102  12.129  35.010   3.360
23755W        W96103  29.594   8.274  10.618
23756W        W96104  21.128   4.825  13.832
23757W        W96105  20.763  18.153  12.084
23758W        W96106  17.578  41.034   4.344
23759W        W96107   9.375  30.633  10.939
23760W        W96108   8.673  17.563  12.382
23761W        W96109   6.197  30.024   1.307
23762W        W96110  10.281  18.098   0.333
23763W        W96111   0.324  10.152   0.899
23764W        W96112  24.636  18.178  13.005
23765W        W96113  17.573  41.980  13.431
23766W        W96114   2.314  40.894   4.276
23767W        W96115  16.296   6.854  14.997
23768W        W96116  33.036   8.683   2.776
23769W        W96117   4.344  32.552  11.394
23770W        W96118  27.160  16.742   2.364
23771W        W96119  17.598   5.859  12.932
23772W        W96120  44.010  43.967  12.430
23773W        W96121  40.821  32.064  14.445
23774W        W96122  14.260   3.907   4.772
23775W        W96123  32.935  18.164   4.646
23776W        W96124  25.714  44.418   5.199
23777W        W96125  34.468  33.040   4.303
23778W        W96126  38.842  14.283   1.715
23779W        W96127   8.358  24.029  12.480
23780W        W96128  15.669  20.179  10.635
23781W        W96129  18.291  14.684   0.405
23782W        W96130  30.419   3.790  14.399
23783W        W96131  29.129  12.707   3.693
23784W        W96132  37.376   6.759  11.490
23785W        W96133  38.858  19.109   0.351
23786W        W96134  32.922  24.069  11.545
23787W        W96135  33.003  43.795   2.214
23788W        W96136  22.699  10.710   2.225
23789W        W96137  34.058   6.374   0.789
23790W        W96138  29.995   3.906   3.845
23791W        W96139  29.044  34.526  11.873
23792W        W96140  16.169  21.121  14.002
23793W        W96141  39.356   6.719   0.955
23794W        W96142  26.686   6.300  12.833
23795W        W96143  32.042  29.504   4.604
23796W        W96144   9.376  16.127  11.466
23797W        W96145   2.394  29.994   1.768
23798W        W96146  33.562  39.335   2.251
23799W        W96147   5.388  13.157  13.035
23800W        W96148  39.437  27.101  14.304
23801W        W96149  33.063  34.483   0.880
23802W        W96150   9.648  20.571   0.469
23803W        W96151  43.911  33.414   4.197
23804W        W96152  44.353   0.446  11.955
23805W        W96153  39.344  32.112  14.948
23806W        W96154  37.903  43.883   1.289
23807W        W96155  39.458  38.036  13.541
23808W        W96156  13.740  42.835  11.018
23809W        W96157  11.160   2.742  13.345
23810W        W96158  11.294   6.258  13.380
23811W        W96159  26.650  35.102   1.321
23812W        W96160  36.353  25.011   3.713
23813W        W96161  43.387  32.524  12.455
23814W        W96162  35.942  19.757  11.103
23815W        W96163  12.798  32.486   2.216
23816W        W96164  27.612  37.351   0.788
23817W        W96165  43.779  12.732  13.024
23818W        W96166  24.676  21.622  13.909
23819W        W96167  20.701  30.062   2.210
23820W        W96168  35.079  27.051   0.875
23821W        W96169  27.646  29.504   2.327
23822W        W96170  30.956  22.672   4.663
23823W        W96171  23.169  10.648   4.278
23824W        W96172   4.426  17.285  12.087
23825W        W96173  39.315  32.961   3.260
23826W        W96174  17.744   4.303  12.535
23827W        W96175  10.336   4.806   5.806
23828W        W96176  16.606  35.072   0.356
23829W        W96177  17.247  16.136  14.453
23830W        W96178  19.584  32.018   3.657
23831W        W96179   7.755   9.825   3.323
23832W        W96180   2.864  18.567  14.507
23833W        W96181   1.326  29.055   1.839
23834W        W96182  26.639  34.898   3.352
23835W        W96183  34.015  12.816   0.434
23836W        W96184  26.514  29.164   1.291
23837W        W96185  38.038  13.219   3.348
23838W        W96186  36.452  12.765  13.062
23839W        W96187  34.454   5.849  13.994
23840W        W96188  28.656   9.341   0.383
23841W        W96189  30.487  26.074   1.212
23842W        W96190  14.747  22.204  12.484
23843W        W96191  34.068  15.193   3.801
23844W        W96192  44.481  18.721  13.493
23845W        W96193  12.253  34.475   4.797
23846W        W96194  22.233   9.175  14.325
23847W        W96195  41.404  24.164   1.712
23848W        W96196  15.095  33.402  13.063
23849W        W96197  24.975  44.796  11.911
23850W        W96198  11.693  22.049  14.942
23851W        W96199  32.082  32.041   0.820
23852W        W96200   7.825   0.976  13.321
23853W        W96201  29.452  22.625  12.566
23854W        W96202  35.547   2.315   4.602
23855W        W96203   7.697  22.236   1.876
23856W        W96204   2.936  10.823   1.322
23857W        W96205   5.838  15.085   3.244
23858W        W96206  19.739   1.388  13.477
23859W        W96207  13.266   2.941  11.922
23860W        W96208  33.938  16.738  12.422
23861W        W96209   7.329  21.722   3.149
23862W        W96210  20.182  19.736  10.566
23863W        W96211  43.958   3.322   5.113
23864W        W96212  13.830  12.810  14.359
23865W        W96213  24.108   7.261   9.596
23866W        W96214  13.694  27.612  12.500
23867W        W96215  33.091  43.509  10.932
23868W        W96216  38.327   0.467   3.278
23869W        W96217   3.917  23.645  13.960
23870W        W96218  22.737  31.934  10.613
23871W        W96219  43.400   0.747   2.321
23872W        W96220  39.960  27.126   0.469
23873W        W96221   7.171  18.105  11.550
23874W        W96222   1.832  28.637   3.203
23875W        W96223  22.623   7.790   3.365
23876W        W96224  41.978   4.760  13.428
23877W        W96225  13.677  11.832  13.315
23878W        W96226   1.470  38.423  11.927
23879W        W96227  39.941  19.178   1.278
23880W        W96228   8.374  44.852  11.027
23881W        W96229   6.338  22.119   2.672
23882W        W96230   1.920  31.993  13.361
23883W        W96231  37.035  38.980   4.685
23884W        W96232  44.337  14.284   2.251
23885W        W96233  15.100   9.848   0.908
23886W        W96234  22.101  38.075   0.793
23887W        W96235  36.965  26.208   2.257
23888W        W96236   5.825  12.136  11.072
23889W        W96237  42.504   6.737   3.699
23890W        W96238  41.811  11.747  11.858
23891W        W96239  22.653  40.448  14.377
23892W        W96240  41.960  22.646  13.942
23893W        W96241   1.968  33.422   0.946
23894W        W96242  24.640  37.573   0.948
23895W        W96243  22.568  28.959  12.072
23896W        W96244   5.826  12.212  12.516
23897W        W96245  19.583  29.019   0.331
23898W        W96246  21.209  30.160  12.974
23899W        W96247  12.221   1.431  12.906
23900W        W96248  28.489  21.686   2.275
23901W        W96249  32.940  33.551   4.166
23902W        W96250  31.426   1.276  14.815
23903W        W96251  38.961  41.356   1.363
23904W        W96252  12.821  29.969  11.983
23905W        W96253  15.634  39.935  10.421
23906W        W96254  13.620  18.078  13.968
23907W        W96255   4.855  36.536  10.486
23908W        W96256   0.836  31.634  11.611
23909W        W96257  36.348  44.919   0.462
23910W        W96258  25.073  33.442   3.324
23911W        W96259  15.273  15.175  13.803
23912W        W96260   0.299  36.346  13.863
23913W        W96261  37.422  21.246  12.953
23914W        W96262  29.648  10.801   3.279
23915W        W96263   6.707  33.128  14.908
23916W        W96264  20.068  38.366   4.309
23917W        W96265   4.857  37.532   4.756
23918W        W96266  18.630   0.388   4.234
23919W        W96267  43.299   9.879  13.797
23920W        W96268  40.050  14.165   5.100
23921W        W96269  26.109  40.818   4.600
23922W        W96270  12.829  19.260  13.929
23923W        W96271  42.875  40.803   2.903
23924W        W96272  31.642  38.876   2.855
23925W        W96273   2.789  35.520   3.330
23926W        W96274   5.851  29.553  13.904
23927W        W96275   2.463   7.282  11.054
23928W        W96276  28.956  10.311   3.638
23929W        W96277  12.347  37.080   1.917
23930W        W96278   2.845  16.232  12.466
23931W        W96279  13.108  29.919  12.988
23932W        W96280  22.120  40.862  14.400
23933W        W96281  10.649  38.443   1.330
23934W        W96282   4.744  12.692   0.790
23935W        W96283   4.386  36.366   1.394
23936W        W96284  42.326   7.213  14.308
23937W        W96285  25.045  16.754  10.107
23938W        W96286  25.561  39.459  11.552
23939W        W96287  24.003  33.874   4.619
23940W        W96288  13.312  40.437   3.826
23941W        W96289   3.744  39.366   4.711
23942W        W96290  31.597  16.111   2.891
23943W        W96291  42.416  39.818   2.237
23944W        W96292  43.016   5.891  10.896
23945W        W96293  11.861  36.347  13.900
23946W        W96294   9.176   4.906  10.060
23947W        W96295   9.376  38.331   4.677
23948W        W96296  27.586  34.060  10.468
23949W        W96297  22.578  13.255  14.966
23950W        W96298  29.948  13.844   4.609
23951W        W96299  39.977  10.661  10.914
23952W        W96300  20.545  17.670  14.893
23953W        W96301  36.592  16.275   3.305
23954W        W96302  41.994   0.775   4.637
23955W        W96303  29.599  42.966  11.984
23956W        W96304  28.543  39.045   0.283
23957W        W96305  20.570  28.117  11.575
23958W        W96306  11.714  43.423  13.395
23959W        W96307  35.437  14.227  13.969
23960W        W96308  43.427  24.616  12.475
23961W        W96309   6.200  34.434  12.907
23962W        W96310  34.591   1.735   3.300
23963W        W96311  32.893   5.425   5.751
23964W        W96312  27.115   9.783   1.849
23965W        W96313  34.479  30.610  11.486
23966W        W96314  28.082  34.002   3.849
23967W        W96315  32.915  28.636  11.099
23968W        W96316  40.400  37.478  11.592
23969W        W96317  38.470  23.141  14.974
23970W        W96318  43.785  43.990   2.740
23971W        W96319  10.255  25.506  13.374
23972W        W96320  35.414  20.669  10.547
23973W        W96321   1.954  38.332  12.848
23974W        W96322  43.429  43.806   0.295
23975W        W96323  34.478  43.332  11.460
23976W        W96324  43.370  14.778   4.698
23977W        W96325  44.336  39.906   3.857
23978W        W96326  28.514  18.743   3.651
23979W        W96327  20.549  40.378  13.884
23980W        W96328  16.682  44.343   4.230
23981W        W96329  14.234   8.287  14.760
23982W        W96330  16.184   1.302  10.895
23983W        W96331  16.693  14.733   2.271
23984W        W96332   7.244  35.983  11.995
23985W        W96333  14.151  11.272  10.108
23986W        W96334   4.368   1.840  14.322
23987W        W96335   3.318   5.883   4.732
23988W        W96336  24.609  20.613   1.421
23989W        W96337  35.462   8.804  13.992
23990W        W96338  14.152   4.738  10.500
23991W        W96339  28.146  11.750  13.455
23992W        W96340  24.197  30.971  13.979
23993W        W96341   0.959  24.992  10.610
23994W        W96342  20.761  38.569  11.991
23995W        W96343  30.942  34.097  14.912
23996W        W96344  36.028  26.563  11.101
23997W        W96345  11.627   2.860   0.447
23998W        W96346  31.034  16.312  12.039
23999W        W96347  40.023  42.030  10.575
24000W        W96348  29.586   5.734   3.187
24001W        W96349  35.010  10.206   4.648
24002W        W96350   7.711  40.548   5.218
24003W        W96351   8.683   3.855  14.855
24004W        W96352  39.875  12.814  14.370
24005W        W96353  14.209  28.098   0.319
24006W        W96354   8.271   4.941  14.325
24007W        W96355  11.628  17.602   2.760
24008W        W96356  42.376  30.924   4.788
24009W        W96357  40.388   2.855  13.793
24010W        W96358  28.635  43.480   4.723
24011W        W96359  35.981  29.509   4.183
24012W        W96360  32.447  44.886  12.077
24013W        W96361   3.903  19.763   0.792
24014W        W96362   9.716  44.495   2.706
24015W        W96363  40.401   1.255  13.883
24016W        W96364   6.397  39.883   5.263
24017W        W96365  39.332  33.453  14.935
24018W        W96366  34.104   1.797   1.300
24019W        W96367  17.766  10.853   3.303
24020W        W96368  23.173   5.833  11.053
24021W        W96369  29.500  14.711  13.339
24022W        W96370   4.778  22.224   0.269
24023W        W96371  16.656   6.712  12.512
24024W        W96372  16.298  26.193   0.271
24025W        W96373  20.259  22.056   4.744
24026W        W96374  22.182  38.436   3.787
24027W        W96375  29.500  16.659  12.374
24028W        W96376   1.852   3.349   0.819
24029W        W96377  20.220  32.964  14.387
24030W        W96378  15.607  31.646  11.947
24031W        W96379  22.702  28.160  12.532
24032W        W96380  35.520  41.503  14.803
24033W        W96381   9.814  11.690   1.326
24034W        W96382   0.345   2.783  11.009
24035W        W96383  11.234  32.928  12.546
24036W        W96384  15.823  40.482  14.800
24037W        W96385  14.193  30.968   3.797
24038W        W96386   1.482  18.725  12.490
24039W        W96387  26.089  12.319  11.454
24040W        W96388  33.576   2.269   3.311
24041W        W96389  36.007  14.134  14.901
24042W        W96390   4.895   1.269  10.053
24043W        W96391  10.373  22.695   2.893
24044W        W96392   0.481  22.027   1.867
24045W        W96393  40.408  28.654  11.501
24046W        W96394  42.983  18.666   2.673
24047W        W96395   9.756  43.850   1.792
24048W        W96396  38.395  22.519   1.719
24049W        W96397   4.889   3.789   2.190
24050W        W96398  42.296  35.904  14.293
24051W        W96399   2.373  23.712  10.002
24052W        W96400  22.244  28.035  10.563
24053W        W96401  11.260  33.475   4.805
24054W        W96402  32.478   4.248  12.076
24055W        W96403  33.101  25.203   0.807
24056W        W96404  11.771  40.374   0.933
24057W        W96405  31.002  29.174  12.527
24058W        W96406   2.957  11.628   2.690
24059W        W96407  34.876  34.488   3.800
24060W        W96408  33.434  19.278   3.240
24061W        W96409   5.891   2.348  13.422
24062W        W96410   0.858  30.978  12.978
24063W        W96411  20.266  25.022   2.880
24064W        W96412  37.984  39.986  10.485
24065W        W96413  31.999   3.819  10.956
24066W        W96414  32.509  12.782  10.440
24067W        W96415  30.035  18.179  11.464
24068W        W96416  21.208  15.764  10.495
24069W        W96417  24.226  31.604   1.934
24070W        W96418  37.574  14.210  12.446
24071W        W96419  40.530   2.921   2.692
24072W        W96420   2.262  17.619   1.787
24073W        W96421  22.693   0.352   0.850
24074W        W96422   4.263  30.551   2.360
24075W        W96423  38.957  13.262   3.332
24076W        W96424   5.304  39.023  11.904
24077W        W96425  28.557  43.838  10.480
24078W        W96426   0.829   4.307  12.429
24079W        W96427   9.232  20.099   4.797
24080W        W96428  25.187   8.804  12.977
24081W        W96429  31.455  44.820  12.932
24082W        W96430  36.986  29.151   2.203
24083W        W96431  33.530  44.909   3.847
24084W        W96432  36.068  10.793   2.691
24085W        W96433   5.814  39.929   0.941
24086W        W96434  14.219   6.355   4.703
24087W        W96435  44.280  33.570  14.985
24088W        W96436  13.659   8.697   4.167
24089W        W96437  42.366   6.185   1.301
24090W        W96438   9.800  37.578   2.292
24091W        W96439  11.239  17.615   2.879
24092W        W96440  13.224  37.978  12.926
24093W        W96441   8.380  18.068  10.496
24094W        W96442   9.268  24.513   1.414
24095W        W96443   2.341  27.656   4.219
24096W        W96444  36.088  20.700  11.986
24097W        W96445  12.634  44.008  12.382
24098W        W96446  16.291  11.671  14.872
24099W        W96447  22.224  43.380  14.310
24100W        W96448  17.086   4.781  12.510
24101W        W96449  42.421  18.667  14.384
24102W        W96450   5.825  10.801  11.375
24103W        W96451  20.571  43.911  14.983
24104W        W96452  43.816  27.941   3.670
24105W        W96453  24.663   9.185   5.664
24106W        W96454   4.284  15.240   1.331
24107W        W96455  24.147   5.769   1.406
24108W        W96456   3.851  42.016   3.701
24109W        W96457  35.491   1.794  11.462
24110W        W96458   5.729  14.821  10.586
24111W        W96459  16.798  23.216   2.749
24112W        W96460  34.891  36.436  14.368
24113W        W96461  13.302  35.382  12.928
24114W        W96462  23.652  30.571  11.567
24115W        W96463   7.760  43.476  10.571
24116W        W96464  43.977   6.221   4.221
24117W        W96465  39.468  13.622  14.504
24118W        W96466  25.051  21.641   4.177
24119W        W96467  20.256   3.450   1.325
24120W        W96468  14.727  11.254  13.379
24121W        W96469  27.573  43.976   0.432
24122W        W96470  10.370   7.310   4.819
24123W        W96471   1.390  21.579  10.536
24124W        W96472   0.352   9.765  14.375
24125W        W96473  32.524   8.788  10.110
24126W        W96474   2.252  32.969  13.523
24127W        W96475  28.076  27.488   1.921
24128W        W96476  11.292  13.155  10.643
24129W        W96477  25.169   6.195  14.031
24130W        W96478  14.138   6.337   0.933
24131W        W96479  31.032  24.059  14.288
24132W        W96480  27.961  24.049   5.142
24133W        W96481  34.021   6.239  10.093
24134W        W96482  22.728   6.680  14.413
24135W        W96483  36.842  22.734   0.373
24136W        W96484  37.573  15.083   2.766
24137W        W96485  40.863  13.232  11.886
24138W        W96486  15.197  35.404  14.491
24139W        W96487  28.495   5.885  13.531
24140W        W96488  16.568  32.969   4.203
24141W        W96489  36.881  39.982   1.434
24142W        W96490  34.883  12.239   1.899
24143W        W96491   0.274  34.999   1.756
24144W        W96492  17.622  40.338   2.384
24145W        W96493  12.321   1.925   3.630
24146W        W96494   3.838   9.776  10.571
24147W        W96495   1.322  33.583   3.656
24148W        W96496  27.973   6.307  12.520
24149W        W96497   7.371  40.398  11.905
24150W        W96498   5.735  34.086  11.586
24151W        W96499   4.230  20.089  14.938
24152W        W96500   5.913  41.015  13.341
24153W        W96501   8.250  32.438  11.467
24154W        W96502  20.228  32.024   3.676
24155W        W96503   5.816   0.915  11.926
24156W        W96504  32.091   5.821   4.698
24157W        W96505  16.608  11.855  10.941
24158W        W96506  29.069  41.026  12.999
24159W        W96507  28.605  44.857  13.399
24160W        W96508   7.731  43.418   0.821
24161W        W96509  37.416  28.533  12.011
24162W        W96510   5.910  21.749   4.794
24163W        W96511  14.279  37.962  10.603
24164W        W96512  23.520  23.574  13.041
24165W        W96513  19.773  43.282   4.643
24166W        W96514  42.994  44.446  10.461
24167W        W96515   3.257  18.149   4.637
24168W        W96516  30.624   6.732  10.149
24169W        W96517  42.020  43.780  14.406
24170W        W96518  23.238  40.955   4.156
24171W        W96519  17.791   9.370   2.706
24172W        W96520  30.654  24.685  10.425
24173W        W96521  38.958   8.271  10.138
24174W        W96522  11.190  38.329   4.649
24175W        W96523   1.961  43.355   2.761
24176W        W96524   5.214   2.787  13.899
24177W        W96525  29.102  35.522   4.750
24178W        W96526  34.562  34.103  13.863
24179W        W96527  33.440  31.631  12.922
24180W        W96528  41.933   8.167   2.189
24181W        W96529  30.614  21.157  13.793
24182W        W96530   8.694   6.383   5.192
24183W        W96531  37.010  38.862   4.225
24184W        W96532  13.791   9.873  12.032
24185W        W96533   8.717  10.642   3.245
24186W        W96534   0.459  24.101  12.872
24187W        W96535  15.810   5.763   4.204
24188W        W96536  13.245  36.939   4.765
24189W        W96537   7.321  31.476   3.332
24190W        W96538  10.654  29.610  14.815
24191W        W96539  42.309  24.637  11.568
24192W        W96540  28.063  38.339  13.536
24193W        W96541  31.464  40.462  10.951
24194W        W96542  15.134   9.878  11.398
24195W        W96543  42.362  44.445  11.110
24196W        W96544   0.444   9.295   1.895
24197W        W96545  16.308  35.478   3.795
24198W        W96546  43.854  19.270   3.847
24199W        W96547   2.965   4.699   2.857
24200W        W96548  35.483   8.197   4.729
24201W        W96549  14.119  35.365  11.891
24202W        W96550   9.657   8.289   3.774
24203W        W96551   5.791  11.682  10.938
24204W        W96552  19.672  25.494   0.473
24205W        W96553  12.264   3.931  14.963
24206W        W96554  43.460  11.636  14.920
24207W        W96555  15.621  18.173  13.425
24208W        W96556  25.982   1.825   0.304
24209W        W96557  19.620  41.312  11.866
24210W        W96558   5.357   6.822   1.347
24211W        W96559   2.738   9.785  13.963
24212W        W96560  11.178  30.950  12.911
24213W        W96561  42.345   4.399   0.768
24214W        W96562  36.070   8.228  11.398
24215W        W96563  27.661   0.763   0.966
24216W        W96564  15.600  40.997  12.031
24217W        W96565  24.480  24.979   4.598
24218W        W96566   2.422  10.180   3.212
24219W        W96567   9.776  21.567  11.504
24220W        W96568   8.680   7.864  14.314
24221W        W96569   9.365  15.706   4.767
24222W        W96570  11.180  18.768  14.441
24223W        W96571  30.638  19.548   1.712
24224W        W96572  42.420  35.403  12.942
24225W        W96573  16.257  23.125   2.823
24226W        W96574  37.360   2.810  14.964
24227W        W96575  22.515  43.829   0.944
24228W        W96576  37.445   4.315  11.958
24229W        W96577  44.946  39.987   3.763
24230W        W96578  37.450  42.497   2.697
24231W        W96579  29.555  23.070   3.250
24232W        W96580  21.597  36.519   2.331
24233W        W96581  28.144  32.622   3.798
24234W        W96582   3.299  21.569   4.165
24235W        W96583  27.196  17.115   2.895
24236W        W96584  27.038  25.577   0.460
24237W        W96585  15.247  40.043  12.543
24238W        W96586  43.322  29.053   4.689
24239W        W96587  28.661  43.954   2.306
24240W        W96588  13.640  31.485   3.246
24241W        W96589  26.497  22.640  10.450
24242W        W96590  44.334  30.497  13.372
24243W        W96591   8.688  18.671  12.059
24244W        W96592   3.750  19.129  14.824
24245W        W96593  30.451   3.319  14.031
24246W        W96594  27.592   0.282  13.422
24247W        W96595  19.156  30.092   1.344
24248W        W96596  13.764  32.956  11.374
24249W        W96597  29.528  22.559   1.353
24250W        W96598   0.276   7.231   3.196
24251W        W96599  40.527  29.627   4.317
24252W        W96600  22.109  26.996  11.464
24253W        W96601   6.396   7.847  11.994
24254W        W96602  29.972   9.261  11.912
24255W        W96603  38.567   7.190   1.255
24256W        W96604  36.590  18.070  11.419
24257W        W96605  14.653  25.490  10.488
24258W        W96606   7.708  22.700  13.026
24259W        W96607  33.447  16.713  10.405
24260W        W96608  42.300  14.718   1.906
24261W        W96609  34.504  28.522  13.026
24262W        W96610  22.216   5.918  13.876
24263W        W96611  23.124  33.949  13.036
24264W        W96612  27.584  19.064   2.791
24265W        W96613  22.545  11.223  14.464
24266W        W96614  26.555  13.665   4.113
24267W        W96615  15.652   4.267   2.874
24268W        W96616  22.192  20.651   0.819
24269W        W96617  10.789   2.773   3.195
24270W        W96618  39.390   7.865  12.390
24271W        W96619  34.943  18.249  11.396
24272W        W96620  25.546  26.977  12.363
24273W        W96621  15.629   0.379   3.157
24274W        W96622  38.912  12.168   2.848
24275W        W96623  33.933  32.627   2.186
24276W        W96624  37.375   5.435   4.162
24277W        W96625  27.552  41.436   4.637
24278W        W96626  36.573  22.627  10.479
24279W        W96627   1.386  31.419   3.851
24280W        W96628   8.258  35.037  12.478
24281W        W96629  32.625  41.378  11.090
24282W        W96630  17.306   9.711  12.031
24283W        W96631  34.494  28.960  13.011
24284W        W96632  11.648  40.937   4.658
24285W        W96633  27.552  38.551   0.282
24286W        W96634   0.743   2.904   2.882
24287W        W96635   6.233  32.469   0.347
24288W        W96636  11.655   0.445   9.970
24289W        W96637  30.125  19.084   2.836
24290W        W96638  40.354   4.710  10.593
24291W        W96639  40.901   8.197   2.889
24292W        W96640  20.099  10.174   4.688
24293W        W96641  36.568  38.854  10.997
24294W        W96642  23.046  42.856   0.846
24295W        W96643  22.747  13.612  11.492
24296W        W96644   2.297  27.157  12.372
24297W        W96645  29.443  28.951  11.857
24298W        W96646  23.651  35.581   3.665
24299W        W96647   1.302  37.530   4.197
24300W        W96648  19.124  36.471   2.685
24301W        W96649  34.954  24.186  10.560
24302W        W96650  21.073  32.446   5.268
24303W        W96651  31.100   5.248   3.229
24304W        W96652   3.926  13.686  10.488
24305W        W96653  31.062  14.699   1.711
24306W        W96654  15.092   7.240  14.312
24307W        W96655   8.175   7.768  13.035
24308W        W96656   6.863  12.764   0.468
24309W        W96657   3.765  30.908   3.324
24310W        W96658  21.699  21.055   4.677
24311W        W96659   2.310   1.816   3.216
24312W        W96660  35.428  43.965   2.686
24313W        W96661   3.712  16.263  11.607
24314W        W96662  22.738  17.702  11.017
24315W        W96663  41.483  15.662   2.234
24316W        W96664  28.023   6.224   5.087
24317W        W96665  42.903  22.102  14.908
24318W        W96666  38.825   2.775  11.071
24319W        W96667  30.599  33.111   1.223
24320W        W96668  35.385  20.188  11.959
24321W        W96669   9.779  32.458   3.261
24322W        W96670  32.990  36.421   9.491
24323W        W96671  21.623  19.150  13.990
24324W        W96672  37.414  35.529  12.529
24325W        W96673  44.293  34.901   2.876
24326W        W96674  28.184  43.948  13.812
24327W        W96675  18.087  24.611  10.560
24328W        W96676   8.205  32.986  13.956
24329W        W96677  22.045  33.385  11.096
24330W        W96678  20.199  18.766  14.979
24331W        W96679  35.894  16.692   4.637
24332W        W96680  30.585  35.950  13.841
24333W        W96681   1.900   8.797   1.835
24334W        W96682  22.148  19.242  11.602
24335W        W96683  34.883  19.616  12.913
24336W        W96684  16.091  18.707   0.743
24337W        W96685  35.078  33.610   4.305
24338W        W96686  31.927  23.194   3.152
24339W        W96687  14.201  24.700   1.756
24340W        W96688  42.372  22.620  12.989
24341W        W96689  12.245  16.245  11.883
24342W        W96690  34.608  25.618   2.258
24343W        W96691  44.871  37.545  12.904
24344W        W96692  31.114  34.017   2.742
24345W        W96693  39.533   1.409  12.849
24346W        W96694   5.220  24.196  14.927
24347W        W96695  20.745  24.713   3.850
24348W        W96696  41.966  19.634   0.256
24349W        W96697  18.628  21.263  14.951
24350W        W96698  36.452  25.077  13.035
24351W        W96699  15.779   7.827   2.895
24352W        W96700  25.994  26.610   4.598
24353W        W96701  39.874   9.660  10.574
24354W        W96702   3.716  30.579   5.124
24355W        W96703  38.875  44.807  10.973
24356W        W96704  36.531  40.870   4.743
24357W        W96705  39.398  10.233   4.264
24358W        W96706   4.412  41.425  10.520
24359W        W96707  23.122  33.997   0.779
24360W        W96708   2.956  14.708  13.515
24361W        W96709  28.546  40.358   3.341
24362W        W96710  13.791  42.500  13.047
24363W        W96711  13.201  30.443  11.396
24364W        W96712  24.628  25.160  11.388
24365W        W96713   5.873  25.657   3.690
24366W        W96714  28.610  40.389  12.443
24367W        W96715  24.022  20.239  13.316
24368W        W96716   8.837  37.030   3.240
24369W        W96717  17.633   4.865   0.916
24370W        W96718  14.620   9.243   1.308
24371W        W96719  15.172   8.688   2.255
24372W        W96720  34.444   6.812   2.704
24373W        W96721  14.798  35.998   0.408
24374W        W96722  27.100  10.688   4.687
24375W        W96723  11.182   0.945  12.386
24376W        W96724   4.216  39.826   0.785
24377W        W96725   4.917  37.503  12.391
24378W        W96726  11.225   2.351  12.451
24379W        W96727  26.189   2.777  10.974
24380W        W96728   4.853  14.329  14.830
24381W        W96729   7.840  38.038  10.463
24382W        W96730   0.341  25.639   0.798
24383W        W96731  41.931  29.462  10.937
24384W        W96732  19.213  25.104   1.877
24385W        W96733  16.284  16.288  12.981
24386W        W96734  22.180   0.427   3.346
24387W        W96735  26.561  42.796   4.246
24388W        W96736  42.466  41.976  14.765
24389W        W96737   3.257  44.417  10.449
24390W        W96738   2.471   8.353   1.293
24391W        W96739  33.051  12.856  11.399
24392W        W96740  28.180  22.577   5.190
24393W        W96741  43.501  44.842  11.388
24394W        W96742  12.652   9.684  14.963
24395W        W96743  17.197  33.985  10.431
24396W        W96744  26.504  39.852  11.951
24397W        W96745   0.799  11.841   5.117
24398W        W96746  29.156   1.936   2.809
24399W        W96747  18.672   2.409   2.767
24400W        W96748  31.577  13.302  12.469
24401W        W96749   1.974  29.469   2.806
24402W        W96750  35.928  11.240  13.355
24403W        W96751  12.711  44.773  10.466
24404W        W96752   6.399   0.745   4.806
24405W        W96753   4.332   8.772  11.602
24406W        W96754  26.061  10.294  14.910
24407W        W96755   0.836  31.635  14.946
24408W        W96756  26.105   3.741   4.304
24409W        W96757  13.215  20.074  12.022
24410W        W96758  26.954   8.758  14.783
24411W        W96759  36.036   8.896  12.568
24412W        W96760  25.064  20.111  10.514
24413W        W96761   7.832  25.135   1.768
24414W        W96762  24.998  22.682   5.259
24415W        W96763  34.611  20.612  10.966
24416W        W96764  22.041  34.979  13.976
24417W        W96765   8.179  41.926   1.862
24418W        W96766   3.931   2.789   4.273
24419W        W96767  12.117  20.757   2.790
24420W        W96768  17.757  43.948  14.858
24421W        W96769  24.209  34.374   0.315
24422W        W96770   2.839   2.915  14.338
24423W        W96771  32.111   0.844  12.906
24424W        W96772  40.912   5.223   3.659
24425W        W96773  13.229  16.292  13.533
24426W        W96774   1.745  31.597   3.863
24427W        W96775   7.717  11.229   4.246
24428W        W96776   9.348  36.970  12.500
24429W        W96777  41.038   6.840  11.045
24430W        W96778  28.003   0.805  10.630
24431W        W96779  28.059  37.936   3.787
24432W        W96780  37.898  37.841   2.301
24433W        W96781  12.156  10.235  11.453
24434W        W96782  30.041  29.556   0.959
24435W        W96783  40.472  23.703  10.422
24436W        W96784   4.364   8.890  13.871
24437W        W96785  16.223  10.267   3.842
24438W        W96786  14.680   4.717  11.609
24439W        W96787   0.355   6.789   2.235
24440W        W96788  42.906  10.785   4.120
24441W        W96789  13.668  41.456   0.819
24442W        W96790   6.689  30.121  13.514
24443W        W96791  21.136  33.592  11.871
24444W        W96792  26.119  27.500  12.027
24445W        W96793  37.889   4.376   4.608
24446W        W96794  12.142   6.822   9.542
24447W        W96795  26.004  12.242  12.574
24448W        W96796  24.678  28.524   4.821
24449W        W96797   0.414  23.019   0.793
24450W        W96798  25.114  42.467  11.453
24451W        W96799   8.823  22.676  12.365
24452W        W96800  30.420  17.226   0.465
24453W        W96801   3.290  11.705  13.349
24454W        W96802  38.565  39.532  14.488
24455W        W96803  12.636  42.462   1.291
24456W        W96804   9.313  36.390  12.523
24457W        W96805  41.859  19.204   4.801
24458W        W96806  37.438  35.518   3.771
24459W        W96807  20.243  41.892   2.289
24460W        W96808  36.487  30.923   0.858
24461W        W96809   3.216   0.483   4.225
24462W        W96810  18.653  36.934  12.867
24463W        W96811  40.944   0.427  11.593
24464W        W96812   9.796  13.797   1.933
24465W        W96813  11.325  43.369   3.731
24466W        W96814  22.119  23.069  12.010
24467W        W96815   8.233  20.127   2.897
24468W        W96816  18.154  41.302  13.355
24469W        W96817  16.779  30.982  13.049
24470W        W96818  12.844  25.572   1.702
24471W        W96819   5.274  22.639  13.491
24472W        W96820  32.130  15.192   4.744
24473W        W96821  16.767  18.128   1.873
24474W        W96822  21.708   5.863   1.368
24475W        W96823  29.970  41.420   2.816
24476W        W96824  16.094  18.117  13.430
24477W        W96825  22.111  38.035  11.078
24478W        W96826  31.076  23.132  10.501
24479W        W96827  12.346  32.537  14.939
24480W        W96828  31.965   4.931   1.334
24481W        W96829  42.955  24.987   2.276
24482W        W96830  28.101  20.755  13.912
24483W        W96831  36.044  36.069  13.314
24484W        W96832  25.068  14.799  14.317
24485W        W96833  33.619  36.925   5.678
24486W        W96834  25.558  20.064  13.358
24487W        W96835  37.073  29.607   4.719
24488W        W96836  33.998  17.061  11.021
24489W        W96837  22.066   8.823  12.541
24490W        W96838  22.188  40.976   3.730
24491W        W96839  28.951  36.031   4.297
24492W        W96840   8.862   2.447  13.319
24493W        W96841  22.996  20.748   3.326
24494W        W96842   3.251   4.402  13.879
24495W        W96843  26.045   1.792   1.695
24496W        W96844  23.106  30.010  11.516
24497W        W96845   1.799   3.447  13.359
24498W        W96846   6.263  38.061  12.496
24499W        W96847   6.415  37.974   0.296
24500W        W96848  35.546  21.548   0.321
24501W        W96849  17.588  39.917   4.261
24502W        W96850   1.901  15.118  13.004
24503W        W96851   9.855   5.732  10.059
24504W        W96852  24.495  16.754   0.368
24505W        W96853  26.165   1.964   4.786
24506W        W96854  26.101  30.458   1.372
24507W        W96855  25.065  28.462   4.145
24508W        W96856  29.494  14.191   4.131
24509W        W96857  39.059  33.961  10.965
24510W        W96858   3.876  19.614  11.918
24511W        W96859  10.377  23.007   0.419
24512W        W96860  36.894   1.241  11.046
24513W        W96861  23.986  10.211  13.835
24514W        W96862  28.580  37.547   4.636
24515W        W96863   8.661  21.678  11.410
24516W        W96864  35.383  19.686   4.781
24517W        W96865  28.623  37.081   0.786
24518W        W96866  14.253   0.800  11.007
24519W        W96867   3.854  23.635   3.211
24520W        W96868  29.176  40.526  10.475
24521W        W96869  30.026  16.174   0.933
24522W        W96870   7.314  12.294  13.424
24523W        W96871  28.937   5.398  14.781
24524W        W96872   8.174  44.930   1.449
24525W        W96873   3.868   1.452   4.259
24526W        W96874  43.984  23.691   0.460
24527W        W96875   7.270  14.270   3.289
24528W        W96876  26.682  42.359   4.202
24529W        W96877   7.322  44.771   2.312
24530W        W96878   8.754   6.760  10.633
24531W        W96879  25.696  15.279  14.879
24532W        W96880  24.697   1.770   3.697
24533W        W96881  16.185  27.510   1.442
24534W        W96882  26.582  36.992   1.924
24535W        W96883  18.149  30.019   4.224
24536W        W96884   8.851  37.384  11.391
24537W        W96885  39.411   2.958  13.907
24538W        W96886  41.446   5.219   1.242
24539W        W96887  42.919  29.165  13.538
24540W        W96888  44.455  22.075   2.739
24541W        W96889   2.769  44.825   0.816
24542W        W96890  18.742  38.854   1.928
24543W        W96891  32.902  16.283  10.551
24544W        W96892  37.441   7.387  10.619
24545W        W96893   8.871  25.992   3.802
24546W        W96894  14.724  16.643  14.910
24547W        W96895  36.514   4.320   9.945
24548W        W96896   2.726  10.675   1.915
24549W        W96897  10.282   4.718  10.633
24550W        W96898  44.459  37.415  10.926
24551W        W96899  13.173  39.030  14.858
24552W        W96900  26.198   5.219  12.973
24553W        W96901   2.895  38.440   1.790
24554W        W96902  37.911  30.075  12.562
24555W        W96903  19.752   7.190  12.425
24556W        W96904   3.346  15.191  14.029
24557W        W96905  41.984  28.618   2.328
24558W        W96906  38.499   6.880   4.630
24559W        W96907  14.653  20.681  12.505
24560W        W96908   4.718  40.320  12.030
24561W        W96909  32.596  12.661  14.852
24562W        W96910  28.178  14.192  11.548
24563W        W96911  14.821   0.966  13.331
24564W        W96912  35.552  13.665   3.232
24565W        W96913  30.438  18.649   3.299
24566W        W96914   0.925   1.760   2.290
24567W        W96915  20.202  44.420  13.796
24568W        W96916  36.097  28.078   1.697
24569W        W96917  15.187  12.318   2.324
24570W        W96918  17.786   5.259  12.915
24571W        W96919  16.314  20.737   4.833
24572W        W96920  16.136   6.351   0.967
24573W        W96921   0.431   7.690   0.812
24574W        W96922  40.827  11.155  14.856
24575W        W96923   0.870   0.787   2.808
24576W        W96924  19.594  33.993   4.829
24577W        W96925   3.763   5.385  14.376
24578W        W96926  39.932  13.139   1.841
24579W        W96927  41.803  41.911   4.651
24580W        W96928  11.200   4.239  11.899
24581W        W96929  21.741  18.164  10.462
24582W        W96930  36.937   8.276   4.797
24583W        W96931  11.232  36.985   4.765
24584W        W96932  37.451  14.816  11.924
24585W        W96933  27.504  31.417  12.982
24586W        W96934  10.145  22.067   2.336
24587W        W96935  38.977  41.828   0.868
24588W        W96936  19.764  29.996   1.388
24589W        W96937  39.323  43.309  13.026
24590W        W96938  42.402  12.779   2.743
24591W        W96939   3.866  36.472  14.496
24592W        W96940   5.414  31.130  11.408
24593W        W96941  13.831  17.692   0.923
24594W        W96942  10.633   4.806  14.513
24595W        W96943  43.370  33.103  13.894
24596W        W96944   2.774  19.280   3.685
24597W        W96945  35.501  20.613  10.982
24598W        W96946   8.880  13.180  11.486
24599W        W96947  11.163  22.035   0.893
24600W        W96948  23.001   9.291   1.270
24601W        W96949  33.014  43.314  14.014
24602W        W96950  29.106  22.153   2.344
24603W        W96951  21.169  38.508  13.856
24604W        W96952   7.173  13.159   2.751
24605W        W96953  12.171   4.912   1.412
24606W        W96954   6.702  26.135   3.839
24607W        W96955  21.251  39.026   0.444
24608W        W96956   4.706  11.670   2.789
24609W        W96957  37.556  16.753  14.479
24610W        W96958  39.557  31.985  11.492
24611W        W96959  29.620   3.895   4.635
24612W        W96960   8.686  32.949   2.395
24613W        W96961  36.860  12.228   3.833
24614W        W96962  31.529  42.915   0.259
24615W        W96963  14.202  42.390   3.315
24616W        W96964  39.987  43.769  14.918
24617W        W96965   0.806   6.679   3.219
24618W        W96966  38.405  23.214   1.847
24619W        W96967  24.080  16.751   1.360
24620W        W96968  37.580  21.175   3.266
24621W        W96969  39.989  44.843  13.038
24622W        W96970  40.039  25.009  13.958
24623W        W96971   3.264   5.421  13.507
24624W        W96972  34.867  10.669  11.114
24625W        W96973  40.502   7.771   4.672
24626W        W96974  30.034  18.638   4.680
24627W        W96975   5.760  43.878   4.675
24628W        W96976  41.950  33.590   4.686
24629W        W96977  41.380   3.404  11.377
24630W        W96978  21.560  43.020  10.465
24631W        W96979  14.145  20.139   2.335
24632W        W96980  34.040  29.085  12.065
24633W        W96981  18.071   0.812  13.930
24634W        W96982  18.107  32.081   0.744
24635W        W96983  33.943  42.878   0.242
24636W        W96984  29.167  17.229  13.019
24637W        W96985  16.613  29.133   3.760
24638W        W96986   1.904  29.469   3.673
24639W        W96987   7.701   4.707  12.445
24640W        W96988  20.192  15.649  12.486
24641W        W96989  17.285   9.657  11.508
24642W        W96990  34.966  16.218   3.695
24643W        W96991  16.126  39.452   1.719
24644W        W96992   2.374   4.746   0.275
24645W        W96993   1.753   2.799   3.354
24646W        W96994   7.880   8.195  11.088
24647W        W96995  33.052  37.497   5.167
24648W        W96996  26.205  23.556  11.036
24649W        W96997  33.496  35.441   1.367
24650W        W96998   3.772   2.873   0.757
24651W        W96999  42.029  12.241  14.801
24652W        W97000  28.998  39.527   3.339
24653W        W97001   3.241  35.060   0.407
24654W        W97002  31.933  30.519  13.947
24655W        W97003  11.349  29.470  10.913
24656W        W97004   6.214  31.402  10.577
24657W        W97005  33.892  13.817  10.887
24658W        W97006   8.845  12.673   0.921
24659W        W97007  19.701  38.865  10.531
24660W        W97008  43.809  40.389  14.318
24661W        W97009  31.948   2.919  12.982
24662W        W97010  34.951  10.369  11.891
24663W        W97011  44.867   1.923   1.296
24664W        W97012   8.822  41.884  14.419
24665W        W97013  28.957  19.593  11.100
24666W        W97014  15.782  10.839  12.430
24667W        W97015  13.728  24.001   0.310
24668W        W97016  19.160   3.909  11.079
24669W        W97017  16.111   6.357  12.489
24670W        W97018  13.153  37.481  14.862
24671W        W97019   4.843   6.705   0.965
24672W        W97020  29.601   4.310   0.930
24673W        W97021   6.296  19.722  12.849
24674W        W97022  35.502   2.823   3.700
24675W        W97023   9.755  38.963   4.785
24676W        W97024  40.423   2.253  11.520
24677W        W97025  21.660  44.313   3.329
24678W        W97026  23.216  31.546   3.171
24679W        W97027  38.553   9.257   3.809
24680W        W97028  34.890   2.240   0.270
24681W        W97029  21.657   6.854  10.472
24682W        W97030  28.136  30.062   4.117
24683W        W97031  16.761   5.695   2.796
24684W        W97032  18.106  12.354  12.939
24685W        W97033  23.180   7.321  12.450
24686W        W97034  17.684  22.637  13.953
24687W        W97035   4.376   3.390   3.787
24688W        W97036  18.080  29.159   4.350
24689W        W97037  38.509  30.577   2.664
24690W        W97038  22.009  28.100   4.786
24691W        W97039  18.696   8.320  11.522
24692W        W97040  12.670   4.736   0.398
24693W        W97041  24.188  26.139   4.679
24694W        W97042  44.996  33.996   4.633
24695W        W97043  10.330  24.605   3.726
24696W        W97044  16.707  41.297  11.869
24697W        W97045  16.224  14.185   3.765
24698W        W97046   6.294  16.798  14.511
24699W        W97047   0.917  31.414   0.246
24700W        W97048  29.160  33.034  13.462
24701W        W97049  31.108  20.609  12.996
24702W        W97050  29.501  21.708  14.857
24703W        W97051   4.398  33.536   4.598
24704W        W97052  42.437  21.145   0.889
24705W        W97053  33.472  32.557  12.050
24706W        W97054  10.350   1.807   3.304
24707W        W97055  26.666  41.479  14.418
24708W        W97056  23.194  31.111  14.867
24709W        W97057  16.296  19.630   3.711
24710W        W97058   5.385  34.560   2.874
24711W        W97059  28.538   2.851   2.673
24712W        W97060   0.271  42.372   0.250
24713W        W97061  11.664  23.723   2.348
24714W        W97062  27.524  32.497   4.295
24715W        W97063  14.677  16.610  11.027
24716W        W97064   0.798  17.605  11.567
24717W        W97065  40.032   0.780   3.157
24718W        W97066  25.212  27.553  10.459
24719W        W97067  17.118  12.772   9.477
24720W        W97068  13.832  24.170   3.276
24721W        W97069   5.905  20.168   2.740
24722W        W97070  31.148   6.744   1.368
24723W        W97071   4.902  20.076  13.510
24724W        W97072   0.344  36.061  13.951
24725W        W97073  37.507  20.159  10.558
24726W        W97074  14.290  19.099   0.425
24727W        W97075  15.303  28.155  11.528
24728W        W97076  35.560   0.915   4.324
24729W        W97077  16.690  21.167  10.491
24730W        W97078   2.768  21.040   4.240
24731W        W97079  20.044  11.674   5.256
24732W        W97080  30.917  16.089   3.298
24733W        W97081  12.780  27.173  14.314
24734W        W97082  19.701  19.732  11.014
24735W        W97083  39.834  34.921  10.634
24736W        W97084   1.244  41.410  14.972
24737W        W97085   7.218  16.713   3.268
24738W        W97086  21.702  23.648  14.477
24739W        W97087  27.195  23.099   4.265
24740W        W97088  13.763  41.512   2.354
24741W        W97089  25.495  10.706  13.810
24742W        W97090  16.663   2.445  14.299
24743W        W97091   3.380  14.621  11.596
24744W        W97092  30.521  13.767  11.561
24745W        W97093  41.938  32.073  10.543
24746W        W97094  14.281  26.552  12.552
24747W        W97095  25.086   6.836   0.920
24748W        W97096  28.576  27.189  13.450
24749W        W97097   4.216  18.742  14.984
24750W        W97098  40.842   8.198  14.322
24751W        W97099   8.887  14.099  14.865
24752W        W97100   0.742  26.597  12.413
24753W        W97101  42.407   8.848  11.934
24754W        W97102   5.244  10.766   4.695
24755W        W97103  11.270  16.139  11.485
24756W        W97104   6.684  30.130  11.444
24757W        W97105  34.483  11.260  13.817
24758W        W97106  18.051  28.650  10.479
24759W        W97107  32.409  28.663  12.480
24760W        W97108   2.914  28.133   4.322
24761W        W97109   8.238   1.396   3.680
24762W        W97110  32.897  15.324  14.930
24763W        W97111  26.087  32.068  11.038
24764W        W97112  13.643  16.573  11.577
24765W        W97113  13.837   9.207   0.378
24766W        W97114  15.291  27.621  11.379
24767W        W97115   9.826  28.056   0.290
24768W        W97116  21.134   4.937  14.820
24769W        W97117  27.064  29.626  13.378
24770W        W97118  31.085  26.661  14.338
24771W        W97119   6.857   7.223   3.763
24772W        W97120   9.315  41.412   5.134
24773W        W97121   5.439  18.748   0.350
24774W        W97122  34.583   1.443   0.319
24775W        W97123  30.127  26.478  11.555
24776W        W97124  32.067  28.661   2.261
24777W        W97125  16.179  26.172   3.807
24778W        W97126   4.726  16.664  14.388
24779W        W97127   9.812  23.045  13.441
24780W        W97128  39.993   1.426  13.401
24781W        W97129  41.989  41.517  12.513
24782W        W97130  44.819   2.961  10.907
24783W        W97131   0.433  10.138  12.391
24784W        W97132  15.263  29.571   3.225
24785W        W97133  17.705  27.447   1.773
24786W        W97134   0.303   6.786  14.896
24787W        W97135  20.048  40.842  14.449
24788W        W97136  24.975  28.603   1.285
24789W        W97137  37.485  14.162   2.413
24790W        W97138  39.554  13.220  10.991
24791W        W97139  16.254  44.969  11.371
24792W        W97140  34.414   5.210   2.682
24793W        W97141   6.830  32.487  13.003
24794W        W97142  36.844  20.146  13.471
24795W        W97143  15.654  38.492   5.229
24796W        W97144   2.300  28.522  13.327
24797W        W97145  36.870  15.269  10.498
24798W        W97146   3.752  22.680   0.782
24799W        W97147  39.367  35.580  13.794
24800W        W97148   4.342   1.323   3.153
24801W        W97149  24.109  20.617  11.990
24802W        W97150  19.170   6.860  14.348
24803W        W97151  15.236   2.806   1.783
24804W        W97152  34.081  38.408  13.922
24805W        W97153  34.961  40.862   0.347
24806W        W97154   6.862  13.712   0.257
24807W        W97155  10.816  38.432  11.042
24808W        W97156  18.171  21.235  13.376
24809W        W97157  14.239  28.981   3.192
24810W        W97158   4.413  17.570  14.325
24811W        W97159  25.214  16.581  12.568
24812W        W97160   2.958   6.356  12.924
24813W        W97161  12.619  17.728   0.846
24814W        W97162  24.581  23.145  11.032
24815W        W97163  21.709   7.739   1.891
24816W        W97164  19.579   3.287   1.430
24817W        W97165  44.438  42.800   1.408
24818W        W97166  30.433   0.342   0.824
24819W        W97167  26.582  13.722  13.912
24820W        W97168   8.359  22.610   4.119
24821W        W97169  30.540  24.531  11.550
24822W        W97170  37.506   2.454   2.885
24823W        W97171   6.265   2.344  12.390
24824W        W97172  23.662  24.130   0.753
24825W        W97173  32.421  18.285  11.877
24826W        W97174   0.257  12.277   2.342
24827W        W97175  40.438   4.358  13.990
24828W        W97176  12.822  11.174   1.372
24829W        W97177  38.941   3.431  10.143
24830W        W97178  29.966  27.033  12.431
24831W        W97179  40.842  32.544  12.009
24832W        W97180  17.575  41.333  11.458
24833W        W97181  21.051  11.864   2.252
24834W        W97182  12.790  24.694  12.952
24835W        W97183  12.684   6.884   2.663
24836W        W97184  21.036  12.194  10.981
24837W        W97185  14.333  43.319   2.883
24838W        W97186  30.108  30.141  12.561
24839W        W97187  11.664  30.140  13.813
24840W        W97188  39.462  30.908   1.831
24841W        W97189   5.859   4.387  14.013
24842W        W97190  37.034  20.143   3.180
24843W        W97191  30.139   4.259   2.873
24844W        W97192   0.888  26.577  14.490
24845W        W97193   0.772   1.248   1.262
24846W        W97194  31.555  43.781  11.959
24847W        W97195  44.394  28.071   3.180
24848W        W97196  17.175  29.944   1.389
24849W        W97197  17.195  11.335   1.279
24850W        W97198   6.696  14.251   3.830
24851W        W97199  19.776  20.050  14.481
24852W        W97200  39.847  15.182   2.870
24853W        W97201   5.217   9.302  11.601
24854W        W97202  35.563  37.557   1.747
24855W        W97203  18.596  19.597   2.416
24856W        W97204   1.336  32.922  11.903
24857W        W97205  25.096  36.545   2.300
24858W        W97206  35.063  38.544   2.237
24859W        W97207  29.045  19.169  10.976
24860W        W97208   2.227  33.421   4.306
24861W        W97209  37.880  36.959  12.363
24862W        W97210  18.291  21.047  14.384
24863W        W97211  43.901  32.554  11.079
24864W        W97212  27.529  18.721  14.441
24865W        W97213  29.040  25.003   2.750
24866W        W97214  23.193  22.239   2.287
24867W        W97215  16.173  15.185   2.411
24868W        W97216   9.790  15.628   1.303
24869W        W97217   9.702  20.072   0.872
24870W        W97218  28.545   3.922  12.975
24871W        W97219  42.032  12.658   4.632
24872W        W97220  18.283  26.024   1.696
24873W        W97221  32.533  18.221   1.284
24874W        W97222  13.647   5.340   2.248
24875W        W97223  20.596   5.233   1.845
24876W        W97224  20.761  28.578   2.362
24877W        W97225  28.117   6.889   3.760
24878W        W97226  41.526  31.439   1.405
24879W        W97227  31.058  26.111   3.157
24880W        W97228   2.944   7.791   0.884
24881W        W97229   1.899  33.570  13.016
24882W        W97230  13.203  29.154   4.620
24883W        W97231  23.160  22.243  14.846
24884W        W97232   1.867   8.679   1.287
24885W        W97233  34.518   9.790   0.860
24886W        W97234  32.521  13.688   3.650
24887W        W97235  20.676  39.372  14.971
24888W        W97236  20.179  25.709  12.379
24889W        W97237  21.573  41.833  10.635
24890W        W97238  29.953  37.018   4.676
24891W        W97239  26.040  39.920   1.722
24892W        W97240   6.304  42.874   2.691
24893W        W97241  19.655  35.429   4.671
24894W        W97242   4.911  40.049  14.935
24895W        W97243  11.837  28.158   5.116
24896W        W97244  24.981  14.787   3.792
24897W        W97245  38.982  32.465  13.535
24898W        W97246   0.798   1.380   3.318
24899W        W97247   1.918  20.176  13.870
24900W        W97248   0.837  39.045   4.656
24901W        W97249  27.673   5.726   0.873
24902W        W97250  23.725  11.727  10.464
24903W        W97251  21.561  26.153  12.552
24904W        W97252  36.416  38.486   1.731
24905W        W97253  13.219  35.064  14.776
24906W        W97254  32.008  31.083   1.256
24907W        W97255  13.619  43.312   2.323
24908W        W97256  28.134   4.725   2.237
24909W        W97257  20.599  30.602  10.625
24910W        W97258  44.794  31.152  10.912
24911W        W97259  30.440  43.497   0.300
24912W        W97260  37.546  18.732  10.511
24913W        W97261  33.541  41.824  13.837
24914W        W97262   3.222  33.028   3.284
24915W        W97263  13.824   9.305   3.344
24916W        W97264  24.666  28.173   3.807
24917W        W97265  35.444  34.472   0.465
24918W        W97266  12.353  21.135   3.151
24919W        W97267  34.513  42.468   1.356
24920W        W97268  11.636  34.443  14.344
24921W        W97269  31.630  17.175  12.953
24922W        W97270  34.014  10.343  12.419
24923W        W97271  32.604  18.224   1.788
24924W        W97272   3.389   8.754   2.407
24925W        W97273  16.684  30.434   4.720
24926W        W97274  16.622  12.238  11.996
24927W        W97275  22.180  43.376   3.350
24928W        W97276  37.927  13.140  11.885
24929W        W97277  40.936  14.324  11.014
24930W        W97278  19.130  27.977   2.221
24931W        W97279  11.687  41.044   1.895
24932W        W97280   8.374  26.670   3.665
24933W        W97281   0.751  42.819  12.526
24934W        W97282  13.622  44.815  10.421
24935W        W97283  18.556  34.431  14.440
24936W        W97284   0.264  33.549  14.000
24937W        W97285  41.503   6.885  12.407
24938W        W97286  44.377   7.825   0.277
24939W        W97287  26.607   5.358  12.004
24940W        W97288  37.839  39.910   0.841
24941W        W97289   7.878  29.933   0.847
24942W        W97290  13.649   4.298   4.799
24943W        W97291  43.412  20.696  13.333
24944W        W97292  34.867  38.870   1.778
24945W        W97293  39.958  40.359   0.357
24946W        W97294  36.922  25.467  11.380
24947W        W97295  28.110  18.570  13.524
24948W        W97296  30.080   2.930  11.392
24949W        W97297  35.972   3.300  13.796
24950W        W97298  36.489   7.903  10.421
24951W        W97299  12.755   7.707   3.343
24952W        W97300  12.315   7.845  14.813
24953W        W97301   8.179  22.010   5.206
24954W        W97302  30.582  39.378  11.881
24955W        W97303   2.378   9.378   1.859
24956W        W97304  41.887  13.224  11.951
24957W        W97305  15.810  34.560   3.838
24958W        W97306  18.697  15.141   2.408
24959W        W97307  37.911  34.412   2.333
24960W        W97308  29.996  34.518  14.875
24961W        W97309  17.581  42.842  12.954
24962W        W97310  37.023  34.390   3.262
24963W        W97311  22.029  31.509   3.761
24964W        W97312   2.256  27.554   1.773
24965W        W97313   8.278  39.422   3.648
24966W        W97314  32.420  14.589   1.422
24967W        W97315  10.140  30.515  12.511
24968W        W97316  22.010   4.788   3.847
24969W        W97317   7.752   7.374  13.457
24970W        W97318  18.544  12.240   1.305
24971W        W97319  44.455  32.518   1.907
24972W        W97320   7.277  13.276   1.274
24973W        W97321  36.377  20.561   5.253
24974W        W97322  29.644  14.138  11.888
24975W        W97323  12.772  26.080  13.467
24976W        W97324   4.704  34.928   1.803
24977W        W97325  36.906   9.878   4.301
24978W        W97326  40.935   4.318  10.526
24979W        W97327  37.028   0.891   2.816
24980W        W97328  35.928   6.841  13.843
24981W        W97329  28.651  21.196   0.283
24982W        W97330  31.535  15.667  12.387
24983W        W97331  44.859   2.911   4.338
24984W        W97332  27.497  28.629  12.405
24985W        W97333  36.874  44.760  13.946
24986W        W97334  17.595  37.564   2.818
24987W        W97335  37.365  30.659   0.784
24988W        W97336  22.157  15.702  13.034
24989W        W97337  23.558   0.802   2.414
24990W        W97338  19.578  14.622  11.047
24991W        W97339  14.244   4.269   2.662
24992W        W97340  22.009  15.813   1.282
24993W        W97341  28.666  33.929   3.635
24994W        W97342   9.868  30.446  12.044
24995W        W97343  23.646  13.346  11.511
24996W        W97344  21.065  38.324  12.938
24997W        W97345   2.428  41.787  10.584
24998W        W97346  43.930  15.816  14.959
24999W        W97347  13.159  24.017  11.083
25000W        W97348  40.313  32.012  13.907
25001W        W97349   3.280  25.962   3.858
25002W        W97350   9.861  30.974  11.430
25003W        W97351  20.738  22.252   4.803
25004W        W97352   9.272  38.059   1.261
25005W        W97353  27.628   1.733  11.867
25006W        W97354  15.617   9.326  13.495
25007W        W97355   3.276   0.844   2.335
25008W        W97356   4.733  42.935  13.493
25009W        W97357  27.023  34.411   2.330
25010W        W97358   0.876  42.817  14.816
25011W        W97359  23.714  25.531  12.921
25012W        W97360   4.214  25.065   2.843
25013W        W97361  27.178  17.259   3.263
25014W        W97362  10.685  43.897   1.855
25015W        W97363  12.122  37.437   0.856
25016W        W97364  15.087  17.730   2.338
25017W        W97365  25.022  31.480   2.797
25018W        W97366  42.472  43.279  11.570
25019W        W97367  10.242   9.666   3.658
25020W        W97368  28.655  13.692  10.425
25021W        W97369  43.469  16.206   3.753
25022W        W97370  34.876  39.960   3.841
25023W        W97371  34.566   8.329   2.810
25024W        W97372  30.132  43.777  10.583
25025W        W97373  43.969  38.444   3.871
25026W        W97374  36.990   3.937   3.715
25027W        W97375  36.971   7.761  13.034
25028W        W97376  32.904  44.368   4.265
25029W        W97377  22.111  38.551   0.459
25030W        W97378  14.817  22.646   3.207
25031W        W97379   6.419  42.979  12.383
25032W        W97380  36.398  36.479   4.310
25033W        W97381  18.212  28.996   3.250
25034W        W97382  30.158  33.106  11.019
25035W        W97383   2.420  34.572   1.750
25036W        W97384   7.297  18.284   0.840
25037W        W97385  36.964  29.524   3.672
25038W        W97386  15.720   1.878  10.441
25039W        W97387   8.751   9.658   2.258
25040W        W97388  13.128  28.003   3.761
25041W        W97389  39.819  19.641  14.300
25042W        W97390  39.923  12.302  11.109
25043W        W97391  42.789  30.419  11.067
25044W        W97392   0.967   9.243   3.842
25045W        W97393  41.801  43.366   0.418
25046W        W97394  35.961  16.619  14.953
25047W        W97395  34.912  14.656   1.362
25048W        W97396  16.157  22.034  13.803
25049W        W97397  37.923  27.568   3.867
25050W        W97398  34.492  19.120  13.318
25051W        W97399  16.176  44.985   2.727
25052W        W97400   9.238  28.108  11.972
25053W        W97401   7.272  29.564   3.356
25054W        W97402  15.247   5.200  13.921
25055W        W97403  13.674  38.062   1.260
25056W        W97404  10.343  32.111  10.475
25057W        W97405  17.210  28.661  14.977
25058W        W97406   4.905  26.642   5.179
25059W        W97407  43.478  11.251  10.632
25060W        W97408  27.169  43.304  13.493
25061W        W97409   8.672  26.580  11.014
25062W        W97410  32.614  12.338  13.393
25063W        W97411  39.969   0.270   4.137
25064W        W97412  29.527   8.794  14.019
25065W        W97413   4.726  29.094  14.501
25066W        W97414   0.473  21.644  11.976
25067W        W97415   9.163  34.375   2.901
25068W        W97416  43.849  37.348   3.701
25069W        W97417  10.757  29.603  13.802
25070W        W97418  15.226  24.717  10.450
25071W        W97419  37.390  17.172   1.375
25072W        W97420  15.652   2.248  13.980
25073W        W97421  14.638  40.840  12.575
25074W        W97422  13.632  15.633   5.082
25075W        W97423  19.777   0.487  14.389
25076W        W97424  25.662   8.774   4.332
25077W        W97425  33.572   0.450  13.039
25078W        W97426  32.627  36.550  10.062
25079W        W97427   6.766  12.828   3.828
25080W        W97428  14.683  19.753  12.860
25081W        W97429   5.232   8.789   4.622
25082W        W97430  43.339  12.767  14.894
25083W        W97431  10.329  34.386  10.118
25084W        W97432  11.222  13.673  11.025
25085W        W97433  42.437  20.584   3.359
25086W        W97434  11.370   6.915  13.866
25087W        W97435  42.494  12.295   3.277
25088W        W97436  25.050  13.776   0.302
25089W        W97437  17.106  42.955   1.443
25090W        W97438  10.264  11.642  13.371
25091W        W97439  12.339  11.683   2.695
25092W        W97440  31.528  42.297  13.337
25093W        W97441  34.988   7.881  12.508
25094W        W97442  31.031   2.410  12.548
25095W        W97443   7.281  30.021  14.982
25096W        W97444  21.247  19.728   0.296
25097W        W97445  44.824   7.711   0.307
25098W        W97446  34.998  39.059   0.888
25099W        W97447   1.316  33.984   3.702
25100W        W97448  10.195  18.125  13.446
25101W        W97449  31.985   7.271   0.439
25102W        W97450  44.958   7.773  14.461
25103W        W97451   1.459  18.092   0.845
25104W        W97452  37.410  14.773  14.501
25105W        W97453  38.980  30.950   1.274
25106W        W97454  38.330  12.770   3.864
25107W        W97455   1.907  16.791  13.841
25108W        W97456  32.902  37.933   5.622
25109W        W97457  40.805  24.200  14.984
25110W        W97458  34.488   8.857   2.295
25111W        W97459  31.549   6.396   1.335
25112W        W97460   7.371  42.396  12.380
25113W        W97461  10.288   6.422   1.234
25114W        W97462  40.460  27.476  13.540
25115W        W97463  43.800  20.640   2.361
25116W        W97464  32.616   7.338  14.876
25117W        W97465  20.154   0.344  12.867
25118W        W97466   3.941  19.726  13.056
25119W        W97467  13.605   6.259  13.897
25120W        W97468  10.701  44.830  13.477
25121W        W97469  33.118  30.944  12.898
25122W        W97470  28.929  19.618   5.155
25123W        W97471  42.840  29.985   2.773
25124W        W97472   1.737   3.868  12.037
25125W        W97473  31.963   2.451   1.775
25126W        W97474  29.502  23.603  14.302
25127W        W97475  19.572  11.717  12.832
25128W        W97476  11.179  27.122  14.909
25129W        W97477   8.701  11.279  14.971
25130W        W97478  35.538   8.747  14.876
25131W        W97479  14.335   6.278  14.485
25132W        W97480  16.777  18.242  12.987
25133W        W97481  44.794  39.379   2.295
25134W        W97482  34.995   4.806   3.366
25135W        W97483  29.086  30.578  13.411
25136W        W97484  39.034  21.731   3.695
25137W        W97485  23.010   0.806  12.372
25138W        W97486  31.544  15.802  14.903
25139W        W97487  12.778  17.753  12.516
25140W        W97488  26.008  16.633   1.794
25141W        W97489   0.821  27.653  10.906
25142W        W97490  42.848   7.276   3.652
25143W        W97491  17.257  17.085   2.896
25144W        W97492  23.606   9.313   0.898
25145W        W97493   7.346   5.833  14.410
25146W        W97494  43.008  25.022  12.509
25147W        W97495  44.266  22.243   1.705
25148W        W97496  15.607  11.751  11.535
25149W        W97497  26.205  38.996   1.802
25150W        W97498  37.457  44.329   5.209
25151W        W97499   8.715   2.362   2.355
25152W        W97500  10.277  36.444  14.845
25153W        W97501  16.304  19.690  12.020
25154W        W97502  18.085  37.961   2.348
25155W        W97503   2.371  43.299  11.432
25156W        W97504  13.168  13.331  12.068
25157W        W97505  31.977  26.686   4.780
25158W        W97506  21.675   1.403  10.929
25159W        W97507  16.646  44.987   2.300
25160W        W97508  35.441   4.754   2.758
25161W        W97509  31.143  28.439  11.373
25162W        W97510  36.442  19.279  12.340
25163W        W97511  18.067  28.176   3.370
25164W        W97512  42.912  18.767   1.272
25165W        W97513  13.804  30.948  10.500
25166W        W97514  27.060  14.134  12.404
25167W        W97515  18.546  21.198   4.744
25168W        W97516   6.827  12.260   2.847
25169W        W97517  44.385  24.554   3.808
25170W        W97518  44.297   8.868  12.958
25171W        W97519  36.574   8.690  13.908
25172W        W97520  16.130   0.461  12.892
25173W        W97521  17.694   3.814  14.378
25174W        W97522  38.535  43.335  12.008
25175W        W97523  29.585   4.423  10.579
25176W        W97524   1.927  13.791   1.800
25177W        W97525  31.091  21.616   4.354
25178W        W97526   8.186  17.644   2.194
25179W        W97527   6.711   4.717  12.048
25180W        W97528   2.273   3.395   3.769
25181W        W97529  30.546  32.441  14.817
25182W        W97530  28.107  41.495   4.265
25183W        W97531  19.203  32.119  14.836
25184W        W97532   6.371  15.693   3.252
25185W        W97533  31.025  26.155  11.014
25186W        W97534  32.580  20.633  14.457
25187W        W97535  40.006  25.191  10.508
25188W        W97536  11.749  20.577  14.375
25189W        W97537  40.531   0.798   5.191
25190W        W97538  16.257   2.244   0.924
25191W        W97539  29.026   2.379  12.852
25192W        W97540   1.916  30.119  12.429
25193W        W97541  24.624   9.197  12.573
25194W        W97542  38.000  23.120  14.997
25195W        W97543  44.783  29.496   4.136
25196W        W97544  31.554  13.139   3.686
25197W        W97545  29.968  10.374  12.577
25198W        W97546   5.895  40.452   2.352
25199W        W97547   8.305  30.947  13.395
25200W        W97548  38.488   2.937   2.795
25201W        W97549  24.035  11.697   4.758
25202W        W97550  20.608  37.976  10.894
25203W        W97551  27.157  31.063   2.665
25204W        W97552  37.085   4.794   0.901
25205W        W97553  25.504  44.951  14.507
25206W        W97554  44.777  41.026  11.939
25207W        W97555  23.602  19.043   3.159
25208W        W97556  39.506  16.167   3.845
25209W        W97557  41.859  17.618  13.481
25210W        W97558   5.258  41.511   4.661
25211W        W97559  31.023  25.688  11.590
25212W        W97560  15.823  13.747   3.640
25213W        W97561  33.999  34.575  10.581
25214W        W97562  16.644   7.309  12.572
25215W        W97563   4.400  37.076  12.504
25216W        W97564   3.270  28.048  12.943
25217W        W97565  40.967  24.534   1.897
25218W        W97566  20.029  43.462   2.355
25219W        W97567  29.647  44.405   3.318
25220W        W97568  21.153  24.046   0.317
25221W        W97569  34.534  22.724   3.367
25222W        W97570  28.964  28.102   0.395
25223W        W97571   3.398   6.390   1.884
25224W        W97572  37.896  37.393   0.905
25225W        W97573  24.694   2.782   2.260
25226W        W97574  42.431  20.049  10.476
25227W        W97575  15.230  14.716  12.009
25228W        W97576  26.077  32.101  10.059
25229W        W97577   3.355   6.803   1.346
25230W        W97578  39.540   5.796  12.458
25231W        W97579  18.138  10.827   2.750
25232W        W97580   8.306  32.428   4.168
25233W        W97581  32.109  32.128  10.530
25234W        W97582   0.937   7.743  13.795
25235W        W97583  11.640  37.864   2.206
25236W        W97584   8.385  36.876   1.231
25237W        W97585  37.976  21.082  10.113
25238W        W97586   6.735  13.815  12.913
25239W        W97587  37.008  32.520   0.439
25240W        W97588   8.758  19.237   9.920
25241W        W97589  18.717  24.216   2.737
25242W        W97590  41.470  29.037  12.512
25243W        W97591  21.680  33.972  13.051
25244W        W97592   9.772  36.965  12.894
25245W        W97593  15.156  12.226   9.470
25246W        W97594  37.995  18.278   5.285
25247W        W97595  36.098  37.407   3.187
25248W        W97596   1.790  25.535  13.982
25249W        W97597  39.918  37.038  14.905
25250W        W97598   4.732  26.158  10.936
25251W        W97599  28.655   6.321  14.355
25252W        W97600  41.389  25.474   2.417
25253W        W97601   7.413  36.939  12.053
25254W        W97602  25.135  44.334   3.736
25255W        W97603  14.255  19.711   3.812
25256W        W97604   8.727  31.541   5.166
25257W        W97605  21.705  33.910  14.864
25258W        W97606  20.126  23.133  13.438
25259W        W97607  21.639  43.362   0.815
25260W        W97608  18.595  44.470   1.934
25261W        W97609  12.349  40.406  10.640
25262W        W97610  37.570  38.496  12.972
25263W        W97611  24.668  28.014   3.249
25264W        W97612  31.119  11.865   1.876
25265W        W97613  30.529  37.891  14.408
25266W        W97614   6.908   1.399   3.680
25267W        W97615  14.646  19.682  14.354
25268W        W97616  36.479  27.999  10.132
25269W        W97617   8.181  11.235  13.992
25270W        W97618  34.567  38.065   4.252
25271W        W97619  31.961   7.344  12.083
25272W        W97620  32.634  26.466   0.740
25273W        W97621  11.820  10.687  11.447
25274W        W97622  30.947  26.532   0.790
25275W        W97623   1.845  10.634  11.492
25276W        W97624  32.570  17.588   4.196
25277W        W97625  30.445  31.544   3.146
25278W        W97626  21.753  43.357  10.984
25279W        W97627  19.127  36.020   0.866
25280W        W97628  18.132  43.817   2.877
25281W        W97629   3.750  21.650   0.264
25282W        W97630  36.568  20.172   1.723
25283W        W97631   1.339  39.819   4.600
25284W        W97632  26.524  44.917  13.025
25285W        W97633  15.091  35.908  13.969
25286W        W97634  22.656   7.880   1.233
25287W        W97635   2.360  29.552  14.286
25288W        W97636  40.822  43.903  11.942
25289W        W97637   6.315  36.981   4.164
25290W        W97638   3.455  25.162  13.887
25291W        W97639  38.557  28.929   1.897
25292W        W97640  13.797  14.141  12.031
25293W        W97641   5.272   7.407  14.963
25294W        W97642   5.334  14.121  12.485
25295W        W97643  14.124  37.389  10.541
25296W        W97644  12.676   2.250  14.764
25297W        W97645  38.029  20.163   4.263
25298W        W97646   5.267  13.638   2.803
25299W        W97647  39.317  27.109   4.755
25300W        W97648  33.423  24.007  12.003
25301W        W97649  37.023  25.167  10.515
25302W        W97650   0.823  24.176  13.472
25303W        W97651  20.090   2.389  11.601
25304W        W97652  34.868  22.676  10.636
25305W        W97653  39.910  11.298   0.931
25306W        W97654  17.143  34.893  11.924
25307W        W97655  34.470  31.096   2.790
25308W        W97656  37.959   7.710  13.999
25309W        W97657  17.780  17.129   1.909
25310W        W97658  22.506  17.744  12.938
25311W        W97659  30.089  17.593   2.284
25312W        W97660  22.534  37.467   4.311
25313W        W97661   5.805  10.860   3.250
25314W        W97662  34.016  11.188  13.863
25315W        W97663  33.880  38.507  10.439
25316W        W97664  41.393   9.834  11.936
25317W        W97665  41.350   2.884  13.918
25318W        W97666  36.476  42.884  10.038
25319W        W97667  31.438  19.229   3.865
25320W        W97668  11.822  41.787   1.342
25321W        W97669  18.765  14.131  11.401
25322W        W97670  21.694  18.702  11.057
25323W        W97671   3.753  12.213   3.382
25324W        W97672  28.107  44.259  14.833
25325W        W97673   5.212  11.638   3.743
25326W        W97674   4.426   5.310  11.027
25327W        W97675  34.479   2.444   1.731
25328W        W97676  44.819  19.546  11.520
25329W        W97677  20.687  39.982   1.405
25330W        W97678  40.315  44.377  14.861
25331W        W97679   8.670  12.817  10.450
25332W        W97680   9.724  19.670   3.262
25333W        W97681  30.124  22.081   2.812
25334W        W97682  24.137   0.307   3.193
25335W        W97683  34.599  17.297  12.999
25336W        W97684  15.767  32.421   4.709
25337W        W97685  28.620  42.986   1.898
25338W        W97686  32.473  13.787   0.435
25339W        W97687  44.296  44.451  13.375
25340W        W97688  34.528   8.317   4.172
25341W        W97689  23.084  35.417  12.097
25342W        W97690   3.939   2.352  13.428
25343W        W97691  21.083  11.285  13.336
25344W        W97692  44.441  27.613  12.947
25345W        W97693  44.346  10.832  14.904
25346W        W97694   0.317  44.319   3.709
25347W        W97695  35.456  37.429  12.573
25348W        W97696  33.904  30.052  13.435
25349W        W97697  26.542  39.509   5.177
25350W        W97698  39.871  18.568   0.915
25351W        W97699  36.021   5.275  13.061
25352W        W97700   9.681   1.771   0.787
25353W        W97701  32.474  37.348   4.258
25354W        W97702  33.442  21.160   1.770
25355W        W97703   7.745  13.747   2.879
25356W        W97704  13.781  25.673  13.895
25357W        W97705  11.865  38.998   0.254
25358W        W97706  44.876  26.582  13.968
25359W        W97707  13.738   8.308  13.973
25360W        W97708   7.360  15.775  11.924
25361W        W97709  33.600  16.760   3.202
25362W        W97710  43.852  19.748   1.430
25363W        W97711  31.564  32.539  12.030
25364W        W97712  28.989  37.515  12.534
25365W        W97713   4.748   4.209  13.478
25366W        W97714   7.676  13.641  11.518
25367W        W97715  12.144  40.836  13.857
25368W        W97716  15.250  12.181   1.728
25369W        W97717  31.463  42.923   3.335
25370W        W97718  21.731  19.564  12.015
25371W        W97719  16.703  35.425   1.401
25372W        W97720  28.438  25.704   3.646
25373W        W97721  44.940  33.438   4.185
25374W        W97722  12.268  15.141   0.343
25375W        W97723  18.782  13.690   2.893
25376W        W97724  30.518  12.209   1.699
25377W        W97725  19.565  12.123   3.246
25378W        W97726   3.429  13.716   4.798
25379W        W97727  13.196  35.863  13.365
25380W        W97728  12.145  28.584  11.936
25381W        W97729  15.164  43.984   4.806
25382W        W97730  12.202   1.312   0.760
25383W        W97731  36.969   4.939  12.900
25384W        W97732   5.225  29.545   4.689
25385W        W97733   9.645  14.628   1.933
25386W        W97734  22.532  30.597  13.313
25387W        W97735  10.166  24.604  11.559
25388W        W97736  10.248  12.700   2.244
25389W        W97737  15.316  39.542   3.770
25390W        W97738  34.940  32.936   2.416
25391W        W97739  38.047  17.148   3.284
25392W        W97740  28.173  41.418   1.830
25393W        W97741  36.997  42.350  13.005
25394W        W97742  13.207   1.279   4.758
25395W        W97743  21.572  31.951   0.308
25396W        W97744  21.665  16.212  12.882
25397W        W97745  10.261   6.262   5.592
25398W        W97746  21.255  10.214  10.489
25399W        W97747  21.747  42.365  13.436
25400W        W97748  30.604  17.660   3.160
25401W        W97749  10.196  19.780  14.316
25402W        W97750  17.305  42.449   4.729
25403W        W97751  32.557  13.827  11.941
25404W        W97752  34.100  36.448   4.200
25405W        W97753  18.256   0.280   0.793
25406W        W97754  42.810  42.294   2.691
25407W        W97755   7.272  23.611  13.352
25408W        W97756  39.055  33.957  13.059
25409W        W97757   8.846  19.731   3.698
25410W        W97758  22.547  14.597  12.936
25411W        W97759   6.316  31.411  12.023
25412W        W97760  44.895   7.811  11.570
25413W        W97761   8.284  39.397   2.265
25414W        W97762  24.575  11.840  11.903
25415W        W97763  42.510  28.097  12.890
25416W        W97764  30.919  16.596   2.803
25417W        W97765   3.755  15.629   3.350
25418W        W97766  14.327  22.147  13.452
25419W        W97767  23.164  44.366   2.835
25420W        W97768  37.897  30.130   4.221
25421W        W97769  21.742  40.523  14.826
25422W        W97770  22.240  12.765   1.229
25423W        W97771  11.665   4.861   0.457
25424W        W97772  39.343  27.151   4.350
25425W        W97773  25.123  32.911   0.248
25426W        W97774  34.594  28.576   1.424
25427W        W97775   3.773  27.585  14.278
25428W        W97776   3.941  14.152   3.301
25429W        W97777  21.684  27.662  14.803
25430W        W97778  37.088  29.443  10.477
25431W        W97779   9.725  32.549  11.601
25432W        W97780  14.156   1.462  13.999
25433W        W97781  37.998  28.508  12.533
25434W        W97782  24.000  18.277  13.312
25435W        W97783  14.309  14.684   3.225
25436W        W97784  44.409  37.974   4.257
25437W        W97785  20.052  37.028  11.863
25438W        W97786  20.708   5.863  10.554
25439W        W97787   8.714  19.186  13.904
25440W        W97788   6.289   7.814   4.745
25441W        W97789   3.892  16.583   2.891
25442W        W97790  32.430  43.956   2.256
25443W        W97791   5.246  26.991  14.320
25444W        W97792   1.885   6.730  13.036
25445W        W97793  19.774   0.960  14.481
25446W        W97794  11.271  30.621   0.887
25447W        W97795   3.814  25.966  10.420
25448W        W97796  25.601   9.355   4.202
25449W        W97797  11.798  38.984   3.640
25450W        W97798  28.147  33.874  11.074
25451W        W97799   7.771  29.491  14.278
25452W        W97800  24.191  15.246   1.245
25453W        W97801   8.334  15.795   1.422
25454W        W97802   5.293  34.051   0.382
25455W        W97803  32.445   4.919  13.393
25456W        W97804  31.133   5.719  14.470
25457W        W97805   1.963   2.394  12.899
25458W        W97806  35.547  25.694  13.489
25459W        W97807  28.472  11.260  13.949
25460W        W97808  31.640  41.488  12.942
25461W        W97809  31.622  37.915  14.358
25462W        W97810  30.550  26.685  11.970
25463W        W97811  22.135  13.340   1.363
25464W        W97812  24.065  12.242  13.061
25465W        W97813   4.772  36.358   3.727
25466W        W97814   9.646  32.972  10.153
25467W        W97815  31.016  27.689   0.260
25468W        W97816   2.945  32.475   4.245
25469W        W97817  36.440  40.952  13.870
25470W        W97818  40.910  27.175   0.324
25471W        W97819  18.632  35.937  11.375
25472W        W97820  24.514  32.538  13.378
25473W        W97821  31.572  32.037  12.977
25474W        W97822  23.018   2.934  11.093
25475W        W97823  33.440  39.426   1.451
25476W        W97824  38.023  40.019  10.893
25477W        W97825  37.572  25.482  11.530
25478W        W97826  36.885  33.049   1.284
25479W        W97827  23.131  14.661   1.433
25480W        W97828  43.872  30.942   0.256
25481W        W97829  32.613   1.301  11.461
25482W        W97830  20.232   5.217   2.383
25483W        W97831  17.194  37.843   1.402
25484W        W97832  25.688   6.839  13.894
25485W        W97833  11.250   7.202   1.259
25486W        W97834  38.447   8.713   0.771
25487W        W97835   6.380  20.184   1.441
25488W        W97836  29.039  28.136   0.766
25489W        W97837   3.867  28.457   2.365
25490W        W97838  32.118   4.920   1.818
25491W        W97839  40.893  13.689   4.706
25492W        W97840  17.117  34.003   2.254
25493W        W97841  34.540  20.210   4.634
25494W        W97842  42.432  35.391   4.333
25495W        W97843   0.785   6.221   3.843
25496W        W97844  18.286  33.884  12.899
25497W        W97845   2.392  30.130   3.828
25498W        W97846  36.894   0.451   2.801
25499W        W97847  23.531  26.627  10.077
25500W        W97848  24.973  39.488  11.466
25501W        W97849   5.870  23.165   0.257
25502W        W97850  13.195  44.891   4.203
25503W        W97851   9.650  33.626  13.928
25504W        W97852   0.311   8.788  12.454
25505W        W97853  15.599  12.284   5.091
25506W        W97854  39.408  35.074   4.192
25507W        W97855   4.848  20.189   4.286
25508W        W97856  19.071  17.242  10.529
25509W        W97857  39.435   0.922   1.254
25510W        W97858  40.854  22.228  13.835
25511W        W97859   7.804  35.061  11.423
25512W        W97860  27.469   2.269  10.492
25513W        W97861  44.494   6.788  14.913
25514W        W97862   5.814   3.231  11.106
25515W        W97863  16.207  41.856  10.456
25516W        W97864  43.983  20.605   0.432
25517W        W97865  43.807  39.997   4.798
25518W        W97866  29.442  31.427  11.889
25519W        W97867  21.703   0.377  13.445
25520W        W97868  11.296  39.823   0.342
25521W        W97869  13.828  23.651  11.962
25522W        W97870  20.653  12.625   2.872
25523W        W97871  21.638  22.239  11.929
25524W        W97872   1.881  22.665  11.025
25525W        W97873  44.260  41.512   3.384
25526W        W97874   7.285  19.702   0.302
25527W        W97875  44.965  26.994  11.475
25528W        W97876  33.086  29.080  14.496
25529W        W97877  35.902  11.278   4.255
25530W        W97878  41.391  11.265   1.860
25531W        W97879   5.411  15.749   0.828
25532W        W97880  31.998  34.970   1.364
25533W        W97881  38.974   3.945   0.762
25534W        W97882  14.329  35.474   3.337
25535W        W97883   0.930   6.218   4.193
25536W        W97884  15.801  44.942   3.190
25537W        W97885   3.458  40.430  14.434
25538W        W97886  34.400   1.976   4.671
25539W        W97887   8.750  25.087   1.760
25540W        W97888  20.528  18.733   2.328
25541W        W97889  22.694  39.447   2.406
25542W        W97890  36.997  33.505   4.790
25543W        W97891  25.624   5.857  10.976
25544W        W97892  34.997  36.465   0.916
25545W        W97893  31.407   5.896  10.435
25546W        W97894  32.136  20.768   3.864
25547W        W97895  42.927  28.127  11.545
25548W        W97896  28.141  39.948   4.278
25549W        W97897  41.032  41.407   4.325
25550W        W97898  29.097  11.777  12.021
25551W        W97899  25.015  12.695   3.689
25552W        W97900  17.755  41.914  10.577
25553W        W97901  32.057   6.782  12.004
25554W        W97902  24.003  10.677  10.926
25555W        W97903   5.358  14.592  10.962
25556W        W97904  36.053  30.431  14.322
25557W        W97905  39.329  39.335   1.432
25558W        W97906  42.790  13.122  11.068
25559W        W97907  17.652  31.957  13.063
25560W        W97908   5.846  27.532  12.997
25561W        W97909  25.594   3.718   3.748
25562W        W97910  30.511  37.008  12.450
25563W        W97911  30.119  26.012   4.670
25564W        W97912   6.395  41.396   2.767
25565W        W97913   9.701  35.995   1.287
25566W        W97914  16.755  24.511  10.999
25567W        W97915   1.396  31.021  11.435
25568W        W97916  33.028  19.733  10.474
25569W        W97917  22.702  33.894  14.775
25570W        W97918  33.898  27.009  10.436
25571W        W97919  38.005  42.454   3.375
25572W        W97920  33.620   1.371  11.460
25573W        W97921  27.157  19.183   2.246
25574W        W97922  33.535  22.542  10.481
25575W        W97923   0.445   4.901   3.762
25576W        W97924  44.780   9.878  11.413
25577W        W97925  38.880  28.555   4.251
25578W        W97926  22.058  18.133   0.728
25579W        W97927   0.973  42.895  10.467
25580W        W97928  26.122  17.199   3.383
25581W        W97929  44.007  40.328   1.892
25582W        W97930  29.168  12.254   2.310
25583W        W97931  16.803   6.815   2.708
25584W        W97932  37.043  34.895  14.819
25585W        W97933   0.954  16.084   3.836
25586W        W97934  32.131  43.922  11.423
25587W        W97935  27.650  21.655  12.897
25588W        W97936  20.030   2.430   4.702
25589W        W97937   3.240  42.793  10.981
25590W        W97938  36.955  19.276   4.346
25591W        W97939  32.908  25.568   3.236
25592W        W97940  19.544  11.347   3.740
25593W        W97941  14.684  33.446  12.348
25594W        W97942  26.657  26.126  11.503
25595W        W97943  16.738   7.701  12.961
25596W        W97944  21.217   1.303  14.774
25597W        W97945  23.504  18.620  11.912
25598W        W97946  25.129  32.492  10.622
25599W        W97947  33.014  21.086   1.919
25600W        W97948  19.092  30.037   4.339
25601W        W97949  17.783  23.233  14.913
25602W        W97950  41.995  25.974  13.808
25603W        W97951  38.937   1.976  13.018
25604W        W97952   2.328  37.896  14.334
25605W        W97953  30.072  10.161  11.995
25606W        W97954  13.786  13.825   2.781
25607W        W97955  23.198  13.841  14.358
25608W        W97956  10.252   1.414  10.980
25609W        W97957  22.145   4.440  10.415
25610W        W97958  16.255  25.133  11.563
25611W        W97959  42.464  37.030  14.777
25612W        W97960  38.048  20.759   5.209
25613W        W97961  41.835  14.633   3.768
25614W        W97962   1.482  14.150  12.433
25615W        W97963   4.717  33.429   4.293
25616W        W97964  14.253  23.019  12.856
25617W        W97965  32.581  42.929  13.961
25618W        W97966  38.518   5.721  12.884
25619W        W97967  12.272  16.183   1.818
25620W        W97968  42.971  30.531   1.302
25621W        W97969  32.466  11.358  12.481
25622W        W97970  29.490  12.749  13.310
25623W        W97971  28.529  29.982   1.259
25624W        W97972  35.900  23.692   4.233
25625W        W97973  44.307  33.976   1.840
25626W        W97974  25.123   8.790  12.565
25627W        W97975  37.021  16.084   0.280
25628W        W97976  20.066   3.952  13.520
25629W        W97977   1.913  21.743  13.544
25630W        W97978  21.152  20.237   0.255
25631W        W97979   1.435   1.403   3.834
25632W        W97980   7.345   3.439  10.441
25633W        W97981  12.621  34.587  10.461
25634W        W97982  30.126  30.935  14.991
25635W        W97983  13.323  33.922   2.285
25636W        W97984   4.264   4.897  14.346
25637W        W97985  33.891  20.059   1.748
25638W        W97986  15.732  40.979  11.516
25639W        W97987  27.974  32.558   2.299
25640W        W97988  14.674  34.879   1.307
25641W        W97989  35.508  44.765   0.399
25642W        W97990  32.512  23.237   0.800
25643W        W97991  35.494   9.668   1.871
25644W        W97992  17.757  38.343  11.964
25645W        W97993   8.239   8.894   0.269
25646W        W97994   2.881  23.152   2.887
25647W        W97995  22.126  40.944   0.306
25648W        W97996  38.069  30.466  14.444
25649W        W97997  40.335  41.369  11.937
25650W        W97998  42.798  12.808   1.294
25651W        W97999  44.410  41.864   0.930
25652W        W98000  35.585  14.722  11.939
25653W        W98001  31.016  16.759  14.420
25654W        W98002  33.000  15.129  13.003
25655W        W98003  11.673   6.260  10.085
25656W        W98004  19.064  35.029   2.320
25657W        W98005   4.819  26.575  14.374
25658W        W98006  24.651  24.670  13.445
25659W        W98007   2.466   0.293  12.580
25660W        W98008  21.520   6.761   3.691
25661W        W98009  14.802  19.575   4.295
25662W        W98010  42.292  37.967   1.221
25663W        W98011  20.610  30.093   3.721
25664W        W98012  32.946  36.362   0.387
25665W        W98013  38.395  36.075  12.375
25666W        W98014   9.335  35.014   4.753
25667W        W98015  16.780  22.067  13.921
25668W        W98016  10.730   0.785   1.914
25669W        W98017  32.567  40.911  13.463
25670W        W98018  28.548  32.892  14.957
25671W        W98019  38.427   4.908   4.693
25672W        W98020  31.610  10.292  12.523
25673W        W98021   5.258  12.719   1.933
25674W        W98022  30.162  22.116  12.929
25675W        W98023  10.158  29.542   0.869
25676W        W98024   4.441  11.175   1.818
25677W        W98025  25.616  39.055   0.330
25678W        W98026  38.836   3.423  12.853
25679W        W98027   7.715  41.011  13.820
25680W        W98028  41.492  24.637   1.448
25681W        W98029   7.744  32.597   3.653
25682W        W98030   5.880  43.274  12.889
25683W        W98031   4.307  33.040  11.481
25684W        W98032  44.352  40.853  14.953
25685W        W98033   1.459  34.108   2.816
25686W        W98034   9.234  25.130   0.470
25687W        W98035  41.988  29.503   2.265
25688W        W98036  39.041   5.692  10.539
25689W        W98037  42.314  22.588  13.912
25690W        W98038  29.984   7.377   4.202
25691W        W98039  20.595  29.606   2.192
25692W        W98040  15.142  14.284   5.777
25693W        W98041  19.143  42.872   0.736
25694W        W98042   8.725  26.039   4.229
25695W        W98043  40.968  43.007   4.686
25696W        W98044  33.547   0.428   2.239
25697W        W98045  40.520  36.042   3.801
25698W        W98046  23.613   1.322   0.960
25699W        W98047   8.820  24.621   3.335
25700W        W98048  28.162  35.055   2.385
25701W        W98049   3.406  19.743   1.784
25702W        W98050   2.737  16.110   0.289
25703W        W98051  44.900  28.637  14.410
25704W        W98052  11.806  16.788  13.491
25705W        W98053  38.466  33.425  13.394
25706W        W98054   9.840   6.415   1.349
25707W        W98055  30.613  15.707   1.211
25708W        W98056   9.309  13.694  13.827
25709W        W98057  37.431  13.167  10.958
25710W        W98058  15.724  43.346   0.831
25711W        W98059  29.438   9.698  11.556
25712W        W98060  41.882  27.093  14.509
25713W        W98061  41.403  21.163   1.444
25714W        W98062  17.616   4.699  13.975
25715W        W98063  10.370  13.643  11.546
25716W        W98064  43.352  25.598  10.549
25717W        W98065  11.838   0.820   0.934
25718W        W98066  31.103  35.094  14.969
25719W        W98067  34.567   2.803  13.872
25720W        W98068  16.659  39.989   4.831
25721W        W98069  24.536   7.395  10.079
25722W        W98070  17.555  17.705   1.722
25723W        W98071  20.265  15.589  12.068
25724W        W98072  23.111  37.079   0.938
25725W        W98073  25.999  32.552  14.424
25726W        W98074  13.268   9.733  11.097
25727W        W98075  33.012   4.767  13.493
25728W        W98076  14.214  42.020   2.674
25729W        W98077  33.400   8.732   9.972
25730W        W98078  31.910  36.906   4.667
25731W        W98079  29.600  32.072   3.359
25732W        W98080  18.789   1.819   1.230
25733W        W98081  13.762   2.371   3.740
25734W        W98082   9.725  29.609   2.815
25735W        W98083  27.611  24.527   1.434
25736W        W98084  42.783  41.813   4.123
25737W        W98085  43.379  25.541   0.813
25738W        W98086   2.784   7.221  14.310
25739W        W98087  23.075  12.359  11.034
25740W        W98088   0.967  15.211  11.890
25741W        W98089  15.640  31.410   4.114
25742W        W98090   9.368  13.315  13.959
25743W        W98091  34.496  23.722   3.196
25744W        W98092  22.532   6.792   1.725
25745W        W98093  14.313  25.691  12.087
25746W        W98094   1.353  36.973   0.769
25747W        W98095  36.440  43.899  12.846
25748W        W98096  43.010  15.242   1.797
25749W        W98097   4.825  15.193   2.727
25750W        W98098  30.952  26.467   2.849
25751W        W98099  35.599  17.650  13.503
25752W        W98100  12.159  21.034  10.644
25753W        W98101  24.154   0.301   0.772
25754W        W98102  16.167  40.894   1.695
25755W        W98103  40.973  19.630  14.946
25756W        W98104  43.388  33.455   9.982
25757W        W98105  30.919  42.416  14.779
25758W        W98106  20.601  16.111  14.964
25759W        W98107  32.130  20.161  12.096
25760W        W98108  42.022  27.994   4.745
25761W        W98109   9.150  25.014  14.486
25762W        W98110  32.993  12.286   2.665
25763W        W98111   1.481  20.658  13.318
25764W        W98112  42.460   6.822  12.461
25765W        W98113  39.316  32.616  14.424
25766W        W98114  12.685  44.370  10.899
25767W        W98115   3.359  16.072   1.736
25768W        W98116  19.281  31.999   5.673
25769W        W98117  24.605   9.873  14.325
25770W        W98118  20.698  37.055  12.489
25771W        W98119   8.341  28.672   1.864
25772W        W98120   1.378  29.618  12.007
25773W        W98121   8.886  30.503   4.168
25774W        W98122   9.819  40.487   1.854
25775W        W98123  43.293  27.581   0.345
25776W        W98124  38.396   3.869   3.748
25777W        W98125   2.295   8.766   3.748
25778W        W98126  27.457  21.655  11.376
25779W        W98127  43.795  32.442  11.376
25780W        W98128  29.014  38.463   4.147
25781W        W98129  22.700  34.586  14.949
25782W        W98130  33.381  26.598   3.323
25783W        W98131  33.092  12.255   3.790
25784W        W98132  11.646   1.278  10.574
25785W        W98133   3.854  32.540   4.640
25786W        W98134  20.255  17.161  11.024
25787W        W98135  24.094  22.018   2.415
25788W        W98136  25.507  24.492   4.837
25789W        W98137   9.801  16.788   0.419
25790W        W98138  37.364   9.274   4.128
25791W        W98139  19.740   3.857   3.376
25792W        W98140  12.810  28.638  11.416
25793W        W98141   4.450   1.296   2.672
25794W        W98142  12.831  41.987  14.765
25795W        W98143   4.330  27.519  12.090
25796W        W98144   4.436  17.261  14.413
25797W        W98145  25.672   9.666   3.191
25798W        W98146   2.308  44.312  12.518
25799W        W98147   2.409  25.079   2.717
25800W        W98148  30.432  37.337  14.310
25801W        W98149  37.076  21.211  12.965
25802W        W98150  42.886  36.351  14.781
25803W        W98151  18.622   1.436   4.163
25804W        W98152   8.358   8.799  12.868
25805W        W98153  28.586  43.312   1.908
25806W        W98154   2.955  18.636   3.369
25807W        W98155  19.759   2.857  12.841
25808W        W98156  39.424   3.951  14.339
25809W        W98157  42.458   5.736  13.307
25810W        W98158  44.982  25.644  11.931
25811W        W98159  25.479   9.315  13.016
25812W        W98160   1.270  36.457   3.807
25813W        W98161  26.576  39.851  13.011
25814W        W98162  31.128  20.646   2.409
25815W        W98163  23.733   8.393  10.033
25816W        W98164  36.522   2.785  13.389
25817W        W98165   2.848  34.555   1.428
25818W        W98166  15.236  38.473  12.942
25819W        W98167   6.768  24.133  11.442
25820W        W98168  19.238  32.456   2.801
25821W        W98169  10.339  21.041  12.084
25822W        W98170  16.770  41.532  12.942
25823W        W98171  34.494  13.795   2.844
25824W        W98172  39.536  24.069   2.344
25825W        W98173   3.778  17.676  12.561
25826W        W98174  19.054  24.070  11.915
25827W        W98175  41.025  40.333  11.389
25828W        W98176  28.468  32.392   2.709
25829W        W98177  21.117  23.586  11.402
25830W        W98178  37.958   7.721   9.676
25831W        W98179  39.980   4.909   3.855
25832W        W98180  20.529  42.321  11.404
25833W        W98181  14.765  18.140  13.958
25834W        W98182  42.428  39.464  12.376
25835W        W98183   8.828  14.318  13.532
25836W        W98184  22.187  41.532   0.427
25837W        W98185  31.419   3.869  11.460
25838W        W98186  29.622   8.792   2.267
25839W        W98187   5.793  11.141  14.366
25840W        W98188  14.227  29.645  10.983
25841W        W98189  28.546  36.953   2.771
25842W        W98190  38.823  10.274  11.924
25843W        W98191   9.274  34.004  13.948
25844W        W98192  25.673  12.649  14.425
25845W        W98193  25.567  13.116  11.387
25846W        W98194   7.781  25.156   3.737
25847W        W98195  23.601  31.487   2.373
25848W        W98196   4.860  17.710   2.413
25849W        W98197   1.952  35.599   3.771
25850W        W98198  41.304  44.963   4.803
25851W        W98199  24.566  18.271  12.507
25852W        W98200   0.427  23.220  13.356
25853W        W98201  21.252  13.323  11.065
25854W        W98202  17.118  20.694   0.403
25855W        W98203  21.532  26.164   3.301
25856W        W98204  10.373  20.268   0.303
25857W        W98205   1.470  31.409  14.440
25858W        W98206  25.595  12.812  12.496
25859W        W98207  33.600  27.004   3.862
25860W        W98208  43.454  18.176   4.820
25861W        W98209   9.678   5.300   0.293
25862W        W98210   5.774  15.776  10.585
25863W        W98211  30.082   6.780   4.733
25864W        W98212  26.149  30.162  13.409
25865W        W98213  28.183   9.791  12.831
25866W        W98214  13.768  10.725   3.280
25867W        W98215  11.820   7.882  11.603
25868W        W98216  20.269   2.965  12.892
25869W        W98217  44.461  31.987   0.836
25870W        W98218   4.367  36.904   1.250
25871W        W98219  25.712  16.776  14.389
25872W        W98220  10.762  21.138   2.890
25873W        W98221   9.157  22.117  13.987
25874W        W98222   8.334   6.823  10.454
25875W        W98223  42.393  26.074  12.893
25876W        W98224  36.410  14.650   4.734
25877W        W98225  13.808   2.830  10.977
25878W        W98226  36.952  35.539  12.866
25879W        W98227   0.406  18.580  13.060
25880W        W98228  12.242   5.872  12.962
25881W        W98229  38.571  13.155  13.431
25882W        W98230  17.781  39.975  12.964
25883W        W98231   6.402  27.167   1.857
25884W        W98232   4.844   9.379   4.739
25885W        W98233  24.092  42.862  13.348
25886W        W98234  34.967  39.010   2.247
25887W        W98235   2.405  42.848   1.805
25888W        W98236   5.336  19.169   0.823
25889W        W98237  19.279  42.833  13.905
25890W        W98238  32.418  18.569   0.931
25891W        W98239  39.879   8.181  11.385
25892W        W98240  11.714  15.662   4.788
25893W        W98241  19.671  11.720   1.363
25894W        W98242  32.576   9.239  12.360
25895W        W98243  12.702  16.125  13.933
25896W        W98244  18.132  36.961  12.481
25897W        W98245  27.147  14.144   0.361
25898W        W98246  16.174  39.336  11.483
25899W        W98247  29.461  11.836  11.401
25900W        W98248  24.505   2.273  11.108
25901W        W98249  41.434   9.173  12.069
25902W        W98250   9.213  23.007   1.304
25903W        W98251   3.396  30.431  12.443
25904W        W98252  13.846  28.102  13.439
25905W        W98253  32.506  19.110  14.929
25906W        W98254   4.819  12.814   2.707
25907W        W98255  43.491  41.296   1.878
25908W        W98256  22.659  41.043  11.874
25909W        W98257  21.086  23.173   3.757
25910W        W98258  38.052  43.381   4.144
25911W        W98259  41.346  41.387   0.835
25912W        W98260  10.733  22.594   2.288
25913W        W98261  27.646  16.638  12.920
25914W        W98262   4.217  44.417  10.914
25915W        W98263  44.916  37.049  14.021
25916W        W98264   2.755   0.292   4.273
25917W        W98265   3.447   2.379  13.052
25918W        W98266  17.141  15.275  13.874
25919W        W98267  37.338  40.366  11.577
25920W        W98268  29.954  19.134   3.284
25921W        W98269  15.261  29.156   3.166
25922W        W98270  20.191   9.247  11.399
25923W        W98271  34.553  42.841  12.543
25924W        W98272  37.445  18.177   1.723
25925W        W98273  35.394   6.343  10.930
25926W        W98274   6.349  39.496  11.911
25927W        W98275  36.995   1.822  11.960
25928W        W98276  16.217  37.916  14.907
25929W        W98277   7.771  43.975  11.986
25930W        W98278  25.167  27.690  14.307
25931W        W98279  19.622  21.070   4.599
25932W        W98280  44.840   9.739   4.781
25933W        W98281  39.383  19.553  10.892
25934W        W98282  26.507   5.933   5.218
25935W        W98283  22.671  28.502  14.942
25936W        W98284   2.402  29.521   0.464
25937W        W98285   9.879  16.201   4.812
25938W        W98286  39.402  42.933  10.447
25939W        W98287  37.916   1.413  14.021
25940W        W98288   9.852  12.119   2.289
25941W        W98289  31.934  40.029  13.328
25942W        W98290  14.603   2.813  11.111
25943W        W98291  32.531  16.735   3.871
25944W        W98292  30.466  24.199   4.148
25945W        W98293  34.494  19.659  11.033
25946W        W98294  21.555  22.680   0.926
25947W        W98295  22.032  24.641  12.424
25948W        W98296  27.637  25.112  12.047
25949W        W98297  17.767  23.030   3.754
25950W        W98298  27.115  32.408   3.255
25951W        W98299  25.193   0.839   4.700
25952W        W98300   8.802  32.886  10.983
25953W        W98301  30.497  36.851   2.280
25954W        W98302  11.643  42.842  10.457
25955W        W98303  15.084  39.841   0.459
25956W        W98304  42.871  28.447  10.922
25957W        W98305  15.161  41.475  10.587
25958W        W98306  13.779  22.020   3.675
25959W        W98307  42.015  20.119  11.415
25960W        W98308   7.811  39.826   1.366
25961W        W98309  35.894  25.499   4.320
25962W        W98310  20.642   8.314   2.805
25963W        W98311  27.669   8.767  11.064
25964W        W98312  33.410  28.553   1.230
25965W        W98313  32.520  19.139   4.208
25966W        W98314  28.107  20.129   2.746
25967W        W98315   6.689  29.610   2.414
25968W        W98316  13.283  21.111   0.417
25969W        W98317  16.267  22.209   1.363
25970W        W98318   0.391   6.281   3.333
25971W        W98319   4.805  25.480   0.261
25972W        W98320  39.504  21.600  14.982
25973W        W98321  42.426   2.935  12.034
25974W        W98322  28.542  15.262  11.055
25975W        W98323  41.923   6.903   4.821
25976W        W98324  18.231  14.652  14.960
25977W        W98325   9.361   1.414   0.447
25978W        W98326  26.145  14.318  13.411
25979W        W98327  27.598  27.553  12.353
25980W        W98328  28.128  40.973   0.737
25981W        W98329  30.575  41.487  12.426
25982W        W98330  34.870   4.887   4.602
25983W        W98331   6.295  21.076   5.106
25984W        W98332  16.260  33.917   0.243
25985W        W98333  14.611   3.312  12.040
25986W        W98334  43.771  28.972  14.858
25987W        W98335  26.205  27.516   1.921
25988W        W98336  40.374   9.239  14.358
25989W        W98337   7.696  28.013  12.521
25990W        W98338  28.982  14.658   4.337
25991W        W98339  31.946  25.687   0.467
25992W        W98340  25.600  30.557  13.534
25993W        W98341  34.517   0.899  10.611
25994W        W98342  27.041  35.935   0.401
25995W        W98343  36.066  28.581   4.251
25996W        W98344  22.159  21.089  12.978
25997W        W98345  30.103  35.937  13.916
25998W        W98346  13.290  20.082   2.752
25999W        W98347  32.450  41.316  12.072
26000W        W98348  36.434   8.402   1.918
26001W        W98349  22.165  16.225  11.049
26002W        W98350  34.112  40.328  11.945
26003W        W98351  39.385  18.229  13.394
26004W        W98352  37.921   7.908  12.485
26005W        W98353  23.573  22.580  14.991
26006W        W98354  34.974  44.809  14.998
26007W        W98355  29.557  28.499   0.934
26008W        W98356  13.836  13.141   3.246
26009W        W98357  11.357  22.196   3.297
26010W        W98358   2.240  14.602  13.944
26011W        W98359  24.148   4.257  14.971
26012W        W98360   8.796  14.126   1.822
26013W        W98361  36.938  27.537   4.276
26014W        W98362  24.612  34.865   0.883
26015W        W98363   5.708  19.242  10.608
26016W        W98364  35.583  26.073  13.034
26017W        W98365  37.007  31.000   0.855
26018W        W98366   3.809   3.945   1.425
26019W        W98367  30.537  13.315   2.242
26020W        W98368  13.708   4.237  11.518
26021W        W98369  18.551  22.218  13.829
26022W        W98370  19.621   2.266   0.772
26023W        W98371  14.790   3.711   0.389
26024W        W98372  11.179   5.281  14.886
26025W        W98373   1.925  44.348   0.248
26026W        W98374   9.306  36.520  11.019
26027W        W98375  34.927  10.370   3.242
26028W        W98376  29.140  29.601  14.324
26029W        W98377   6.849  12.852   2.269
26030W        W98378  43.897  12.710  12.086
26031W        W98379   2.783  44.759   1.694
26032W        W98380  32.596  19.712   0.763
26033W        W98381  28.602   9.344  13.405
26034W        W98382   3.736   6.681  12.494
26035W        W98383  24.627   4.925   4.144
26036W        W98384  30.592  34.982  11.010
26037W        W98385  30.503  43.955  13.522
26038W        W98386   2.792  25.540   0.896
26039W        W98387  20.224  36.523  14.476
26040W        W98388  18.151  22.103  10.470
26041W        W98389  37.474  25.995   4.707
26042W        W98390  10.343  23.491  10.576
26043W        W98391  17.654  37.494   1.212
26044W        W98392  11.739  12.233  12.826
26045W        W98393  11.271  19.670  10.461
26046W        W98394  16.301  36.905   3.331
26047W        W98395  30.530  29.169   1.747
26048W        W98396  20.598  33.603   0.784
26049W        W98397  22.240  25.160   1.251
26050W        W98398  42.985   6.346   2.293
26051W        W98399  19.128  40.443   2.670
26052W        W98400  31.457   8.733  11.538
26053W        W98401  36.086  22.219   0.374
26054W        W98402  13.219  17.749  11.867
26055W        W98403  35.379   1.365  13.492
26056W        W98404   5.416   7.865  14.320
26057W        W98405  17.171  26.563  11.903
26058W        W98406  26.084  11.786   0.918
26059W        W98407  27.172  16.708   3.786
26060W        W98408  21.604  18.273  13.439
26061W        W98409  27.555  25.618   4.660
26062W        W98410  15.120  36.525  14.401
26063W        W98411  17.231  41.527  11.440
26064W        W98412   1.344   1.818   2.332
26065W        W98413  25.086  30.593   3.164
26066W        W98414  35.469  26.174   2.373
26067W        W98415  43.004  43.914  13.489
26068W        W98416  15.129  40.815  12.829
26069W        W98417  12.821  12.808  10.901
26070W        W98418  23.496  22.089  11.433
26071W        W98419  21.626  25.145  12.008
26072W        W98420  21.639   1.793  12.083
26073W        W98421  21.199  19.065  12.856
26074W        W98422   7.182   0.309   4.183
26075W        W98423  16.080  25.550  13.473
26076W        W98424  33.064   1.308  10.942
26077W        W98425  31.921   4.716  14.479
26078W        W98426   1.445  10.638   1.701
26079W        W98427  16.164  28.641   1.290
26080W        W98428  24.002  42.349  10.412
26081W        W98429  26.036  12.790  10.624
26082W        W98430  44.281  25.176  10.080
26083W        W98431  16.129  41.028  10.590
26084W        W98432  18.265  35.580   2.671
26085W        W98433  15.293  40.543   0.852
26086W        W98434  24.693  20.118  10.432
26087W        W98435  13.164  19.043  11.970
26088W        W98436  43.779  35.932  12.402
26089W        W98437  11.635   1.361   2.862
26090W        W98438   6.737  34.504   0.431
26091W        W98439  17.096  26.079  12.877
26092W        W98440  36.370   0.760  12.840
26093W        W98441  10.866  24.562   2.826
26094W        W98442   7.223  34.595  12.038
26095W        W98443  15.734  41.817   1.283
26096W        W98444  37.368  27.030   0.946
26097W        W98445  13.233  18.123   2.877
26098W        W98446  37.349  41.018  13.415
26099W        W98447  44.799  39.056   3.773
26100W        W98448  39.541  14.766  11.952
26101W        W98449  24.646  30.960  10.988
26102W        W98450   5.784  21.026   4.285
26103W        W98451  26.044  13.264  14.447
26104W        W98452  25.714  42.793   5.096
26105W        W98453  32.927  43.997  13.797
26106W        W98454   9.813  30.588  12.852
26107W        W98455  44.353  17.246  14.941
26108W        W98456  21.046  21.734  14.312
26109W        W98457  25.080  11.860   0.819
26110W        W98458  30.970  44.355   1.343
26111W        W98459  16.688  21.755   3.177
26112W        W98460  20.686  10.204   4.795
26113W        W98461  13.300  36.975  13.855
26114W        W98462  43.369  40.417  12.853
26115W        W98463  15.680  38.446  14.431
26116W        W98464  35.932  24.704  13.323
26117W        W98465  18.117   3.414  12.465
26118W        W98466  22.534   6.242  10.086
26119W        W98467  39.951  34.991   1.804
26120W        W98468  42.813   5.728  14.280
26121W        W98469  42.524  44.815  14.307
26122W        W98470  44.399  24.614  14.862
26123W        W98471   0.900  13.635  12.912
26124W        W98472   0.426  10.749  12.905
26125W        W98473   8.234  43.344  10.468
26126W        W98474  15.760  15.793   4.779
26127W        W98475  35.053  19.672  14.901
26128W        W98476  25.651  24.132  11.051
26129W        W98477  13.160   7.783  13.531
26130W        W98478  20.260  26.062  13.835
26131W        W98479  39.837  37.555   1.872
26132W        W98480  39.446  36.386   2.808
26133W        W98481   5.860   2.363  11.502
26134W        W98482  44.404  26.611   2.223
26135W        W98483  34.486  43.445  13.914
26136W        W98484  37.008  30.130  10.474
26137W        W98485  34.576  10.742   1.411
26138W        W98486  41.828  34.051  11.090
26139W        W98487  19.201  10.795   4.284
26140W        W98488  20.592  28.143   4.167
26141W        W98489  32.409  27.550   4.234
26142W        W98490  30.443   3.763   0.270
26143W        W98491  24.538   0.758   0.394
26144W        W98492   4.888   7.683   4.706
26145W        W98493  30.524  14.327   1.218
26146W        W98494  12.244  34.545  11.892
26147W        W98495  43.899  27.552  14.882
26148W        W98496  30.653  20.096  14.849
26149W        W98497  35.360  31.910   3.662
26150W        W98498  34.386  33.059  13.376
26151W        W98499  37.386  21.021   3.705
26152W        W98500   2.244  37.549   2.242
26153W        W98501  37.463   7.315  13.489
26154W        W98502  21.576   5.247   0.818
26155W        W98503  19.662  24.144  12.456
26156W        W98504  10.347  39.392   2.731
26157W        W98505  42.349  41.485   1.837
26158W        W98506  11.741  26.459  14.764
26159W        W98507  22.709  35.474  12.945
26160W        W98508  44.413  14.766  13.548
26161W        W98509  36.911  30.479   3.859
26162W        W98510   4.914   6.728   4.342
26163W        W98511  14.230   0.487   3.774
26164W        W98512  11.650   0.472   4.675
26165W        W98513  28.082  10.721  10.636
26166W        W98514  43.939  18.110  11.867
26167W        W98515   4.920  29.042   2.381
26168W        W98516  31.099   9.237   4.642
26169W        W98517  35.881   6.412   2.827
26170W        W98518   4.264  18.151   1.766
26171W        W98519  14.309  33.568  11.413
26172W        W98520  34.009  40.021  10.558
26173W        W98521  12.692  23.592   0.392
26174W        W98522  26.049  20.748   4.712
26175W        W98523  15.094  33.481   0.258
26176W        W98524  17.180  29.171   3.366
26177W        W98525   0.477  34.019   3.181
26178W        W98526  39.517  40.965  11.952
26179W        W98527  16.164   5.225  13.998
26180W        W98528  31.512   8.702  10.044
26181W        W98529  21.753  13.790   4.294
26182W        W98530  14.175   4.810   3.227
26183W        W98531   8.797  32.425   3.341
26184W        W98532   1.952  34.463   3.631
26185W        W98533  35.934  28.654  10.559
26186W        W98534  27.198  19.756  10.641
26187W        W98535  40.024  37.487   4.279
26188W        W98536  24.648  14.206  12.427
26189W        W98537  24.067  25.990  10.595
26190W        W98538  28.952  13.672   4.289
26191W        W98539  40.886  11.354   0.466
26192W        W98540   7.408  11.841  12.502
26193W        W98541  34.473   8.256   0.318
26194W        W98542  13.739  40.007   1.343
26195W        W98543  13.184  16.643   2.365
26196W        W98544  37.501  35.075   5.230
26197W        W98545  22.584  38.882  13.483
26198W        W98546  17.282  43.005  13.421
26199W        W98547   6.295  26.965  12.858
26200W        W98548   7.893  29.585   4.823
26201W        W98549  42.001  17.116  12.415
26202W        W98550  10.831  41.820  10.507
26203W        W98551  37.467   8.682  13.049
26204W        W98552  13.116  40.961  10.916
26205W        W98553   3.362  36.928  12.953
26206W        W98554  37.438  16.735   0.938
26207W        W98555   0.412  41.490  10.440
26208W        W98556   3.786  34.975   2.825
26209W        W98557  40.033  12.762  13.531
26210W        W98558   6.403   8.208   4.704
26211W        W98559   8.737  13.671   2.817
26212W        W98560   2.966  42.371  14.428
26213W        W98561  22.201  28.964  11.983
26214W        W98562  43.879  39.861  12.955
26215W        W98563   0.380  16.159   0.832
26216W        W98564  25.013  32.064   1.874
26217W        W98565  39.480  43.883  14.932
26218W        W98566  22.182  30.469  12.868
26219W        W98567  26.999  21.099  14.404
26220W        W98568  21.707  33.422   4.619
26221W        W98569  30.110  18.551   3.743
26222W        W98570  35.532  31.036  11.952
26223W        W98571   5.816   7.416  13.954
26224W        W98572  24.687  15.808   1.902
26225W        W98573  34.047   5.354   3.738
26226W        W98574  10.249  22.545   3.209
26227W        W98575  34.436   4.291   3.165
26228W        W98576  34.470   3.916   1.212
26229W        W98577  15.742  32.391  13.011
26230W        W98578  18.209  34.936  13.982
26231W        W98579  40.893   3.850   0.845
26232W        W98580  25.979  40.381  12.509
26233W        W98581   4.917  18.680   0.357
26234W        W98582  21.625  34.086   4.136
26235W        W98583  37.908   7.347  11.014
26236W        W98584  35.393   1.847   1.442
26237W        W98585  16.247  43.509  13.364
26238W        W98586  21.628  32.554  14.013
26239W        W98587   1.847  26.023  10.413
26240W        W98588   9.694  42.999  10.638
26241W        W98589   9.659  16.096  12.385
26242W        W98590  15.125  31.469  12.918
26243W        W98591  42.403  30.110  11.862
26244W        W98592   1.423  28.959   0.282
26245W        W98593   1.908  14.632   3.687
26246W        W98594  28.479   7.271  10.970
26247W        W98595  22.154   5.428   1.734
26248W        W98596  31.426   1.974  11.020
26249W        W98597  39.947  24.207   1.796
26250W        W98598   3.350  44.835  11.433
26251W        W98599  14.783  18.561   4.217
26252W        W98600  13.213  30.475  10.026
26253W        W98601  39.983  17.182   0.865
26254W        W98602   4.773  13.677  14.985
26255W        W98603  27.483  43.824   4.819
26256W        W98604  41.486  40.853   1.750
26257W        W98605   2.343  23.667   1.766
26258W        W98606  13.635  22.698   2.386
26259W        W98607   1.317  10.842   4.683
26260W        W98608  42.506  41.994  13.388
26261W        W98609  36.072   0.808   0.453
26262W        W98610   8.357   6.882   3.254
26263W        W98611  10.341  25.112   3.734
26264W        W98612  31.028  16.597   3.819
26265W        W98613   9.315  19.612  10.471
26266W        W98614  19.161  32.620  10.933
26267W        W98615  28.009  42.850  12.084
26268W        W98616  22.154   2.930   0.953
26269W        W98617   0.786  44.448  11.098
26270W        W98618  30.963   2.830   4.158
26271W        W98619  20.649  37.059  13.324
26272W        W98620  28.026   7.398  13.823
26273W        W98621  38.450   3.806   4.759
26274W        W98622  17.159  35.976  13.918
26275W        W98623  15.205  27.506  13.014
26276W        W98624  10.170  28.163   1.696
26277W        W98625  10.176   2.838  14.409
26278W        W98626  34.907  24.215  14.370
26279W        W98627   2.311   1.256   3.181
26280W        W98628  12.759   8.783   1.372
26281W        W98629  39.508  16.788   0.434
26282W        W98630  26.143  42.020   3.245
26283W        W98631   1.285  30.570  14.413
26284W        W98632  13.707  40.987   4.654
26285W        W98633  36.946  17.268  11.415
26286W        W98634  13.756   7.911   3.226
26287W        W98635  37.546  12.137  12.478
26288W        W98636  17.673  11.144  14.031
26289W        W98637   3.859   5.917   1.830
26290W        W98638  13.126  11.719   2.294
26291W        W98639   1.741  23.181  14.399
26292W        W98640  43.953  39.846   0.292
26293W        W98641  10.221  31.568   0.773
26294W        W98642   8.233  30.568   9.465
26295W        W98643  25.675   9.744   4.789
26296W        W98644   1.283  10.306   2.229
26297W        W98645  15.176  14.695  11.598
26298W        W98646  22.524  36.432   0.293
26299W        W98647  20.538  44.935  11.595
26300W        W98648  25.489  22.212   1.865
26301W        W98649  20.605  21.552  14.769
26302W        W98650  35.509  24.210   0.319
26303W        W98651  24.116  16.614  10.968
26304W        W98652  32.409  23.527   4.190
26305W        W98653  18.587   9.647  11.608
26306W        W98654  41.327  17.770   4.695
26307W        W98655  42.302  34.509   0.869
26308W        W98656  41.434  17.201   1.372
26309W        W98657   1.957   5.833  11.387
26310W        W98658  15.225  41.494  13.941
26311W        W98659  32.542  19.778   0.242
26312W        W98660   5.692  29.608   3.379
26313W        W98661  12.294  33.979  11.070
26314W        W98662  24.139  30.940   1.309
26315W        W98663   3.226  30.418  11.394
26316W        W98664   5.765  24.983   2.240
26317W        W98665  10.145   1.888  10.910
26318W        W98666  26.190   2.227   1.255
26319W        W98667  31.581  13.295  10.948
26320W        W98668  21.755  44.805   3.328
26321W        W98669  20.615  19.092  14.839
26322W        W98670  22.227  11.634  10.409
26323W        W98671  15.322  15.621  14.290
26324W        W98672  19.564   4.850   1.293
26325W        W98673  35.432   6.417   3.201
26326W        W98674   6.733   1.870   4.735
26327W        W98675   0.976   9.727   1.408
26328W        W98676  22.029   0.315  11.927
26329W        W98677   0.476  19.178  14.796
26330W        W98678   9.216   3.230  14.885
26331W        W98679  36.518   6.247  10.066
26332W        W98680  43.399  15.089   3.378
26333W        W98681  28.492  31.098  13.449
26334W        W98682  30.573  28.037  13.939
26335W        W98683   2.289  44.806  12.358
26336W        W98684   6.804  33.928  14.857
26337W        W98685   8.251  21.735   4.216
26338W        W98686  20.646  18.709   4.757
26339W        W98687  11.815  38.480  11.612
26340W        W98688  22.677  28.108   1.417
26341W        W98689  42.409  11.245  13.050
26342W        W98690  13.676  16.705  13.465
26343W        W98691  17.291  42.416  10.964
26344W        W98692  35.037   4.312  14.965
26345W        W98693  25.476  28.504   3.815
26346W        W98694  33.124  11.176  14.329
26347W        W98695  44.313  32.599  10.631
26348W        W98696  12.700  26.690   4.779
26349W        W98697  16.095  36.378   2.227
26350W        W98698  29.944   3.799   2.283
26351W        W98699  31.433   7.224   0.421
26352W        W98700  28.136  11.712   4.201
26353W        W98701   6.286  25.061  11.508
26354W        W98702  40.442   5.705   4.772
26355W        W98703  39.939  12.126  10.618
26356W        W98704  42.413  42.444   1.211
26357W        W98705   0.379  26.500   3.314
26358W        W98706  33.050  17.065   0.774
26359W        W98707  18.689  26.537   2.665
26360W        W98708  38.065   5.695  14.796
26361W        W98709  10.834  11.697  10.481
26362W        W98710  18.069  14.318  10.894
26363W        W98711  41.984  41.400  12.956
26364W        W98712  19.192   4.817   0.474
26365W        W98713  31.985  25.092   4.687
26366W        W98714  25.098   0.906   1.288
26367W        W98715  11.640   6.818   0.408
26368W        W98716  38.966   0.838   3.842
26369W        W98717  42.281  22.109   0.376
26370W        W98718  43.491  27.101   3.294
26371W        W98719   5.431  30.019   0.340
26372W        W98720  44.833  41.384  10.476
26373W        W98721  33.053  26.166   2.330
26374W        W98722   7.688   5.204   1.752
26375W        W98723  14.333  13.799   1.927
26376W        W98724   7.772   9.767  10.982
26377W        W98725  20.599  39.819   3.270
26378W        W98726  39.314  39.387  13.541
26379W        W98727  30.039   8.319  10.573
26380W        W98728  22.067  26.468  11.474
26381W        W98729  10.842  22.088   3.243
26382W        W98730  23.606  11.232  13.414
26383W        W98731  11.798  36.544  13.378
26384W        W98732  21.150  13.242  12.001
26385W        W98733   9.253   2.316  13.040
26386W        W98734  10.658  18.614   2.358
26387W        W98735   8.710   7.243  10.923
26388W        W98736  43.515  23.630  13.375
26389W        W98737  29.582  30.565   2.750
26390W        W98738   8.275   0.975  13.363
26391W        W98739  12.124  39.353   0.930
26392W        W98740   2.412  38.521   4.808
26393W        W98741  18.730  14.210   3.358
26394W        W98742  14.105  32.911   0.296
26395W        W98743  15.150  22.722  12.510
26396W        W98744   7.757  44.753   4.333
26397W        W98745  40.017  20.183   1.386
26398W        W98746  16.611  29.578  10.528
26399W        W98747  12.268  11.181  13.822
26400W        W98748   6.365  16.190  11.897
26401W        W98749  43.494   0.273   1.854
26402W        W98750  32.946  14.133  12.096
26403W        W98751  26.163  31.536   3.304
26404W        W98752  20.200  28.545  13.796
26405W        W98753  27.670  37.404   3.652
26406W        W98754  34.077  28.025  14.367
26407W        W98755  21.091   9.375  10.575
26408W        W98756   9.750   6.365  10.082
26409W        W98757   2.862  40.361  12.041
26410W        W98758  40.508  26.191  10.507
26411W        W98759   5.722  30.051  14.333
26412W        W98760   9.728  13.183   4.644
26413W        W98761   9.834   7.192  11.498
26414W        W98762   7.362   6.836  10.554
26415W        W98763   5.741  22.007   3.332
26416W        W98764  24.619  11.839   0.884
26417W        W98765  24.026  23.026  10.621
26418W        W98766  37.957  33.990  12.907
26419W        W98767  31.925  21.219   1.375
26420W        W98768  13.640  41.306   0.347
26421W        W98769  10.270  25.051  13.428
26422W        W98770   8.820  36.978   0.909
26423W        W98771  13.235   9.752   2.201
26424W        W98772  17.585  44.346   4.279
26425W        W98773  39.342  27.093   2.818
26426W        W98774  18.239  38.487  13.333
26427W        W98775  21.617  30.467  14.826
26428W        W98776  41.027  41.496   2.325
26429W        W98777  44.426  25.165  14.836
26430W        W98778  25.611  12.126   1.860
26431W        W98779  28.070  32.067   2.410
26432W        W98780  43.404  14.296  13.361
26433W        W98781  12.289  26.082  10.603
26434W        W98782  17.087  33.036   4.632
26435W        W98783  10.764  42.324   3.835
26436W        W98784  25.550   1.752  11.060
26437W        W98785   5.277  11.203  10.995
26438W        W98786  32.566  35.568  12.528
26439W        W98787  21.531  29.466  11.419
26440W        W98788   7.318  29.953  14.446
26441W        W98789  30.935  29.472   4.311
26442W        W98790  22.006  29.479  14.960
26443W        W98791  22.212  21.070  14.366
26444W        W98792   6.291  35.035   2.365
26445W        W98793   1.256  37.523  12.355
26446W        W98794  37.393  27.940   1.704
26447W        W98795   3.937  30.982  13.986
26448W        W98796  35.440  14.720   4.300
26449W        W98797  40.950  43.375  11.065
26450W        W98798  29.578  21.250  12.891
26451W        W98799  36.469  12.724   5.148
26452W        W98800  16.172   2.435   4.810
26453W        W98801  30.472  41.399   0.258
26454W        W98802  35.981  20.035   2.885
26455W        W98803  41.899  12.126   0.892
26456W        W98804   3.286  43.902   2.847
26457W        W98805  35.402  43.514   1.775
26458W        W98806  30.983   5.193  14.025
26459W        W98807  38.066  19.559   1.301
26460W        W98808  33.878  10.167  13.469
26461W        W98809  20.141   8.189  12.870
26462W        W98810  31.986  30.592   9.973
26463W        W98811  28.635  39.444   4.181
26464W        W98812   1.818  30.132   2.677
26465W        W98813  20.041  33.119  10.521
26466W        W98814   5.787  27.539   3.780
26467W        W98815  44.972  41.316   0.408
26468W        W98816   1.332  26.156   2.886
26469W        W98817   0.923  32.109   0.433
26470W        W98818  23.640  13.748   4.826
26471W        W98819  25.683  41.001   2.395
26472W        W98820  40.892  30.657  10.414
26473W        W98821   4.903  43.516  12.370
26474W        W98822   1.236   1.955  11.505
26475W        W98823  15.278  40.909   4.291
26476W        W98824  33.558  32.452  14.869
26477W        W98825   2.438  44.460   4.193
26478W        W98826  39.417  31.922   4.760
26479W        W98827  30.523  42.518   1.218
26480W        W98828  13.110   2.424   3.317
26481W        W98829  44.373   8.894   0.413
26482W        W98830  39.850  14.780   1.724
26483W        W98831  12.337   5.732   1.235
26484W        W98832  39.332  24.121  14.988
26485W        W98833  15.774   6.399  12.876
26486W        W98834   5.734  22.553   3.674
26487W        W98835   2.884  35.581   4.165
26488W        W98836  23.214  37.969   4.173
26489W        W98837  28.124  25.609   2.357
26490W        W98838   9.877  30.138   0.476
26491W        W98839  27.526   0.398   0.438
26492W        W98840  24.157  28.627   2.368
26493W        W98841  21.610   6.894   0.770
26494W        W98842  31.995   9.199   0.837
26495W        W98843   3.256  18.246  10.961
26496W        W98844  19.659  31.402  14.280
26497W        W98845  12.805  37.082  11.452
26498W        W98846  15.807  39.934   1.441
26499W        W98847  20.682   4.856   3.761
26500W        W98848  16.631   7.338   3.290
26501W        W98849  18.094   4.208   3.730
26502W        W98850  43.453  17.150   4.598
26503W        W98851  15.773   3.325  13.989
26504W        W98852  17.636  23.581  12.051
26505W        W98853   7.336  20.615  14.891
26506W        W98854  41.511  10.211   1.390
26507W        W98855  34.492   4.427   1.909
26508W        W98856  39.403  30.058  14.389
26509W        W98857   6.902   6.781  14.012
26510W        W98858  13.804  37.489  10.454
26511W        W98859   5.775  13.655   1.298
26512W        W98860  32.601   2.340   3.372
26513W        W98861  35.943  41.793   2.250
26514W        W98862  10.729  14.127  13.815
26515W        W98863  15.174  19.677   0.391
26516W        W98864  11.787   4.427   4.740
26517W        W98865  34.894  42.900  14.000
26518W        W98866   2.401  31.520  10.468
26519W        W98867  18.549   9.180   1.382
26520W        W98868  28.487  15.679   1.379
26521W        W98869  28.172  12.198   4.186
26522W        W98870   2.879  37.426   4.620
26523W        W98871   0.317   1.808  10.997
26524W        W98872  37.360  35.064  14.295
26525W        W98873  25.214   6.787  13.985
26526W        W98874  29.492  42.490   2.295
26527W        W98875   8.234  25.996  11.477
26528W        W98876  38.984  22.505   2.818
26529W        W98877  20.651  24.058  14.988
26530W        W98878  36.869   9.836   1.820
26531W        W98879   3.787  31.067  11.593
26532W        W98880  18.223  25.031   2.722
26533W        W98881  17.771  15.153   0.349
26534W        W98882  10.729  22.548   1.865
26535W        W98883  25.589  35.938  14.001
26536W        W98884  26.087  17.173  14.427
26537W        W98885  13.113   3.952   4.235
26538W        W98886  39.849  28.941  14.789
26539W        W98887  26.159   4.429   2.855
26540W        W98888  33.385  17.760   2.240
26541W        W98889  23.660   7.341   3.336
26542W        W98890  43.906  31.999   2.866
26543W        W98891  12.678  26.525  10.449
26544W        W98892  26.576  41.373  11.545
26545W        W98893   2.844  31.996  14.304
26546W        W98894   8.233   7.753  12.366
26547W        W98895  24.014  44.328   3.356
26548W        W98896  41.436  37.993   4.760
26549W        W98897  30.524  24.146  14.489
26550W        W98898  10.807  16.167   0.838
26551W        W98899  15.101  32.959  11.008
26552W        W98900  42.467   0.829  13.985
26553W        W98901  37.508  37.064   4.267
26554W        W98902  31.546  13.769   2.257
26555W        W98903  31.066  42.951   0.841
26556W        W98904  21.049   6.803   3.349
26557W        W98905  38.419  37.431   0.772
26558W        W98906   5.883  44.282   3.324
26559W        W98907  36.852  24.598   2.323
26560W        W98908  42.786  20.172  13.921
26561W        W98909   2.910  43.805  13.859
26562W        W98910  15.785  36.970   4.231
26563W        W98911  44.381  25.568   0.768
26564W        W98912  43.434  41.303  13.995
26565W        W98913  35.379   6.743  14.449
26566W        W98914  19.204  32.030  13.051
26567W        W98915  36.923   3.349   4.241
26568W        W98916  22.227  23.214   4.652
26569W        W98917  13.840  17.703   3.317
26570W        W98918  26.040  24.499  12.984
26571W        W98919  39.383  31.423  11.995
26572W        W98920  12.660  42.457   3.679
26573W        W98921  23.535  29.981   0.302
26574W        W98922  31.011  42.314  12.003
26575W        W98923  11.855  31.974  10.497
26576W        W98924  34.602  43.892   4.299
26577W        W98925  15.823   0.964  13.423
26578W        W98926  20.209  17.104   3.764
26579W        W98927  36.437  19.617   4.259
26580W        W98928  44.454  34.526   0.302
26581W        W98929  30.974  37.576   0.394
26582W        W98930  25.671  29.479  11.120
26583W        W98931  18.548  22.236  13.398
26584W        W98932   0.806   6.878  10.534
26585W        W98933   0.285   8.356   1.866
26586W        W98934   6.222  25.137  13.324
26587W        W98935  40.888   3.384   0.363
26588W        W98936  24.013  13.306  11.119
26589W        W98937  44.944  21.171  12.871
26590W        W98938  44.336  11.780  14.026
26591W        W98939  41.339   8.317  10.887
26592W        W98940  35.012  43.390  14.348
26593W        W98941  25.213   1.749   1.838
26594W        W98942   8.284  37.000  13.858
26595W        W98943  11.286   8.164   0.368
26596W        W98944  32.950  28.113   0.794
26597W        W98945  37.479  11.749   0.812
26598W        W98946   3.218  32.449   2.762
26599W        W98947   0.936  24.076  14.305
26600W        W98948  33.923   5.382  13.329
26601W        W98949  21.138   4.812  10.064
26602W        W98950  21.024  27.995   2.687
26603W        W98951  27.633  32.546  14.333
26604W        W98952  18.682  34.073  10.615
26605W        W98953   8.286  34.927   4.330
26606W        W98954  30.473  28.570  11.905
26607W        W98955   5.858  15.179  11.610
26608W        W98956  44.379  26.123  10.417
26609W        W98957  41.955  33.972  10.427
26610W        W98958  32.127   8.343  11.996
26611W        W98959   5.762  38.426  14.997
26612W        W98960   4.390  37.877   2.336
26613W        W98961   0.282  27.997  12.852
26614W        W98962  11.751   0.952  12.041
26615W        W98963   6.219  16.621   1.745
26616W        W98964   0.424  36.976   1.223
26617W        W98965   6.900  22.581   1.296
26618W        W98966   1.927  15.807  11.399
26619W        W98967  33.552   6.676  10.411
26620W        W98968  30.943  34.936   3.211
26621W        W98969   3.407  21.199  12.064
26622W        W98970  29.511  28.465  13.436
26623W        W98971   1.936   7.767   2.387
26624W        W98972  42.001   8.773   4.255
26625W        W98973   9.196   1.766   4.248
26626W        W98974  42.315   9.196  12.425
26627W        W98975  19.125  36.871  14.412
26628W        W98976  42.514  14.830  10.511
26629W        W98977  22.132  16.655  12.572
26630W        W98978  42.446   4.298  12.354
26631W        W98979  38.065  36.544  12.473
26632W        W98980   0.964   6.306   4.636
26633W        W98981  44.369  40.304   4.778
26634W        W98982  24.714   5.875   0.801
26635W        W98983  20.222  10.701  11.119
26636W        W98984  39.500   8.703  13.005
26637W        W98985   3.874  20.625   3.276
26638W        W98986   9.384  29.018  13.917
26639W        W98987  40.030  27.034  13.921
26640W        W98988   6.712  39.393  10.579
26641W        W98989  26.560  14.155   2.373
26642W        W98990  33.569  38.014   1.900
26643W        W98991   7.863   2.793   2.713
26644W        W98992   8.370  12.673  14.836
26645W        W98993  29.556  43.769  14.774
26646W        W98994   0.390  11.175   2.416
26647W        W98995  19.276  19.670  13.383
26648W        W98996   4.927  14.603  14.837
26649W        W98997  18.791  32.607  14.403
26650W        W98998  14.317  38.836   3.156
26651W        W98999   5.738  35.879   2.714
26652W        W99000  41.449  22.565  13.800
26653W        W99001   0.952   1.830  13.450
26654W        W99002  26.052  30.465   0.808
26655W        W99003  29.056  19.104  13.525
26656W        W99004   6.376  39.423  12.385
26657W        W99005  35.576   6.922   2.283
26658W        W99006  17.781  32.522   3.173
26659W        W99007  32.106   6.843   4.597
26660W        W99008  34.030  35.602   4.333
26661W        W99009  19.231  27.090   3.377
26662W        W99010  30.133  26.551   2.205
26663W        W99011  36.558  44.962  12.972
26664W        W99012  26.679  42.290   2.326
26665W        W99013  38.983  36.952  12.419
26666W        W99014  43.826  15.191  13.542
26667W        W99015   2.885   0.347  10.594
26668W        W99016  30.975  27.082  13.330
26669W        W99017  41.378  23.603   2.761
26670W        W99018  14.338  14.644   4.315
26671W        W99019  33.422  23.026   9.997
26672W        W99020   5.705  18.786   0.387
26673W        W99021  12.687  44.933   1.339
26674W        W99022  17.068  33.006   1.767
26675W        W99023  41.869  37.900   4.241
26676W        W99024   4.917  21.527  13.955
26677W        W99025  22.088  44.966  12.501
26678W        W99026  19.261   7.410   2.395
26679W        W99027  30.576   4.919   2.197
26680W        W99028   5.741  42.465  11.058
26681W        W99029  15.109   4.219  12.940
26682W        W99030  11.623  31.641   4.696
26683W        W99031   7.283   5.907  11.932
26684W        W99032  19.611  10.168  12.864
26685W        W99033  35.893  41.878  12.453
26686W        W99034  14.609  36.588   4.607
26687W        W99035  44.938   4.354  11.405
26688W        W99036  18.739  43.780  10.555
26689W        W99037  34.885  21.130   3.325
26690W        W99038  26.695   3.904  10.634
26691W        W99039   2.232  19.775  13.529
26692W        W99040  39.056   2.869   4.730
26693W        W99041  16.653   7.410  13.850
26694W        W99042  38.989  20.172   4.320
26695W        W99043  17.799  18.119  12.387
26696W        W99044  34.613   0.351   1.277
26697W        W99045   3.889  34.876   0.357
26698W        W99046  17.145  12.347  10.917
26699W        W99047   6.367  17.711  13.816
26700W        W99048   0.915  37.899   2.801
26701W        W99049  14.300  32.411  11.610
26702W        W99050  15.132   8.734   0.331
26703W        W99051  39.928  21.643  14.921
26704W        W99052   0.939  27.692  13.028
26705W        W99053  40.026  44.851   3.364
26706W        W99054  18.756  35.522   3.694
26707W        W99055   8.666  26.628   4.717
26708W        W99056   7.358  20.682  12.835
26709W        W99057  43.383   2.245  12.081
26710W        W99058  38.986  41.292  14.870
26711W        W99059  39.481  41.294   0.744
26712W        W99060  35.951  40.919  14.502
26713W        W99061  40.008   7.223  13.987
26714W        W99062  31.971  21.186  11.904
26715W        W99063   0.300  15.210  11.493
26716W        W99064  41.837  19.620  11.911
26717W        W99065  30.512  31.131  14.426
26718W        W99066  25.687  16.598   0.314
26719W        W99067   4.706   3.737   4.830
26720W        W99068  25.077  17.611   3.771
26721W        W99069  28.044  33.578   4.136
26722W        W99070  44.895  18.778   1.917
26723W        W99071   2.255  18.641   4.822
26724W        W99072  38.024  18.724  12.366
26725W        W99073  20.557   1.325  11.910
26726W        W99074  14.302  34.948  11.042
26727W        W99075  42.983  16.780  10.573
26728W        W99076  12.673  23.108   4.820
26729W        W99077  43.313  28.020   1.440
26730W        W99078  28.998  10.719   4.265
26731W        W99079  43.973   4.366   1.402
26732W        W99080  40.526  33.885  12.876
26733W        W99081  29.460  36.903   0.444
26734W        W99082   9.243  22.156   9.544
26735W        W99083   8.827   2.281  14.482
26736W        W99084  16.174  33.085   1.328
26737W        W99085  20.095  32.042   3.206
26738W        W99086   6.201   0.881  14.362
26739W        W99087   2.791  22.242   4.608
26740W        W99088  10.663   3.340  14.401
26741W        W99089  28.668   7.797   4.636
26742W        W99090  22.657  44.880   2.406
26743W        W99091   9.791   0.256  12.518
26744W        W99092   7.819  28.150  10.987
26745W        W99093  43.320  27.193  11.583
26746W        W99094   6.312  24.206  14.959
26747W        W99095  14.124   5.280   1.242
26748W        W99096  37.370  27.077   1.933
26749W        W99097   3.292  23.566  11.972
26750W        W99098   0.879  22.684  13.797
26751W        W99099  24.585  17.147  11.006
26752W        W99100   1.391   0.880  12.546
26753W        W99101  11.175  24.655   1.889
26754W        W99102  24.134  15.745  13.533
26755W        W99103  29.014  10.210  10.564
26756W        W99104  37.877   2.841  10.537
26757W        W99105  39.356  33.915  11.456
26758W        W99106  20.150  23.547   2.689
26759W        W99107  43.998  26.117   3.222
26760W        W99108  32.075  20.711   3.146
26761W        W99109  33.916  21.684   2.256
26762W        W99110  27.106  29.652   1.300
26763W        W99111  22.037  17.801   0.443
26764W        W99112  39.525  18.274  11.930
26765W        W99113  42.386   7.180  13.832
26766W        W99114  31.562  23.634  13.020
26767W        W99115   4.945  10.651  14.804
26768W        W99116  43.419  43.271   1.723
26769W        W99117  23.159  37.371  10.450
26770W        W99118  42.806  30.067   2.260
26771W        W99119  35.041   8.657   1.249
26772W        W99120   4.879  43.969   2.200
26773W        W99121  24.579  24.116   1.349
26774W        W99122  13.223  44.478  13.955
26775W        W99123  17.210  27.987  10.057
26776W        W99124   2.813   2.252  11.971
26777W        W99125  11.740  14.247  11.021
26778W        W99126   8.876  36.412  11.962
26779W        W99127  26.673  17.709  11.547
26780W        W99128   7.315   4.436   3.648
26781W        W99129   1.271   9.751  13.944
26782W        W99130  44.497  29.552   0.965
26783W        W99131  39.445  34.968  10.964
26784W        W99132  17.156  12.613   5.697
26785W        W99133  19.607  33.054  14.500
26786W        W99134  36.364  30.416  14.385
26787W        W99135   6.285   6.734  14.292
26788W        W99136  32.074  23.103  14.931
26789W        W99137   1.821  32.479   2.751
26790W        W99138  34.020  21.144   0.920
26791W        W99139   2.410  29.657   4.811
26792W        W99140  21.689  17.602   3.755
26793W        W99141  36.006  22.595  11.978
26794W        W99142  26.180  44.004  11.128
26795W        W99143  15.319   4.377  10.618
26796W        W99144  35.036  26.019  12.970
26797W        W99145  36.913  22.185  13.928
26798W        W99146  22.641  37.992   3.175
26799W        W99147  29.130  30.497  13.039
26800W        W99148   6.721  20.270   2.685
26801W        W99149   4.239  12.683   3.365
26802W        W99150  33.075  41.522   1.832
26803W        W99151  44.266   9.273   1.321
26804W        W99152  40.997  25.593   0.310
26805W        W99153   8.381   5.432   4.706
26806W        W99154  22.130  23.022   0.813
26807W        W99155  36.094  12.216   3.826
26808W        W99156  44.459   3.931  13.321
26809W        W99157  36.562  27.125   2.801
26810W        W99158  26.608  30.511  13.384
26811W        W99159   9.805  13.126   2.727
26812W        W99160  14.214   6.851  14.981
26813W        W99161  14.704  14.300   3.154
26814W        W99162  41.431  22.162   2.758
26815W        W99163  31.442   2.915  12.978
26816W        W99164  31.899  34.987  13.050
26817W        W99165  18.297  32.611  14.893
26818W        W99166  11.854   6.198   0.363
26819W        W99167  13.336  15.169   3.204
26820W        W99168  42.825  10.767  11.453
26821W        W99169   4.379  22.995   3.269
26822W        W99170  42.847  40.484   0.327
26823W        W99171  40.416  40.392  14.288
26824W        W99172  40.365  19.552   5.144
26825W        W99173  27.113   5.752   2.405
26826W        W99174  33.110   6.873  14.816
26827W        W99175   2.859  36.389  12.379
26828W        W99176  20.640  29.095  10.078
26829W        W99177   2.375   7.789  11.442
26830W        W99178  32.624   7.206  10.128
26831W        W99179  38.036  13.342   4.659
26832W        W99180  21.228   2.308   3.861
26833W        W99181   0.432   1.910   4.740
26834W        W99182  33.536  24.559  12.928
26835W        W99183  12.846   8.882   4.189
26836W        W99184  18.560   0.833   0.933
26837W        W99185  28.982  23.492   1.412
26838W        W99186  43.991   6.337  13.935
26839W        W99187  22.084  11.211  14.882
26840W        W99188  40.832   1.845   1.249
26841W        W99189   4.441   5.933  12.824
26842W        W99190  10.312   5.331  11.567
26843W        W99191   2.328  24.717  14.996
26844W        W99192  42.883  28.604   2.760
26845W        W99193  27.148  24.724  10.458
26846W        W99194  44.911  37.001   2.336
26847W        W99195   8.820  29.665   4.294
26848W        W99196  37.419  24.556  11.075
26849W        W99197  21.167  31.071  14.303
26850W        W99198  21.203  29.168   0.826
26851W        W99199  37.421  24.536  11.878
26852W        W99200  19.172  13.236  13.353
26853W        W99201  24.033  25.711  10.491
26854W        W99202  30.634  33.917  14.999
26855W        W99203  29.654  17.301   2.741
26856W        W99204  19.278  22.712   2.808
26857W        W99205  16.312  14.182   2.330
26858W        W99206  14.204   7.852  10.475
26859W        W99207  44.876  11.636   0.941
26860W        W99208  11.233   4.381   1.926
26861W        W99209  21.254  12.268  14.323
26862W        W99210  10.384   2.889   4.807
26863W        W99211  23.553  17.089  12.932
26864W        W99212  12.361   2.871  11.001
26865W        W99213  32.605  20.581  14.017
26866W        W99214  21.145  38.566  14.926
26867W        W99215  18.666   2.908   1.236
26868W        W99216  14.152  36.969  14.512
26869W        W99217  23.682   7.769  13.867
26870W        W99218  43.940   0.945   3.311
26871W        W99219  32.088   7.200   2.403
26872W        W99220   4.931   0.855  14.930
26873W        W99221  17.217   4.226  11.458
26874W        W99222  40.984   5.850  12.984
26875W        W99223  40.470  33.968   4.123
26876W        W99224  20.740  24.661   1.723
26877W        W99225   9.781  39.062   3.331
26878W        W99226  36.435   5.735   5.153
26879W        W99227  10.347  23.576   2.681
26880W        W99228  18.251  38.005  10.553
26881W        W99229  27.537  36.917   1.447
26882W        W99230  27.100  19.101  12.833
26883W        W99231  38.863  22.123  13.005
26884W        W99232  35.586   5.279  11.399
26885W        W99233  24.112  38.049  13.838
26886W        W99234   5.284  22.188   2.355
26887W        W99235  10.257  10.759   5.115
26888W        W99236  44.461  37.888   1.416
26889W        W99237   3.366  26.555  13.516
26890W        W99238  21.160  33.069   3.237
26891W        W99239  41.829   1.444   0.862
26892W        W99240  21.636   1.273  14.791
26893W        W99241  18.596   4.740  13.847
26894W        W99242   9.305  23.509   0.801
26895W        W99243  36.441   2.267   0.416
26896W        W99244  32.559   1.394  14.489
26897W        W99245  13.708  43.800   4.246
26898W        W99246   5.748  37.040   2.257
26899W        W99247  37.910   5.888  13.824
26900W        W99248   3.267  29.572   3.182
26901W        W99249   5.217   7.699  11.608
26902W        W99250  26.144  21.166  14.004
26903W        W99251  27.150  12.781   2.222
26904W        W99252   6.726   1.865   0.734
26905W        W99253  24.668   7.826   0.815
26906W        W99254   2.901   2.777  11.433
26907W        W99255  15.234  22.744   4.203
26908W        W99256  31.502  14.810  10.404
26909W        W99257  40.506  23.712   4.162
26910W        W99258   3.320  17.754   4.837
26911W        W99259   9.766  19.713   2.243
26912W        W99260  40.982  20.106  11.924
26913W        W99261  39.024   1.317   0.327
26914W        W99262  15.588  35.387   3.766
26915W        W99263  34.058  16.200  14.342
26916W        W99264   3.926   1.447   2.412
26917W        W99265  37.841  33.485   0.932
26918W        W99266  24.993  44.339  13.847
26919W        W99267  32.439  35.562  14.994
26920W        W99268  40.050  16.807  11.487
26921W        W99269  28.003  10.284  10.444
26922W        W99270  28.620  14.594  13.490
26923W        W99271  35.095  19.182   1.863
26924W        W99272  40.927  24.105  14.421
26925W        W99273  29.522  30.104  12.535
26926W        W99274  12.833  28.609  14.896
26927W        W99275   9.353   1.964  11.945
26928W        W99276  36.478  30.499   4.182
26929W        W99277   5.381   9.806  14.396
26930W        W99278   8.748   1.775   2.724
26931W        W99279   6.377   0.485   0.307
26932W        W99280  40.399   1.476  10.485
26933W        W99281   5.785  27.135  11.434
26934W        W99282  42.448  35.034   1.335
26935W        W99283   7.313   2.931  14.945
26936W        W99284  30.461   7.872   0.792
26937W        W99285  26.151  31.493   0.321
26938W        W99286  30.618  34.935   3.817
26939W        W99287  21.530  41.389   1.775
26940W        W99288  13.216  16.713   0.931
26941W        W99289  43.294  24.040   1.430
26942W        W99290  23.505   8.176   4.203
26943W        W99291  11.285  20.153   3.195
26944W        W99292  15.316  28.657  14.813
26945W        W99293  13.257  12.627  10.516
26946W        W99294  33.497   9.375  12.498
26947W        W99295  36.464  26.988  13.817
26948W        W99296   7.770  20.587  11.492
26949W        W99297   5.259  10.190   0.782
26950W        W99298  20.107  39.409  11.978
26951W        W99299  20.116  37.377   1.292
26952W        W99300  34.930  41.921   2.242
26953W        W99301  24.171  35.406  14.333
26954W        W99302  22.711  31.545   0.415
26955W        W99303   3.734  16.734  10.485
26956W        W99304  40.328  42.829   0.270
26957W        W99305  22.725   5.777  13.004
26958W        W99306  41.976   4.328  13.478
26959W        W99307  41.521  28.450  10.887
26960W        W99308   8.863   4.262   2.219
26961W        W99309  29.639   5.368  11.443
26962W        W99310  11.330  19.569   4.718
26963W        W99311  17.302   5.244  13.873
26964W        W99312  39.036  42.412   0.886
26965W        W99313  34.066  37.447  14.417
26966W        W99314   7.795  44.320  12.406
26967W        W99315   0.361  14.176  12.827
26968W        W99316  32.607  25.103   2.229
26969W        W99317  42.335  36.868  11.929
26970W        W99318  24.668  30.513   4.794
26971W        W99319   6.291   1.374   1.421
26972W        W99320  35.387   0.291   2.216
26973W        W99321  17.251   8.163  12.382
26974W        W99322  27.986  34.479   1.221
26975W        W99323  13.140  25.544  11.505
26976W        W99324  37.406  35.953   9.991
26977W        W99325  38.551  20.695  11.432
26978W        W99326  15.280  37.932  10.566
26979W        W99327   6.802  22.596  12.885
26980W        W99328   5.242  20.211  14.861
26981W        W99329  38.546  31.440   1.374
26982W        W99330  39.923  39.973  12.062
26983W        W99331  30.157  26.686   4.308
26984W        W99332   1.960  29.482  10.910
26985W        W99333  26.666  11.672  14.009
26986W        W99334  12.663  26.148  12.390
26987W        W99335   8.669  28.949  12.998
26988W        W99336   8.336  19.689   4.666
26989W        W99337   2.244  23.174   1.762
26990W        W99338  31.583  24.635  14.964
26991W        W99339   6.188   3.897   0.306
26992W        W99340  10.280  11.676  11.094
26993W        W99341  39.038  13.185  12.092
26994W        W99342  33.037  16.249  13.480
26995W        W99343  37.068  42.860   4.322
26996W        W99344  30.043  20.041  12.918
26997W        W99345   9.321  24.502  12.982
26998W        W99346   1.291  20.089   3.853
26999W        W99347  19.722  41.027   1.873
27000W        W99348  19.773  36.929   0.844
27001W        W99349  19.732  22.103   2.415
27002W        W99350  21.218  18.764  14.831
27003W        W99351  40.018  12.333  14.391
27004W        W99352  38.955  38.981   2.679
27005W        W99353  10.787   3.299  10.992
27006W        W99354  32.110   0.264  13.907
27007W        W99355  15.663  32.066  14.861
27008W        W99356  27.683  19.743   4.315
27009W        W99357  10.216  40.993   3.673
27010W        W99358  12.120  36.493   2.282
27011W        W99359   3.810  35.421  13.538
27012W        W99360  39.486  43.947   1.702
27013W        W99361  44.966  13.785   4.614
27014W        W99362  11.166  13.697   4.115
27015W        W99363  43.893  24.221  10.473
27016W        W99364  41.837   4.753  14.939
27017W        W99365  27.568   3.218   3.334
27018W        W99366  22.717   0.896  13.054
27019W        W99367  31.529  43.933   4.616
27020W        W99368  34.106  11.824  11.521
27021W        W99369  30.647  11.817  11.874
27022W        W99370  19.205   8.715  11.427
27023W        W99371  34.445  16.189  14.286
27024W        W99372  44.009  34.020  10.900
27025W        W99373  27.590  41.484  11.989
27026W        W99374  29.595  30.024  11.956
27027W        W99375  18.750  25.063   1.257
27028W        W99376  36.550  30.533  10.517
27029W        W99377  33.124  43.905   1.273
27030W        W99378  15.218  20.256   2.887
27031W        W99379  43.446  10.201  10.023
27032W        W99380  44.962  27.550   2.663
27033W        W99381  43.416  20.761   2.248
27034W        W99382  33.491  23.614  10.098
27035W        W99383  31.129  24.032   1.418
27036W        W99384   8.174  16.187  12.562
27037W        W99385  44.294   3.760   3.198
27038W        W99386  29.505  20.538  11.892
27039W        W99387  27.125  35.864   2.198
27040W        W99388  34.026   6.865   4.735
27041W        W99389  10.285  20.615  11.910
27042W        W99390  39.488  27.448   1.886
27043W        W99391  43.452  19.683  14.292
27044W        W99392  37.925   0.849  14.878
27045W        W99393  35.402  30.649   1.381
27046W        W99394  44.473  37.486  13.978
27047W        W99395   8.346   1.398  13.965
27048W        W99396  30.594  18.749   2.824
27049W        W99397  30.134  12.259   1.919
27050W        W99398  37.574  13.346  14.027
27051W        W99399  13.824   7.339   1.251
27052W        W99400  13.760  12.845  13.915
27053W        W99401  21.199   1.824  12.940
27054W        W99402  34.417  37.416   1.780
27055W        W99403  29.587  13.300  12.408
27056W        W99404  10.355  30.011  11.438
27057W        W99405  33.926   6.213  12.915
27058W        W99406  41.954  29.976   1.331
27059W        W99407  26.645   7.281   3.764
27060W        W99408  41.486  44.259  14.816
27061W        W99409  14.788  41.920  10.966
27062W        W99410  30.954  23.207   1.362
27063W        W99411  32.000  24.687   3.316
27064W        W99412  31.119   0.429  11.399
27065W        W99413   8.359   4.308   2.777
27066W        W99414  19.058   7.700   0.747
27067W        W99415  35.393  41.855   2.840
27068W        W99416  17.563  38.876   1.933
27069W        W99417  12.753  33.597  12.031
27070W        W99418  41.359  12.248  12.056
27071W        W99419   9.157  21.167   4.776
27072W        W99420  21.062  42.001   4.637
27073W        W99421  38.985  22.559   0.911
27074W        W99422  36.442   3.931  14.429
27075W        W99423  28.457  44.937   3.784
27076W        W99424  33.089  19.219  11.065
27077W        W99425  41.481  43.496  11.415
27078W        W99426  13.636  15.739   1.247
27079W        W99427  32.125  38.025   3.217
27080W        W99428  29.503  34.556   3.374
27081W        W99429  10.228   4.860  13.333
27082W        W99430  42.504  28.440   4.750
27083W        W99431   9.673  32.534  13.906
27084W        W99432  39.417  23.107  11.441
27085W        W99433  22.177   3.922   0.764
27086W        W99434  32.586  32.005  10.422
27087W        W99435  34.431   2.399  12.064
27088W        W99436  28.136  27.968   2.296
27089W        W99437  31.486  35.990   0.901
27090W        W99438  22.206  26.208  10.440
27091W        W99439  23.081  22.556   4.303
27092W        W99440  40.822  43.835   4.695
27093W        W99441   8.854  43.893   4.668
27094W        W99442  30.481   1.257   0.816
27095W        W99443   0.319  15.790  13.499
27096W        W99444   3.794  44.288  14.923
27097W        W99445   1.883  14.734  12.414
27098W        W99446  35.553   7.384   3.749
27099W        W99447  11.351  27.183   4.739
27100W        W99448  43.323  27.691  14.865
27101W        W99449  24.186  35.429   4.720
27102W        W99450  22.661  30.492  14.481
27103W        W99451  32.457   9.681  13.344
27104W        W99452  16.177  30.000  12.053
27105W        W99453   0.790   7.220   1.781
27106W        W99454  33.597  41.008   1.434
27107W        W99455  21.055  11.733   2.834
27108W        W99456  38.051   2.409   3.246
27109W        W99457  34.397   7.226   3.257
27110W        W99458  25.197   4.873  11.552
27111W        W99459  12.791  38.004  12.863
27112W        W99460  15.734  18.598  14.927
27113W        W99461  33.094   6.785   2.878
27114W        W99462  29.515   0.445   0.433
27115W        W99463  31.635   1.306  10.581
27116W        W99464   7.390  29.026  12.087
27117W        W99465   5.898  13.722  11.978
27118W        W99466   9.284  44.382  10.888
27119W        W99467  23.629  28.061  12.436
27120W        W99468   9.191   9.150  13.879
27121W        W99469   2.852  41.006  12.441
27122W        W99470  26.986  21.685   0.459
27123W        W99471  25.492  19.282   1.401
27124W        W99472  36.566  33.493  12.875
27125W        W99473  21.664  36.365   4.223
27126W        W99474  18.057  44.349  13.823
27127W        W99475  23.989  38.394  14.293
27128W        W99476  18.724  28.615  12.012
27129W        W99477  11.768   0.768   3.712
27130W        W99478  37.953  43.300  13.845
27131W        W99479  21.020  14.774  12.403
27132W        W99480   9.297  22.503   1.278
27133W        W99481  10.794   2.450  12.572
27134W        W99482  32.523  14.276  14.291
27135W        W99483  28.648   2.239  11.065
27136W        W99484  42.402  26.498  11.997
27137W        W99485  29.051  20.590   1.386
27138W        W99486  43.502  10.347  11.127
27139W        W99487   9.799  40.916   3.812
27140W        W99488   2.274  24.149  13.876
27141W        W99489  13.721  38.884   1.884
27142W        W99490   8.871  43.509  12.460
27143W        W99491  33.944  30.489   4.284
27144W        W99492  44.833   2.820  10.517
27145W        W99493  39.919  31.413   4.270
27146W        W99494   4.710  11.295  12.999
27147W        W99495  21.023  40.523   0.409
27148W        W99496  22.138  32.966   0.783
27149W        W99497  42.827  14.764  10.917
27150W        W99498   0.856   9.368   1.404
27151W        W99499  26.189   9.251  12.414
27152W        W99500  27.508  42.783   0.734
27153W        W99501  27.099  41.463   0.403
27154W        W99502  41.412   0.270  12.835
27155W        W99503  40.408  11.750   2.418
27156W        W99504  19.555  19.177  14.476
27157W        W99505  37.922  23.689   4.682
27158W        W99506   8.826  22.584  14.406
27159W        W99507  35.090   9.278  12.947
27160W        W99508  13.727  18.778  13.487
27161W        W99509  17.119  20.059  12.854
27162W        W99510  11.172  21.703   4.214
27163W        W99511   7.863  34.108   5.100
27164W        W99512   0.266  22.097   2.182
27165W        W99513  10.211  27.521   4.677
27166W        W99514  13.828  39.343   0.862
27167W        W99515  33.088  38.410  11.876
27168W        W99516  31.463  34.092   0.963
27169W        W99517  38.465  20.581   3.367
27170W        W99518  33.483   7.854  11.409
27171W        W99519  18.059   4.740  11.879
27172W        W99520  26.546  14.112   0.756
27173W        W99521  42.486  36.842   1.860
27174W        W99522   0.271  14.666   4.250
27175W        W99523  24.595  29.054  13.525
27176W        W99524  26.151  24.214   1.262
27177W        W99525  22.533  13.173   1.891
27178W        W99526  34.099  16.767  13.353
27179W        W99527  34.934  29.012  10.526
27180W        W99528  32.472  33.900   1.427
27181W        W99529  27.535  17.071  14.316
27182W        W99530  14.660  43.387  14.355
27183W        W99531  31.064  14.636  10.593
27184W        W99532  29.173  26.161   1.926
27185W        W99533  43.931   7.735  10.888
27186W        W99534   9.886   3.457   4.242
27187W        W99535  16.200  38.952   1.867
27188W        W99536  40.898  35.882   2.394
27189W        W99537  20.724  19.049  13.357
27190W        W99538  30.605  14.103   4.798
27191W        W99539  29.925  16.127   3.661
27192W        W99540  11.258  15.808   1.762
27193W        W99541  30.915  29.128  11.550
27194W        W99542  24.083  12.168   4.132
27195W        W99543   4.225   0.464   3.811
27196W        W99544  36.844  38.914   3.672
27197W        W99545  13.670  38.420   2.413
27198W        W99546  15.161  10.252   2.682
27199W        W99547  30.519   1.763   4.710
27200W        W99548  18.641   0.929   1.314
27201W        W99549   3.378  14.132  13.980
27202W        W99550  42.922  41.343   3.732
27203W        W99551   3.217  32.014  10.504
27204W        W99552  44.788  14.239  13.442
27205W        W99553  21.538  22.016   4.143
27206W        W99554  32.493   0.341  14.819
27207W        W99555  25.620   8.748  11.438
27208W        W99556  44.890  27.086   1.926
27209W        W99557  13.264  33.063  11.492
27210W        W99558  27.467  43.895  11.549
27211W        W99559  34.090  23.043  13.822
27212W        W99560  40.444  13.674   3.382
27213W        W99561  25.576  12.347   3.182
27214W        W99562  36.090  29.987   4.728
27215W        W99563   0.492  28.546   3.755
27216W        W99564   6.788  30.535   4.120
27217W        W99565  22.232   1.820   4.718
27218W        W99566  25.548  12.704   2.319
27219W        W99567  16.788  33.449   4.256
27220W        W99568  34.049  22.045   4.675
27221W        W99569   6.850  37.006   3.806
27222W        W99570  22.054  37.905  14.442
27223W        W99571  32.123  17.796  14.008
27224W        W99572  37.412  32.978  12.368
27225W        W99573  39.505  24.627  11.988
27226W        W99574  10.228   5.271  13.357
27227W        W99575  14.764  42.937  12.879
27228W        W99576   7.261  42.359  13.802
27229W        W99577  10.150  38.929  14.441
27230W        W99578  10.176  39.897   2.363
27231W        W99579  29.108  35.603   4.339
27232W        W99580  10.240  32.465  11.118
27233W        W99581  15.765   0.860   3.841
27234W        W99582  17.171  33.112  11.059
27235W        W99583  39.983  40.889  13.911
27236W        W99584   1.462  29.123   0.838
27237W        W99585  12.362  40.854  11.568
27238W        W99586  21.646  18.684   4.740
27239W        W99587  29.502   7.805   3.247
27240W        W99588   3.343   8.818  10.076
27241W        W99589  10.836   1.918  14.294
27242W        W99590  33.007  37.045   5.154
27243W        W99591  15.134  25.520   3.706
27244W        W99592  17.163   6.392   4.643
27245W        W99593  25.682   4.855  10.542
27246W        W99594   7.863  33.087  13.030
27247W        W99595  19.267  42.011  14.507
27248W        W99596  16.802  31.503  10.958
27249W        W99597   5.424   8.329   4.287
27250W        W99598  33.551  38.881   0.928
27251W        W99599  10.166  43.943  11.092
27252W        W99600  27.586  41.449  13.025
27253W        W99601  32.432  34.597   1.254
27254W        W99602  17.658   3.832   1.372
27255W        W99603  26.184  23.614   2.261
27256W        W99604   8.208  24.001  14.282
27257W        W99605  31.616   4.725  14.907
27258W        W99606  36.056   1.457  13.964
27259W        W99607  20.745  39.972  10.945
27260W        W99608  26.149  34.114  12.447
27261W        W99609  39.556  31.557   0.815
27262W        W99610  42.337  27.576   2.370
27263W        W99611  29.104   9.772  13.838
27264W        W99612  20.147  12.311   3.806
27265W        W99613   2.259  13.627  13.827
27266W        W99614   7.710   1.335  11.520
27267W        W99615  33.092  23.671   0.382
27268W        W99616  14.726  16.151  11.434
27269W        W99617  32.404   5.413  11.385
27270W        W99618  30.632  26.508   1.236
27271W        W99619  39.448  29.583  13.917
27272W        W99620   6.704  22.663   0.356
27273W        W99621   2.757  40.902  11.064
27274W        W99622  31.967  29.148   0.395
27275W        W99623  15.601  27.140  13.323
27276W        W99624  14.294  38.821   2.698
27277W        W99625  31.931  16.102  14.956
27278W        W99626  33.613   6.704   3.856
27279W        W99627  17.621  31.026  11.456
27280W        W99628  19.041  27.948  11.056
27281W        W99629  31.941  42.451  13.880
27282W        W99630   7.899   7.713  14.881
27283W        W99631  39.529  17.174  13.863
27284W        W99632  13.812  43.843  12.551
27285W        W99633  12.243  27.986   1.736
27286W        W99634   2.395  10.826   2.283
27287W        W99635  35.938   4.302  11.018
27288W        W99636  29.930  40.035   1.932
27289W        W99637  10.346   3.307  13.881
27290W        W99638  27.009  18.221   1.935
27291W        W99639  43.301  39.992   2.246
27292W        W99640  37.915   9.337   0.927
27293W        W99641  40.956  24.092  10.951
27294W        W99642   0.875   0.429  14.337
27295W        W99643  31.963  40.527  14.908
27296W        W99644  17.108  42.954  10.140
27297W        W99645  23.644   9.791   3.224
27298W        W99646  34.462  20.717   5.215
27299W        W99647  36.980  12.733  13.951
27300W        W99648  34.407  36.437  13.367
27301W        W99649   5.403  10.341   3.343
27302W        W99650  27.610  40.494   2.694
27303W        W99651  15.264  33.603  14.334
27304W        W99652  28.108  42.524  13.457
27305W        W99653  40.504   3.737   3.630
27306W        W99654  27.517   1.835   0.243
27307W        W99655  27.077  11.231   1.444
27308W        W99656  30.989  28.617   4.234
27309W        W99657  19.686  16.233   2.798
27310W        W99658   5.423  36.542   2.683
27311W        W99659  15.753   1.344   3.215
27312W        W99660   7.833   7.200   0.932
27313W        W99661  27.188  35.569   3.714
27314W        W99662  34.034  10.754   3.658
27315W        W99663  36.976  41.414   0.849
27316W        W99664  39.999   3.448   2.672
27317W        W99665  16.786   6.226   3.819
27318W        W99666   1.763  23.025  13.843
27319W        W99667   8.292  22.118   0.432
27320W        W99668  35.918  20.687   3.306
27321W        W99669  27.969  25.652  11.468
27322W        W99670  36.998  22.672  10.099
27323W        W99671  17.572  43.440   3.370
27324W        W99672  19.262  42.312  11.592
27325W        W99673  25.652  44.936  11.967
27326W        W99674  21.254  28.990  14.852
27327W        W99675  43.389  30.457   3.245
27328W        W99676  10.340  18.596  10.929
27329W        W99677  30.143  42.943   3.724
27330W        W99678  18.637  42.032   2.356
27331W        W99679  42.336  40.031   0.440
27332W        W99680  29.611  26.502   0.764
27333W        W99681   5.299  17.217  11.499
27334W        W99682  27.151  30.944   3.704
27335W        W99683  11.855  24.089   3.242
27336W        W99684  11.182   1.896   4.354
27337W        W99685  11.209   5.257  12.905
27338W        W99686  14.133  18.287  14.872
27339W        W99687  38.535  16.100   1.212
27340W        W99688  17.193   5.724   1.894
27341W        W99689   6.240  20.640   3.171
27342W        W99690  36.855   6.390   2.363
27343W        W99691  27.119   8.818   4.733
27344W        W99692  10.772  36.937   3.631
27345W        W99693  20.532  29.601  10.554
27346W        W99694  40.017  29.108  11.058
27347W        W99695  31.513  22.543  13.850
27348W        W99696   9.171  23.565   1.703
27349W        W99697  12.344   1.919  13.390
27350W        W99698   7.379  28.655   3.804
27351W        W99699  29.643  41.953  12.417
27352W        W99700  43.998  39.866  12.410
27353W        W99701  30.954   1.782  11.972
27354W        W99702  13.269  10.370  11.011
27355W        W99703  12.250   2.360  12.856
27356W        W99704   2.950   7.747   2.252
27357W        W99705  33.917   8.208  11.045
27358W        W99706  21.662  37.080  14.345
27359W        W99707   7.858  31.512  10.482
27360W        W99708   3.874  24.997   0.777
27361W        W99709  30.044   5.220   1.252
27362W        W99710  33.454  42.881   3.282
27363W        W99711   7.732  39.861  13.426
27364W        W99712  20.199   1.879   0.799
27365W        W99713  20.171  25.681   1.286
27366W        W99714   6.773   4.733  14.404
27367W        W99715  42.002  39.483   3.249
27368W        W99716  15.208  41.916  12.523
27369W        W99717  11.251  43.409  12.044
27370W        W99718  40.902  41.488   1.260
27371W        W99719  38.938   2.409   3.228
27372W        W99720  13.277  12.766  10.005
27373W        W99721   0.288  40.009  10.524
27374W        W99722  31.454  37.500  10.558
27375W        W99723   7.216  16.169  10.410
27376W        W99724  42.816  27.986  11.922
27377W        W99725  20.146  11.262   0.814
27378W        W99726   3.760  41.870  12.495
27379W        W99727   8.324  33.899   1.901
27380W        W99728  43.339  17.123  11.127
27381W        W99729  44.869  44.001  11.608
27382W        W99730  25.146  13.311   0.344
27383W        W99731  30.493  15.694  12.028
27384W        W99732  20.745  26.582  13.007
27385W        W99733  37.563   5.838  10.516
27386W        W99734  43.384  21.676  10.630
27387W        W99735   5.198   4.204  14.845
27388W        W99736  22.627   0.838   2.372
27389W        W99737  13.793  30.094   4.304
27390W        W99738   9.319   1.887   1.262
27391W        W99739  29.031  40.443   1.906
27392W        W99740  39.918   7.227  11.588
27393W        W99741  35.433  12.310  11.017
27394W        W99742  41.530  27.622  14.375
27395W        W99743  15.707  37.385  13.840
27396W        W99744  16.092  12.215   4.798
27397W        W99745  30.089   1.953   0.805
27398W        W99746  30.464   0.350  10.517
27399W        W99747  41.788  44.837  10.893
27400W        W99748   8.732  32.584  14.410
27401W        W99749   3.767  18.775   3.226
27402W        W99750   8.281   8.727  14.403
27403W        W99751  19.251   6.737  13.401
27404W        W99752  32.926  21.104  12.841
27405W        W99753  23.668  30.066   4.275
27406W        W99754   5.842   7.412   4.690
27407W        W99755  29.123  27.611  12.920
27408W        W99756  43.405  33.626  13.953
27409W        W99757  26.463   1.806   2.753
27410W        W99758  28.454  41.012  10.635
27411W        W99759  43.872  24.017   1.731
27412W        W99760   1.954   3.820   2.850
27413W        W99761  44.348  18.788  13.932
27414W        W99762  12.188   4.778   4.173
27415W        W99763  36.844  18.215  12.480
27416W        W99764  32.579  30.478  12.861
27417W        W99765  25.011  17.802   1.728
27418W        W99766   1.760   5.749  12.073
27419W        W99767  31.490   3.411  14.344
27420W        W99768  22.669  37.001  12.861
27421W        W99769   2.333  14.159   5.158
27422W        W99770  26.591  11.207   1.377
27423W        W99771  17.213  42.485   2.826
27424W        W99772  42.438  41.803  14.311
27425W        W99773  28.122  39.989  13.793
27426W        W99774  14.314  27.657   1.441
27427W        W99775  30.995  25.127   4.221
27428W        W99776  11.761  29.170  11.100
27429W        W99777  27.549  33.101   0.935
27430W        W99778  23.508  11.744   1.446
27431W        W99779  33.419   3.457   0.813
27432W        W99780  18.757   7.768  14.315
27433W        W99781  36.538  20.209  14.447
27434W        W99782  12.234   9.778  12.391
27435W        W99783  23.521  18.737  12.392
27436W        W99784  25.187  19.184   2.196
27437W        W99785  20.665   6.239  12.049
27438W        W99786  16.659  20.734   3.803
27439W        W99787  30.577  31.948   4.611
27440W        W99788   8.696  22.543  14.872
27441W        W99789  37.956  15.582  13.986
27442W        W99790  20.661   4.206   4.316
27443W        W99791   0.401  21.575   2.295
27444W        W99792  34.487  11.645   1.424
27445W        W99793  38.903   5.341  14.929
27446W        W99794   9.751  32.433  11.885
27447W        W99795  24.174   3.928   4.147
27448W        W99796  42.518  40.922  10.452
27449W        W99797   8.771  31.021  13.376
27450W        W99798  24.127   3.901   1.447
27451W        W99799  24.654  14.642  10.534
27452W        W99800  35.530  13.698  14.474
27453W        W99801  40.537   2.824   2.239
27454W        W99802  29.143  41.838  10.508
27455W        W99803  44.390  33.538  14.463
27456W        W99804  26.657  10.803   3.654
27457W        W99805  17.558  21.679   4.295
27458W        W99806  30.487  13.723  10.498
27459W        W99807  11.667  13.604  10.926
27460W        W99808  42.312  14.168  12.931
27461W        W99809  16.106   7.285   1.382
27462W        W99810  34.563  30.615   0.294
27463W        W99811  17.575  41.435  14.772
27464W        W99812  17.174   3.838   1.788
27465W        W99813  22.736   9.171  11.059
27466W        W99814  26.115  25.997   3.680
27467W        W99815  42.941  23.615   3.304
27468W        W99816  33.884  39.815  12.524
27469W        W99817  44.375   3.280   0.436
27470W        W99818  32.551  11.780   9.943
27471W        W99819   9.233  28.040  11.445
27472W        W99820  23.633  29.933  10.474
27473W        W99821  28.658  38.455   0.260
27474W        W99822  13.311   0.373  12.522
27475W        W99823  43.974  28.028  10.423
27476W        W99824  28.966  12.214   2.690
27477W        W99825  32.393  19.581   3.351
27478W        W99826  13.196  40.033  14.779
27479W        W99827  25.171   5.319  12.551
27480W        W99828  14.690  37.855   0.388
27481W        W99829  33.093  31.936   2.706
27482W        W99830   0.391  26.987  11.887
27483W        W99831  30.644  14.294   2.809
27484W        W99832  36.867  24.188   1.871
27485W        W99833  37.023   8.797   0.287
27486W        W99834   2.803  22.559  11.895
27487W        W99835  23.098  14.162  13.483
27488W        W99836  20.187  36.418  14.792
27489W        W99837  34.985  26.688   1.934
27490W        W99838  18.606  39.549  14.454
27491W        W99839  44.313   9.838  12.013
27492W        W99840  18.609  12.352  10.497
27493W        W99841   7.219  22.586  13.490
27494W        W99842   0.276  42.338   2.379
27495W        W99843  37.468  16.191  12.459
27496W        W99844  15.270   6.855   1.336
27497W        W99845  33.484  44.294   3.229
27498W        W99846  33.542  15.688  10.066
27499W        W99847   3.781  31.570  14.975
27500W        W99848  38.340  24.104  14.017
27501W        W99849  22.544  13.760   2.820
27502W        W99850   2.370  31.946  13.046
27503W        W99851  19.741  29.092  13.339
27504W        W99852  18.057  33.069   1.214
27505W        W99853   5.704   5.748  14.794
27506W        W99854  25.994  22.157   1.712
27507W        W99855  35.502  43.917  13.521
27508W        W99856   0.254  27.618   4.288
27509W        W99857  39.534  42.888   1.695
27510W        W99858  40.876  36.581  12.961
27511W        W99859  38.382  33.529  14.930
27512W        W99860   7.896  40.404   3.715
27513W        W99861  37.945  24.152  12.007
27514W        W99862  20.738  24.094   2.689
27515W        W99863  13.198  22.663   3.736
27516W        W99864  16.104  18.153  11.459
27517W        W99865  24.117  29.937  12.393
27518W        W99866  39.397  37.542   3.309
27519W        W99867  33.125  26.957   0.796
27520W        W99868   2.276   6.281   3.276
27521W        W99869  16.247  34.889  11.129
27522W        W99870   0.763  14.689  13.336
27523W        W99871  43.972  22.691  13.501
27524W        W99872  44.259  15.739  11.933
27525W        W99873  17.686  19.114  11.084
27526W        W99874  16.615  29.527   3.184
27527W        W99875  23.986  39.490   3.706
27528W        W99876  13.783  16.647  12.464
27529W        W99877   3.449  32.049   4.623
27530W        W99878  43.864  21.142  11.457
27531W        W99879  44.480  17.089   4.142
27532W        W99880   0.267  12.734   3.184
27533W        W99881  35.040   2.877  10.601
27534W        W99882  43.835  17.567   4.690
27535W        W99883  33.945  13.839  12.431
27536W        W99884  15.761  25.160  12.962
27537W        W99885   9.237  26.604  13.352
27538W        W99886   3.858   0.842  11.869
27539W        W99887  15.635  41.320  14.401
27540W        W99888  10.356   0.965  11.880
27541W        W99889  20.057  17.094  10.549
27542W        W99890   3.443  32.975   2.870
27543W        W99891  11.272  17.603  12.417
27544W        W99892  27.676  24.674  12.402
27545W        W99893  42.466  25.591   1.828
27546W        W99894  21.630  44.791  11.885
27547W        W99895  43.955  26.467   2.752
27548W        W99896   0.330  12.732  13.510
27549W        W99897  24.649  19.751  11.485
27550W        W99898  33.592  30.081  14.289
27551W        W99899  23.119  19.112  11.509
27552W        W99900  32.898  31.539  10.487
27553W        W99901   2.917  21.097  14.511
27554W        W99902  19.188   6.719  10.906
27555W        W99903  18.753  12.156   4.283
27556W        W99904   4.853  35.469   2.294
27557W        W99905   8.693   1.320  12.346
27558W        W99906  44.438   4.289  11.054
27559W        W99907  12.127  38.339  11.489
27560W        W99908  39.317  12.806  12.442
27561W        W99909  27.119  25.524   2.390
27562W        W99910  31.463  31.982   3.836
27563W        W99911  14.690   8.871   5.117
27564W        W99912  36.862  14.323  11.584
27565W        W99913   4.233  28.458   2.707
27566W        W99914  18.138  31.456  10.961
27567W        W99915  40.836  22.569  14.793
27568W        W99916  43.013  39.322   4.649
27569W        W99917  11.274  28.442   0.813
27570W        W99918  14.697  24.565   3.310
27571W        W99919   4.443  24.129  11.110
27572W        W99920   4.938  22.575   0.431
27573W        W99921  18.139  40.504   2.411
27574W        W99922  13.282  42.289   3.242
27575W        W99923  31.025  17.796   1.233
27576W        W99924  41.865   3.720   2.720
27577W        W99925  42.026  20.056   4.607
27578W        W99926   3.230  12.768   4.597
27579W        W99927  10.760  39.003  12.546
27580W        W99928  19.117  21.665  14.303
27581W        W99929   0.303  15.097   4.737
27582W        W99930  10.308   7.257  12.964
27583W        W99931  15.234  43.921  10.633
27584W        W99932  17.250  23.232   2.840
27585W        W99933  24.109  11.188   2.327
27586W        W99934  28.110  30.618  10.909
27587W        W99935   1.769  12.177  14.779
27588W        W99936   6.403  17.284   4.148
27589W        W99937  25.602  43.934  13.911
27590W        W99938  27.632   8.812  12.830
27591W        W99939  32.482  20.728  13.454
27592W        W99940  36.441  18.233   0.366
27593W        W99941  19.192   3.783   0.886
27594W        W99942  21.084  29.516  12.449
27595W        W99943   2.926   6.316  10.424
27596W        W99944  33.931  39.826   1.887
27597W        W99945  16.110  38.455  14.892
27598W        W99946  12.686  16.219  10.432
27599W        W99947  38.984  13.600   3.249
27600W        W99948  15.632   6.889  12.088
27601W        W99949  22.220  44.965   0.873
27602W        W99950  39.406   1.974  14.407
27603W        W99951  10.229  17.748   3.800
27604W        W99952   8.363  27.661   3.779
27605W        W99953  31.150   8.288  12.982
27606W        W99954  33.605   3.904   1.879
27607W        W99955  18.075  37.984   1.731
27608W        W99956  26.035  44.377  10.966
27609W        W99957   4.703  26.972   2.324
27610W        W99958  13.254   2.369   2.716
27611W        W99959  36.934  37.339  12.443
27612W        W99960  23.228   8.283  13.009
27613W        W99961  38.376  16.750  11.584
27614W        W99962  11.810  24.711  14.767
27615W        W99963   4.268  14.155  14.001
27616W        W99964  13.614  42.817   5.183
27617W        W99965  44.320  16.101  14.882
27618W        W99966  26.569  27.085   3.677
27619W        W99967  37.560  26.162   1.284
27620W        W99968  23.553  27.454  11.477
27621W        W99969  11.133  16.732   4.724
27622W        W99970  41.509   4.218  10.938
27623W        W99971  14.755  20.655   4.659
27624W        W99972  38.824  41.419   5.321
27625W        W99973  20.131  10.749  14.001
27626W        W99974  35.374   5.705  12.916
27627W        W99975  37.475  31.940   2.367
27628W        W99976  42.411   4.843   2.845
27629W        W99977  12.350  15.126  13.914
27630W        W99978  10.836  40.831   4.737
27631W        W99979  32.983   8.367   3.255
27632W        W99980  23.625  43.877  11.885
27633W        W99981   2.343  37.406   2.874
27634W        W99982   7.725  41.801   4.287
27635W        W99983  35.454  29.516  12.962
27636W        W99984  18.268   2.748   1.353
27637W        W99985  39.453  23.523   1.705
27638W        W99986  38.501  21.551  10.908
27639W        W99987  25.188   7.724   0.451
27640W        W99988  10.231  31.971   1.229
27641W        W99989  34.086  36.926  13.919
27642W        W99990   2.759  34.960   3.727
27643W        W99991   6.393  26.165   1.236
27644W        W99992   0.927  11.373   4.205
27645W        W99993  44.817   4.346  14.806
27646W        W99994  13.734  36.044  14.999
27647W        W99995  41.956  14.146   4.724
27648W        W99996  37.921  21.056   0.270
27649W        W99997  37.010   0.754  13.542
27650W        W99998  12.324  15.784  14.280
27651W        W99999  40.348  11.780  13.974
27652W        W    0  24.555  39.032   2.373
27653W        W    1  18.271  10.656  11.867
27654W        W    2  20.111  26.607  13.941
27655W        W    3  40.807  12.258  13.907
27656W        W    4   4.795   5.407  12.580
27657W        W    5   3.954  10.243  14.786
27658W        W    6  34.514   3.235  14.888
27659W        W    7  29.637  23.646   4.145
27660W        W    8   2.293  37.534  11.942
27661W        W    9  43.957  41.337   3.748
27662W        W   10  38.345  29.956  11.590
27663W        W   11   2.352  36.991  11.592
27664W        W   12  13.234  12.154   3.688
27665W        W   13  42.421   3.325   4.787
27666W        W   14   6.686  14.742  11.858
27667W        W   15  30.996  42.323   2.299
27668W        W   16  38.445   3.279  13.025
27669W        W   17  38.056  22.528   4.237
27670W        W   18   9.272  12.132  12.045
27671W        W   19  39.915  40.898   4.619
27672W        W   20  38.397  19.544  14.287
27673W        W   21  34.870  28.153   0.740
27674W        W   22  36.454  32.112  13.489
27675W        W   23   8.232  18.619   0.827
27676W        W   24   9.326   7.372   4.757
27677W        W   25  15.238  44.868   4.778
27678W        W   26   1.790  42.854   4.275
27679W        W   27  22.654  15.622   2.376
27680W        W   28  27.579  24.101   3.637
27681W        W   29  41.347   0.950   2.400
27682W        W   30  44.339  16.701  14.862
27683W        W   31  41.315  14.111   0.910
27684W        W   32   8.168  18.270  11.540
27685W        W   33  20.197   6.301  10.504
27686W        W   34  19.116  18.573   0.460
27687W        W   35  14.637  29.924   4.274
27688W        W   36  33.382  42.860   0.405
27689W        W   37  40.002  13.842  12.567
27690W        W   38  39.480  23.008   2.199
27691W        W   39  44.940  31.901   1.820
27692W        W   40  44.406  17.653  10.490
27693W        W   41   5.764  17.795   0.421
27694W        W   42  21.675  11.714  12.010
27695W        W   43  11.790   5.265   2.391
27696W        W   44  41.423  24.114  12.499
27697W        W   45  34.005  13.833   2.297
27698W        W   46  10.139  19.578   1.252
27699W        W   47  24.684  12.775   4.730
27700W        W   48   5.320  15.671   0.285
27701W        W   49  41.408  40.955   0.781
27702W        W   50  17.202  28.081   5.119
27703W        W   51  20.124  42.898  12.341
27704W        W   52  39.999  15.220   1.323
27705W        W   53   2.447  15.673  10.122
27706W        W   54  43.964   7.374  11.900
27707W        W   55  26.461   9.668  12.482
27708W        W   56   7.770  18.254   1.874
27709W        W   57  12.324   1.909   4.709
27710W        W   58  21.063  34.071  12.506
27711W        W   59  30.985  36.082   0.403
27712W        W   60  19.750  11.349   1.315
27713W        W   61  28.679  23.681  12.511
27714W        W   62  20.128  13.614  14.976
27715W        W   63   7.337   1.925   1.390
27716W        W   64  40.418  37.371   1.357
27717W        W   65  21.037  34.488  11.445
27718W        W   66   2.441  41.962   0.348
27719W        W   67  41.871  17.272   4.709
27720W        W   68  18.278  30.468  14.997
27721W        W   69  41.963  13.783  12.391
27722W        W   70  36.517  33.482   3.751
27723W        W   71  33.897  12.148  11.083
27724W        W   72  35.090  41.377  12.001
27725W        W   73  32.002  44.483  10.624
27726W        W   74   8.801  19.212  11.867
27727W        W   75  42.377  41.294   0.736
27728W        W   76  30.002   0.763   4.232
27729W        W   77  35.107  42.366   3.368
27730W        W   78  14.201   7.325   3.160
27731W        W   79  29.173  30.571   0.831
27732W        W   80  13.668  26.592  11.572
27733W        W   81  43.863  33.038   2.315
27734W        W   82  17.721  21.736  14.010
27735W        W   83   6.298  31.611   0.785
27736W        W   84   0.752   4.441  11.033
27737W        W   85   0.946  29.530   4.142
27738W        W   86  22.022   8.793   5.628
27739W        W   87   8.848  22.580   1.837
27740W        W   88  11.354   7.739   9.950
27741W        W   89  41.436  36.002  12.431
27742W        W   90  33.011  21.074  10.103
27743W        W   91  11.288  19.686  10.971
27744W        W   92  42.972  20.588  10.985
27745W        W   93  30.534  37.509  12.908
27746W        W   94  15.643  29.576  11.976
27747W        W   95   0.926  39.485   1.755
27748W        W   96  14.757  36.087   4.164
27749W        W   97  18.564  45.000  11.969
27750W        W   98   1.926  24.067  10.459
27751W        W   99  30.541  36.911  14.389
27752W        W  100  32.904  13.213  11.888
27753W        W  101  34.436  25.040   0.293
27754W        W  102  38.827   0.394  12.404
27755W        W  103  36.465   9.714   3.370
27756W        W  104  38.493  10.681   3.846
27757W        W  105   8.386  36.077   1.371
27758W        W  106   8.312  26.015   0.300
27759W        W  107  29.176  26.649   3.264
27760W        W  108  18.218  26.029   4.280
27761W        W  109  21.071  14.317   4.306
27762W        W  110  35.575  17.181   3.274
27763W        W  111   8.309  15.752   4.747
27764W        W  112  17.556  15.089  14.418
27765W        W  113  26.133  41.999   1.324
27766W        W  114  18.243  27.079  12.073
27767W        W  115  31.903  19.263   1.793
27768W        W  116  37.034  30.970  11.402
27769W        W  117  17.646   5.330   0.472
27770W        W  118  30.587   0.259  12.842
27771W        W  119  23.654   5.348   2.243
27772W        W  120   7.316  15.234   0.952
27773W        W  121  42.453   6.211   2.827
27774W        W  122  37.854  40.494   3.281
27775W        W  123  36.980  41.975   1.873
27776W        W  124  18.199  11.741   0.386
27777W        W  125  30.450  11.774  12.488
27778W        W  126   0.761  39.496   3.632
27779W        W  127   9.215  22.675  10.007
27780W        W  128  31.104  20.157   4.787
27781W        W  129   4.782  14.204   4.237
27782W        W  130  34.532  34.082   0.249
27783W        W  131   3.817  10.236  12.942
27784W        W  132  27.581   3.891   2.388
27785W        W  133  33.049  36.047  12.881
27786W        W  134  29.125  42.413  12.089
27787W        W  135  28.032  33.584   1.448
27788W        W  136  31.621  38.823  14.868
27789W        W  137   3.438  44.817   2.353
27790W        W  138  10.835   1.388  14.006
27791W        W  139  21.732  17.677   3.339
27792W        W  140  15.093   0.267  14.312
27793W        W  141  44.360  30.002   5.269
27794W        W  142  12.330  37.070   2.377
27795W        W  143  15.165  12.853  11.600
27796W        W  144   4.939   3.309   1.388
27797W        W  145  12.628  40.905   0.896
27798W        W  146  24.643  37.378  11.971
27799W        W  147  21.250  30.426   0.324
27800W        W  148  23.711  12.811  14.377
27801W        W  149  39.440   0.379  13.323
27802W        W  150  30.043  26.154  13.966
27803W        W  151  25.038  13.612  12.505
27804W        W  152  20.584   9.326   1.386
27805W        W  153  41.004  35.560  10.605
27806W        W  154  31.027  44.960   2.710
27807W        W  155  18.095  42.900  13.399
27808W        W  156   8.400  40.903  13.984
27809W        W  157  20.114   2.246  10.943
27810W        W  158   4.768  10.660   0.310
27811W        W  159   2.950  22.510  10.978
27812W        W  160  14.806  29.919  10.983
27813W        W  161  35.929  22.054  13.357
27814W        W  162  21.071  26.975   0.465
27815W        W  163  25.541  16.100   2.203
27816W        W  164  14.775  14.726  12.885
27817W        W  165  27.124   9.746  12.838
27818W        W  166  41.874  19.610   3.764
27819W        W  167  35.487  23.723  14.323
27820W        W  168   8.205   1.961   3.750
27821W        W  169  22.704  44.363  13.871
27822W        W  170   9.857  14.203   1.237
27823W        W  171  35.029  16.611   0.325
27824W        W  172   8.339  16.287   3.790
27825W        W  173  14.787  18.281   3.380
27826W        W  174  19.748   7.677   3.852
27827W        W  175  13.109  24.504  14.436
27828W        W  176  36.383  42.447   4.725
27829W        W  177  36.849  33.062   0.249
27830W        W  178   6.837  11.701   1.335
27831W        W  179  30.000  23.541  14.400
27832W        W  180  18.699  33.611   5.264
27833W        W  181  25.130  26.098  11.040
27834W        W  182  43.514   1.849   4.801
27835W        W  183  15.616   0.952  12.061
27836W        W  184   2.932  38.365   4.213
27837W        W  185   4.745   9.880   4.199
27838W        W  186  23.599  44.295  11.532
27839W        W  187  34.469  40.312   4.700
27840W        W  188   6.382  44.985   4.780
27841W        W  189   4.798  36.960  12.079
27842W        W  190  29.161  31.917  13.504
27843W        W  191  15.769  41.327   2.319
27844W        W  192  26.558  24.644   1.851
27845W        W  193  28.159  41.948  11.545
27846W        W  194  15.725  24.035   1.906
27847W        W  195  10.771  28.964   0.764
27848W        W  196  19.690  27.465  11.585
27849W        W  197  28.107  39.495   0.397
27850W        W  198   4.212  35.028   3.222
27851W        W  199  13.660   3.828   2.211
27852W        W  200  43.943   5.419   0.957
27853W        W  201   5.923  40.001   3.253
27854W        W  202  44.303  19.728   1.224
27855W        W  203  40.808   9.711  12.047
27856W        W  204  31.521  44.280  12.943
27857W        W  205  20.690   3.458  13.312
27858W        W  206  34.069  14.619  12.563
27859W        W  207  36.461  37.336  13.337
27860W        W  208  20.533  17.695  11.065
27861W        W  209   1.260  28.945   4.743
27862W        W  210  18.705  41.305   0.353
27863W        W  211  11.690   1.780   5.315
27864W        W  212   7.360  24.140  12.535
27865W        W  213  37.948  22.202   0.344
27866W        W  214  20.543  23.685  14.966
27867W        W  215  24.570  14.619   3.263
27868W        W  216   1.952  33.973   2.274
27869W        W  217  34.067   2.904   1.223
27870W        W  218  44.458  42.005   1.450
27871W        W  219  43.370  20.158   1.384
27872W        W  220   6.422  26.579   1.884
27873W        W  221   9.882  28.654   3.284
27874W        W  222  10.373  14.753  10.531
27875W        W  223  17.646  38.458   2.763
27876W        W  224  35.472  34.086   0.416
27877W        W  225  17.727  33.468   1.765
27878W        W  226  19.121  20.639   1.715
27879W        W  227  30.102   8.882   0.273
27880W        W  228  44.801   0.757   0.935
27881W        W  229  36.085  32.940   4.622
27882W        W  230  11.839  18.288  13.867
27883W        W  231  39.548   8.362  13.382
27884W        W  232  13.657   9.850   1.302
27885W        W  233  35.550   3.459   1.447
27886W        W  234  11.370  14.132   5.194
27887W        W  235  44.361   8.768   1.351
27888W        W  236  28.125  16.181   2.229
27889W        W  237  38.970  16.134  13.437
27890W        W  238   9.150   7.255  14.392
27891W        W  239  19.649  36.372  10.627
27892W        W  240  20.212  29.530   3.777
27893W        W  241  26.582  39.466  14.887
27894W        W  242  20.613  36.048  14.396
27895W        W  243  28.653   5.698   2.370
27896W        W  244  15.245  19.642  12.866
27897W        W  245  34.052  31.614   0.779
27898W        W  246  19.672  25.057   0.922
27899W        W  247  44.477  13.799   4.122
27900W        W  248  35.007  33.534  10.445
27901W        W  249  31.931  31.916   3.349
27902W        W  250  17.156  11.155  12.912
27903W        W  251   3.289  40.013   3.632
27904W        W  252  31.558   2.810   1.290
27905W        W  253  44.849   2.861   0.465
27906W        W  254  18.086  40.977   4.193
27907W        W  255  33.977  36.380  13.325
27908W        W  256  14.267  10.871  14.404
27909W        W  257  34.941  26.631   4.199
27910W        W  258  17.711  31.952   5.728
27911W        W  259  27.112  23.159  14.406
27912W        W  260  35.921   9.231   5.166
27913W        W  261  37.443   0.362  12.346
27914W        W  262  25.101  25.669  10.934
27915W        W  263  34.894   1.975  13.333
27916W        W  264  16.713  42.330   3.307
27917W        W  265   3.276  37.402   2.395
27918W        W  266  15.656  10.197  11.385
27919W        W  267  26.488  32.480   4.721
27920W        W  268  12.692  10.343  10.641
27921W        W  269   6.380  17.271  14.326
27922W        W  270  33.122  13.687   2.864
27923W        W  271  32.993   5.873  14.916
27924W        W  272  39.367   4.919  10.520
27925W        W  273  16.150   9.789  11.597
27926W        W  274  42.490  29.604  11.570
27927W        W  275  27.027   1.852   4.650
27928W        W  276   7.899   8.669  14.313
27929W        W  277  21.029   9.692  14.832
27930W        W  278  24.086  11.807  14.869
27931W        W  279  32.475   6.230  11.568
27932W        W  280  28.124  19.689  11.952
27933W        W  281  28.555  18.580   1.870
27934W        W  282  19.758  24.634  12.067
27935W        W  283  42.960   6.741  10.887
27936W        W  284  19.185   6.252   1.846
27937W        W  285  16.302  27.662  10.460
27938W        W  286  22.747  31.410   4.326
27939W        W  287  22.213  20.183   0.789
27940W        W  288  36.033  16.258  14.405
27941W        W  289  15.697  19.185   2.860
27942W        W  290  28.029  44.983  10.611
27943W        W  291   1.431  27.497  13.865
27944W        W  292  23.204  33.086  10.437
27945W        W  293  37.930  15.745   4.258
27946W        W  294  14.199  40.439   3.229
27947W        W  295  44.429  37.951  14.448
27948W        W  296  21.708  24.635  11.891
27949W        W  297  37.009  24.483   3.378
27950W        W  298  30.980  26.605   3.164
27951W        W  299  43.985  20.073  13.344
27952W        W  300   3.327   7.174  14.984
27953W        W  301  22.557   5.415  11.464
27954W        W  302   2.386  36.892   4.719
27955W        W  303  38.933  26.072  12.575
27956W        W  304  25.476   1.825   3.717
27957W        W  305  41.791  11.129   4.353
27958W        W  306   1.295  44.946   4.712
27959W        W  307  18.061  37.061   3.219
27960W        W  308  28.575  32.628  12.378
27961W        W  309  42.485  24.017   2.839
27962W        W  310  13.315  43.872  14.496
27963W        W  311   0.341  26.685   4.141
27964W        W  312   7.844  17.136  11.975
27965W        W  313  39.039   4.781   1.791
27966W        W  314  18.133  30.006  13.377
27967W        W  315  43.915  17.601   1.441
27968W        W  316  38.360  35.896   2.881
27969W        W  317  25.508   8.288   1.749
27970W        W  318  26.988   5.850  10.541
27971W        W  319  18.604  18.250   2.803
27972W        W  320  27.501   4.237   0.251
27973W        W  321  41.311  23.693   4.795
27974W        W  322  20.605  12.120   0.264
27975W        W  323  16.608  37.837   0.777
27976W        W  324  32.599  30.515  11.455
27977W        W  325   7.311  26.140   1.362
27978W        W  326   3.913  42.297  11.030
27979W        W  327   7.393  24.653   1.394
27980W        W  328  41.426  13.132   2.877
27981W        W  329  20.658  39.542   1.897
27982W        W  330   3.925  20.602  12.432
27983W        W  331  19.655  37.522   2.694
27984W        W  332  21.182   7.188  13.037
27985W        W  333  32.918   4.365  12.534
27986W        W  334  35.496  35.073  14.298
27987W        W  335   5.710  21.570   0.305
27988W        W  336   6.832  16.813   1.818
27989W        W  337  15.670  42.978   0.388
27990W        W  338  37.045  39.432  11.924
27991W        W  339  21.512  22.559  13.371
27992W        W  340  23.163   0.906   0.804
27993W        W  341   2.312  17.744  11.442
27994W        W  342  24.503  22.109  11.987
27995W        W  343  13.664  15.299   3.671
27996W        W  344  37.889  42.370   1.759
27997W        W  345  25.009  32.085  11.379
27998W        W  346   1.378  34.919  14.407
27999W        W  347  33.118  35.088   2.767
28000W        W  348  19.616  22.212  14.415
28001W        W  349   8.786  25.706   0.948
28002W        W  350  25.621  19.780  10.896
28003W        W  351   7.391  33.099  11.946
28004W        W  352   3.854  25.640   2.765
28005W        W  353   1.446  28.503   3.366
28006W        W  354  23.070  28.641  14.861
28007W        W  355  40.461  30.037   4.162
28008W        W  356  36.406  15.746   2.748
28009W        W  357   5.904  12.796   4.223
28010W        W  358  16.084  22.560   3.749
28011W        W  359  21.093  26.590   9.996
28012W        W  360  44.320  33.054  11.591
28013W        W  361  44.287  37.064   3.171
28014W        W  362  26.506  16.740   2.864
28015W        W  363  32.998  12.835   3.770
28016W        W  364  22.251  32.109  12.074
28017W        W  365  37.347   7.696   1.374
28018W        W  366  37.856  34.488  11.071
28019W        W  367   4.943   4.928   4.828
28020W        W  368   2.920  22.742  14.368
28021W        W  369  16.710  29.453  13.547
28022W        W  370  12.200  41.835   0.886
28023W        W  371  22.655  32.506   3.755
28024W        W  372   6.831  43.799   4.741
28025W        W  373  33.949  26.586  13.947
28026W        W  374  10.756   4.344   2.787
28027W        W  375  19.754  41.361   0.779
28028W        W  376  16.220  24.003   1.835
28029W        W  377   8.262  28.091   4.620
28030W        W  378  21.099  34.015   1.289
28031W        W  379  26.615  22.053  10.944
28032W        W  380  13.207  21.231   3.720
28033W        W  381  21.189  23.662   0.960
28034W        W  382  37.968   9.317  13.521
28035W        W  383  18.242  35.004   1.842
28036W        W  384  43.347  12.325   3.202
28037W        W  385  39.436  31.440  13.514
28038W        W  386  29.945   4.295  13.886
28039W        W  387  41.963  44.395   1.840
28040W        W  388  35.900   9.712   2.307
28041W        W  389  31.470   9.153   4.155
28042W        W  390  23.120  10.853  12.050
28043W        W  391  16.287  25.679   2.725
28044W        W  392  14.297  17.144   0.784
28045W        W  393   1.910  20.744   1.736
28046W        W  394  11.230  35.919   3.783
28047W        W  395  34.021  41.318   2.762
28048W        W  396  35.375  18.179   1.422
28049W        W  397  27.108   2.926   4.164
28050W        W  398  22.650  41.435   4.204
28051W        W  399   0.259   6.396  12.884
28052W        W  400   6.763  10.677  11.880
28053W        W  401  41.341  39.553  10.544
28054W        W  402  19.699  41.511   2.334
28055W        W  403  43.873   5.343  14.986
28056W        W  404  44.826  40.019  14.365
28057W        W  405  29.964  11.280   4.122
28058W        W  406   4.723   2.941   2.221
28059W        W  407   3.287  32.410   4.203
28060W        W  408  44.799   1.294   4.163
28061W        W  409  40.499  41.384  14.961
28062W        W  410  32.138  14.746  11.052
28063W        W  411   2.250  28.004   3.835
28064W        W  412   3.360   1.783   1.839
28065W        W  413  11.746  22.562  13.913
28066W        W  414  41.907  35.076   2.799
28067W        W  415  23.690  14.828   0.747
28068W        W  416  24.045  35.463   1.804
28069W        W  417  39.335  21.170  10.534
28070W        W  418  18.111  21.615   1.391
28071W        W  419  22.147   0.270  11.413
28072W        W  420   3.825  18.716   0.351
28073W        W  421  15.604  19.144   0.910
28074W        W  422  20.255  31.902  10.496
28075W        W  423   3.783  44.356   2.873
28076W        W  424  34.101  38.980   0.403
28077W        W  425  12.311  41.989   3.690
28078W        W  426  18.053  11.163  12.087
28079W        W  427  19.078  41.853  11.119
28080W        W  428   8.284   5.787  11.426
28081W        W  429   3.711  32.970   0.759
28082W        W  430  33.118  18.619  11.883
28083W        W  431  19.567  36.841   4.306
28084W        W  432  16.251  30.633   0.811
28085W        W  433  32.923  34.476   9.475
28086W        W  434   7.400  23.007   2.745
28087W        W  435  17.580  11.714  12.918
28088W        W  436  10.876  38.867   1.781
28089W        W  437   5.379   6.338  12.568
28090W        W  438  10.726  43.895  14.425
28091W        W  439  37.865  14.630  14.992
28092W        W  440  43.890   7.759  13.364
28093W        W  441  37.481  21.712   3.279
28094W        W  442  36.517  24.988  10.900
28095W        W  443  10.795  41.898   1.885
28096W        W  444  20.052  41.827  12.064
28097W        W  445  20.709   1.872  12.355
28098W        W  446   9.188  27.656   3.374
28099W        W  447   6.219  23.660  13.969
28100W        W  448   7.881  25.578   0.467
28101W        W  449  16.782  20.604  12.836
28102W        W  450  22.217   8.289   0.361
28103W        W  451  25.153  26.138  14.395
28104W        W  452   5.275  16.669  13.989
28105W        W  453  25.122  36.411   2.697
28106W        W  454  37.577  44.819   4.740
28107W        W  455   3.281  18.626  10.484
28108W        W  456   3.424  19.586   0.363
28109W        W  457  29.056   4.407   1.286
28110W        W  458  20.068  21.128  12.500
28111W        W  459  42.001  14.132  12.017
28112W        W  460  42.830  24.990  13.518
28113W        W  461  42.386  32.525   3.870
28114W        W  462   2.312  16.576   4.145
28115W        W  463  35.091   3.310   2.196
28116W        W  464   4.707  39.394   0.817
28117W        W  465  15.112   1.408   1.841
28118W        W  466   9.271  17.701  13.881
28119W        W  467   9.298  23.168  14.482
28120W        W  468  12.794  14.147  11.962
28121W        W  469  16.614  16.736   4.826
28122W        W  470   6.823  24.714  11.457
28123W        W  471  23.242  35.088  14.822
28124W        W  472  31.044  25.015  12.961
28125W        W  473   4.244  36.082   2.287
28126W        W  474  15.634  38.544   1.263
28127W        W  475  32.501  41.494   4.163
28128W        W  476  16.810  33.878  11.415
28129W        W  477  22.560  18.750  14.967
28130W        W  478  26.542  36.393  12.994
28131W        W  479  25.200   3.774   0.822
28132W        W  480  41.371  31.109   0.868
28133W        W  481  35.075  28.678   0.419
28134W        W  482  26.585  43.993   0.292
28135W        W  483  34.458  22.539   1.894
28136W        W  484  30.966   3.440   3.838
28137W        W  485  10.773  28.557  14.900
28138W        W  486  19.551  20.744   2.693
28139W        W  487  37.836  16.645   2.843
28140W        W  488  33.978  18.693   3.350
28141W        W  489  44.438  38.033  10.593
28142W        W  490  20.731  30.925   5.687
28143W        W  491   5.835  13.789  11.077
28144W        W  492  31.116  18.135   2.754
28145W        W  493  16.774  40.398   4.207
28146W        W  494  38.882  44.297  13.848
28147W        W  495   3.733  32.084  13.447
28148W        W  496   9.153  12.119  14.908
28149W        W  497  36.552  36.477  14.415
28150W        W  498  26.632  11.169   3.353
28151W        W  499  41.448  13.281   1.369
28152W        W  500  43.341  40.440  12.502
28153W        W  501  41.461  44.810   1.435
28154W        W  502  32.923  41.959  11.375
28155W        W  503  32.454  38.049  12.028
28156W        W  504  17.778  41.986   1.315
28157W        W  505  43.962  22.134  12.355
28158W        W  506  17.108  13.771   4.668
28159W        W  507  42.027  21.558  12.447
28160W        W  508   7.358  23.051   2.310
28161W        W  509  40.871  33.972   1.389
28162W        W  510  28.938   6.339   4.268
28163W        W  511  32.476   0.438  11.521
28164W        W  512   9.374  30.443   2.749
28165W        W  513  15.798  21.587  10.949
28166W        W  514  11.828  36.585   4.284
28167W        W  515  18.246  25.584  14.387
28168W        W  516   3.729  15.682  11.087
28169W        W  517  38.528   7.313   5.258
28170W        W  518  36.381  40.923   4.261
28171W        W  519  19.739  29.129  11.880
28172W        W  520  12.756  27.446   4.797
28173W        W  521  17.184  31.422   2.760
28174W        W  522  26.662  14.733  14.423
28175W        W  523  17.735  32.584  13.937
28176W        W  524  14.171   4.762   0.433
28177W        W  525   4.422   9.301   4.738
28178W        W  526   2.864   0.959   4.125
28179W        W  527  25.504  29.027   0.963
28180W        W  528   3.848  36.066  11.890
28181W        W  529   3.286  34.418   1.271
28182W        W  530  20.600   8.802   1.903
28183W        W  531  31.000  33.106   4.208
28184W        W  532  43.767  41.828  11.891
28185W        W  533  18.127  11.143  11.396
28186W        W  534  30.648  23.053   3.334
28187W        W  535  30.919  22.537   5.236
28188W        W  536  42.324  28.182  14.846
28189W        W  537  38.376  28.528   3.644
28190W        W  538  32.023  15.170  14.298
28191W        W  539  35.557  22.079   0.808
28192W        W  540  42.377  17.196  14.311
28193W        W  541  44.451  41.434  11.980
28194W        W  542   1.794   8.367  10.949
28195W        W  543  21.102  11.229  12.950
28196W        W  544  16.620  29.122   0.374
28197W        W  545  16.300  29.432  10.940
28198W        W  546  38.910  23.199   2.680
28199W        W  547  44.855  12.785  12.904
28200W        W  548   4.825  28.608  12.451
28201W        W  549  39.889  38.361  14.935
28202W        W  550  35.917  28.151  13.998
28203W        W  551  13.168  13.648  13.927
28204W        W  552  30.917  21.738  13.542
28205W        W  553  29.035  40.938  12.562
28206W        W  554  44.332  29.633  12.839
28207W        W  555   7.741  30.154   4.320
28208W        W  556   4.367  34.441  14.480
28209W        W  557  36.365  42.896   4.708
28210W        W  558   0.384  30.045   3.631
28211W        W  559  36.978  22.243  10.553
28212W        W  560  25.125  14.256  14.464
28213W        W  561  12.239  26.146   1.736
28214W        W  562  25.087  35.868  11.866
28215W        W  563  38.825  39.318   0.957
28216W        W  564   1.361  32.886   3.163
28217W        W  565   1.473  40.940  11.937
28218W        W  566   7.277  25.048  13.002
28219W        W  567  23.719   2.806  10.513
28220W        W  568  17.252  38.328  13.801
28221W        W  569  33.084  25.218  12.966
28222W        W  570  21.035  31.146   5.220
28223W        W  571  23.055  37.538  12.397
28224W        W  572  10.218  20.133   3.716
28225W        W  573  20.556  29.594  13.497
28226W        W  574  23.692  17.085  13.914
28227W        W  575  23.622   7.707   0.736
28228W        W  576  15.128  28.660   0.342
28229W        W  577  22.733  32.916  13.016
28230W        W  578  17.629  33.441   0.763
28231W        W  579  33.035  32.500   0.375
28232W        W  580  26.977  40.962  11.572
28233W        W  581  38.472  37.967  11.107
28234W        W  582  15.805  13.768  14.944
28235W        W  583  38.854  27.645   2.692
28236W        W  584  29.067  36.025   0.796
28237W        W  585  32.443  11.684   3.780
28238W        W  586  15.126  30.649  11.421
28239W        W  587  29.655  21.686  12.370
28240W        W  588  33.616  39.328   0.276
28241W        W  589  17.108  21.198  14.505
28242W        W  590   6.336  29.973  12.399
28243W        W  591  14.253  13.197   5.206
28244W        W  592   6.787  43.787   2.800
28245W        W  593  29.168  38.029  11.505
28246W        W  594  12.841   4.246   2.687
28247W        W  595   1.938   0.315  12.531
28248W        W  596  22.061  42.498  13.050
28249W        W  597  33.379  21.597   0.322
28250W        W  598  12.849  39.505   0.414
28251W        W  599  33.591  12.210   0.250
28252W        W  600   2.892   0.320   4.771
28253W        W  601   7.891  13.268   4.170
28254W        W  602  42.788   0.412  10.959
28255W        W  603  16.239   3.293  10.633
28256W        W  604  39.946   7.186  12.828
28257W        W  605   5.800  35.389   3.261
28258W        W  606  11.668  25.627  11.481
28259W        W  607   6.805  38.967   4.219
28260W        W  608  30.555  43.831  12.941
28261W        W  609   1.922  20.667  10.923
28262W        W  610  17.592   5.929   1.896
28263W        W  611   5.402   9.657   1.379
28264W        W  612  26.510  32.443   1.339
28265W        W  613  18.082  20.109   4.309
28266W        W  614  41.966  33.985   1.870
28267W        W  615  38.000  35.895  11.528
28268W        W  616  12.790  37.034  10.995
28269W        W  617   2.452  41.015  14.290
28270W        W  618  23.206  11.795  13.954
28271W        W  619  18.132  39.979  12.369
28272W        W  620  34.402  33.452   1.706
28273W        W  621  22.707  42.300   4.226
28274W        W  622  38.035  43.841  11.010
28275W        W  623  41.912  37.355  13.845
28276W        W  624  43.280  35.549  14.973
28277W        W  625  15.179  32.129   2.303
28278W        W  626  33.454  18.265  11.544
28279W        W  627  20.096  39.546   1.331
28280W        W  628  17.687   9.157   1.423
28281W        W  629  29.630  44.479   4.679
28282W        W  630  30.148  28.566   3.184
28283W        W  631  44.930  35.104   0.383
28284W        W  632   9.254  24.157   4.640
28285W        W  633  28.174  16.275  14.844
28286W        W  634  42.495  11.788  10.987
28287W        W  635  25.563   7.362   0.390
28288W        W  636  37.542   1.474  12.387
28289W        W  637  30.426  27.942  10.623
28290W        W  638  18.083  23.500   0.851
28291W        W  639   9.243   6.420   3.259
28292W        W  640  24.567  26.149   0.462
28293W        W  641  16.212  25.521  10.923
28294W        W  642   6.687  44.496   1.302
28295W        W  643   5.824  20.175  14.772
28296W        W  644  32.607   5.710  11.481
28297W        W  645  37.341   5.435  12.566
28298W        W  646  22.545  12.681   0.441
28299W        W  647   2.262  10.725   1.216
28300W        W  648  30.620  44.992   1.314
28301W        W  649  35.102   2.293   3.694
28302W        W  650  18.562  26.655   1.304
28303W        W  651  29.498  37.468   4.614
28304W        W  652  14.243  25.000   0.331
28305W        W  653  35.907  37.913  13.392
28306W        W  654  36.905  39.475   0.810
28307W        W  655  20.149   8.178   0.965
28308W        W  656  29.562  22.193   1.859
28309W        W  657  16.796  20.604   3.232
28310W        W  658  42.402   9.864  12.459
28311W        W  659  13.176  44.325   4.184
28312W        W  660  34.075  21.651   0.356
28313W        W  661  38.536  34.447  14.874
28314W        W  662   8.373  24.129  11.446
28315W        W  663   9.368   3.869   4.705
28316W        W  664  13.665   3.740  11.019
28317W        W  665  42.824  38.830  12.459
28318W        W  666  42.842  27.129  10.907
28319W        W  667  14.628  37.445   1.703
28320W        W  668  18.553  29.532   5.633
28321W        W  669  30.068   5.736  13.353
28322W        W  670  39.031   3.737  13.064
28323W        W  671  21.192  18.091   1.706
28324W        W  672  36.931  44.933  12.833
28325W        W  673   3.353  27.471   0.418
28326W        W  674  11.854  19.700  11.408
28327W        W  675  17.782  29.932  14.347
28328W        W  676  31.499  18.100  13.967
28329W        W  677  33.919  12.257  13.338
28330W        W  678  26.616  18.128   2.249
28331W        W  679  27.967  39.391   2.292
28332W        W  680   5.918  10.690  12.899
28333W        W  681  31.066   4.733   3.856
28334W        W  682  31.419   5.806  11.555
28335W        W  683  14.280  13.139  12.094
28336W        W  684   5.774  29.460   4.151
28337W        W  685  17.645  38.357   4.700
28338W        W  686   6.242  23.498   0.284
28339W        W  687  31.106  38.567   0.962
28340W        W  688   8.374  19.634   2.383
28341W        W  689  32.889  35.495   1.326
28342W        W  690  21.197  44.407   4.777
28343W        W  691  43.000  38.546   2.903
28344W        W  692  18.591  13.120  13.419
28345W        W  693  11.142  26.133   3.308
28346W        W  694  35.085  27.622   4.119
28347W        W  695   8.191  37.336  14.322
28348W        W  696  40.460  34.926   4.257
28349W        W  697  18.723  13.122   1.213
28350W        W  698  21.233  41.848  12.027
28351W        W  699  34.974  37.895  10.606
28352W        W  700   5.416  17.637   3.270
28353W        W  701  42.919  23.049   3.376
28354W        W  702  34.961  38.508   4.602
28355W        W  703  17.593   1.383  12.061
28356W        W  704  22.081  28.031   0.942
28357W        W  705  19.071  41.438   0.887
28358W        W  706  27.621   7.359  10.418
28359W        W  707  41.331   5.866   4.274
28360W        W  708  36.450  38.896  12.846
28361W        W  709  17.158  34.442   2.217
28362W        W  710  11.173  16.139  10.945
28363W        W  711   2.359  21.588   3.726
28364W        W  712  43.832  16.312  11.002
28365W        W  713  17.128  37.466   0.900
28366W        W  714   7.717  33.504   0.472
28367W        W  715   0.920  33.430  10.901
28368W        W  716  16.119  39.971  12.489
28369W        W  717   5.254  28.994  12.879
28370W        W  718  42.378  18.613  12.353
28371W        W  719   8.682  10.231   4.195
28372W        W  720   9.264   4.935  13.417
28373W        W  721  13.249   6.912   2.734
28374W        W  722   7.269  44.350   3.826
28375W        W  723  36.972  12.695   1.331
28376W        W  724  41.914  39.976   3.327
28377W        W  725   5.328  15.606  14.408
28378W        W  726  20.705  28.991   0.261
28379W        W  727  12.756  29.969  14.407
28380W        W  728  40.508  29.670  12.356
28381W        W  729   5.896  29.495  14.336
28382W        W  730  15.815  30.129  13.447
28383W        W  731   8.204   0.854   0.769
28384W        W  732  33.962  17.758  10.960
28385W        W  733  27.125  15.150  11.017
28386W        W  734  12.160  38.540  13.417
28387W        W  735   8.273  43.437   2.719
28388W        W  736  11.751  36.855  13.914
28389W        W  737   7.725  10.807  10.431
28390W        W  738  33.589  38.898   0.459
28391W        W  739  42.346  44.272  13.375
28392W        W  740  10.762  37.982  12.869
28393W        W  741  10.847  17.619  11.455
28394W        W  742  42.359  32.078   2.274
28395W        W  743  19.100  16.148   0.443
28396W        W  744  24.107   1.376   1.852
28397W        W  745  28.049   8.367   2.208
28398W        W  746  27.453  42.507   0.313
28399W        W  747  15.272  34.433   1.909
28400W        W  748  38.412  22.627  14.815
28401W        W  749   6.332   9.769   1.743
28402W        W  750  15.798  12.168   2.803
28403W        W  751   2.929  25.141   3.299
28404W        W  752   2.413  33.475   9.963
28405W        W  753  10.173   1.861   1.393
28406W        W  754   4.331  34.424   1.812
28407W        W  755  32.072  30.067  13.446
28408W        W  756  18.731  41.413  11.569
28409W        W  757  34.986  24.490  13.383
28410W        W  758  23.166  29.572   2.760
28411W        W  759  44.849  12.618  11.043
28412W        W  760  42.850  13.150   2.740
28413W        W  761  30.007  33.527  11.572
28414W        W  762  30.548  14.603   1.362
28415W        W  763  19.592  43.990   1.314
28416W        W  764  25.205  32.444  11.581
28417W        W  765  26.167   9.740   2.220
28418W        W  766   9.167  22.549   2.710
28419W        W  767   4.792  10.168  12.364
28420W        W  768  19.106  19.706  12.460
28421W        W  769   0.905   9.725   4.162
28422W        W  770  32.557   9.709  13.866
28423W        W  771   8.877   8.845  12.513
28424W        W  772   0.368  18.123   0.293
28425W        W  773   0.917  15.123  11.573
28426W        W  774   8.736  34.001   4.783
28427W        W  775   6.820  25.604   0.328
28428W        W  776  25.657  18.654  14.942
28429W        W  777   6.393   1.355  10.895
28430W        W  778   3.402  30.539   2.835
28431W        W  779  13.656  30.079   3.305
28432W        W  780   8.230  30.541  10.600
28433W        W  781  25.127  30.074  11.994
28434W        W  782   9.769  11.741  12.995
28435W        W  783   2.379   3.432   0.418
28436W        W  784  19.221  32.446  12.450
28437W        W  785   9.736  34.035   2.280
28438W        W  786   8.726  29.920  12.094
28439W        W  787  13.681  21.082   4.301
28440W        W  788  21.246   3.925  11.580
28441W        W  789  34.469  13.708   4.122
28442W        W  790  21.122  36.941  10.565
28443W        W  791  22.731   4.888  14.978
28444W        W  792  35.371  33.569  11.957
28445W        W  793  19.208   7.279  11.972
28446W        W  794  15.136  11.784   3.746
28447W        W  795  23.223  11.721   2.279
28448W        W  796  32.549   1.390   0.426
28449W        W  797   9.384  10.185  11.032
28450W        W  798  35.021  23.212  14.765
28451W        W  799   2.827  21.618  12.092
28452W        W  800  31.080  44.985  13.376
28453W        W  801  14.631  17.646  12.934
28454W        W  802  41.508  27.581  10.638
28455W        W  803   0.950  13.615   0.894
28456W        W  804  40.396  23.215  13.463
28457W        W  805  23.641  22.072  11.045
28458W        W  806  15.157  12.683  11.941
28459W        W  807  18.657  12.271  11.951
28460W        W  808   2.358  44.367  12.851
28461W        W  809  21.679  28.156   4.786
28462W        W  810  11.681   7.725  10.454
28463W        W  811  40.014  33.409   1.732
28464W        W  812  19.711   1.936   2.873
28465W        W  813  11.735   3.315  11.867
28466W        W  814   5.916   4.827  11.486
28467W        W  815  28.589  32.034  12.450
28468W        W  816  12.251  21.545  10.489
28469W        W  817  16.663  41.527  14.409
28470W        W  818  36.088   7.774  12.016
28471W        W  819   8.726   1.858   4.333
28472W        W  820  16.215  15.730   2.824
28473W        W  821  11.625   2.414   1.864
28474W        W  822  23.574  29.510  12.423
28475W        W  823  17.604  33.961  11.513
28476W        W  824  11.849   0.834   3.347
28477W        W  825  25.619  33.577   0.740
28478W        W  826  24.593  33.394   2.717
28479W        W  827  32.478  36.371   1.255
28480W        W  828   5.761  36.850  10.914
28481W        W  829  18.561   8.254   0.914
28482W        W  830  38.380   9.289  12.888
28483W        W  831   2.875  41.304  11.526
28484W        W  832  20.732  19.763   0.783
28485W        W  833  16.609  36.088  12.566
28486W        W  834  29.110  44.484   0.376
28487W        W  835  42.421   3.371   4.340
28488W        W  836  37.086  40.969  11.568
28489W        W  837   7.279  18.170   0.406
28490W        W  838  19.059  15.226  10.513
28491W        W  839  36.865  25.026   1.269
28492W        W  840   1.732  21.604  13.010
28493W        W  841   5.695  39.376   2.401
28494W        W  842  36.593  11.717   1.847
28495W        W  843  36.431  19.222   3.317
28496W        W  844  22.050  15.105   2.335
28497W        W  845  39.413  28.669   2.856
28498W        W  846   5.874  37.380  14.478
28499W        W  847  10.652  32.555  10.896
28500W        W  848   8.657  15.658  13.373
28501W        W  849  14.724  17.762  14.467
28502W        W  850  44.763   0.398   1.878
28503W        W  851  23.649  28.445  14.812
28504W        W  852  36.969  44.451   4.120
28505W        W  853  27.983   5.858   3.677
28506W        W  854  17.767  17.134  10.473
28507W        W  855  21.249   0.252   2.710
28508W        W  856   5.322   8.872  13.873
28509W        W  857  18.711  31.093  10.543
28510W        W  858   4.737   0.889  13.510
28511W        W  859  43.353   2.778   4.814
28512W        W  860   2.845  14.719   4.692
28513W        W  861  23.986  17.750   1.902
28514W        W  862  12.680  22.109   2.750
28515W        W  863  29.963   5.879  11.581
28516W        W  864  44.465   9.206  12.831
28517W        W  865  28.930  40.345   2.737
28518W        W  866  12.341  27.000  14.956
28519W        W  867  38.382   5.928   0.861
28520W        W  868   5.776   4.285   0.955
28521W        W  869  24.066  28.126  13.428
28522W        W  870  20.056  35.953   3.843
28523W        W  871  35.556  17.788   3.660
28524W        W  872  10.336   5.831   2.845
28525W        W  873  37.913  36.038   0.441
28526W        W  874  16.146  12.646   0.391
28527W        W  875   8.820  27.067   2.762
28528W        W  876  11.372   5.805   0.812
28529W        W  877  27.517  23.598   4.636
28530W        W  878   4.294  44.919   2.353
28531W        W  879   3.424  44.888   1.305
28532W        W  880  22.032   8.356   0.850
28533W        W  881  13.690  11.255   4.734
28534W        W  882   6.830  20.607   0.775
28535W        W  883  24.129   9.237   0.435
28536W        W  884  25.608   9.709   5.296
28537W        W  885  10.226  14.277   0.350
28538W        W  886   8.290  21.051   9.925
28539W        W  887  23.650   1.775  10.416
28540W        W  888   7.682  13.318   2.285
28541W        W  889  20.718  11.707  13.417
28542W        W  890  31.089  34.429   1.422
28543W        W  891  14.788  17.633   0.948
28544W        W  892  10.763  39.456  11.038
28545W        W  893  21.756  35.538  11.538
28546W        W  894  33.415  17.143   2.823
28547W        W  895  21.155   5.876  11.094
28548W        W  896  40.032  31.082  14.367
28549W        W  897  16.691  37.409   1.695
28550W        W  898  29.171  21.644   3.218
28551W        W  899   0.404  36.084  11.957
28552W        W  900  42.497  24.216   3.159
28553W        W  901  27.637  12.207   1.238
28554W        W  902  36.013  39.317  13.038
28555W        W  903  41.410  37.452   3.772
28556W        W  904   0.332  23.594   3.725
28557W        W  905  20.130   5.257  10.636
28558W        W  906  17.165  15.329   1.697
28559W        W  907  24.585  24.123  14.370
28560W        W  908   1.417  16.787  11.477
28561W        W  909  27.516  40.861  10.442
28562W        W  910   9.193  13.179   0.781
28563W        W  911  26.186  40.894   3.188
28564W        W  912  44.467  19.241   9.954
28565W        W  913  39.498  17.285  11.565
28566W        W  914  20.767  31.974  11.992
28567W        W  915  32.132  26.636   1.866
28568W        W  916   8.318  23.671  14.405
28569W        W  917  41.386  34.029   4.207
28570W        W  918  22.109  34.023  11.398
28571W        W  919  44.861  27.540  10.590
28572W        W  920  14.592   8.819   3.275
28573W        W  921  30.655   6.922   2.833
28574W        W  922  13.160  43.010  13.905
28575W        W  923   8.379  39.976   1.695
28576W        W  924  35.526   3.798   2.818
28577W        W  925  33.474  35.535   4.619
28578W        W  926   3.309   8.240  11.103
28579W        W  927  25.702   2.248   3.800
28580W        W  928  23.642  31.524   2.761
28581W        W  929  37.496  39.933   0.274
28582W        W  930  43.860  37.393  11.858
28583W        W  931  32.919   8.735  11.533
28584W        W  932  10.831   1.853   1.272
28585W        W  933  32.139  32.954   3.206
28586W        W  934  19.567  30.636   0.823
28587W        W  935  44.763  15.294  13.027
28588W        W  936  38.904  19.128   4.342
28589W        W  937   9.182  41.423  13.486
28590W        W  938   4.828  33.976   0.281
28591W        W  939  21.095  30.499   0.877
28592W        W  940  26.080  39.398  10.944
28593W        W  941  26.675   1.926  11.438
28594W        W  942   9.862  34.957   2.795
28595W        W  943  16.685  36.590  10.600
28596W        W  944   7.676  37.511  10.160
28597W        W  945  24.090  19.773  14.352
28598W        W  946  40.979  40.419   3.686
28599W        W  947  32.627  16.727  10.913
28600W        W  948  12.753   5.196  13.474
28601W        W  949   8.295   7.769   3.776
28602W        W  950  39.822  40.542  11.372
28603W        W  951   9.687  17.691  11.478
28604W        W  952  36.041  10.366   3.337
28605W        W  953  33.571  15.647   1.778
28606W        W  954  33.550  42.941  13.997
28607W        W  955  16.772   4.431   3.675
28608W        W  956   4.910   1.794   1.735
28609W        W  957  41.004  33.099  10.989
28610W        W  958  10.217  33.890  13.984
28611W        W  959  42.817  16.624  12.562
28612W        W  960   3.311  36.866  14.375
28613W        W  961   0.466   5.283  13.963
28614W        W  962  33.950  18.562   1.405
28615W        W  963  34.552  10.643  13.352
28616W        W  964  38.368   4.720   5.199
28617W        W  965  16.747   1.781   4.240
28618W        W  966  23.985  23.543  12.047
28619W        W  967  15.735  31.986   4.615
28620W        W  968  28.435   5.842   3.216
28621W        W  969  36.021  25.689   2.832
28622W        W  970  23.171  29.563  13.521
28623W        W  971  44.290  29.078  14.827
28624W        W  972  29.514  37.396  11.959
28625W        W  973   1.374  32.142   4.780
28626W        W  974  43.971  26.993   0.771
28627W        W  975  19.268  36.940  11.121
28628W        W  976  14.598  37.071   3.638
28629W        W  977  34.516  25.588   1.439
28630W        W  978  20.121  40.533  14.411
28631W        W  979  30.129  13.657  13.313
28632W        W  980  22.726  22.519   2.265
28633W        W  981  41.317  23.994  12.003
28634W        W  982   9.349   2.942  13.937
28635W        W  983  33.387  15.788   2.291
28636W        W  984  25.033  40.318   4.735
28637W        W  985  28.125   3.435   1.830
28638W        W  986  16.269  13.834  14.330
28639W        W  987  12.208  15.155  14.379
28640W        W  988  19.561  40.417  13.994
28641W        W  989   2.738  40.432  13.933
28642W        W  990   3.409  15.108   0.870
28643W        W  991  11.861   7.729   0.371
28644W        W  992  40.997  22.142  13.448
28645W        W  993  19.649  16.287  12.084
28646W        W  994  27.567  40.321   1.749
28647W        W  995  38.916  36.582   3.810
28648W        W  996  12.785  24.570  10.511
28649W        W  997  12.345   1.326   3.180
28650W        W  998  27.076  38.868   0.902
28651W        W  999  21.084  16.088   1.844
28652W        W 1000   3.872  30.414   3.362
28653W        W 1001   5.313   4.866  11.950
28654W        W 1002  42.031  34.602   0.831
28655W        W 1003  33.006   9.392   4.187
28656W        W 1004  20.622  43.510   0.353
28657W        W 1005  23.557  22.670  11.945
28658W        W 1006  12.186  14.255   2.670
28659W        W 1007  29.443  11.622  13.898
28660W        W 1008  35.088  11.635  14.021
28661W        W 1009  29.554   1.815   4.797
28662W        W 1010  29.556  40.048  13.497
28663W        W 1011  19.573  19.717  10.469
28664W        W 1012  12.853  20.747  14.326
28665W        W 1013  21.051  22.719   2.204
28666W        W 1014  42.497  10.144  13.476
28667W        W 1015  27.672  23.680   0.738
28668W        W 1016  10.281  40.479  14.341
28669W        W 1017  14.158  43.779  11.517
28670W        W 1018   9.361  37.927   1.790
28671W        W 1019  40.912  16.757   4.816
28672W        W 1020   2.827   3.460   2.837
28673W        W 1021  41.430   6.818  12.927
28674W        W 1022  36.355  14.679   4.297
28675W        W 1023  33.884   1.873  12.067
28676W        W 1024  15.777  25.116   5.157
28677W        W 1025  26.661  37.560  11.894
28678W        W 1026  34.928   9.801  10.555
28679W        W 1027  27.537   9.155   3.637
28680W        W 1028  28.957   9.881   0.350
28681W        W 1029  20.683   0.765   4.160
28682W        W 1030   7.288  24.033  12.983
28683W        W 1031  40.909  26.587   2.828
28684W        W 1032   1.867  44.971   3.813
28685W        W 1033  37.910  32.494  10.587
28686W        W 1034  40.982  42.785  11.948
28687W        W 1035  13.780  14.761   4.297
28688W        W 1036  32.425  38.004  12.543
28689W        W 1037   8.709  14.709  12.577
28690W        W 1038  19.713  23.133   3.284
28691W        W 1039  36.064   1.940   1.245
28692W        W 1040  21.531  32.471   4.756
28693W        W 1041  20.645  37.539   1.431
28694W        W 1042  27.597  18.164   2.754
28695W        W 1043  25.488  16.695   4.734
28696W        W 1044   6.368  18.623   3.700
28697W        W 1045   8.676  42.474  12.351
28698W        W 1046   7.758  17.119   5.113
28699W        W 1047   4.301   6.293  12.030
28700W        W 1048   4.438  18.764  12.079
28701W        W 1049  27.521   3.407   2.304
28702W        W 1050  10.687  16.717  14.994
28703W        W 1051  43.428   8.827   0.285
28704W        W 1052  23.637  23.131   1.341
28705W        W 1053  41.345  16.295   1.815
28706W        W 1054   5.915  28.451  13.917
28707W        W 1055   9.394  12.693  10.584
28708W        W 1056  24.099   5.793  14.500
28709W        W 1057  19.097   5.431   4.265
28710W        W 1058   0.865   3.302   2.344
28711W        W 1059  24.700  44.874  11.860
28712W        W 1060  32.035  19.174  12.856
28713W        W 1061  27.595   6.788   0.732
28714W        W 1062  10.731  43.908   3.152
28715W        W 1063  32.477  34.503   2.375
28716W        W 1064  38.467  10.675   4.762
28717W        W 1065  14.267  29.455  14.467
28718W        W 1066   9.322  28.170  14.358
28719W        W 1067  26.702  12.233  11.951
28720W        W 1068   4.718  33.089   4.685
28721W        W 1069   2.446  35.438  13.930
28722W        W 1070  33.508   9.849   2.397
28723W        W 1071  22.509   3.934  14.430
28724W        W 1072  26.045  14.207  11.992
28725W        W 1073  44.362  29.554  10.593
28726W        W 1074  37.949   4.205  11.885
28727W        W 1075   2.389   4.854  10.541
28728W        W 1076   2.820  25.562   3.753
28729W        W 1077  11.727   5.775   3.353
28730W        W 1078  35.095   1.767   1.440
28731W        W 1079  34.047  28.673  10.625
28732W        W 1080  23.534   9.801   1.799
28733W        W 1081  27.180  27.040   1.282
28734W        W 1082  41.442  15.619  11.919
28735W        W 1083  15.709  35.375   3.180
28736W        W 1084  18.174  21.169  11.010
28737W        W 1085  42.406  44.309   1.843
28738W        W 1086  36.371  35.525   0.828
28739W        W 1087  36.015  14.159   0.764
28740W        W 1088  21.020  26.609   4.642
28741W        W 1089  26.581  31.116  13.975
28742W        W 1090  29.433  37.467   5.165
28743W        W 1091   6.831  32.943   5.205
28744W        W 1092   1.419  23.493  13.013
28745W        W 1093   0.278   4.862  12.476
28746W        W 1094   0.941  42.778   0.349
28747W        W 1095  30.616  26.517   0.283
28748W        W 1096  35.502  31.575   4.146
28749W        W 1097  36.030  27.993  13.405
28750W        W 1098  37.932   6.914   1.320
28751W        W 1099  18.203  15.252  11.120
28752W        W 1100   6.831  29.986   4.270
28753W        W 1101  24.004  34.587  13.904
28754W        W 1102  21.655  41.365  12.895
28755W        W 1103  21.670  26.029   2.296
28756W        W 1104  29.927  12.326  12.026
28757W        W 1105  36.537  32.573   1.295
28758W        W 1106  35.990  11.848  14.786
28759W        W 1107  19.717   8.221  13.995
28760W        W 1108  14.799  25.536   1.395
28761W        W 1109   5.412  11.342  13.450
28762W        W 1110  31.515  22.047  14.277
28763W        W 1111  28.563   7.832  11.554
28764W        W 1112  42.792  27.481   2.332
28765W        W 1113  35.450  25.982   3.852
28766W        W 1114  39.044  13.204   2.380
28767W        W 1115  43.417  36.948  11.924
28768W        W 1116  14.268  43.403  11.449
28769W        W 1117   9.767  44.361   0.377
28770W        W 1118  14.806  19.066   1.767
28771W        W 1119  33.390  30.525   0.923
28772W        W 1120   0.474  38.911   4.336
28773W        W 1121  37.518   6.802  13.044
28774W        W 1122  16.694  33.461  10.922
28775W        W 1123  17.263  42.861  12.852
28776W        W 1124  12.783   4.387   5.084
28777W        W 1125  17.556  43.492   4.707
28778W        W 1126  15.157  43.320   0.830
28779W        W 1127   2.433  14.115   4.311
28780W        W 1128  38.325  11.160  14.477
28781W        W 1129  14.295  28.660   0.863
28782W        W 1130   6.212  16.252   4.763
28783W        W 1131  14.300  33.421   1.234
28784W        W 1132  15.092   0.339   0.889
28785W        W 1133  27.498  15.647   3.774
28786W        W 1134  24.498   0.965   2.267
28787W        W 1135   5.368   6.802   4.240
28788W        W 1136  20.047  21.132  13.542
28789W        W 1137  17.783  35.553   2.327
28790W        W 1138   1.817  30.463   5.133
28791W        W 1139  34.503  27.056  13.548
28792W        W 1140  32.617  35.409  11.519
28793W        W 1141  22.049  28.120  11.551
28794W        W 1142  11.200  38.387  12.890
28795W        W 1143  28.954   8.863   0.436
28796W        W 1144  33.920   2.261   2.188
28797W        W 1145  17.661   3.389  12.428
28798W        W 1146   1.848  27.681   2.180
28799W        W 1147   6.425  32.620   3.242
28800W        W 1148   0.835  38.966  10.063
28801W        W 1149  21.172  36.883   2.226
28802W        W 1150   0.770  44.896   3.670
28803W        W 1151  39.459  32.510   2.411
28804W        W 1152  15.690  44.806  10.520
28805W        W 1153  39.474   2.851  11.111
28806W        W 1154  11.175   2.403   3.173
28807W        W 1155  39.388   6.181   1.833
28808W        W 1156  35.420  13.835  14.966
28809W        W 1157  29.666  12.260  11.415
28810W        W 1158  18.123  14.778   4.196
28811W        W 1159  33.563  44.269  14.473
28812W        W 1160  15.779  29.986   3.704
28813W        W 1161  23.615  18.123   2.805
28814W        W 1162  19.203  31.966   0.277
28815W        W 1163   5.854  26.643  11.494
28816W        W 1164  39.816  43.465   4.219
28817W        W 1165  16.124  39.919   4.300
28818W        W 1166  18.106  17.760   0.765
28819W        W 1167  22.660  28.018   0.324
28820W        W 1168   5.865  43.462  13.927
28821W        W 1169  27.665  39.851   4.277
28822W        W 1170  12.625  20.128   1.218
28823W        W 1171   3.327  24.648   1.724
28824W        W 1172   9.303  19.758  12.399
28825W        W 1173   4.875  33.496  11.096
28826W        W 1174  39.370  29.475   3.864
28827W        W 1175  36.009  40.023  14.404
28828W        W 1176   6.270  23.064  11.395
28829W        W 1177  30.635  10.369  13.976
28830W        W 1178  35.430  29.020   1.274
28831W        W 1179  11.338  44.823   0.827
28832W        W 1180  23.697  44.806   1.797
28833W        W 1181  35.996  40.549   2.356
28834W        W 1182   8.186  29.065   0.254
28835W        W 1183   8.275  31.548   4.626
28836W        W 1184  29.170  43.274   2.761
28837W        W 1185  26.553  28.538   3.333
28838W        W 1186  19.761  28.077  12.432
28839W        W 1187  44.997  22.712  12.023
28840W        W 1188  29.516  32.563  10.964
28841W        W 1189   9.817  13.833   0.877
28842W        W 1190  10.214  29.435   2.405
28843W        W 1191  34.020  42.364  13.893
28844W        W 1192  11.814  10.866   2.179
28845W        W 1193  19.145  17.774  10.997
28846W        W 1194  23.168  15.243   2.857
28847W        W 1195   8.860  39.931  13.966
28848W        W 1196  40.923   2.446   1.224
28849W        W 1197  14.238  17.257   2.672
28850W        W 1198   7.307  37.927   4.264
28851W        W 1199  11.245  21.146  13.009
28852W        W 1200  20.036   6.232   2.891
28853W        W 1201  28.615  32.949   3.358
28854W        W 1202   7.177  39.988  14.942
28855W        W 1203  12.246  12.795   2.242
28856W        W 1204  18.592  35.852  10.156
28857W        W 1205  41.499  37.456  14.402
28858W        W 1206  14.589  40.403  12.376
28859W        W 1207  21.109  11.806   1.903
28860W        W 1208  18.545  21.684  12.924
28861W        W 1209  16.115  11.778  10.004
28862W        W 1210   8.240  34.034  14.776
28863W        W 1211  37.350  30.422   2.832
28864W        W 1212  23.658  28.085   1.309
28865W        W 1213  17.786   3.333  11.082
28866W        W 1214  42.908   7.697   0.346
28867W        W 1215  43.348   1.458  12.087
28868W        W 1216  19.680  21.066   3.705
28869W        W 1217  22.112  31.413  14.275
28870W        W 1218  21.212  38.504   2.323
28871W        W 1219  10.241  35.895   2.803
28872W        W 1220   0.328  18.778   1.731
28873W        W 1221  37.888  11.815   3.291
28874W        W 1222  20.632  34.572  12.054
28875W        W 1223   4.712   5.240   3.337
28876W        W 1224   6.182  25.199  10.048
28877W        W 1225   3.247  37.423  14.280
28878W        W 1226  43.789   6.393  13.057
28879W        W 1227   2.855  16.746  14.769
28880W        W 1228   7.790  29.158   1.331
28881W        W 1229  12.789  29.620  12.454
28882W        W 1230  19.634  35.411  13.980
28883W        W 1231  40.919  17.658   3.307
28884W        W 1232  43.882  35.597  13.407
28885W        W 1233  21.636   6.316  12.456
28886W        W 1234  34.435  29.060   3.299
28887W        W 1235  44.821  19.670   1.903
28888W        W 1236  21.548  13.221   0.831
28889W        W 1237  36.430  23.501   2.880
28890W        W 1238   8.294   1.288   4.713
28891W        W 1239   8.263  24.558   4.610
28892W        W 1240  34.889   9.312  11.531
28893W        W 1241  17.790  35.364  12.854
28894W        W 1242  40.464   0.247  14.940
28895W        W 1243  23.691  42.028  12.902
28896W        W 1244  12.755  27.043  11.873
28897W        W 1245  17.758  23.100  12.577
28898W        W 1246  32.040  42.997  12.394
28899W        W 1247  27.142  41.014   4.296
28900W        W 1248  17.713  40.023   1.864
28901W        W 1249   8.306  34.572   1.846
28902W        W 1250  44.861  31.976   2.248
28903W        W 1251  15.220  14.778   0.756
28904W        W 1252  22.117  32.019  12.926
28905W        W 1253  38.045  43.414   1.383
28906W        W 1254   4.911  19.041  12.027
28907W        W 1255  44.332  26.977  13.012
28908W        W 1256  26.464  35.573   4.775
28909W        W 1257  35.947  25.554  11.018
28910W        W 1258  24.026  22.176  11.599
28911W        W 1259  35.903  27.662  14.461
28912W        W 1260  13.690  19.285  13.367
28913W        W 1261  44.495  36.407   0.394
28914W        W 1262  17.284   5.729   1.430
28915W        W 1263  34.585  12.621  13.955
28916W        W 1264  25.586   4.347  13.391
28917W        W 1265  41.413   4.244  13.861
28918W        W 1266  31.598  15.824   0.919
28919W        W 1267  11.304  44.975   4.734
28920W        W 1268  34.542   9.723  11.023
28921W        W 1269   6.897  43.873   0.938
28922W        W 1270  36.570  16.238  10.993
28923W        W 1271   5.829  13.793   3.833
28924W        W 1272  36.473  21.230  12.935
28925W        W 1273  16.597  39.029  14.780
28926W        W 1274  38.914  33.522   4.762
28927W        W 1275  19.066  25.689  12.915
28928W        W 1276  27.689  27.588  11.866
28929W        W 1277  25.636  39.419  10.981
28930W        W 1278  35.567   7.765   1.398
28931W        W 1279  15.289  31.625  12.086
28932W        W 1280  22.022  40.542   4.813
28933W        W 1281  34.997  35.494  14.286
28934W        W 1282   0.794  33.021   0.930
28935W        W 1283  11.164  22.232  11.575
28936W        W 1284  43.310   0.340   4.183
28937W        W 1285  29.544  30.076  14.323
28938W        W 1286  11.217   2.938  14.014
28939W        W 1287  24.169  34.464  11.087
28940W        W 1288  12.176  44.909  14.930
28941W        W 1289  37.497  41.846  13.915
28942W        W 1290  12.762   0.277   4.344
28943W        W 1291  26.479   5.862   2.811
28944W        W 1292  13.138   2.422  10.585
28945W        W 1293  19.230  11.621   0.963
28946W        W 1294  27.466  23.063   3.330
28947W        W 1295  32.435   7.368  13.999
28948W        W 1296  34.501   5.332   3.154
28949W        W 1297  32.488  23.061   3.255
28950W        W 1298  28.075  19.743   3.259
28951W        W 1299   4.342   1.264  10.606
28952W        W 1300  10.173   9.690   4.740
28953W        W 1301  42.988  43.350   0.370
28954W        W 1302  10.323  21.554  13.367
28955W        W 1303  36.422  26.683   4.291
28956W        W 1304  43.483  15.598   1.365
28957W        W 1305   6.827   0.430   3.369
28958W        W 1306  30.958  28.945  14.378
28959W        W 1307  19.740   9.835  13.899
28960W        W 1308  30.118  16.696  14.380
28961W        W 1309  20.605  37.383  12.567
28962W        W 1310  44.302  14.156  14.021
28963W        W 1311  19.554  27.003  14.506
28964W        W 1312  35.441   6.225   2.881
28965W        W 1313  25.610  38.921  13.328
28966W        W 1314  12.670   9.215   4.153
28967W        W 1315  17.737   2.742  11.960
28968W        W 1316  19.094  33.393  14.822
28969W        W 1317  28.955  44.851  11.423
28970W        W 1318  43.497  17.761  10.945
28971W        W 1319  39.843   6.196  11.581
28972W        W 1320  30.596  14.751   1.785
28973W        W 1321   4.807  16.126  14.920
28974W        W 1322  29.659  30.537  14.007
28975W        W 1323  17.173  12.212  10.414
28976W        W 1324  14.309  25.598  11.530
28977W        W 1325   6.743   0.979   2.411
28978W        W 1326  41.371  36.552  14.761
28979W        W 1327  31.560  35.583   3.852
28980W        W 1328  33.912  37.547  13.479
28981W        W 1329  41.811  25.023  14.431
28982W        W 1330  32.565  12.291   4.682
28983W        W 1331  17.214   0.255   4.296
28984W        W 1332  32.406  39.857   5.281
28985W        W 1333   4.256   4.300  14.370
28986W        W 1334   1.377  30.502  11.939
28987W        W 1335  23.642  39.945   0.466
28988W        W 1336  20.698  22.695   3.861
28989W        W 1337   2.743  13.813   4.817
28990W        W 1338  43.871  32.921   1.443
28991W        W 1339   1.330   5.734  13.416
28992W        W 1340  13.637  34.897  14.276
28993W        W 1341   8.886  32.516   4.690
28994W        W 1342  24.695   1.305  12.340
28995W        W 1343   2.227  44.772   2.288
28996W        W 1344  20.698   0.273   3.339
28997W        W 1345  26.123   2.404   0.768
28998W        W 1346  23.582  38.912  13.390
28999W        W 1347  30.136  17.062  13.806
29000W        W 1348  10.644  20.049  14.304
29001W        W 1349  23.083  34.524  14.810
29002W        W 1350  29.039  40.985   1.814
29003W        W 1351  36.522  12.220   4.219
29004W        W 1352  11.265  37.928  14.892
29005W        W 1353  19.587  23.226   2.707
29006W        W 1354  16.284  35.882   0.288
29007W        W 1355  18.615  32.094  14.350
29008W        W 1356  32.446  11.332  14.506
29009W        W 1357  35.482  42.821   4.729
29010W        W 1358  39.030  30.939  12.952
29011W        W 1359   9.173  42.319   3.812
29012W        W 1360  16.077   9.725   2.866
29013W        W 1361   4.775  15.144   2.353
29014W        W 1362  27.959  12.197  13.963
29015W        W 1363  31.591  23.039  13.307
29016W        W 1364  36.353  12.183  10.487
29017W        W 1365  26.018  34.523  13.463
29018W        W 1366  20.656   1.895   3.854
29019W        W 1367  21.569   2.393  12.899
29020W        W 1368  23.110   7.672   3.270
29021W        W 1369  14.297  21.242  13.512
29022W        W 1370  19.152  31.505   2.868
29023W        W 1371  19.199  29.145   1.319
29024W        W 1372  36.996   3.403   4.735
29025W        W 1373  23.652  34.476  14.886
29026W        W 1374   8.213  37.456  12.549
29027W        W 1375  39.002  35.076  14.388
29028W        W 1376  15.307  32.945   3.197
29029W        W 1377  12.665  30.107   2.393
29030W        W 1378  18.571  37.490   1.341
29031W        W 1379  18.626   8.165  10.967
29032W        W 1380  35.523  24.163  13.954
29033W        W 1381  21.047  34.446   0.427
29034W        W 1382  20.135  23.534  11.476
29035W        W 1383  22.252  44.931   4.217
29036W        W 1384  22.673   8.838   1.927
29037W        W 1385  36.887  21.726  13.423
29038W        W 1386  18.052  28.446  13.010
29039W        W 1387  14.133  19.694   1.372
29040W        W 1388  16.201  33.590   2.341
29041W        W 1389  27.176  26.970  12.923
29042W        W 1390  24.152  28.597   0.775
29043W        W 1391   5.721   4.875  12.065
29044W        W 1392  36.520  25.546   2.236
29045W        W 1393  11.645  29.509   4.625
29046W        W 1394  13.242  19.733  11.109
29047W        W 1395  34.574  39.813   3.267
29048W        W 1396  27.603  13.786   4.164
29049W        W 1397  24.067  10.654  14.359
29050W        W 1398  37.347  20.740  14.786
29051W        W 1399   2.828  44.295   4.322
29052W        W 1400  34.454   6.912  14.009
29053W        W 1401  14.100  21.207  13.921
29054W        W 1402   9.229  38.418  10.561
29055W        W 1403   6.309  29.059  14.308
29056W        W 1404  37.882   7.305   0.755
29057W        W 1405  14.298  18.269  11.975
29058W        W 1406  39.402  13.694   4.176
29059W        W 1407  14.147  20.192   3.342
29060W        W 1408  31.451  35.077   2.262
29061W        W 1409  27.497  13.151   3.319
29062W        W 1410  26.673   2.425   0.768
29063W        W 1411   6.334  13.137   3.733
29064W        W 1412  26.023  19.637   1.806
29065W        W 1413  28.947  35.071  11.974
29066W        W 1414  14.310  38.335  12.075
29067W        W 1415  35.016  42.878  14.459
29068W        W 1416  37.385  43.927  12.096
29069W        W 1417   0.298  25.657   2.410
29070W        W 1418  38.045  12.158  14.785
29071W        W 1419   1.292  30.641  14.932
29072W        W 1420  34.922  43.480   3.836
29073W        W 1421   5.832  32.533  10.075
29074W        W 1422   8.836  14.650  13.517
29075W        W 1423   1.765  27.601  11.607
29076W        W 1424  15.686  30.493  14.828
29077W        W 1425  12.323   3.323  14.760
29078W        W 1426  20.125  18.212  12.418
29079W        W 1427  27.594  39.414  12.523
29080W        W 1428  33.616  30.539   3.202
29081W        W 1429   9.251  22.157   3.733
29082W        W 1430   8.680   9.318  11.500
29083W        W 1431  27.071   2.803   1.351
29084W        W 1432  28.557  37.951  13.541
29085W        W 1433  38.056  16.147   3.307
29086W        W 1434  24.598  41.430   4.181
29087W        W 1435   1.399  31.907   3.686
29088W        W 1436  11.128  27.632   2.822
29089W        W 1437   4.797   3.376   0.397
29090W        W 1438  41.917   4.345   4.345
29091W        W 1439  37.419   5.410   3.248
29092W        W 1440  25.962  20.530   4.194
29093W        W 1441  32.404  15.223  12.492
29094W        W 1442  32.482   4.379  10.497
29095W        W 1443  22.178   2.751   1.346
29096W        W 1444  37.944  21.551  10.036
29097W        W 1445  12.757  27.498   4.339
29098W        W 1446  40.460   0.849   3.297
29099W        W 1447  13.156   3.821  10.493
29100W        W 1448  12.834  25.123   1.277
29101W        W 1449  43.391   4.833  11.377
29102W        W 1450  17.802  25.645   3.340
29103W        W 1451  43.906   8.789  10.890
29104W        W 1452  32.058  39.991   0.322
29105W        W 1453  38.027  41.452   5.317
29106W        W 1454  44.349  21.558  10.437
29107W        W 1455  30.618  19.682   0.852
29108W        W 1456   7.676  35.555   3.670
29109W        W 1457   5.432   3.760  14.335
29110W        W 1458   8.749   5.736   1.251
29111W        W 1459  13.173  25.506  14.447
29112W        W 1460  24.978   4.782   3.844
29113W        W 1461  42.911  38.544  11.911
29114W        W 1462  28.129   0.754   4.717
29115W        W 1463  41.396  39.342  12.995
29116W        W 1464   3.791   8.285   3.341
29117W        W 1465  27.134  33.931   3.287
29118W        W 1466  24.114  17.751   2.869
29119W        W 1467  31.413  37.488   3.784
29120W        W 1468  29.145  20.054   0.941
29121W        W 1469   7.709  43.793  14.280
29122W        W 1470   8.814  36.941   0.407
29123W        W 1471  10.204  14.247  14.015
29124W        W 1472  36.909  41.910  14.347
29125W        W 1473  35.057  21.607   5.311
29126W        W 1474  21.033   5.870  11.860
29127W        W 1475   7.333  10.369   0.249
29128W        W 1476   4.853  27.636   3.193
29129W        W 1477  28.097   0.452  14.918
29130W        W 1478   6.381  22.148   4.352
29131W        W 1479   6.908  15.160   0.358
29132W        W 1480  42.938  28.019   3.847
29133W        W 1481   0.270  29.463  14.296
29134W        W 1482  33.389  11.305   2.775
29135W        W 1483  28.979  20.660  12.000
29136W        W 1484  18.689  24.590  11.861
29137W        W 1485  25.109  44.948  13.397
29138W        W 1486  13.125  26.011   1.322
29139W        W 1487  40.008  25.191   2.767
29140W        W 1488  21.036  12.209  11.447
29141W        W 1489  43.273  34.949  13.059
29142W        W 1490  31.969  32.078   1.812
29143W        W 1491  41.801  29.992   2.789
29144W        W 1492   2.367  22.710  10.905
29145W        W 1493  19.264  32.055   5.308
29146W        W 1494  20.670  23.239  10.626
29147W        W 1495   8.247  26.186   3.239
29148W        W 1496  23.725  28.590   4.791
29149W        W 1497  14.763   4.324   4.288
29150W        W 1498   2.885  33.884  11.460
29151W        W 1499   6.880  37.873   4.686
29152W        W 1500   4.402  19.112  12.076
29153W        W 1501  17.273  38.564  13.311
29154W        W 1502  30.478  29.965   3.863
29155W        W 1503  20.087   8.298   4.283
29156W        W 1504   7.265  44.290  12.004
29157W        W 1505   5.735   5.433  13.455
29158W        W 1506  17.587  42.424   3.169
29159W        W 1507  20.047  44.004   2.804
29160W        W 1508  21.536  41.326  14.964
29161W        W 1509  31.066  44.917   0.377
29162W        W 1510  36.098  22.093   1.437
29163W        W 1511  24.637  14.121  14.299
29164W        W 1512  41.038  44.798   1.911
29165W        W 1513  42.425   0.401   4.675
29166W        W 1514   2.784  14.191   1.296
29167W        W 1515   8.868  39.547   0.317
29168W        W 1516  12.810   8.887  11.404
29169W        W 1517  20.675  20.213   4.761
29170W        W 1518  42.471  21.024  10.431
29171W        W 1519  25.521  28.573   0.324
29172W        W 1520  12.182  22.540   2.245
29173W        W 1521  39.902  12.231   4.793
29174W        W 1522  37.492  24.087  14.999
29175W        W 1523  41.866  14.301   1.865
29176W        W 1524  14.100  33.937  10.492
29177W        W 1525  22.737   3.407  11.046
29178W        W 1526  23.704  10.803  10.582
29179W        W 1527   1.329   9.720  14.980
29180W        W 1528  30.074  24.040  14.346
29181W        W 1529  11.713  16.274  13.018
29182W        W 1530  36.405  38.508   4.707
29183W        W 1531   9.694  44.414  14.454
29184W        W 1532  30.443  16.736  14.489
29185W        W 1533   6.313  14.622  14.278
29186W        W 1534  22.570  10.284   3.697
29187W        W 1535  10.366  30.045   0.919
29188W        W 1536  35.518  36.029  11.906
29189W        W 1537   1.788  17.205  14.968
29190W        W 1538  29.445  13.706   0.814
29191W        W 1539   2.367   2.324   2.232
29192W        W 1540  13.822  13.837  11.596
29193W        W 1541   1.808  23.137   1.212
29194W        W 1542  43.923  42.968   4.174
29195W        W 1543   9.213   5.247  12.052
29196W        W 1544   9.361  42.304  10.537
29197W        W 1545  18.676   5.234   1.440
29198W        W 1546   2.857   8.805  13.374
29199W        W 1547  16.598  38.022  10.449
29200W        W 1548  21.746  32.035   5.172
29201W        W 1549  28.459  25.691   2.829
29202W        W 1550   9.663   4.272   1.893
29203W        W 1551  32.634   1.884  14.275
29204W        W 1552   9.694  33.915   3.362
29205W        W 1553  28.153  29.668   4.789
29206W        W 1554  24.041  28.455   0.285
29207W        W 1555   7.202  26.077   1.788
29208W        W 1556  12.119  41.036   4.345
29209W        W 1557   8.323  44.759   1.731
29210W        W 1558   7.734  22.707  13.914
29211W        W 1559  25.146  13.661   3.656
29212W        W 1560  35.093  27.663   1.749
29213W        W 1561  19.060  23.146   2.281
29214W        W 1562  30.598  17.208   2.224
29215W        W 1563  11.329   5.302  14.507
29216W        W 1564   2.388  40.400  11.547
29217W        W 1565   4.241  27.074  11.959
29218W        W 1566   2.299  16.155  14.885
29219W        W 1567   8.216  10.857  11.923
29220W        W 1568  37.908  25.691  11.919
29221W        W 1569  37.580  14.698   1.774
29222W        W 1570  34.592  24.070  11.881
29223W        W 1571   5.263  21.623  11.073
29224W        W 1572   2.918  44.287   2.407
29225W        W 1573   7.331   8.343  12.039
29226W        W 1574  26.035   9.694  14.977
29227W        W 1575  34.089  41.978  11.487
29228W        W 1576  40.001  22.666  12.457
29229W        W 1577  20.225   7.769   4.653
29230W        W 1578  30.512  17.244  12.351
29231W        W 1579  33.456   5.874   5.138
29232W        W 1580  21.518  43.772   3.318
29233W        W 1581  27.171   3.835   3.703
29234W        W 1582  24.036  25.078  12.016
29235W        W 1583  16.777  26.157  11.967
29236W        W 1584  39.465   4.731  13.494
29237W        W 1585   0.906  29.008  13.340
29238W        W 1586  14.317  34.538   0.398
29239W        W 1587   1.840  44.003   4.766
29240W        W 1588   0.938  13.157  13.337
29241W        W 1589  26.985  25.487   3.296
29242W        W 1590  16.211  11.856   9.543
29243W        W 1591  36.489  11.816  12.963
29244W        W 1592  44.294  10.636  14.023
29245W        W 1593  11.283   6.183   5.290
29246W        W 1594  17.172  10.142  11.899
29247W        W 1595   3.791  17.181   0.449
29248W        W 1596  27.077  38.510   0.780
29249W        W 1597  12.299  20.065  10.607
29250W        W 1598   4.818  28.985   4.641
29251W        W 1599   7.690  20.615  14.425
29252W        W 1600   7.708  12.227   1.386
29253W        W 1601  22.031  21.115  11.477
29254W        W 1602  12.336  26.463   3.378
29255W        W 1603  40.503  13.192  10.481
29256W        W 1604  32.108  30.030  14.300
29257W        W 1605  38.864   5.339  11.097
29258W        W 1606  40.809  42.980   3.855
29259W        W 1607  17.133  14.615   5.775
29260W        W 1608  20.714  25.006   0.314
29261W        W 1609  40.865  30.008  12.553
29262W        W 1610  37.439   9.297  13.511
29263W        W 1611   9.271  16.166   2.710
29264W        W 1612  13.127  19.598   5.253
29265W        W 1613   5.432  24.132   4.633
29266W        W 1614  26.971  16.210   4.705
29267W        W 1615  27.452  42.342  13.992
29268W        W 1616  12.852  33.903  11.608
29269W        W 1617   0.863  32.628   4.812
29270W        W 1618  38.071  34.948   1.291
29271W        W 1619   3.334  38.007  13.969
29272W        W 1620  27.142  28.459   0.815
29273W        W 1621   6.737  18.248  14.436
29274W        W 1622   1.391  25.100  10.923
29275W        W 1623  32.084  20.716  13.508
29276W        W 1624  13.843  33.924   3.162
29277W        W 1625   5.757  25.203  13.467
29278W        W 1626  39.445   1.410  11.933
29279W        W 1627  35.927   9.881  12.865
29280W        W 1628   5.380  13.692   0.328
29281W        W 1629  13.239  37.001   1.414
29282W        W 1630   8.741  39.920   0.367
29283W        W 1631   3.457  18.785  13.331
29284W        W 1632  29.004  27.076   0.830
29285W        W 1633   1.374  16.300  14.815
29286W        W 1634  14.252  38.551  14.941
29287W        W 1635   8.245   7.896   1.449
29288W        W 1636  31.040   5.431  12.435
29289W        W 1637  36.979   2.898   4.145
29290W        W 1638   0.756   0.962  12.541
29291W        W 1639  25.684  17.267  12.040
29292W        W 1640  10.689  30.071   1.776
29293W        W 1641  27.169  30.067  11.032
29294W        W 1642   3.264  22.071  13.026
29295W        W 1643  21.177  27.625  14.309
29296W        W 1644   9.271   7.761   0.363
29297W        W 1645  42.380  13.721   0.832
29298W        W 1646  23.666   1.284  14.444
29299W        W 1647  34.023  35.922  11.048
29300W        W 1648   1.905  11.866   3.256
29301W        W 1649  33.126   4.780   4.207
29302W        W 1650  19.267   7.237  14.909
29303W        W 1651  20.154  15.692   3.314
29304W        W 1652   3.731  29.062  11.420
29305W        W 1653  13.675  41.977  10.968
29306W        W 1654  24.619  11.244   4.138
29307W        W 1655  15.116  41.452  11.411
29308W        W 1656  30.576  41.844   0.870
29309W        W 1657  36.919  34.415  12.419
29310W        W 1658   9.742  23.200   2.258
29311W        W 1659   1.732  41.394   4.603
29312W        W 1660  43.371  21.702   4.217
29313W        W 1661   6.286  11.821  10.908
29314W        W 1662  24.200   7.344  11.864
29315W        W 1663  40.012   7.833   4.803
29316W        W 1664   9.389  27.636  12.058
29317W        W 1665  17.089   1.309   2.326
29318W        W 1666  19.536  20.256   0.777
29319W        W 1667  31.521  24.032  11.490
29320W        W 1668  24.114  21.620   2.842
29321W        W 1669   6.819   6.296   1.716
29322W        W 1670  35.445  32.433  14.001
29323W        W 1671  26.071  44.385   3.242
29324W        W 1672  39.343  39.424   2.185
29325W        W 1673   4.245   2.373  11.966
29326W        W 1674   0.308  39.849  12.827
29327W        W 1675  25.111  25.518   0.748
29328W        W 1676  24.030  36.097  11.551
29329W        W 1677  27.960  18.192   3.375
29330W        W 1678  10.253  13.217   0.290
29331W        W 1679  40.980   9.853   3.186
29332W        W 1680  16.789  42.848   2.802
29333W        W 1681  18.153  10.771   4.643
29334W        W 1682   0.978  34.872  11.459
29335W        W 1683   0.925  10.156  12.913
29336W        W 1684   7.793  33.412  11.408
29337W        W 1685  38.378  28.172   4.724
29338W        W 1686  25.674  24.550   3.700
29339W        W 1687  42.497  11.641   2.309
29340W        W 1688  31.569   6.364  13.996
29341W        W 1689   3.283  39.989   0.800
29342W        W 1690  14.796   3.413  13.990
29343W        W 1691  38.043  44.844  12.067
29344W        W 1692  15.185  14.335   2.746
29345W        W 1693  26.517  19.112  10.481
29346W        W 1694  19.243  37.539  12.905
29347W        W 1695  13.684  19.136   2.229
29348W        W 1696  30.155  39.810  14.995
29349W        W 1697  24.051  18.629   0.788
29350W        W 1698  11.241  42.889  14.440
29351W        W 1699   3.782  40.511  10.954
29352W        W 1700  16.318  23.725   0.795
29353W        W 1701  31.063  13.204   4.166
29354W        W 1702   3.904   2.756   2.239
29355W        W 1703  44.847  38.869   3.262
29356W        W 1704   0.923  11.358  12.362
29357W        W 1705  39.994  44.762  14.491
29358W        W 1706  24.639   7.189   4.243
29359W        W 1707  28.003  33.478  11.891
29360W        W 1708  38.067  38.537   0.863
29361W        W 1709   2.375  27.146   2.342
29362W        W 1710  40.361  25.535   2.291
29363W        W 1711  43.420  36.889  14.340
29364W        W 1712  17.134  20.072   1.744
29365W        W 1713  27.614  10.739   1.725
29366W        W 1714  11.235   9.179   2.856
29367W        W 1715  21.116  18.716  11.499
29368W        W 1716  20.546  14.772  12.831
29369W        W 1717  18.139  19.104  14.432
29370W        W 1718   9.847  21.689  14.923
29371W        W 1719  35.937  27.033  14.018
29372W        W 1720   9.351  18.244  12.571
29373W        W 1721   2.763  31.576  14.865
29374W        W 1722  16.765  37.867   1.451
29375W        W 1723  44.973  27.507   3.812
29376W        W 1724  33.577  39.368   2.726
29377W        W 1725   4.245  42.972  14.026
29378W        W 1726  43.836  24.103   3.168
29379W        W 1727  33.109  32.404  11.371
29380W        W 1728  35.953  13.665  14.966
29381W        W 1729  22.560  35.995  11.487
29382W        W 1730  14.624  42.437  14.808
29383W        W 1731  22.086  38.348   4.138
29384W        W 1732  27.023  32.142  14.424
29385W        W 1733  36.971  42.818   3.178
29386W        W 1734  20.170  14.697   2.194
29387W        W 1735  11.751  26.197   0.476
29388W        W 1736   3.712  27.989   2.886
29389W        W 1737   0.756   9.682  14.024
29390W        W 1738  10.822   6.340   9.447
29391W        W 1739  29.666  16.624   2.259
29392W        W 1740  41.500  15.161  14.881
29393W        W 1741   1.909  32.104  12.419
29394W        W 1742   6.343   2.290  10.521
29395W        W 1743  31.646  44.490  13.843
29396W        W 1744  20.108  23.682  10.582
29397W        W 1745  41.808   9.287   2.684
29398W        W 1746  39.559  14.796   0.919
29399W        W 1747  42.335  40.335   2.242
29400W        W 1748  30.134  13.810   2.353
29401W        W 1749  34.025   1.816  14.403
29402W        W 1750   2.783  13.702   1.263
29403W        W 1751  26.508  37.469  11.564
29404W        W 1752   3.285  31.923  10.096
29405W        W 1753  18.173  44.432  14.961
29406W        W 1754  23.208  14.824  14.944
29407W        W 1755  18.627  30.641   4.757
29408W        W 1756   1.440  34.488  13.054
29409W        W 1757  44.827  14.782  10.916
29410W        W 1758  41.909  24.180  10.910
29411W        W 1759   9.877   6.205   0.451
29412W        W 1760   2.273  27.462   2.214
29413W        W 1761   9.369   3.271   1.402
29414W        W 1762  38.495   2.854  11.452
29415W        W 1763   2.765   5.847   3.752
29416W        W 1764   7.859  42.828   5.149
29417W        W 1765  41.005   6.366   3.158
29418W        W 1766  43.931  29.133  13.478
29419W        W 1767  42.017  23.141   3.270
29420W        W 1768  22.240  30.424  11.092
29421W        W 1769  11.770  15.771  10.125
29422W        W 1770  22.045  43.016   3.157
29423W        W 1771  15.304  39.433   1.866
29424W        W 1772  29.458  18.285   4.119
29425W        W 1773  25.018  18.719  11.533
29426W        W 1774  35.413  13.301   0.288
29427W        W 1775  44.938  20.720  10.602
29428W        W 1776  20.731  33.622  11.463
29429W        W 1777  43.004  33.928  10.618
29430W        W 1778  43.985  40.523  10.524
29431W        W 1779   7.348  20.154   4.169
29432W        W 1780  13.115  21.530  12.988
29433W        W 1781  32.091  30.947   5.119
29434W        W 1782  28.457  33.459   1.388
29435W        W 1783  38.062  33.934   0.901
29436W        W 1784  43.940  35.102   0.435
29437W        W 1785  33.433  16.691   4.810
29438W        W 1786  18.684   1.789   2.866
29439W        W 1787   5.912   5.213   3.634
29440W        W 1788  20.591  32.514   0.341
29441W        W 1789  13.776  44.799  12.545
29442W        W 1790  14.183  38.824  12.913
29443W        W 1791   2.284   4.321  13.862
29444W        W 1792  23.518  20.746  13.887
29445W        W 1793  15.184  44.854   0.317
29446W        W 1794   9.809   6.694   3.302
29447W        W 1795   5.355   5.788   1.834
29448W        W 1796  43.935   9.289  13.825
29449W        W 1797  16.749  27.495   3.350
29450W        W 1798  19.658   1.429  14.318
29451W        W 1799  31.457  32.425   2.243
29452W        W 1800  34.397  23.520  11.610
29453W        W 1801  28.670  11.139   0.470
29454W        W 1802   9.699  41.476  11.515
29455W        W 1803  38.839  22.740  11.434
29456W        W 1804  11.694   9.226   3.750
29457W        W 1805   8.368  18.066   3.362
29458W        W 1806   7.692  21.173  10.060
29459W        W 1807   3.789  21.552  11.379
29460W        W 1808  20.232  28.437   1.853
29461W        W 1809  43.281  25.554  14.842
29462W        W 1810   6.199   9.223  11.906
29463W        W 1811  18.562  44.310   1.286
29464W        W 1812  34.046  21.612   0.861
29465W        W 1813  39.536  25.165  11.429
29466W        W 1814  43.369  10.766  11.948
29467W        W 1815  24.589  29.920   1.318
29468W        W 1816   8.323  32.929   2.777
29469W        W 1817  25.049   5.879  14.806
29470W        W 1818  16.608   8.174   3.316
29471W        W 1819   9.765  42.375  10.633
29472W        W 1820  42.958  20.687  12.001
29473W        W 1821   4.754  15.816   0.954
29474W        W 1822  40.011  19.596   0.423
29475W        W 1823  26.555   6.897   3.807
29476W        W 1824  21.049   1.472   4.131
29477W        W 1825  36.078  30.153   2.401
29478W        W 1826  16.661   7.305   2.850
29479W        W 1827  15.241   8.808  12.448
29480W        W 1828   1.266  24.603   2.832
29481W        W 1829  21.061  14.273   0.856
29482W        W 1830  32.946   3.250   0.350
29483W        W 1831  20.179  26.565   3.792
29484W        W 1832  35.108  24.516  10.988
29485W        W 1833  15.292  10.794   3.182
29486W        W 1834  17.233  31.532  10.907
29487W        W 1835  24.220  40.877   2.197
29488W        W 1836  26.481  25.526  14.934
29489W        W 1837  12.266  42.497   4.649
29490W        W 1838  24.064  12.277  12.067
29491W        W 1839  44.290   0.930   1.347
29492W        W 1840  33.936  42.506   0.269
29493W        W 1841  15.267  18.654   0.348
29494W        W 1842  24.090  14.808  12.391
29495W        W 1843  23.586  15.113   2.279
29496W        W 1844  31.931  30.653   0.346
29497W        W 1845  28.621  37.338  10.489
29498W        W 1846  13.116  32.607   0.380
29499W        W 1847  39.379  14.811  14.008
29500W        W 1848  17.270   2.958   1.761
29501W        W 1849   1.291  17.602   2.181
29502W        W 1850  34.959  15.144   1.908
29503W        W 1851   0.311  30.518   2.254
29504W        W 1852  28.621  23.521   3.851
29505W        W 1853  39.891  36.429   3.337
29506W        W 1854  32.100   8.715  12.468
29507W        W 1855   8.795   9.179  13.410
29508W        W 1856   5.380  42.493  12.984
29509W        W 1857   3.785  10.210  13.381
29510W        W 1858  29.660  13.599  13.019
29511W        W 1859  11.321  10.154   1.339
29512W        W 1860  38.341  41.879   2.818
29513W        W 1861  20.729  28.598  11.377
29514W        W 1862  44.406   2.369   3.739
29515W        W 1863  37.951  22.704   3.736
29516W        W 1864   9.787  33.928   0.435
29517W        W 1865  37.394  13.133  14.481
29518W        W 1866  33.103  23.068  10.408
29519W        W 1867   2.886  16.143  14.839
29520W        W 1868  43.922  22.541  11.908
29521W        W 1869  11.689  27.088   0.428
29522W        W 1870  19.568  30.422   2.837
29523W        W 1871  32.474   2.840   0.853
29524W        W 1872  39.883  35.934  11.952
29525W        W 1873  21.167  29.995   4.601
29526W        W 1874  37.507  16.672   1.768
29527W        W 1875  39.809  14.112   1.910
29528W        W 1876  16.643  17.182   3.254
29529W        W 1877  11.323   4.769   2.331
29530W        W 1878  11.187  22.740   3.656
29531W        W 1879  19.542  34.578  12.545
29532W        W 1880   6.358  15.593   1.728
29533W        W 1881  14.251  34.931   2.377
29534W        W 1882   2.462  20.587   3.360
29535W        W 1883  40.910   1.408  13.948
29536W        W 1884  20.214  26.124   1.426
29537W        W 1885  25.675   4.225  12.898
29538W        W 1886  16.758   8.831  12.446
29539W        W 1887   8.259   9.350  13.433
29540W        W 1888  18.292  13.623   1.250
29541W        W 1889  13.251  18.115   9.984
29542W        W 1890  16.589  43.923   1.713
29543W        W 1891   8.248  25.064   1.341
29544W        W 1892  36.903  13.623   3.269
29545W        W 1893  21.730  15.296  13.893
29546W        W 1894  30.626   8.192  11.491
29547W        W 1895  10.686  32.410  11.427
29548W        W 1896  17.174  42.854  13.992
29549W        W 1897   2.885  19.672  13.455
29550W        W 1898   7.826  40.447  13.050
29551W        W 1899  38.540  33.049  13.947
29552W        W 1900  21.585  28.002  12.548
29553W        W 1901  26.519  38.893   0.743
29554W        W 1902  25.075  18.604  10.438
29555W        W 1903  33.925  35.059  14.314
29556W        W 1904  25.504  40.449   9.983
29557W        W 1905  26.127  27.604  11.583
29558W        W 1906  39.519  44.382   1.264
29559W        W 1907  35.602   4.827  14.917
29560W        W 1908  28.585   8.267  13.326
29561W        W 1909  11.290  42.862  12.971
29562W        W 1910  12.317  40.859  14.278
29563W        W 1911  15.189  40.026  13.321
29564W        W 1912  15.243  38.005   2.394
29565W        W 1913  39.906  20.076  13.858
29566W        W 1914  33.955  38.538  14.340
29567W        W 1915  35.484  41.814  14.500
29568W        W 1916   1.780   0.301  12.958
29569W        W 1917  12.678  37.378   4.829
29570W        W 1918  12.693  39.816  14.956
29571W        W 1919  10.690   9.867   1.250
29572W        W 1920  33.615  40.489  14.330
29573W        W 1921  40.968   3.758   2.204
29574W        W 1922  16.164   5.193   4.735
29575W        W 1923  35.457  44.369  13.010
29576W        W 1924  18.622   0.830  12.543
29577W        W 1925   7.205  12.259  12.449
29578W        W 1926   9.760  11.173   2.279
29579W        W 1927   7.738  14.704  13.463
29580W        W 1928  44.003  41.786  11.004
29581W        W 1929  20.615  34.051  10.932
29582W        W 1930   3.903  14.157  14.510
29583W        W 1931  11.358  34.439  10.555
29584W        W 1932  44.445  24.028   3.765
29585W        W 1933   7.312  18.199  13.850
29586W        W 1934  33.101  42.422  12.572
29587W        W 1935  29.531  20.645  11.420
29588W        W 1936  28.180  13.682  11.018
29589W        W 1937  21.580  39.032  12.469
29590W        W 1938  41.879  38.345  13.523
29591W        W 1939   3.312  15.695   4.779
29592W        W 1940   1.766  27.161   1.306
29593W        W 1941  36.862  38.975  11.452
29594W        W 1942  42.836  18.581   3.352
29595W        W 1943  26.081  30.108  12.422
29596W        W 1944  14.169   5.260   0.780
29597W        W 1945  28.459  24.168   0.917
29598W        W 1946  18.774   9.865   0.759
29599W        W 1947  20.538  12.156  13.821
29600W        W 1948   0.464   7.173  10.476
29601W        W 1949  30.419  17.130   1.771
29602W        W 1950  13.274  17.304  10.161
29603W        W 1951  26.540   7.754  11.582
29604W        W 1952  24.571  37.020  10.608
29605W        W 1953  18.172   2.885  12.879
29606W        W 1954  14.209  41.998  11.605
29607W        W 1955   4.725   0.824  13.978
29608W        W 1956  16.156  12.134   2.671
29609W        W 1957   5.378   4.420  12.902
29610W        W 1958   8.364  38.850   3.803
29611W        W 1959  41.318   3.444   0.909
29612W        W 1960  43.474  26.998  12.992
29613W        W 1961  26.518  35.059   2.731
29614W        W 1962  40.840  25.579  12.952
29615W        W 1963  11.706  44.381  13.973
29616W        W 1964  36.577  41.369   0.327
29617W        W 1965  40.041   8.690   2.689
29618W        W 1966   4.764  25.679   3.378
29619W        W 1967  13.282  44.877   0.872
29620W        W 1968  42.325  26.066   1.843
29621W        W 1969   6.897  41.797   4.195
29622W        W 1970  16.702  39.955   3.153
29623W        W 1971  41.009  42.337   3.657
29624W        W 1972  43.819  24.720  12.468
29625W        W 1973  24.149  41.949   2.386
29626W        W 1974  29.164  18.578  13.064
29627W        W 1975  43.422  41.397  13.359
29628W        W 1976   1.840   0.416   2.357
29629W        W 1977  19.125  39.539   4.692
29630W        W 1978   8.777  20.223  12.909
29631W        W 1979  12.287  43.987  13.352
29632W        W 1980  41.357  33.526  13.384
29633W        W 1981  17.689  42.312  12.476
29634W        W 1982  11.203  39.342  12.042
29635W        W 1983  44.356   3.343   3.359
29636W        W 1984  32.459  37.837   9.500
29637W        W 1985  31.607  28.076  10.921
29638W        W 1986  30.469  28.999  13.390
29639W        W 1987  14.256  42.514   3.802
29640W        W 1988   8.242  23.040   4.141
29641W        W 1989  29.978  12.191   0.316
29642W        W 1990  16.655  13.212  12.345
29643W        W 1991  26.473   7.823   4.160
29644W        W 1992   3.229   0.856  11.100
29645W        W 1993  33.480  18.645  11.977
29646W        W 1994  29.633  43.839   1.435
29647W        W 1995  43.465   9.871  14.812
29648W        W 1996  37.389  32.945  12.913
29649W        W 1997   4.802  40.408  10.548
29650W        W 1998  26.144  40.332  14.772
29651W        W 1999  26.978  37.969   1.356
29652W        W 2000   5.687  12.140  13.536
29653W        W 2001  29.585  26.574   9.975
29654W        W 2002  17.226   3.403  12.433
29655W        W 2003  18.157  24.043   1.361
29656W        W 2004  22.552  39.908   2.795
29657W        W 2005  13.786   5.902  11.607
29658W        W 2006  18.577   3.309   0.871
29659W        W 2007  14.270  38.969   5.153
29660W        W 2008   5.816   7.213  10.512
29661W        W 2009  23.114  11.286  14.923
29662W        W 2010  27.084  15.687  11.056
29663W        W 2011   6.861  35.004  10.988
29664W        W 2012  25.140  15.238  14.793
29665W        W 2013  25.578  12.786   3.811
29666W        W 2014  14.226  42.377   1.802
29667W        W 2015  39.009  38.490   0.918
29668W        W 2016  27.501  24.220   2.221
29669W        W 2017  15.755   2.290  11.405
29670W        W 2018  11.362  18.600   3.758
29671W        W 2019  31.899  43.429   1.804
29672W        W 2020  35.387  41.870  11.875
29673W        W 2021  34.938  20.738   3.817
29674W        W 2022  32.490  15.626   2.853
29675W        W 2023   3.895  18.689   3.679
29676W        W 2024  30.125  41.903  12.975
29677W        W 2025  44.320  36.010   3.229
29678W        W 2026   4.398  26.183  12.037
29679W        W 2027  41.810  26.049   0.796
29680W        W 2028  22.556  38.040   4.312
29681W        W 2029   2.253  13.111  12.356
29682W        W 2030  31.625   4.749  11.052
29683W        W 2031  23.624   4.212   0.809
29684W        W 2032  35.012  10.670   1.863
29685W        W 2033  10.736  32.004   2.254
29686W        W 2034  37.022   8.871   2.864
29687W        W 2035  10.839  23.234   2.718
29688W        W 2036   4.289  13.269   0.794
29689W        W 2037  21.065  41.350  11.112
29690W        W 2038  11.356  10.855   0.818
29691W        W 2039  28.014  22.727  13.423
29692W        W 2040  39.017  38.423  14.358
29693W        W 2041  31.546  35.855  10.520
29694W        W 2042  36.389  31.998   5.202
29695W        W 2043  29.945  40.958  14.373
29696W        W 2044  32.393  37.935   4.218
29697W        W 2045  14.152  33.500  12.551
29698W        W 2046  10.375  30.008   1.738
29699W        W 2047   7.415  40.518   2.750
29700W        W 2048  39.360  41.944  11.078
29701W        W 2049  42.856  26.591   4.742
29702W        W 2050   3.222   1.388   2.185
29703W        W 2051  37.483  15.716  12.397
29704W        W 2052  10.646   5.724   0.944
29705W        W 2053  31.964  42.946   4.755
29706W        W 2054  31.430   1.754  11.518
29707W        W 2055  42.885  14.244   0.314
29708W        W 2056  12.131  26.520  13.821
29709W        W 2057   4.931  22.011  12.474
29710W        W 2058  18.666  17.221   1.366
29711W        W 2059  34.931  16.214   0.245
29712W        W 2060   1.864  16.102   2.840
29713W        W 2061  13.107  16.113   3.656
29714W        W 2062  33.008  41.386   4.268
29715W        W 2063   4.277  41.958  11.035
29716W        W 2064  23.691  11.784  12.042
29717W        W 2065   5.754  21.212   0.351
29718W        W 2066  24.106  23.681  10.098
29719W        W 2067  18.735  14.222  10.055
29720W        W 2068  15.679  26.090   4.769
29721W        W 2069  24.176   6.789   0.430
29722W        W 2070  41.432   0.823   4.171
29723W        W 2071   2.282  38.074   2.857
29724W        W 2072  16.796  39.026   1.396
29725W        W 2073  35.524  13.303   1.229
29726W        W 2074  23.676  19.599  14.903
29727W        W 2075  39.935  23.111   0.880
29728W        W 2076  43.970  12.753  14.300
29729W        W 2077  33.950  15.634   0.736
29730W        W 2078  16.138  22.563   1.225
29731W        W 2079  44.988  31.102  14.510
29732W        W 2080  22.043   8.319   9.937
29733W        W 2081   3.955  24.566   2.898
29734W        W 2082   4.922  21.679   4.318
29735W        W 2083  30.477  43.308   3.835
29736W        W 2084   0.744   2.928  13.962
29737W        W 2085  17.706   1.971  12.993
29738W        W 2086  15.109   9.728   2.184
29739W        W 2087   3.427  24.198  14.473
29740W        W 2088  20.061  23.540  13.905
29741W        W 2089  19.243  39.398  11.987
29742W        W 2090  35.517  23.136  10.044
29743W        W 2091  43.789  33.957   2.350
29744W        W 2092  29.625  14.267   1.252
29745W        W 2093  12.222  23.241   3.293
29746W        W 2094  23.564  23.688   1.389
29747W        W 2095  36.077   3.745   1.799
29748W        W 2096  32.596   3.890  13.938
29749W        W 2097  15.100  43.380  12.881
29750W        W 2098  18.218  43.901   1.787
29751W        W 2099   3.260  13.811  13.010
29752W        W 2100  22.107   6.253   4.222
29753W        W 2101  10.764   7.408  12.007
29754W        W 2102  33.074  27.059  13.800
29755W        W 2103  28.092  21.547  13.325
29756W        W 2104  44.478   6.286   1.749
29757W        W 2105  37.502   8.209  14.890
29758W        W 2106  37.869   2.358   0.904
29759W        W 2107  27.650  41.833   4.837
29760W        W 2108   7.208  38.563   3.666
29761W        W 2109   9.288   2.770   3.244
29762W        W 2110  10.830  26.581  11.547
29763W        W 2111  35.910  27.610   2.267
29764W        W 2112  33.931  23.730  13.954
29765W        W 2113  25.004  31.456   3.680
29766W        W 2114  26.650  29.644   3.342
29767W        W 2115  18.609  40.801  13.795
29768W        W 2116  33.585  18.588  10.982
29769W        W 2117   0.815  37.071   4.767
29770W        W 2118  32.577  29.648  10.931
29771W        W 2119  27.980  35.529   3.644
29772W        W 2120  32.574  36.948   3.838
29773W        W 2121   3.363  16.316   3.810
29774W        W 2122   7.281  42.494   2.252
29775W        W 2123  26.486  37.999  12.439
29776W        W 2124  23.717   9.667  12.824
29777W        W 2125  36.417  13.118   2.766
29778W        W 2126  18.670   4.922  14.352
29779W        W 2127  10.852  34.095   4.227
29780W        W 2128  12.277   5.219  12.039
29781W        W 2129   4.324  14.648   4.167
29782W        W 2130  17.127  32.553   3.151
29783W        W 2131   3.769  17.712   1.259
29784W        W 2132  11.713  11.715   4.615
29785W        W 2133   8.297   6.754   1.425
29786W        W 2134  29.162  24.651  14.785
29787W        W 2135  32.016  13.235   3.699
29788W        W 2136  22.664  33.982   1.318
29789W        W 2137   3.268   2.265  12.495
29790W        W 2138  10.284  26.967  12.964
29791W        W 2139  11.772  34.965   2.310
29792W        W 2140  36.392  31.443   1.855
29793W        W 2141   2.799  11.832   0.274
29794W        W 2142  23.032  31.990  13.880
29795W        W 2143  28.510   6.428   3.165
29796W        W 2144  13.791  22.553  13.802
29797W        W 2145   2.750  15.296   4.167
29798W        W 2146  25.541   5.810   0.460
29799W        W 2147  22.231   1.901  13.495
29800W        W 2148  34.965  18.216   4.269
29801W        W 2149  32.133  11.627   3.713
29802W        W 2150  35.962   7.381  14.487
29803W        W 2151  31.959  41.488   4.733
29804W        W 2152  36.087  25.157   0.875
29805W        W 2153  20.146  16.614   2.692
29806W        W 2154  35.955   5.819  11.112
29807W        W 2155  33.442  17.061   0.286
29808W        W 2156  12.668   7.841   4.776
29809W        W 2157  32.142   4.283  11.425
29810W        W 2158  41.984  41.880  12.046
29811W        W 2159  11.706  20.149   4.272
29812W        W 2160  26.034   9.879   2.795
29813W        W 2161  20.730  29.435   1.353
29814W        W 2162   8.328  27.194   2.745
29815W        W 2163  39.043  43.448  11.510
29816W        W 2164   5.704  30.612  14.820
29817W        W 2165  35.029  34.050  12.578
29818W        W 2166  39.032  26.551  12.091
29819W        W 2167   5.717  14.771  13.327
29820W        W 2168  10.324   5.821  11.574
29821W        W 2169  23.648  35.060  13.986
29822W        W 2170  35.517   3.415  10.586
29823W        W 2171  41.963   1.381   4.739
29824W        W 2172  16.283  23.670   3.287
29825W        W 2173  30.062  31.534   4.150
29826W        W 2174  38.419  42.998   2.250
29827W        W 2175   3.858  10.777   1.285
29828W        W 2176  15.731   1.757  11.607
29829W        W 2177  37.407  16.680  12.042
29830W        W 2178  25.525  43.427   0.403
29831W        W 2179  43.835  21.627  13.849
29832W        W 2180  29.948  33.084  10.519
29833W        W 2181   0.930   4.926   1.905
29834W        W 2182   2.334  35.429  11.892
29835W        W 2183   6.409  44.978  12.569
29836W        W 2184   3.741  42.817  12.965
29837W        W 2185  28.952  44.832  12.002
29838W        W 2186  20.106  25.988   2.338
29839W        W 2187  26.181  41.966  13.833
29840W        W 2188  33.403  30.130   3.386
29841W        W 2189  24.225   8.762   4.134
29842W        W 2190  17.294  15.701   0.478
29843W        W 2191  17.643  19.236  13.910
29844W        W 2192  33.521  39.846   1.854
29845W        W 2193  35.435  10.847   3.346
29846W        W 2194  37.349  44.501   3.383
29847W        W 2195  27.496  41.890  14.884
29848W        W 2196  20.761  12.826  11.428
29849W        W 2197  25.670  15.704  14.840
29850W        W 2198  42.470  32.025   0.396
29851W        W 2199   1.882  43.913   4.219
29852W        W 2200  40.330  21.055   1.887
29853W        W 2201  25.015  11.737  10.529
29854W        W 2202   3.735  33.929   0.247
29855W        W 2203  39.435   8.164   4.195
29856W        W 2204  40.875  25.203  10.939
29857W        W 2205   3.874   1.450  12.400
29858W        W 2206  34.415  33.617  11.920
29859W        W 2207  44.836  40.440  11.069
29860W        W 2208  22.071  21.163   3.239
29861W        W 2209  30.522  27.557  10.582
29862W        W 2210  33.497   5.439  13.047
29863W        W 2211  38.548  39.847  12.948
29864W        W 2212   8.167   2.756  13.003
29865W        W 2213  15.152  32.506  12.360
29866W        W 2214  19.132  14.759  10.419
29867W        W 2215   6.756   6.872  11.915
29868W        W 2216  34.981  16.239  14.331
29869W        W 2217   9.361  42.841  14.882
29870W        W 2218  10.846  32.595   1.749
29871W        W 2219  28.968  22.597  11.396
29872W        W 2220  29.617  31.055  14.950
29873W        W 2221  25.068  12.359  12.402
29874W        W 2222  30.972   4.837   3.332
29875W        W 2223  30.957  36.359   4.699
29876W        W 2224   1.335  19.628   2.857
29877W        W 2225   5.289  42.971  13.534
29878W        W 2226  23.706  43.926   0.278
29879W        W 2227  37.336   4.334  12.550
29880W        W 2228   6.706  36.575   3.787
29881W        W 2229  40.370  28.524   4.736
29882W        W 2230   5.732  14.196   0.804
29883W        W 2231  29.038  28.177   2.292
29884W        W 2232  34.398  43.766   3.343
29885W        W 2233   6.775  28.050   0.795
29886W        W 2234  13.699  37.075   3.715
29887W        W 2235  36.927  37.032  13.965
29888W        W 2236   4.245  25.055   4.213
29889W        W 2237  38.963  12.796  13.458
29890W        W 2238  30.628  33.430   0.287
29891W        W 2239  18.742  22.662  11.924
29892W        W 2240   9.755   6.201   3.808
29893W        W 2241  41.493  28.177  14.505
29894W        W 2242  30.493  15.675  11.507
29895W        W 2243   3.926  34.460   5.113
29896W        W 2244  19.686  34.369   2.862
29897W        W 2245  20.652  31.999  14.777
29898W        W 2246  22.205  23.231  14.370
29899W        W 2247   3.449  28.530  12.878
29900W        W 2248   6.182   4.879   1.924
29901W        W 2249  28.133  44.333   5.228
29902W        W 2250  21.568   4.772  11.613
29903W        W 2251  37.925  40.888   3.288
29904W        W 2252  31.082  14.258  14.432
29905W        W 2253  25.681  18.560   4.688
29906W        W 2254   4.790   5.216  10.432
29907W        W 2255  39.920  24.523  11.612
29908W        W 2256  23.059  38.560  10.408
29909W        W 2257   7.764  44.843   2.286
29910W        W 2258   3.372  11.700  10.517
29911W        W 2259  30.012  24.566  13.376
29912W        W 2260   0.972   6.195  14.876
29913W        W 2261   0.450  28.574   2.679
29914W        W 2262  10.250  10.237  12.403
29915W        W 2263  31.439  37.372  11.547
29916W        W 2264  17.274  40.987   4.721
29917W        W 2265  15.697  12.681   1.397
29918W        W 2266  14.111  12.626  14.286
29919W        W 2267  27.546  43.481  12.082
29920W        W 2268  25.191   6.248   2.858
29921W        W 2269   9.815  36.351  11.920
29922W        W 2270   9.758   5.732   2.278
29923W        W 2271   2.261  30.141   4.332
29924W        W 2272  20.752  41.486   4.701
29925W        W 2273  21.569  39.866   2.308
29926W        W 2274   6.710   7.715   4.155
29927W        W 2275  27.533  35.377   3.686
29928W        W 2276  28.598  29.954  12.996
29929W        W 2277  23.190  44.398  11.470
29930W        W 2278  35.948  31.511   1.908
29931W        W 2279  27.634  17.128  11.015
29932W        W 2280  37.932  39.536  12.560
29933W        W 2281  19.117  43.842   2.809
29934W        W 2282   4.445  33.012   3.295
29935W        W 2283  34.944  14.720  13.860
29936W        W 2284   7.777  26.087  12.042
29937W        W 2285   2.864   6.309   1.755
29938W        W 2286  10.755   8.757  14.860
29939W        W 2287  36.986  15.799  11.579
29940W        W 2288  36.519   7.880   2.779
29941W        W 2289   7.763  23.096  12.060
29942W        W 2290   2.749   8.336   3.266
29943W        W 2291  34.874  38.376  13.313
29944W        W 2292  20.605  23.181  13.536
29945W        W 2293  29.015  23.019  12.406
29946W        W 2294   0.907  13.169   3.815
29947W        W 2295  27.091  18.692   1.751
29948W        W 2296  40.966  16.786   0.742
29949W        W 2297   3.750  17.717   4.810
29950W        W 2298   7.711   3.444  14.013
29951W        W 2299  40.838  12.668  12.426
29952W        W 2300   8.684  30.965   5.283
29953W        W 2301  10.861  37.532  10.985
29954W        W 2302  21.738   1.846  12.868
29955W        W 2303  42.524  17.154   1.269
29956W        W 2304  43.946   8.846  10.007
29957W        W 2305  24.506  19.188  11.398
29958W        W 2306  19.550  26.574   3.304
29959W        W 2307  27.541   5.775   1.237
29960W        W 2308   7.232  33.599  14.023
29961W        W 2309   2.427  43.322   4.273
29962W        W 2310  21.186  22.245   0.743
29963W        W 2311  43.374  31.469   3.346
29964W        W 2312  25.177  17.700   3.186
29965W        W 2313  17.090  26.661   5.151
29966W        W 2314  26.580  15.202  13.441
29967W        W 2315  42.307  10.851   1.294
29968W        W 2316  31.072  40.052  11.888
29969W        W 2317   7.839  24.004   3.841
29970W        W 2318  18.725  34.465   0.732
29971W        W 2319  11.703   9.826   4.183
29972W        W 2320  19.076  20.748  11.978
29973W        W 2321  16.629  13.143   3.684
29974W        W 2322  25.484   3.878  11.870
29975W        W 2323  29.117  26.000  14.781
29976W        W 2324  12.724   8.780  14.781
29977W        W 2325   5.287  29.112  14.860
29978W        W 2326  32.016  19.687   1.372
29979W        W 2327  20.655  12.642   4.178
29980W        W 2328   1.795  16.244   4.765
29981W        W 2329  33.483  30.448  12.384
29982W        W 2330  19.269   0.425   4.709
29983W        W 2331   7.287  41.492   1.794
29984W        W 2332   1.893  20.145   0.256
29985W        W 2333   1.427  31.031   2.361
29986W        W 2334  13.188  29.492   2.695
29987W        W 2335   9.811  16.251  11.433
29988W        W 2336   5.297  44.902   0.798
29989W        W 2337  25.548  33.491  13.054
29990W        W 2338  28.048  28.077  12.849
29991W        W 2339   9.651  23.686   4.135
29992W        W 2340   1.921   8.761  11.553
29993W        W 2341   1.847  38.540   0.876
29994W        W 2342  18.638   3.405   3.692
29995W        W 2343  37.425  29.037   0.762
29996W        W 2344  16.591  26.469  12.884
29997W        W 2345  44.438  21.100  14.947
29998W        W 2346  33.504   9.814  11.452
29999W        W 2347  19.159  24.621   0.876
30000W        W 2348   1.762   6.423  12.993
30001W        W 2349  40.484   5.717   4.333
30002W        W 2350  28.114  40.884   2.745
30003W        W 2351   7.668  21.122   4.344
30004W        W 2352  32.467  20.678  12.981
30005W        W 2353  24.204  33.417   4.693
30006W        W 2354   1.933  21.130   0.745
30007W        W 2355   5.804  41.358  13.403
30008W        W 2356   6.257  37.014  14.785
30009W        W 2357   3.934  37.988   1.847
30010W        W 2358  24.670  43.373  14.439
30011W        W 2359  37.069  18.168  13.932
30012W        W 2360  28.182  41.811  12.927
30013W        W 2361  38.923  26.544  10.543
30014W        W 2362   8.250  42.346   4.803
30015W        W 2363  40.029  41.983  14.406
30016W        W 2364  25.175  36.999   2.268
30017W        W 2365  28.952  11.772  10.487
30018W        W 2366  44.944   1.850  13.480
30019W        W 2367  33.902  13.771  14.028
30020W        W 2368   5.229  14.120  10.472
30021W        W 2369  24.992   1.289   3.837
30022W        W 2370  11.325   5.920   0.345
30023W        W 2371  21.109  15.189   3.228
30024W        W 2372  17.789  42.305   2.418
30025W        W 2373  31.076  40.878   3.165
30026W        W 2374  28.611   3.919   0.936
30027W        W 2375  32.503  39.476  10.464
30028W        W 2376  29.629  31.010  14.412
30029W        W 2377  19.173  15.627   0.397
30030W        W 2378   4.231  34.067  13.516
30031W        W 2379  22.650  44.797   0.789
30032W        W 2380  30.117   2.756   3.372
30033W        W 2381  20.260   6.388  12.886
30034W        W 2382  20.739  24.122  12.345
30035W        W 2383  37.964  10.352  14.969
30036W        W 2384   6.784  14.326  11.548
30037W        W 2385  20.185  33.046   0.761
30038W        W 2386  37.921  24.059   0.267
30039W        W 2387  22.238   7.222   5.576
30040W        W 2388  19.696  31.046  12.048
30041W        W 2389   1.926  17.792   3.635
30042W        W 2390   8.713  14.224  12.485
30043W        W 2391  12.666  43.332   3.160
30044W        W 2392  20.075   6.338   0.396
30045W        W 2393  30.005  33.090  14.996
30046W        W 2394  41.336  13.173   4.700
30047W        W 2395  27.986  10.700  12.466
30048W        W 2396  39.525  23.219  14.279
30049W        W 2397  37.959   9.266   1.286
30050W        W 2398  30.482  30.453  11.037
30051W        W 2399  31.506  18.558  11.034
30052W        W 2400   9.858  41.299   0.950
30053W        W 2401  23.214  43.340  10.979
30054W        W 2402  15.310  19.041  12.402
30055W        W 2403  24.125  36.418   2.325
30056W        W 2404  40.362  15.689   1.354
30057W        W 2405  17.108  12.743   2.246
30058W        W 2406  31.501  10.699   0.795
30059W        W 2407  36.535  38.392   3.179
30060W        W 2408  12.346  28.607   1.240
30061W        W 2409  44.316   4.845   1.786
30062W        W 2410  38.523  32.980   1.232
30063W        W 2411  12.699  27.474  10.451
30064W        W 2412  13.828  12.699   2.371
30065W        W 2413  12.780  11.340   2.227
30066W        W 2414  30.153  31.609  10.519
30067W        W 2415  14.143  13.639  10.128
30068W        W 2416  27.004  28.087  14.963
30069W        W 2417  11.198   4.848  12.988
30070W        W 2418  27.604  39.390   1.919
30071W        W 2419  15.123   5.804  12.053
30072W        W 2420  11.164   1.299  11.917
30073W        W 2421  42.362  21.174  11.091
30074W        W 2422  21.085  17.583   2.838
30075W        W 2423  30.593  17.733  13.054
30076W        W 2424  44.374  27.047  12.569
30077W        W 2425  15.612  32.491   0.355
30078W        W 2426   6.230  27.489  11.088
30079W        W 2427  42.463  12.347  12.920
30080W        W 2428  16.166  35.516  13.489
30081W        W 2429  26.035   0.413   1.891
30082W        W 2430  20.673  27.552  10.611
30083W        W 2431  24.677  34.586   3.675
30084W        W 2432   2.745  41.376  14.858
30085W        W 2433  41.919   2.878  14.356
30086W        W 2434  30.561  15.681  13.047
30087W        W 2435   8.395  35.908  12.083
30088W        W 2436  42.861  26.511   4.182
30089W        W 2437  13.631  26.204  14.425
30090W        W 2438  44.493  25.640   0.398
30091W        W 2439  30.465  19.203   0.770
30092W        W 2440  26.627  17.223   3.747
30093W        W 2441   5.194  43.947  12.426
30094W        W 2442  38.894  21.648  10.959
30095W        W 2443  35.432   5.718   4.182
30096W        W 2444  19.636  10.867  10.593
30097W        W 2445  33.054  11.215   2.770
30098W        W 2446  12.302   3.751   9.967
30099W        W 2447  37.378   5.815  11.044
30100W        W 2448  16.174  37.940   2.738
30101W        W 2449  15.629  12.178   1.697
30102W        W 2450  14.761   4.343   0.417
30103W        W 2451  39.477  38.013   0.357
30104W        W 2452   5.335  11.773   3.325
30105W        W 2453   0.435  15.316  14.913
30106W        W 2454  27.060   4.428  11.866
30107W        W 2455  13.694  20.658   0.349
30108W        W 2456  27.005  12.679  14.288
30109W        W 2457  12.698  39.836  14.010
30110W        W 2458   5.255  36.585   4.279
30111W        W 2459  37.534   1.794   3.725
30112W        W 2460  28.486  24.550   0.833
30113W        W 2461   9.749  18.146   2.717
30114W        W 2462   3.320   6.748  14.978
30115W        W 2463  24.478  37.842  12.837
30116W        W 2464  13.721  18.550   0.333
30117W        W 2465  17.181   0.435   9.939
30118W        W 2466  18.096   1.960   3.630
30119W        W 2467  31.030  23.201  14.371
30120W        W 2468  41.998  36.542  11.594
30121W        W 2469  11.850  19.166  12.994
30122W        W 2470  26.203   1.381  14.805
30123W        W 2471  12.243  11.129  12.402
30124W        W 2472  25.666  19.639   1.748
30125W        W 2473  28.615   6.225   2.252
30126W        W 2474   3.244  24.128   0.322
30127W        W 2475   7.694   5.427  13.049
30128W        W 2476   0.838  28.573   0.791
30129W        W 2477  43.274  33.986  13.914
30130W        W 2478  14.609  42.869   0.329
30131W        W 2479   9.818  27.943  10.609
30132W        W 2480  10.811   5.301  10.583
30133W        W 2481  39.932   8.177   2.837
30134W        W 2482  11.832  38.544   4.725
30135W        W 2483  17.761  28.571  11.398
30136W        W 2484   8.691  44.491  12.895
30137W        W 2485  35.424  28.614   4.634
30138W        W 2486   1.745  41.456   3.699
30139W        W 2487  32.966  13.163   3.220
30140W        W 2488   6.243  21.129  14.513
30141W        W 2489  36.857  26.471  12.450
30142W        W 2490  38.542  14.214  13.439
30143W        W 2491  20.185  10.286  10.018
30144W        W 2492   1.450  41.395  12.067
30145W        W 2493  23.061  18.655  13.924
30146W        W 2494  39.363  27.646   0.299
30147W        W 2495   0.314   9.802  11.414
30148W        W 2496  42.872   3.418   2.288
30149W        W 2497  10.242  21.198  14.873
30150W        W 2498   2.266  16.273  14.024
30151W        W 2499  33.124  42.396   4.735
30152W        W 2500  11.157  19.044  13.522
30153W        W 2501  34.407  30.464  14.515
30154W        W 2502  30.618  14.164   0.747
30155W        W 2503  39.012  25.627  11.034
30156W        W 2504  38.525  29.562  11.109
30157W        W 2505  31.590   3.382   0.266
30158W        W 2506  20.199  11.301   4.748
30159W        W 2507  43.990  18.634  12.069
30160W        W 2508  12.710  15.716   4.673
30161W        W 2509   1.276  18.694  11.919
30162W        W 2510  24.995   7.895  14.768
30163W        W 2511  14.818  37.846   0.851
30164W        W 2512  29.097  28.546   4.226
30165W        W 2513  11.651  18.605  13.800
30166W        W 2514  38.335  19.779  13.338
30167W        W 2515   8.753  41.524   1.742
30168W        W 2516  16.092  40.365  12.087
30169W        W 2517  10.751  29.485   2.900
30170W        W 2518  27.945  38.992  10.440
30171W        W 2519  32.540   9.343   1.874
30172W        W 2520   2.439  37.538   4.824
30173W        W 2521  38.505   3.238  14.957
30174W        W 2522  43.307   2.796  11.533
30175W        W 2523  34.008   6.739   4.242
30176W        W 2524   6.850  14.098   3.374
30177W        W 2525   6.879  41.861  13.540
30178W        W 2526   2.242   0.256  10.614
30179W        W 2527  28.157   8.272  12.472
30180W        W 2528  41.353  28.061   3.673
30181W        W 2529  43.926   4.818  13.862
30182W        W 2530  39.341   9.152   3.806
30183W        W 2531  33.100   1.439  11.596
30184W        W 2532  15.275  37.554   2.762
30185W        W 2533  14.165  12.182   0.300
30186W        W 2534  10.878  11.195  10.992
30187W        W 2535  25.074  31.941  14.393
30188W        W 2536  14.745   8.735  12.537
30189W        W 2537   9.387  33.108  13.852
30190W        W 2538  39.448  11.751  14.913
30191W        W 2539   6.286  10.295   0.463
30192W        W 2540  15.289  15.703   4.670
30193W        W 2541  27.447   6.783  13.004
30194W        W 2542  11.170  37.394   3.358
30195W        W 2543  41.998  33.085   4.276
30196W        W 2544  28.640  10.201  14.491
30197W        W 2545  10.374  31.987  11.982
30198W        W 2546  17.795  30.451   4.113
30199W        W 2547  29.979  11.190   3.844
30200W        W 2548   2.332  17.568   4.156
30201W        W 2549   9.760   0.481   4.230
30202W        W 2550  15.742  26.635  11.109
30203W        W 2551   7.207  33.879   3.241
30204W        W 2552   4.801  29.945   1.330
30205W        W 2553   1.948  38.053   0.431
30206W        W 2554  24.138  28.075   1.326
30207W        W 2555  33.383  12.339   3.646
30208W        W 2556  41.467   0.368   1.727
30209W        W 2557  10.258  27.065   3.765
30210W        W 2558  28.109   9.312   1.253
30211W        W 2559  26.580   4.378  10.942
30212W        W 2560  30.043  24.032   2.349
30213W        W 2561   8.160  26.539  14.450
30214W        W 2562  16.272  14.216   5.762
30215W        W 2563  10.710  21.541   1.333
30216W        W 2564  38.412  28.953   1.360
30217W        W 2565   1.949   6.876   1.420
30218W        W 2566  44.351  20.727  13.908
30219W        W 2567   6.806  37.950  14.004
30220W        W 2568  13.298  44.964  12.539
30221W        W 2569  42.315  31.006  14.963
30222W        W 2570  12.212  31.616  14.454
30223W        W 2571  12.240   6.789  13.981
30224W        W 2572  22.182  13.676  12.485
30225W        W 2573  24.230   7.280   5.572
30226W        W 2574  36.352  33.584   4.661
30227W        W 2575  24.194   2.947   4.260
30228W        W 2576  33.621  40.491   3.678
30229W        W 2577  39.855  21.633   4.238
30230W        W 2578  28.158  10.292   3.306
30231W        W 2579  43.347  23.151   4.691
30232W        W 2580  21.689  15.633  12.360
30233W        W 2581  39.858  33.471   9.936
30234W        W 2582  30.077  12.723  11.513
30235W        W 2583  11.648  13.608   3.167
30236W        W 2584  14.623  24.189  12.544
30237W        W 2585   1.247  42.496  14.453
30238W        W 2586   1.415  16.178   1.795
30239W        W 2587   0.805  23.734  13.882
30240W        W 2588  12.781  16.231  14.317
30241W        W 2589  34.038   4.778  10.041
30242W        W 2590  14.099  11.762  13.820
30243W        W 2591  44.922  18.090   4.811
30244W        W 2592  39.996  28.651   2.867
30245W        W 2593  43.820  25.160   4.625
30246W        W 2594  41.946   1.465   2.880
30247W        W 2595  11.776  29.518   2.300
30248W        W 2596  36.845   7.366  11.568
30249W        W 2597  36.543  23.106  14.452
30250W        W 2598  40.886  28.595   0.950
30251W        W 2599  36.916  23.058   9.473
30252W        W 2600  18.132  21.643   4.347
30253W        W 2601  26.500  43.375   3.308
30254W        W 2602   2.458   0.896   0.933
30255W        W 2603  24.721  17.143  12.861
30256W        W 2604   1.331  22.068  12.881
30257W        W 2605  24.989  28.942  14.411
30258W        W 2606  20.640  14.229   1.343
30259W        W 2607   4.318  27.501   1.766
30260W        W 2608  15.633   8.781   1.359
30261W        W 2609  41.034  14.129  13.547
30262W        W 2610  22.053   6.898   1.246
30263W        W 2611  26.681  15.758   2.839
30264W        W 2612  21.731  12.272   3.225
30265W        W 2613  16.162   2.314   2.272
30266W        W 2614  12.280  19.672   1.739
30267W        W 2615  14.202  14.690   4.754
30268W        W 2616  44.374  30.584  12.868
30269W        W 2617  26.183  12.234   1.260
30270W        W 2618  38.327  42.971   3.765
30271W        W 2619   3.238   6.860   2.222
30272W        W 2620  23.146  31.428  10.949
30273W        W 2621  44.305   8.697   4.143
30274W        W 2622  23.141  40.391   0.409
30275W        W 2623  38.382  17.127   2.250
30276W        W 2624  39.024  31.641  10.115
30277W        W 2625  36.874  17.773   2.242
30278W        W 2626  24.009   1.399  12.543
30279W        W 2627  41.029  28.100  11.888
30280W        W 2628  36.077   7.757   5.271
30281W        W 2629  34.437  10.249   3.312
30282W        W 2630  24.682   4.826   1.422
30283W        W 2631   7.380  28.139   3.688
30284W        W 2632  20.254  19.760   4.632
30285W        W 2633  32.094  35.542   3.771
30286W        W 2634  15.203  13.351  14.504
30287W        W 2635  42.023  40.496  14.917
30288W        W 2636  27.664  39.558  10.642
30289W        W 2637  33.470   0.354   1.798
30290W        W 2638  20.714  13.139   2.777
30291W        W 2639   2.743   3.257  11.070
30292W        W 2640  36.537  13.347   1.398
30293W        W 2641  18.255  33.614  10.584
30294W        W 2642   1.927   3.930   1.387
30295W        W 2643  34.890  42.412  14.984
30296W        W 2644  41.822  29.118  11.026
30297W        W 2645  28.145  39.053  13.910
30298W        W 2646  32.636  14.596  13.871
30299W        W 2647  22.638  17.561  10.497
30300W        W 2648   8.725  41.523  14.325
30301W        W 2649   6.868   3.272   2.348
30302W        W 2650  25.548   0.869  10.014
30303W        W 2651  25.588  33.499  14.501
30304W        W 2652  14.164  31.452  14.465
30305W        W 2653  12.634  31.589   0.891
30306W        W 2654  33.988  34.117  13.970
30307W        W 2655  14.666  15.189   1.816
30308W        W 2656  39.387   9.221   3.366
30309W        W 2657   8.405  42.992  14.332
30310W        W 2658  26.170  32.440   4.643
30311W        W 2659  10.689  21.662  13.332
30312W        W 2660  41.921   2.440   2.757
30313W        W 2661  28.459  26.024  14.866
30314W        W 2662   2.808   3.233  14.355
30315W        W 2663   6.302  33.511  14.446
30316W        W 2664  20.074  25.051   4.175
30317W        W 2665  25.984  26.015   3.378
30318W        W 2666  26.144   5.306  12.050
30319W        W 2667  25.694  43.499  10.929
30320W        W 2668  12.284  26.520  14.487
30321W        W 2669  28.629  20.753  13.969
30322W        W 2670  19.129  42.375  11.044
30323W        W 2671   0.904  26.081   2.896
30324W        W 2672  10.380  13.195  14.403
30325W        W 2673   6.790  13.803  13.337
30326W        W 2674  26.600  20.105  13.417
30327W        W 2675   9.819   6.732  13.479
30328W        W 2676  22.997  44.322   3.842
30329W        W 2677  39.451   2.416   2.179
30330W        W 2678  20.593  32.998  12.965
30331W        W 2679  41.389  38.012  14.808
30332W        W 2680  37.922  40.489  12.065
30333W        W 2681   0.296  44.926   4.347
30334W        W 2682  43.395  24.487   1.382
30335W        W 2683  44.799  12.841  14.397
30336W        W 2684   4.916   0.864   1.914
30337W        W 2685  15.085  11.738   9.983
30338W        W 2686  21.123   4.734  10.580
30339W        W 2687  20.703   7.414  14.910
30340W        W 2688  21.165  20.097   0.862
30341W        W 2689  19.646   0.973   0.413
30342W        W 2690   3.797  25.194  10.414
30343W        W 2691  43.509  10.315   0.354
30344W        W 2692  10.691  27.664  14.943
30345W        W 2693  36.413  40.429  13.943
30346W        W 2694   8.723  11.708  11.507
30347W        W 2695  19.120  42.452   2.263
30348W        W 2696   4.750  38.076   3.788
30349W        W 2697  17.261  33.992   3.786
30350W        W 2698  36.879  27.644  12.837
30351W        W 2699   3.365  30.420  10.141
30352W        W 2700  33.490   1.804  12.443
30353W        W 2701  11.369  27.166   4.124
30354W        W 2702  34.011  40.953   0.885
30355W        W 2703   9.811  25.013  12.492
30356W        W 2704   1.263  20.591  14.966
30357W        W 2705  25.628  13.153   2.312
30358W        W 2706  34.394   2.898   4.187
30359W        W 2707  27.462   4.917  13.516
30360W        W 2708  17.134  40.469   4.168
30361W        W 2709  44.421  27.496  13.887
30362W        W 2710  40.996  17.614   2.203
30363W        W 2711   2.295   2.855   2.219
30364W        W 2712  19.722  39.924  14.504
30365W        W 2713  44.261  14.770  11.474
30366W        W 2714  30.492  27.107  14.427
30367W        W 2715  22.595   2.853   2.676
30368W        W 2716  17.261  30.535   0.784
30369W        W 2717  35.109  13.282   2.685
30370W        W 2718  34.983  43.283   4.671
30371W        W 2719  44.419   9.756  13.909
30372W        W 2720  28.612  24.658   3.358
30373W        W 2721  32.594  36.067  10.553
30374W        W 2722  33.597  19.197  10.581
30375W        W 2723  32.037  28.518   1.813
30376W        W 2724  12.633   8.366   3.726
30377W        W 2725  43.823  23.992  14.837
30378W        W 2726  20.721  24.006   4.645
30379W        W 2727  20.698  28.143   1.732
30380W        W 2728   4.335  44.349   4.232
30381W        W 2729  16.245   1.891   0.744
30382W        W 2730  36.500  38.001  11.885
30383W        W 2731  42.289  26.044   2.764
30384W        W 2732  43.921  41.800   0.432
30385W        W 2733  29.009  44.318   1.935
30386W        W 2734  44.323   1.776   0.381
30387W        W 2735  29.035  19.651   1.906
30388W        W 2736  37.402  36.474   4.683
30389W        W 2737  36.461  23.531  14.943
30390W        W 2738  15.742  30.532   2.351
30391W        W 2739  12.839  32.562   3.377
30392W        W 2740  42.430  19.248   3.814
30393W        W 2741  38.406   3.262   4.656
30394W        W 2742  41.300  30.042   2.238
30395W        W 2743  25.192  31.988  10.494
30396W        W 2744  33.021   1.326  13.792
30397W        W 2745  20.175  24.542  14.837
30398W        W 2746  14.292  20.721   1.304
30399W        W 2747  25.547  23.656  11.071
30400W        W 2748  37.410  33.978  11.416
30401W        W 2749  41.515  25.655  12.528
30402W        W 2750  17.218  25.125  14.431
30403W        W 2751  17.062  41.367   5.318
30404W        W 2752  25.544  21.082  12.504
30405W        W 2753  34.401  16.664   3.638
30406W        W 2754  22.544  44.403  11.068
30407W        W 2755   7.788  36.919  10.540
30408W        W 2756  41.041   4.730   1.913
30409W        W 2757  39.013  23.135  12.001
30410W        W 2758   7.181   4.766  12.578
30411W        W 2759  17.221  32.961  11.955
30412W        W 2760  28.099   7.225   1.212
30413W        W 2761  39.949   2.420  14.998
30414W        W 2762  44.285  38.421   3.359
30415W        W 2763  14.714  21.636   1.906
30416W        W 2764  32.931   9.758  11.105
30417W        W 2765  28.471  30.627   4.157
30418W        W 2766   6.807   3.854  10.441
30419W        W 2767   4.245  40.496   0.778
30420W        W 2768  13.294  38.508  11.024
30421W        W 2769  40.847  16.609  10.471
30422W        W 2770  32.006  35.926   0.732
30423W        W 2771   5.431  27.044  13.460
30424W        W 2772  39.333   7.261   2.724
30425W        W 2773  39.485  18.652   0.417
30426W        W 2774   0.947  14.132   1.904
30427W        W 2775   9.769   2.936  12.964
30428W        W 2776  16.811  28.563  12.909
30429W        W 2777  28.096  38.421  12.368
30430W        W 2778  33.007  15.669  10.436
30431W        W 2779  41.860   0.360  11.027
30432W        W 2780  43.874  22.079  14.898
30433W        W 2781   3.822  24.179  11.094
30434W        W 2782  31.432  20.547  11.068
30435W        W 2783  24.651   6.403  14.016
30436W        W 2784  42.940  23.717  12.339
30437W        W 2785  42.864  21.059   3.174
30438W        W 2786  23.696  10.735   3.340
30439W        W 2787   3.395  43.392  14.331
30440W        W 2788  44.500  18.708   5.259
30441W        W 2789  26.965  12.139   4.253
30442W        W 2790   8.859   3.822  12.550
30443W        W 2791  22.154   9.319   9.457
30444W        W 2792  10.718   3.746   9.612
30445W        W 2793  28.557   4.909   4.308
30446W        W 2794  16.797  44.307  11.120
30447W        W 2795  14.599  23.580   0.888
30448W        W 2796  13.174  39.962   0.823
30449W        W 2797  21.208   5.727   1.384
30450W        W 2798   2.442  23.190   2.381
30451W        W 2799  17.275  11.684   5.231
30452W        W 2800  43.285   5.788  11.044
30453W        W 2801  10.177  22.019  11.953
30454W        W 2802  28.652  18.152  13.857
30455W        W 2803  28.942  41.810  13.842
30456W        W 2804  12.147  35.572   2.416
30457W        W 2805  29.996  21.243   2.755
30458W        W 2806  18.135  20.735  10.411
30459W        W 2807  17.133  16.193   4.246
30460W        W 2808  40.315   3.341   1.834
30461W        W 2809  26.159  26.551   1.926
30462W        W 2810  19.270  19.613  11.943
30463W        W 2811  32.916  24.506  12.011
30464W        W 2812  37.027   0.967  12.494
30465W        W 2813  40.532  44.461   4.732
30466W        W 2814  37.426  36.370   2.315
30467W        W 2815  27.946  15.694   2.209
30468W        W 2816  43.945  22.560  14.852
30469W        W 2817  29.038  40.819   2.867
30470W        W 2818  21.545  22.213  13.335
30471W        W 2819  17.207  42.009  14.441
30472W        W 2820  36.912  41.018   1.778
30473W        W 2821   7.303  36.554  14.312
30474W        W 2822  19.134  43.372   0.342
30475W        W 2823  10.757  26.510  10.414
30476W        W 2824  12.237  38.916  11.553
30477W        W 2825  34.536  42.981  13.860
30478W        W 2826   9.183   4.858  12.483
30479W        W 2827  12.216  40.454  12.918
30480W        W 2828  24.027  14.108  13.854
30481W        W 2829   4.311  36.934   0.912
30482W        W 2830  30.492   7.298  10.454
30483W        W 2831   2.428  17.150  14.302
30484W        W 2832   1.302  15.795  10.908
30485W        W 2833  28.000   4.307  13.954
30486W        W 2834  25.024  29.972   2.898
30487W        W 2835  29.610   7.742   4.180
30488W        W 2836   7.341  17.617  14.512
30489W        W 2837   2.241  23.165  10.545
30490W        W 2838   7.178   6.914   1.245
30491W        W 2839  42.887  11.242   2.712
30492W        W 2840  27.459   7.906  14.438
30493W        W 2841  23.682  40.499   0.302
30494W        W 2842   9.875  44.964   3.232
30495W        W 2843  39.359  40.939  10.627
30496W        W 2844  43.391  22.083  11.378
30497W        W 2845  15.321   9.890   3.333
30498W        W 2846  35.463   3.834   1.821
30499W        W 2847  37.858  23.599  13.934
30500W        W 2848  25.522  43.899   2.715
30501W        W 2849   7.752  21.057  13.314
30502W        W 2850  35.961  29.118  11.030
30503W        W 2851  37.023  31.542   1.768
30504W        W 2852   7.372  24.054   2.787
30505W        W 2853  36.881  10.228  14.018
30506W        W 2854  12.801  27.995  11.525
30507W        W 2855  41.001  39.906  11.467
30508W        W 2856  36.463  15.109  13.850
30509W        W 2857  29.508  37.474   3.277
30510W        W 2858  25.128   8.734   2.304
30511W        W 2859  21.099   1.890   2.739
30512W        W 2860  25.124  21.741   3.699
30513W        W 2861  19.185  24.110  13.453
30514W        W 2862  36.094   7.387  12.444
30515W        W 2863  11.359  29.975  13.864
30516W        W 2864  29.100  33.922   0.420
30517W        W 2865  22.030  30.522   3.663
30518W        W 2866  27.644  12.746  11.969
30519W        W 2867  30.590  21.576   2.804
30520W        W 2868  37.422   0.962  12.876
30521W        W 2869  22.716  31.477  11.879
30522W        W 2870  21.251  14.752   3.231
30523W        W 2871  30.427   0.752  13.876
30524W        W 2872  11.733  40.466  12.496
30525W        W 2873  15.151   9.381   2.677
30526W        W 2874  25.197  12.237   4.716
30527W        W 2875  20.047  19.100   4.800
30528W        W 2876  13.215  23.162  11.529
30529W        W 2877  25.187  41.902  13.465
30530W        W 2878  43.955  25.566   4.678
30531W        W 2879  26.532  11.351  11.524
30532W        W 2880  44.291  36.356   3.791
30533W        W 2881  26.509  41.496   3.704
30534W        W 2882  19.768  27.983   2.295
30535W        W 2883  37.866  27.990   0.811
30536W        W 2884   5.196  13.182   2.772
30537W        W 2885  13.796  15.124   1.218
30538W        W 2886  25.476   6.806   1.786
30539W        W 2887   8.838  35.403  13.498
30540W        W 2888   1.964  43.438   0.321
30541W        W 2889   7.314  38.884   0.407
30542W        W 2890  44.838  26.498   0.268
30543W        W 2891  24.096  18.632   2.224
30544W        W 2892  23.729  31.085   3.751
30545W        W 2893  10.201  33.921  10.459
30546W        W 2894  18.210  41.798   2.242
30547W        W 2895  26.530  36.997  12.925
30548W        W 2896  12.318  43.430   2.312
30549W        W 2897  39.541   1.793  11.946
30550W        W 2898   7.275  22.510  11.957
30551W        W 2899  12.173  40.027  13.953
30552W        W 2900  44.322  30.993   4.830
30553W        W 2901   9.651  10.341  13.343
30554W        W 2902   5.727  13.212   0.347
30555W        W 2903  20.598  42.863   3.264
30556W        W 2904  43.983   1.460  10.887
30557W        W 2905  13.131  10.706  12.420
30558W        W 2906  41.885  12.316   2.266
30559W        W 2907  30.988  14.198   4.141
30560W        W 2908  25.966  15.212  12.436
30561W        W 2909  27.504  15.755   2.262
30562W        W 2910  12.644  19.721  14.801
30563W        W 2911  44.470  38.464  12.533
30564W        W 2912  35.868  16.282  12.854
30565W        W 2913  28.096  30.141  13.467
30566W        W 2914  42.971  40.926  12.008
30567W        W 2915  11.348  24.042  11.566
30568W        W 2916   2.721  16.238   0.801
30569W        W 2917   1.387  20.549  12.878
30570W        W 2918   7.878  11.301  13.928
30571W        W 2919  34.113   9.786   2.374
30572W        W 2920  35.068  35.471   3.812
30573W        W 2921  11.695  25.474   3.669
30574W        W 2922  33.468  16.288   2.383
30575W        W 2923  29.469  11.719   2.258
30576W        W 2924  30.615  29.105   1.429
30577W        W 2925  38.330   5.292  13.355
30578W        W 2926  36.439  11.660  12.528
30579W        W 2927  27.456  21.570   3.658
30580W        W 2928  15.107   7.795   2.778
30581W        W 2929  16.680  11.748  10.619
30582W        W 2930  19.714   2.350   0.369
30583W        W 2931   5.376  21.139  13.437
30584W        W 2932   0.457  13.620   1.405
30585W        W 2933   6.825  10.383   2.313
30586W        W 2934  12.738   5.857   0.924
30587W        W 2935  17.066  21.020   1.726
30588W        W 2936  32.423  19.644   4.728
30589W        W 2937  14.606  43.393  13.324
30590W        W 2938  23.100  26.127   0.826
30591W        W 2939  38.005  23.155   0.886
30592W        W 2940   6.908   6.417  11.104
30593W        W 2941   8.672  12.226   1.276
30594W        W 2942  27.474  34.883  13.866
30595W        W 2943   9.368  14.780   4.248
30596W        W 2944   2.819  18.653  11.977
30597W        W 2945  44.477  35.062   3.183
30598W        W 2946  41.351   9.289   3.809
30599W        W 2947  33.115  37.400   9.582
30600W        W 2948  37.553  32.930  14.283
30601W        W 2949  16.580   5.384   2.329
30602W        W 2950  15.628  44.990   0.442
30603W        W 2951  15.308  27.563  12.022
30604W        W 2952   1.797  38.476  11.444
30605W        W 2953  37.390  11.746  11.550
30606W        W 2954  38.377   6.248   5.187
30607W        W 2955  18.212  27.527   4.758
30608W        W 2956  34.942  30.471   1.932
30609W        W 2957  22.504  30.422  11.019
30610W        W 2958  18.728  37.460  12.877
30611W        W 2959  11.326  11.233  14.413
30612W        W 2960   5.893  24.568  12.349
30613W        W 2961  19.201  43.837  10.997
30614W        W 2962  44.364  40.974   0.363
30615W        W 2963   1.436  18.751   4.619
30616W        W 2964  10.221   7.725   0.881
30617W        W 2965   6.324  28.141   1.806
30618W        W 2966  27.015  22.167   4.175
30619W        W 2967  35.470  14.330   4.229
30620W        W 2968   2.384   0.381  12.855
30621W        W 2969  24.197  12.690  13.341
30622W        W 2970   9.205   5.868   0.348
30623W        W 2971   5.237  18.088   2.846
30624W        W 2972  25.069  25.642   2.808
30625W        W 2973  32.070  13.699  10.954
30626W        W 2974   8.174  21.063   4.715
30627W        W 2975  23.039   9.835  13.333
30628W        W 2976  27.136   1.323   3.219
30629W        W 2977  41.944  21.037  14.789
30630W        W 2978   5.204   2.468   1.863
30631W        W 2979  38.396  44.280   3.325
30632W        W 2980   0.275  23.675  13.424
30633W        W 2981  15.815   8.326   3.152
30634W        W 2982  15.795  34.928  10.574
30635W        W 2983  27.091  34.974  13.428
30636W        W 2984  30.039  43.465  11.473
30637W        W 2985  44.795  43.963   1.816
30638W        W 2986  35.993  21.183  13.889
30639W        W 2987  16.239  29.058   3.248
30640W        W 2988  12.790  25.570  11.067
30641W        W 2989  12.707  34.884   0.337
30642W        W 2990  17.722  37.554   0.739
30643W        W 2991  25.478  26.011   4.342
30644W        W 2992  18.116  16.706   1.344
30645W        W 2993  20.065  31.436  13.502
30646W        W 2994  18.612  31.591   5.099
30647W        W 2995  40.925  33.428  14.783
30648W        W 2996  35.519   7.403   1.729
30649W        W 2997  25.606   4.205   3.148
30650W        W 2998   6.425  11.366  12.964
30651W        W 2999  23.590  23.671  10.475
30652W        W 3000  43.929   6.299  12.459
30653W        W 3001  42.400  19.776   2.336
30654W        W 3002  29.056  36.499  13.527
30655W        W 3003  34.416  10.257   1.853
30656W        W 3004  25.547  20.534  13.058
30657W        W 3005  22.069  38.361   0.811
30658W        W 3006  16.074  17.282   2.303
30659W        W 3007  43.466   7.699  12.423
30660W        W 3008  15.202  28.075  13.957
30661W        W 3009  29.979  24.189   0.877
30662W        W 3010  23.017  38.014  12.007
30663W        W 3011  21.108  39.047  10.589
30664W        W 3012  21.142  42.943  13.903
30665W        W 3013  12.660  37.871   0.253
30666W        W 3014  27.446  35.066  14.836
30667W        W 3015  38.437  14.165  10.450
30668W        W 3016   3.236   0.798   1.393
30669W        W 3017  18.555  29.651   2.822
30670W        W 3018   4.403  44.353  14.501
30671W        W 3019   1.975   0.836  12.076
30672W        W 3020  33.557  17.560   4.187
30673W        W 3021  18.288   9.322  13.817
30674W        W 3022  19.224  40.960   4.772
30675W        W 3023  41.406   6.862   2.681
30676W        W 3024  38.500  29.448  11.574
30677W        W 3025  18.106  30.942  11.007
30678W        W 3026   6.311   9.885  14.905
30679W        W 3027  39.325  23.994   0.793
30680W        W 3028  16.699  17.662  14.942
30681W        W 3029  28.482  15.301   0.727
30682W        W 3030  27.648  19.698  12.891
30683W        W 3031  19.626  23.208   2.297
30684W        W 3032   1.940  15.736  12.521
30685W        W 3033   8.723   5.405   0.372
30686W        W 3034  37.574  29.474  12.514
30687W        W 3035  13.287   8.767   1.711
30688W        W 3036  42.410  19.628   2.687
30689W        W 3037  13.621  18.075   1.778
30690W        W 3038  22.672  23.184  11.047
30691W        W 3039  33.562  34.568  14.792
30692W        W 3040  14.323  18.645   1.893
30693W        W 3041  35.991  22.573   4.153
30694W        W 3042  39.022   4.306  10.526
30695W        W 3043  35.561   9.803   2.355
30696W        W 3044   7.197  17.791   4.635
30697W        W 3045  21.659  16.167   0.909
30698W        W 3046  30.034  40.820   0.960
30699W        W 3047  41.945  33.915  13.893
30700W        W 3048   4.770   6.816  11.529
30701W        W 3049   7.667   3.809   3.339
30702W        W 3050   5.752  20.550   1.352
30703W        W 3051  42.925  40.435   3.651
30704W        W 3052  43.989  14.166   4.779
30705W        W 3053  28.527  30.494   3.152
30706W        W 3054  33.881  28.169   3.260
30707W        W 3055  21.607   5.696   2.682
30708W        W 3056  12.270  30.422   1.780
30709W        W 3057   8.172  40.980  12.449
30710W        W 3058   8.665  27.574  13.452
30711W        W 3059  26.523  40.976   2.780
30712W        W 3060   8.167  12.611  12.399
30713W        W 3061  22.682  23.067  14.992
30714W        W 3062   7.171  27.666  14.452
30715W        W 3063  42.374   4.788  10.914
30716W        W 3064  42.916  12.348  13.046
30717W        W 3065  25.706  31.943  11.538
30718W        W 3066   3.385  38.412   3.203
30719W        W 3067  25.676  12.245   2.745
30720W        W 3068  29.640  42.300  11.863
30721W        W 3069  14.625  28.630  13.414
30722W        W 3070  38.439  36.539   1.434
30723W        W 3071  30.499  44.977   3.213
30724W        W 3072  17.240  39.543   1.394
30725W        W 3073   8.807  33.408  12.393
30726W        W 3074  31.579  27.126   3.350
30727W        W 3075  35.592  25.626   3.312
30728W        W 3076  41.016   6.309   0.423
30729W        W 3077  32.992   7.397  13.949
30730W        W 3078  25.544  30.445  11.047
30731W        W 3079  19.639  42.979  10.502
30732W        W 3080  23.722  11.201  13.986
30733W        W 3081  33.927  17.266  13.993
30734W        W 3082  26.053  12.843   3.696
30735W        W 3083  31.564   5.342   1.759
30736W        W 3084   0.841  22.553  12.869
30737W        W 3085  30.972  38.341   3.292
30738W        W 3086  38.861  30.077  13.401
30739W        W 3087  42.500   9.308   3.169
30740W        W 3088   0.443   9.187   4.330
30741W        W 3089  41.800  27.117   4.616
30742W        W 3090  17.143  29.045  12.996
30743W        W 3091  26.626  28.132  13.051
30744W        W 3092  35.041  40.035   0.304
30745W        W 3093  26.108   9.721  11.008
30746W        W 3094  44.343  21.061   4.350
30747W        W 3095  18.778  44.873   1.759
30748W        W 3096  25.688  37.087   3.684
30749W        W 3097   3.802   9.221   0.366
30750W        W 3098   8.705   9.293   2.668
30751W        W 3099  35.874  25.714  14.322
30752W        W 3100  23.059  32.530  13.540
30753W        W 3101  28.959  36.960   1.928
30754W        W 3102   8.799  23.091   0.750
30755W        W 3103  28.986  28.573  11.608
30756W        W 3104  42.482   8.221   2.406
30757W        W 3105  34.052  11.752   2.799
30758W        W 3106  43.967   0.308  12.392
30759W        W 3107  38.923  13.845  10.639
30760W        W 3108  38.419  36.983  14.423
30761W        W 3109  19.655   8.216   2.730
30762W        W 3110   9.860  18.287  10.458
30763W        W 3111  23.537   7.317   3.702
30764W        W 3112   0.863  16.105   4.134
30765W        W 3113  41.484  42.985  11.497
30766W        W 3114  11.715  26.995   2.337
30767W        W 3115  31.573   3.236  13.495
30768W        W 3116  29.032  28.008  14.895
30769W        W 3117   5.892  38.489   0.903
30770W        W 3118  31.121  44.935   3.247
30771W        W 3119  32.135  41.862   3.366
30772W        W 3120   3.803  44.261   2.196
30773W        W 3121   5.204  32.038   1.314
30774W        W 3122  34.004   5.338   1.301
30775W        W 3123  18.778  18.247  13.011
30776W        W 3124  17.654  40.018  13.471
30777W        W 3125  38.409  20.593   3.732
30778W        W 3126  15.253  19.609   4.733
30779W        W 3127  21.545  10.682   0.423
30780W        W 3128  32.481  15.084   2.243
30781W        W 3129  19.567   1.936  12.950
30782W        W 3130   7.911  23.236   4.341
30783W        W 3131  23.042  35.863   1.911
30784W        W 3132  43.378  14.337  14.488
30785W        W 3133  41.835  16.727  13.952
30786W        W 3134  14.655  19.265  10.895
30787W        W 3135  35.021  36.407  13.048
30788W        W 3136  39.811  44.832   0.743
30789W        W 3137  13.737  18.578  10.931
30790W        W 3138   8.894   3.863   0.355
30791W        W 3139  29.629  14.178  14.327
30792W        W 3140  32.991  29.114   1.318
30793W        W 3141   5.235   1.883   0.437
30794W        W 3142   5.392  39.494  13.870
30795W        W 3143  36.844  17.757  14.349
30796W        W 3144  44.830  20.155   4.776
30797W        W 3145  15.591  40.463   0.940
30798W        W 3146  18.265  37.468  11.387
30799W        W 3147  22.194   0.761   2.711
30800W        W 3148  14.260  25.111  10.454
30801W        W 3149  11.746  25.493   3.200
30802W        W 3150  39.392  41.374  13.496
30803W        W 3151  27.691  16.131   0.839
30804W        W 3152  29.475  23.185  14.020
30805W        W 3153   2.942   8.211   3.783
30806W        W 3154  15.110  39.911  11.513
30807W        W 3155   2.374  15.143  14.386
30808W        W 3156  22.136  14.667  10.407
30809W        W 3157  17.653  16.659  14.968
30810W        W 3158  25.995  44.438  13.495
30811W        W 3159   3.869  42.419   1.768
30812W        W 3160  40.341   0.366  14.334
30813W        W 3161   6.831  24.057   2.374
30814W        W 3162  42.322  20.580  14.840
30815W        W 3163  28.062  26.102   4.740
30816W        W 3164  44.337  19.042   2.807
30817W        W 3165  18.690  42.381  13.319
30818W        W 3166  21.635  34.985  11.939
30819W        W 3167  17.072  20.223  13.367
30820W        W 3168   6.716  36.412   3.273
30821W        W 3169  14.262  29.983  12.390
30822W        W 3170   6.678  16.196   4.234
30823W        W 3171  41.829   3.794   3.321
30824W        W 3172  10.181   4.831  12.343
30825W        W 3173  41.967  32.896  11.958
30826W        W 3174  32.938  19.745   1.883
30827W        W 3175   3.832  42.887  11.876
30828W        W 3176  29.028  16.764  14.897
30829W        W 3177  29.479  15.315  11.915
30830W        W 3178  31.514  17.257   1.393
30831W        W 3179  25.193  26.654   4.315
30832W        W 3180  37.551  29.968   2.839
30833W        W 3181  27.177   3.258  12.482
30834W        W 3182  38.885  37.520  12.394
30835W        W 3183  38.567   5.198   0.945
30836W        W 3184  42.888  36.942  14.920
30837W        W 3185  34.459  36.975   2.887
30838W        W 3186  41.009  28.622   0.306
30839W        W 3187  32.914  20.527  12.538
30840W        W 3188  29.592  16.568  10.034
30841W        W 3189  35.497   4.374   2.313
30842W        W 3190  33.064   3.941   0.776
30843W        W 3191   7.285  29.642   1.726
30844W        W 3192  22.111  22.672  11.385
30845W        W 3193  27.600  11.853  13.386
30846W        W 3194  36.021  16.272   2.741
30847W        W 3195  41.490  15.591   5.242
30848W        W 3196   2.741  18.190  12.556
30849W        W 3197  28.647  32.570  12.985
30850W        W 3198  10.285  21.599   9.935
30851W        W 3199  18.787  15.815   3.306
30852W        W 3200  15.234  40.949  13.320
30853W        W 3201  39.819   9.273   0.251
30854W        W 3202  12.840  24.015  10.969
30855W        W 3203  12.217  19.119   2.196
30856W        W 3204  12.227  34.574  14.968
30857W        W 3205  29.656  19.779   1.894
30858W        W 3206  22.205   9.212  11.587
30859W        W 3207  16.764  34.450  14.031
30860W        W 3208  43.417  25.602  13.348
30861W        W 3209   5.707  28.085   2.244
30862W        W 3210  42.393  33.110  10.933
30863W        W 3211  17.712  20.112   0.917
30864W        W 3212   7.260   6.391   2.837
30865W        W 3213  15.696   8.206   1.842
30866W        W 3214  32.042  31.480   2.307
30867W        W 3215   3.456  34.564  10.896
30868W        W 3216  40.884  39.027  13.382
30869W        W 3217  12.194   0.905  14.379
30870W        W 3218   5.388  17.165   2.778
30871W        W 3219   9.227   8.887   0.435
30872W        W 3220  34.094   9.240  10.436
30873W        W 3221  31.646  23.555   1.741
30874W        W 3222  33.103  39.389  12.442
30875W        W 3223  13.805  38.824  14.408
30876W        W 3224  14.291  28.627  11.460
30877W        W 3225  42.978   3.306  13.398
30878W        W 3226  12.659   2.784   1.794
30879W        W 3227   3.902  31.541  11.016
30880W        W 3228  27.651  34.986   1.697
30881W        W 3229  16.618  20.603   0.469
30882W        W 3230  44.330  35.999  11.467
30883W        W 3231  14.801  29.002   4.703
30884W        W 3232  24.576  42.372  12.491
30885W        W 3233  24.688  31.409  11.388
30886W        W 3234   6.297  31.477   4.797
30887W        W 3235  34.978  13.819  11.100
30888W        W 3236  34.978  25.124   5.158
30889W        W 3237  16.111   7.240   0.802
30890W        W 3238   4.835  42.016  10.901
30891W        W 3239  22.509  25.503   4.801
30892W        W 3240  42.313   4.373  12.069
30893W        W 3241  22.090  19.617  10.456
30894W        W 3242  42.025  19.055   0.386
30895W        W 3243  24.511   0.291  12.390
30896W        W 3244  41.968  15.731   5.082
30897W        W 3245  38.492  26.674  11.113
30898W        W 3246   7.378   1.284   3.693
30899W        W 3247   1.945  19.134   2.876
30900W        W 3248  39.455  44.478  12.005
30901W        W 3249   9.184  20.250  11.605
30902W        W 3250  33.917  15.617  12.436
30903W        W 3251  21.202  35.523   0.962
30904W        W 3252   0.847  18.668   4.755
30905W        W 3253  22.056  20.041   1.843
30906W        W 3254  25.164  37.407   4.214
30907W        W 3255  20.690  18.757   2.868
30908W        W 3256  29.615  15.181   3.212
30909W        W 3257  34.592  27.611   4.319
30910W        W 3258  14.713   1.959   1.410
30911W        W 3259   1.426  42.335  12.911
30912W        W 3260  31.048  30.095   2.849
30913W        W 3261  43.846  17.108   2.410
30914W        W 3262  34.516  23.107   4.231
30915W        W 3263  28.622  37.489   1.835
30916W        W 3264  14.639  30.614  14.436
30917W        W 3265  32.590   1.436  10.547
30918W        W 3266  42.877  18.684  10.569
30919W        W 3267   8.795  41.400  14.022
30920W        W 3268  20.265  28.556   0.357
30921W        W 3269   9.772  28.670  14.777
30922W        W 3270  27.000   2.760  11.024
30923W        W 3271  13.822  19.212   4.352
30924W        W 3272   7.313  35.109  12.348
30925W        W 3273  32.446   9.371  13.800
30926W        W 3274  44.974  18.634  11.580
30927W        W 3275  22.726   1.446   2.307
30928W        W 3276  36.402  34.014  11.106
30929W        W 3277   4.939  24.984  13.369
30930W        W 3278   2.950  30.933  11.435
30931W        W 3279  18.692  15.611   4.612
30932W        W 3280  40.506  10.697   2.799
30933W        W 3281  36.376  18.556   1.323
30934W        W 3282   2.460  12.632   0.322
30935W        W 3283  13.209   3.438  13.367
30936W        W 3284   0.778   9.294  13.394
30937W        W 3285  22.067  22.036   0.938
30938W        W 3286  40.028  10.638   1.822
30939W        W 3287  10.757  36.010  13.367
30940W        W 3288  30.996  41.337   0.301
30941W        W 3289  31.989   3.857  12.372
30942W        W 3290  17.093  42.281  12.989
30943W        W 3291  20.622  31.904  10.944
30944W        W 3292  10.675   3.272   1.848
30945W        W 3293  32.122  17.207  14.892
30946W        W 3294  17.181  26.696   2.286
30947W        W 3295  37.077  13.339   3.815
30948W        W 3296  20.232  37.039  12.988
30949W        W 3297  19.664  31.568   0.449
30950W        W 3298  33.573  36.404  13.918
30951W        W 3299  14.273  44.358   3.830
30952W        W 3300  44.340  44.806   1.861
30953W        W 3301  41.300  22.696   4.285
30954W        W 3302  26.661  40.804  13.342
30955W        W 3303  14.606  33.894  14.440
30956W        W 3304  30.115  24.066  11.495
30957W        W 3305  23.993  43.427  13.438
30958W        W 3306  33.558  15.641  12.391
30959W        W 3307  27.992  36.012   0.318
30960W        W 3308  16.687  28.950  12.011
30961W        W 3309   8.833  23.684   2.670
30962W        W 3310  13.695  30.965  11.521
30963W        W 3311  27.016  25.577   2.849
30964W        W 3312  42.318   2.421   3.202
30965W        W 3313   0.989  19.595  13.858
30966W        W 3314   4.737  13.289   2.704
30967W        W 3315  26.588   0.789  12.033
30968W        W 3316  26.636  12.289   0.831
30969W        W 3317  38.480  15.674   3.334
30970W        W 3318  33.538  21.675  10.076
30971W        W 3319  23.715  11.206   4.335
30972W        W 3320  30.596   8.267  12.940
30973W        W 3321   9.263  22.214   2.198
30974W        W 3322  17.237  12.141   3.712
30975W        W 3323  29.119  28.437  14.350
30976W        W 3324  19.640  25.149  10.502
30977W        W 3325   5.905  32.937  10.561
30978W        W 3326  36.901   7.845   2.329
30979W        W 3327  11.169  34.984  11.580
30980W        W 3328   0.454   6.309  13.933
30981W        W 3329  27.080  14.222   0.761
30982W        W 3330   9.720  10.194   1.408
30983W        W 3331   1.349  28.973   3.701
30984W        W 3332  18.193  44.385   0.264
30985W        W 3333   4.781  11.295  11.495
30986W        W 3334   8.866  38.368   4.194
30987W        W 3335  12.310  39.869  10.945
30988W        W 3336  27.588   7.193   0.368
30989W        W 3337  42.402  15.184   2.745
30990W        W 3338  35.911  23.542   1.247
30991W        W 3339  35.469  29.542   0.926
30992W        W 3340  26.521  31.928  13.499
30993W        W 3341   9.223  40.941  14.020
30994W        W 3342  40.048  38.434   1.865
30995W        W 3343  19.129  43.348   2.865
30996W        W 3344  33.567  44.997  12.442
30997W        W 3345  14.629  41.525   1.280
30998W        W 3346   3.755  18.629  13.010
30999W        W 3347  43.966  23.667  10.463
31000W        W 3348  34.863  40.870  12.540
31001W        W 3349   3.408  18.092   2.373
31002W        W 3350  14.760  28.654  10.433
31003W        W 3351   6.189  29.460   0.873
31004W        W 3352  28.163  42.808   2.865
31005W        W 3353  11.694   8.216   3.679
31006W        W 3354   8.720  20.054   4.793
31007W        W 3355  43.467   9.312   1.798
31008W        W 3356  28.555  42.429   1.834
31009W        W 3357  27.630   5.895   0.414
31010W        W 3358   5.435  20.187   2.761
31011W        W 3359  27.144   5.921  11.920
31012W        W 3360  22.234  23.006   3.777
31013W        W 3361  43.435  30.089  13.909
31014W        W 3362  11.831  38.434   4.303
31015W        W 3363   5.815  33.577   1.447
31016W        W 3364  25.216  17.066  13.421
31017W        W 3365  24.602   8.707  11.546
31018W        W 3366   4.760  26.188  10.437
31019W        W 3367  19.216  32.980  12.889
31020W        W 3368  32.041   3.804  13.973
31021W        W 3369  35.437  23.122  13.030
31022W        W 3370  20.218  37.920  12.085
31023W        W 3371   7.285  28.597  10.927
31024W        W 3372  35.919   4.753   5.615
31025W        W 3373  36.957   2.813  12.475
31026W        W 3374  40.842  41.407   0.811
31027W        W 3375  32.570  33.102   4.271
31028W        W 3376  37.581  15.169  10.405
31029W        W 3377  44.860   1.826   0.749
31030W        W 3378  30.506  31.485  12.448
31031W        W 3379  22.018  44.936  10.505
31032W        W 3380  10.153  30.564   9.950
31033W        W 3381   9.671  36.995   0.338
31034W        W 3382  43.994  12.771   1.265
31035W        W 3383  13.650   5.273   4.269
31036W        W 3384   2.834  25.969  13.897
31037W        W 3385  13.331  28.038   2.769
31038W        W 3386   5.829  38.916  11.939
31039W        W 3387  14.333   8.663   1.451
31040W        W 3388  14.753  13.684  12.826
31041W        W 3389  20.646  12.174   2.900
31042W        W 3390  17.193  34.120  11.085
31043W        W 3391  33.979   7.776  11.464
31044W        W 3392  20.247   2.958  13.816
31045W        W 3393  12.340   4.814  11.552
31046W        W 3394   7.265   4.374   1.749
31047W        W 3395  11.829  21.031  13.859
31048W        W 3396  17.186  14.253  10.012
31049W        W 3397  21.247  12.694  13.453
31050W        W 3398  13.683   4.830  12.063
31051W        W 3399  38.469  33.583   0.765
31052W        W 3400  24.037   5.305   0.909
31053W        W 3401  27.016  36.576  10.408
31054W        W 3402  32.397   7.204  14.512
31055W        W 3403  43.318  21.593   0.251
31056W        W 3404  26.643  14.712   4.161
31057W        W 3405  25.114  40.984  12.376
31058W        W 3406  39.358   4.878   2.730
31059W        W 3407  19.265   3.803  11.579
31060W        W 3408  21.187  14.750  11.926
31061W        W 3409  40.050   9.802  14.822
31062W        W 3410   1.973  34.084  14.776
31063W        W 3411  41.819   2.363   4.176
31064W        W 3412   7.855  41.520   2.882
31065W        W 3413  20.717  27.182   3.657
31066W        W 3414   3.841  25.974  11.968
31067W        W 3415   3.720  36.462   0.743
31068W        W 3416  25.013   8.718   1.278
31069W        W 3417  32.966  10.658  12.453
31070W        W 3418  38.483  37.032   3.336
31071W        W 3419  19.658  26.570  12.048
31072W        W 3420  11.812  27.659   2.259
31073W        W 3421  17.746  23.603  14.462
31074W        W 3422  39.406   2.316   4.752
31075W        W 3423  33.613  34.596   4.817
31076W        W 3424  34.493  14.764   3.235
31077W        W 3425   8.831  17.791  11.477
31078W        W 3426  15.658   2.784   2.341
31079W        W 3427  27.984  23.661  10.159
31080W        W 3428  30.442  22.166   4.621
31081W        W 3429   6.290  13.688   0.402
31082W        W 3430  16.596  10.327   4.725
31083W        W 3431  25.576  29.610  14.805
31084W        W 3432  40.052  15.198   4.709
31085W        W 3433  33.585   0.376   3.792
31086W        W 3434  36.913   1.877   2.794
31087W        W 3435  12.625  36.000  14.401
31088W        W 3436  38.395  18.675   4.682
31089W        W 3437  17.799  42.797   1.405
31090W        W 3438  44.272  20.275   3.651
31091W        W 3439  23.134  38.914   0.384
31092W        W 3440  15.319  34.385   0.380
31093W        W 3441  10.678   3.335   4.310
31094W        W 3442  10.688  35.510  13.805
31095W        W 3443   7.369  33.391   5.590
31096W        W 3444  18.070  41.794   0.860
31097W        W 3445   0.937  35.534   2.321
31098W        W 3446  11.741  44.768  14.840
31099W        W 3447  10.234  28.129  11.979
31100W        W 3448   6.693  11.348  10.546
31101W        W 3449  28.134  10.162   4.326
31102W        W 3450  42.286  25.674   3.348
31103W        W 3451  26.520  23.672   1.724
31104W        W 3452  43.829  12.775   3.156
31105W        W 3453  22.539   8.305  10.144
31106W        W 3454  41.823  32.087   9.959
31107W        W 3455  24.121  28.520  13.964
31108W        W 3456  34.513  11.242  12.015
31109W        W 3457  37.907  42.487   2.775
31110W        W 3458  20.138  39.355  14.976
31111W        W 3459  13.350  17.197  11.468
31112W        W 3460  15.649  30.644   2.746
31113W        W 3461  43.375  42.343  14.812
31114W        W 3462   5.264   9.203   1.866
31115W        W 3463  20.249  35.981  10.107
31116W        W 3464   7.670  44.396   2.265
31117W        W 3465  34.615   6.304  14.468
31118W        W 3466  17.778   1.882  13.474
31119W        W 3467  22.121  37.078  13.017
31120W        W 3468  11.720   9.648   1.393
31121W        W 3469   8.235  12.212  13.307
31122W        W 3470  23.139  43.964  10.906
31123W        W 3471  41.522   9.851   2.875
31124W        W 3472   7.186  33.878  14.960
31125W        W 3473  44.313  30.463   3.855
31126W        W 3474   2.289  14.329   4.636
31127W        W 3475  14.314   6.832   2.212
31128W        W 3476   2.346  42.479   1.764
31129W        W 3477  28.164  13.285   4.217
31130W        W 3478   7.896  11.819  14.878
31131W        W 3479  23.175  10.874  10.636
31132W        W 3480  10.200   8.711   5.252
31133W        W 3481  13.282  20.229   3.320
31134W        W 3482  43.903  19.151  10.606
31135W        W 3483  12.301   0.337  12.445
31136W        W 3484   0.835  25.964  12.887
31137W        W 3485   3.734  10.355   1.259
31138W        W 3486  36.879  25.999  14.292
31139W        W 3487  29.942   2.952  12.951
31140W        W 3488  16.155  18.209  13.039
31141W        W 3489   3.858  33.972  14.416
31142W        W 3490  24.187  26.603  12.832
31143W        W 3491  20.644  11.127  11.604
31144W        W 3492  22.640   2.904  12.064
31145W        W 3493  18.230  23.099   0.816
31146W        W 3494  43.817  25.470  13.873
31147W        W 3495   3.781  18.592  13.884
31148W        W 3496  30.108  18.700  12.049
31149W        W 3497  32.402  37.010   5.652
31150W        W 3498  33.532  21.679  10.506
31151W        W 3499  19.635  44.999   1.825
31152W        W 3500  16.072  15.184  11.128
31153W        W 3501   6.389  40.388   1.814
31154W        W 3502  15.159  32.548   2.298
31155W        W 3503   0.420  24.028   4.752
31156W        W 3504   1.760  38.399   2.715
31157W        W 3505   7.802  44.406   1.389
31158W        W 3506  19.759  24.662   3.786
31159W        W 3507   3.928  22.098  13.516
31160W        W 3508  37.404  30.052  11.431
31161W        W 3509  23.216  32.623   3.641
31162W        W 3510  23.563  13.232  10.957
31163W        W 3511  15.662   7.402   0.420
31164W        W 3512  21.036  43.954   1.870
31165W        W 3513   0.284   0.446  11.545
31166W        W 3514  32.982  43.798  10.589
31167W        W 3515   4.232  44.356   2.683
31168W        W 3516   0.316  39.934   0.342
31169W        W 3517  44.990  21.612  14.944
31170W        W 3518  25.680  11.645   1.810
31171W        W 3519  16.685  40.548  14.462
31172W        W 3520  28.455  13.162  11.541
31173W        W 3521   1.347   4.424   2.752
31174W        W 3522   2.924  38.827   0.825
31175W        W 3523  40.417  24.649  13.309
31176W        W 3524   7.347  44.276  14.865
31177W        W 3525  43.374  39.459   3.222
31178W        W 3526  40.038  20.551  12.385
31179W        W 3527  24.060  38.498   0.831
31180W        W 3528  43.873  44.864  14.462
31181W        W 3529  19.702  35.517   0.952
31182W        W 3530  32.999   3.368  13.861
31183W        W 3531  30.974  23.653  10.538
31184W        W 3532  24.488   3.881   1.231
31185W        W 3533   3.813  28.178  10.950
31186W        W 3534  15.673  20.696   3.351
31187W        W 3535  33.547  12.846   5.317
31188W        W 3536  11.275  40.512   1.918
31189W        W 3537  25.521  36.918  12.521
31190W        W 3538  23.705  37.850   3.331
31191W        W 3539  37.888  35.376   3.364
31192W        W 3540  33.428  10.724   0.413
31193W        W 3541  39.407  25.506  14.308
31194W        W 3542  39.368  35.599  11.081
31195W        W 3543  42.956  36.043  10.969
31196W        W 3544   2.833   5.303   2.899
31197W        W 3545  10.258  22.525  13.906
31198W        W 3546  19.560  31.067   4.721
31199W        W 3547  19.646  12.744   4.349
31200W        W 3548  35.558  35.387  12.505
31201W        W 3549  28.951   4.703  10.639
31202W        W 3550  29.579  17.681   0.274
31203W        W 3551   7.226  27.483   2.902
31204W        W 3552  17.674  13.297   1.420
31205W        W 3553  21.751  33.058   4.826
31206W        W 3554  15.315  11.724   2.759
31207W        W 3555  18.297   2.777   0.365
31208W        W 3556  41.843  10.735   3.339
31209W        W 3557  22.741  17.780   3.814
31210W        W 3558  14.155  30.514   0.933
31211W        W 3559  28.443  34.916  12.922
31212W        W 3560  44.400  38.430   3.807
31213W        W 3561  26.464   9.153   3.313
31214W        W 3562  31.108  34.061  10.566
31215W        W 3563  28.586  35.918  10.465
31216W        W 3564  30.527  29.557  14.801
31217W        W 3565  42.911  19.189   4.198
31218W        W 3566  28.555  23.070   3.283
31219W        W 3567  25.081   1.785  14.853
31220W        W 3568  26.120  24.598   2.831
31221W        W 3569  34.992   4.797  10.508
31222W        W 3570  25.526  29.440   4.612
31223W        W 3571  44.424  30.420  11.968
31224W        W 3572   3.442  41.803  13.454
31225W        W 3573  19.700  13.702  14.358
31226W        W 3574   3.851  10.771  11.434
31227W        W 3575  40.352   6.801  12.093
31228W        W 3576  30.428  35.879   0.868
31229W        W 3577  29.584  30.613   1.361
31230W        W 3578  43.362   1.365   4.631
31231W        W 3579   0.488   5.263  12.554
31232W        W 3580  35.368  19.625   1.726
31233W        W 3581   8.244  31.082  10.038
31234W        W 3582  34.374  14.329  14.825
31235W        W 3583  19.092  10.725  12.470
31236W        W 3584  40.373   9.741   4.329
31237W        W 3585   1.385  14.106  12.897
31238W        W 3586  11.154   8.319  14.830
31239W        W 3587  26.618  38.408  11.516
31240W        W 3588  40.854  43.993  14.855
31241W        W 3589  28.040  25.216  13.853
31242W        W 3590   8.290  11.297  11.948
31243W        W 3591  12.751  31.449  11.517
31244W        W 3592  21.516  33.623  13.958
31245W        W 3593  22.007  11.333   1.389
31246W        W 3594  21.654  26.638  11.025
31247W        W 3595   8.757  19.596  13.351
31248W        W 3596  10.209  36.581  11.912
31249W        W 3597  33.079   0.415   1.790
31250W        W 3598  10.359  15.165   0.478
31251W        W 3599  44.930  23.498  13.481
31252W        W 3600   1.374  37.543   1.906
31253W        W 3601  11.787  24.205  11.941
31254W        W 3602  19.192   3.874  12.355
31255W        W 3603  27.673  24.643  13.827
31256W        W 3604  10.269  13.638  13.030
31257W        W 3605  41.860  21.202   0.355
31258W        W 3606  37.020  43.768  12.342
31259W        W 3607  36.010   7.313  13.465
31260W        W 3608  42.918  37.560   3.148
31261W        W 3609  28.018  37.031  11.472
31262W        W 3610   3.814  33.084  12.420
31263W        W 3611  21.199  25.193   2.306
31264W        W 3612   0.911  35.865   1.288
31265W        W 3613  42.978  11.629   1.760
31266W        W 3614  28.580  34.598  12.987
31267W        W 3615  21.259   9.181   5.284
31268W        W 3616  43.914  35.053   2.373
31269W        W 3617  10.653   8.215   4.341
31270W        W 3618  31.542  19.184  14.363
31271W        W 3619   0.898  17.775   2.673
31272W        W 3620  13.760   0.400  14.000
31273W        W 3621  10.294  44.970   4.624
31274W        W 3622   3.928  22.592  11.863
31275W        W 3623  41.012  26.099   2.343
31276W        W 3624   0.328  16.091   3.702
31277W        W 3625  10.278  21.080   1.227
31278W        W 3626   3.282  13.717  14.509
31279W        W 3627  39.401  24.007  12.841
31280W        W 3628  30.087  24.008  11.112
31281W        W 3629  38.883   6.693  10.950
31282W        W 3630  11.293  34.485  12.044
31283W        W 3631  44.786  33.058  11.978
31284W        W 3632  15.673  23.068   1.251
31285W        W 3633  40.479  14.643   0.424
31286W        W 3634  26.635  43.825  14.008
31287W        W 3635  10.188  12.771  12.897
31288W        W 3636  43.961   9.367   4.709
31289W        W 3637  17.189   2.760  10.565
31290W        W 3638   2.273  24.044   3.272
31291W        W 3639  27.649   7.872  14.025
31292W        W 3640  31.463  43.799  13.980
31293W        W 3641  27.565  12.312  12.530
31294W        W 3642  10.329  42.353  10.536
31295W        W 3643  35.060   7.175   0.265
31296W        W 3644  32.922  37.457  10.596
31297W        W 3645   1.866  20.751   0.903
31298W        W 3646   8.173   0.804   1.217
31299W        W 3647  20.129  24.683  13.984
31300W        W 3648  32.572   7.789   1.706
31301W        W 3649  33.620  21.751   1.218
31302W        W 3650  29.528  30.932   3.206
31303W        W 3651  35.961  17.788   4.334
31304W        W 3652  23.105  26.127   2.676
31305W        W 3653  33.469  33.408   1.250
31306W        W 3654  13.325  26.646   1.349
31307W        W 3655  31.542  10.712  11.612
31308W        W 3656  31.419   4.829   4.252
31309W        W 3657  12.341  23.091   2.375
31310W        W 3658   7.844  29.662  14.830
31311W        W 3659  13.164   3.357  13.946
31312W        W 3660   8.163  20.540  14.440
31313W        W 3661  12.204   1.976   3.250
31314W        W 3662  36.528   4.745   5.793
31315W        W 3663   7.716  43.365  14.465
31316W        W 3664  10.778  40.949   1.387
31317W        W 3665  19.672  29.503  13.315
31318W        W 3666  37.382  31.096  13.463
31319W        W 3667  14.718   1.255   1.869
31320W        W 3668  32.438  12.138  10.925
31321W        W 3669   9.380  36.023   3.190
31322W        W 3670  37.513  34.108  13.348
31323W        W 3671  38.385  28.637   1.275
31324W        W 3672  41.798  15.824  12.958
31325W        W 3673  26.657  29.166  11.018
31326W        W 3674  35.080   8.199  12.007
31327W        W 3675  25.114  35.978   4.631
31328W        W 3676  14.226  35.571  13.898
31329W        W 3677  22.081  37.524   0.881
31330W        W 3678  18.715  22.654  13.347
31331W        W 3679  29.642  17.223   3.384
31332W        W 3680   5.725  13.152  12.851
31333W        W 3681  42.958  25.576   2.290
31334W        W 3682  33.085  39.043  11.991
31335W        W 3683  44.780  20.627   4.796
31336W        W 3684  17.091  25.625   3.721
31337W        W 3685   1.307  33.586   0.781
31338W        W 3686  31.595  24.977   2.245
31339W        W 3687  15.619  18.184  10.129
31340W        W 3688  36.470   9.275   4.329
31341W        W 3689  17.167  39.396  12.523
31342W        W 3690  35.373  13.251  13.916
31343W        W 3691  15.110  21.031   4.629
31344W        W 3692  40.377  13.662   2.854
31345W        W 3693  27.042  38.485  12.078
31346W        W 3694  11.334  10.187   4.305
31347W        W 3695  22.655  43.922   4.318
31348W        W 3696  32.586  38.909  14.759
31349W        W 3697  43.423  28.591  10.465
31350W        W 3698  20.605  23.671   4.270
31351W        W 3699  11.822   8.337   2.778
31352W        W 3700   5.332  31.613  12.339
31353W        W 3701  30.521  44.763  12.457
31354W        W 3702   3.721  14.618   1.351
31355W        W 3703  16.626  28.630  14.940
31356W        W 3704  11.685  26.112   4.164
31357W        W 3705  25.498  42.800   1.862
31358W        W 3706  19.054  10.361  14.477
31359W        W 3707  11.759  19.249  14.354
31360W        W 3708  30.421  13.133   0.842
31361W        W 3709  13.121  29.587  12.938
31362W        W 3710   7.198  31.553  14.939
31363W        W 3711   0.946  27.092   0.311
31364W        W 3712  43.010  11.142   1.407
31365W        W 3713  31.947  27.662  12.004
31366W        W 3714   2.841  42.830  14.349
31367W        W 3715  24.533  29.931  13.453
31368W        W 3716   0.494  34.426  13.808
31369W        W 3717  19.680  26.988  11.548
31370W        W 3718   4.875  20.046  10.572
31371W        W 3719  35.410   5.722   3.796
31372W        W 3720  15.116  18.232  11.927
31373W        W 3721  21.713  44.827   4.653
31374W        W 3722  17.292  13.314  11.416
31375W        W 3723   1.415  16.273  10.533
31376W        W 3724  34.097   1.894  13.541
31377W        W 3725   8.257  27.566  11.926
31378W        W 3726  42.787  41.376   3.242
31379W        W 3727  18.663  15.316   4.785
31380W        W 3728  31.131  33.519   1.214
31381W        W 3729  43.842  39.855  13.992
31382W        W 3730  22.641  36.535  13.912
31383W        W 3731  15.108  10.143   0.359
31384W        W 3732  23.543  43.864  12.934
31385W        W 3733  13.317  31.541   0.354
31386W        W 3734  26.042  43.958   1.775
31387W        W 3735  21.699   4.812  14.384
31388W        W 3736   2.420  16.074   2.875
31389W        W 3737  17.643  32.116   0.943
31390W        W 3738  16.766  29.457   2.791
31391W        W 3739   1.325  26.089  13.535
31392W        W 3740  28.490  12.324  12.031
31393W        W 3741   8.231   8.846  14.825
31394W        W 3742  20.274   6.828   3.648
31395W        W 3743  17.247  11.781  14.862
31396W        W 3744  12.330  27.608  12.091
31397W        W 3745  39.946  36.439  11.544
31398W        W 3746   2.780   4.758   4.620
31399W        W 3747  32.895   1.941  14.876
31400W        W 3748   9.172   7.330   2.801
31401W        W 3749  32.439  17.238   0.351
31402W        W 3750   7.869  29.494   0.852
31403W        W 3751  18.609  42.340   3.851
31404W        W 3752  35.064  34.021   1.851
31405W        W 3753  18.101  33.511   3.264
31406W        W 3754  23.992  24.722  11.870
31407W        W 3755  30.112   1.250   4.650
31408W        W 3756  37.562  21.599   2.213
31409W        W 3757  18.641  13.675  12.839
31410W        W 3758  24.569  42.896   2.213
31411W        W 3759  21.644  35.459  13.325
31412W        W 3760  37.496  27.099  14.292
31413W        W 3761   1.294  33.073   0.411
31414W        W 3762  20.767  44.954   3.262
31415W        W 3763  35.071  26.512   4.598
31416W        W 3764   1.374  16.290  11.931
31417W        W 3765  31.559  36.367  10.572
31418W        W 3766  37.075   2.790  11.063
31419W        W 3767   9.865  24.141  12.849
31420W        W 3768  23.630   8.871  12.031
31421W        W 3769  43.304  35.540  12.504
31422W        W 3770  38.879   0.313   4.827
31423W        W 3771   5.326   5.394   2.354
31424W        W 3772  35.899  11.164   1.244
31425W        W 3773  34.387  42.357   2.819
31426W        W 3774  24.701  11.335  12.095
31427W        W 3775  28.030   1.757   2.284
31428W        W 3776  44.425  20.555   1.368
31429W        W 3777  39.544  43.322   3.694
31430W        W 3778  24.577  42.776  12.092
31431W        W 3779  25.497  36.877  12.901
31432W        W 3780  15.285  33.579   4.236
31433W        W 3781  28.056  29.662   1.431
31434W        W 3782  36.977  43.311  12.354
31435W        W 3783  17.124  13.150  10.114
31436W        W 3784  14.708  27.112  14.318
31437W        W 3785  38.453  13.749   4.784
31438W        W 3786  25.654  30.636  12.503
31439W        W 3787   7.693   1.771   9.933
31440W        W 3788  41.911  23.629  10.948
31441W        W 3789  44.929   8.705  11.551
31442W        W 3790  12.619  43.412   4.599
31443W        W 3791  27.603  26.484   4.242
31444W        W 3792  41.528  21.121   2.800
31445W        W 3793  29.445  42.522  12.848
31446W        W 3794  29.112  22.736  13.040
31447W        W 3795  43.815  31.083  14.889
31448W        W 3796   9.723  22.564  14.851
31449W        W 3797  22.208   7.720  14.370
31450W        W 3798  11.655  38.946   9.950
31451W        W 3799   4.278  24.614   3.750
31452W        W 3800  29.927  21.139   1.882
31453W        W 3801   8.317  36.529   1.243
31454W        W 3802  28.473  31.141   1.352
31455W        W 3803   7.343   0.822  12.504
31456W        W 3804  12.191   7.222   9.604
31457W        W 3805  11.760  13.621  12.541
31458W        W 3806  37.565  40.967  13.793
31459W        W 3807  21.065  28.967   1.816
31460W        W 3808   1.447   1.800   1.258
31461W        W 3809   1.920  18.661  13.372
31462W        W 3810  12.361   5.390   4.701
31463W        W 3811  39.989   0.849   4.738
31464W        W 3812   2.739   2.898  13.035
31465W        W 3813  23.516  43.777  14.477
31466W        W 3814   4.217  27.037  10.952
31467W        W 3815  39.529   8.323   3.798
31468W        W 3816  32.030  24.999   0.829
31469W        W 3817  32.888   9.329  14.373
31470W        W 3818  12.289  35.024   0.842
31471W        W 3819  36.437  25.992   3.171
31472W        W 3820  14.111   3.730  10.566
31473W        W 3821  17.257  26.198   0.903
31474W        W 3822  36.860  28.184  12.975
31475W        W 3823  35.402   9.889   0.268
31476W        W 3824  13.301  20.747   0.739
31477W        W 3825  12.224  33.588  11.588
31478W        W 3826  27.599  10.714   0.802
31479W        W 3827  16.802  41.937  13.374
31480W        W 3828   7.171  44.457   3.309
31481W        W 3829  26.494  22.606  13.845
31482W        W 3830  16.151  15.593  12.478
31483W        W 3831  37.080  20.622   4.647
31484W        W 3832  44.946  18.594   1.213
31485W        W 3833  32.605  18.133  10.602
31486W        W 3834  36.405  38.962  13.443
31487W        W 3835   6.281  28.028  11.407
31488W        W 3836  24.038   8.321   2.893
31489W        W 3837  25.472   8.676   5.179
31490W        W 3838  11.154   4.339  12.346
31491W        W 3839  14.740  36.087   3.857
31492W        W 3840  19.181  16.640   1.876
31493W        W 3841  13.683  14.722   1.386
31494W        W 3842  43.811  36.005  10.550
31495W        W 3843  20.580  14.203  14.380
31496W        W 3844  28.506  37.439   9.936
31497W        W 3845  28.665   1.272   3.693
31498W        W 3846  11.723  10.346   4.198
31499W        W 3847  10.272  43.764  13.314
31500W        W 3848  27.064  36.410   2.674
31501W        W 3849  41.449  37.493   1.396
31502W        W 3850  31.636  43.306  12.343
31503W        W 3851  26.051  19.202   2.730
31504W        W 3852   1.353   6.224  13.418
31505W        W 3853   6.825  40.029  13.374
31506W        W 3854  37.940  35.386   0.388
31507W        W 3855  41.926  44.815  12.891
31508W        W 3856   9.186   6.342  14.911
31509W        W 3857  40.313   6.231  11.433
31510W        W 3858   4.403   9.792  14.439
31511W        W 3859  24.066  19.277   2.862
31512W        W 3860  38.931  36.934  10.123
31513W        W 3861  18.275  23.565   4.118
31514W        W 3862   8.667  18.211  13.923
31515W        W 3863  11.719  21.519   0.930
31516W        W 3864   2.923  18.248   0.292
31517W        W 3865   8.227  36.472   0.268
31518W        W 3866  41.833  22.645  14.482
31519W        W 3867  40.866   0.364   0.468
31520W        W 3868  44.326  12.285  12.852
31521W        W 3869  39.007  30.621  13.525
31522W        W 3870  18.661   3.268   2.810
31523W        W 3871  21.718  22.584  14.846
31524W        W 3872  19.223  38.880  10.893
31525W        W 3873  21.151  25.047   0.891
31526W        W 3874  13.303  43.319   3.288
31527W        W 3875  44.349  27.954  13.326
31528W        W 3876   9.812  18.114   4.154
31529W        W 3877  28.623  25.655  12.870
31530W        W 3878  22.522   1.478  14.879
31531W        W 3879  32.552  14.600   2.345
31532W        W 3880  22.640  38.433  10.416
31533W        W 3881  11.150  26.467   1.873
31534W        W 3882  31.601  32.502   1.236
31535W        W 3883  17.267  44.918   2.752
31536W        W 3884  28.571  24.649  12.842
31537W        W 3885  30.095  20.069  11.911
31538W        W 3886  22.687  24.151   4.262
31539W        W 3887  13.784  19.554  14.801
31540W        W 3888  22.745  27.118  11.093
31541W        W 3889  26.053   9.681  12.398
31542W        W 3890  22.609  17.160  13.864
31543W        W 3891  22.581  40.367  12.059
31544W        W 3892   3.353  17.562   1.212
31545W        W 3893  13.124  20.531   4.831
31546W        W 3894  20.563  18.738  11.542
31547W        W 3895   0.432  11.228   2.750
31548W        W 3896  11.771  17.769   3.840
31549W        W 3897  41.414  12.769  12.548
31550W        W 3898  41.984  30.542  11.930
31551W        W 3899  18.224  43.515  14.289
31552W        W 3900  19.078  19.070   1.809
31553W        W 3901   6.900  13.146  12.048
31554W        W 3902  34.955  40.320  13.467
31555W        W 3903   3.742  39.496  12.388
31556W        W 3904  44.404  23.165  12.032
31557W        W 3905   1.747   1.394  12.072
31558W        W 3906  16.264   7.288   2.878
31559W        W 3907  33.073  20.266  14.353
31560W        W 3908  15.803  21.194   5.161
31561W        W 3909  38.863  17.245   3.346
31562W        W 3910   6.722  41.015  11.096
31563W        W 3911   2.342  39.411   0.311
31564W        W 3912  29.609  36.018   0.892
31565W        W 3913  13.727  33.535   2.212
31566W        W 3914  18.607   3.234  13.062
31567W        W 3915  41.480  19.230  12.387
31568W        W 3916   8.673  26.995  11.466
31569W        W 3917  25.577  43.275   4.695
31570W        W 3918   4.725  29.601  13.859
31571W        W 3919  26.031  35.936  10.904
31572W        W 3920   4.753  23.672   0.744
31573W        W 3921  37.988  17.240  14.936
31574W        W 3922   8.177   2.399   1.244
31575W        W 3923   6.266  26.493  12.413
31576W        W 3924  42.473  15.129   0.244
31577W        W 3925   1.259  43.771  14.795
31578W        W 3926  19.139  33.062  11.058
31579W        W 3927   5.296  14.805   3.246
31580W        W 3928  20.616  43.843   3.710
31581W        W 3929  41.980  39.985  12.090
31582W        W 3930  38.882  23.083   2.196
31583W        W 3931  11.248  22.082   4.193
31584W        W 3932  35.086  42.471  14.480
31585W        W 3933   9.777   1.320  12.430
31586W        W 3934  26.613  31.919  12.446
31587W        W 3935  23.050  34.411   3.781
31588W        W 3936  15.093  40.904  14.953
31589W        W 3937  19.704  26.138  14.329
31590W        W 3938  19.599  17.757   2.373
31591W        W 3939  20.160  39.055   0.852
31592W        W 3940   4.408   3.820   4.753
31593W        W 3941  40.998  43.008  12.416
31594W        W 3942  21.694  34.003  12.001
31595W        W 3943  28.572  25.197  12.958
31596W        W 3944   1.977  10.152   0.441
31597W        W 3945  41.922  36.541   0.762
31598W        W 3946  23.110   9.751  10.543
31599W        W 3947  23.683  15.739   0.963
31600W        W 3948  31.072  21.044   9.983
31601W        W 3949   3.876  18.745   1.279
31602W        W 3950  24.531  18.722  12.931
31603W        W 3951  29.666  24.214  14.311
31604W        W 3952  37.566  10.253   5.207
31605W        W 3953   4.301  32.630  14.280
31606W        W 3954  27.053  22.026  13.924
31607W        W 3955  15.313  34.946   4.798
31608W        W 3956  40.974  23.107  14.975
31609W        W 3957  26.179  34.958  11.596
31610W        W 3958  19.284  22.173  12.092
31611W        W 3959  43.301  10.378  14.890
31612W        W 3960  10.731  24.179   2.379
31613W        W 3961   6.372   0.397   1.232
31614W        W 3962  19.626  16.616   1.281
31615W        W 3963  40.993  34.105  12.089
31616W        W 3964  32.949   4.785   2.767
31617W        W 3965   1.875   0.903  13.064
31618W        W 3966  20.527  27.961  12.404
31619W        W 3967  14.263  28.486   4.285
31620W        W 3968  44.317  22.046  14.800
31621W        W 3969  44.932   2.305   2.793
31622W        W 3970  27.651   8.210  14.920
31623W        W 3971  34.574  35.510  12.976
31624W        W 3972  37.987  22.712  14.396
31625W        W 3973  40.420  10.347  13.927
31626W        W 3974  10.331  19.265   0.242
31627W        W 3975  38.348  32.049  12.016
31628W        W 3976  40.835  32.093   3.792
31629W        W 3977  37.550  24.193   2.691
31630W        W 3978   6.798   0.822  14.821
31631W        W 3979   8.401  13.125  11.875
31632W        W 3980  11.652  23.061   0.771
31633W        W 3981  22.677  41.420   0.759
31634W        W 3982  39.962  34.517   2.739
31635W        W 3983  22.543  14.752   1.345
31636W        W 3984  35.927  33.917   0.452
31637W        W 3985  22.672  18.639   1.366
31638W        W 3986  23.162  12.745   1.291
31639W        W 3987   3.458  38.935   5.243
31640W        W 3988  19.162  17.678  13.527
31641W        W 3989  30.450  38.556   0.318
31642W        W 3990   4.353  13.272   4.757
31643W        W 3991  18.636   0.473  13.507
31644W        W 3992  21.753   7.766  12.970
31645W        W 3993   7.417   2.395  11.453
31646W        W 3994  12.785   0.796   2.395
31647W        W 3995  17.784  37.873  10.962
31648W        W 3996  12.705  24.603   2.383
31649W        W 3997  16.695  19.657   4.347
31650W        W 3998  36.414  42.970  11.455
31651W        W 3999  13.663  26.952   0.460
31652W        W 4000   7.823  25.142  11.553
31653W        W 4001  26.112  12.324  14.294
31654W        W 4002  20.715   0.954   1.336
31655W        W 4003   1.792  43.468   4.749
31656W        W 4004  27.047   4.768   0.865
31657W        W 4005  26.640  16.732   0.254
31658W        W 4006  30.948  12.790  11.878
31659W        W 4007  37.864  21.702   3.765
31660W        W 4008  41.370  38.395  10.922
31661W        W 4009  10.171  31.121   1.386
31662W        W 4010  27.189  42.526   1.801
31663W        W 4011  17.146  37.040  14.925
31664W        W 4012  35.542  41.995   3.756
31665W        W 4013  20.706  10.240  11.492
31666W        W 4014  41.942  26.540   0.481
31667W        W 4015   5.371  44.850   4.341
31668W        W 4016  36.944   6.816   0.958
31669W        W 4017  17.798  23.555  11.009
31670W        W 4018   1.383  28.601  11.523
31671W        W 4019  28.146   8.695   3.369
31672W        W 4020  12.853  11.725   0.287
31673W        W 4021  41.864  23.130  10.435
31674W        W 4022   7.690  31.638   4.222
31675W        W 4023   4.405  34.381  11.076
31676W        W 4024  41.509  38.529  10.545
31677W        W 4025  16.268  35.537  11.972
31678W        W 4026  42.331  19.155  13.480
31679W        W 4027  10.711  30.027  10.526
31680W        W 4028  26.568   7.758  13.376
31681W        W 4029  26.153  14.284   1.267
31682W        W 4030  29.584  31.946  12.425
31683W        W 4031  23.544   2.436   4.774
31684W        W 4032  34.090  25.118  11.455
31685W        W 4033   1.449  33.883  14.281
31686W        W 4034  30.539  43.767   3.813
31687W        W 4035   6.765  22.138   4.307
31688W        W 4036  13.269  18.672  10.515
31689W        W 4037  17.145   9.154  11.374
31690W        W 4038   4.860   9.879  11.990
31691W        W 4039  19.764   3.806  12.546
31692W        W 4040  19.181  36.989  11.490
31693W        W 4041  44.842  29.670   2.213
31694W        W 4042  29.021  18.257   0.347
31695W        W 4043  20.178   7.872  12.416
31696W        W 4044  44.349  43.492  14.963
31697W        W 4045   0.353  15.745   3.314
31698W        W 4046  16.097  39.893  10.453
31699W        W 4047  29.558   5.735  11.002
31700W        W 4048  25.030  16.668  14.436
31701W        W 4049   1.818  43.432  11.410
31702W        W 4050  21.091  11.812  13.021
31703W        W 4051  43.779  18.235   0.843
31704W        W 4052  43.928  38.443  12.388
31705W        W 4053  23.601   2.286   1.343
31706W        W 4054  20.627  32.137   3.779
31707W        W 4055   2.862  42.786   1.695
31708W        W 4056  22.501  11.848  11.123
31709W        W 4057  37.479  41.459  14.502
31710W        W 4058  29.497  21.123   2.767
31711W        W 4059  17.595  39.872  10.407
31712W        W 4060  27.629   2.445  12.036
31713W        W 4061  21.747  16.571  10.890
31714W        W 4062   5.422  26.486   0.856
31715W        W 4063  20.598  38.936  13.412
31716W        W 4064  30.007  43.915   4.699
31717W        W 4065   0.795  21.751   4.194
31718W        W 4066  29.523  24.159   1.357
31719W        W 4067   0.752  26.642   5.175
31720W        W 4068  33.918   4.256  13.795
31721W        W 4069  19.119  15.735   0.800
31722W        W 4070  12.779  14.281  10.572
31723W        W 4071  33.013  34.476   3.801
31724W        W 4072  17.636  27.636   0.430
31725W        W 4073  15.697  20.527  14.280
31726W        W 4074   1.823   9.760   0.748
31727W        W 4075  40.830  34.372   4.787
31728W        W 4076  13.329  25.096   0.954
31729W        W 4077   8.655   8.785  13.035
31730W        W 4078   2.723  16.574  12.424
31731W        W 4079   8.230  11.822  14.509
31732W        W 4080  42.002  28.179   5.096
31733W        W 4081  17.147  41.951  13.422
31734W        W 4082  27.546   6.184  14.505
31735W        W 4083  18.098  42.822  12.413
31736W        W 4084  23.218  41.827  13.539
31737W        W 4085  43.335  15.810  13.910
31738W        W 4086  32.463  44.861   1.243
31739W        W 4087  34.059   2.879  10.945
31740W        W 4088  12.616  24.127   4.604
31741W        W 4089  10.655  23.137   3.288
31742W        W 4090  33.494  16.186   2.876
31743W        W 4091  32.005  25.162  11.905
31744W        W 4092  30.118  35.528   3.731
31745W        W 4093  40.490  26.134   1.835
31746W        W 4094  11.214  21.679   1.827
31747W        W 4095  16.100  11.194   0.444
31748W        W 4096  42.816  38.443  10.468
31749W        W 4097  17.148  41.495   2.796
31750W        W 4098  20.589  34.428  14.344
31751W        W 4099  15.638  21.147   3.703
31752W        W 4100  18.604  26.057   0.808
31753W        W 4101  24.720  33.515   0.318
31754W        W 4102  35.098  44.449  12.954
31755W        W 4103  12.770   9.730   4.663
31756W        W 4104  32.071  43.988  10.564
31757W        W 4105  35.497   2.889  14.920
31758W        W 4106  16.616  22.669   1.267
31759W        W 4107  31.982  33.541  14.363
31760W        W 4108  10.143  14.220  10.503
31761W        W 4109  27.691  11.643   4.309
31762W        W 4110  23.571  43.995   1.225
31763W        W 4111  24.580  30.572  10.560
31764W        W 4112   6.846   0.888  10.613
31765W        W 4113  14.263  19.098   1.299
31766W        W 4114   3.353   4.741  12.054
31767W        W 4115  23.023  22.552  13.908
31768W        W 4116   2.868  25.467   3.201
31769W        W 4117  31.515  36.904  11.393
31770W        W 4118  21.517  29.150   4.269
31771W        W 4119  43.850  22.996  11.022
31772W        W 4120  38.535  32.455   0.834
31773W        W 4121  32.469   2.753   3.642
31774W        W 4122  38.975  28.639  10.483
31775W        W 4123   3.924  30.011   0.306
31776W        W 4124  13.105   3.226  10.572
31777W        W 4125   5.705  21.135   0.777
31778W        W 4126  41.946  15.606  11.966
31779W        W 4127  23.185  40.812   4.648
31780W        W 4128  13.257  39.514   4.192
31781W        W 4129  14.151   1.800  11.121
31782W        W 4130   0.892  14.723   2.315
31783W        W 4131  28.627  44.926   4.798
31784W        W 4132   0.855  39.893  13.534
31785W        W 4133  38.409  21.701   4.216
31786W        W 4134  33.453  26.963  10.974
31787W        W 4135  34.377  36.590   4.713
31788W        W 4136  14.789  35.366   2.831
31789W        W 4137   9.680  41.879   1.439
31790W        W 4138  28.539  12.213   3.266
31791W        W 4139  30.992   0.792   0.940
31792W        W 4140   4.769  21.068  13.354
31793W        W 4141  40.802  13.274   2.239
31794W        W 4142  31.450  29.121   4.793
31795W        W 4143  31.646  11.258   3.317
31796W        W 4144  42.508  11.178   3.800
31797W        W 4145  35.555  43.344   2.751
31798W        W 4146  21.261  35.475  11.000
31799W        W 4147   6.233   3.215   0.894
31800W        W 4148  37.351  39.055  14.457
31801W        W 4149   4.762   0.934   2.858
31802W        W 4150  10.163  29.453  13.900
31803W        W 4151  36.406  28.955  13.030
31804W        W 4152  31.579  21.604   3.735
31805W        W 4153  11.770   6.213   4.196
31806W        W 4154  44.822  11.223   4.153
31807W        W 4155  12.196  27.164   4.351
31808W        W 4156   0.345  12.310   1.744
31809W        W 4157  25.603  41.028  13.371
31810W        W 4158  30.021  35.862  10.925
31811W        W 4159  19.701   7.878   1.708
31812W        W 4160  10.244  23.601   3.728
31813W        W 4161  28.515  42.845   2.231
31814W        W 4162  39.986  35.907   1.315
31815W        W 4163  29.143  14.286   1.815
31816W        W 4164  36.865   0.953  11.109
31817W        W 4165  25.057  37.474  10.094
31818W        W 4166  13.261  32.417  14.440
31819W        W 4167  25.973  38.017  13.381
31820W        W 4168   8.898  13.618  10.977
31821W        W 4169  16.081   2.324   4.190
31822W        W 4170  19.162  20.042   1.935
31823W        W 4171  33.586   1.752   2.271
31824W        W 4172   9.274   4.418  13.874
31825W        W 4173  42.948  21.190  12.480
31826W        W 4174  42.986  30.646  13.822
31827W        W 4175   7.683  26.684   2.289
31828W        W 4176  27.547  11.713  11.084
31829W        W 4177  21.703  36.455   0.874
31830W        W 4178  17.582   5.706   3.182
31831W        W 4179  33.064   0.305   2.851
31832W        W 4180   1.832   5.316  10.471
31833W        W 4181  33.591   3.796   5.151
31834W        W 4182  27.971  14.322   1.921
31835W        W 4183  26.586  17.170  14.026
31836W        W 4184  23.043   6.385  11.589
31837W        W 4185  29.657  21.724   4.648
31838W        W 4186  37.387  21.131   0.467
31839W        W 4187  34.433   5.895  11.056
31840W        W 4188  10.876  40.974  14.782
31841W        W 4189  23.215  16.595  11.058
31842W        W 4190  22.103   1.288   2.330
31843W        W 4191  28.126  28.632  13.952
31844W        W 4192  23.522  10.374  11.129
31845W        W 4193   7.366  36.049   4.277
31846W        W 4194   6.829  27.511  11.471
31847W        W 4195   9.218  19.623   2.668
31848W        W 4196  13.701  42.290  14.463
31849W        W 4197  41.407   9.234  13.846
31850W        W 4198  19.635  27.479   3.852
31851W        W 4199   2.418   3.785  13.936
31852W        W 4200   3.321  12.325  11.905
31853W        W 4201  42.890   9.731   1.245
31854W        W 4202  14.340  27.051  14.940
31855W        W 4203  13.800   6.903   4.165
31856W        W 4204   9.341   5.260   4.680
31857W        W 4205   1.326  27.677   2.357
31858W        W 4206   5.384  22.688  11.430
31859W        W 4207  31.932  44.973   3.775
31860W        W 4208   0.784  36.495  12.984
31861W        W 4209  44.899  40.433   0.941
31862W        W 4210  22.028   1.841   2.754
31863W        W 4211  30.142  26.540   1.238
31864W        W 4212  43.021   4.356   4.723
31865W        W 4213   1.967  28.176   0.816
31866W        W 4214   2.401   5.299   1.436
31867W        W 4215  22.635  31.963  14.422
31868W        W 4216   2.948   2.907  13.416
31869W        W 4217   6.248  31.016  11.442
31870W        W 4218   4.438  26.634   2.701
31871W        W 4219  26.544  12.321   4.769
31872W        W 4220   0.834  39.048   2.695
31873W        W 4221  40.941   9.383   0.420
31874W        W 4222  25.665   8.893   0.838
31875W        W 4223   8.369   4.817  11.915
31876W        W 4224  26.989   1.280   4.739
31877W        W 4225   5.772   2.753  12.388
31878W        W 4226  20.054   7.410  14.791
31879W        W 4227  22.646  30.426  13.877
31880W        W 4228  40.043  19.542  10.424
31881W        W 4229  30.027  25.598   0.796
31882W        W 4230   9.826  15.588   2.805
31883W        W 4231   1.266  19.688   2.416
31884W        W 4232  23.037  44.958  11.408
31885W        W 4233  41.373  40.490  11.077
31886W        W 4234  32.089   6.320   2.774
31887W        W 4235  31.582  22.016   0.263
31888W        W 4236  14.179  38.878  14.420
31889W        W 4237  41.314  36.033   2.282
31890W        W 4238  11.633  14.671  14.868
31891W        W 4239   0.926   7.363   2.899
31892W        W 4240   6.768  35.023   0.334
31893W        W 4241   2.725  23.985   4.253
31894W        W 4242   0.759  36.868  12.076
31895W        W 4243  43.441  21.744  11.398
31896W        W 4244  42.364  18.557  13.903
31897W        W 4245  29.072  17.133  13.540
31898W        W 4246  29.034   0.864  12.426
31899W        W 4247  16.769  40.866   2.343
31900W        W 4248  11.262   9.858  11.089
31901W        W 4249  23.201  40.316  12.433
31902W        W 4250  13.773  43.486  11.423
31903W        W 4251  26.675  29.941  12.418
31904W        W 4252  40.860  17.629   4.626
31905W        W 4253  37.431  20.069   1.740
31906W        W 4254  34.580  44.873  13.864
31907W        W 4255  37.519  39.905  13.804
31908W        W 4256  34.027  13.665   3.255
31909W        W 4257  14.124  35.949  14.944
31910W        W 4258   5.267   7.186  11.970
31911W        W 4259  24.716  17.061   0.419
31912W        W 4260   2.436  22.551   5.244
31913W        W 4261  20.715  27.998  14.292
31914W        W 4262  26.100  13.311   3.741
31915W        W 4263  22.090  13.666  14.427
31916W        W 4264  18.738  14.683  12.039
31917W        W 4265  41.849  18.688   4.820
31918W        W 4266   9.766  24.715  10.988
31919W        W 4267   9.368  32.401   5.749
31920W        W 4268  28.439   7.881   0.352
31921W        W 4269  34.011  37.888  14.464
31922W        W 4270  34.013  14.735   2.784
31923W        W 4271  28.591  17.183  13.856
31924W        W 4272   0.404  14.751   3.716
31925W        W 4273  41.445  43.913   4.776
31926W        W 4274  11.145  11.793  11.512
31927W        W 4275  35.482   9.881  12.021
31928W        W 4276  42.804  21.143  11.991
31929W        W 4277  11.232  35.884   1.226
31930W        W 4278   9.285  28.043   4.246
31931W        W 4279  25.687   5.695  10.034
31932W        W 4280  26.129  14.306   0.441
31933W        W 4281  41.387  22.615   0.316
31934W        W 4282  30.006  22.742  13.417
31935W        W 4283  40.982  33.504   2.726
31936W        W 4284   4.264  18.275  14.319
31937W        W 4285  39.357   8.770   4.600
31938W        W 4286  20.189   8.166   4.657
31939W        W 4287  24.600  34.922  13.411
31940W        W 4288  16.665  16.268   2.386
31941W        W 4289  31.036  21.555   2.300
31942W        W 4290  19.572  29.460  10.609
31943W        W 4291  17.793   4.708   2.812
31944W        W 4292  16.750  28.550   0.388
31945W        W 4293  38.330   8.724  13.967
31946W        W 4294  22.532  11.127  13.897
31947W        W 4295  10.161  41.953   2.762
31948W        W 4296  37.885  25.699  14.877
31949W        W 4297  26.549  44.370   0.398
31950W        W 4298  37.489  22.202  12.838
31951W        W 4299  34.065  42.980   1.877
31952W        W 4300  28.076  36.375  13.944
31953W        W 4301  21.255  30.439  11.082
31954W        W 4302  43.285  12.847  11.855
31955W        W 4303  22.117  39.982   3.651
31956W        W 4304   8.285  31.132  11.545
31957W        W 4305  26.079   0.429  13.340
31958W        W 4306  16.129  13.743  12.931
31959W        W 4307  22.596  15.766  12.000
31960W        W 4308  44.824  33.477  12.875
31961W        W 4309  34.565  42.951  11.376
31962W        W 4310  40.402  40.820   2.743
31963W        W 4311  31.074  17.200   9.948
31964W        W 4312  38.036   9.194  12.535
31965W        W 4313  41.849  24.682  10.618
31966W        W 4314   9.272  16.736   1.438
31967W        W 4315  17.615  33.981   3.651
31968W        W 4316  34.976  38.947  10.115
31969W        W 4317  32.065  40.501   4.190
31970W        W 4318   3.354   6.701  13.426
31971W        W 4319   4.307  42.904  10.635
31972W        W 4320  26.120  18.727  13.536
31973W        W 4321  38.461  40.020   2.325
31974W        W 4322  28.963  38.350   0.447
31975W        W 4323   0.909  37.401  11.861
31976W        W 4324  13.332   0.470   1.345
31977W        W 4325  21.551   4.899   1.378
31978W        W 4326  44.954  18.052   4.220
31979W        W 4327  25.711  21.580  11.568
31980W        W 4328  13.317  34.888  14.006
31981W        W 4329  22.716  29.538  12.093
31982W        W 4330   9.178  41.336  12.864
31983W        W 4331  11.179  44.470  13.548
31984W        W 4332  20.754  37.974   0.829
31985W        W 4333  37.055  23.097   4.240
31986W        W 4334  35.966  22.614   1.907
31987W        W 4335   0.417  32.955   4.255
31988W        W 4336  40.355  13.831   1.444
31989W        W 4337  10.271  35.070   5.193
31990W        W 4338  27.591  28.962  12.402
31991W        W 4339  22.081  18.735   4.747
31992W        W 4340  17.084  23.553  13.937
31993W        W 4341   2.316  14.677  12.946
31994W        W 4342   9.844  21.049   2.236
31995W        W 4343  22.688  22.013   3.271
31996W        W 4344  27.629  25.001   4.248
31997W        W 4345  25.176  29.150   3.840
31998W        W 4346   3.319   9.297   0.471
31999W        W 4347  24.219  36.347  13.975
32000W        W 4348  25.142   2.896   3.374
32001W        W 4349  15.581  28.625  12.483
32002W        W 4350  15.320  30.113   2.372
32003W        W 4351   1.304  11.232  11.412
32004W        W 4352  30.441  18.631   2.265
32005W        W 4353  33.108  38.819   2.380
32006W        W 4354  32.009  10.321  11.606
32007W        W 4355   4.739  33.093   3.705
32008W        W 4356  23.194  29.112   3.686
32009W        W 4357  17.609   7.813   0.401
32010W        W 4358  38.446  22.713  11.571
32011W        W 4359   9.720  29.964   0.905
32012W        W 4360  22.220  35.550   4.648
32013W        W 4361  39.553  25.548   3.834
32014W        W 4362  12.720  34.086   4.283
32015W        W 4363  35.885  12.797   3.310
32016W        W 4364  39.893  30.097   1.917
32017W        W 4365  23.032   1.238   3.327
32018W        W 4366  38.531  42.418   1.380
32019W        W 4367  16.082  13.636   3.701
32020W        W 4368  28.149  26.460  11.097
32021W        W 4369   6.873   4.293   1.765
32022W        W 4370  24.059  31.477   2.404
32023W        W 4371  40.898  27.089   1.758
32024W        W 4372  38.980  13.823  14.973
32025W        W 4373  21.567  25.580   1.267
32026W        W 4374  43.379  17.650  10.444
32027W        W 4375  43.411  33.886   4.642
32028W        W 4376   4.823  21.105  14.286
32029W        W 4377  30.515   2.253   3.859
32030W        W 4378   6.302  36.080   4.218
32031W        W 4379   1.746  16.624  10.534
32032W        W 4380  16.236  27.953  13.325
32033W        W 4381   7.238   4.383  13.315
32034W        W 4382   6.762  32.494   0.833
32035W        W 4383  38.415   3.860  13.896
32036W        W 4384  18.625  33.511  13.979
32037W        W 4385   2.237  30.960  14.451
32038W        W 4386  16.131  16.766  14.768
32039W        W 4387  39.429   3.334   0.765
32040W        W 4388  43.004  29.972   4.234
32041W        W 4389  32.537   5.395   4.624
32042W        W 4390  26.069   5.308   0.254
32043W        W 4391   1.397   5.828   3.230
32044W        W 4392  18.063  11.305  13.821
32045W        W 4393  19.578   8.841   4.304
32046W        W 4394  13.248   0.864  14.350
32047W        W 4395  24.677  18.752   4.149
32048W        W 4396  15.818  41.020  14.417
32049W        W 4397  32.581  28.541   3.820
32050W        W 4398  14.588  19.767   0.858
32051W        W 4399  26.071   0.778  11.929
32052W        W 4400  17.793  11.651  13.450
32053W        W 4401  20.076   8.383   1.903
32054W        W 4402   1.317  39.860   0.899
32055W        W 4403  21.720  37.354   0.289
32056W        W 4404  14.326  15.685   1.721
32057W        W 4405  29.155  43.477   4.306
32058W        W 4406  35.105  15.812   5.288
32059W        W 4407   8.399  12.152  12.887
32060W        W 4408  33.066  26.156   4.700
32061W        W 4409  26.985   7.318   1.256
32062W        W 4410  32.494   2.451   4.254
32063W        W 4411   6.757  42.431  14.787
32064W        W 4412  22.524  34.376  13.874
32065W        W 4413   7.373  27.007   0.770
32066W        W 4414  21.511  16.165  14.913
32067W        W 4415  30.585  18.156  13.348
32068W        W 4416  10.170  26.677   2.337
32069W        W 4417  10.825  19.167  13.392
32070W        W 4418   5.852  21.261  11.037
32071W        W 4419   4.714  19.758   0.966
32072W        W 4420  31.538  36.842   3.756
32073W        W 4421   7.855   0.278   0.955
32074W        W 4422  26.175  31.013   1.702
32075W        W 4423  39.976   3.280  12.087
32076W        W 4424  41.299  34.948  12.895
32077W        W 4425  17.182  17.166   3.168
32078W        W 4426  29.145  29.629   1.774
32079W        W 4427  28.533  29.488  14.986
32080W        W 4428  31.633  32.431   3.750
32081W        W 4429   1.319  23.005   2.289
32082W        W 4430  22.679  26.001   2.228
32083W        W 4431   7.317  36.041   1.774
32084W        W 4432  11.275  35.468   1.757
32085W        W 4433  43.436  29.568   1.382
32086W        W 4434  25.122  40.982   1.397
32087W        W 4435  44.265  11.349   1.399
32088W        W 4436  27.954  44.460   2.361
32089W        W 4437   7.375  17.177   1.235
32090W        W 4438  21.209  30.539   3.228
32091W        W 4439  25.043  42.341   3.811
32092W        W 4440  34.452  35.598   2.705
32093W        W 4441  41.040   4.712  13.489
32094W        W 4442  37.049  39.967   3.383
32095W        W 4443  14.746  19.729   0.446
32096W        W 4444  23.515   2.453  12.933
32097W        W 4445  30.144  16.693   4.643
32098W        W 4446   7.676   0.329  12.974
32099W        W 4447  24.091  30.164   4.613
32100W        W 4448  37.899  18.777   3.248
32101W        W 4449   4.328   2.919  11.002
32102W        W 4450  11.131  37.941   4.212
32103W        W 4451   4.321  28.561  11.121
32104W        W 4452   1.244  36.052   0.780
32105W        W 4453  41.331  26.025   1.756
32106W        W 4454  12.814  18.754   0.841
32107W        W 4455  20.524  14.168   2.855
32108W        W 4456  24.483  35.064   4.609
32109W        W 4457   3.847   7.719  10.424
32110W        W 4458   0.870  17.741   2.315
32111W        W 4459  12.314  36.543  12.866
32112W        W 4460   4.433  11.675   4.288
32113W        W 4461  33.893  33.997   1.419
32114W        W 4462  44.499  36.976   5.133
32115W        W 4463  38.328  22.547   0.264
32116W        W 4464  37.340  41.810  13.545
32117W        W 4465  26.974  21.628  13.798
32118W        W 4466   9.289  41.468  10.916
32119W        W 4467  20.062   7.827   3.638
32120W        W 4468   9.885  35.033  12.578
32121W        W 4469  25.216  33.998  14.778
32122W        W 4470  39.857  44.830   1.848
32123W        W 4471  31.610  39.006  11.477
32124W        W 4472  28.594  39.910  10.435
32125W        W 4473  34.528  42.933   1.803
32126W        W 4474  30.491   1.268   2.801
32127W        W 4475  22.737  38.954  12.512
32128W        W 4476  20.619  24.011  12.066
32129W        W 4477  32.626   8.723  12.038
32130W        W 4478  39.056   5.830   4.688
32131W        W 4479  27.556  14.786   4.737
32132W        W 4480   6.920  44.834  11.085
32133W        W 4481  21.651   4.330   2.880
32134W        W 4482  17.733  33.993   0.862
32135W        W 4483  33.436  44.503   3.787
32136W        W 4484  28.594  28.498  14.974
32137W        W 4485  35.073  38.992  11.896
32138W        W 4486  20.232  13.127   1.226
32139W        W 4487  18.161   7.386   3.155
32140W        W 4488   1.823  10.364  11.128
32141W        W 4489  15.604  13.320  12.456
32142W        W 4490  44.841  28.986  11.412
32143W        W 4491  14.826   0.290  12.578
32144W        W 4492  12.355  37.420   3.823
32145W        W 4493  36.402  17.176  13.005
32146W        W 4494  10.311  17.556  14.836
32147W        W 4495  11.138  44.959  12.058
32148W        W 4496  41.976  29.600   1.767
32149W        W 4497  30.598   3.902  10.645
32150W        W 4498  21.736   4.283  12.396
32151W        W 4499  26.180  31.956   4.184
32152W        W 4500  11.138  28.941  13.832
32153W        W 4501  33.997   0.848  11.871
32154W        W 4502  34.966  22.667   1.924
32155W        W 4503  25.562  19.672  12.040
32156W        W 4504  36.939  38.941   2.831
32157W        W 4505  43.375   6.306  10.902
32158W        W 4506  19.671  32.081   0.895
32159W        W 4507   5.756  33.017   1.366
32160W        W 4508  28.446  41.858   2.701
32161W        W 4509  19.741  26.984  10.611
32162W        W 4510  32.403   1.857   9.989
32163W        W 4511   3.371  23.538  11.519
32164W        W 4512   9.298  40.548  14.281
32165W        W 4513  18.136   3.405  12.838
32166W        W 4514   2.919  37.975   0.909
32167W        W 4515  22.126  12.650  11.964
32168W        W 4516  10.359  25.053   4.772
32169W        W 4517  29.046  31.517  14.334
32170W        W 4518  25.560  44.353   4.795
32171W        W 4519  43.347  16.272   4.754
32172W        W 4520  18.158  27.474  14.320
32173W        W 4521  41.926  23.660  13.501
32174W        W 4522  32.940  31.540   0.250
32175W        W 4523  33.992  31.461  12.838
32176W        W 4524  37.984  15.822  11.915
32177W        W 4525  12.677  35.054  14.778
32178W        W 4526   0.800  43.371  14.419
32179W        W 4527  29.557   4.772  12.465
32180W        W 4528   3.808  34.401   3.371
32181W        W 4529  24.567   4.262   4.212
32182W        W 4530  41.950  11.701  14.415
32183W        W 4531  13.246   2.777   2.189
32184W        W 4532  17.256  16.178  10.547
32185W        W 4533  43.341   5.263   1.271
32186W        W 4534  13.728  36.918  10.932
32187W        W 4535   5.804  24.079  12.966
32188W        W 4536   3.949  15.762   0.472
32189W        W 4537  13.283   3.876   0.329
32190W        W 4538  44.915  30.518  12.845
32191W        W 4539  38.043   1.814  14.423
32192W        W 4540  20.086   2.851   1.325
32193W        W 4541  28.562  16.809   1.932
32194W        W 4542  37.060   2.896  12.013
32195W        W 4543   9.230  38.402  14.456
32196W        W 4544  40.984  18.096  10.542
32197W        W 4545   9.237   8.884  11.461
32198W        W 4546  21.140  44.829   0.850
32199W        W 4547  33.923  32.927  12.455
32200W        W 4548  13.671  25.013   2.841
32201W        W 4549  18.215  44.818  12.446
32202W        W 4550  38.965  41.326  14.383
32203W        W 4551   1.302  20.708  12.456
32204W        W 4552  29.527  35.597   1.445
32205W        W 4553  36.891  21.608  11.916
32206W        W 4554   6.242   4.910  11.407
32207W        W 4555   3.303   7.339  14.315
32208W        W 4556  18.054   3.726  12.363
32209W        W 4557   9.769   1.793   0.390
32210W        W 4558  40.820  33.478  12.374
32211W        W 4559  23.171   1.336   1.423
32212W        W 4560  38.965  26.115   5.103
32213W        W 4561  38.953  35.584   4.200
32214W        W 4562  13.691  43.364   4.213
32215W        W 4563  25.198  20.228  14.797
32216W        W 4564  20.179  27.123  12.034
32217W        W 4565   5.762  39.456  13.920
32218W        W 4566   5.413   2.408   0.281
32219W        W 4567  25.653  24.632  12.523
32220W        W 4568  42.941  38.037   3.326
32221W        W 4569  25.056   1.853  12.924
32222W        W 4570   1.303  11.228   1.264
32223W        W 4571  10.686  41.409   0.406
32224W        W 4572   6.829   3.226  12.508
32225W        W 4573  44.864  37.003  12.375
32226W        W 4574  11.844  32.545  11.518
32227W        W 4575  31.959   6.829  12.453
32228W        W 4576  15.204   1.463  13.545
32229W        W 4577  10.288  17.637  14.468
32230W        W 4578  43.512   0.343  14.847
32231W        W 4579  39.840   9.694   3.759
32232W        W 4580  24.151  14.794  12.861
32233W        W 4581  27.489  37.372   0.419
32234W        W 4582  18.703  38.931  11.862
32235W        W 4583  21.147  42.804   0.749
32236W        W 4584  34.544  25.180   1.725
32237W        W 4585   9.342  19.643   1.253
32238W        W 4586  17.602   5.365  11.085
32239W        W 4587   8.299  32.090   3.705
32240W        W 4588   3.900  33.944   3.663
32241W        W 4589  13.259  19.624   9.943
32242W        W 4590  36.099  37.942   4.640
32243W        W 4591  18.214  24.003   1.858
32244W        W 4592  30.952  28.505   1.854
32245W        W 4593  36.033  36.913   3.676
32246W        W 4594  36.936  43.009   2.179
32247W        W 4595  14.672  14.819  12.370
32248W        W 4596   9.229   5.744   4.336
32249W        W 4597  35.871  26.082  11.527
32250W        W 4598  33.063  36.593   4.270
32251W        W 4599   3.842  28.111   4.237
32252W        W 4600  20.733  17.648   1.403
32253W        W 4601   6.879  37.353  14.795
32254W        W 4602   7.797  10.318   3.344
32255W        W 4603  11.338   3.810  10.116
32256W        W 4604   1.335  15.706  12.831
32257W        W 4605  16.227  20.144  13.956
32258W        W 4606  36.097  22.696  14.286
32259W        W 4607  17.075  43.958  14.878
32260W        W 4608  39.032  38.935  10.888
32261W        W 4609  11.646   8.763   0.299
32262W        W 4610  38.489   1.365  13.833
32263W        W 4611  23.673  40.822  11.083
32264W        W 4612  42.392   7.194   3.187
32265W        W 4613  24.685  15.809  12.340
32266W        W 4614  22.535  16.095  12.416
32267W        W 4615   9.239   8.394  12.531
32268W        W 4616  37.416  34.073   1.378
32269W        W 4617   7.385  37.518  14.798
32270W        W 4618  15.619  31.520  13.957
32271W        W 4619  13.610   3.320   4.136
32272W        W 4620  42.940  33.913   0.343
32273W        W 4621  14.788  35.474  11.995
32274W        W 4622  43.383  11.183  13.399
32275W        W 4623   6.231  33.095  14.960
32276W        W 4624   5.413  21.171  11.116
32277W        W 4625   5.895  27.549   0.760
32278W        W 4626   7.262  16.227  11.069
32279W        W 4627  23.575  38.415  13.511
32280W        W 4628  28.570  18.257  11.600
32281W        W 4629   3.385  18.726   3.284
32282W        W 4630  16.679  16.594  11.584
32283W        W 4631  36.519  39.956  12.424
32284W        W 4632  24.530  43.301   1.842
32285W        W 4633  13.177  21.743  10.541
32286W        W 4634  33.907  40.505   4.824
32287W        W 4635  12.177   6.201  14.804
32288W        W 4636  38.506   4.786   5.566
32289W        W 4637   4.222   3.448   1.394
32290W        W 4638  31.583  25.521   0.412
32291W        W 4639  30.962  26.619   1.862
32292W        W 4640  16.279  42.817  11.464
32293W        W 4641  11.826  18.200  14.449
32294W        W 4642  36.966  17.771  11.916
32295W        W 4643  40.337  33.591   4.181
32296W        W 4644  34.602  36.933  14.923
32297W        W 4645  39.835  22.247   1.849
32298W        W 4646  34.116  41.970  13.008
32299W        W 4647  43.777  21.697  13.379
32300W        W 4648   0.930  44.809   2.676
32301W        W 4649   9.381  40.358   2.714
32302W        W 4650  20.685   9.393  13.855
32303W        W 4651  34.486  17.145   0.310
32304W        W 4652  19.613  30.133   4.698
32305W        W 4653  10.783  37.467   1.354
32306W        W 4654  23.663  17.631  13.838
32307W        W 4655  25.554  27.977  14.899
32308W        W 4656  41.500  14.752   2.419
32309W        W 4657  23.663  11.648  13.465
32310W        W 4658  34.486  25.080  11.977
32311W        W 4659  42.394  35.991  13.407
32312W        W 4660  23.490  14.162  14.475
32313W        W 4661   1.293  23.735  12.346
32314W        W 4662  19.112  12.754  13.842
32315W        W 4663   2.916  10.684   0.856
32316W        W 4664  19.068  27.486  12.872
32317W        W 4665  40.964   0.943  14.359
32318W        W 4666   3.846   5.264   2.305
32319W        W 4667  32.041  17.704  14.490
32320W        W 4668  25.575  42.412  14.349
32321W        W 4669   3.717  31.423   3.169
32322W        W 4670  11.737  27.092  14.495
32323W        W 4671  14.707  35.558  12.999
32324W        W 4672  10.337  42.793  14.999
32325W        W 4673  38.065  44.990  10.958
32326W        W 4674  22.193  22.567  14.807
32327W        W 4675  24.022  15.276  14.943
32328W        W 4676  28.017  19.040   1.723
32329W        W 4677  22.996  16.204   2.348
32330W        W 4678  11.790  12.124  10.467
32331W        W 4679  30.973  35.927  10.913
32332W        W 4680  10.875  21.625  11.083
32333W        W 4681  25.191  13.159  10.430
32334W        W 4682   9.864  22.176  14.889
32335W        W 4683  28.437  34.403  14.356
32336W        W 4684   1.344  32.890   0.844
32337W        W 4685  39.995  26.166   3.854
32338W        W 4686  22.187  12.211  11.560
32339W        W 4687   5.295  13.235  10.577
32340W        W 4688   4.820  38.860   3.804
32341W        W 4689  42.002   7.338   5.221
32342W        W 4690   1.736  20.045   4.257
32343W        W 4691   3.728  37.860   4.155
32344W        W 4692  42.483  18.194   0.318
32345W        W 4693  44.361  30.516  12.367
32346W        W 4694  18.194  22.050  11.510
32347W        W 4695  12.344   1.356  11.086
32348W        W 4696  24.979  43.889  13.821
32349W        W 4697   7.388  41.835   2.711
32350W        W 4698  28.959   0.285  14.932
32351W        W 4699  31.130  34.992   0.342
32352W        W 4700  35.964  29.008  11.955
32353W        W 4701  34.873   8.197   0.868
32354W        W 4702  11.180   2.301   4.787
32355W        W 4703  21.708  28.559  13.464
32356W        W 4704  16.274  34.607   3.812
32357W        W 4705  35.935  15.273  13.893
32358W        W 4706  27.156  13.643  13.946
32359W        W 4707  26.550  26.971  13.906
32360W        W 4708  36.453  26.470   0.329
32361W        W 4709  43.845  27.124  10.416
32362W        W 4710  42.826   9.278   1.717
32363W        W 4711  32.022   8.729  10.992
32364W        W 4712   5.905   3.767   4.682
32365W        W 4713   7.346  42.806   1.399
32366W        W 4714  44.268  24.145  11.063
32367W        W 4715  43.904  15.756  10.488
32368W        W 4716  31.132   0.415  10.468
32369W        W 4717  32.404   6.802   1.249
32370W        W 4718  25.155  25.058  14.810
32371W        W 4719   6.709  31.131   2.263
32372W        W 4720   7.881  16.309   3.864
32373W        W 4721  39.020  38.006   4.717
32374W        W 4722  32.101  30.935   0.433
32375W        W 4723   0.400  11.147  13.797
32376W        W 4724   3.797  35.502   3.800
32377W        W 4725   8.672  25.170   1.404
32378W        W 4726  35.526  19.703   2.303
32379W        W 4727  29.520  40.306   3.346
32380W        W 4728  23.531  42.361   1.815
32381W        W 4729  28.071  43.446   1.805
32382W        W 4730   7.801  27.627   4.796
32383W        W 4731  21.078  37.340   4.152
32384W        W 4732  13.806  18.705   2.833
32385W        W 4733  22.153  31.997   9.982
32386W        W 4734  20.094  10.656   4.644
32387W        W 4735  10.855  33.623  13.842
32388W        W 4736  21.631  10.803  14.390
32389W        W 4737  14.170   8.875   0.482
32390W        W 4738   3.431   9.814  12.390
32391W        W 4739   2.882  37.518  14.505
32392W        W 4740   7.404  42.849  11.513
32393W        W 4741  43.433  43.454   0.358
32394W        W 4742  19.107   9.178   3.850
32395W        W 4743  35.880  26.601  12.364
32396W        W 4744   3.368  20.682  14.979
32397W        W 4745   8.713  24.113   4.195
32398W        W 4746  36.071  11.848  14.014
32399W        W 4747  39.886  15.778  12.882
32400W        W 4748  17.257  33.540   1.426
32401W        W 4749  41.411  16.750  10.575
32402W        W 4750   9.654   1.360  11.022
32403W        W 4751   9.308  24.984   3.641
32404W        W 4752  11.659  19.589  11.105
32405W        W 4753  33.527   1.768  11.446
32406W        W 4754  43.956   6.890  13.047
32407W        W 4755   6.240  31.093   5.208
32408W        W 4756  41.510  20.684  10.554
32409W        W 4757  12.191  24.126   4.320
32410W        W 4758  38.910   8.839   9.966
32411W        W 4759  37.450  25.601  10.604
32412W        W 4760  10.641   3.713  14.983
32413W        W 4761  25.120  42.929   3.302
32414W        W 4762  26.125  29.052  11.959
32415W        W 4763  16.718  41.876  12.946
32416W        W 4764  16.135  14.330   1.705
32417W        W 4765  13.107  44.873   1.726
32418W        W 4766  13.337  13.110   5.206
32419W        W 4767  25.991   1.813  13.848
32420W        W 4768  40.844  42.432  12.918
32421W        W 4769  16.570  37.007  11.575
32422W        W 4770  34.109   7.289  10.891
32423W        W 4771  14.750  33.996   1.440
32424W        W 4772  42.985  44.803   4.174
32425W        W 4773   9.393   5.752   1.221
32426W        W 4774  33.966  43.445  13.899
32427W        W 4775  25.497   3.375   2.798
32428W        W 4776  30.126  40.997   4.685
32429W        W 4777  37.562  26.690   0.774
32430W        W 4778  43.354  29.667   2.341
32431W        W 4779  23.056  10.201  11.097
32432W        W 4780  32.612  25.559  12.994
32433W        W 4781  32.140  23.496   1.263
32434W        W 4782  32.976   4.225   0.278
32435W        W 4783   5.833  29.535  13.486
32436W        W 4784  11.326  24.157  13.013
32437W        W 4785   9.273  30.914   0.775
32438W        W 4786  41.881  43.270   4.726
32439W        W 4787  22.054  27.600   4.286
32440W        W 4788  38.905  27.674   1.444
32441W        W 4789  43.459   5.848   0.309
32442W        W 4790   5.419  16.104   4.610
32443W        W 4791   3.864   4.290  13.821
32444W        W 4792  42.495   2.794  12.579
32445W        W 4793  12.723  34.070  13.407
32446W        W 4794  11.767  36.003  11.508
32447W        W 4795  19.160  44.908  10.435
32448W        W 4796  31.944   1.433  10.905
32449W        W 4797   8.854  16.304  14.345
32450W        W 4798  39.932   9.281   2.730
32451W        W 4799  37.989   6.386  13.402
32452W        W 4800  15.295  36.477  10.569
32453W        W 4801  25.644  14.785  13.004
32454W        W 4802   2.735  29.960  14.297
32455W        W 4803  16.265  10.250   1.427
32456W        W 4804  13.292   3.780  12.423
32457W        W 4805  24.544  23.628   3.152
32458W        W 4806  44.500  15.239   0.458
32459W        W 4807  17.636  27.596  14.907
32460W        W 4808  14.189  30.580   1.770
32461W        W 4809  38.367  33.395   3.703
32462W        W 4810  19.741  15.665  14.023
32463W        W 4811   8.392  16.626  13.386
32464W        W 4812   8.214   6.823   3.788
32465W        W 4813   1.447   8.264  14.464
32466W        W 4814  20.094   3.899  12.435
32467W        W 4815   9.838  19.225   3.254
32468W        W 4816  20.248  28.030   2.740
32469W        W 4817  14.300  36.574   2.854
32470W        W 4818  29.130   5.407   1.297
32471W        W 4819  20.178  27.661  11.010
32472W        W 4820  13.609   2.237  13.372
32473W        W 4821  35.102  31.506   0.796
32474W        W 4822  11.782  26.167  14.412
32475W        W 4823  36.972  17.209  10.555
32476W        W 4824  31.965  29.457  13.928
32477W        W 4825  15.823   6.349  11.872
32478W        W 4826   7.193   3.783   4.801
32479W        W 4827  36.021   9.223   2.255
32480W        W 4828  28.001  24.651   1.773
32481W        W 4829  43.482  22.656  13.349
32482W        W 4830  25.994  34.575  14.777
32483W        W 4831  32.567  29.124  10.493
32484W        W 4832  33.421  19.737   3.723
32485W        W 4833  21.747  30.928  12.953
32486W        W 4834  24.218  34.447  13.504
32487W        W 4835  39.837  34.875   2.402
32488W        W 4836   3.324   8.818   0.819
32489W        W 4837   2.294  39.055   1.420
32490W        W 4838  31.547   8.852  13.535
32491W        W 4839  36.085  22.063  10.433
32492W        W 4840  37.878  29.932   3.727
32493W        W 4841  33.609  28.644  14.367
32494W        W 4842  44.463  43.305  13.523
32495W        W 4843  37.023  42.503   1.694
32496W        W 4844  17.664   5.733   4.140
32497W        W 4845  13.347   3.899   0.820
32498W        W 4846  28.030  21.623  10.635
32499W        W 4847  25.634   9.748  11.916
32500W        W 4848  32.460  38.945   3.209
32501W        W 4849  38.822  20.562  11.924
32502W        W 4850  16.216  34.013   4.350
32503W        W 4851   0.920  18.761   2.280
32504W        W 4852  22.072  16.711  13.545
32505W        W 4853  13.211  43.286   2.216
32506W        W 4854  25.568  34.006  10.968
32507W        W 4855  39.516  28.536   2.288
32508W        W 4856  22.617  29.660   3.712
32509W        W 4857   6.912  44.413   3.676
32510W        W 4858   1.382   2.400   1.396
32511W        W 4859  36.390  24.644  12.512
32512W        W 4860  39.035  29.143  14.908
32513W        W 4861  39.524  22.180   2.888
32514W        W 4862  12.624  44.844  13.961
32515W        W 4863  36.874  34.474   2.803
32516W        W 4864  28.993  42.844   0.782
32517W        W 4865   3.402   8.209   2.321
32518W        W 4866  22.550  31.088   0.888
32519W        W 4867   3.392  36.058   1.727
32520W        W 4868  42.944  36.077   4.790
32521W        W 4869  32.024  16.715  13.539
32522W        W 4870  30.646  43.885   3.326
32523W        W 4871  34.412  20.621  12.061
32524W        W 4872  40.048  41.375  11.924
32525W        W 4873  25.708  25.160   4.606
32526W        W 4874  20.222  35.384   4.661
32527W        W 4875   3.329  18.080  13.317
32528W        W 4876  22.645  26.591  10.096
32529W        W 4877  18.181  24.185  11.525
32530W        W 4878  17.606  31.109   9.603
32531W        W 4879  29.174  36.436  11.000
32532W        W 4880   6.901  22.550   0.909
32533W        W 4881  20.106  42.878   2.185
32534W        W 4882  43.371   8.288  12.465
32535W        W 4883   8.270  36.418   1.785
32536W        W 4884  22.050  12.268  13.422
32537W        W 4885   2.366  10.321   0.729
32538W        W 4886  27.562  26.485  14.349
32539W        W 4887  32.507  12.655  10.904
32540W        W 4888  22.723  36.962   1.702
32541W        W 4889  32.627  21.043  11.024
32542W        W 4890  25.501  13.724  10.524
32543W        W 4891  25.194  10.790   1.838
32544W        W 4892  22.653  41.332  11.935
32545W        W 4893  35.516  26.675   2.875
32546W        W 4894  14.340  34.102  10.906
32547W        W 4895  29.533   9.279   3.790
32548W        W 4896  39.521  20.199  12.378
32549W        W 4897   2.391  27.166   1.881
32550W        W 4898  13.186  28.993   3.367
32551W        W 4899   9.824  12.836   2.735
32552W        W 4900  15.214  17.605  13.830
32553W        W 4901  32.613   8.733  14.296
32554W        W 4902  11.327   4.301   2.392
32555W        W 4903  37.545  18.761  13.052
32556W        W 4904   0.957  12.808   3.242
32557W        W 4905  41.367  10.711   2.721
32558W        W 4906   2.237  40.403   2.389
32559W        W 4907  33.616  42.872  14.278
32560W        W 4908  16.615  11.328  13.007
32561W        W 4909  19.576  32.008   5.193
32562W        W 4910  33.006  38.478  14.414
32563W        W 4911  11.865  14.621   4.302
32564W        W 4912  36.396  19.695  12.343
32565W        W 4913  25.592  23.502   4.836
32566W        W 4914  38.426  26.534  10.594
32567W        W 4915  11.269  29.144   1.294
32568W        W 4916   5.897  34.551   4.727
32569W        W 4917   6.704  29.074  14.466
32570W        W 4918  18.575   2.784  12.409
32571W        W 4919   3.345   0.253  14.002
32572W        W 4920  24.096  17.706   4.613
32573W        W 4921  14.709   8.365   3.191
32574W        W 4922  34.491  21.192   4.246
32575W        W 4923  38.007  24.071  14.027
32576W        W 4924  20.247  43.962  14.408
32577W        W 4925  25.084   0.971   3.304
32578W        W 4926   0.267   8.763   0.879
32579W        W 4927  23.238   4.710  14.276
32580W        W 4928   1.795  34.451   2.239
32581W        W 4929  15.154  36.507   2.378
32582W        W 4930  32.986  16.680   0.319
32583W        W 4931   1.431  15.253   2.215
32584W        W 4932  41.461  39.513  11.020
32585W        W 4933   7.219  39.969  11.483
32586W        W 4934  35.934  38.832   0.823
32587W        W 4935  22.665  30.478  14.793
32588W        W 4936  43.959  42.486   3.693
32589W        W 4937   7.864  10.253  12.074
32590W        W 4938  28.132  31.100   1.867
32591W        W 4939  25.571  44.478  10.084
32592W        W 4940  28.935  18.245  13.315
32593W        W 4941  18.643  10.679  11.430
32594W        W 4942   2.470   0.386   0.729
32595W        W 4943  41.325   1.441   3.328
32596W        W 4944  33.493  34.109   4.146
32597W        W 4945   9.860   6.756  10.571
32598W        W 4946   8.376  22.554   5.216
32599W        W 4947  18.294  13.639  11.005
32600W        W 4948  23.173   6.410  11.922
32601W        W 4949   0.799  15.659  14.908
32602W        W 4950  15.727  29.582  12.871
32603W        W 4951  19.161  16.775  12.073
32604W        W 4952  36.591  18.748   0.290
32605W        W 4953  21.070   4.301  13.011
32606W        W 4954  31.029   7.298  10.965
32607W        W 4955  36.506  38.509   2.758
32608W        W 4956  19.129  14.100  13.317
32609W        W 4957  40.484   7.893  13.807
32610W        W 4958   1.289   0.296   1.337
32611W        W 4959  20.069  34.450  13.054
32612W        W 4960   4.239  37.942  12.983
32613W        W 4961  26.009  36.969   0.900
32614W        W 4962  19.677  44.824   0.294
32615W        W 4963  33.434  34.610   2.877
32616W        W 4964  36.536   4.834   0.831
32617W        W 4965  20.749  38.039  13.317
32618W        W 4966  39.421  34.413   2.849
32619W        W 4967  29.560  24.106   1.736
32620W        W 4968  37.370   0.779   0.350
32621W        W 4969  25.078   2.286  14.793
32622W        W 4970  18.689  33.989   0.829
32623W        W 4971  43.354   0.867   4.773
32624W        W 4972   9.714  22.737   2.377
32625W        W 4973  31.141  20.226  12.021
32626W        W 4974  34.419  37.537  12.974
32627W        W 4975   1.896  23.233   1.746
32628W        W 4976  38.405  34.933   0.407
32629W        W 4977   6.282  14.670   0.409
32630W        W 4978  28.149  28.171   5.245
32631W        W 4979  29.082   5.855   1.855
32632W        W 4980  37.452  33.531  14.490
32633W        W 4981  24.523  16.570  12.437
32634W        W 4982  15.724   9.254  13.928
32635W        W 4983  43.426  34.382   3.308
32636W        W 4984  44.851  31.638  12.048
32637W        W 4985  15.701   9.241   2.288
32638W        W 4986  38.371   6.711   0.281
32639W        W 4987  19.689  19.136  13.034
32640W        W 4988   6.779  24.191  12.395
32641W        W 4989  39.970  26.201   1.246
32642W        W 4990  34.508   7.328  14.975
32643W        W 4991  11.632  17.146   4.216
32644W        W 4992  10.750  18.547   1.734
32645W        W 4993  42.894  30.551   1.720
32646W        W 4994  22.559   9.880   0.292
32647W        W 4995  33.022  25.534  11.992
32648W        W 4996   8.860  26.089   3.218
32649W        W 4997  21.096  29.062   4.276
32650W        W 4998   1.916  18.290   0.271
32651W        W 4999  24.632   2.725   1.336
32652W        W 5000  29.629  44.403  14.870
32653W        W 5001  36.384  13.781   4.289
32654W        W 5002   9.247  21.225  12.935
32655W        W 5003   4.761  28.562  13.013
32656W        W 5004  21.575  25.104   1.935
32657W        W 5005  44.333  25.991  13.502
32658W        W 5006  22.564  30.654   3.807
32659W        W 5007  11.214  33.084   4.320
32660W        W 5008  10.291  13.712   0.258
32661W        W 5009  18.247  14.272  13.960
32662W        W 5010  38.558  34.555   2.749
32663W        W 5011  31.094   3.346  14.330
32664W        W 5012  11.766  11.733   5.142
32665W        W 5013  24.016  28.958   2.188
32666W        W 5014  32.005  21.565   2.857
32667W        W 5015  32.573  15.621   1.238
32668W        W 5016  43.938  25.711  10.445
32669W        W 5017  33.405  34.599  10.476
32670W        W 5018  41.364   3.358   2.752
32671W        W 5019   5.353   0.275  12.001
32672W        W 5020  43.864   4.309   0.947
32673W        W 5021  24.171  25.178  12.837
32674W        W 5022  21.094   2.446  11.889
32675W        W 5023  28.575   1.798  13.965
32676W        W 5024  34.064  12.637  12.519
32677W        W 5025  14.294  15.128  11.446
32678W        W 5026  10.645  33.098   4.817
32679W        W 5027  17.742  36.475   4.787
32680W        W 5028   4.748  34.521   1.843
32681W        W 5029  41.409  40.365   3.229
32682W        W 5030  42.309  18.714   1.699
32683W        W 5031  26.028  15.695   3.213
32684W        W 5032   5.802  15.626  11.393
32685W        W 5033   6.324  15.611  11.095
32686W        W 5034  25.148  11.849   1.399
32687W        W 5035  34.933  38.898   0.268
32688W        W 5036   2.763  14.181  14.407
32689W        W 5037   5.857  28.063   2.718
32690W        W 5038  34.423   8.225   0.780
32691W        W 5039  10.801  34.953   4.193
32692W        W 5040  20.219   4.332   1.717
32693W        W 5041  17.215   1.313   3.223
32694W        W 5042  29.154   7.705  11.899
32695W        W 5043  31.453   4.771  11.975
32696W        W 5044  30.487   1.773  12.498
32697W        W 5045  40.342  18.129   4.735
32698W        W 5046  38.525  18.182   3.376
32699W        W 5047  10.145  31.083   3.359
32700W        W 5048   5.385  36.464   0.416
32701W        W 5049   0.460  44.315  10.448
32702W        W 5050   1.773  23.015   4.710
32703W        W 5051  37.982  37.398  12.535
32704W        W 5052  35.481  14.218  13.372
32705W        W 5053  37.833  31.985  11.980
32706W        W 5054   6.379  30.119  11.613
32707W        W 5055  25.219  41.452  11.585
32708W        W 5056  28.485  27.665   4.719
32709W        W 5057   4.775  16.126   2.407
32710W        W 5058   1.755   3.731  10.471
32711W        W 5059  42.519  42.790  11.564
32712W        W 5060  13.342   9.786  14.484
32713W        W 5061  34.962  21.513  14.363
32714W        W 5062   9.800   1.897   3.156
32715W        W 5063  17.303   2.327   1.836
32716W        W 5064  12.219  15.260  10.410
32717W        W 5065  20.766  18.576   3.213
32718W        W 5066  28.483   1.265  10.977
32719W        W 5067  15.604  44.407   5.232
32720W        W 5068   7.877  28.128   2.219
32721W        W 5069   6.745  22.131   1.706
32722W        W 5070  33.431  26.554   5.088
32723W        W 5071  34.086  19.221  13.382
32724W        W 5072  13.322  44.771   3.761
32725W        W 5073  11.647  13.196  12.373
32726W        W 5074  40.847  39.370  10.514
32727W        W 5075  35.457  26.095  14.893
32728W        W 5076  26.033  11.742   0.346
32729W        W 5077  16.072  41.427  14.299
32730W        W 5078   4.301  36.015   3.721
32731W        W 5079  26.673   2.377   4.278
32732W        W 5080  18.693  28.101   0.374
32733W        W 5081  19.094  42.426  14.437
32734W        W 5082  39.331  23.037  12.843
32735W        W 5083  32.566  27.962  11.374
32736W        W 5084  27.072  15.088  11.394
32737W        W 5085  44.798   9.241  11.979
32738W        W 5086   9.857  12.277  13.334
32739W        W 5087  19.758   7.304   2.360
32740W        W 5088  16.146  10.656   1.778
32741W        W 5089  26.995   2.337   2.201
32742W        W 5090   3.436  13.614   1.217
32743W        W 5091   4.773  16.755  11.913
32744W        W 5092  18.202  10.201  10.596
32745W        W 5093  36.091  24.131   5.146
32746W        W 5094   6.340  37.491   5.135
32747W        W 5095   0.981   5.875   3.744
32748W        W 5096  39.522   1.314   3.832
32749W        W 5097  42.790   8.321  11.461
32750W        W 5098  42.785  12.118  11.545
32751W        W 5099  13.239   7.194  14.943
32752W        W 5100  35.051  27.619   2.300
32753W        W 5101   7.416  23.167  12.993
32754W        W 5102  30.008  20.065  10.441
32755W        W 5103   5.885  29.432  12.412
32756W        W 5104  36.532  33.444   1.878
32757W        W 5105   1.944  19.709   2.895
32758W        W 5106  44.759  41.951   3.376
32759W        W 5107   3.349  24.168  11.404
32760W        W 5108  35.563  17.078   2.343
32761W        W 5109  34.599  38.455   3.686
32762W        W 5110  19.743  20.074   2.737
32763W        W 5111   0.366  22.691  12.064
32764W        W 5112  31.401   9.753   0.862
32765W        W 5113  33.957  11.850   0.457
32766W        W 5114  25.473  17.747  13.476
32767W        W 5115  40.972  40.046   1.816
32768W        W 5116  33.057  33.011  11.566
32769W        W 5117  18.265  13.829   4.647
32770W        W 5118   4.252  11.133  11.891
32771W        W 5119  17.775  34.391   0.927
32772W        W 5120   6.210  17.712   0.916
32773W        W 5121   9.715  31.989   5.093
32774W        W 5122  42.968  35.081  10.643
32775W        W 5123  28.647  34.603   2.342
32776W        W 5124   8.371  18.669   1.777
32777W        W 5125  30.028  23.648   2.877
32778W        W 5126  25.583  39.831   4.246
32779W        W 5127  17.270  22.689  11.393
32780W        W 5128  41.443  29.601   1.342
32781W        W 5129  17.682  18.652  13.401
32782W        W 5130  23.548   3.270   4.721
32783W        W 5131   4.374  11.130  14.399
32784W        W 5132  15.581  13.351   3.777
32785W        W 5133  32.886  18.759   1.792
32786W        W 5134  40.880   8.768  13.030
32787W        W 5135  18.785  32.611  14.817
32788W        W 5136  14.312  35.576   4.137
32789W        W 5137  25.645  34.950   2.239
32790W        W 5138   4.246  44.873  12.476
32791W        W 5139  21.202  35.488  12.923
32792W        W 5140   9.842   2.764  11.919
32793W        W 5141   0.468   9.845  11.047
32794W        W 5142  21.670  41.371  10.946
32795W        W 5143  30.925  43.388   3.797
32796W        W 5144  20.239   2.323   0.425
32797W        W 5145  34.922  34.447  10.590
32798W        W 5146  27.674  20.083   1.854
32799W        W 5147  24.166  25.101   5.082
32800W        W 5148   9.886   6.309  14.462
32801W        W 5149  37.373  20.078   0.433
32802W        W 5150   6.799   9.744   2.815
32803W        W 5151  36.563  27.467  10.566
32804W        W 5152   0.870  29.944   2.248
32805W        W 5153   8.837   1.795  11.913
32806W        W 5154  18.071  18.252  10.633
32807W        W 5155  39.823   4.336  11.967
32808W        W 5156  19.676  16.584  11.996
32809W        W 5157  27.170  23.041   0.323
32810W        W 5158  11.699   4.282  13.415
32811W        W 5159  34.875   1.389   0.451
32812W        W 5160  29.109  25.974  12.085
32813W        W 5161  29.431   7.785   5.177
32814W        W 5162  36.363  43.398   2.407
32815W        W 5163  12.152  37.041  12.411
32816W        W 5164   9.229   5.854  14.974
32817W        W 5165  25.139  16.241   4.270
32818W        W 5166  35.074  33.980  11.441
32819W        W 5167  35.513  21.063  11.117
32820W        W 5168  40.388  41.898  11.883
32821W        W 5169  38.362   7.754   2.715
32822W        W 5170  34.470  25.575   3.831
32823W        W 5171  27.036  23.550   2.876
32824W        W 5172   6.413  33.608  12.528
32825W        W 5173   9.762  19.593   1.727
32826W        W 5174  40.829  31.615   2.393
32827W        W 5175   1.789  39.488   3.646
32828W        W 5176  13.109   4.438   0.802
32829W        W 5177  20.555  25.615   1.246
32830W        W 5178  25.619  21.030   0.444
32831W        W 5179  35.924  24.722   2.399
32832W        W 5180  20.594  44.821   3.759
32833W        W 5181  39.534  20.623  10.936
32834W        W 5182  29.011  13.183   2.814
32835W        W 5183   9.154  37.427   2.698
32836W        W 5184  34.945  22.178  12.076
32837W        W 5185  15.149   8.808  11.383
32838W        W 5186  11.796   1.923   4.245
32839W        W 5187  27.084   6.239   4.598
32840W        W 5188   3.872  31.973   9.943
32841W        W 5189  19.583  21.069   2.716
32842W        W 5190  19.613  28.503   3.641
32843W        W 5191   4.386  25.086   1.210
32844W        W 5192  39.028  18.084  13.928
32845W        W 5193  19.714  28.961   2.198
32846W        W 5194  10.734  38.533  11.446
32847W        W 5195   2.236  43.482  13.840
32848W        W 5196  10.359  34.390  14.287
32849W        W 5197  29.435  25.998   2.786
32850W        W 5198  28.526  43.496  13.331
32851W        W 5199  19.602  44.975   4.187
32852W        W 5200  14.596  37.529   0.287
32853W        W 5201  41.005   8.877   3.704
32854W        W 5202  36.487  24.122  10.915
32855W        W 5203  19.217  44.331  10.522
32856W        W 5204  32.607  37.421   3.650
32857W        W 5205  35.043  31.008  11.111
32858W        W 5206  41.478  31.639   4.143
32859W        W 5207   1.375   2.295  11.545
32860W        W 5208   4.289  13.187  14.484
32861W        W 5209  40.321   3.851   3.365
32862W        W 5210  18.202  39.320  13.339
32863W        W 5211  20.266   7.904  14.974
32864W        W 5212  13.669  41.898   4.289
32865W        W 5213  17.640  26.459  11.902
32866W        W 5214  35.917   0.885  12.470
32867W        W 5215  28.666  36.377  13.830
32868W        W 5216   1.296   2.838  13.328
32869W        W 5217  35.477  11.857   0.794
32870W        W 5218  22.246  42.791  14.308
32871W        W 5219   9.270  19.534  11.102
32872W        W 5220  39.500  19.752  11.374
32873W        W 5221   3.813  22.694   3.672
32874W        W 5222   7.174  41.385   1.367
32875W        W 5223   8.309  44.975   4.806
32876W        W 5224  30.558  33.390   4.147
32877W        W 5225  16.307  15.281   3.810
32878W        W 5226  13.681   6.696   1.312
32879W        W 5227  23.034  21.537  11.506
32880W        W 5228  31.984  42.818   1.833
32881W        W 5229  10.186  44.280   2.253
32882W        W 5230  30.931  27.595  13.946
32883W        W 5231  37.028  35.529  14.434
32884W        W 5232  30.517  40.423   2.356
32885W        W 5233   5.888   2.433   4.264
32886W        W 5234   9.181  11.224  14.792
32887W        W 5235   2.757  16.608   0.925
32888W        W 5236  15.669  35.384   4.156
32889W        W 5237   4.425  39.923  14.855
32890W        W 5238  32.558  40.410   4.306
32891W        W 5239  31.557  19.190  11.128
32892W        W 5240   9.766   6.360   0.764
32893W        W 5241  39.939  34.879   4.318
32894W        W 5242  15.769  13.749   2.788
32895W        W 5243  20.743  32.472   2.319
32896W        W 5244   3.215  34.384  11.608
32897W        W 5245  38.051  30.521   4.756
32898W        W 5246  43.373  36.058  11.559
32899W        W 5247  37.494  24.512  13.480
32900W        W 5248  11.276  10.696  12.088
32901W        W 5249   0.390   1.440  12.466
32902W        W 5250  36.909   8.711  12.836
32903W        W 5251  13.673  17.607   4.303
32904W        W 5252  24.610  19.534   4.630
32905W        W 5253   2.838  43.941   1.278
32906W        W 5254   9.757  31.427   3.767
32907W        W 5255  10.730  13.259  11.463
32908W        W 5256  43.964  39.560   2.836
32909W        W 5257  33.410   3.872  11.979
32910W        W 5258  39.969  13.635  11.904
32911W        W 5259  40.042  44.940   3.789
32912W        W 5260  12.792   3.312   4.597
32913W        W 5261   3.865  30.980   2.746
32914W        W 5262   3.824  25.971   4.221
32915W        W 5263  32.109   1.925   0.460
32916W        W 5264  20.639  43.301   2.308
32917W        W 5265  21.731  29.640  11.869
32918W        W 5266   4.279  20.741  10.441
32919W        W 5267   8.162  26.084   3.665
32920W        W 5268  43.500   1.413   2.370
32921W        W 5269  38.862  27.068  14.792
32922W        W 5270   3.387  36.505  14.334
32923W        W 5271  28.467  13.293  13.943
32924W        W 5272  42.321  38.003   1.796
32925W        W 5273   4.887  29.660   3.319
32926W        W 5274  31.952  27.460   2.738
32927W        W 5275  35.057  17.781  11.858
32928W        W 5276  34.120  41.839  13.818
32929W        W 5277  35.089  35.035  14.902
32930W        W 5278  35.914  23.146   3.863
32931W        W 5279  34.521  22.171  10.491
32932W        W 5280   5.249   0.358   0.367
32933W        W 5281  18.648   8.280  12.410
32934W        W 5282  10.179  25.973   5.119
32935W        W 5283  28.462   2.959  12.828
32936W        W 5284  27.541  21.140   0.323
32937W        W 5285  40.448  21.166  13.851
32938W        W 5286  21.094  14.609   4.145
32939W        W 5287  34.102   4.389   1.795
32940W        W 5288  38.361  29.605  12.365
32941W        W 5289  30.070  33.982   1.810
32942W        W 5290  31.949  17.790  12.003
32943W        W 5291  27.490  43.401   3.681
32944W        W 5292  29.633  12.669   2.778
32945W        W 5293  14.728   9.738   2.884
32946W        W 5294  11.759  21.685  11.409
32947W        W 5295  24.038  16.629  12.909
32948W        W 5296  25.625  24.074  12.370
32949W        W 5297  40.447   6.729   2.294
32950W        W 5298  37.500  33.882   0.775
32951W        W 5299   8.730  27.473  11.014
32952W        W 5300  35.002  20.630  11.888
32953W        W 5301  21.121  39.939  10.472
32954W        W 5302  36.408  10.200  14.783
32955W        W 5303   0.319  19.175   2.774
32956W        W 5304   9.675  20.568   2.837
32957W        W 5305  26.097  41.936  14.502
32958W        W 5306  44.944  17.088   3.338
32959W        W 5307  31.582  31.054   1.845
32960W        W 5308  33.579  42.963   4.771
32961W        W 5309  18.745  13.335   0.841
32962W        W 5310  43.820  34.074  11.502
32963W        W 5311   6.868   0.431   1.762
32964W        W 5312  14.292  21.247  12.067
32965W        W 5313  42.025  33.544  13.988
32966W        W 5314  37.029  22.141  12.990
32967W        W 5315  21.676   6.821  11.553
32968W        W 5316   8.205  32.059   0.730
32969W        W 5317  22.035  33.112   2.281
32970W        W 5318   1.782  15.187   4.327
32971W        W 5319   6.883  13.806  11.879
32972W        W 5320  41.438  39.815  13.523
32973W        W 5321  13.107   3.461   3.785
32974W        W 5322  33.457   2.893  14.282
32975W        W 5323  43.396  30.636  10.559
32976W        W 5324   6.269  31.446  13.519
32977W        W 5325   7.316  21.585   0.784
32978W        W 5326   6.398  26.097   3.633
32979W        W 5327  30.989  25.209   0.765
32980W        W 5328  24.125  43.917   4.791
32981W        W 5329  11.847  11.801   1.803
32982W        W 5330  14.679  44.811  14.978
32983W        W 5331  33.526  32.597  14.002
32984W        W 5332  35.429  23.556  10.533
32985W        W 5333  39.516  30.918   0.867
32986W        W 5334   8.252  31.458   0.895
32987W        W 5335   4.281  12.682   2.751
32988W        W 5336  26.606  40.874  11.043
32989W        W 5337   1.245  42.844   2.675
32990W        W 5338  42.301  12.183   4.163
32991W        W 5339  22.585   8.316   0.773
32992W        W 5340  39.946  23.084  13.856
32993W        W 5341  12.195   5.374   3.790
32994W        W 5342   0.884   3.797  10.920
32995W        W 5343  25.487   3.361  14.398
32996W        W 5344  31.918   9.192   5.138
32997W        W 5345  41.827  20.196  10.909
32998W        W 5346  40.362  29.586  14.959
32999W        W 5347   2.413  23.163  12.525
33000W        W 5348  22.188  30.959   1.706
33001W        W 5349   2.269  10.733   1.897
33002W        W 5350  20.091  22.597   4.261
33003W        W 5351  40.823  44.872  11.856
33004W        W 5352  34.521  33.986  10.589
33005W        W 5353  28.039  22.075  10.624
33006W        W 5354  18.723  30.976  14.375
33007W        W 5355   9.262  16.238   4.137
33008W        W 5356  40.845  28.043  13.954
33009W        W 5357  35.576   7.225   2.288
33010W        W 5358  38.926  14.801   1.917
33011W        W 5359  38.495  11.200  11.907
33012W        W 5360  32.109  20.211   4.251
33013W        W 5361  21.746  39.948   1.330
33014W        W 5362  44.387   1.422   1.729
33015W        W 5363  22.180  26.128   3.729
33016W        W 5364  10.752   0.370   1.420
33017W        W 5365  38.968   8.365  13.368
33018W        W 5366   8.819   5.808  10.938
33019W        W 5367  25.488  19.284  12.973
33020W        W 5368  20.059  29.168  11.919
33021W        W 5369  29.620   2.856   2.269
33022W        W 5370   9.335  10.872  10.590
33023W        W 5371   0.908  32.114  14.881
33024W        W 5372  32.613  36.454   9.604
33025W        W 5373  19.731  30.925  10.633
33026W        W 5374  22.616  43.767   2.367
33027W        W 5375   9.282   7.390  11.973
33028W        W 5376  43.901  41.788  13.982
33029W        W 5377  24.019  26.692   1.729
33030W        W 5378  40.943  25.516  13.403
33031W        W 5379   6.421  24.072  13.952
33032W        W 5380  17.254  16.127   2.704
33033W        W 5381  40.992  32.610   3.795
33034W        W 5382  35.584  18.160   3.661
33035W        W 5383  22.207  30.979   2.210
33036W        W 5384  42.416  14.234   2.336
33037W        W 5385  33.045  35.998  13.794
33038W        W 5386  34.578  26.529  12.347
33039W        W 5387  18.563   8.766   0.950
33040W        W 5388  36.404   2.926   0.727
33041W        W 5389  20.187  34.904  10.613
33042W        W 5390  26.507  36.360  13.486
33043W        W 5391  40.481  11.350   2.870
33044W        W 5392  39.404  13.214   2.673
33045W        W 5393  13.628   8.688  13.455
33046W        W 5394  28.113  20.218   3.307
33047W        W 5395  43.922   2.397  14.299
33048W        W 5396  37.898  14.619  10.467
33049W        W 5397  44.953  10.222  13.366
33050W        W 5398  13.219  43.390  12.456
33051W        W 5399  42.914   6.188   5.240
33052W        W 5400  36.928  38.551  10.532
33053W        W 5401  39.337  34.563  11.062
33054W        W 5402   6.254  27.950  13.330
33055W        W 5403  23.620  31.049   1.413
33056W        W 5404  42.894   4.296   1.880
33057W        W 5405  35.516  24.985  13.351
33058W        W 5406  24.576  14.284  14.781
33059W        W 5407  23.599   8.731  14.390
33060W        W 5408  41.895   4.736  12.359
33061W        W 5409  20.152  19.559  11.485
33062W        W 5410  26.040  40.023  14.330
33063W        W 5411  22.724   0.977  14.940
33064W        W 5412  16.581  19.194   3.844
33065W        W 5413  32.934  17.629  14.280
33066W        W 5414  11.735  31.096  10.431
33067W        W 5415  32.998  17.093  11.444
33068W        W 5416  35.582  34.521   2.227
33069W        W 5417  10.646  41.795   3.866
33070W        W 5418  42.908  22.529  13.412
33071W        W 5419  18.632  12.759   9.960
33072W        W 5420   7.338  16.699  10.918
33073W        W 5421  13.780  29.987  11.905
33074W        W 5422  19.763  42.388   0.943
33075W        W 5423  16.810  11.210   4.272
33076W        W 5424  28.956  12.831   1.774
33077W        W 5425  17.690   4.774  14.348
33078W        W 5426  29.641  44.354  12.565
33079W        W 5427  18.132  35.069  12.061
33080W        W 5428   8.804  41.972  11.125
33081W        W 5429  39.050  33.565   1.792
33082W        W 5430   2.442  17.791   0.837
33083W        W 5431  24.167  24.186  10.448
33084W        W 5432   2.769  28.441  11.962
33085W        W 5433  17.149  22.012   2.187
33086W        W 5434  20.072  14.322   4.830
33087W        W 5435  40.392  25.075   1.248
33088W        W 5436  41.039  21.023   3.245
33089W        W 5437  17.254   8.281  13.464
33090W        W 5438  30.105  21.227   1.406
33091W        W 5439  28.964  11.862   2.354
33092W        W 5440  40.542  36.441  13.954
33093W        W 5441  32.980   2.835  13.900
33094W        W 5442  40.367  29.532   3.184
33095W        W 5443  20.121  37.547   4.650
33096W        W 5444  39.446  38.511  12.055
33097W        W 5445  25.533  36.502   0.926
33098W        W 5446   6.217  37.918  14.953
33099W        W 5447  43.285  13.686   2.402
33100W        W 5448  38.500   4.720   4.344
33101W        W 5449  13.349  29.945   3.760
33102W        W 5450  34.423   6.888   4.771
33103W        W 5451  12.732  20.045  12.489
33104W        W 5452  41.832  39.477  14.459
33105W        W 5453  34.384  39.380   4.332
33106W        W 5454  14.778  12.177   0.770
33107W        W 5455  12.161   4.377   2.879
33108W        W 5456  35.971  26.032  12.984
33109W        W 5457  17.105  38.920   9.941
33110W        W 5458  28.007  40.508  11.489
33111W        W 5459  40.343  26.097   3.731
33112W        W 5460  35.499  22.043   2.266
33113W        W 5461  20.725  18.589   1.761
33114W        W 5462  18.724  30.599  10.412
33115W        W 5463  16.151   0.371   4.138
33116W        W 5464   1.324   7.244   0.327
33117W        W 5465  43.338  38.913  13.880
33118W        W 5466  26.037   8.690  13.956
33119W        W 5467  12.791  34.972  12.459
33120W        W 5468  16.101   4.432   1.900
33121W        W 5469  30.968   4.215   2.373
33122W        W 5470  27.642  11.672   0.819
33123W        W 5471  10.843  13.105  10.639
33124W        W 5472   3.903   8.382  10.550
33125W        W 5473  32.918  39.348  11.889
33126W        W 5474  35.876  27.584  11.504
33127W        W 5475  19.058  44.352   4.156
33128W        W 5476  15.198  18.150   1.378
33129W        W 5477  44.389   7.678   2.837
33130W        W 5478  34.922  24.976   3.244
33131W        W 5479  44.898  28.633  10.465
33132W        W 5480  11.794   1.967   0.401
33133W        W 5481  41.878  30.126  13.426
33134W        W 5482  42.936   2.802  14.946
33135W        W 5483  34.423   9.311  11.092
33136W        W 5484  25.964  21.610  12.081
33137W        W 5485  15.759  35.569  13.793
33138W        W 5486   6.881   5.709   3.222
33139W        W 5487  41.425  40.485   1.704
33140W        W 5488  26.130  21.600  13.442
33141W        W 5489  22.243  43.776   1.419
33142W        W 5490  12.277   3.841   2.703
33143W        W 5491  36.544  19.536   2.259
33144W        W 5492  13.113  30.602  10.503
33145W        W 5493   7.689  35.063   4.196
33146W        W 5494  31.011  19.149   4.756
33147W        W 5495   3.894  40.469   3.318
33148W        W 5496  16.144  14.619   2.672
33149W        W 5497   1.471   1.279  11.514
33150W        W 5498   7.823  34.524   2.300
33151W        W 5499  36.962   5.302  13.830
33152W        W 5500   1.407  22.660  11.453
33153W        W 5501   5.923  36.010  14.937
33154W        W 5502   3.874  38.482  13.061
33155W        W 5503  35.556  11.324   3.862
33156W        W 5504  22.009  25.643   3.244
33157W        W 5505  28.060  20.649  14.936
33158W        W 5506   1.386  11.227  14.489
33159W        W 5507  33.023  20.239   4.196
33160W        W 5508  22.739   2.744   1.808
33161W        W 5509   6.286  38.958   9.932
33162W        W 5510  29.518  25.507   0.861
33163W        W 5511  25.070   4.396   1.434
33164W        W 5512  22.694  23.726   3.277
33165W        W 5513  38.889  19.284  14.318
33166W        W 5514   1.460  27.014  10.429
33167W        W 5515   4.840  33.943   4.138
33168W        W 5516  26.168   4.341   1.431
33169W        W 5517  19.098  36.466   0.356
33170W        W 5518  38.399  40.838  12.825
33171W        W 5519  34.588  39.551   4.663
33172W        W 5520   3.409  12.854  14.885
33173W        W 5521  17.627  40.831   2.241
33174W        W 5522  31.570  22.580   0.901
33175W        W 5523   2.874  38.376   0.922
33176W        W 5524  20.256   0.929  14.405
33177W        W 5525  16.741  41.365   3.233
33178W        W 5526  22.134  33.061   0.461
33179W        W 5527  13.678   7.799  12.427
33180W        W 5528   9.874  24.593  14.013
33181W        W 5529  43.989  13.205   3.804
33182W        W 5530  13.170  20.649   3.297
33183W        W 5531  23.232   2.759  11.519
33184W        W 5532   6.360  35.467   3.384
33185W        W 5533  17.088  24.136  10.445
33186W        W 5534  13.609  34.032  14.995
33187W        W 5535  27.607  20.217   3.680
33188W        W 5536   1.859  41.445  10.633
33189W        W 5537  10.369   7.777   3.258
33190W        W 5538  19.140  31.637   1.754
33191W        W 5539  43.959   6.343   1.389
33192W        W 5540  27.496   9.712  11.906
33193W        W 5541  25.000  19.775  14.950
33194W        W 5542   1.266  25.564   0.295
33195W        W 5543  20.735  43.985   1.318
33196W        W 5544  13.170  19.641   4.162
33197W        W 5545  39.382  27.962   0.428
33198W        W 5546  27.004   6.809  11.118
33199W        W 5547  10.153  34.562  12.997
33200W        W 5548   8.664  10.224   1.358
33201W        W 5549   8.658  30.114   4.726
33202W        W 5550  42.787   4.703   2.387
33203W        W 5551  36.365   3.395  12.865
33204W        W 5552  37.002   3.725  12.050
33205W        W 5553   6.734  23.709  10.941
33206W        W 5554  32.111  31.574   3.746
33207W        W 5555   2.880  28.064  12.087
33208W        W 5556   3.793   5.239   3.740
33209W        W 5557  34.981  24.609   4.770
33210W        W 5558  34.475  20.198  11.475
33211W        W 5559  13.289  27.652  12.974
33212W        W 5560  20.542  12.287  10.907
33213W        W 5561   9.852   4.770  11.931
33214W        W 5562   3.849  41.933  13.931
33215W        W 5563  15.217  34.489  12.923
33216W        W 5564  20.058  21.124   0.359
33217W        W 5565  37.977  40.494  12.408
33218W        W 5566   9.195  42.487  12.571
33219W        W 5567   4.698   9.269  10.475
33220W        W 5568  25.541  16.285   1.310
33221W        W 5569  18.706   6.282  14.365
33222W        W 5570   2.953  32.947  12.952
33223W        W 5571  13.266  16.105  14.448
33224W        W 5572  41.305  34.374  11.954
33225W        W 5573  41.500  24.169  13.819
33226W        W 5574  34.581  23.528   0.935
33227W        W 5575  34.378   1.433  14.976
33228W        W 5576  21.180  30.614   1.296
33229W        W 5577  42.372  30.029  14.401
33230W        W 5578  40.314  28.511  14.968
33231W        W 5579  11.761  22.219  14.289
33232W        W 5580  17.791  24.632  13.020
33233W        W 5581   2.443  18.686   0.348
33234W        W 5582  14.264  42.804   4.272
33235W        W 5583  37.053  35.555  11.573
33236W        W 5584   3.310  11.224   4.783
33237W        W 5585  13.746  43.874   3.175
33238W        W 5586  12.168  22.217   4.231
33239W        W 5587  32.391  41.319  14.501
33240W        W 5588   2.752   3.783   3.660
33241W        W 5589  39.352  20.174   0.458
33242W        W 5590  40.422  15.201   2.410
33243W        W 5591   6.301  30.463   9.997
33244W        W 5592  10.235  21.199   0.822
33245W        W 5593  34.972  28.556   1.270
33246W        W 5594   0.316  17.232   2.801
33247W        W 5595  26.672  42.325   4.616
33248W        W 5596   4.246  38.399  13.901
33249W        W 5597  10.811  15.106   4.165
33250W        W 5598  12.811  27.165   4.746
33251W        W 5599   9.176   4.920   0.421
33252W        W 5600  31.007  30.586   0.318
33253W        W 5601  36.900   4.237  14.909
33254W        W 5602  17.179  10.378  10.965
33255W        W 5603  32.535  32.571  10.921
33256W        W 5604  23.690  33.919  14.796
33257W        W 5605  25.127  44.403  13.359
33258W        W 5606  37.460   3.314  11.117
33259W        W 5607  28.476  20.740  11.589
33260W        W 5608  19.580  16.675   0.917
33261W        W 5609   2.915  33.068   1.911
33262W        W 5610  39.011  19.135   4.765
33263W        W 5611   3.789  42.878   2.358
33264W        W 5612  37.457  24.152  13.813
33265W        W 5613  34.891  22.661   2.850
33266W        W 5614   4.416   1.417  11.099
33267W        W 5615   4.338  26.635   4.218
33268W        W 5616   0.949  21.563   1.699
33269W        W 5617  15.717  16.260   2.418
33270W        W 5618  37.433   7.380   5.774
33271W        W 5619   3.804  23.102  11.018
33272W        W 5620  16.737   9.277  11.396
33273W        W 5621  19.116  36.096  13.007
33274W        W 5622  41.333  14.108   3.813
33275W        W 5623  11.815  41.386   3.216
33276W        W 5624  12.297   3.414  10.040
33277W        W 5625  20.607  42.798  13.927
33278W        W 5626  26.702  24.123  11.443
33279W        W 5627  18.604  23.985  12.408
33280W        W 5628  43.793  41.468  10.462
33281W        W 5629  36.513   4.205  12.000
33282W        W 5630  30.145  38.004  12.563
33283W        W 5631  43.941  20.569   3.376
33284W        W 5632  10.375  22.670   4.257
33285W        W 5633   2.388   7.766  14.322
33286W        W 5634   9.210  21.693  10.911
33287W        W 5635  33.603  19.082  12.953
33288W        W 5636  30.918  33.932  11.451
33289W        W 5637  16.166  17.291  11.396
33290W        W 5638  28.649  21.560  11.426
33291W        W 5639   8.210   4.889   3.669
33292W        W 5640   0.953   2.967  12.001
33293W        W 5641  37.903  16.160  11.042
33294W        W 5642  36.537  15.606  12.055
33295W        W 5643  10.687  16.782  13.356
33296W        W 5644  18.223  23.018  10.452
33297W        W 5645   0.390  38.370  10.578
33298W        W 5646  29.597  18.631   3.152
33299W        W 5647  17.622  17.271  10.070
33300W        W 5648  22.565   8.740   5.276
33301W        W 5649  37.526   4.867   2.275
33302W        W 5650   9.773  22.999  13.969
33303W        W 5651  17.752  15.584   4.223
33304W        W 5652   8.801  36.465   3.724
33305W        W 5653  26.191   6.703  14.863
33306W        W 5654  31.529  21.030  13.979
33307W        W 5655  14.811  38.899  13.008
33308W        W 5656  15.644   1.822   1.291
33309W        W 5657  10.266  38.565   4.217
33310W        W 5658   4.378  38.033  14.971
33311W        W 5659  39.056  43.802  12.443
33312W        W 5660  44.908  22.998  13.044
33313W        W 5661  37.337  44.007   1.764
33314W        W 5662  43.779  41.342   4.280
33315W        W 5663  36.470  34.516  12.476
33316W        W 5664  41.347   7.694   4.296
33317W        W 5665  35.032  33.489  13.045
33318W        W 5666  23.222  29.112   0.243
33319W        W 5667   2.373  36.427  12.014
33320W        W 5668  10.314  33.975   2.324
33321W        W 5669  40.982  26.602  14.462
33322W        W 5670  35.875  18.260   2.274
33323W        W 5671  44.806  44.362  14.400
33324W        W 5672   1.936  33.497  12.569
33325W        W 5673  12.157  22.223  14.902
33326W        W 5674  42.931  30.418   3.828
33327W        W 5675  32.940  44.942  14.475
33328W        W 5676  10.325  43.804   3.724
33329W        W 5677  40.880  35.942  13.825
33330W        W 5678   0.819  43.953  10.450
33331W        W 5679  40.853   8.891  11.936
33332W        W 5680  10.297   1.449   2.886
33333W        W 5681  35.965   3.870  14.863
33334W        W 5682  41.387  44.914  11.048
33335W        W 5683  36.931   5.331  10.456
33336W        W 5684  40.455  12.323   2.857
33337W        W 5685  26.545   2.371  12.983
33338W        W 5686  11.242  33.523   1.251
33339W        W 5687  42.880  11.767   4.165
33340W        W 5688  10.663   8.807  10.924
33341W        W 5689  43.413   5.829   3.869
33342W        W 5690  18.551  15.718   5.101
33343W        W 5691  29.951  10.775  11.576
33344W        W 5692   5.776  23.144   4.747
33345W        W 5693  27.501  28.577  10.448
33346W        W 5694  19.210  33.511   0.278
33347W        W 5695  42.977  13.115   1.783
33348W        W 5696   6.414   7.880  10.517
33349W        W 5697  40.483   0.973  12.857
33350W        W 5698  35.452   1.455   3.739
33351W        W 5699  40.808  33.592  11.855
33352W        W 5700   9.821  28.080   4.217
33353W        W 5701  42.909  17.128  12.430
33354W        W 5702  41.309   6.701   3.377
33355W        W 5703   9.724  35.428   2.877
33356W        W 5704  13.202   4.921   1.335
33357W        W 5705  32.002  25.532   2.212
33358W        W 5706  44.937   5.737  14.386
33359W        W 5707  31.988  35.023   0.423
33360W        W 5708  22.682  16.647   0.803
33361W        W 5709  22.624  32.000  10.918
33362W        W 5710   3.288  22.173   3.291
33363W        W 5711  21.643  11.672  14.902
33364W        W 5712   6.839  19.164   3.167
33365W        W 5713  42.523  33.020  11.972
33366W        W 5714  35.049   3.418  11.477
33367W        W 5715   1.875  15.745   3.243
33368W        W 5716  22.531  27.515  12.907
33369W        W 5717  36.434  28.635  14.977
33370W        W 5718  19.045  21.539  12.343
33371W        W 5719  21.514   1.751   2.888
33372W        W 5720  40.799  10.212   0.926
33373W        W 5721  17.161  30.909   3.314
33374W        W 5722  10.216   3.236   2.240
33375W        W 5723  33.001  44.786   0.867
33376W        W 5724  13.844  17.222   3.756
33377W        W 5725   3.857  12.804   3.239
33378W        W 5726  19.156  37.551  10.405
33379W        W 5727  42.370  25.125  13.489
33380W        W 5728  36.928  31.049  14.801
33381W        W 5729  22.733  36.580   1.386
33382W        W 5730  31.018  41.898  13.394
33383W        W 5731  18.291  11.733  14.851
33384W        W 5732  22.164  10.252   0.932
33385W        W 5733  24.620  27.943   4.332
33386W        W 5734   5.303  24.051   1.854
33387W        W 5735  38.526  38.359   1.712
33388W        W 5736  11.832  32.958  13.829
33389W        W 5737  14.828  24.100  11.428
33390W        W 5738  40.481  30.488  10.516
33391W        W 5739  37.047   9.763   0.828
33392W        W 5740  41.499  41.999   2.754
33393W        W 5741  39.990   4.242   2.364
33394W        W 5742  25.180  24.131   3.179
33395W        W 5743   1.778  19.119   0.411
33396W        W 5744   0.784   0.868  10.030
33397W        W 5745  32.548  22.604   2.284
33398W        W 5746  23.080  36.453   1.880
33399W        W 5747  26.013  17.085  10.924
33400W        W 5748  24.207  26.561   4.638
33401W        W 5749  22.155  24.704  12.947
33402W        W 5750  41.891  22.207   3.251
33403W        W 5751  19.039   5.808   2.333
33404W        W 5752  12.232   7.698  11.457
33405W        W 5753  28.585  16.681  13.326
33406W        W 5754  13.607  22.207  14.504
33407W        W 5755   7.267  42.019  11.915
33408W        W 5756   7.695  32.576  11.973
33409W        W 5757  10.756  34.915  13.348
33410W        W 5758  16.158  39.009   2.361
33411W        W 5759  20.070  39.362  11.495
33412W        W 5760  26.173  39.954  14.811
33413W        W 5761  18.637  31.592  13.519
33414W        W 5762  21.609  11.234  12.460
33415W        W 5763  19.213  38.852   4.748
33416W        W 5764  33.090  16.801  13.994
33417W        W 5765   5.329  39.512  12.076
33418W        W 5766   0.980  17.572   0.401
33419W        W 5767  14.808  36.001  14.516
33420W        W 5768  18.713   8.755   4.203
33421W        W 5769   6.327  42.321   0.741
33422W        W 5770  27.095   9.860  11.512
33423W        W 5771  33.975  38.508   1.307
33424W        W 5772  40.851  15.613   3.642
33425W        W 5773  39.458  44.965  11.069
33426W        W 5774  32.599   9.827   3.187
33427W        W 5775  35.914  10.644  11.459
33428W        W 5776  14.700  10.333  12.344
33429W        W 5777  40.499  18.568   1.728
33430W        W 5778   6.872   5.263  12.467
33431W        W 5779  23.717  16.296   0.910
33432W        W 5780   8.339   0.353  11.874
33433W        W 5781   7.390   8.824   1.388
33434W        W 5782  34.104  30.012   0.779
33435W        W 5783   6.873  36.848  11.592
33436W        W 5784  17.585  31.469  13.412
33437W        W 5785  28.006  19.689  14.030
33438W        W 5786  18.069  24.025  11.982
33439W        W 5787   5.375  11.736  10.495
33440W        W 5788  32.412  40.392  14.403
33441W        W 5789  15.760   9.643   3.148
33442W        W 5790  35.479  30.459   0.801
33443W        W 5791  43.865  42.850   1.697
33444W        W 5792  29.477   6.363  14.853
33445W        W 5793  40.939  17.212   1.831
33446W        W 5794  11.659  43.387   0.253
33447W        W 5795   1.768  35.498   1.262
33448W        W 5796  42.519   4.774   0.460
33449W        W 5797   5.784   5.775  14.493
33450W        W 5798  26.493  27.978   2.338
33451W        W 5799  32.472  32.399   4.707
33452W        W 5800  16.112   7.871  14.515
33453W        W 5801  10.803  16.231  14.948
33454W        W 5802   8.666   3.942   1.744
33455W        W 5803  25.992  17.072  12.083
33456W        W 5804  28.957   8.326   4.831
33457W        W 5805  26.038  16.204   2.418
33458W        W 5806  44.261  41.340  13.512
33459W        W 5807  24.579  31.601   2.185
33460W        W 5808  27.597  41.897  12.490
33461W        W 5809  39.422  25.164  13.869
33462W        W 5810  41.033  23.089  12.360
33463W        W 5811  13.727  31.153   4.275
33464W        W 5812  26.045  39.352   0.473
33465W        W 5813  19.144  24.499  11.590
33466W        W 5814  11.849  44.342  10.581
33467W        W 5815  12.720  12.131  11.960
33468W        W 5816  24.599   7.254  11.934
33469W        W 5817  30.100  42.816   0.406
33470W        W 5818  34.600  38.350   1.827
33471W        W 5819  36.482  34.515  11.588
33472W        W 5820   8.172   6.187  11.872
33473W        W 5821   1.738  29.980   2.362
33474W        W 5822  15.792  12.667  12.848
33475W        W 5823  41.455  28.983  14.300
33476W        W 5824  15.137  42.339  14.352
33477W        W 5825  31.974  12.808  11.488
33478W        W 5826  43.959   2.950   2.734
33479W        W 5827   7.699   2.321  11.041
33480W        W 5828  27.661   4.860  14.920
33481W        W 5829   0.374  26.179  13.393
33482W        W 5830  13.288  40.455   5.090
33483W        W 5831   4.783   5.933   2.729
33484W        W 5832  12.814  36.050  10.511
33485W        W 5833   7.886  40.907  13.027
33486W        W 5834  41.951  43.774  10.494
33487W        W 5835  37.385   3.776  13.522
33488W        W 5836  15.093  14.642  14.401
33489W        W 5837  28.514  42.909  12.005
33490W        W 5838  38.396  42.450  11.533
33491W        W 5839   7.308  40.502   0.747
33492W        W 5840  42.826  10.310  10.418
33493W        W 5841  32.128  43.289  10.894
33494W        W 5842  14.266  36.499  12.089
33495W        W 5843  12.330  24.040   3.793
33496W        W 5844   5.904  10.711   0.763
33497W        W 5845  32.888  40.850   2.312
33498W        W 5846  13.666  10.221   1.823
33499W        W 5847  19.564  23.140   4.289
33500W        W 5848  37.548   1.800  13.831
33501W        W 5849  41.037  17.147   3.228
33502W        W 5850   6.184  15.725   3.713
33503W        W 5851  32.496   7.720   0.903
33504W        W 5852  17.187   1.791   2.259
33505W        W 5853  38.470  44.956   4.199
33506W        W 5854  32.960  31.123   2.318
33507W        W 5855  25.211  15.123  10.982
33508W        W 5856  32.969   1.827  11.975
33509W        W 5857  27.049  30.555  10.458
33510W        W 5858  30.955  13.837  10.906
33511W        W 5859  12.152  34.872   0.444
33512W        W 5860  21.651   9.820  13.890
33513W        W 5861  13.805   4.729  12.471
33514W        W 5862  22.588  22.667   2.852
33515W        W 5863   0.427  41.856   2.809
33516W        W 5864  21.636  17.564  14.328
33517W        W 5865  11.736  27.672  13.801
33518W        W 5866  21.185   2.926   0.873
33519W        W 5867  24.693   6.739  10.506
33520W        W 5868  40.418  42.520   1.758
33521W        W 5869  40.308  30.929   3.782
33522W        W 5870  42.362  22.123   3.270
33523W        W 5871  19.686  25.962  11.586
33524W        W 5872  15.780   1.739   4.625
33525W        W 5873  32.492  10.674  12.935
33526W        W 5874  43.834   8.238  14.814
33527W        W 5875  19.746  39.424   4.717
33528W        W 5876  43.774  21.079  10.600
33529W        W 5877  12.643  23.221  13.350
33530W        W 5878  26.077  36.531   1.831
33531W        W 5879   7.672   0.375   4.664
33532W        W 5880  23.118  23.122  13.490
33533W        W 5881   4.206  19.090  12.544
33534W        W 5882   5.273   7.259   1.909
33535W        W 5883  18.207   8.327   1.732
33536W        W 5884  10.863   9.296  12.488
33537W        W 5885  12.254  36.429  10.578
33538W        W 5886  43.506  18.776   3.656
33539W        W 5887  31.604   9.330  12.947
33540W        W 5888  14.689  21.742  10.956
33541W        W 5889  28.526  13.675   4.786
33542W        W 5890   8.788  21.134  11.892
33543W        W 5891  16.173   4.315  10.536
33544W        W 5892  27.056   3.914  12.897
33545W        W 5893  25.167  36.846   0.353
33546W        W 5894   0.452  12.751  13.968
33547W        W 5895   3.951  25.143  12.021
33548W        W 5896  35.922   3.788  10.621
33549W        W 5897  33.945   9.312  13.806
33550W        W 5898  27.592  30.496   2.222
33551W        W 5899  42.285  15.816   0.301
33552W        W 5900  19.226  39.535  12.356
33553W        W 5901   1.769  26.565   0.843
33554W        W 5902  44.909   4.382  10.596
33555W        W 5903  10.771  33.443   0.747
33556W        W 5904  16.147  31.912   3.310
33557W        W 5905  22.608   2.470  14.863
33558W        W 5906   5.263  31.492  13.991
33559W        W 5907  31.646  35.013  13.326
33560W        W 5908   2.864  33.920   1.307
33561W        W 5909   9.650  29.443  13.450
33562W        W 5910   9.661  37.948  13.351
33563W        W 5911   5.422  29.434   0.876
33564W        W 5912   5.698  31.123   3.639
33565W        W 5913   4.797  19.725  11.991
33566W        W 5914   7.860  13.321   3.194
33567W        W 5915  36.588  22.697   1.831
33568W        W 5916  24.020  22.184  12.341
33569W        W 5917  22.649  30.151  10.141
33570W        W 5918  39.450  25.968  12.441
33571W        W 5919   1.890  37.544   0.874
33572W        W 5920   3.782  30.048  12.926
33573W        W 5921  26.039  18.640  12.018
33574W        W 5922  13.214   6.269   1.273
33575W        W 5923   3.352  31.497   2.383
33576W        W 5924  27.565  14.231   0.314
33577W        W 5925  29.969  26.203  14.761
33578W        W 5926  32.475   4.221   1.713
33579W        W 5927  18.738  27.682   0.743
33580W        W 5928   9.821  39.498   1.306
33581W        W 5929   3.384  35.429   0.344
33582W        W 5930  41.307  10.204  11.551
33583W        W 5931  14.718  24.720   0.765
33584W        W 5932  11.255  27.476  12.827
33585W        W 5933  24.130  40.472  12.454
33586W        W 5934  28.499  40.370  14.857
33587W        W 5935  33.458  27.583   1.876
33588W        W 5936  40.512  20.050   4.655
33589W        W 5937  20.251   8.808   1.714
33590W        W 5938   8.717  44.926  13.028
33591W        W 5939  33.595  44.300   4.822
33592W        W 5940   7.710  10.823  13.810
33593W        W 5941  41.941  20.212   2.264
33594W        W 5942  17.791  29.050   1.427
33595W        W 5943  17.273   4.860  12.036
33596W        W 5944  32.588  20.597  11.488
33597W        W 5945  36.553   4.813  12.375
33598W        W 5946  13.289  17.137   1.402
33599W        W 5947  32.452   5.282   0.942
33600W        W 5948  32.026  16.697   4.809
33601W        W 5949  39.361  23.137   3.839
33602W        W 5950  11.710  20.081   3.629
33603W        W 5951  11.255   9.825   0.821
33604W        W 5952  34.555  30.974  13.876
33605W        W 5953   5.313  20.715   0.341
33606W        W 5954  18.564  20.149   4.344
33607W        W 5955  16.252  11.363   2.382
33608W        W 5956  39.436  10.865   3.703
33609W        W 5957  13.794  24.013  12.480
33610W        W 5958  37.371  12.730  10.902
33611W        W 5959   3.782   0.792  13.493
33612W        W 5960  37.460  21.680   0.286
33613W        W 5961  17.238   6.784  14.331
33614W        W 5962  10.846  25.029  10.565
33615W        W 5963  12.159   5.208   0.877
33616W        W 5964  27.136  12.288  14.986
33617W        W 5965   1.812   5.741   3.200
33618W        W 5966  36.429  40.422   1.317
33619W        W 5967  28.568  13.191  13.044
33620W        W 5968   5.868  22.210  10.541
33621W        W 5969   7.882  12.656  12.405
33622W        W 5970  42.484  22.190   3.675
33623W        W 5971  15.690  13.800  13.446
33624W        W 5972  41.308  13.842   3.356
33625W        W 5973  42.834   4.386  12.062
33626W        W 5974  10.656  15.734   3.818
33627W        W 5975   3.215   0.389  13.023
33628W        W 5976  36.996  20.183  11.017
33629W        W 5977  10.829  35.913   0.483
33630W        W 5978  29.068  27.097  11.015
33631W        W 5979  13.830   9.154  13.506
33632W        W 5980   5.429  31.905  14.500
33633W        W 5981   5.783  32.472   2.263
33634W        W 5982  14.798  44.985  13.965
33635W        W 5983   2.276  41.493  13.011
33636W        W 5984   2.323  13.836  13.470
33637W        W 5985  18.267   1.306  13.927
33638W        W 5986  36.464  33.903  13.920
33639W        W 5987  17.222  42.931   0.793
33640W        W 5988  35.002   5.829  10.474
33641W        W 5989  10.341  44.978  11.934
33642W        W 5990  38.953  31.954  14.796
33643W        W 5991   1.831   5.423  13.886
33644W        W 5992  19.219  19.689  11.431
33645W        W 5993  32.429  38.435   1.788
33646W        W 5994   9.845   5.777   2.836
33647W        W 5995  42.288  27.003   4.308
33648W        W 5996  24.682  12.801  14.349
33649W        W 5997  27.665  25.097  14.023
33650W        W 5998  29.089   0.769  14.001
33651W        W 5999  10.877  20.126   1.711
33652W        W 6000  13.683  19.661  14.415
33653W        W 6001  18.690   0.437  10.889
33654W        W 6002  20.114   3.857  13.864
33655W        W 6003  41.928  33.902   4.169
33656W        W 6004   5.767  39.520   3.638
33657W        W 6005   2.336  23.020   3.320
33658W        W 6006  30.956   9.804  11.059
33659W        W 6007  43.922  40.972   3.646
33660W        W 6008  41.009   5.286   1.413
33661W        W 6009  10.735  27.109   2.795
33662W        W 6010   8.328   6.902  12.001
33663W        W 6011  27.054  14.303  11.000
33664W        W 6012  35.540   2.948   2.796
33665W        W 6013  34.513  11.806  12.066
33666W        W 6014  29.570  14.139   2.730
33667W        W 6015  30.452  11.299  13.985
33668W        W 6016  43.909  36.926   3.311
33669W        W 6017  32.424  11.270  12.023
33670W        W 6018  30.146  22.138   4.263
33671W        W 6019  39.870  12.693   4.263
33672W        W 6020  27.596  20.040  14.308
33673W        W 6021  40.987   2.234   1.802
33674W        W 6022  15.813  24.210   3.829
33675W        W 6023  25.584  22.694   0.889
33676W        W 6024  38.867  35.908   2.822
33677W        W 6025  44.500   9.259   1.724
33678W        W 6026   5.731  42.396   1.843
33679W        W 6027  34.455  18.784  12.565
33680W        W 6028  25.024  29.641  10.516
33681W        W 6029  18.070  42.518   0.821
33682W        W 6030  41.382  21.555   3.767
33683W        W 6031  20.191   8.361  14.963
33684W        W 6032  23.597  35.595  12.450
33685W        W 6033  24.121   7.283   5.180
33686W        W 6034  37.869   1.812  13.903
33687W        W 6035  17.167   9.343   4.770
33688W        W 6036  24.703  11.350  14.361
33689W        W 6037  41.791  34.418  11.039
33690W        W 6038  15.588  32.055  13.460
33691W        W 6039   9.209   4.247  14.947
33692W        W 6040  33.434   9.702   1.249
33693W        W 6041  38.375  37.832   4.345
33694W        W 6042  20.528   3.907   4.813
33695W        W 6043   0.290  22.143   4.664
33696W        W 6044  23.027  28.442   2.330
33697W        W 6045  20.263  24.483   4.248
33698W        W 6046  25.608   3.396   2.399
33699W        W 6047  30.918  32.543  12.882
33700W        W 6048   9.252  26.600   3.308
33701W        W 6049  34.002  27.620  14.486
33702W        W 6050  37.839  10.239   3.788
33703W        W 6051   8.295   9.224   4.768
33704W        W 6052  20.258  16.271  11.915
33705W        W 6053  15.243  38.822   4.695
33706W        W 6054   3.383  14.330  13.353
33707W        W 6055  34.931  40.023  14.954
33708W        W 6056   8.773  29.546   0.262
33709W        W 6057  39.901  12.277  11.904
33710W        W 6058  33.949  21.575  12.926
33711W        W 6059  10.265  24.023   2.688
33712W        W 6060  15.817  38.870   5.177
33713W        W 6061  13.298   6.255  10.130
33714W        W 6062  36.930  14.802  14.858
33715W        W 6063  16.773  24.084  12.998
33716W        W 6064  33.103  27.100   2.762
33717W        W 6065  40.373  42.846   9.955
33718W        W 6066   9.888  40.832  12.049
33719W        W 6067  41.359  44.998  14.985
33720W        W 6068   5.805   0.978  13.468
33721W        W 6069   3.862  30.512  11.018
33722W        W 6070  26.008  35.995   1.805
33723W        W 6071  14.785  39.039  11.420
33724W        W 6072  31.465  14.321  11.588
33725W        W 6073  18.547  12.671   0.247
33726W        W 6074  43.947  43.000  13.980
33727W        W 6075   3.443  44.264  14.918
33728W        W 6076   4.371  19.651  13.457
33729W        W 6077   0.768  14.733  10.893
33730W        W 6078  14.782   5.827  12.525
33731W        W 6079  43.800  23.503  14.417
33732W        W 6080  13.139  28.524  11.377
33733W        W 6081   7.302   1.320   0.879
33734W        W 6082  25.080   9.828  10.513
33735W        W 6083   2.350  11.277  12.537
33736W        W 6084   5.831  30.999   2.828
33737W        W 6085  25.517   0.878  11.021
33738W        W 6086  17.662  33.545  12.401
33739W        W 6087   4.718  29.591   1.780
33740W        W 6088  37.848  13.139   1.780
33741W        W 6089   4.435  16.751  10.433
33742W        W 6090  42.389  20.697  11.002
33743W        W 6091   8.654  12.732   1.781
33744W        W 6092  10.300   5.438   5.781
33745W        W 6093  19.715  27.068  14.801
33746W        W 6094   5.818   7.789  11.977
33747W        W 6095  28.163   5.302  11.407
33748W        W 6096  16.127   7.247   4.263
33749W        W 6097   1.804   8.784   4.150
33750W        W 6098  44.928  22.193   4.815
33751W        W 6099  25.482  19.589   4.837
33752W        W 6100   0.426  30.658  12.437
33753W        W 6101  28.021  16.085  11.538
33754W        W 6102  35.914  40.504  12.340
33755W        W 6103  38.527  40.039   1.306
33756W        W 6104  13.320  40.547  12.529
33757W        W 6105  16.707  44.347  12.554
33758W        W 6106  18.579  28.643   2.677
33759W        W 6107  29.613   3.719  13.335
33760W        W 6108   6.251  44.797  10.007
33761W        W 6109  11.208  44.401   4.248
33762W        W 6110  37.891   9.276   1.770
33763W        W 6111   1.952   1.278   1.289
33764W        W 6112   4.940  41.012   2.416
33765W        W 6113  19.275  43.016   0.243
33766W        W 6114  12.159  27.688   1.758
33767W        W 6115  26.981  29.465   4.226
33768W        W 6116  18.129  40.492   3.857
33769W        W 6117   7.282  23.173   0.925
33770W        W 6118  34.493  39.503   2.810
33771W        W 6119  16.213  43.408   1.409
33772W        W 6120   1.738  17.091   0.956
33773W        W 6121  13.105  22.633   9.941
33774W        W 6122  12.157  41.329  12.887
33775W        W 6123  11.859  26.176   2.837
33776W        W 6124  16.232  19.548  14.321
33777W        W 6125  13.676   8.754   2.205
33778W        W 6126  24.123  18.789  14.309
33779W        W 6127   7.303  37.846  12.452
33780W        W 6128   6.375  40.994  14.475
33781W        W 6129  19.227  13.268   1.829
33782W        W 6130  27.570  44.809  11.961
33783W        W 6131  25.586  32.109   1.773
33784W        W 6132  29.536  11.753  14.473
33785W        W 6133  28.151  15.651   2.686
33786W        W 6134  44.838  14.299   1.741
33787W        W 6135  19.636   2.790   1.881
33788W        W 6136  21.126  29.065  12.825
33789W        W 6137  30.465  10.187   5.177
33790W        W 6138  44.964  13.827   2.885
33791W        W 6139  12.261   4.709  14.894
33792W        W 6140  21.067  40.346   4.272
33793W        W 6141  43.826  30.118   3.712
33794W        W 6142  34.076  22.711   1.867
33795W        W 6143  22.102   9.856   3.767
33796W        W 6144  20.743  26.582   3.721
33797W        W 6145  28.483   4.864   4.623
33798W        W 6146  22.032  37.388  12.920
33799W        W 6147   7.213  20.252   0.361
33800W        W 6148  40.314  21.121  14.450
33801W        W 6149  41.497  24.063  14.318
33802W        W 6150   5.228  44.284  11.578
33803W        W 6151  26.701  30.590   0.842
33804W        W 6152   8.167  13.620  12.993
33805W        W 6153   4.241  27.581  12.398
33806W        W 6154  17.120   3.853   0.834
33807W        W 6155  33.049   1.753   2.343
33808W        W 6156   2.463   2.966   3.691
33809W        W 6157   3.372   1.893  12.998
33810W        W 6158  30.633  11.185  13.397
33811W        W 6159   6.909   9.319   0.409
33812W        W 6160  34.374  34.527   3.819
33813W        W 6161  23.992  16.703   0.440
33814W        W 6162  22.643  17.597  10.006
33815W        W 6163  39.871  39.866   2.359
33816W        W 6164  33.612  36.888   0.277
33817W        W 6165  41.386  40.430   4.283
33818W        W 6166  16.082  15.099   5.664
33819W        W 6167  17.588   7.725   3.795
33820W        W 6168  30.503  13.282  11.066
33821W        W 6169   5.908   6.258   0.913
33822W        W 6170  43.966  12.841  14.786
33823W        W 6171  30.515   6.322   3.704
33824W        W 6172  19.664  19.112   2.751
33825W        W 6173  37.394  28.636   0.760
33826W        W 6174  11.147   0.865  13.953
33827W        W 6175  38.822  28.955   4.616
33828W        W 6176  33.072  33.611  11.911
33829W        W 6177   1.380  12.167   1.331
33830W        W 6178  30.632  25.575   4.789
33831W        W 6179  29.583   3.715  14.481
33832W        W 6180   1.873  10.163  12.046
33833W        W 6181  40.470  43.332   3.284
33834W        W 6182  42.961  22.126   1.789
33835W        W 6183  32.621  33.612  12.859
33836W        W 6184  19.630  43.910  14.431
33837W        W 6185  18.199  30.093   2.314
33838W        W 6186  23.096  10.772   3.290
33839W        W 6187  28.646   0.415   3.291
33840W        W 6188  39.887  14.707  10.465
33841W        W 6189  39.843  10.834  13.319
33842W        W 6190  12.631  28.041   0.381
33843W        W 6191  25.683  22.560  13.389
33844W        W 6192  41.436  30.099   1.749
33845W        W 6193  44.324  38.908  13.442
33846W        W 6194  39.411  28.447   3.289
33847W        W 6195  41.036  22.676   2.395
33848W        W 6196  21.238  32.481  10.585
33849W        W 6197  23.049  34.392  14.470
33850W        W 6198  11.770   4.753   3.250
33851W        W 6199  35.585  31.595  11.905
33852W        W 6200  25.188  11.146   3.383
33853W        W 6201  11.154  36.015   2.325
33854W        W 6202  31.459  13.735  13.815
33855W        W 6203  27.963  30.051   0.353
33856W        W 6204  32.486  38.886  12.000
33857W        W 6205  30.612  24.012   1.840
33858W        W 6206   8.749  44.405  14.875
33859W        W 6207   9.837   6.241  13.059
33860W        W 6208  21.024  30.496  11.991
33861W        W 6209  42.816  29.034  11.982
33862W        W 6210  15.716   7.794   4.830
33863W        W 6211  20.182  43.766   0.732
33864W        W 6212  24.974   7.734  13.042
33865W        W 6213  17.069  15.190  11.980
33866W        W 6214  20.681  28.533   0.306
33867W        W 6215  17.231   8.719   3.301
33868W        W 6216  41.512  23.579  11.997
33869W        W 6217  10.221  33.508   4.760
33870W        W 6218  32.033  37.856   4.200
33871W        W 6219  33.392  36.965  13.413
33872W        W 6220  21.581   7.754  12.016
33873W        W 6221  44.916  17.065  14.889
33874W        W 6222   7.912  42.877   2.209
33875W        W 6223  19.555  40.456   1.374
33876W        W 6224  34.533  25.587  11.393
33877W        W 6225  27.085  10.698   0.734
33878W        W 6226   1.855  11.176   3.229
33879W        W 6227  22.063  23.628  12.009
33880W        W 6228  30.134   9.152  14.294
33881W        W 6229  21.537   2.915   3.803
33882W        W 6230  32.597  37.873   1.442
33883W        W 6231  40.807  35.435   2.731
33884W        W 6232   8.870  35.568   2.681
33885W        W 6233  39.817  32.065   2.273
33886W        W 6234  20.724  33.474  13.960
33887W        W 6235  25.527  41.975  10.450
33888W        W 6236  15.788  27.529   1.808
33889W        W 6237  43.956  34.564   0.301
33890W        W 6238   0.350   5.831  11.579
33891W        W 6239  25.062  26.471  14.863
33892W        W 6240  38.462  20.607  13.833
33893W        W 6241  20.157  16.297   0.784
33894W        W 6242  43.854   9.181   1.769
33895W        W 6243  34.888   1.344   4.120
33896W        W 6244  22.714  32.559  10.914
33897W        W 6245  43.275  19.678   0.746
33898W        W 6246  22.625  26.642   1.908
33899W        W 6247  43.468  41.896   3.759
33900W        W 6248  37.878   9.855  14.963
33901W        W 6249  25.987  43.492  14.456
33902W        W 6250  40.847  13.170   3.793
33903W        W 6251  18.741  31.611   9.447
33904W        W 6252  13.823  37.935  13.987
33905W        W 6253  16.808  11.192  14.914
33906W        W 6254  41.404  41.856  11.093
33907W        W 6255  30.119  34.921  11.500
33908W        W 6256  32.908  10.684   4.151
33909W        W 6257  43.887  12.127  12.064
33910W        W 6258  33.541   4.823   0.734
33911W        W 6259  39.538  18.159  10.511
33912W        W 6260  13.313  32.093   1.731
33913W        W 6261  17.222   6.918  10.006
33914W        W 6262  32.400  22.724   2.670
33915W        W 6263   5.302   5.297   0.462
33916W        W 6264  13.724  15.211  11.965
33917W        W 6265  18.696  23.544   4.322
33918W        W 6266  26.570   1.356   0.479
33919W        W 6267  31.040  17.254  13.975
33920W        W 6268  35.445  32.000  10.483
33921W        W 6269  41.876  22.564  14.761
33922W        W 6270  32.490   4.808   1.263
33923W        W 6271   3.443  43.340   0.872
33924W        W 6272  18.593   9.651  13.829
33925W        W 6273  30.933  21.660  11.879
33926W        W 6274  22.163   7.795  12.050
33927W        W 6275  10.768  29.549   4.838
33928W        W 6276  37.576  41.431  11.385
33929W        W 6277  18.100  43.501   1.828
33930W        W 6278  21.104   7.896  12.427
33931W        W 6279  25.997  38.445   1.279
33932W        W 6280  12.239  13.687   3.172
33933W        W 6281  27.552  22.566   1.913
33934W        W 6282  18.190  31.632   0.362
33935W        W 6283   7.298   9.712  13.869
33936W        W 6284  32.491   8.886   3.649
33937W        W 6285  27.103  39.909   1.415
33938W        W 6286  26.615  29.042   0.783
33939W        W 6287  36.991  26.547   3.835
33940W        W 6288  13.129   4.786  11.097
33941W        W 6289  17.650  12.170   3.761
33942W        W 6290   3.447  30.568   3.286
33943W        W 6291  21.172  28.592  11.467
33944W        W 6292  40.801  25.071  12.531
33945W        W 6293   9.336  37.364   3.858
33946W        W 6294  21.221   9.880   1.370
33947W        W 6295   8.750   3.372   5.305
33948W        W 6296  20.187  18.580  11.938
33949W        W 6297  26.112  27.008  12.581
33950W        W 6298   6.846  44.411  14.851
33951W        W 6299  22.741  39.876  12.500
33952W        W 6300  18.234   8.341   2.783
33953W        W 6301   0.309  14.165   0.363
33954W        W 6302   0.475  26.974  14.301
33955W        W 6303  10.860  28.994  13.468
33956W        W 6304  32.922  35.553  14.778
33957W        W 6305  14.339  41.482   4.171
33958W        W 6306   2.338  41.411  12.013
33959W        W 6307  27.127  17.647  13.414
33960W        W 6308  18.069   4.328   0.392
33961W        W 6309  13.243   7.250   4.290
33962W        W 6310  44.977   7.247  11.436
33963W        W 6311  38.443  33.480   0.281
33964W        W 6312  37.872  12.772   3.264
33965W        W 6313  14.238  37.461   4.181
33966W        W 6314  12.216  15.151   1.236
33967W        W 6315  25.177  12.696   0.309
33968W        W 6316  11.340  22.214  14.770
33969W        W 6317  36.383  34.970   0.781
33970W        W 6318  40.456   6.271   0.888
33971W        W 6319   6.366  31.151  12.359
33972W        W 6320  24.513  20.623   0.804
33973W        W 6321  21.152   5.365  11.095
33974W        W 6322   2.378  31.015   4.614
33975W        W 6323   0.890  18.703   3.788
33976W        W 6324  38.425  20.252  13.037
33977W        W 6325   5.380  18.770  11.384
33978W        W 6326  19.676  16.790   1.710
33979W        W 6327  38.077  19.739  12.094
33980W        W 6328  18.106  14.243  11.947
33981W        W 6329  17.674   7.215   0.739
33982W        W 6330  21.094  34.450  14.958
33983W        W 6331  35.421  33.932  14.302
33984W        W 6332  34.407   2.903   0.863
33985W        W 6333  10.687  17.101  12.558
33986W        W 6334   6.683  27.956   2.873
33987W        W 6335  18.742  25.673  12.450
33988W        W 6336  17.748  44.783  13.921
33989W        W 6337  11.184  43.270  12.405
33990W        W 6338  11.232  29.964   4.719
33991W        W 6339  32.424   6.886  10.945
33992W        W 6340  23.185  28.038   0.313
33993W        W 6341  24.636  39.372  12.986
33994W        W 6342  35.994  16.714   3.385
33995W        W 6343  16.175  27.677   4.197
33996W        W 6344  18.242   7.728   2.828
33997W        W 6345   6.744  32.515  12.418
33998W        W 6346  16.108   7.222   3.275
33999W        W 6347  36.094  31.579   0.397
34000W        W 6348  27.111  43.816  10.589
34001W        W 6349  24.146  22.649  10.438
34002W        W 6350  40.828  35.386  11.382
34003W        W 6351  15.702  41.971  11.120
34004W        W 6352  16.673   8.842   2.895
34005W        W 6353   0.352  40.987  11.006
34006W        W 6354  17.280  28.555   1.419
34007W        W 6355  31.138   3.237  13.912
34008W        W 6356  29.575  23.175   4.705
34009W        W 6357  27.672  21.534   2.286
34010W        W 6358   7.718  20.646  11.107
34011W        W 6359  13.718  16.258   4.689
34012W        W 6360  30.011  39.972   0.735
34013W        W 6361  31.148   4.322  12.440
34014W        W 6362  29.575   2.452  11.002
34015W        W 6363   5.247  36.364   1.414
34016W        W 6364  11.143  14.692  11.447
34017W        W 6365  25.484  16.081  11.588
34018W        W 6366  17.687  24.689   2.671
34019W        W 6367  36.911  35.094  13.975
34020W        W 6368  17.583  18.091  13.889
34021W        W 6369  35.979  42.468  14.416
34022W        W 6370   6.891  39.397  10.976
34023W        W 6371   7.853  12.336   2.843
34024W        W 6372  10.641  44.320  14.367
34025W        W 6373  40.814  42.791   2.321
34026W        W 6374  42.412   2.469  13.457
34027W        W 6375  31.613  12.221  14.883
34028W        W 6376  41.479   5.901   2.312
34029W        W 6377  17.064  35.433   2.184
34030W        W 6378  37.866  34.555   3.378
34031W        W 6379  26.667  28.507  12.540
34032W        W 6380  40.842  17.729  14.912
34033W        W 6381  24.688   2.328   3.639
34034W        W 6382  27.686  15.598   5.101
34035W        W 6383  20.197   9.656   0.461
34036W        W 6384  31.477  16.262  13.335
34037W        W 6385  11.843  44.819  14.472
34038W        W 6386  31.973  31.584  11.021
34039W        W 6387  44.390  31.529  11.001
34040W        W 6388  14.722  30.944  14.446
34041W        W 6389  11.230  29.615  12.890
34042W        W 6390  28.036   4.438  11.117
34043W        W 6391  16.570  14.752   5.769
34044W        W 6392  15.580  20.748  11.550
34045W        W 6393  31.016  32.101   2.409
34046W        W 6394  26.572   0.487  13.450
34047W        W 6395  34.429  34.092   4.827
34048W        W 6396  16.104  22.252   2.839
34049W        W 6397  43.800  19.181   0.862
34050W        W 6398  32.624  22.609   1.905
34051W        W 6399   4.891   3.259   0.817
34052W        W 6400   7.784  37.989  10.950
34053W        W 6401  15.799  11.343   2.417
34054W        W 6402  40.955  42.411  11.008
34055W        W 6403  33.086  10.760   4.775
34056W        W 6404  23.540   7.398   1.882
34057W        W 6405  22.235   2.402  12.017
34058W        W 6406   3.266  28.510  12.014
34059W        W 6407  28.592  25.611  14.456
34060W        W 6408  11.636  24.174  13.891
34061W        W 6409  20.579  27.156  12.426
34062W        W 6410  30.557   7.881  10.123
34063W        W 6411  12.622  37.966  10.600
34064W        W 6412   6.790  26.200  11.431
34065W        W 6413  24.200  40.026  13.436
34066W        W 6414  15.113  24.184   3.852
34067W        W 6415   1.397  12.692  11.408
34068W        W 6416  14.832  25.648   4.835
34069W        W 6417  21.556  39.432   2.398
34070W        W 6418  18.102  13.736   2.376
34071W        W 6419  18.216  39.841   3.308
34072W        W 6420  32.931  26.537  12.505
34073W        W 6421  20.268  17.164   1.752
34074W        W 6422   7.175  31.465   3.766
34075W        W 6423  29.466   3.389  10.917
34076W        W 6424  41.305  17.189  13.318
34077W        W 6425  26.660  22.570  14.900
34078W        W 6426  23.509   4.274   2.664
34079W        W 6427  40.355  31.934  14.805
34080W        W 6428  33.521  28.959   1.218
34081W        W 6429  26.644  43.793  11.419
34082W        W 6430   2.247  18.673   3.725
34083W        W 6431  21.737  32.899  10.937
34084W        W 6432  27.622  24.091   1.336
34085W        W 6433  12.849   1.429  12.914
34086W        W 6434   0.848   5.307   1.821
34087W        W 6435   7.809  27.941   2.880
34088W        W 6436  25.485  12.296   1.257
34089W        W 6437  26.108  17.765   1.850
34090W        W 6438   2.895  19.546   3.856
34091W        W 6439  29.107  24.657   2.320
34092W        W 6440   5.227  10.374  13.907
34093W        W 6441  35.423  32.407  10.486
34094W        W 6442  39.832  19.709   1.431
34095W        W 6443   2.757  33.937  12.357
34096W        W 6444  23.018  39.935  12.355
34097W        W 6445  42.938  19.724  10.087
34098W        W 6446  17.660   4.441   4.276
34099W        W 6447  39.945  32.034  12.340
34100W        W 6448  19.605   1.288   3.199
34101W        W 6449  25.002  40.833   1.804
34102W        W 6450  31.999  29.479   5.173
34103W        W 6451  25.118   8.735   5.742
34104W        W 6452  42.878   9.756  11.440
34105W        W 6453  36.375  34.993   1.867
34106W        W 6454  34.890  19.260  12.089
34107W        W 6455  19.722  40.480   3.310
34108W        W 6456  10.323   8.192  10.462
34109W        W 6457  35.422   6.844  12.019
34110W        W 6458   6.705  28.637   1.282
34111W        W 6459  30.437  15.194   1.362
34112W        W 6460  23.113  35.086   4.142
34113W        W 6461  28.645  32.071   2.880
34114W        W 6462  12.830   0.962  13.815
34115W        W 6463  10.150  41.449   9.942
34116W        W 6464   4.945  40.372   1.862
34117W        W 6465  43.292  37.880   1.254
34118W        W 6466   9.838   5.783  12.959
34119W        W 6467   2.371  22.210  12.373
34120W        W 6468  39.545  44.877   0.837
34121W        W 6469  24.066  16.208  10.935
34122W        W 6470  31.592  43.935   2.889
34123W        W 6471  14.615  41.888   0.878
34124W        W 6472   2.366  36.041   5.223
34125W        W 6473  22.530  21.709   1.442
34126W        W 6474  24.132   3.799   0.865
34127W        W 6475   4.729  33.086   5.091
34128W        W 6476  23.076  23.676   0.277
34129W        W 6477   3.935  21.566   1.225
34130W        W 6478  36.434  33.414  13.941
34131W        W 6479  32.516   4.810   2.329
34132W        W 6480  44.377  31.143   3.851
34133W        W 6481  27.592  32.034   2.880
34134W        W 6482   2.757   1.731   0.765
34135W        W 6483   7.790  26.177   2.304
34136W        W 6484  12.614  23.579   1.925
34137W        W 6485  41.498   5.811  12.421
34138W        W 6486  38.516  22.732   4.817
34139W        W 6487   9.392  41.964  11.000
34140W        W 6488   6.425  10.250  11.876
34141W        W 6489  39.040   0.446   1.829
34142W        W 6490  40.853  17.584   4.344
34143W        W 6491  38.828  32.465   1.756
34144W        W 6492  21.215   3.239  11.985
34145W        W 6493  33.966   7.195  13.913
34146W        W 6494  36.535  28.947   0.376
34147W        W 6495  41.418  35.886   1.337
34148W        W 6496   9.809  42.934   1.426
34149W        W 6497   9.171  34.374   3.780
34150W        W 6498  23.986  17.172   2.202
34151W        W 6499  29.071  10.264   3.256
34152W        W 6500  37.916   9.844   2.731
34153W        W 6501  31.929  13.695  12.091
34154W        W 6502  14.832  22.177   1.934
34155W        W 6503  25.019   9.349   5.750
34156W        W 6504  38.959  40.806  14.314
34157W        W 6505   8.673   7.417   4.230
34158W        W 6506  34.953  11.174  13.461
34159W        W 6507   0.357  11.640   4.747
34160W        W 6508  22.111  39.347   2.746
34161W        W 6509  13.267  41.374  13.519
34162W        W 6510  16.683   6.800   3.258
34163W        W 6511   8.235  26.086   1.802
34164W        W 6512  17.633  37.544   3.184
34165W        W 6513  31.897  12.844  12.065
34166W        W 6514  24.110  24.104   5.247
34167W        W 6515  44.920  38.567  14.935
34168W        W 6516  34.375  25.212   1.316
34169W        W 6517  43.376  35.946   0.890
34170W        W 6518  17.126  11.182  14.849
34171W        W 6519   3.926  13.745  11.033
34172W        W 6520  31.470  18.774  10.638
34173W        W 6521  22.149   7.875  10.629
34174W        W 6522   9.360  22.678   3.271
34175W        W 6523  32.064  36.346  14.463
34176W        W 6524  29.649   9.339  13.477
34177W        W 6525  30.502  41.801   0.308
34178W        W 6526   9.766  11.206   1.342
34179W        W 6527  39.819   8.843  10.536
34180W        W 6528  44.381  18.767  12.390
34181W        W 6529  40.009  16.239   2.261
34182W        W 6530   3.925  38.861  13.400
34183W        W 6531   1.313   6.815  10.924
34184W        W 6532  13.845   2.739   0.335
34185W        W 6533   6.322  10.380   3.679
34186W        W 6534  30.510  17.140  14.914
34187W        W 6535  10.279  23.610  10.925
34188W        W 6536   1.358  26.961   3.170
34189W        W 6537  40.417   0.752  14.917
34190W        W 6538  15.664  10.682  14.290
34191W        W 6539  11.693   0.843  14.299
34192W        W 6540   0.957  28.568   3.700
34193W        W 6541   2.929   0.957  11.908
34194W        W 6542   4.758  11.173   3.280
34195W        W 6543  33.545  18.205  10.409
34196W        W 6544  37.840   3.919   0.392
34197W        W 6545  20.191   6.853  13.333
34198W        W 6546   0.391   6.301  14.471
34199W        W 6547  12.665  33.875  13.859
34200W        W 6548  23.049  34.979  12.903
34201W        W 6549  15.621  39.857   4.269
34202W        W 6550  20.646  31.607  14.980
34203W        W 6551  18.078  30.427  10.989
34204W        W 6552  31.633   0.359   2.190
34205W        W 6553  16.202   7.850   1.214
34206W        W 6554   4.752  25.681  14.888
34207W        W 6555  38.565   2.364   4.619
34208W        W 6556   8.868  41.485  13.394
34209W        W 6557  40.942  12.621  13.349
34210W        W 6558  35.514  26.670  12.912
34211W        W 6559  20.751  44.383   3.192
34212W        W 6560  18.562  30.061  10.121
34213W        W 6561   3.806  20.226  12.862
34214W        W 6562  33.431  33.069  10.025
34215W        W 6563  37.358  37.361  14.768
34216W        W 6564  35.562  33.025  10.924
34217W        W 6565  12.193   5.264  14.421
34218W        W 6566  33.027   2.393   2.405
34219W        W 6567  38.891   4.414  11.483
34220W        W 6568  13.293  27.183   2.729
34221W        W 6569  36.927  43.959   0.755
34222W        W 6570  41.943   4.334  13.899
34223W        W 6571   7.753  33.952   9.475
34224W        W 6572  10.675  33.386  12.005
34225W        W 6573  27.012  30.956  14.362
34226W        W 6574  20.222   7.300  13.797
34227W        W 6575   3.296  22.697   2.355
34228W        W 6576   7.319  34.995  11.475
34229W        W 6577   3.948  12.126  12.555
34230W        W 6578   6.904  24.173   4.609
34231W        W 6579   1.279  23.186   0.353
34232W        W 6580  34.399  28.965   0.335
34233W        W 6581  33.886  37.943   1.318
34234W        W 6582  15.084  36.042   3.659
34235W        W 6583  22.549   0.412   0.261
34236W        W 6584  10.148  11.328  13.804
34237W        W 6585  21.745  14.248   1.856
34238W        W 6586  14.223  12.261  11.485
34239W        W 6587  12.261  18.128  12.034
34240W        W 6588  44.428  28.937  11.434
34241W        W 6589  34.079  26.527   1.718
34242W        W 6590  40.871  24.646  13.891
34243W        W 6591  18.198  33.954   2.222
34244W        W 6592  29.146   8.160   2.195
34245W        W 6593  32.576   1.833   4.158
34246W        W 6594  20.666  27.559   4.241
34247W        W 6595   0.333   4.269  11.400
34248W        W 6596   1.329  22.166  10.592
34249W        W 6597  18.706  41.323   5.150
34250W        W 6598  26.540  27.082  10.538
34251W        W 6599  16.620  18.082   3.778
34252W        W 6600  23.494  33.386  13.873
34253W        W 6601   3.459   7.305  12.864
34254W        W 6602  15.591  30.987   2.292
34255W        W 6603  27.094  25.039   0.800
34256W        W 6604  10.311  26.117   2.662
34257W        W 6605   0.914  15.671  10.522
34258W        W 6606  21.732  30.482   1.718
34259W        W 6607  29.983  43.472   1.413
34260W        W 6608  17.621  22.629   0.932
34261W        W 6609  32.091   0.834   2.348
34262W        W 6610  12.263  44.371   1.217
34263W        W 6611  23.034  39.809   2.304
34264W        W 6612   1.763  39.936   0.387
34265W        W 6613  33.067  36.363   1.858
34266W        W 6614   2.418  37.358   1.228
34267W        W 6615   8.242  41.928  11.998
34268W        W 6616  40.324   8.231   1.919
34269W        W 6617  32.095  11.198  14.834
34270W        W 6618   3.937   6.795  12.855
34271W        W 6619  37.507  38.985   3.338
34272W        W 6620  41.327  41.932   4.683
34273W        W 6621  42.499  34.465   2.349
34274W        W 6622  41.297  35.584  10.563
34275W        W 6623  20.101  38.466  11.112
34276W        W 6624  35.922  40.842  13.418
34277W        W 6625   0.270  36.545  14.795
34278W        W 6626  11.738  37.003   1.413
34279W        W 6627  35.435  19.610  14.841
34280W        W 6628  41.840  28.540  11.992
34281W        W 6629  21.609   1.253  14.353
34282W        W 6630  33.533   5.780   1.821
34283W        W 6631   2.351  23.509  13.851
34284W        W 6632   9.168   4.291  10.942
34285W        W 6633  40.463  22.093  11.906
34286W        W 6634  20.702  28.154  11.090
34287W        W 6635  26.460  17.599   4.245
34288W        W 6636  28.002   7.366  11.382
34289W        W 6637  37.376   9.727  13.481
34290W        W 6638   6.353  35.918   5.250
34291W        W 6639   1.451  36.525   1.798
34292W        W 6640  20.565   0.346   2.343
34293W        W 6641  31.482  15.745  13.920
34294W        W 6642  37.891   0.908   3.743
34295W        W 6643  15.736  41.512  11.383
34296W        W 6644  15.727  16.248  12.052
34297W        W 6645   9.831  36.483   0.930
34298W        W 6646  24.578  26.475  14.326
34299W        W 6647  17.685  13.787   1.729
34300W        W 6648  39.541  17.584  11.400
34301W        W 6649  14.758  15.253  12.578
34302W        W 6650  43.929  34.088   3.157
34303W        W 6651   6.692  16.722  14.360
34304W        W 6652  14.288  36.929  11.917
34305W        W 6653  40.472  11.307  13.307
34306W        W 6654  19.053   5.298  10.545
34307W        W 6655  40.990  23.216  11.919
34308W        W 6656  26.999  22.625  13.526
34309W        W 6657  16.812  34.062   0.332
34310W        W 6658  15.600   5.690  14.428
34311W        W 6659  24.213  12.229   4.750
34312W        W 6660  19.600   2.466  12.493
34313W        W 6661  34.016  19.740   4.153
34314W        W 6662  41.917  27.555   3.868
34315W        W 6663  16.648  44.938   3.206
34316W        W 6664  41.428  19.714  12.852
34317W        W 6665  14.750   2.443  14.814
34318W        W 6666  37.080   4.743   2.191
34319W        W 6667  33.952  13.196  12.920
34320W        W 6668  19.687   0.476   3.723
34321W        W 6669   1.921  20.716   2.283
34322W        W 6670  26.701   4.905  12.353
34323W        W 6671  42.330  15.683   4.155
34324W        W 6672  22.565  17.253   0.406
34325W        W 6673   0.478  33.966  12.839
34326W        W 6674  10.683  19.164   0.370
34327W        W 6675   7.218  34.543   3.729
34328W        W 6676   7.795   2.440   0.413
34329W        W 6677  34.107  16.708   3.766
34330W        W 6678  39.043   7.849   0.760
34331W        W 6679  19.595  42.933   0.924
34332W        W 6680   3.904  15.782   3.754
34333W        W 6681   8.354  17.574   0.766
34334W        W 6682  19.158  37.035   2.693
34335W        W 6683  10.162   8.272   1.352
34336W        W 6684  32.595  18.066   4.152
34337W        W 6685  34.951  36.419  10.494
34338W        W 6686  31.528   6.331  10.450
34339W        W 6687   7.360  20.703   2.767
34340W        W 6688  27.690  34.876  10.495
34341W        W 6689  36.558  41.518   4.247
34342W        W 6690  10.676   8.882  14.441
34343W        W 6691  37.919  11.713  12.081
34344W        W 6692  30.907  18.188  14.450
34345W        W 6693  10.222  20.590  13.021
34346W        W 6694  38.925   6.845  11.883
34347W        W 6695  33.414   7.901  10.134
34348W        W 6696   7.801  44.493   0.733
34349W        W 6697   8.718  43.888   0.410
34350W        W 6698  14.630   2.324   1.299
34351W        W 6699  15.293   1.783   0.445
34352W        W 6700  36.031   0.476   0.854
34353W        W 6701  20.267  22.120  10.471
34354W        W 6702  30.051  15.269  11.458
34355W        W 6703  22.580   7.674   0.895
34356W        W 6704   0.309  33.492  10.454
34357W        W 6705  24.519  38.886   3.149
34358W        W 6706  31.896  35.469  14.019
34359W        W 6707   8.311  22.045  10.504
34360W        W 6708   2.266  36.493   1.340
34361W        W 6709  25.688   8.395  10.069
34362W        W 6710  36.516   7.758   5.285
34363W        W 6711  18.676  24.589   3.724
34364W        W 6712  40.053  25.209  14.768
34365W        W 6713   4.780  25.207   1.926
34366W        W 6714  13.225  21.104  12.392
34367W        W 6715  21.191  32.058  10.444
34368W        W 6716  38.554  23.056   2.351
34369W        W 6717  16.258  16.672  13.966
34370W        W 6718  30.105  37.899  10.978
34371W        W 6719  32.494  25.697  13.511
34372W        W 6720  36.061  19.110   4.296
34373W        W 6721  29.651  31.424   1.852
34374W        W 6722  32.063  28.071   1.847
34375W        W 6723  26.581  37.399   0.788
34376W        W 6724  43.454  42.806   0.792
34377W        W 6725  32.080  27.162  11.008
34378W        W 6726  15.250  26.957   3.236
34379W        W 6727   2.263  29.482   3.160
34380W        W 6728  21.257  16.198  14.417
34381W        W 6729  25.642  10.359   4.795
34382W        W 6730  30.478  30.462   1.423
34383W        W 6731  41.526  13.824  11.021
34384W        W 6732  16.111  13.200  11.526
34385W        W 6733   9.177  20.074   3.756
34386W        W 6734  29.158  29.585  13.953
34387W        W 6735  42.030  41.825   2.815
34388W        W 6736  13.248   2.751  14.811
34389W        W 6737  12.777  33.514   0.393
34390W        W 6738  15.743  39.871  13.384
34391W        W 6739  10.326  33.109   2.744
34392W        W 6740   9.359  32.438  13.037
34393W        W 6741  30.153   6.809   1.843
34394W        W 6742  28.947  34.085  14.957
34395W        W 6743  31.460   5.278   4.190
34396W        W 6744   4.780  24.506  14.982
34397W        W 6745  29.096  31.523  13.392
34398W        W 6746  43.299  13.286  13.976
34399W        W 6747  23.707  25.123   2.368
34400W        W 6748  13.330  17.197  13.972
34401W        W 6749  14.589  23.083  11.885
34402W        W 6750  20.649   6.816   3.299
34403W        W 6751  25.704  24.565   2.771
34404W        W 6752  43.306  17.175  11.560
34405W        W 6753   3.888   9.231  13.801
34406W        W 6754  20.756  22.596  12.041
34407W        W 6755   8.700  25.699  10.901
34408W        W 6756  42.435   2.826   2.706
34409W        W 6757  41.786   2.881  12.377
34410W        W 6758   4.403  20.724   1.846
34411W        W 6759  15.703  23.609   2.365
34412W        W 6760  15.678  32.453   2.224
34413W        W 6761   2.239  15.121   1.356
34414W        W 6762  10.379  19.121   3.699
34415W        W 6763  18.282  23.587   2.821
34416W        W 6764  17.581  32.565   0.286
34417W        W 6765  13.825  28.105   4.235
34418W        W 6766   7.252  25.607  10.462
34419W        W 6767   4.390  13.344   3.681
34420W        W 6768  37.351  22.094  14.017
34421W        W 6769  41.407  33.048   0.392
34422W        W 6770  25.177  38.941   2.808
34423W        W 6771   9.813  16.766  11.007
34424W        W 6772   7.783  36.378   4.660
34425W        W 6773  42.828  29.571   2.371
34426W        W 6774  19.087  13.741  13.439
34427W        W 6775  37.555  41.520   1.293
34428W        W 6776  39.339  35.578  14.300
34429W        W 6777   2.347  19.750   5.217
34430W        W 6778   0.494  43.290  11.013
34431W        W 6779  23.009  37.910   0.778
34432W        W 6780  34.891  38.532  13.062
34433W        W 6781  22.091  35.077   4.212
34434W        W 6782  31.943  25.658  12.902
34435W        W 6783  44.922  14.754  11.586
34436W        W 6784  43.016   5.244   4.802
34437W        W 6785  36.987  16.161   2.745
34438W        W 6786   0.299   9.200  12.372
34439W        W 6787   1.953  16.645  11.479
34440W        W 6788   1.326   4.831  12.865
34441W        W 6789  30.651  13.655   2.226
34442W        W 6790   5.256  28.079  14.436
34443W        W 6791  14.660  27.065  14.849
34444W        W 6792  12.716  26.078   4.683
34445W        W 6793   5.324  39.938  12.853
34446W        W 6794  40.498  35.078  14.789
34447W        W 6795  23.200  17.306  12.890
34448W        W 6796  15.204  37.519   3.641
34449W        W 6797  43.990  26.611  11.542
34450W        W 6798  27.049  23.697  10.414
34451W        W 6799  17.252  11.835   4.625
34452W        W 6800  26.160  18.290   4.649
34453W        W 6801  41.497   8.808   0.427
34454W        W 6802  23.649  34.015  12.037
34455W        W 6803   5.818  30.600  11.542
34456W        W 6804  36.009  15.136   4.828
34457W        W 6805  22.117  41.495   1.797
34458W        W 6806  12.693  10.353   3.197
34459W        W 6807  44.002  29.516  11.993
34460W        W 6808  28.155  33.952   1.299
34461W        W 6809  29.441  33.444  10.900
34462W        W 6810  26.536  33.915   2.752
34463W        W 6811  19.267  18.651  14.924
34464W        W 6812  43.982  44.372  14.437
34465W        W 6813  15.724   9.814  10.447
34466W        W 6814   9.217  36.480  13.980
34467W        W 6815  25.670   1.295   2.187
34468W        W 6816  34.506   8.849  11.076
34469W        W 6817  39.318   1.784   3.169
34470W        W 6818  43.379  29.489  14.798
34471W        W 6819  44.919  28.600   1.879
34472W        W 6820  38.044  30.003   0.915
34473W        W 6821  34.894   3.857   0.303
34474W        W 6822  14.609  40.376   1.436
34475W        W 6823  44.428  37.435   2.820
34476W        W 6824  25.644  41.494   0.753
34477W        W 6825  28.455  38.939  13.903
34478W        W 6826  15.582  23.633  13.381
34479W        W 6827  25.087   1.889   1.349
34480W        W 6828  38.938   5.906   1.253
34481W        W 6829  11.164  17.267  14.963
34482W        W 6830  41.811  33.016  13.405
34483W        W 6831   9.352   3.363   5.088
34484W        W 6832  43.979  32.510  10.414
34485W        W 6833  28.673  34.973  14.953
34486W        W 6834  41.294  26.193  12.945
34487W        W 6835  30.501  40.428   3.854
34488W        W 6836   0.934  25.155  12.404
34489W        W 6837  23.686   4.876   4.778
34490W        W 6838  31.082   3.391   0.451
34491W        W 6839  29.162   9.756   4.642
34492W        W 6840  44.370  41.439  12.935
34493W        W 6841  33.385   4.864  10.002
34494W        W 6842  15.746  32.985   0.474
34495W        W 6843  36.558   9.792   1.901
34496W        W 6844  19.557   7.226   3.804
34497W        W 6845  39.338   6.900   0.423
34498W        W 6846   0.746  25.521  10.914
34499W        W 6847  13.820  38.389  12.935
34500W        W 6848  20.222  17.689  14.287
34501W        W 6849  23.196  10.232   2.251
34502W        W 6850  44.901   4.247  13.453
34503W        W 6851  38.516   1.459   2.680
34504W        W 6852  44.879  29.035   3.765
34505W        W 6853  14.762  29.931  11.862
34506W        W 6854   5.690  30.031   0.456
34507W        W 6855  17.801  16.156  11.504
34508W        W 6856   9.313  27.974   1.857
34509W        W 6857   4.777  13.238   1.810
34510W        W 6858  40.884  34.880  11.523
34511W        W 6859  43.445  33.621  13.321
34512W        W 6860   2.297  19.602   1.426
34513W        W 6861  20.247   3.720   1.383
34514W        W 6862  39.834  30.031  12.414
34515W        W 6863  15.170  37.339  12.850
34516W        W 6864  17.217   1.781  13.445
34517W        W 6865   6.794  16.234   4.813
34518W        W 6866  19.053  32.506   0.393
34519W        W 6867  25.693   0.888  11.550
34520W        W 6868   8.896  22.180  10.025
34521W        W 6869  33.513  42.825  12.532
34522W        W 6870  32.613  37.412  13.061
34523W        W 6871   4.420  27.575   3.647
34524W        W 6872  24.529   7.276   1.383
34525W        W 6873  39.820  43.891  11.121
34526W        W 6874  35.901   5.401  12.067
34527W        W 6875   1.358  36.002  11.479
34528W        W 6876  39.491  32.542   0.901
34529W        W 6877  19.082  16.310  13.460
34530W        W 6878  18.780  42.294   1.782
34531W        W 6879  42.019  33.016  10.494
34532W        W 6880  28.489  38.830  14.995
34533W        W 6881  21.064  23.707  12.996
34534W        W 6882   3.924  36.953   1.859
34535W        W 6883  17.620  34.429  11.547
34536W        W 6884   3.772  17.192  12.012
34537W        W 6885  10.874  23.634   0.752
34538W        W 6886  22.707  39.879   5.241
34539W        W 6887  27.523  11.282   4.151
34540W        W 6888   9.655  29.601  10.422
34541W        W 6889  21.196  34.403   4.119
34542W        W 6890  22.144  30.541  11.421
34543W        W 6891  33.456  42.423   0.245
34544W        W 6892  12.342  17.146  11.440
34545W        W 6893  24.601  17.733   1.409
34546W        W 6894  21.621  12.667   3.185
34547W        W 6895  15.229   1.327  12.865
34548W        W 6896   3.231  30.054   4.293
34549W        W 6897  19.220   8.160   2.210
34550W        W 6898   9.304  39.513  11.932
34551W        W 6899  44.453  43.450   4.609
34552W        W 6900  39.559  18.083   2.816
34553W        W 6901  18.654   4.829   1.288
34554W        W 6902  21.041   6.715   1.800
34555W        W 6903   8.759  35.559  11.871
34556W        W 6904  27.060  24.137   1.361
34557W        W 6905  39.047  26.578  10.138
34558W        W 6906  13.746   4.372  10.098
34559W        W 6907  24.583  29.918   3.858
34560W        W 6908  27.158  18.715  11.111
34561W        W 6909  24.090  26.613  14.908
34562W        W 6910  31.018  43.415  10.455
34563W        W 6911   7.800  44.780   3.262
34564W        W 6912  29.930   0.822  11.124
34565W        W 6913  38.062  27.089   1.226
34566W        W 6914  13.784  31.494  11.066
34567W        W 6915  38.065  21.643  13.005
34568W        W 6916  30.113  16.622  13.865
34569W        W 6917   0.849  23.555  11.040
34570W        W 6918  28.155   8.890   9.950
34571W        W 6919  21.654   8.803   3.254
34572W        W 6920  31.928   4.246   2.189
34573W        W 6921  44.889  18.546   2.671
34574W        W 6922   0.918  31.129  13.477
34575W        W 6923  16.778  27.503  11.412
34576W        W 6924  16.604  40.005   0.796
34577W        W 6925  25.020   9.328   9.500
34578W        W 6926  26.173  22.138  11.567
34579W        W 6927  29.005  31.917  14.883
34580W        W 6928  20.604   0.321  12.430
34581W        W 6929   7.368  11.808   4.680
34582W        W 6930  33.132  23.642  13.364
34583W        W 6931  14.334   0.484  13.402
34584W        W 6932   2.858  31.453  13.956
34585W        W 6933  17.212  22.097  10.944
34586W        W 6934  42.015  33.911   0.472
34587W        W 6935  29.939  10.178   4.636
34588W        W 6936  13.836  11.824   3.691
34589W        W 6937   5.883  31.956   4.147
34590W        W 6938   0.749  28.457  10.515
34591W        W 6939  10.204  29.922   3.294
34592W        W 6940  23.543  35.087   3.161
34593W        W 6941   9.702   9.224   3.753
34594W        W 6942  35.474  21.576   1.294
34595W        W 6943  42.023  37.933  14.828
34596W        W 6944   8.695   5.347   0.774
34597W        W 6945  38.445   5.922   2.677
34598W        W 6946   4.341  16.169  12.090
34599W        W 6947  23.515  15.665  13.922
34600W        W 6948  14.639  21.214   3.835
34601W        W 6949  32.597  22.724  12.869
34602W        W 6950  31.926  37.990  12.483
34603W        W 6951  25.625  21.717   2.845
34604W        W 6952  38.521  21.747   4.709
34605W        W 6953  11.786   5.292  13.491
34606W        W 6954  16.584  35.536   3.189
34607W        W 6955  25.091   0.294  13.331
34608W        W 6956  25.551  18.287   5.308
34609W        W 6957  32.979  18.714   3.677
34610W        W 6958   5.789  26.472   2.242
34611W        W 6959  11.191  24.599   2.200
34612W        W 6960  35.418   7.360  12.870
34613W        W 6961   2.387  34.087   2.848
34614W        W 6962  15.269  25.218  13.926
34615W        W 6963  32.423  17.301   2.757
34616W        W 6964  28.185  34.917   2.677
34617W        W 6965  42.479  23.670   2.663
34618W        W 6966  30.413   7.794   4.775
34619W        W 6967  24.548   7.177   5.321
34620W        W 6968  10.752  44.315   0.363
34621W        W 6969  39.949   4.897  12.504
34622W        W 6970  27.070   6.279  12.017
34623W        W 6971   0.460   0.800   3.253
34624W        W 6972   7.280  36.519   4.691
34625W        W 6973   9.364  20.664  13.427
34626W        W 6974  44.344  38.981   1.859
34627W        W 6975  19.776   7.681  12.850
34628W        W 6976  20.084  22.653   3.680
34629W        W 6977  40.374  15.257   4.253
34630W        W 6978  34.091   0.878  14.851
34631W        W 6979  17.170  22.244  10.145
34632W        W 6980  39.941  29.540  10.531
34633W        W 6981   1.751  20.672   4.668
34634W        W 6982   7.355  32.090  12.912
34635W        W 6983  37.974  38.830  10.469
34636W        W 6984   2.416   6.373  11.468
34637W        W 6985  11.286   3.917  13.365
34638W        W 6986   8.343  35.567   4.175
34639W        W 6987  11.249   4.883  12.078
34640W        W 6988   2.388  32.416  12.407
34641W        W 6989   4.336  30.918  14.847
34642W        W 6990  13.782  23.239   0.749
34643W        W 6991  32.487  26.064   1.442
34644W        W 6992  12.841   1.829   0.759
34645W        W 6993  20.074  11.161  13.010
34646W        W 6994  25.524   1.882  14.977
34647W        W 6995  17.257  21.651  10.534
34648W        W 6996  11.638  38.846   1.451
34649W        W 6997  19.656  42.446   1.883
34650W        W 6998   3.756  36.351   2.215
34651W        W 6999  43.420   7.241  14.777
34652W        W 7000  37.911  23.530   3.815
34653W        W 7001  23.729  37.995   1.727
34654W        W 7002   1.460  43.846  12.467
34655W        W 7003  29.011   0.265  13.545
34656W        W 7004  37.347  11.233  11.023
34657W        W 7005  42.833  15.103  11.556
34658W        W 7006   3.931  15.603   1.701
34659W        W 7007  11.632  33.034   3.321
34660W        W 7008   4.898  25.683   2.234
34661W        W 7009  34.406  26.685  11.551
34662W        W 7010  37.382  33.394   2.232
34663W        W 7011  21.216  30.148  12.459
34664W        W 7012   2.751  43.807   1.722
34665W        W 7013   1.785  18.722  11.081
34666W        W 7014   6.211  30.916   1.782
34667W        W 7015  34.886  33.020  13.895
34668W        W 7016   3.274   2.889  12.555
34669W        W 7017  19.051  23.085  13.973
34670W        W 7018  21.739  22.135  12.537
34671W        W 7019  31.053  10.341   1.821
34672W        W 7020   5.897   8.690   1.367
34673W        W 7021  37.976   2.867  12.840
34674W        W 7022  29.443   3.742  12.373
34675W        W 7023  22.244   0.389  12.911
34676W        W 7024  33.986  33.531  14.413
34677W        W 7025  16.216   8.214   1.841
34678W        W 7026   4.910  44.486  14.425
34679W        W 7027  25.701  12.792   3.281
34680W        W 7028  19.708  38.033   1.423
34681W        W 7029  33.400  12.716   0.728
34682W        W 7030  22.149  29.988  11.002
34683W        W 7031  29.120  10.201   0.922
34684W        W 7032  23.228  31.965   5.101
34685W        W 7033  18.619  30.085   4.683
34686W        W 7034  17.614  13.181  11.436
34687W        W 7035  33.031  11.170   0.268
34688W        W 7036  29.662   8.823   3.836
34689W        W 7037  41.911  33.099  14.865
34690W        W 7038  36.460  28.472   4.770
34691W        W 7039  13.792  36.879   0.299
34692W        W 7040   9.692  11.849   4.301
34693W        W 7041  25.018  17.618  11.986
34694W        W 7042  29.962  15.578   4.240
34695W        W 7043  23.640  17.783  12.414
34696W        W 7044   7.746  31.484   0.438
34697W        W 7045  37.986   2.246  12.355
34698W        W 7046  18.559  32.122   1.723
34699W        W 7047  18.601   8.346   4.276
34700W        W 7048  22.102   2.825  14.359
34701W        W 7049  40.321  32.907   0.396
34702W        W 7050  19.277   6.231  12.882
34703W        W 7051   3.277   4.424  12.862
34704W        W 7052  24.173   6.805   0.735
34705W        W 7053  23.681   5.839   1.827
34706W        W 7054  30.046   6.208  14.775
34707W        W 7055  31.048  33.572  10.474
34708W        W 7056  10.794   4.313   5.310
34709W        W 7057  35.027   8.795  11.466
34710W        W 7058   7.358  43.777  14.512
34711W        W 7059  33.452  19.055  10.948
34712W        W 7060  19.250  32.892   1.784
34713W        W 7061  35.959  40.017  13.436
34714W        W 7062  15.326  15.190   5.598
34715W        W 7063  37.446  21.101   5.104
34716W        W 7064  27.176  36.486   3.845
34717W        W 7065  44.843  38.500  11.532
34718W        W 7066  27.550  23.035  11.932
34719W        W 7067  26.018  24.673  12.023
34720W        W 7068  20.539  35.586   0.375
34721W        W 7069   4.219   9.836  12.523
34722W        W 7070  12.742  22.219  13.874
34723W        W 7071  33.888  26.641  12.064
34724W        W 7072  38.858   4.304   2.220
34725W        W 7073  35.418  12.786   4.276
34726W        W 7074   2.461  12.856   3.240
34727W        W 7075  23.492  34.894   3.844
34728W        W 7076  20.137  24.162  10.902
34729W        W 7077   6.235  33.400   2.356
34730W        W 7078  22.574  14.602   0.324
34731W        W 7079  10.370  33.972  11.046
34732W        W 7080  24.537  14.598  13.472
34733W        W 7081  36.362  44.770   2.669
34734W        W 7082  23.698  26.095   2.742
34735W        W 7083  38.021  34.449  11.532
34736W        W 7084   1.358  40.988  13.041
34737W        W 7085  36.564  43.766  11.555
34738W        W 7086   5.403  41.425  10.414
34739W        W 7087   9.818  43.311   4.154
34740W        W 7088  29.474  26.669   5.180
34741W        W 7089  42.846   8.752   3.182
34742W        W 7090   6.690   3.419  13.466
34743W        W 7091   8.697  33.547   2.826
34744W        W 7092  22.145   2.321  13.441
34745W        W 7093   1.460  27.184  13.993
34746W        W 7094  18.185  11.677   1.875
34747W        W 7095  11.730  44.444   4.151
34748W        W 7096   2.388  23.198   0.767
34749W        W 7097   8.235  23.052  10.564
34750W        W 7098   3.248  27.445  12.986
34751W        W 7099  19.536   1.338  11.879
34752W        W 7100   8.772  21.627   2.800
34753W        W 7101  17.570  36.387   0.823
34754W        W 7102  39.038  11.184   4.732
34755W        W 7103  41.407  22.652   2.191
34756W        W 7104  34.025  17.146   2.342
34757W        W 7105  39.899  33.446  14.400
34758W        W 7106  26.998  31.964   4.754
34759W        W 7107   9.371  26.986   1.694
34760W        W 7108  10.288  40.400   3.371
34761W        W 7109  32.043  29.998   4.189
34762W        W 7110  18.679  38.918   3.302
34763W        W 7111  26.555  23.148   3.269
34764W        W 7112  34.536  37.026   1.427
34765W        W 7113   5.695  34.437   0.782
34766W        W 7114   6.213  32.553   5.250
34767W        W 7115  37.401   9.747   2.310
34768W        W 7116   3.728  22.616   1.344
34769W        W 7117  33.090  36.090   3.778
34770W        W 7118  26.099   3.758   0.881
34771W        W 7119  14.830   1.834   3.185
34772W        W 7120   7.221  40.535  10.968
34773W        W 7121  43.342   2.262   4.185
34774W        W 7122   0.802  35.053  14.939
34775W        W 7123   1.785  35.458  12.020
34776W        W 7124  26.051  14.703   1.784
34777W        W 7125  30.439  13.238  13.955
34778W        W 7126   0.442  31.973   3.857
34779W        W 7127   1.476  30.501   0.832
34780W        W 7128  33.586  23.046  11.990
34781W        W 7129  42.524  19.614   3.787
34782W        W 7130   9.382  41.304   0.281
34783W        W 7131   3.333   8.858  11.989
34784W        W 7132   5.324  28.085  12.871
34785W        W 7133  36.354   8.663  11.372
34786W        W 7134   9.767  25.145  14.766
34787W        W 7135  36.418  20.635  13.467
34788W        W 7136  16.650   2.925  14.397
34789W        W 7137  39.359  19.658  10.431
34790W        W 7138  33.459   2.403  13.954
34791W        W 7139   4.329  33.066   2.845
34792W        W 7140  30.446  30.024   4.608
34793W        W 7141   7.292  33.468  14.322
34794W        W 7142  36.456  26.497   2.359
34795W        W 7143  41.033  18.785  11.479
34796W        W 7144  13.780  30.489  12.036
34797W        W 7145  16.623  34.900   3.236
34798W        W 7146   0.938  18.635  12.899
34799W        W 7147  44.795   7.773  12.522
34800W        W 7148  23.197  31.417   4.214
34801W        W 7149  25.122  44.773   0.788
34802W        W 7150  36.543   0.959   1.215
34803W        W 7151   3.266  33.950   2.714
34804W        W 7152   8.345  30.102   1.715
34805W        W 7153  39.336  13.753  11.007
34806W        W 7154   8.666  13.650  13.536
34807W        W 7155  27.149   7.882  11.017
34808W        W 7156  22.511  34.439  13.333
34809W        W 7157  11.225   4.876  10.460
34810W        W 7158  33.592   6.290   5.602
34811W        W 7159   3.313   9.781  12.948
34812W        W 7160  10.295  35.902   2.202
34813W        W 7161  42.926  37.026  13.476
34814W        W 7162  26.501  17.076  11.385
34815W        W 7163  31.643  34.071   4.705
34816W        W 7164  23.492   2.810   2.356
34817W        W 7165  43.936  35.555  13.826
34818W        W 7166   9.649  27.196   4.644
34819W        W 7167  21.683  41.831   0.955
34820W        W 7168  11.816   5.698   1.281
34821W        W 7169   6.751  14.201   2.687
34822W        W 7170  32.549  25.547   1.787
34823W        W 7171  12.237  39.314   2.697
34824W        W 7172  35.425  10.669  11.064
34825W        W 7173  27.500  25.058  12.510
34826W        W 7174  43.390   3.426   2.320
34827W        W 7175   6.292   6.292   4.707
34828W        W 7176   4.343   5.869   3.777
34829W        W 7177  21.189  26.459   2.218
34830W        W 7178  26.976   7.394   5.203
34831W        W 7179   5.739  14.776  11.943
34832W        W 7180  32.951  25.500   4.147
34833W        W 7181   5.366  36.967  14.299
34834W        W 7182  32.888  36.389  10.638
34835W        W 7183   1.853  38.848  11.024
34836W        W 7184  12.168  27.522   1.385
34837W        W 7185  12.802  43.831   0.854
34838W        W 7186   8.832  44.843   2.182
34839W        W 7187  40.465  16.766   1.844
34840W        W 7188  18.132   6.911  13.832
34841W        W 7189   3.766  28.616  14.848
34842W        W 7190  36.367  30.501   0.735
34843W        W 7191  31.505  37.018   5.232
34844W        W 7192  38.480  20.173  12.547
34845W        W 7193  34.043  41.362   0.440
34846W        W 7194  29.919   2.356   3.682
34847W        W 7195  33.417  17.566  14.838
34848W        W 7196  34.436  35.409   2.406
34849W        W 7197   1.274  31.417  13.350
34850W        W 7198   5.838   3.790  11.531
34851W        W 7199  16.102  13.280   0.394
34852W        W 7200   6.888   9.212  14.799
34853W        W 7201  22.094  22.504   0.354
34854W        W 7202  40.527  34.401  12.087
34855W        W 7203  19.690   4.285   4.647
34856W        W 7204   8.382  31.903  12.947
34857W        W 7205  33.949  17.665  10.548
34858W        W 7206   0.826   8.840  14.816
34859W        W 7207  19.195   0.959   2.374
34860W        W 7208  16.234  21.561  11.385
34861W        W 7209  14.798  11.308  13.915
34862W        W 7210  36.957   5.759   0.892
34863W        W 7211  30.427   6.380   1.263
34864W        W 7212  30.032  25.129   2.735
34865W        W 7213   6.746  19.160   4.230
34866W        W 7214  13.302  10.849   1.826
34867W        W 7215  31.147  38.000   3.865
34868W        W 7216  11.702  27.024  11.430
34869W        W 7217  35.567  10.677   0.762
34870W        W 7218   7.173  22.147  14.279
34871W        W 7219  13.802  36.869  13.869
34872W        W 7220  31.947  24.215  13.892
34873W        W 7221   8.889  18.664   0.941
34874W        W 7222  25.060  27.499   0.333
34875W        W 7223  33.064  39.875   1.308
34876W        W 7224   6.867  30.561   3.219
34877W        W 7225  43.348  22.235  12.861
34878W        W 7226  22.698  33.548  10.474
34879W        W 7227  37.837  21.039  12.409
34880W        W 7228   7.665   9.890   1.823
34881W        W 7229  43.997  14.801   3.639
34882W        W 7230  10.213  42.841   1.247
34883W        W 7231   1.267  19.117  14.479
34884W        W 7232  12.318  10.748  11.040
34885W        W 7233  30.055  35.937   2.250
34886W        W 7234  16.628  31.130  11.547
34887W        W 7235  19.541  20.038  14.958
34888W        W 7236  17.566   6.364   4.619
34889W        W 7237   0.941  19.667  12.049
34890W        W 7238   2.425  21.597   1.439
34891W        W 7239  32.907   2.325  12.910
34892W        W 7240  33.968  40.857   2.832
34893W        W 7241  35.977  39.944   4.131
34894W        W 7242  11.702  27.076   4.613
34895W        W 7243   0.792  41.505  11.506
34896W        W 7244  13.802  44.005  10.538
34897W        W 7245   8.657  38.482   2.712
34898W        W 7246  23.723  11.654  14.019
34899W        W 7247  22.745  33.916   1.710
34900W        W 7248   6.193  14.807  11.437
34901W        W 7249  31.989  26.147  12.565
34902W        W 7250  21.228  27.099   5.287
34903W        W 7251  22.010  34.517   3.859
34904W        W 7252  16.591  28.977  14.973
34905W        W 7253  28.941  31.936  12.370
34906W        W 7254  27.121  24.481  13.335
34907W        W 7255  31.619  34.429   2.775
34908W        W 7256  16.624  28.014   3.176
34909W        W 7257  12.817  35.447  11.895
34910W        W 7258  35.574   9.863  12.384
34911W        W 7259  30.526   2.740  11.390
34912W        W 7260  38.032  34.388  13.817
34913W        W 7261  42.446  16.647   1.291
34914W        W 7262  18.564  14.107   5.170
34915W        W 7263  17.791  35.562   3.368
34916W        W 7264  13.813  35.362  14.504
34917W        W 7265  33.057  39.843  12.987
34918W        W 7266  29.594   8.832   9.930
34919W        W 7267   0.878  27.661   3.743
34920W        W 7268  11.814  25.187  13.977
34921W        W 7269   0.454  12.701  11.603
34922W        W 7270   9.822  27.076  11.860
34923W        W 7271  37.559   6.851  10.635
34924W        W 7272  28.650   4.835  13.800
34925W        W 7273   8.323   1.369   4.171
34926W        W 7274  18.221  34.439  11.401
34927W        W 7275  31.547  32.635  11.108
34928W        W 7276  11.862  18.684   4.709
34929W        W 7277  44.367  20.065  14.929
34930W        W 7278  29.444  29.925  14.890
34931W        W 7279  23.045   1.772   3.216
34932W        W 7280  35.590  13.150  14.938
34933W        W 7281  13.346  23.188  14.793
34934W        W 7282  28.942  10.345  10.901
34935W        W 7283  34.454   7.689  10.977
34936W        W 7284  40.849  25.612   3.292
34937W        W 7285   5.335  23.090  13.039
34938W        W 7286  18.263  15.132  12.535
34939W        W 7287  29.005  28.655  14.805
34940W        W 7288  31.087   8.196   0.899
34941W        W 7289   4.325  17.255   3.821
34942W        W 7290  44.881  44.865   4.636
34943W        W 7291  22.208  17.715  12.571
34944W        W 7292  43.886  37.474   0.801
34945W        W 7293  28.451  14.590  14.984
34946W        W 7294   0.902  34.119  11.504
34947W        W 7295  42.832  40.957  13.818
34948W        W 7296  21.141  12.722  11.548
34949W        W 7297  44.987  29.061   0.854
34950W        W 7298  12.706  38.333  11.440
34951W        W 7299  39.874  14.194   2.774
34952W        W 7300  40.046  15.738  11.972
34953W        W 7301  44.004  12.748   0.269
34954W        W 7302   9.753  32.429   1.220
34955W        W 7303  35.922  10.203   3.706
34956W        W 7304  14.717  17.275   3.272
34957W        W 7305  20.706  19.144   2.744
34958W        W 7306  12.672  10.737  14.381
34959W        W 7307   8.403  18.089  14.766
34960W        W 7308  18.291   3.292  14.776
34961W        W 7309   8.779  39.342  12.087
34962W        W 7310  20.071   4.782   1.930
34963W        W 7311  30.532  29.094  12.888
34964W        W 7312  18.151  37.480   0.464
34965W        W 7313  34.541  31.016  13.502
34966W        W 7314  19.114  44.802  14.377
34967W        W 7315  32.579  26.983  11.477
34968W        W 7316  37.916  10.662  10.550
34969W        W 7317  44.425  22.170   3.774
34970W        W 7318  31.101  18.109   3.219
34971W        W 7319  31.574  16.177   2.246
34972W        W 7320   3.780  38.465   3.330
34973W        W 7321  19.085  39.432   2.767
34974W        W 7322  44.296  34.585   3.687
34975W        W 7323  30.627  18.777  11.549
34976W        W 7324  40.850  30.092  13.899
34977W        W 7325  33.980   9.746   4.148
34978W        W 7326  18.713   6.345  11.945
34979W        W 7327  32.584  22.502  11.032
34980W        W 7328  14.168  26.963  11.489
34981W        W 7329  43.491  30.921  11.564
34982W        W 7330  38.334   8.200   3.277
34983W        W 7331   4.795  28.480   1.342
34984W        W 7332   8.219  11.631   2.311
34985W        W 7333  35.896  14.099  11.047
34986W        W 7334  28.616  26.058   1.217
34987W        W 7335   5.907  24.575   2.753
34988W        W 7336  22.142   2.900   2.361
34989W        W 7337  32.541  27.613   0.477
34990W        W 7338  22.715   4.895  10.990
34991W        W 7339   9.659   1.386   2.899
34992W        W 7340  24.646  22.601   2.337
34993W        W 7341   9.310  21.146   4.116
34994W        W 7342   5.273  43.858   3.218
34995W        W 7343  13.649  32.489   2.419
34996W        W 7344  41.419  26.554   4.170
34997W        W 7345   0.979  43.892   0.923
34998W        W 7346  22.598   9.799  11.892
34999W        W 7347   4.821  13.329  14.770
35000W        W 7348  12.682  24.211  10.645
35001W        W 7349   2.741  20.120  14.892
35002W        W 7350   7.252   5.430   2.413
35003W        W 7351  40.529  44.975   3.828
35004W        W 7352   0.902  41.514   9.998
35005W        W 7353   6.414  40.859   4.822
35006W        W 7354  37.514  24.982   1.298
35007W        W 7355  11.229  34.005  11.996
35008W        W 7356   5.405  30.983   3.343
35009W        W 7357  13.711   2.345   4.799
35010W        W 7358   2.377   9.842  12.044
35011W        W 7359  25.609  13.676  11.544
35012W        W 7360  44.804   3.271   1.250
35013W        W 7361  37.398   7.726  12.913
35014W        W 7362   7.203  37.575   1.917
35015W        W 7363  24.576   2.914  11.579
35016W        W 7364  41.939  20.111   3.184
35017W        W 7365  34.083  18.092   4.266
35018W        W 7366  22.186   4.387   0.309
35019W        W 7367  13.830  25.469  12.066
35020W        W 7368  44.991  13.639  14.413
35021W        W 7369  29.148  17.227   4.320
35022W        W 7370  14.819  21.544   3.672
35023W        W 7371  13.741  11.286   0.930
35024W        W 7372  42.802  20.629  12.949
35025W        W 7373   8.731  39.365   3.183
35026W        W 7374   8.739  12.121  11.462
35027W        W 7375  25.612   4.272   2.840
35028W        W 7376  41.830  44.993  13.914
35029W        W 7377  19.620  21.680   0.894
35030W        W 7378  29.142   7.378   0.270
35031W        W 7379  39.897   4.773  14.850
35032W        W 7380  25.001  29.968  13.051
35033W        W 7381  15.226  26.599   3.224
35034W        W 7382  25.601  20.683  13.947
35035W        W 7383  16.770  40.823  10.904
35036W        W 7384  28.630  17.208  13.471
35037W        W 7385  39.490   5.222   0.891
35038W        W 7386  13.712  23.054   2.210
35039W        W 7387   6.402   8.684   2.815
35040W        W 7388   5.224   9.357   1.399
35041W        W 7389  20.727   4.277  11.082
35042W        W 7390  22.726   8.185  13.464
35043W        W 7391   8.223  36.007  12.522
35044W        W 7392  12.166  34.539  13.051
35045W        W 7393   0.964  35.499  12.076
35046W        W 7394  40.800  34.013  13.052
35047W        W 7395  31.982  19.703   0.799
35048W        W 7396  43.337   1.281   3.154
35049W        W 7397  40.861   7.878  10.612
35050W        W 7398  29.111  35.106  13.402
35051W        W 7399  23.730  35.097  14.495
35052W        W 7400   5.708   8.231  11.542
35053W        W 7401  28.544  35.068   2.736
35054W        W 7402   4.343   2.302   4.656
35055W        W 7403  26.188  10.813   4.597
35056W        W 7404  23.563  33.897   3.811
35057W        W 7405  42.513  38.400  13.912
35058W        W 7406   2.269  30.560  12.052
35059W        W 7407  18.248  41.937  12.568
35060W        W 7408  41.972   5.337   0.354
35061W        W 7409  39.548  28.938   0.332
35062W        W 7410  14.116  43.835   3.855
35063W        W 7411   0.372  30.567  13.501
35064W        W 7412  18.612  34.405   3.290
35065W        W 7413   9.162  41.795   1.380
35066W        W 7414   7.343  19.237  13.374
35067W        W 7415  20.265  40.415  12.366
35068W        W 7416   9.655  38.492   3.787
35069W        W 7417   5.235  35.437   1.886
35070W        W 7418  44.390  30.480   3.178
35071W        W 7419  15.192  42.511   3.287
35072W        W 7420  27.104   1.412   4.261
35073W        W 7421  44.819  31.556  13.016
35074W        W 7422  11.252   6.921  11.504
35075W        W 7423  11.833  31.610   1.749
35076W        W 7424  22.077  25.605   2.846
35077W        W 7425  38.474  42.468   0.758
35078W        W 7426  40.335  17.670  13.322
35079W        W 7427  42.839  30.565   4.827
35080W        W 7428  34.603  35.969   5.145
35081W        W 7429  26.680   2.273  12.523
35082W        W 7430  34.061  22.590  11.900
35083W        W 7431  18.593  11.283  14.924
35084W        W 7432  27.084  13.646  13.017
35085W        W 7433  15.764  22.552  14.858
35086W        W 7434  15.229  40.819  11.599
35087W        W 7435  23.505  16.753   2.199
35088W        W 7436  41.864  12.751   0.829
35089W        W 7437  25.682  41.000  12.576
35090W        W 7438   0.268  34.103   3.656
35091W        W 7439  31.457   0.882  11.522
35092W        W 7440  29.126  39.982  14.886
35093W        W 7441  40.951   1.385   3.806
35094W        W 7442   9.302  21.055  14.422
35095W        W 7443  41.837  30.581   1.367
35096W        W 7444  21.736  44.339   0.415
35097W        W 7445  38.514  43.479   0.851
35098W        W 7446  39.870  36.550  14.431
35099W        W 7447  15.101  21.025   0.448
35100W        W 7448  24.483  17.570  13.371
35101W        W 7449  39.978  39.454  11.050
35102W        W 7450   2.817  12.136  13.309
35103W        W 7451  28.067  20.661  12.840
35104W        W 7452  15.178  33.056   0.884
35105W        W 7453  17.714   1.462  10.514
35106W        W 7454   9.840  21.678   3.708
35107W        W 7455  38.453  44.780  11.949
35108W        W 7456  29.490  40.839  13.469
35109W        W 7457  10.249  30.050  14.400
35110W        W 7458   0.280  35.096   0.819
35111W        W 7459  24.722  44.489   2.776
35112W        W 7460  16.229  39.901   3.299
35113W        W 7461   8.836  24.672   1.414
35114W        W 7462  16.582  11.727   2.405
35115W        W 7463  22.619  29.086   1.913
35116W        W 7464  29.048  16.694  12.966
35117W        W 7465  34.051  14.196   0.249
35118W        W 7466  22.660   8.246  10.903
35119W        W 7467  15.765  18.577   4.647
35120W        W 7468  10.808   0.377  14.029
35121W        W 7469  28.660  25.121  10.939
35122W        W 7470   9.817  15.598   1.903
35123W        W 7471  20.623  28.640   1.299
35124W        W 7472  42.891  43.347   2.326
35125W        W 7473   2.439  10.181   4.184
35126W        W 7474  41.880  19.085  13.987
35127W        W 7475  32.574  30.566  12.039
35128W        W 7476  27.140  20.610  11.027
35129W        W 7477  31.936  39.849  11.459
35130W        W 7478   7.320  30.027  11.014
35131W        W 7479   3.928  11.705  11.102
35132W        W 7480   2.893   1.411   1.316
35133W        W 7481   7.382  44.988  14.428
35134W        W 7482  16.613  21.125  12.382
35135W        W 7483  10.762   6.826   3.274
35136W        W 7484  17.111  35.456  12.471
35137W        W 7485  13.188  17.196  13.533
35138W        W 7486   4.746  27.516  14.776
35139W        W 7487  23.068   6.372   3.748
35140W        W 7488  31.535  17.236  10.536
35141W        W 7489  23.105   0.446  11.070
35142W        W 7490  21.739  20.156  14.811
35143W        W 7491  13.651  18.742  11.451
35144W        W 7492  21.643  11.799   3.789
35145W        W 7493  26.031  38.520  11.498
35146W        W 7494  13.153  35.500   3.160
35147W        W 7495  28.504  24.628   4.653
35148W        W 7496  21.246   0.294  10.043
35149W        W 7497   8.330  21.566   0.815
35150W        W 7498  26.626  38.076  12.828
35151W        W 7499  38.566   5.697  11.043
35152W        W 7500  25.064  24.175  14.275
35153W        W 7501  40.919  42.030   0.886
35154W        W 7502  38.478  16.143   1.859
35155W        W 7503   5.842  10.243   2.843
35156W        W 7504  19.599   0.923   2.663
35157W        W 7505   7.764   3.273   1.376
35158W        W 7506  26.074  43.371   0.470
35159W        W 7507  17.781  10.720   0.358
35160W        W 7508  42.360  23.040   3.370
35161W        W 7509   8.280   8.273  13.016
35162W        W 7510  16.211  41.012  12.531
35163W        W 7511  38.438  26.111   4.742
35164W        W 7512  38.978  13.312   1.445
35165W        W 7513  23.212  21.673  14.807
35166W        W 7514   2.872   4.269   4.272
35167W        W 7515  29.664  32.460   2.386
35168W        W 7516  33.097   2.852  14.359
35169W        W 7517  24.104  42.866  11.088
35170W        W 7518  43.954  30.450   4.754
35171W        W 7519  20.659   3.779  11.435
35172W        W 7520  27.979  11.745  12.365
35173W        W 7521  41.414  15.636   0.841
35174W        W 7522  37.902  43.289   4.770
35175W        W 7523  36.951  29.097   4.203
35176W        W 7524  44.499  18.115  13.794
35177W        W 7525  44.812  39.875   2.212
35178W        W 7526  40.446   9.159   0.818
35179W        W 7527  18.144  42.460   2.874
35180W        W 7528  28.626  32.052  14.836
35181W        W 7529  26.670  35.438   0.274
35182W        W 7530   1.978  23.079  12.370
35183W        W 7531  38.329  29.104   4.643
35184W        W 7532  43.926  40.918  12.920
35185W        W 7533  11.272  19.229   0.460
35186W        W 7534   3.338  38.041   3.649
35187W        W 7535  32.007  11.368   2.833
35188W        W 7536  11.219  37.507  12.471
35189W        W 7537  14.672  23.606  10.502
35190W        W 7538  24.485  40.987  12.965
35191W        W 7539   6.879  17.594  12.937
35192W        W 7540  38.071   4.722   3.157
35193W        W 7541   0.889  35.410  13.318
35194W        W 7542   0.467  19.265  11.504
35195W        W 7543  28.605  43.893  13.441
35196W        W 7544  32.559   3.836  13.346
35197W        W 7545  11.179  12.186  13.472
35198W        W 7546  29.092  20.232  13.849
35199W        W 7547  30.005  38.948   2.322
35200W        W 7548  35.585  37.377  13.393
35201W        W 7549  34.521  11.692   3.687
35202W        W 7550  15.664   4.898  14.023
35203W        W 7551  31.939  19.734  11.018
35204W        W 7552  31.435  26.108   1.390
35205W        W 7553  23.085   3.310   3.737
35206W        W 7554  38.995   7.243   0.393
35207W        W 7555  34.386  24.102  13.369
35208W        W 7556  21.062  37.974  13.921
35209W        W 7557   7.668   9.182   2.820
35210W        W 7558   3.303  25.134   1.715
35211W        W 7559  23.230  14.819   0.912
35212W        W 7560   5.275  14.140   0.452
35213W        W 7561  39.449  33.493  10.591
35214W        W 7562  42.430  38.514   1.362
35215W        W 7563  27.005  36.055  11.557
35216W        W 7564  26.178  41.843   2.345
35217W        W 7565  12.314   6.186  14.012
35218W        W 7566  12.636  15.786  11.947
35219W        W 7567   4.390  14.161  12.418
35220W        W 7568   5.324  14.605  13.392
35221W        W 7569  43.011   0.490   0.417
35222W        W 7570  11.326   8.890   4.780
35223W        W 7571   0.456  18.621  10.915
35224W        W 7572  10.375   4.916  10.986
35225W        W 7573  18.652  42.358  11.859
35226W        W 7574  12.792  43.823   2.727
35227W        W 7575  12.260   6.347   2.208
35228W        W 7576  29.460  23.036  13.064
35229W        W 7577  44.472  12.157   4.831
35230W        W 7578   8.340   6.733   0.312
35231W        W 7579  15.624   8.294   2.783
35232W        W 7580  37.342  28.993  11.387
35233W        W 7581  17.630  15.171   4.613
35234W        W 7582  23.642  32.940   4.630
35235W        W 7583  39.903  30.141  11.402
35236W        W 7584  13.246  30.609   0.395
35237W        W 7585   4.264  37.390  10.943
35238W        W 7586  21.259  43.019   1.744
35239W        W 7587  17.606  28.976  14.801
35240W        W 7588  24.009  28.583  11.545
35241W        W 7589  30.500   3.936   4.294
35242W        W 7590  21.699  22.710   4.177
35243W        W 7591  25.157   9.763  10.975
35244W        W 7592  35.412  29.918  12.848
35245W        W 7593   6.231  24.603  11.445
35246W        W 7594   9.743  36.861   3.205
35247W        W 7595   4.378  28.579   1.251
35248W        W 7596  16.671   8.260  12.432
35249W        W 7597  14.681  25.707  12.015
35250W        W 7598   8.684   3.271  10.442
35251W        W 7599  34.487  21.609   5.569
35252W        W 7600  29.155  42.850  13.887
35253W        W 7601  23.622  24.574   1.238
35254W        W 7602   3.907  43.867   0.243
35255W        W 7603  42.841  24.173   4.247
35256W        W 7604  35.522  39.433   0.411
35257W        W 7605   1.894  28.983  14.812
35258W        W 7606   1.882  37.054   1.323
35259W        W 7607   3.893  39.332   0.875
35260W        W 7608  33.471   4.302   2.893
35261W        W 7609   4.305  16.691   1.268
35262W        W 7610  17.241  36.003   4.744
35263W        W 7611  44.380  41.522  12.456
35264W        W 7612  24.696  41.328   1.837
35265W        W 7613  24.194   9.779  12.454
35266W        W 7614   1.280   7.388   2.220
35267W        W 7615   8.348  19.211  12.861
35268W        W 7616   0.444   5.198   0.936
35269W        W 7617  12.636  11.800  12.391
35270W        W 7618   4.772  32.467   0.358
35271W        W 7619   8.329  15.722  14.452
35272W        W 7620  22.149  36.047   2.390
35273W        W 7621  34.100  27.157  12.924
35274W        W 7622  20.598   1.358   1.313
35275W        W 7623  26.685   5.894  10.568
35276W        W 7624   9.374   6.751   1.768
35277W        W 7625  28.045  31.943   1.851
35278W        W 7626  33.523  36.018   0.253
35279W        W 7627  42.437  28.651   2.417
35280W        W 7628  44.978  15.162   4.686
35281W        W 7629   3.916  23.102   2.900
35282W        W 7630  34.049  14.795   0.809
35283W        W 7631  36.906  43.490   1.703
35284W        W 7632   6.371  43.765   0.285
35285W        W 7633  11.182  20.063   4.623
35286W        W 7634  15.821  26.198  13.812
35287W        W 7635  19.105  43.438   3.803
35288W        W 7636  38.894  27.677   0.312
35289W        W 7637  17.581  37.909   4.705
35290W        W 7638  13.742  33.085  14.779
35291W        W 7639  14.155  21.554  11.454
35292W        W 7640   9.326  17.166  10.123
35293W        W 7641  10.166  21.530  14.359
35294W        W 7642  10.202  35.460   4.708
35295W        W 7643   5.433  21.130   3.669
35296W        W 7644  44.458  15.641   1.859
35297W        W 7645  17.291  30.976   4.223
35298W        W 7646  16.696  17.296  14.971
35299W        W 7647  10.860  12.305   1.843
35300W        W 7648   7.707  41.885   1.213
35301W        W 7649   5.855  35.525  13.480
35302W        W 7650  43.928  43.465   3.714
35303W        W 7651  27.622   5.238   1.811
35304W        W 7652  14.232  29.480   3.757
35305W        W 7653  43.935   8.362  13.318
35306W        W 7654  32.443  21.049  14.397
35307W        W 7655  22.593  26.689   2.329
35308W        W 7656  21.562   6.873  14.434
35309W        W 7657  19.698  27.108  12.529
35310W        W 7658   2.269  25.600   2.760
35311W        W 7659   2.728   2.887  10.588
35312W        W 7660  31.102   1.896  12.470
35313W        W 7661  15.202   4.421   4.165
35314W        W 7662   3.810  33.128  12.919
35315W        W 7663  24.542  25.216   1.782
35316W        W 7664  11.743   4.260  11.524
35317W        W 7665  33.595  28.159   4.172
35318W        W 7666  24.120  41.306   2.205
35319W        W 7667  14.106  43.012  13.026
35320W        W 7668  37.044   3.833  12.963
35321W        W 7669   2.832  37.552   4.337
35322W        W 7670  24.615  42.804  11.113
35323W        W 7671   6.906  37.343   3.261
35324W        W 7672  18.651   8.772   0.393
35325W        W 7673  31.042  31.011  12.076
35326W        W 7674  28.163  28.944  12.957
35327W        W 7675  43.010   1.762  11.091
35328W        W 7676  24.012  37.530   1.293
35329W        W 7677  25.080  10.315   4.720
35330W        W 7678  26.608   9.695   4.152
35331W        W 7679  20.252   3.331   4.170
35332W        W 7680   9.656  14.782  13.905
35333W        W 7681   0.854  20.638  14.473
35334W        W 7682  11.777  33.035  11.496
35335W        W 7683   6.710   0.856  13.325
35336W        W 7684  25.203  24.157  10.977
35337W        W 7685  38.879  43.893   2.842
35338W        W 7686  21.535  31.646   2.380
35339W        W 7687  32.935  20.640  14.837
35340W        W 7688  38.865  30.568  14.842
35341W        W 7689  27.950  33.030  14.914
35342W        W 7690  18.275  40.026  13.446
35343W        W 7691  36.515   7.725  11.575
35344W        W 7692   9.349  27.645  12.349
35345W        W 7693  15.256  33.432   1.796
35346W        W 7694   6.332  43.927   4.265
35347W        W 7695  13.171  13.617  13.061
35348W        W 7696  13.217   0.924   0.307
35349W        W 7697   3.889  28.938   0.763
35350W        W 7698   3.359  38.438   2.757
35351W        W 7699  42.805  13.679   4.825
35352W        W 7700  10.380  41.321  12.007
35353W        W 7701  31.422  17.243   1.874
35354W        W 7702  11.661  29.652  14.924
35355W        W 7703  33.978  26.550   3.778
35356W        W 7704  31.476  40.870   4.344
35357W        W 7705  42.409   1.796   2.206
35358W        W 7706  28.175  13.258  14.957
35359W        W 7707  37.871   0.385  13.913
35360W        W 7708  24.149  17.125   1.865
35361W        W 7709   1.838  28.173  13.837
35362W        W 7710  42.892   5.204  10.597
35363W        W 7711  30.025  28.089  12.068
35364W        W 7712   9.249  28.591  12.547
35365W        W 7713   6.241  31.576  12.574
35366W        W 7714  22.721  42.922  12.839
35367W        W 7715   7.337   2.750   2.243
35368W        W 7716  17.589  34.482  12.568
35369W        W 7717   3.384  20.158  14.819
35370W        W 7718  30.591  24.626   0.347
35371W        W 7719   5.437  29.033   2.679
35372W        W 7720  39.390  43.898   0.392
35373W        W 7721   3.772  34.999  14.808
35374W        W 7722  40.384  27.650   2.830
35375W        W 7723  30.612  19.763  12.965
35376W        W 7724  15.198   1.932  12.352
35377W        W 7725  16.717  27.127  13.488
35378W        W 7726  29.627  32.424  10.538
35379W        W 7727  31.087   7.378   4.234
35380W        W 7728  38.480  24.606   1.816
35381W        W 7729  29.576   9.671   1.408
35382W        W 7730  20.616  42.294   1.917
35383W        W 7731  17.100   9.694  10.979
35384W        W 7732  42.795   2.255  13.964
35385W        W 7733  41.481  29.511   1.741
35386W        W 7734  32.555   5.735   4.680
35387W        W 7735  27.962   8.276   2.833
35388W        W 7736   6.743   4.409  11.888
35389W        W 7737   6.730  39.899   4.126
35390W        W 7738  19.274  13.313  11.521
35391W        W 7739   7.827   8.864   3.265
35392W        W 7740  20.525  40.978   1.392
35393W        W 7741  36.504   0.353  12.894
35394W        W 7742  30.521  15.597   2.818
35395W        W 7743   5.695  13.276  12.407
35396W        W 7744  35.900  41.967   4.657
35397W        W 7745  21.152  40.013  11.454
35398W        W 7746  22.746   3.751  13.351
35399W        W 7747  29.939  15.137  14.803
35400W        W 7748  31.522  42.854  14.458
35401W        W 7749  40.516  38.560  10.502
35402W        W 7750  37.557  13.224   3.331
35403W        W 7751  36.014   3.380   4.658
35404W        W 7752   0.915  40.350   4.776
35405W        W 7753  21.578   5.927  10.580
35406W        W 7754  35.410  18.631  13.423
35407W        W 7755  43.956  27.687   0.464
35408W        W 7756   2.461   5.823   0.957
35409W        W 7757  27.525  28.500  14.858
35410W        W 7758  10.737  42.949   1.935
35411W        W 7759  18.642  16.586  14.416
35412W        W 7760   9.652   0.891  13.845
35413W        W 7761  37.911  28.580   2.838
35414W        W 7762  19.738  44.830   1.375
35415W        W 7763   0.982  44.948   4.238
35416W        W 7764  32.065   3.221  11.612
35417W        W 7765  43.400   0.414   4.629
35418W        W 7766   8.818  10.869  14.872
35419W        W 7767   9.852  35.949  12.361
35420W        W 7768  41.934  40.833   0.963
35421W        W 7769  20.222   2.334   2.278
35422W        W 7770  12.657  30.089   0.404
35423W        W 7771  11.675  14.238   2.178
35424W        W 7772  32.606  11.766  10.584
35425W        W 7773  34.419  18.194   2.366
35426W        W 7774  25.082  21.070   4.160
35427W        W 7775   7.780  38.901   0.385
35428W        W 7776  20.066  37.396   0.273
35429W        W 7777  15.675  25.962  10.974
35430W        W 7778  14.182  27.562   4.184
35431W        W 7779  12.344  29.045  13.005
35432W        W 7780  23.170  20.707   1.847
35433W        W 7781  11.317  38.392  12.560
35434W        W 7782  13.331  28.097   1.406
35435W        W 7783  25.541  37.871   4.179
35436W        W 7784   5.849   7.204  11.530
35437W        W 7785  15.294  29.663  13.986
35438W        W 7786  17.107  25.481  14.392
35439W        W 7787   6.678  14.707   3.324
35440W        W 7788  39.953  41.462  14.492
35441W        W 7789  20.606  36.977   2.343
35442W        W 7790  15.203   1.288   3.148
35443W        W 7791   3.285  26.972  11.963
35444W        W 7792   5.206  37.879  10.631
35445W        W 7793  11.639  21.531   4.214
35446W        W 7794  36.084  22.630  10.977
35447W        W 7795  39.989  29.121   4.735
35448W        W 7796  17.255  13.249  12.984
35449W        W 7797  20.555  19.648   2.288
35450W        W 7798  11.259  25.630   3.822
35451W        W 7799   0.385  32.507  12.994
35452W        W 7800  28.115   5.362   3.375
35453W        W 7801  19.129  38.333   3.806
35454W        W 7802   8.376  18.208   4.720
35455W        W 7803  16.140  19.200   1.778
35456W        W 7804  15.804  15.092  14.903
35457W        W 7805  36.994  43.790  11.951
35458W        W 7806  26.085  37.982   3.274
35459W        W 7807  25.467  26.610   0.397
35460W        W 7808  43.988  30.102   1.768
35461W        W 7809  22.051  11.644   1.315
35462W        W 7810   1.794  29.624   0.278
35463W        W 7811  32.035  10.695   3.186
35464W        W 7812  43.487   1.888   2.378
35465W        W 7813  11.805  16.244  14.759
35466W        W 7814   6.760  33.388  10.551
35467W        W 7815  10.237  21.215   4.693
35468W        W 7816   3.442  24.044  14.910
35469W        W 7817  29.042  41.468  12.543
35470W        W 7818   0.844  19.579  12.842
35471W        W 7819   7.690   1.867   2.831
35472W        W 7820  27.067  21.601  14.280
35473W        W 7821   9.349   3.420   3.373
35474W        W 7822  17.072  33.128  13.000
35475W        W 7823   6.914  16.761  12.837
35476W        W 7824  11.234  29.453   2.704
35477W        W 7825  21.709  30.085  11.969
35478W        W 7826  27.555  11.836  11.444
35479W        W 7827  42.352   6.279  14.463
35480W        W 7828  29.669  19.167   2.246
35481W        W 7829  41.509  32.474   4.175
35482W        W 7830  20.038  42.974  12.888
35483W        W 7831  19.166  13.262  14.894
35484W        W 7832  20.624  14.813  11.098
35485W        W 7833  40.009  32.604   0.884
35486W        W 7834  22.728  35.014   3.669
35487W        W 7835  21.554  18.095   3.746
35488W        W 7836   7.411   5.853   1.745
35489W        W 7837   4.308   3.717  14.317
35490W        W 7838  31.035  13.275  12.421
35491W        W 7839  24.044  21.096  12.831
35492W        W 7840   0.401  37.535  13.484
35493W        W 7841  32.945  22.068  13.796
35494W        W 7842  20.630   2.793  13.059
35495W        W 7843  44.284  26.091   1.803
35496W        W 7844  36.354  18.132   1.439
35497W        W 7845  19.247  37.396   1.820
35498W        W 7846  26.122  21.603  10.433
35499W        W 7847  17.624  30.536   1.890
35500W        W 7848  41.800  23.157  10.947
35501W        W 7849  15.132  36.085   0.437
35502W        W 7850  42.478   7.240   2.766
35503W        W 7851  43.981  21.673   4.354
35504W        W 7852  32.584  21.539   0.459
35505W        W 7853   6.372  24.063  11.039
35506W        W 7854  37.917   1.468   0.292
35507W        W 7855  17.755  39.019   0.301
35508W        W 7856  40.325  38.389  10.944
35509W        W 7857  19.701   4.400  12.354
35510W        W 7858  33.551  34.445   3.214
35511W        W 7859   1.306   9.239  11.397
35512W        W 7860  17.691  28.992   1.769
35513W        W 7861  16.075   6.709  14.412
35514W        W 7862  16.570  42.789   1.890
35515W        W 7863   0.275  21.137   4.253
35516W        W 7864  13.691  21.621  12.834
35517W        W 7865   1.863   8.189   3.671
35518W        W 7866  22.061   8.271  13.457
35519W        W 7867   1.481  38.428   1.731
35520W        W 7868  37.042   9.151  12.088
35521W        W 7869  13.270  34.373   0.372
35522W        W 7870  20.712  26.631  12.511
35523W        W 7871  11.652  22.597  14.894
35524W        W 7872  29.585  33.926  11.404
35525W        W 7873  26.980  21.262  11.864
35526W        W 7874  40.501  23.659   0.961
35527W        W 7875  34.075   2.227   3.349
35528W        W 7876   6.409  15.714  10.160
35529W        W 7877  44.384  23.702  12.403
35530W        W 7878  21.114   0.360  13.024
35531W        W 7879   6.422   3.417   1.796
35532W        W 7880  13.212   9.735  13.453
35533W        W 7881  34.051   3.390  13.315
35534W        W 7882  38.475  16.238   3.824
35535W        W 7883  44.877   5.424   2.328
35536W        W 7884  11.766   6.922   4.200
35537W        W 7885   3.782  13.700   1.261
35538W        W 7886  11.710  28.151   4.229
35539W        W 7887  22.627  26.564  12.943
35540W        W 7888  24.011  36.887   1.798
35541W        W 7889   6.207   5.394   0.810
35542W        W 7890  21.210  31.150   1.369
35543W        W 7891  38.975   3.330   3.698
35544W        W 7892  15.809  41.470   3.225
35545W        W 7893  41.341  15.092   3.763
35546W        W 7894  15.255  20.150  12.926
35547W        W 7895   0.438  28.039  11.095
35548W        W 7896  15.177   6.716   4.251
35549W        W 7897   6.348  16.237  11.030
35550W        W 7898  16.145  42.899  14.471
35551W        W 7899  17.063  38.465   2.265
35552W        W 7900  10.356  36.975  11.056
35553W        W 7901  36.351  37.949   1.865
35554W        W 7902  34.041  22.577   4.299
35555W        W 7903  22.203  23.512   2.207
35556W        W 7904  15.315  27.456  10.508
35557W        W 7905  13.298  19.058   0.298
35558W        W 7906  28.568   3.950  14.501
35559W        W 7907  18.086  31.624   5.099
35560W        W 7908  12.347   8.353  10.938
35561W        W 7909  13.155  34.477   2.335
35562W        W 7910   2.724  32.925   4.116
35563W        W 7911  14.288   3.359   1.712
35564W        W 7912  43.778  31.481  12.093
35565W        W 7913   3.308  36.899   4.338
35566W        W 7914   9.277   9.812  14.885
35567W        W 7915  34.378  10.274  13.845
35568W        W 7916  40.476  19.557   1.873
35569W        W 7917  29.471  44.802  11.497
35570W        W 7918  13.783  29.650  13.412
35571W        W 7919  32.511  41.533  13.971
35572W        W 7920   1.754   2.871  13.481
35573W        W 7921  32.592  42.297   0.929
35574W        W 7922  24.542  16.570   0.754
35575W        W 7923  40.039  12.347   0.416
35576W        W 7924  35.950  22.703   3.767
35577W        W 7925   5.704  27.962  11.526
35578W        W 7926  11.200   5.753  11.901
35579W        W 7927  26.492  13.194  10.923
35580W        W 7928  23.015  24.982  14.018
35581W        W 7929  19.257  44.490  11.858
35582W        W 7930  32.507  27.019   1.277
35583W        W 7931  31.491  22.070   2.179
35584W        W 7932  25.037  34.529  13.343
35585W        W 7933  11.834   3.410   2.868
35586W        W 7934  43.430  14.276   3.837
35587W        W 7935  44.329  44.272   0.885
35588W        W 7936   8.674   8.190  12.476
35589W        W 7937  20.177  43.428   2.800
35590W        W 7938  36.929   9.744  13.370
35591W        W 7939  40.799  37.399   4.712
35592W        W 7940  37.968  42.456  12.054
35593W        W 7941   1.374  40.026   3.312
35594W        W 7942  44.334   9.757   2.411
35595W        W 7943  11.701  14.680   3.846
35596W        W 7944  24.486  40.974  13.415
35597W        W 7945  20.143  43.500  11.109
35598W        W 7946  42.901   5.913  11.457
35599W        W 7947  31.129  10.235  11.920
35600W        W 7948  20.238  12.292   1.875
35601W        W 7949  41.834  27.102  14.777
35602W        W 7950  38.554  33.608   4.724
35603W        W 7951  34.008   8.663  13.933
35604W        W 7952   2.321  15.108   3.670
35605W        W 7953  29.591   2.923   1.855
35606W        W 7954  19.142  28.075  11.578
35607W        W 7955  10.258  32.485  14.440
35608W        W 7956  44.477  41.904  13.935
35609W        W 7957   1.423  21.741   3.314
35610W        W 7958   8.676  32.943   1.243
35611W        W 7959  20.711  17.271   0.318
35612W        W 7960  43.493   3.369   5.323
35613W        W 7961  16.616  40.983   4.309
35614W        W 7962  34.472  11.673  12.496
35615W        W 7963  27.963   3.805  13.412
35616W        W 7964  38.383  37.838   0.792
35617W        W 7965   3.297   9.360  10.425
35618W        W 7966  16.726  10.252   1.345
35619W        W 7967  36.888  21.625   0.794
35620W        W 7968  31.468  33.544  13.812
35621W        W 7969  42.931   5.285   0.884
35622W        W 7970  41.323  43.951   3.297
35623W        W 7971  22.016   9.817   2.345
35624W        W 7972  10.232  25.977   3.810
35625W        W 7973  40.957  12.691   4.325
35626W        W 7974   6.339  12.731   1.311
35627W        W 7975  15.204  16.120  13.989
35628W        W 7976  21.659   8.752  11.443
35629W        W 7977  22.717  11.638  12.413
35630W        W 7978  31.436  10.755   3.261
35631W        W 7979  16.732   5.925   1.348
35632W        W 7980  40.975  20.578   0.890
35633W        W 7981  13.738   5.244  13.833
35634W        W 7982  15.756  20.641  12.906
35635W        W 7983  29.947  12.217  10.960
35636W        W 7984  34.905   2.819  14.019
35637W        W 7985   8.251  39.468  14.346
35638W        W 7986   9.822  25.510  12.905
35639W        W 7987   6.224  35.432   4.666
35640W        W 7988  38.561  33.956  11.054
35641W        W 7989   8.705  25.543   2.262
35642W        W 7990  17.674  19.700   1.725
35643W        W 7991  18.202  19.073   3.384
35644W        W 7992  22.680   8.206   3.692
35645W        W 7993   1.764   5.797   1.853
35646W        W 7994  40.482  16.315  10.933
35647W        W 7995  41.874  24.591   4.145
35648W        W 7996   2.282   4.782  14.782
35649W        W 7997  35.364  32.601   1.780
35650W        W 7998  15.634   7.295   2.697
35651W        W 7999  40.472  17.245   4.671
35652W        W 8000  24.049  31.053  12.878
35653W        W 8001   4.941  29.505  11.541
35654W        W 8002  28.584   0.435  11.510
35655W        W 8003  33.073  20.641   0.396
35656W        W 8004   7.773  22.071   4.318
35657W        W 8005   7.405   4.912   2.210
35658W        W 8006   2.945  29.537   0.786
35659W        W 8007  38.333   0.341   4.717
35660W        W 8008   3.928  26.995   3.149
35661W        W 8009  37.972  34.046  13.443
35662W        W 8010  19.212  16.294  10.478
35663W        W 8011  15.176  40.513   1.235
35664W        W 8012  29.549  15.183  14.024
35665W        W 8013  36.484  32.119   3.200
35666W        W 8014   1.967  23.128  11.473
35667W        W 8015  37.080  22.122   3.836
35668W        W 8016   9.260  13.652   3.272
35669W        W 8017   2.755  19.726  12.387
35670W        W 8018  17.737  38.043   2.891
35671W        W 8019  34.477  14.823   0.429
35672W        W 8020  32.561  37.910  11.101
35673W        W 8021  36.931  17.085  12.947
35674W        W 8022  16.150  12.207   3.146
35675W        W 8023  40.009  22.706  12.080
35676W        W 8024  41.401  10.868   4.838
35677W        W 8025  10.337   9.340  14.763
35678W        W 8026  37.009   5.230   4.353
35679W        W 8027  10.376   9.728  12.357
35680W        W 8028  40.823   1.410  11.566
35681W        W 8029   8.273  37.837   3.247
35682W        W 8030  15.588  24.154   2.801
35683W        W 8031  10.859  24.525  12.074
35684W        W 8032  41.463   8.683   1.740
35685W        W 8033  39.016   7.755  11.560
35686W        W 8034  40.463  13.821  13.497
35687W        W 8035  42.928  23.127   0.935
35688W        W 8036  37.505   6.850  14.799
35689W        W 8037  23.591  22.518   0.807
35690W        W 8038   6.229  36.898   1.718
35691W        W 8039  40.954  31.119  13.807
35692W        W 8040  23.528  37.009   3.693
35693W        W 8041  36.418   9.319  11.382
35694W        W 8042  17.222  29.000  12.095
35695W        W 8043   3.282   8.307  11.472
35696W        W 8044   2.265  20.531   2.899
35697W        W 8045  29.980   3.933   2.860
35698W        W 8046  22.626  19.251  14.467
35699W        W 8047  23.212  27.456  12.577
35700W        W 8048   4.251  21.180  10.496
35701W        W 8049   8.386   9.811  11.015
35702W        W 8050  13.602  22.180  11.482
35703W        W 8051  42.835  37.954  14.306
35704W        W 8052  24.574  12.165  12.424
35705W        W 8053  17.286  32.004  13.448
35706W        W 8054  27.990   0.260   3.639
35707W        W 8055  44.902  40.512   2.848
35708W        W 8056  39.963  17.187   3.181
35709W        W 8057   2.312  24.623  13.469
35710W        W 8058  16.306  41.868   0.819
35711W        W 8059  36.460  36.868   4.220
35712W        W 8060  26.516  33.046  10.121
35713W        W 8061  36.056   6.722  12.458
35714W        W 8062  18.791   4.448  14.280
35715W        W 8063  32.907  19.147   1.273
35716W        W 8064  10.294  27.019   2.334
35717W        W 8065  36.588  22.697   2.210
35718W        W 8066  11.646  29.640  10.565
35719W        W 8067   5.380  25.586  13.023
35720W        W 8068  23.642  39.362   4.826
35721W        W 8069  31.899  30.457  11.514
35722W        W 8070  44.434  10.809   4.809
35723W        W 8071  40.807   8.714   3.325
35724W        W 8072  27.084  19.745   0.262
35725W        W 8073  23.605  43.908  13.994
35726W        W 8074  19.756  42.031  14.916
35727W        W 8075  40.834  28.450  13.409
35728W        W 8076  30.034  17.742  13.445
35729W        W 8077  24.670  38.931  11.515
35730W        W 8078  16.623  18.272   4.250
35731W        W 8079  31.469  29.966  12.064
35732W        W 8080   8.720  43.444  12.941
35733W        W 8081  34.458   1.283  11.085
35734W        W 8082  38.963  42.417   3.767
35735W        W 8083  33.470  14.832   3.667
35736W        W 8084   7.376   1.764  11.928
35737W        W 8085  39.403   0.306  10.429
35738W        W 8086  28.464   1.892   2.817
35739W        W 8087  29.948  18.561  14.354
35740W        W 8088  44.860  29.452  11.554
35741W        W 8089  42.435  14.680  11.540
35742W        W 8090  31.969  31.513   1.307
35743W        W 8091  24.203  31.038   4.753
35744W        W 8092  18.078   9.733  14.828
35745W        W 8093   9.265  33.395  13.063
35746W        W 8094  15.689   3.441  14.929
35747W        W 8095  34.035  22.550   4.722
35748W        W 8096  37.437  25.699   1.286
35749W        W 8097  20.096   8.680  11.101
35750W        W 8098  37.521  14.723   2.901
35751W        W 8099  44.835  24.673   2.284
35752W        W 8100  11.692  42.023  11.479
35753W        W 8101  26.168  30.421  13.329
35754W        W 8102  22.136  35.040  11.409
35755W        W 8103   0.372  33.385   3.223
35756W        W 8104   1.939  30.539   3.297
35757W        W 8105  23.672   6.779  12.825
35758W        W 8106   7.321   8.800  12.502
35759W        W 8107  38.958   1.256   0.767
35760W        W 8108   0.924  28.637  14.351
35761W        W 8109  28.040  19.650  11.389
35762W        W 8110  44.830  15.237  11.123
35763W        W 8111  36.358  34.073   0.963
35764W        W 8112  18.294   9.261   4.236
35765W        W 8113  32.478  36.082   0.330
35766W        W 8114  39.926  13.701  13.956
35767W        W 8115  28.617  31.486   2.794
35768W        W 8116  42.442  39.970   1.427
35769W        W 8117   8.655  29.084   3.639
35770W        W 8118  24.710  44.776   1.382
35771W        W 8119  11.748  13.706  13.895
35772W        W 8120  40.539   2.425   1.265
35773W        W 8121   7.701  10.748   4.804
35774W        W 8122  38.520  36.547   2.311
35775W        W 8123  40.972  34.602   2.779
35776W        W 8124  27.683  28.951  11.066
35777W        W 8125  15.156  27.677   3.222
35778W        W 8126   9.816  13.656  12.826
35779W        W 8127  17.653  40.362   0.895
35780W        W 8128  40.366  16.768  14.327
35781W        W 8129  36.355  38.004  11.430
35782W        W 8130  26.586   3.295   4.249
35783W        W 8131   2.429  31.550   3.355
35784W        W 8132  28.540  17.296  11.429
35785W        W 8133  14.098  10.288   0.429
35786W        W 8134  14.693   6.237   1.791
35787W        W 8135  26.179  36.412   2.813
35788W        W 8136  36.007  15.294   3.291
35789W        W 8137  14.686   7.414  13.530
35790W        W 8138  13.777  16.277  13.043
35791W        W 8139   8.188  43.885   4.215
35792W        W 8140  38.911  23.106  14.411
35793W        W 8141  37.421  44.287  14.795
35794W        W 8142  25.642  24.564  14.940
35795W        W 8143   2.826  42.989   3.744
35796W        W 8144  24.577   3.893   1.862
35797W        W 8145  12.652  10.680  14.836
35798W        W 8146  36.393   7.386   5.794
35799W        W 8147  25.097  15.279  11.555
35800W        W 8148  40.471  12.733  10.954
35801W        W 8149  44.808  32.909  12.571
35802W        W 8150  40.887  17.730  11.565
35803W        W 8151   9.392   4.425   3.375
35804W        W 8152   2.295  40.893  12.829
35805W        W 8153  38.335  36.950   4.348
35806W        W 8154  31.024  11.722  10.600
35807W        W 8155  37.486  20.677   4.670
35808W        W 8156  22.602  35.954  13.828
35809W        W 8157  42.874  28.659  12.457
35810W        W 8158   5.394   5.347  10.955
35811W        W 8159  21.581  29.094   2.684
35812W        W 8160  28.954   9.706   2.863
35813W        W 8161   0.775  10.834  11.390
35814W        W 8162  34.375   6.400   1.847
35815W        W 8163  20.743  42.911  10.547
35816W        W 8164  36.095   2.921   0.802
35817W        W 8165  42.963   7.271  11.099
35818W        W 8166  21.681  23.035  13.863
35819W        W 8167  36.859  20.688   1.736
35820W        W 8168  26.537  35.370  12.557
35821W        W 8169  33.511  36.949  12.386
35822W        W 8170   3.884  27.172  12.863
35823W        W 8171  33.959   2.760   0.367
35824W        W 8172  30.076   0.285  14.991
35825W        W 8173  12.832   5.743  14.286
35826W        W 8174  10.677  36.377  11.116
35827W        W 8175  13.149  30.980  11.553
35828W        W 8176   0.983  17.773   4.292
35829W        W 8177  18.568   7.178   5.185
35830W        W 8178  23.674  39.021   4.275
35831W        W 8179  29.564   1.369   4.146
35832W        W 8180  13.305  39.535  13.056
35833W        W 8181   4.334  42.028  13.477
35834W        W 8182  17.640  21.125  12.904
35835W        W 8183  18.074  42.834   5.285
35836W        W 8184   7.752  34.996  13.325
35837W        W 8185  10.351  21.055   5.274
35838W        W 8186  44.800  34.570  11.430
35839W        W 8187   0.878  34.939  11.015
35840W        W 8188  25.211   6.832  11.065
35841W        W 8189  33.547   4.354   0.474
35842W        W 8190  14.297  35.597  13.485
35843W        W 8191  15.257  23.561   4.180
35844W        W 8192  34.389   7.196  11.597
35845W        W 8193   7.880   6.891   1.901
35846W        W 8194  41.968  11.354  13.337
35847W        W 8195  27.692  31.910   2.186
35848W        W 8196   0.292  35.072   2.764
35849W        W 8197  12.856  36.501  12.984
35850W        W 8198  11.665  37.578   4.748
35851W        W 8199  21.224  35.960   5.172
35852W        W 8200  34.959  25.503   3.766
35853W        W 8201  42.333  42.487  11.569
35854W        W 8202   2.904  42.476   0.384
35855W        W 8203  42.000  36.848   3.347
35856W        W 8204  11.742  25.214  13.505
35857W        W 8205  21.061  14.639  11.078
35858W        W 8206  38.861   5.782  11.446
35859W        W 8207   9.856  34.526  10.576
35860W        W 8208  44.857  12.668   3.651
35861W        W 8209   6.359  37.038  13.899
35862W        W 8210  15.192  29.445  14.344
35863W        W 8211  23.127   0.456  11.524
35864W        W 8212  38.521   6.682   1.272
35865W        W 8213  36.060  10.180  10.924
35866W        W 8214  39.862  28.971   1.934
35867W        W 8215  11.800  29.484   3.180
35868W        W 8216   8.257  23.613   3.353
35869W        W 8217  40.890  29.152  13.545
35870W        W 8218  25.477  14.715   0.281
35871W        W 8219  17.090  21.652   0.830
35872W        W 8220  13.615  44.283  11.887
35873W        W 8221  35.372  43.422  11.452
35874W        W 8222  28.444  39.545  13.976
35875W        W 8223  17.589  27.972   3.361
35876W        W 8224  27.461  17.584  13.943
35877W        W 8225   9.322  36.547  14.318
35878W        W 8226  28.124  36.928   4.672
35879W        W 8227  11.748  17.201   2.841
35880W        W 8228  36.459   3.933  12.368
35881W        W 8229  38.012  13.789  14.446
35882W        W 8230  29.153  29.488   4.312
35883W        W 8231  31.423  18.590   2.232
35884W        W 8232  13.333  37.426  13.363
35885W        W 8233  24.186  14.268  14.400
35886W        W 8234  15.810   5.300   3.294
35887W        W 8235  38.533  40.930  13.982
35888W        W 8236  24.107  29.567  11.555
35889W        W 8237   0.792   2.429   2.814
35890W        W 8238   0.413  17.560   0.331
35891W        W 8239  27.582  36.573  11.580
35892W        W 8240  29.980  43.774  12.491
35893W        W 8241  25.971  32.987  11.589
35894W        W 8242  43.421   0.956  14.900
35895W        W 8243  34.569  23.635  13.886
35896W        W 8244  41.806  19.146  10.557
35897W        W 8245  32.049  25.989   0.320
35898W        W 8246   3.283  39.002  13.967
35899W        W 8247  34.613  19.616   0.916
35900W        W 8248  32.612   3.241   4.301
35901W        W 8249  11.133  39.866   1.932
35902W        W 8250  32.997  27.641  12.392
35903W        W 8251   3.305  31.530  11.037
35904W        W 8252   7.391  14.150   2.711
35905W        W 8253  31.950  41.034   1.797
35906W        W 8254  20.579  28.012   4.669
35907W        W 8255  17.183  24.672   4.824
35908W        W 8256   2.859  41.911  10.627
35909W        W 8257  29.040  39.343   0.460
35910W        W 8258  26.127  36.458  10.538
35911W        W 8259  30.443  29.631   2.696
35912W        W 8260  14.833  17.748   2.744
35913W        W 8261  33.570  33.510   0.765
35914W        W 8262  14.592  17.713  11.503
35915W        W 8263  41.529  40.415   1.448
35916W        W 8264  20.755  44.845   4.170
35917W        W 8265  23.528  32.479  11.464
35918W        W 8266  24.038  30.003  13.812
35919W        W 8267  38.059  29.078   2.347
35920W        W 8268  40.016  30.624  11.574
35921W        W 8269  38.357  10.366  14.780
35922W        W 8270  36.848  25.973  12.993
35923W        W 8271  23.599  31.144  10.635
35924W        W 8272  30.099  23.573  11.391
35925W        W 8273   1.802  21.656   4.758
35926W        W 8274  30.480  31.130   3.866
35927W        W 8275  34.573   6.231   1.287
35928W        W 8276  36.568   5.818   2.415
35929W        W 8277  17.232  23.198   4.599
35930W        W 8278  12.185  25.498  12.352
35931W        W 8279  26.035  10.329  12.826
35932W        W 8280   5.867  24.996  12.065
35933W        W 8281   2.325  21.070  11.107
35934W        W 8282  28.160  32.599   0.740
35935W        W 8283   4.346  39.350  10.954
35936W        W 8284   6.788   0.967   3.679
35937W        W 8285  25.981  35.101   2.800
35938W        W 8286   6.405  30.118  14.897
35939W        W 8287  31.472  13.640   4.785
35940W        W 8288   7.817  23.212   0.425
35941W        W 8289  27.946  19.594   4.333
35942W        W 8290  10.360  22.217  10.131
35943W        W 8291   2.923   9.754   4.626
35944W        W 8292  44.495  22.203   1.400
35945W        W 8293  13.820  19.245  13.982
35946W        W 8294  28.474  35.067  10.604
35947W        W 8295  39.506  43.800   3.311
35948W        W 8296   3.292  41.846  14.018
35949W        W 8297  17.779  17.583   0.958
35950W        W 8298  38.942  40.535  14.772
35951W        W 8299   1.974  25.197   2.271
35952W        W 8300  24.034  22.709   3.381
35953W        W 8301   5.803  20.647   3.301
35954W        W 8302  44.318  44.412  14.828
35955W        W 8303  18.546   5.734   1.256
35956W        W 8304   3.853  29.468   3.151
35957W        W 8305  25.598   6.717   3.736
35958W        W 8306  40.505  36.024   3.326
35959W        W 8307   9.680   9.392  12.386
35960W        W 8308  10.808  19.565   3.837
35961W        W 8309  30.608  43.485   0.939
35962W        W 8310  32.924  30.614  12.840
35963W        W 8311   1.459  20.754   4.265
35964W        W 8312  28.180  15.259   4.697
35965W        W 8313  34.392  27.590   0.938
35966W        W 8314   2.819   7.216   1.282
35967W        W 8315  30.556  25.081   1.829
35968W        W 8316  24.046  27.196  10.904
35969W        W 8317  18.570  43.385   0.960
35970W        W 8318  13.720  44.457  13.497
35971W        W 8319  23.668  26.015  10.982
35972W        W 8320  31.546   7.410  13.531
35973W        W 8321  14.274  33.475   5.208
35974W        W 8322  29.568  33.876   1.712
35975W        W 8323   4.260  38.878   2.229
35976W        W 8324  26.692  15.175  10.116
35977W        W 8325  11.349  18.264  13.324
35978W        W 8326  12.774   3.240   3.826
35979W        W 8327   9.347  15.637  11.859
35980W        W 8328  31.989  40.031   2.721
35981W        W 8329  22.589  38.344   4.619
35982W        W 8330   6.211   7.335  11.924
35983W        W 8331  38.468  25.119   3.215
35984W        W 8332   6.410  31.965  14.790
35985W        W 8333  44.328   1.851  12.037
35986W        W 8334  36.010  11.339   1.758
35987W        W 8335  20.733  23.006   1.419
35988W        W 8336  20.221  26.694   1.406
35989W        W 8337  23.679  25.059   4.131
35990W        W 8338  14.742  23.654  13.393
35991W        W 8339  27.475  36.519   4.189
35992W        W 8340  43.946  43.984   1.820
35993W        W 8341  12.742  30.989   2.266
35994W        W 8342  29.030  42.294   4.157
35995W        W 8343  36.563  32.570   2.251
35996W        W 8344   3.720  15.750  14.841
35997W        W 8345   1.351  32.894  12.901
35998W        W 8346  30.456  42.900   2.314
35999W        W 8347  17.221  13.244  10.910
36000W        W 8348  23.587   8.798   3.214
36001W        W 8349  15.166  31.592  12.397
36002W        W 8350  12.787  18.564   4.116
36003W        W 8351  32.027  30.965   2.704
36004W        W 8352  17.154  17.651   3.334
36005W        W 8353  13.248  34.055  14.383
36006W        W 8354  42.885   1.363   2.396
36007W        W 8355  29.092  12.620   0.890
36008W        W 8356  24.018  18.685  13.415
36009W        W 8357   8.195  42.365  13.476
36010W        W 8358  39.560  16.242  10.621
36011W        W 8359  27.979  42.885  11.499
36012W        W 8360  18.120  15.777  11.030
36013W        W 8361  11.326  18.787  13.377
36014W        W 8362  17.627   8.398   4.151
36015W        W 8363  25.024  24.190   5.199
36016W        W 8364   7.328  17.710  10.895
36017W        W 8365  26.592   5.356  13.917
36018W        W 8366  19.707   4.331   0.361
36019W        W 8367  13.270  13.125  14.325
36020W        W 8368   5.909  36.370   0.277
36021W        W 8369  43.404  32.987  10.625
36022W        W 8370  19.092  43.843  12.823
36023W        W 8371  16.698   6.801   2.231
36024W        W 8372  36.442  14.139   4.797
36025W        W 8373   8.184   7.171   0.950
36026W        W 8374   8.269   7.205  10.556
36027W        W 8375   6.324   3.337  11.014
36028W        W 8376  26.137  20.653   3.820
36029W        W 8377  16.300  13.776  13.388
36030W        W 8378  36.979  24.580  12.901
36031W        W 8379   8.886   1.353   2.886
36032W        W 8380  16.614  42.914   0.781
36033W        W 8381  13.264  16.079   0.399
36034W        W 8382  34.598  15.217   2.207
36035W        W 8383  32.890  40.945   3.343
36036W        W 8384  16.678  23.168  12.003
36037W        W 8385   2.931  33.379   3.243
36038W        W 8386  16.251   4.912   4.292
36039W        W 8387  43.847   8.828  11.891
36040W        W 8388   9.374  29.016  11.003
36041W        W 8389  15.249   0.964   3.829
36042W        W 8390   0.813  39.413  12.426
36043W        W 8391  30.129  31.575  14.361
36044W        W 8392  41.862  11.367   3.168
36045W        W 8393   2.367  15.607   1.403
36046W        W 8394   2.392  16.221   3.637
36047W        W 8395  44.977  17.569  13.879
36048W        W 8396  25.610   5.217  14.883
36049W        W 8397  34.572   9.266   4.787
36050W        W 8398  17.757  22.524   1.797
36051W        W 8399   2.299  36.508   1.761
36052W        W 8400   6.911  31.018   3.146
36053W        W 8401   2.870   2.949   0.427
36054W        W 8402  41.507  12.228  11.577
36055W        W 8403   1.414  34.492   2.187
36056W        W 8404  23.518   6.277  13.931
36057W        W 8405   9.378  13.670   2.380
36058W        W 8406  21.218  19.145  11.541
36059W        W 8407  36.462  32.619   2.736
36060W        W 8408  34.971   5.259   0.370
36061W        W 8409  31.535  33.536   3.367
36062W        W 8410  18.782  41.036   2.848
36063W        W 8411  38.512  33.562  12.444
36064W        W 8412  29.973  24.603  11.129
36065W        W 8413  32.950   5.762   3.275
36066W        W 8414  17.631   7.838  12.960
36067W        W 8415  17.721  23.151  12.823
36068W        W 8416  17.191   4.207   2.746
36069W        W 8417   7.830  23.199  13.943
36070W        W 8418  28.144   3.746  10.471
36071W        W 8419  38.340  42.371  10.621
36072W        W 8420  43.344   7.334  13.926
36073W        W 8421   8.763  38.547  13.400
36074W        W 8422  24.480  37.908   2.727
36075W        W 8423  11.803  39.051  10.940
36076W        W 8424  16.724   2.260  13.341
36077W        W 8425  25.630  27.660   3.808
36078W        W 8426   6.368  31.947   5.581
36079W        W 8427  28.437  15.737  12.031
36080W        W 8428  38.504  44.894  12.339
36081W        W 8429  42.983   1.790  11.473
36082W        W 8430   9.290   4.282  14.478
36083W        W 8431  15.784  32.932   1.338
36084W        W 8432  30.539  43.917   0.357
36085W        W 8433  17.135  35.405  11.554
36086W        W 8434  15.130  38.875  12.501
36087W        W 8435   1.244  21.216   4.240
36088W        W 8436  32.991  27.981   3.676
36089W        W 8437  21.540  32.065   2.901
36090W        W 8438  37.420  13.322  13.388
36091W        W 8439   7.179  26.137  14.925
36092W        W 8440   6.188  30.417  12.092
36093W        W 8441   1.923  11.701   2.225
36094W        W 8442  42.808  41.451   2.198
36095W        W 8443  26.973  17.162  14.830
36096W        W 8444  12.232  39.021  13.837
36097W        W 8445  22.238  22.115   4.297
36098W        W 8446   5.361   4.396   1.791
36099W        W 8447   2.395   0.916   4.626
36100W        W 8448  39.508  32.071  11.070
36101W        W 8449   8.184   6.354  13.894
36102W        W 8450   6.245  44.000  14.948
36103W        W 8451  21.152   6.193   3.294
36104W        W 8452  17.158  35.857  13.063
36105W        W 8453  29.024   5.913  14.282
36106W        W 8454  40.374  13.110  10.966
36107W        W 8455  24.673  25.131   1.272
36108W        W 8456   2.455  27.515   4.624
36109W        W 8457  43.475  18.054   0.803
36110W        W 8458  36.467  38.030   4.708
36111W        W 8459  14.104  11.718   5.173
36112W        W 8460  32.458  30.659  12.510
36113W        W 8461  18.719  18.208   1.244
36114W        W 8462  15.728   2.467  12.857
36115W        W 8463  37.858  37.999   0.727
36116W        W 8464  44.873  40.371   4.161
36117W        W 8465  10.670  22.007   4.638
36118W        W 8466   9.674  20.753  13.423
36119W        W 8467  13.123  14.757  14.997
36120W        W 8468  38.819  19.275   3.769
36121W        W 8469  37.433  11.647   1.705
36122W        W 8470  34.518  20.605   4.628
36123W        W 8471  23.550  41.345  14.979
36124W        W 8472  20.585  36.966   1.295
36125W        W 8473  20.762  35.565   4.350
36126W        W 8474   7.752  12.717   2.291
36127W        W 8475  40.898   6.685   0.408
36128W        W 8476  12.702   2.726   4.149
36129W        W 8477  12.298  40.481   0.356
36130W        W 8478  16.662  40.956   1.225
36131W        W 8479   0.818  27.117  14.293
36132W        W 8480   4.815  33.572   2.837
36133W        W 8481   9.212  34.977   1.246
36134W        W 8482  38.018  42.005   3.358
36135W        W 8483  24.702   5.202  14.984
36136W        W 8484   4.418  31.411  11.863
36137W        W 8485  25.503  25.053  14.359
36138W        W 8486  17.581   5.890  11.928
36139W        W 8487  34.922  11.699   5.164
36140W        W 8488  36.434  27.532   4.347
36141W        W 8489  23.986  36.502   3.258
36142W        W 8490  23.012  12.659   3.153
36143W        W 8491   8.793  34.384   0.923
36144W        W 8492  27.659  21.224  12.021
36145W        W 8493  23.159   6.356   3.233
36146W        W 8494  36.845  32.577   1.825
36147W        W 8495   4.439  19.274   2.775
36148W        W 8496  28.021  10.293  11.396
36149W        W 8497  25.659  41.966   4.740
36150W        W 8498  16.102   9.338  13.957
36151W        W 8499  12.714  16.258   2.747
36152W        W 8500  11.282   5.697   2.808
36153W        W 8501   3.384   3.794   0.322
36154W        W 8502   2.919  17.710  10.511
36155W        W 8503   0.383  35.000   0.383
36156W        W 8504  17.597  10.215  11.082
36157W        W 8505  39.042  15.236   2.230
36158W        W 8506  18.184  12.127  14.350
36159W        W 8507   1.955  28.172   4.285
36160W        W 8508  11.818   6.893  12.972
36161W        W 8509  10.287  20.088   5.638
36162W        W 8510   7.684   4.289   3.221
36163W        W 8511  32.506  14.166  10.974
36164W        W 8512  17.106  22.020   1.760
36165W        W 8513  30.642  35.507  12.934
36166W        W 8514   1.244  36.906  14.881
36167W        W 8515  29.630  30.121  11.107
36168W        W 8516  31.925  34.524  14.332
36169W        W 8517  41.493  19.264  13.894
36170W        W 8518  17.660  29.155   9.438
36171W        W 8519  22.643  10.232  11.071
36172W        W 8520  33.482   8.235  11.560
36173W        W 8521  26.177  31.407  12.382
36174W        W 8522  34.542  16.132  11.522
36175W        W 8523   3.748  26.056   2.244
36176W        W 8524  33.112   9.654   3.193
36177W        W 8525  44.870  11.673   9.977
36178W        W 8526  32.588   8.711   1.390
36179W        W 8527  28.539  40.500  11.403
36180W        W 8528   3.711  32.411  10.604
36181W        W 8529  25.031  39.374  14.341
36182W        W 8530  12.342   4.272  14.285
36183W        W 8531   0.954  36.975  13.314
36184W        W 8532  15.220   4.381  13.913
36185W        W 8533  36.996   8.864  13.312
36186W        W 8534  11.365  19.703   2.723
36187W        W 8535  37.034  41.531   2.757
36188W        W 8536  34.598  22.703  13.392
36189W        W 8537  39.367  22.189  11.900
36190W        W 8538  42.285  11.813   4.643
36191W        W 8539  20.034  29.130  11.047
36192W        W 8540  30.543  44.910   2.225
36193W        W 8541  23.002  21.198  13.445
36194W        W 8542  22.031  27.153   0.465
36195W        W 8543  16.125  13.806  10.511
36196W        W 8544   7.371  39.428  11.993
36197W        W 8545  17.728   3.722  13.990
36198W        W 8546  44.971  39.055   1.809
36199W        W 8547  23.685  34.372   3.722
36200W        W 8548  24.069  28.586   1.761
36201W        W 8549  22.678   7.305  13.968
36202W        W 8550  28.619   3.244   1.770
36203W        W 8551  24.193  36.876  10.954
36204W        W 8552   7.706  27.551   1.881
36205W        W 8553  28.054  13.114   4.601
36206W        W 8554  38.977  30.563  10.550
36207W        W 8555  28.479  39.335  14.381
36208W        W 8556   1.305  18.596   0.255
36209W        W 8557  32.933  11.370  14.011
36210W        W 8558  26.640   1.370   4.195
36211W        W 8559  29.047  43.309  14.857
36212W        W 8560   0.264  40.489  10.582
36213W        W 8561   6.908   1.941   0.341
36214W        W 8562   1.351   4.361   3.242
36215W        W 8563   6.393  24.482  10.568
36216W        W 8564  38.066  43.345   2.725
36217W        W 8565   8.173  29.993   9.459
36218W        W 8566  23.149  17.575   1.240
36219W        W 8567  19.252   0.358   3.384
36220W        W 8568  29.040   5.837   0.734
36221W        W 8569  11.746  13.140  12.900
36222W        W 8570  14.825   3.805   4.631
36223W        W 8571  17.575  43.303   1.375
36224W        W 8572  25.159  23.648   4.688
36225W        W 8573  21.033   4.859  12.938
36226W        W 8574  10.213  15.127   2.879
36227W        W 8575  19.557  38.492   1.344
36228W        W 8576  44.284  11.245   0.360
36229W        W 8577   4.836  18.611   2.412
36230W        W 8578  22.014  37.484   3.836
36231W        W 8579  39.385   9.155  11.954
36232W        W 8580  25.219  22.124  11.481
36233W        W 8581  31.001  14.237  10.417
36234W        W 8582  13.287  44.815   0.447
36235W        W 8583  18.626  22.190   2.229
36236W        W 8584  30.436  15.660   0.856
36237W        W 8585  41.983  14.117  14.341
36238W        W 8586   5.773   0.478   3.329
36239W        W 8587  39.478  42.872  11.390
36240W        W 8588   4.395   6.409   0.315
36241W        W 8589  28.572   9.168  11.936
36242W        W 8590  39.916  19.107  12.406
36243W        W 8591  27.117  10.343   4.210
36244W        W 8592  19.546  38.556  10.020
36245W        W 8593   5.263  34.864  12.933
36246W        W 8594  18.714  23.501   2.882
36247W        W 8595  21.595  33.128  14.365
36248W        W 8596  10.299  12.313   1.773
36249W        W 8597  37.367  12.667  14.802
36250W        W 8598   3.876  12.261   1.913
36251W        W 8599  13.769  40.006  12.877
36252W        W 8600  10.707   8.817  10.592
36253W        W 8601  21.655  35.864   0.830
36254W        W 8602  25.049  29.029   0.942
36255W        W 8603  25.008  26.691   3.729
36256W        W 8604  41.363  15.771  10.643
36257W        W 8605  15.687  10.719  12.841
36258W        W 8606  39.011  25.674   4.793
36259W        W 8607  20.069  18.697   2.690
36260W        W 8608  28.454  37.451   4.303
36261W        W 8609   9.351  18.705  10.456
36262W        W 8610  39.426  26.541   2.689
36263W        W 8611  11.684  17.786   4.162
36264W        W 8612  17.242  18.233  14.344
36265W        W 8613   1.309  15.147  12.449
36266W        W 8614  39.965  39.459  13.439
36267W        W 8615  10.268   8.402   9.958
36268W        W 8616  38.835   6.422  10.078
36269W        W 8617   1.391  18.275   2.779
36270W        W 8618  14.775  34.904  12.057
36271W        W 8619  35.874  20.653   4.195
36272W        W 8620  18.759  40.033   3.213
36273W        W 8621   7.800  16.646  11.517
36274W        W 8622  32.981  21.725   1.445
36275W        W 8623  34.881   8.693   1.736
36276W        W 8624  14.201  22.647   0.912
36277W        W 8625  17.264  22.696  13.523
36278W        W 8626   2.321  18.228   1.911
36279W        W 8627  40.406  26.581  11.472
36280W        W 8628  22.612  22.175  10.130
36281W        W 8629  18.221   5.720   2.742
36282W        W 8630  12.832  10.175   1.751
36283W        W 8631  28.083  13.753  13.006
36284W        W 8632  14.166  16.753  10.014
36285W        W 8633  35.442   7.682  11.924
36286W        W 8634  37.036  23.240   5.165
36287W        W 8635  13.223  40.802   3.284
36288W        W 8636  10.877  22.581  11.451
36289W        W 8637  25.968  19.645   1.240
36290W        W 8638  21.131  15.592   2.834
36291W        W 8639   8.254   6.195   4.652
36292W        W 8640  34.385   6.316  10.436
36293W        W 8641  22.592  27.672   4.176
36294W        W 8642  10.373  25.999  12.920
36295W        W 8643   7.885  11.865  10.453
36296W        W 8644   6.810   8.753   1.737
36297W        W 8645  37.943  28.083   0.419
36298W        W 8646  38.480  38.984   1.418
36299W        W 8647  17.623  30.946   1.415
36300W        W 8648  38.887  29.996   2.753
36301W        W 8649  37.338  27.049  10.507
36302W        W 8650  40.819  13.201   4.611
36303W        W 8651   8.204  27.148   4.238
36304W        W 8652  16.700  33.128  10.483
36305W        W 8653  14.793  28.033  13.345
36306W        W 8654  11.658  17.169  12.970
36307W        W 8655  36.473  21.691   2.231
36308W        W 8656   3.861  40.926   3.828
36309W        W 8657  37.448  11.745  13.359
36310W        W 8658  25.965  20.540  13.062
36311W        W 8659  44.455   9.325   4.248
36312W        W 8660  10.714   7.219  12.840
36313W        W 8661  29.046  15.674  14.386
36314W        W 8662  10.344  29.476   1.805
36315W        W 8663  25.659  31.544  10.598
36316W        W 8664  14.335   1.413  14.872
36317W        W 8665   4.412   6.864  11.410
36318W        W 8666  17.680  22.580   3.655
36319W        W 8667   5.817  17.123   4.631
36320W        W 8668  13.166  28.152  13.989
36321W        W 8669  34.448  34.538   0.348
36322W        W 8670   6.780  27.487  13.884
36323W        W 8671  27.519  24.706  11.517
36324W        W 8672  26.011  24.131  13.903
36325W        W 8673  34.930  24.072   0.763
36326W        W 8674  18.773  24.110   4.619
36327W        W 8675  34.082   7.312   2.240
36328W        W 8676   8.261  33.956   4.299
36329W        W 8677  15.208  34.612   3.703
36330W        W 8678   6.202  18.665   5.252
36331W        W 8679  26.475  18.639  13.808
36332W        W 8680  30.939  35.587   5.777
36333W        W 8681  28.602  12.240   0.301
36334W        W 8682  36.497  11.180  11.538
36335W        W 8683   5.905   3.809   2.666
36336W        W 8684  15.716  17.144   1.755
36337W        W 8685  36.042  26.591   1.875
36338W        W 8686  28.994   8.848   1.336
36339W        W 8687  33.035  33.127   4.812
36340W        W 8688  23.086   5.205   3.192
36341W        W 8689  33.575  21.643  13.324
36342W        W 8690  28.638  25.089   2.313
36343W        W 8691  27.012   4.934   1.230
36344W        W 8692  15.310  41.915   4.625
36345W        W 8693  17.643  15.633  13.016
36346W        W 8694  16.645  41.833  14.444
36347W        W 8695  43.352  19.101  14.308
36348W        W 8696  20.707  32.474  12.836
36349W        W 8697  21.620  44.934   2.825
36350W        W 8698  35.417  24.529  10.945
36351W        W 8699  34.930   2.426  10.937
36352W        W 8700  18.731  40.858   2.200
36353W        W 8701  40.937  19.173  12.359
36354W        W 8702  32.584  44.371  11.372
36355W        W 8703  15.156  37.473   0.416
36356W        W 8704  17.307  25.711   0.796
36357W        W 8705   2.792  32.623   0.441
36358W        W 8706  21.228  37.063  13.455
36359W        W 8707  26.507  42.835  10.589
36360W        W 8708   5.321  33.902   3.717
36361W        W 8709  11.827  34.463   4.648
36362W        W 8710  27.983  37.001   0.374
36363W        W 8711  34.990  33.977  10.517
36364W        W 8712  30.560  11.362   2.868
36365W        W 8713  14.145   5.864  12.839
36366W        W 8714  43.452  34.916  13.449
36367W        W 8715  24.193  42.825   1.850
36368W        W 8716  27.477  38.024  13.964
36369W        W 8717  18.704  34.406  13.061
36370W        W 8718   0.263  14.187  14.957
36371W        W 8719  10.719  11.268   0.355
36372W        W 8720  35.945  39.501  13.406
36373W        W 8721  37.525  23.065   5.220
36374W        W 8722  24.536  32.453  10.606
36375W        W 8723   2.426  35.369   1.848
36376W        W 8724   5.811  40.418  14.771
36377W        W 8725   4.834   7.267   4.603
36378W        W 8726  38.064   5.242  12.471
36379W        W 8727  25.697   5.388   2.179
36380W        W 8728  14.759  35.956  13.439
36381W        W 8729   8.215  15.657   0.730
36382W        W 8730  40.873  18.607   4.141
36383W        W 8731  11.798   7.192   4.643
36384W        W 8732  30.072  12.737   1.269
36385W        W 8733  14.158  42.343   4.606
36386W        W 8734  12.675  44.919   1.726
36387W        W 8735  32.030  41.505   2.318
36388W        W 8736  43.822   6.888   4.705
36389W        W 8737   3.308  22.506  11.860
36390W        W 8738  20.097  24.989  14.772
36391W        W 8739  41.319  20.197  14.959
36392W        W 8740   7.212  12.673  12.037
36393W        W 8741  26.055  39.372  10.517
36394W        W 8742  24.506  23.575  12.398
36395W        W 8743  37.348  32.126  13.534
36396W        W 8744   2.732  31.049   4.312
36397W        W 8745   5.391  16.073   0.322
36398W        W 8746  31.453  19.631   4.785
36399W        W 8747  40.472  21.653  13.001
36400W        W 8748  43.951  24.539   1.869
36401W        W 8749  23.692  11.728  12.466
36402W        W 8750  38.410  30.141   4.152
36403W        W 8751  16.607  12.285   0.472
36404W        W 8752  43.781  11.858   1.824
36405W        W 8753  10.739  30.495  14.429
36406W        W 8754  36.036  26.964  11.489
36407W        W 8755  34.059   7.902   4.179
36408W        W 8756  38.047  10.346  12.075
36409W        W 8757  21.514   3.843   1.709
36410W        W 8758  29.485  38.899  11.054
36411W        W 8759  43.383  20.755  13.893
36412W        W 8760  36.998   2.417  12.517
36413W        W 8761  43.299   3.916   2.393
36414W        W 8762  42.928  25.512  12.476
36415W        W 8763  32.928  35.563   4.152
36416W        W 8764   4.219   9.174   2.284
36417W        W 8765  14.204  10.735  13.794
36418W        W 8766   6.721   0.444   1.276
36419W        W 8767  28.574   5.312   4.796
36420W        W 8768   2.298  28.977  13.035
36421W        W 8769  37.054  25.083  14.022
36422W        W 8770  15.132  43.387   1.405
36423W        W 8771  27.084  16.125  10.493
36424W        W 8772  15.664  41.375   1.759
36425W        W 8773   8.208  13.745   1.810
36426W        W 8774  29.435  36.087   3.253
36427W        W 8775  14.700  10.231  11.418
36428W        W 8776  10.822  36.043   3.799
36429W        W 8777   9.298  28.121  10.459
36430W        W 8778  18.189   6.262   2.296
36431W        W 8779  43.888  32.905   2.851
36432W        W 8780  12.223   4.880   2.793
36433W        W 8781  34.958  10.668  14.388
36434W        W 8782  12.259  37.384   5.304
36435W        W 8783  44.419  30.624  11.470
36436W        W 8784  18.714  24.529  10.526
36437W        W 8785   6.843  38.964   0.426
36438W        W 8786   2.901  29.957   3.299
36439W        W 8787  14.621  21.020   2.880
36440W        W 8788  44.851  26.985   2.403
36441W        W 8789   8.853  30.073  13.028
36442W        W 8790  39.055   5.817   0.819
36443W        W 8791   6.299  16.602   3.845
36444W        W 8792   3.337   1.805  10.407
36445W        W 8793  15.803  14.329   2.348
36446W        W 8794  32.590  22.721   0.869
36447W        W 8795  16.146  21.588  10.956
36448W        W 8796   0.334   8.259   3.368
36449W        W 8797  32.021  28.488   4.821
36450W        W 8798  35.519  13.162  12.494
36451W        W 8799  19.752  34.008   1.261
36452W        W 8800  38.504  28.435   0.841
36453W        W 8801  24.680  34.932   4.254
36454W        W 8802  13.187  16.194  13.799
36455W        W 8803  38.327  14.834  12.940
36456W        W 8804  13.779  37.074   1.436
36457W        W 8805  14.301   6.282  13.953
36458W        W 8806   6.234   3.310  13.829
36459W        W 8807  31.644   7.888   1.866
36460W        W 8808  43.383  17.700   3.324
36461W        W 8809  26.668  31.137  14.951
36462W        W 8810  39.974  13.279  13.314
36463W        W 8811  30.969  44.808   3.784
36464W        W 8812  32.986  40.804   4.774
36465W        W 8813  27.579  39.436  10.890
36466W        W 8814   1.294  39.817   2.764
36467W        W 8815  43.419  31.105   0.457
36468W        W 8816  11.172  23.166  14.010
36469W        W 8817   3.740  15.686   2.684
36470W        W 8818  28.518   8.810   4.144
36471W        W 8819  12.142  28.501   2.231
36472W        W 8820  15.175  44.347  14.774
36473W        W 8821   3.918  15.644   2.354
36474W        W 8822  24.020   5.931  10.965
36475W        W 8823  37.573   0.817  14.984
36476W        W 8824  15.094  39.458   2.788
36477W        W 8825  44.925  30.146  11.106
36478W        W 8826   5.759  30.502  12.983
36479W        W 8827  40.818  14.745   1.399
36480W        W 8828  40.416  16.585   4.168
36481W        W 8829   2.448  31.462   2.262
36482W        W 8830  43.862  21.546   1.365
36483W        W 8831  34.391   0.785  13.981
36484W        W 8832  22.644   8.899   0.296
36485W        W 8833  12.848   6.274   4.193
36486W        W 8834  12.271   1.345   3.680
36487W        W 8835  23.012   3.784  12.460
36488W        W 8836  17.086  23.211   3.225
36489W        W 8837   1.907  37.385  12.559
36490W        W 8838  12.340   2.419   3.838
36491W        W 8839   5.854   0.447  11.966
36492W        W 8840   6.736  10.326   9.978
36493W        W 8841  24.188  27.145  10.546
36494W        W 8842   9.744  20.048   0.254
36495W        W 8843  42.885   7.792   1.444
36496W        W 8844  32.555   5.738   5.575
36497W        W 8845  33.620  30.639   2.314
36498W        W 8846   3.418  10.325  13.040
36499W        W 8847  19.606  23.676   0.911
36500W        W 8848  12.152   8.675  12.851
36501W        W 8849  42.012   5.859  13.957
36502W        W 8850  39.520  10.266  11.996
36503W        W 8851  12.749   4.215  14.906
36504W        W 8852  13.224  24.703   2.692
36505W        W 8853  35.920  44.485  11.855
36506W        W 8854   1.857  42.516   3.782
36507W        W 8855  42.992  40.503  10.462
36508W        W 8856  43.462  25.686   0.460
36509W        W 8857  18.286  43.782   2.183
36510W        W 8858  19.224  38.937   2.357
36511W        W 8859  27.162  41.006  14.360
36512W        W 8860   8.404  38.507   4.653
36513W        W 8861  28.654  11.187   3.699
36514W        W 8862  25.035  15.755   1.371
36515W        W 8863  20.039   3.443  11.420
36516W        W 8864  39.530  20.522   2.719
36517W        W 8865   7.328   8.666  13.971
36518W        W 8866   9.383  15.715  11.571
36519W        W 8867   7.350   3.792   4.194
36520W        W 8868  18.712   0.455  12.025
36521W        W 8869   2.390  39.408  11.558
36522W        W 8870  31.930   2.237   3.652
36523W        W 8871  27.049  15.777   2.198
36524W        W 8872  42.390  24.483  12.566
36525W        W 8873  30.650  42.001  10.495
36526W        W 8874  33.464  10.351   1.865
36527W        W 8875  30.093  29.996  14.993
36528W        W 8876  31.455  16.272   1.266
36529W        W 8877  13.653  37.012  13.015
36530W        W 8878  27.177  16.204   4.203
36531W        W 8879  33.062  43.843  14.930
36532W        W 8880  33.096   6.217   4.272
36533W        W 8881  29.497  22.637  12.037
36534W        W 8882  44.005  22.673   0.294
36535W        W 8883  18.736   1.397  10.918
36536W        W 8884   1.333  23.086   3.821
36537W        W 8885  15.119  35.999  11.924
36538W        W 8886   0.768  33.473   2.671
36539W        W 8887  11.669  14.127  12.551
36540W        W 8888  29.133  10.161  11.939
36541W        W 8889  17.789  21.206   2.759
36542W        W 8890  23.016  15.779  14.842
36543W        W 8891  43.448   1.287   0.303
36544W        W 8892   1.859  38.456   4.769
36545W        W 8893  32.623   8.840   4.128
36546W        W 8894  21.639  10.198  10.419
36547W        W 8895  42.374  19.694  12.497
36548W        W 8896  31.476   8.664   9.677
36549W        W 8897  37.396  29.513   5.201
36550W        W 8898  24.483  11.696   3.733
36551W        W 8899  43.874   8.790  13.006
36552W        W 8900  36.056  30.519  12.858
36553W        W 8901  41.402  32.973  10.913
36554W        W 8902   8.175  42.407  11.121
36555W        W 8903  20.530  43.343  14.317
36556W        W 8904  32.477  18.139  14.024
36557W        W 8905  23.074  12.238   1.794
36558W        W 8906  36.401   5.757   3.727
36559W        W 8907  33.989  44.954  13.869
36560W        W 8908  25.190  19.097   1.921
36561W        W 8909  16.567  42.934  10.901
36562W        W 8910  31.564  23.016   0.938
36563W        W 8911  32.986  30.928  13.343
36564W        W 8912  43.945  13.816   1.861
36565W        W 8913  26.692   1.348   4.829
36566W        W 8914  10.871  42.020   0.836
36567W        W 8915  42.839  14.820   2.342
36568W        W 8916  38.971  19.750   2.292
36569W        W 8917   9.825  27.622   1.821
36570W        W 8918  35.581  34.086  13.873
36571W        W 8919  18.165  30.079   5.308
36572W        W 8920  19.236  25.693   4.352
36573W        W 8921   7.240  40.349   0.446
36574W        W 8922  30.100  40.525   3.363
36575W        W 8923  25.541  28.012  12.040
36576W        W 8924  14.643   9.356   1.753
36577W        W 8925  15.111   9.719   1.323
36578W        W 8926  23.122   1.454  11.903
36579W        W 8927  13.283  18.564   4.259
36580W        W 8928  27.970   7.835  14.854
36581W        W 8929  35.084  41.437  11.096
36582W        W 8930  10.299  35.086   1.746
36583W        W 8931  22.133  38.967  11.990
36584W        W 8932  35.437  15.593   1.259
36585W        W 8933  23.501   4.444  14.489
36586W        W 8934  23.647  41.015  12.038
36587W        W 8935   7.357  33.048  11.593
36588W        W 8936  42.995  30.933   4.805
36589W        W 8937   0.905  17.191   3.293
36590W        W 8938  28.038  19.176  12.544
36591W        W 8939   3.287  23.076  13.399
36592W        W 8940  11.172  25.656  10.932
36593W        W 8941  28.614  40.420   0.420
36594W        W 8942   7.811  22.014  11.044
36595W        W 8943  11.344  44.970  12.554
36596W        W 8944  43.367  27.546  12.449
36597W        W 8945  16.757  15.801   1.217
36598W        W 8946  36.421  28.931   5.189
36599W        W 8947  37.390  25.171  11.581
36600W        W 8948  43.366  34.549  10.489
36601W        W 8949  31.585  14.139   0.800
36602W        W 8950  10.306  14.208  14.870
36603W        W 8951  27.568  23.221  14.930
36604W        W 8952  30.098  44.010  11.512
36605W        W 8953  21.132  11.291   3.166
36606W        W 8954   4.895  21.690  11.405
36607W        W 8955  38.915  13.788  13.505
36608W        W 8956   4.759  28.617   4.728
36609W        W 8957  31.547  41.969  10.607
36610W        W 8958  29.063  30.098  13.382
36611W        W 8959  38.963  25.693   3.303
36612W        W 8960  32.985  25.035  10.916
36613W        W 8961   0.764  26.101  10.614
36614W        W 8962  40.844  34.422  10.595
36615W        W 8963  38.018  11.189   3.152
36616W        W 8964  44.946  14.610  13.310
36617W        W 8965   0.940  29.584   2.318
36618W        W 8966  33.013  43.938  11.488
36619W        W 8967  41.509  32.475   4.637
36620W        W 8968  29.476  16.659  11.103
36621W        W 8969  28.960  17.194   1.216
36622W        W 8970  23.583  32.624   3.839
36623W        W 8971  21.652  37.527   3.269
36624W        W 8972  16.132  38.453  11.970
36625W        W 8973   9.186  13.619   4.760
36626W        W 8974  13.748  37.064  11.380
36627W        W 8975   3.821   9.710  11.045
36628W        W 8976  25.147  29.502   3.379
36629W        W 8977  10.141  12.647   0.470
36630W        W 8978   1.775   5.247   0.456
36631W        W 8979  13.763  39.014  11.481
36632W        W 8980  32.578  34.876  10.508
36633W        W 8981   9.389   4.435  13.309
36634W        W 8982  39.536   5.837   9.547
36635W        W 8983  29.074   2.940  11.048
36636W        W 8984   3.400  18.546   4.677
36637W        W 8985   7.756  31.997   0.901
36638W        W 8986  39.925  11.717   2.667
36639W        W 8987  34.960  43.805  11.566
36640W        W 8988  42.431  17.293   3.844
36641W        W 8989   1.961  31.645   3.322
36642W        W 8990  44.297  34.556  13.942
36643W        W 8991  34.389  21.651  14.829
36644W        W 8992  30.493  25.620  12.919
36645W        W 8993  10.280   4.301  12.890
36646W        W 8994  29.045  22.093   0.931
36647W        W 8995   4.309  27.561   3.313
36648W        W 8996  18.102  18.614   1.422
36649W        W 8997  22.662  44.781   3.331
36650W        W 8998   4.293  16.105  12.943
36651W        W 8999  20.146  28.983  13.866
36652W        W 9000  30.594  20.536  13.894
36653W        W 9001  25.647  31.623  13.045
36654W        W 9002  36.374  32.445   4.804
36655W        W 9003   5.899  37.521  11.906
36656W        W 9004  38.854  27.140   1.374
36657W        W 9005   6.835  19.161  12.886
36658W        W 9006  15.160  24.158  12.357
36659W        W 9007  30.554   5.763  14.901
36660W        W 9008   9.643  41.525  13.471
36661W        W 9009  24.519  27.651   0.827
36662W        W 9010   7.250  28.585  14.941
36663W        W 9011  12.209  19.554   4.712
36664W        W 9012  20.203   0.456  12.363
36665W        W 9013  40.494  44.899  14.991
36666W        W 9014  22.210  37.564  13.488
36667W        W 9015  18.643  13.695  13.959
36668W        W 9016  10.762  42.293   2.765
36669W        W 9017  21.122  37.026   4.269
36670W        W 9018  38.526   8.728   3.710
36671W        W 9019  39.315  19.249  13.496
36672W        W 9020   7.405  35.507  11.414
36673W        W 9021  35.920  38.058  11.920
36674W        W 9022  38.072  31.640  11.410
36675W        W 9023  27.956   7.235   1.918
36676W        W 9024   9.364  17.233  13.458
36677W        W 9025  38.425  31.422  14.471
36678W        W 9026  29.541  42.023  14.323
36679W        W 9027  40.405   3.833   2.263
36680W        W 9028  42.459  16.199  14.777
36681W        W 9029  35.593   8.295  11.428
36682W        W 9030  37.534  38.394   0.442
36683W        W 9031  10.739  25.467   4.648
36684W        W 9032   5.286  23.656   4.783
36685W        W 9033  40.501  24.138  13.529
36686W        W 9034  13.158  22.684   2.201
36687W        W 9035  20.171  42.960   9.985
36688W        W 9036  14.144  35.909   1.419
36689W        W 9037  18.074  12.260   3.642
36690W        W 9038  13.727  44.781  11.433
36691W        W 9039  16.223   0.988  13.949
36692W        W 9040  41.521  18.198   0.825
36693W        W 9041   4.882  14.801   1.794
36694W        W 9042  39.536   3.236   2.400
36695W        W 9043  44.438  18.058   2.250
36696W        W 9044  17.288  10.185   5.241
36697W        W 9045  39.389   0.463  11.010
36698W        W 9046  43.832  36.571  11.967
36699W        W 9047  27.002   6.854   0.439
36700W        W 9048  28.441  17.694   4.195
36701W        W 9049  38.425  37.527   4.766
36702W        W 9050   6.706  19.133  14.771
36703W        W 9051  33.589  25.620   5.131
36704W        W 9052   6.392  25.093  14.819
36705W        W 9053  26.693  25.059  11.930
36706W        W 9054  14.135  36.029   4.711
36707W        W 9055   7.366  33.574  13.036
36708W        W 9056  18.677  13.774  12.502
36709W        W 9057  44.338  23.153  12.422
36710W        W 9058  23.508  29.154  10.930
36711W        W 9059   9.384  27.546   0.839
36712W        W 9060   1.870  11.332   4.824
36713W        W 9061  21.544  11.210  13.465
36714W        W 9062   0.888   8.790   0.786
36715W        W 9063  36.546  19.694   0.377
36716W        W 9064  33.931  32.493   0.771
36717W        W 9065  24.998  36.987   3.213
36718W        W 9066  21.152  12.615  12.913
36719W        W 9067  18.175   7.894  11.971
36720W        W 9068   5.929  25.672  10.484
36721W        W 9069  18.615  18.128  14.275
36722W        W 9070   2.265  10.256   1.861
36723W        W 9071  15.268  16.072  13.051
36724W        W 9072  13.205  23.563   0.820
36725W        W 9073  35.551   1.402  14.987
36726W        W 9074  13.285  31.647  13.875
36727W        W 9075  42.407   1.960   1.405
36728W        W 9076   6.910  30.123   4.662
36729W        W 9077  35.387  10.791  14.937
36730W        W 9078   4.775  12.128   4.730
36731W        W 9079   8.837  39.922  14.965
36732W        W 9080  17.753  26.656  13.388
36733W        W 9081   8.761  14.719   3.824
36734W        W 9082   3.919  34.537   1.827
36735W        W 9083  37.852  20.548  14.482
36736W        W 9084  38.970  43.972  14.804
36737W        W 9085  14.640  41.922   2.721
36738W        W 9086   1.439   3.345  11.898
36739W        W 9087  17.167  36.066  11.038
36740W        W 9088  13.181  27.051   0.773
36741W        W 9089  30.501   6.423   5.632
36742W        W 9090  41.303  12.726   3.751
36743W        W 9091  13.790  39.392  11.105
36744W        W 9092  18.130  31.566   0.899
36745W        W 9093  18.075  39.885   3.729
36746W        W 9094  25.193  25.123  12.877
36747W        W 9095  22.241  16.212   0.331
36748W        W 9096  41.867  10.761   1.345
36749W        W 9097  19.202  28.964   4.322
36750W        W 9098  41.875   1.317   0.413
36751W        W 9099  22.692  31.635   4.722
36752W        W 9100  21.145  31.065  13.853
36753W        W 9101  19.619  19.250   1.787
36754W        W 9102  31.474  22.512   4.226
36755W        W 9103  34.523  32.938  14.905
36756W        W 9104  10.198  40.479   0.851
36757W        W 9105  15.590  37.541   3.845
36758W        W 9106  15.309  40.528  14.886
36759W        W 9107   0.353  44.332   0.921
36760W        W 9108  10.328  28.123  12.528
36761W        W 9109   3.427  30.960   4.326
36762W        W 9110  34.979   5.308   1.235
36763W        W 9111  15.245  25.095  11.493
36764W        W 9112   0.391   2.917  11.572
36765W        W 9113  31.038  25.126  14.428
36766W        W 9114  16.577  37.442   0.321
36767W        W 9115  36.031  24.114  12.577
36768W        W 9116  19.749  10.711   1.930
36769W        W 9117  36.430   4.856  10.415
36770W        W 9118   1.736  29.023  12.854
36771W        W 9119  43.991   3.381   2.888
36772W        W 9120  29.462   1.798  12.472
36773W        W 9121  18.628  15.228   1.353
36774W        W 9122  17.185  29.612  14.307
36775W        W 9123  31.144  20.166  12.444
36776W        W 9124  14.223  15.189  10.547
36777W        W 9125  16.211  13.658  11.961
36778W        W 9126   2.352   3.435  12.038
36779W        W 9127   1.337   5.375   4.681
36780W        W 9128  15.133  27.132   4.674
36781W        W 9129  40.427  19.758   1.263
36782W        W 9130  20.162  21.065   1.863
36783W        W 9131  37.395   5.321  14.279
36784W        W 9132  29.508  18.738   4.269
36785W        W 9133  22.542   9.306   0.243
36786W        W 9134   9.197  17.266  14.327
36787W        W 9135   4.318  44.846  14.414
36788W        W 9136  28.452  39.825  11.460
36789W        W 9137   2.377  27.161  13.515
36790W        W 9138  16.732  21.687  14.861
36791W        W 9139   5.784  10.879  11.913
36792W        W 9140  43.843  13.169   3.318
36793W        W 9141  26.085  22.745  12.360
36794W        W 9142  19.588  37.409   4.306
36795W        W 9143  38.335  43.433   2.192
36796W        W 9144  22.013  34.433   4.645
36797W        W 9145  16.143  27.085  14.987
36798W        W 9146  31.018  20.034  12.946
36799W        W 9147   6.817  35.372   4.678
36800W        W 9148  39.477  30.591   3.711
36801W        W 9149  42.940  10.689  12.519
36802W        W 9150  41.468  17.797   3.209
36803W        W 9151  41.447  16.790   4.256
36804W        W 9152  41.511  44.259   0.925
36805W        W 9153  10.318  33.613   0.273
36806W        W 9154  41.338  41.963  12.887
36807W        W 9155  44.858  38.379   0.899
36808W        W 9156  43.453   4.431   0.731
36809W        W 9157  35.971  37.364  12.058
36810W        W 9158   8.847  10.251  10.463
36811W        W 9159  43.893  44.951   4.644
36812W        W 9160  43.295  16.279   2.303
36813W        W 9161  44.493  27.632   2.205
36814W        W 9162  17.659  20.260   4.280
36815W        W 9163  24.564  33.388   1.334
36816W        W 9164  27.686  43.363  13.922
36817W        W 9165  35.907  19.620  14.982
36818W        W 9166  34.562  13.285   1.731
36819W        W 9167   9.149  37.927  11.901
36820W        W 9168   4.241  30.918  10.507
36821W        W 9169  30.615  24.147   0.805
36822W        W 9170  40.053  27.532   3.195
36823W        W 9171  13.173  23.554  14.467
36824W        W 9172  18.646   0.858  14.759
36825W        W 9173   6.283  17.611  10.500
36826W        W 9174  15.165  10.680  12.000
36827W        W 9175  20.705  42.827   5.094
36828W        W 9176  24.609  16.259   0.819
36829W        W 9177  20.105  20.730  12.037
36830W        W 9178  23.647  25.600  11.488
36831W        W 9179  38.985  29.642   0.470
36832W        W 9180  42.979  27.955  14.460
36833W        W 9181  34.966  44.322   3.185
36834W        W 9182   4.868  30.989   2.868
36835W        W 9183  28.087  29.980  10.566
36836W        W 9184  15.091  44.933  14.509
36837W        W 9185  27.678  13.308   0.846
36838W        W 9186  24.022   8.289   2.178
36839W        W 9187  20.539  40.520  14.859
36840W        W 9188  14.779  31.539   0.284
36841W        W 9189  29.029  11.806  12.436
36842W        W 9190  15.316  42.822   1.895
36843W        W 9191  35.419  20.552  11.391
36844W        W 9192  25.477  44.332  10.425
36845W        W 9193  34.061  29.936  14.845
36846W        W 9194   7.757  24.122  11.404
36847W        W 9195  32.970  39.854   1.800
36848W        W 9196  39.055   5.288   3.803
36849W        W 9197  29.157  35.085   4.254
36850W        W 9198   8.895  24.691   0.277
36851W        W 9199   4.904  28.437   0.474
36852W        W 9200  36.878   3.926  14.888
36853W        W 9201  35.566  15.145   1.804
36854W        W 9202  29.541  19.121  10.424
36855W        W 9203   3.899  36.895  11.059
36856W        W 9204  23.210  15.146  13.483
36857W        W 9205  40.479  27.547  12.883
36858W        W 9206   1.416  31.036   4.810
36859W        W 9207  35.048  35.586   2.309
36860W        W 9208  44.321  40.381   5.109
36861W        W 9209  38.476  41.330  12.458
36862W        W 9210  33.561  27.971  14.412
36863W        W 9211  35.575  20.203  11.381
36864W        W 9212  40.946  30.979   0.466
36865W        W 9213  23.733  39.512  11.978
36866W        W 9214  32.104  18.056   0.465
36867W        W 9215  25.121  25.622   4.763
36868W        W 9216  11.333  28.645  14.858
36869W        W 9217   9.333  21.526   0.793
36870W        W 9218  30.945  25.084   1.423
36871W        W 9219  34.941  44.336   4.783
36872W        W 9220  19.098  27.625  11.545
36873W        W 9221  41.493  19.242   2.391
36874W        W 9222  31.556  21.750   4.172
36875W        W 9223  16.165  27.446   2.324
36876W        W 9224  28.940   3.221  14.383
36877W        W 9225  36.499  21.707   4.763
36878W        W 9226   2.813  20.752  10.526
36879W        W 9227  38.456   8.384  12.401
36880W        W 9228   7.255  15.130  11.034
36881W        W 9229  22.220  29.948  12.932
36882W        W 9230   5.267  44.915   2.317
36883W        W 9231   0.745  14.755  12.494
36884W        W 9232  11.758   3.865   4.221
36885W        W 9233  13.294   5.392   0.745
36886W        W 9234  39.496  31.618  12.518
36887W        W 9235  18.188  23.495   1.907
36888W        W 9236  25.539  39.907  12.491
36889W        W 9237  35.907  40.041  11.386
36890W        W 9238   5.198  19.193  11.092
36891W        W 9239  23.714  36.994  10.583
36892W        W 9240  15.173   6.900  14.426
36893W        W 9241  40.945  39.979  13.997
36894W        W 9242   1.898  28.448   2.377
36895W        W 9243   7.227   9.377   3.330
36896W        W 9244  14.135  41.507  11.576
36897W        W 9245  14.760  22.197   3.801
36898W        W 9246  25.024  23.227  11.047
36899W        W 9247  25.570  20.529   2.370
36900W        W 9248  20.113  38.418  13.048
36901W        W 9249   5.897  20.746   2.875
36902W        W 9250  39.481  44.443  14.511
36903W        W 9251   1.371  21.041  11.091
36904W        W 9252  26.065   5.888  10.642
36905W        W 9253  11.206   6.413   1.900
36906W        W 9254  35.533  24.700  14.883
36907W        W 9255   2.226   2.913   1.281
36908W        W 9256  25.699  43.374  11.602
36909W        W 9257  11.696  10.852   4.284
36910W        W 9258  28.100  32.503   1.388
36911W        W 9259   8.232  23.046  12.478
36912W        W 9260  10.787  34.570  10.546
36913W        W 9261  14.239   0.300  14.848
36914W        W 9262  21.217  13.775  14.945
36915W        W 9263  10.745  13.757  14.833
36916W        W 9264  24.088  16.095  10.430
36917W        W 9265  26.688  31.127  10.619
36918W        W 9266  19.051  23.501  10.974
36919W        W 9267  23.180  17.778   0.298
36920W        W 9268  13.283  43.008   5.257
36921W        W 9269  14.599  20.044   0.851
36922W        W 9270  17.145   1.768  11.495
36923W        W 9271  27.084   2.766   3.763
36924W        W 9272  14.723  31.425   3.632
36925W        W 9273  39.917  41.397   2.254
36926W        W 9274   7.206   6.773  13.912
36927W        W 9275  34.886  15.293  14.387
36928W        W 9276  21.022  34.606  11.027
36929W        W 9277   6.346  32.412  11.054
36930W        W 9278   4.914  17.705  11.602
36931W        W 9279  30.946  19.146   1.248
36932W        W 9280   2.331  31.480  14.332
36933W        W 9281   6.761   0.278  12.498
36934W        W 9282  28.024  38.959  12.550
36935W        W 9283  11.723   2.449   2.258
36936W        W 9284  14.125  13.204   4.630
36937W        W 9285  31.478  42.444  11.405
36938W        W 9286  19.167   6.711   0.358
36939W        W 9287  37.352  13.682   0.390
36940W        W 9288   7.755  10.871  11.067
36941W        W 9289  40.483  16.778   4.623
36942W        W 9290  29.580  12.611   0.824
36943W        W 9291  38.853  26.017   4.612
36944W        W 9292  12.243   3.858  11.557
36945W        W 9293  20.740  25.163   0.817
36946W        W 9294   3.810   7.735   2.699
36947W        W 9295  35.597   6.314  13.310
36948W        W 9296  42.980  44.965  13.807
36949W        W 9297  39.925  19.131   1.714
36950W        W 9298  21.747   6.198  12.062
36951W        W 9299  24.997  44.996  12.974
36952W        W 9300  23.536  12.321  12.546
36953W        W 9301  37.849  36.033  14.806
36954W        W 9302  11.202  38.484   1.223
36955W        W 9303  15.688  43.390  11.082
36956W        W 9304   6.819  22.225   3.806
36957W        W 9305   6.818  25.006   2.210
36958W        W 9306  27.545  31.617   2.809
36959W        W 9307  42.853  16.291  11.577
36960W        W 9308  34.094   8.663   0.442
36961W        W 9309  24.201  39.522   1.371
36962W        W 9310  41.401   2.754  14.764
36963W        W 9311  40.932   2.929   4.289
36964W        W 9312  17.153  29.947   2.239
36965W        W 9313  16.745   7.754   0.433
36966W        W 9314  38.397  12.164   2.379
36967W        W 9315   3.757  32.936   2.679
36968W        W 9316   8.873  37.052  14.432
36969W        W 9317   2.228  33.505  12.525
36970W        W 9318  30.623  32.426   4.710
36971W        W 9319   4.768  44.911   3.162
36972W        W 9320  40.373  37.009   0.392
36973W        W 9321  12.224  36.980   3.291
36974W        W 9322  18.271  13.640   0.354
36975W        W 9323   8.859   0.489  12.085
36976W        W 9324   8.366  25.624  12.503
36977W        W 9325   2.811   2.819   4.118
36978W        W 9326  15.241   1.854  14.284
36979W        W 9327  15.172  30.941   2.409
36980W        W 9328  33.472  22.110  13.823
36981W        W 9329   4.408   2.793   2.355
36982W        W 9330   3.317  27.568   3.357
36983W        W 9331   4.289  36.954   2.885
36984W        W 9332  23.019  38.907   1.308
36985W        W 9333  13.752  10.863  10.467
36986W        W 9334  21.098  21.165   3.249
36987W        W 9335  36.009  40.322   0.768
36988W        W 9336  28.114  30.485  13.051
36989W        W 9337  38.895  33.036  12.345
36990W        W 9338  10.681  36.499  13.978
36991W        W 9339  24.695   7.873  14.362
36992W        W 9340  14.819   2.756   3.793
36993W        W 9341  17.562   6.414   4.138
36994W        W 9342  31.090   1.379   0.320
36995W        W 9343  23.659  26.578   1.211
36996W        W 9344  20.144  34.084  14.818
36997W        W 9345  28.087  16.577   4.619
36998W        W 9346  27.627   0.447   2.220
36999W        W 9347  32.980  42.338   0.810
37000W        W 9348   5.789  27.587   0.246
37001W        W 9349  29.053  25.015  12.942
37002W        W 9350  35.882  13.159  12.932
37003W        W 9351   0.461  16.220  12.519
37004W        W 9352  29.429  23.063  14.765
37005W        W 9353   5.352   3.737   3.208
37006W        W 9354  24.036  41.511  10.937
37007W        W 9355   0.392   0.849   0.853
37008W        W 9356  18.619  32.016   4.218
37009W        W 9357  10.804  14.756  13.427
37010W        W 9358  26.984  27.103   4.124
37011W        W 9359  44.374  28.491   3.674
37012W        W 9360  33.394   6.387  11.859
37013W        W 9361   2.733  11.789  11.098
37014W        W 9362  34.434  35.412   4.152
37015W        W 9363   5.886  39.039  10.949
37016W        W 9364  21.202  35.003   5.183
37017W        W 9365  41.809  36.040  11.563
37018W        W 9366  28.995  43.428   3.637
37019W        W 9367  39.387  10.325  14.478
37020W        W 9368  41.529  38.981  11.426
37021W        W 9369  37.563  42.871  10.640
37022W        W 9370   0.328  14.827   0.908
37023W        W 9371  26.125  28.004  12.034
37024W        W 9372  41.343  11.266  10.448
37025W        W 9373  10.236  22.573  11.485
37026W        W 9374  38.331  19.562  10.609
37027W        W 9375  30.608  38.846   2.763
37028W        W 9376  22.243  14.107  14.507
37029W        W 9377   7.242  38.995  12.442
37030W        W 9378  18.135   6.676   4.795
37031W        W 9379  13.751  23.153   0.319
37032W        W 9380  19.260  39.957  11.969
37033W        W 9381  22.651  35.906   3.205
37034W        W 9382   6.727  19.252  10.976
37035W        W 9383  39.932  33.423   0.467
37036W        W 9384  43.909  22.610  12.347
37037W        W 9385  43.298   6.318  10.525
37038W        W 9386  13.211   1.352   0.355
37039W        W 9387  22.175  42.798  11.932
37040W        W 9388  10.211  43.838  11.428
37041W        W 9389  38.446   9.359  12.463
37042W        W 9390  23.995  23.705  14.965
37043W        W 9391   6.773   6.736  13.046
37044W        W 9392  11.813  27.455  13.319
37045W        W 9393  17.226  36.577  10.997
37046W        W 9394  12.279  35.020   1.875
37047W        W 9395  25.081  30.115   0.804
37048W        W 9396   3.275  25.574  13.912
37049W        W 9397   2.307  17.630  12.010
37050W        W 9398  27.476   8.397   3.170
37051W        W 9399  24.200  20.122  10.533
37052W        W 9400  36.419  10.141  10.625
37053W        W 9401  44.325   8.170   0.775
37054W        W 9402  35.911  39.516  11.529
37055W        W 9403  14.106  30.484  14.415
37056W        W 9404   8.339  15.245   3.226
37057W        W 9405  38.875  23.992  14.384
37058W        W 9406  21.589   1.946   3.239
37059W        W 9407  32.518  37.998   3.700
37060W        W 9408   6.783  33.050   0.481
37061W        W 9409  29.154  22.602   3.359
37062W        W 9410   6.779  43.286  14.984
37063W        W 9411  34.115  41.936  11.917
37064W        W 9412   3.355  16.612  13.868
37065W        W 9413  36.569  22.729   0.456
37066W        W 9414  13.233  34.915   0.351
37067W        W 9415  25.609  14.798  14.421
37068W        W 9416  32.016  25.606   1.802
37069W        W 9417  38.391  30.995   1.336
37070W        W 9418  44.858   4.926  12.995
37071W        W 9419  27.994  19.695  13.538
37072W        W 9420  21.248  17.603  14.867
37073W        W 9421  23.685  28.557   0.461
37074W        W 9422  13.346  28.053   1.735
37075W        W 9423  19.719  23.206   0.911
37076W        W 9424  20.117  26.557   9.947
37077W        W 9425  34.426  37.439  14.506
37078W        W 9426  32.136  19.210  10.477
37079W        W 9427  39.354  15.328  11.575
37080W        W 9428  33.048  12.748  11.868
37081W        W 9429  37.339  15.699  14.007
37082W        W 9430   0.803  10.746  10.627
37083W        W 9431  28.617  36.545   1.782
37084W        W 9432  10.306  18.065  12.839
37085W        W 9433  11.367   7.198  10.477
37086W        W 9434  23.014  10.234   9.596
37087W        W 9435  37.467  43.827  14.278
37088W        W 9436   5.724  34.464  11.003
37089W        W 9437  12.193   0.881  11.476
37090W        W 9438   6.858  42.877  11.090
37091W        W 9439  23.690  35.010   2.672
37092W        W 9440  12.690  34.466  13.474
37093W        W 9441  27.662  29.659  11.971
37094W        W 9442  27.124  13.280   0.381
37095W        W 9443  32.449  29.643   2.862
37096W        W 9444  17.200  35.890  10.111
37097W        W 9445  10.359  29.078   0.911
37098W        W 9446  19.584  25.211  12.971
37099W        W 9447   4.792  42.497  13.033
37100W        W 9448  14.595   6.774  14.425
37101W        W 9449  44.436   0.436  11.422
37102W        W 9450  36.542   5.741   4.206
37103W        W 9451   2.900  26.587   1.452
37104W        W 9452   8.882  22.627   2.250
37105W        W 9453  18.131   5.277   2.754
37106W        W 9454  16.614  41.523   3.663
37107W        W 9455  24.133  27.151   4.309
37108W        W 9456  10.219  12.847   0.738
37109W        W 9457  40.460  14.812  13.833
37110W        W 9458  17.667   5.790   2.203
37111W        W 9459   7.273  43.831  13.377
37112W        W 9460  36.935  39.867  13.403
37113W        W 9461  23.100   7.355  14.816
37114W        W 9462   2.393  23.533  13.409
37115W        W 9463   4.913  17.755   4.190
37116W        W 9464  16.265  15.744   3.264
37117W        W 9465  44.292  29.127  12.950
37118W        W 9466   7.271  11.779  11.439
37119W        W 9467  37.384  22.663   2.664
37120W        W 9468   5.898  30.575  13.371
37121W        W 9469  32.419  27.041   3.269
37122W        W 9470  12.314   0.377   3.274
37123W        W 9471  23.114  13.644  13.546
37124W        W 9472  35.530  14.200  12.884
37125W        W 9473   8.179  44.783  12.429
37126W        W 9474  11.735   7.178  12.839
37127W        W 9475  43.438  44.829  11.887
37128W        W 9476   9.176  32.626  11.608
37129W        W 9477  40.364   3.921  10.512
37130W        W 9478  39.511  27.545   2.832
37131W        W 9479  32.026  34.116  13.464
37132W        W 9480  28.148  39.484   1.779
37133W        W 9481  34.108  22.552  12.862
37134W        W 9482  39.871  28.476   3.154
37135W        W 9483   0.343  40.929  14.498
37136W        W 9484   5.207  36.434  14.978
37137W        W 9485  38.000  42.984  12.440
37138W        W 9486  19.199  30.487  11.603
37139W        W 9487  39.346  21.717   3.339
37140W        W 9488  29.156  15.799   2.714
37141W        W 9489  21.224   8.291  10.581
37142W        W 9490   8.187   7.209   2.885
37143W        W 9491  13.681   6.189  13.027
37144W        W 9492  28.982  11.171  13.443
37145W        W 9493  36.858   6.386   3.801
37146W        W 9494  20.093  23.607  10.970
37147W        W 9495   1.438  15.185   2.698
37148W        W 9496  31.948  43.380  13.352
37149W        W 9497   7.672   5.351   0.880
37150W        W 9498  38.508  29.047   3.758
37151W        W 9499   4.698  20.060   1.850
37152W        W 9500  43.323   3.739   4.704
37153W        W 9501  40.880  39.317   0.835
37154W        W 9502   6.922  31.988  10.521
37155W        W 9503  40.337  22.222   4.148
37156W        W 9504  40.473  43.331  12.893
37157W        W 9505  39.956  42.918  13.018
37158W        W 9506  18.688  38.833   5.294
37159W        W 9507  23.012  16.151  13.032
37160W        W 9508  42.442  30.091   4.814
37161W        W 9509  23.040   7.726   0.739
37162W        W 9510  22.015  17.173   0.313
37163W        W 9511  21.730  32.097   4.335
37164W        W 9512   5.375  37.566   3.203
37165W        W 9513  23.110   0.290  10.623
37166W        W 9514  14.606   8.278  12.573
37167W        W 9515   0.290  40.941  11.936
37168W        W 9516  41.914   8.826  14.883
37169W        W 9517  17.285   1.763  10.939
37170W        W 9518  34.382  31.042  13.026
37171W        W 9519  22.103  20.596  14.856
37172W        W 9520   6.258  22.639   5.094
37173W        W 9521  18.565  17.759  10.420
37174W        W 9522   9.850  19.186  11.470
37175W        W 9523  32.002  26.694  12.046
37176W        W 9524  15.171  28.967  13.457
37177W        W 9525  42.399  39.891   3.766
37178W        W 9526  13.144  10.244   4.140
37179W        W 9527   1.850  42.364  13.955
37180W        W 9528  30.912   6.288   2.738
37181W        W 9529   7.890  24.980  13.490
37182W        W 9530   4.211   6.420   2.732
37183W        W 9531  40.992  23.709  12.018
37184W        W 9532  22.587  18.285  11.453
37185W        W 9533  27.070  24.503   2.750
37186W        W 9534  42.892  25.698   0.284
37187W        W 9535  31.045  39.899   4.348
37188W        W 9536  35.021  40.375  10.522
37189W        W 9537  14.704  12.830  10.415
37190W        W 9538   7.748  42.365  13.814
37191W        W 9539  20.557  39.036   3.383
37192W        W 9540  31.136  32.129  14.512
37193W        W 9541  38.546  24.706  12.828
37194W        W 9542   8.785   7.324   2.679
37195W        W 9543  23.107   6.868   4.162
37196W        W 9544   1.378   3.899  11.942
37197W        W 9545  32.999   6.789   4.725
37198W        W 9546  44.317  35.430   2.388
37199W        W 9547   1.449  18.084   3.172
37200W        W 9548  34.573  41.311  14.397
37201W        W 9549  13.113  39.360   3.256
37202W        W 9550  25.981   1.338   4.130
37203W        W 9551  37.877  21.701  10.989
37204W        W 9552   6.757  44.384  13.900
37205W        W 9553   7.378  29.024   3.319
37206W        W 9554  36.356   6.687   1.413
37207W        W 9555  41.033  19.076  13.530
37208W        W 9556   0.829   9.829  11.533
37209W        W 9557  25.123  10.331  13.039
37210W        W 9558  30.159  21.182  12.096
37211W        W 9559   2.360   2.369  12.356
37212W        W 9560  31.011  27.669  11.450
37213W        W 9561  22.075   9.253  13.503
37214W        W 9562  35.996   0.903   1.931
37215W        W 9563  35.451  41.430   0.827
37216W        W 9564   8.837   9.362   2.331
37217W        W 9565  28.093  17.570  12.953
37218W        W 9566  11.184  42.397  13.440
37219W        W 9567   6.817  42.812  13.837
37220W        W 9568  19.101  19.592  12.847
37221W        W 9569  10.719  32.934  11.092
37222W        W 9570  35.025  29.137  13.980
37223W        W 9571  43.416  31.074   2.782
37224W        W 9572  23.135  38.410  11.901
37225W        W 9573  20.124   0.858   4.146
37226W        W 9574   9.791  33.529  10.983
37227W        W 9575  38.870   2.442   2.321
37228W        W 9576  37.066  44.502  11.588
37229W        W 9577   2.355  24.066  11.409
37230W        W 9578  18.605  37.579  13.322
37231W        W 9579  41.838   9.243  14.002
37232W        W 9580  20.618  27.663   1.275
37233W        W 9581  22.629  34.117   4.627
37234W        W 9582  15.617  24.616  13.882
37235W        W 9583  14.246  18.744   2.392
37236W        W 9584  43.418  13.234   3.176
37237W        W 9585  41.836  13.714  12.935
37238W        W 9586  43.773  19.750   2.407
37239W        W 9587   4.372  31.995   0.477
37240W        W 9588  18.119  36.093  12.440
37241W        W 9589  12.643   2.750  11.885
37242W        W 9590  31.087  39.810  13.881
37243W        W 9591  36.864  18.763   2.217
37244W        W 9592  43.437   9.249   4.336
37245W        W 9593  20.681   1.335   3.373
37246W        W 9594  41.293   4.227   2.257
37247W        W 9595   7.693  24.557   0.476
37248W        W 9596  19.046   8.160  14.948
37249W        W 9597  23.659  33.089   0.939
37250W        W 9598  41.307  15.698   1.729
37251W        W 9599   6.736  16.276   0.252
37252W        W 9600  10.685   1.877   3.229
37253W        W 9601  18.570  28.082  12.023
37254W        W 9602  17.203  32.561  13.873
37255W        W 9603  11.292   8.218  10.473
37256W        W 9604   5.346  22.157  12.554
37257W        W 9605  12.314   8.691   3.179
37258W        W 9606  13.134  32.606  14.831
37259W        W 9607  24.215  29.043  10.632
37260W        W 9608   6.898   0.479   4.760
37261W        W 9609  13.618  15.132   1.849
37262W        W 9610  22.566   9.725   2.840
37263W        W 9611  20.572   6.720  12.911
37264W        W 9612  41.500  32.889   0.821
37265W        W 9613  33.093  31.642   1.400
37266W        W 9614   0.266  22.087  13.471
37267W        W 9615  31.108  26.583  14.864
37268W        W 9616  22.620  12.666   2.378
37269W        W 9617   1.275  32.965  13.509
37270W        W 9618  14.700   1.947   4.269
37271W        W 9619   7.814  26.556  14.917
37272W        W 9620  32.032   9.202   4.726
37273W        W 9621  42.433   1.366   1.365
37274W        W 9622  41.401  41.845  11.962
37275W        W 9623   5.375  32.573  12.068
37276W        W 9624  27.483  43.924  12.974
37277W        W 9625   0.425   6.762  13.352
37278W        W 9626  26.961  37.025  11.406
37279W        W 9627  42.806  27.941   5.322
37280W        W 9628  37.445  19.578  13.985
37281W        W 9629  36.056   5.869  10.420
37282W        W 9630  14.773  41.908  13.000
37283W        W 9631  32.026   8.328   1.860
37284W        W 9632  40.953  18.690   0.339
37285W        W 9633  35.094  35.950   0.369
37286W        W 9634  44.765  36.048  12.398
37287W        W 9635  14.650  12.148   5.683
37288W        W 9636  41.455  28.053   1.240
37289W        W 9637  39.355  20.679   3.383
37290W        W 9638  11.364  15.581  14.309
37291W        W 9639   3.778  24.577  14.958
37292W        W 9640   2.766  27.474   4.301
37293W        W 9641  12.263  18.706  12.343
37294W        W 9642  33.387  20.579   1.320
37295W        W 9643  43.422  17.613  14.964
37296W        W 9644   4.790   8.857  13.509
37297W        W 9645  37.568  21.041  12.463
37298W        W 9646  43.946  11.271  11.015
37299W        W 9647  31.054  11.220  13.433
37300W        W 9648  29.426   9.707   1.708
37301W        W 9649  33.883  26.102   0.345
37302W        W 9650  25.971  39.877  10.977
37303W        W 9651  30.416  36.072   4.637
37304W        W 9652  44.501  44.776   0.299
37305W        W 9653  10.654  37.853  14.468
37306W        W 9654  34.534  16.602   0.922
37307W        W 9655   5.701  36.593   0.932
37308W        W 9656  23.567  23.570  11.405
37309W        W 9657  30.426   6.794  11.536
37310W        W 9658  31.413  41.527   2.875
37311W        W 9659  39.364   8.764  13.918
37312W        W 9660  26.463  36.980   2.725
37313W        W 9661  39.885  20.703  13.350
37314W        W 9662  21.095  29.995  13.521
37315W        W 9663  19.244  19.624   2.846
37316W        W 9664   7.847  18.747   5.263
37317W        W 9665  16.225  38.939   2.717
37318W        W 9666  18.753  13.229   4.765
37319W        W 9667  39.398   6.424   1.396
37320W        W 9668  43.904  37.394  13.505
37321W        W 9669  28.471  12.644  13.964
37322W        W 9670  14.777  28.484  14.904
37323W        W 9671  27.656  44.844  14.945
37324W        W 9672  10.795  30.960   2.719
37325W        W 9673  27.646  34.090  13.424
37326W        W 9674  23.604  36.991   2.881
37327W        W 9675   2.460  44.009   2.832
37328W        W 9676  41.318  10.379  13.430
37329W        W 9677  44.988  25.013  11.922
37330W        W 9678  32.962  38.939   0.456
37331W        W 9679  15.707  37.868  11.413
37332W        W 9680  41.040  16.645  13.483
37333W        W 9681   7.787  22.712  14.890
37334W        W 9682  16.583  25.080  13.484
37335W        W 9683   0.790  23.494   4.204
37336W        W 9684  35.420  44.844  13.975
37337W        W 9685  30.931  37.976  12.970
37338W        W 9686  31.070  30.433   4.635
37339W        W 9687  28.566   9.785  13.942
37340W        W 9688  33.031   1.932  13.998
37341W        W 9689   0.815   7.708  10.606
37342W        W 9690  25.015  35.582   1.915
37343W        W 9691  38.437  13.151  12.830
37344W        W 9692  39.957   1.963   0.351
37345W        W 9693  43.271  38.451   4.324
37346W        W 9694  34.378   1.292   1.856
37347W        W 9695  19.065   2.418  14.788
37348W        W 9696  25.024  16.770  11.860
37349W        W 9697  42.349  37.895   3.206
37350W        W 9698   7.887  20.221  14.926
37351W        W 9699  33.618  10.206  10.529
37352W        W 9700  15.744  32.115  10.519
37353W        W 9701   9.742  40.477  14.332
37354W        W 9702  13.257  32.988  10.627
37355W        W 9703   1.776   2.906   2.670
37356W        W 9704   9.777  41.518  10.455
37357W        W 9705  12.744  29.478  14.795
37358W        W 9706  42.027  14.211   0.940
37359W        W 9707  17.208  23.553  13.029
37360W        W 9708  43.979  10.218   3.826
37361W        W 9709  22.535  24.176  11.007
37362W        W 9710  43.920  37.012  14.940
37363W        W 9711   1.251   4.892  10.157
37364W        W 9712  13.662  13.231  10.469
37365W        W 9713  30.940   0.403   0.915
37366W        W 9714  26.037  29.054   2.200
37367W        W 9715  23.120  35.415  10.631
37368W        W 9716  20.677  30.416  12.349
37369W        W 9717  35.007   7.682  13.812
37370W        W 9718   0.988   5.930  14.484
37371W        W 9719  43.898   0.873  12.413
37372W        W 9720  44.957  10.196   0.425
37373W        W 9721  38.373  38.070  14.004
37374W        W 9722  38.386  18.714  13.827
37375W        W 9723  19.565   1.965  11.427
37376W        W 9724   2.293   8.662   2.344
37377W        W 9725  24.525   1.914  12.426
37378W        W 9726  33.575  20.638  13.910
37379W        W 9727  31.026  18.723  12.916
37380W        W 9728  35.949  28.558  13.963
37381W        W 9729  42.885  26.017   3.706
37382W        W 9730  11.780  30.644   1.334
37383W        W 9731  21.676  30.484  12.576
37384W        W 9732   5.853  18.068  11.922
37385W        W 9733  13.719  21.184  10.020
37386W        W 9734  33.027  39.940   2.373
37387W        W 9735  20.146   8.758   2.749
37388W        W 9736  43.469  11.271  14.897
37389W        W 9737  36.433  17.140  13.931
37390W        W 9738   3.779  15.180  11.439
37391W        W 9739  42.889   2.960  10.416
37392W        W 9740  13.619  42.419   3.192
37393W        W 9741  35.556   0.401  12.036
37394W        W 9742  37.525  39.439  11.471
37395W        W 9743  15.632  14.201   0.777
37396W        W 9744  18.297  44.935  11.562
37397W        W 9745   8.204   7.693   2.875
37398W        W 9746   7.300  25.071  13.469
37399W        W 9747  17.704  42.460  13.460
37400W        W 9748  38.561   6.273   2.236
37401W        W 9749  15.300   9.190  14.509
37402W        W 9750  34.571  30.531  13.427
37403W        W 9751  36.031  13.615  14.005
37404W        W 9752  35.376  17.557   2.724
37405W        W 9753  31.062  12.621   9.942
37406W        W 9754  18.180  18.741   2.294
37407W        W 9755   0.838  24.019  11.545
37408W        W 9756  15.198  14.295   3.802
37409W        W 9757  40.930  12.703   1.310
37410W        W 9758  30.452   0.921  12.029
37411W        W 9759  27.465  43.308   2.748
37412W        W 9760  31.924  24.661   2.309
37413W        W 9761  29.571  31.624  13.390
37414W        W 9762  34.609  44.505   3.665
37415W        W 9763  34.092   3.432   4.800
37416W        W 9764   3.845  30.530   4.148
37417W        W 9765   6.375  14.721  10.962
37418W        W 9766  22.236  19.267   2.771
37419W        W 9767  40.486  22.698   4.339
37420W        W 9768  40.535  35.062   1.853
37421W        W 9769  39.847  26.197  12.933
37422W        W 9770   0.484  30.457   3.754
37423W        W 9771  21.693  11.138  10.427
37424W        W 9772   0.894   6.216   2.717
37425W        W 9773  32.016  27.507   1.431
37426W        W 9774  42.495   6.692   3.220
37427W        W 9775  43.799  40.538  14.979
37428W        W 9776  23.142  38.507   3.274
37429W        W 9777  16.587  15.822   4.173
37430W        W 9778  35.025  12.134  14.497
37431W        W 9779  34.569  24.617   0.925
37432W        W 9780  44.924   6.322   1.918
37433W        W 9781  29.947  36.423  12.904
37434W        W 9782  20.154  15.309  14.994
37435W        W 9783  35.025   5.288  14.401
37436W        W 9784  31.062  13.611  14.378
37437W        W 9785  22.039  41.441   3.754
37438W        W 9786  30.979  36.432   2.378
37439W        W 9787  31.434  35.578   1.885
37440W        W 9788  37.948  28.119  13.838
37441W        W 9789  40.326   2.873   3.852
37442W        W 9790  15.217  13.728  11.519
37443W        W 9791  30.974  24.049  11.116
37444W        W 9792  29.919  37.024  13.875
37445W        W 9793  26.463   7.892  13.964
37446W        W 9794  21.693  25.041  10.925
37447W        W 9795   4.920  34.928  11.053
37448W        W 9796  18.234   0.372   0.411
37449W        W 9797  16.287  10.745  11.028
37450W        W 9798   8.739  36.535  13.913
37451W        W 9799  24.600   6.683   0.859
37452W        W 9800  33.025   6.917   4.134
37453W        W 9801  14.652  13.346   3.842
37454W        W 9802  31.018   0.285  14.911
37455W        W 9803  26.101  23.093   3.751
37456W        W 9804  37.467   6.238  12.858
37457W        W 9805  29.111   9.196   0.378
37458W        W 9806   8.339  27.143  13.026
37459W        W 9807  13.818  10.346  14.961
37460W        W 9808  37.041  31.444  13.496
37461W        W 9809  28.561   3.290   0.797
37462W        W 9810  35.875  43.480   3.857
37463W        W 9811   7.673  28.160  14.446
37464W        W 9812  21.609  32.494   3.832
37465W        W 9813  29.926  23.157   2.835
37466W        W 9814  27.951  41.004  13.010
37467W        W 9815  43.332   3.761  11.539
37468W        W 9816  14.298  36.481  11.590
37469W        W 9817  39.975  14.758  11.048
37470W        W 9818   1.443  33.124  14.413
37471W        W 9819  31.017   6.851   2.754
37472W        W 9820  27.463  16.295  13.832
37473W        W 9821  22.180   6.193   1.807
37474W        W 9822  25.091  10.834  12.893
37475W        W 9823  44.939  35.374  12.386
37476W        W 9824  26.201   2.455  12.093
37477W        W 9825  33.093  44.497  13.946
37478W        W 9826  31.141   0.868  10.068
37479W        W 9827  20.154  38.468   0.273
37480W        W 9828   1.943   1.952   4.674
37481W        W 9829   0.322  24.177   0.321
37482W        W 9830  14.601  28.604   3.852
37483W        W 9831  26.681   0.867  13.522
37484W        W 9832   2.794  34.112  12.921
37485W        W 9833  11.713   8.863   2.366
37486W        W 9834  25.123   2.468  13.339
37487W        W 9835   0.931  23.639   4.655
37488W        W 9836  34.548  13.166  14.318
37489W        W 9837  16.571  20.730  11.603
37490W        W 9838   3.889  11.151   2.669
37491W        W 9839  13.348  35.992   3.652
37492W        W 9840  12.723  24.143  14.363
37493W        W 9841   6.286  12.778  14.432
37494W        W 9842  40.505  39.909  11.575
37495W        W 9843  39.024   3.742   4.677
37496W        W 9844  11.179  14.747  14.807
37497W        W 9845  31.932  27.973   1.287
37498W        W 9846  13.831  22.115  11.865
37499W        W 9847  17.086  36.364   3.657
37500W        W 9848  13.230  22.115  11.069
37501W        W 9849  20.171  28.037  13.975
37502W        W 9850   7.318  14.750  12.881
37503W        W 9851  18.750  43.423  10.964
37504W        W 9852   2.940  15.595  11.434
37505W        W 9853  11.292  29.976   1.443
37506W        W 9854   9.653  23.626  14.896
37507W        W 9855  38.510  32.925  10.958
37508W        W 9856  44.324  27.503   2.775
37509W        W 9857  24.116  11.807   1.772
37510W        W 9858  38.987   4.307   1.908
37511W        W 9859  23.686  24.161   1.231
37512W        W 9860  32.465  29.500  12.019
37513W        W 9861  31.045  19.748   2.326
37514W        W 9862  39.839  41.909  14.802
37515W        W 9863  36.891  12.716  14.305
37516W        W 9864   3.848   5.262  13.518
37517W        W 9865   2.392  44.819  13.541
37518W        W 9866  42.927  19.581   4.269
37519W        W 9867  36.032  22.640   0.956
37520W        W 9868   6.906  29.974   2.704
37521W        W 9869  30.580  29.497  11.898
37522W        W 9870  30.127  14.160  14.974
37523W        W 9871  28.520  11.167   0.897
37524W        W 9872  29.606  18.180   0.469
37525W        W 9873  30.037  17.252  10.567
37526W        W 9874  43.487  19.108   0.292
37527W        W 9875   8.224  16.209  10.935
37528W        W 9876   5.829  19.599   3.186
37529W        W 9877  41.851  27.163  13.313
37530W        W 9878   7.897  32.508   4.237
37531W        W 9879  17.174  24.698  11.890
37532W        W 9880  18.697  42.452  13.870
37533W        W 9881  33.624  13.133   1.836
37534W        W 9882  16.106  43.019   1.269
37535W        W 9883  12.123   0.344  11.945
37536W        W 9884  19.767  24.197  13.950
37537W        W 9885  23.225  29.553  14.804
37538W        W 9886  21.647  37.050   3.777
37539W        W 9887  13.707  39.000  12.570
37540W        W 9888  41.863  43.452   1.232
37541W        W 9889  13.690  35.076  11.983
37542W        W 9890  22.548  36.908  14.763
37543W        W 9891  30.154  10.742  13.927
37544W        W 9892  10.787  43.971   4.213
37545W        W 9893  41.507   8.693  14.954
37546W        W 9894  38.494  30.015  10.977
37547W        W 9895   5.830  27.053  13.423
37548W        W 9896  42.880  40.009   9.990
37549W        W 9897  20.136  41.448  11.602
37550W        W 9898   5.257   9.788   4.176
37551W        W 9899  41.444  35.498  11.911
37552W        W 9900   7.840  30.507  11.598
37553W        W 9901  42.294  21.529   3.262
37554W        W 9902  18.753  13.279   5.142
37555W        W 9903  33.986  23.621  11.449
37556W        W 9904  29.634  20.595  14.334
37557W        W 9905   4.847  15.214   1.305
37558W        W 9906  44.338  19.114  12.993
37559W        W 9907   8.731  34.532  11.552
37560W        W 9908  35.554  15.187  12.527
37561W        W 9909   6.291  38.911   4.246
37562W        W 9910  12.666  34.370   3.166
37563W        W 9911  41.830  15.678   4.332
37564W        W 9912  39.024  25.546   1.743
37565W        W 9913  32.593   8.337   0.892
37566W        W 9914   4.410  20.716   4.188
37567W        W 9915  29.635  41.430  14.512
37568W        W 9916   0.448  22.561  10.464
37569W        W 9917  41.029  18.083  12.969
37570W        W 9918  35.925  31.046  13.332
37571W        W 9919  32.071  34.484  12.491
37572W        W 9920  43.984  22.549   2.211
37573W        W 9921  42.335  15.744  12.519
37574W        W 9922   4.924   3.414  12.916
37575W        W 9923  43.508  20.524   1.811
37576W        W 9924  42.816   2.776   0.800
37577W        W 9925   6.753  18.620   3.305
37578W        W 9926   5.920   5.221  10.474
37579W        W 9927   7.697   0.427   4.251
37580W        W 9928  23.706  39.529  14.341
37581W        W 9929   3.781  36.979  11.544
37582W        W 9930  37.077  21.757  10.476
37583W        W 9931  37.410  34.473  11.863
37584W        W 9932  19.662  36.535   2.851
37585W        W 9933  30.476  14.631  10.618
37586W        W 9934   1.327  31.060   3.839
37587W        W 9935   0.389  18.707  10.567
37588W        W 9936  16.171  27.546   4.649
37589W        W 9937  22.684  39.997  12.930
37590W        W 9938  11.310   1.261  14.965
37591W        W 9939  38.417  14.165  14.445
37592W        W 9940  43.998  26.163  14.028
37593W        W 9941  38.464  28.496   3.247
37594W        W 9942  26.081  20.114   2.680
37595W        W 9943   0.433  29.494   2.838
37596W        W 9944  22.069   7.839   1.849
37597W        W 9945  38.892  27.580  14.982
37598W        W 9946  12.288  21.534   1.890
37599W        W 9947   5.764  28.637   4.611
37600W        W 9948  28.651  33.057   2.258
37601W        W 9949  42.442  31.985  11.538
37602W        W 9950  42.428  44.808   4.732
37603W        W 9951  24.074   6.278  14.803
37604W        W 9952  10.823   5.759  10.440
37605W        W 9953  37.856  21.039   0.857
37606W        W 9954  34.386   5.334   3.861
37607W        W 9955  22.504  31.944  13.893
37608W        W 9956   3.772  39.526  10.951
37609W        W 9957  11.621   3.362  14.320
37610W        W 9958  10.705  43.788  13.871
37611W        W 9959  22.510  25.184  13.062
37612W        W 9960  39.971   0.299   1.735
37613W        W 9961  18.132  12.617   0.431
37614W        W 9962  36.416  40.919  11.962
37615W        W 9963   6.879  12.740  11.943
37616W        W 9964  42.289  12.321  12.496
37617W        W 9965   4.305  44.939  14.882
37618W        W 9966  43.972   0.830   1.728
37619W        W 9967  33.424   3.390   4.158
37620W        W 9968  23.623  31.056   2.346
37621W        W 9969   9.800   8.892  11.398
37622W        W 9970  11.362  25.189   4.706
37623W        W 9971   3.232  44.471  10.997
37624W        W 9972  28.971  39.373  14.913
37625W        W 9973  40.894   6.880  14.866
37626W        W 9974  28.670  34.093  11.403
37627W        W 9975  19.181  12.659   4.597
37628W        W 9976   1.731   7.295   1.328
37629W        W 9977   3.771  18.056   4.347
37630W        W 9978   6.216  41.396   9.993
37631W        W 9979  19.226  27.596   4.340
37632W        W 9980   8.222  32.897  11.009
37633W        W 9981  35.086  36.850  11.562
37634W        W 9982  29.560  13.204   0.243
37635W        W 9983  17.246   8.730  14.810
37636W        W 9984  13.839   6.865   3.779
37637W        W 9985  15.112  43.404   3.722
37638W        W 9986   6.867  11.694   4.770
37639W        W 9987  17.703  32.942  13.815
37640W        W 9988  34.984  28.581   0.931
37641W        W 9989   6.760  12.161  14.327
37642W        W 9990  25.560  37.400  11.941
37643W        W 9991   9.381  32.023  11.480
37644W        W 9992   3.361  27.122  14.803
37645W        W 9993  40.021  33.024   4.640
37646W        W 9994  19.777  42.860   1.316
37647W        W 9995  27.180  32.893  13.050
37648W        W 9996   5.330  32.523  14.889
37649W        W 9997  37.512  35.949   1.326
37650W        W 9998  39.820  38.969  13.443
37651W        W 9999  12.356  42.929  14.440
37652W        W10000  20.675   9.887   2.391
37653W        W10001  36.905  36.864  14.989
37654W        W10002   8.893  26.101  11.535
37655W        W10003   9.303  18.683  10.909
37656W        W10004  41.398  36.874  12.963
37657W        W10005   8.364   4.704   4.619
37658W        W10006   9.375  15.646  12.566
37659W        W10007  27.042  39.353  10.523
37660W        W10008   7.385  26.631   1.236
37661W        W10009   4.794  40.366  14.026
37662W        W10010  22.143  33.485   0.254
37663W        W10011   4.807   9.289   3.218
37664W        W10012  11.238  32.025  12.564
37665W        W10013  26.684   3.281   1.336
37666W        W10014  22.540  39.957   1.873
37667W        W10015   9.286  13.648  11.057
37668W        W10016  30.595  39.054  12.481
37669W        W10017  42.858  18.206  10.039
37670W        W10018  43.861   3.714  14.819
37671W        W10019  10.661  26.568   2.186
37672W        W10020   2.795  14.707   1.254
37673W        W10021  43.468   3.272  14.282
37674W        W10022  26.079   5.745  14.291
37675W        W10023  37.448  16.609  14.990
37676W        W10024  25.508  11.863  12.394
37677W        W10025  10.381   3.383   0.754
37678W        W10026  12.659  26.560  12.567
37679W        W10027  27.078   9.375   2.894
37680W        W10028  29.127  30.131   4.247
37681W        W10029  40.047  30.042   4.730
37682W        W10030   8.249   9.665   0.929
37683W        W10031  37.397  33.468   4.827
37684W        W10032  10.223  12.225  12.953
37685W        W10033  38.933  17.683  12.524
37686W        W10034  39.052  44.932   0.303
37687W        W10035  21.130  21.161   0.799
37688W        W10036   7.825  25.694   3.333
37689W        W10037  25.631   2.295   0.245
37690W        W10038  11.693   3.848  11.552
37691W        W10039  29.952  16.688   0.310
37692W        W10040  25.020  39.507   4.219
37693W        W10041  19.734   9.236   1.447
37694W        W10042  22.111   9.646  14.381
37695W        W10043  14.202  11.238   4.820
37696W        W10044  25.966   9.370   0.890
37697W        W10045   6.800  41.444  11.868
37698W        W10046  11.258   1.914  14.896
37699W        W10047  31.545  28.031   3.197
37700W        W10048  28.973   5.348  13.348
37701W        W10049  28.989  25.034   1.923
37702W        W10050  30.093   4.244  14.277
37703W        W10051  14.234  41.304  12.922
37704W        W10052  44.836  19.606  14.942
37705W        W10053   2.966  27.050   0.398
37706W        W10054  22.609  39.451   0.737
37707W        W10055  28.126  36.462  11.600
37708W        W10056  18.768   1.470  11.860
37709W        W10057   1.334  16.627   0.259
37710W        W10058  20.755  26.679   1.431
37711W        W10059  39.924  12.331  13.991
37712W        W10060  23.214  30.999  12.366
37713W        W10061  19.158  31.127   3.349
37714W        W10062  15.095  21.019  11.498
37715W        W10063   9.263   8.280  14.362
37716W        W10064  30.484   7.838   3.795
37717W        W10065  25.478  26.182   2.743
37718W        W10066  27.454  31.496   0.427
37719W        W10067  20.154  38.520  14.032
37720W        W10068   2.280  15.098  14.826
37721W        W10069  12.222  32.896   2.248
37722W        W10070  27.636  26.621  11.071
37723W        W10071  23.058  31.075   3.369
37724W        W10072  29.964  31.086  10.937
37725W        W10073  12.823  11.195   3.169
37726W        W10074  14.223   2.243   3.802
37727W        W10075  28.069  28.076  13.849
37728W        W10076  34.510  15.251   0.343
37729W        W10077  40.542  38.048  14.335
37730W        W10078   0.889  43.980  11.539
37731W        W10079  29.149  15.274  14.507
37732W        W10080  11.701  13.732  14.845
37733W        W10081  37.567  15.792  14.385
37734W        W10082  25.631  11.694   3.793
37735W        W10083  18.053  38.830  14.366
37736W        W10084  25.537   9.794   4.194
37737W        W10085  11.128   9.866  13.820
37738W        W10086  10.661  11.683  10.929
37739W        W10087  44.889  12.788   1.837
37740W        W10088  17.191  23.065  11.090
37741W        W10089  20.135   0.261   3.247
37742W        W10090  38.473  35.381   1.842
37743W        W10091  33.625  30.473   1.350
37744W        W10092  25.567  36.516  11.546
37745W        W10093   3.892  30.063  11.944
37746W        W10094  11.692  27.976   4.649
37747W        W10095   8.387   3.814   0.332
37748W        W10096  24.192  40.829  11.107
37749W        W10097  33.131  24.164  13.849
37750W        W10098   6.765  11.314   2.336
37751W        W10099  28.983  31.119   2.290
37752W        W10100  14.229  32.945  10.442
37753W        W10101  10.191  12.310   3.153
37754W        W10102  12.152  36.036  14.470
37755W        W10103  12.254   0.755  13.848
37756W        W10104  32.506  18.281  13.514
37757W        W10105   1.859  40.891   4.669
37758W        W10106   0.850  33.906  13.416
37759W        W10107  23.543  10.211   9.676
37760W        W10108  21.104  15.254   1.878
37761W        W10109  37.869  37.392  13.880
37762W        W10110  12.714  43.854   2.237
37763W        W10111  15.625  18.744  12.006
37764W        W10112  10.165  41.940   5.134
37765W        W10113  30.540  35.577  11.949
37766W        W10114  12.175  23.525  14.916
37767W        W10115  34.595  22.165   0.457
37768W        W10116  41.968   2.931   4.119
37769W        W10117  30.080  27.511   0.775
37770W        W10118  28.109  32.081   3.345
37771W        W10119  32.564  28.934   1.767
37772W        W10120  18.291   5.398  10.905
37773W        W10121   9.213  16.221  13.875
37774W        W10122   7.259  32.452  12.897
37775W        W10123  19.693  21.640   1.365
37776W        W10124   8.184  22.520  13.410
37777W        W10125  11.188   9.848   2.282
37778W        W10126  39.528  43.295  13.348
37779W        W10127  28.574  40.544   0.871
37780W        W10128  25.170  36.914  14.409
37781W        W10129  37.504   9.384  14.898
37782W        W10130  18.700  39.404   0.745
37783W        W10131  16.300  37.377  13.891
37784W        W10132  18.128  39.882  12.869
37785W        W10133  39.846  29.625  12.982
37786W        W10134  41.919  15.087  13.954
37787W        W10135  10.695  16.174   4.767
37788W        W10136  25.054  35.419   4.806
37789W        W10137  15.769  15.619   3.179
37790W        W10138  15.679  26.174   3.325
37791W        W10139  28.970  32.952   4.252
37792W        W10140   5.322  21.120  10.454
37793W        W10141  17.795   8.706   2.746
37794W        W10142   5.926  15.639  13.034
37795W        W10143   9.298  44.916   2.337
37796W        W10144   9.336  43.971   1.864
37797W        W10145  24.071  41.798   0.848
37798W        W10146  20.564   2.332   0.406
37799W        W10147  33.530  35.450   3.316
37800W        W10148  32.513  18.263   0.452
37801W        W10149  42.500   5.383  14.777
37802W        W10150   8.775  40.373  11.442
37803W        W10151  42.474  44.285   3.282
37804W        W10152  10.355  38.493   3.152
37805W        W10153  31.547   0.418   4.199
37806W        W10154   4.720  38.830  14.759
37807W        W10155  29.936   2.289  13.344
37808W        W10156  27.518  26.585  12.405
37809W        W10157  38.513   8.256  13.547
37810W        W10158  37.414  35.378  11.976
37811W        W10159   5.375  26.522   0.369
37812W        W10160   7.304   1.250   4.795
37813W        W10161  15.283   9.793  11.063
37814W        W10162   3.924  26.961   1.884
37815W        W10163   8.294  15.233   2.343
37816W        W10164  28.962  19.688  14.958
37817W        W10165  22.510  15.714  10.530
37818W        W10166  17.628   4.308  13.467
37819W        W10167  35.986  43.008  13.945
37820W        W10168  36.453  29.044   2.181
37821W        W10169  34.503  19.741   1.801
37822W        W10170  12.312  11.212  14.479
37823W        W10171  13.306  40.505   2.881
37824W        W10172   3.856  18.277   0.317
37825W        W10173  15.582  40.526  12.344
37826W        W10174  44.814  31.028  12.468
37827W        W10175   7.804  43.012   4.692
37828W        W10176  21.077   5.309   0.837
37829W        W10177  24.059  24.166  14.760
37830W        W10178  14.132  13.783   4.271
37831W        W10179  29.133   7.338   3.827
37832W        W10180  23.593  32.111  14.487
37833W        W10181  14.253  34.424   0.845
37834W        W10182   2.885  14.220   4.193
37835W        W10183  37.977  14.725  11.930
37836W        W10184  25.002   3.908   1.712
37837W        W10185  19.259  29.480  10.074
37838W        W10186  11.346   6.790   3.195
37839W        W10187  27.465  35.979   0.731
37840W        W10188  24.982  19.656   3.178
37841W        W10189  17.795  32.484   2.842
37842W        W10190   9.329  16.131  12.979
37843W        W10191   9.179  21.708  11.466
37844W        W10192  35.425  10.697   2.847
37845W        W10193  20.137  14.782  13.816
37846W        W10194  17.237  40.518  14.479
37847W        W10195  28.542  12.778  10.963
37848W        W10196  14.799  36.986   4.267
37849W        W10197  43.328  41.971   1.817
37850W        W10198  16.120   6.709  12.451
37851W        W10199  36.000  38.837  14.474
37852W        W10200   6.378  29.573   1.436
37853W        W10201   0.836  19.623   3.759
37854W        W10202  42.373  42.925   4.122
37855W        W10203  21.511  23.161  11.954
37856W        W10204  10.202  40.025   4.791
37857W        W10205   1.758  31.004   0.390
37858W        W10206  40.502  37.441  10.535
37859W        W10207  16.650  10.771  12.057
37860W        W10208  42.471  32.094  13.986
37861W        W10209   1.878  33.000  12.915
37862W        W10210   3.407   7.711   3.862
37863W        W10211  34.007  41.936   1.309
37864W        W10212  44.435  35.894  13.006
37865W        W10213   5.426  31.138  14.341
37866W        W10214  36.083  31.939  11.058
37867W        W10215  44.473  13.194  14.498
37868W        W10216  20.567  19.593   0.321
37869W        W10217   8.812  11.838  14.794
37870W        W10218  42.462  25.653  13.378
37871W        W10219   1.343  30.081   0.388
37872W        W10220  12.360  44.910  13.802
37873W        W10221  30.575  27.596   3.286
37874W        W10222   1.428  13.602   2.829
37875W        W10223  13.164   5.788   2.695
37876W        W10224  22.024  42.440  11.962
37877W        W10225  24.685  35.440  13.523
37878W        W10226   5.385  38.913   3.269
37879W        W10227  17.283  17.653  13.985
37880W        W10228  16.280  18.764  10.968
37881W        W10229  32.036  40.864   2.849
37882W        W10230  28.483  24.709   1.335
37883W        W10231  29.471  22.105  14.893
37884W        W10232  44.505  22.017  12.552
37885W        W10233  36.405   7.812   1.243
37886W        W10234  13.675  40.865   0.731
37887W        W10235  22.733  16.250   0.478
37888W        W10236  36.491   8.175   0.791
37889W        W10237   4.920  43.778   4.751
37890W        W10238  26.671   0.756   5.308
37891W        W10239  39.049  38.033  13.800
37892W        W10240  36.014  44.389  10.419
37893W        W10241  42.940  27.590   0.375
37894W        W10242  15.772   2.284  11.049
37895W        W10243  18.080   6.787  11.530
37896W        W10244  37.982  13.667  12.462
37897W        W10245  26.138  35.000   1.837
37898W        W10246  38.398   7.177   0.929
37899W        W10247  27.012  19.139   0.356
37900W        W10248  15.579  43.279   4.822
37901W        W10249  22.593  18.568   2.273
37902W        W10250   0.439   4.349  14.394
37903W        W10251  43.856   9.234  11.015
37904W        W10252  21.711  19.282  12.564
37905W        W10253  42.357  23.554  10.925
37906W        W10254  26.501  43.281  11.604
37907W        W10255  43.484  31.478  10.530
37908W        W10256  40.353   3.917   2.903
37909W        W10257  39.528  23.046  12.095
37910W        W10258   4.227  12.255   4.289
37911W        W10259  39.481   5.865   2.334
37912W        W10260  22.545   3.879   0.921
37913W        W10261   8.187  27.497   4.348
37914W        W10262  24.691  36.414   1.429
37915W        W10263  39.529  35.468  14.970
37916W        W10264   0.840  15.816  12.023
37917W        W10265  38.512  39.377  11.974
37918W        W10266  13.242   7.401  11.106
37919W        W10267  32.096  16.276   4.329
37920W        W10268   2.791  39.452  11.028
37921W        W10269  31.980   7.177   3.199
37922W        W10270  14.206  32.140   2.817
37923W        W10271  24.546  20.614  14.819
37924W        W10272  27.084  28.962   0.916
37925W        W10273   5.303  14.685  13.056
37926W        W10274  32.026  30.153   2.311
37927W        W10275  35.502  12.802   3.203
37928W        W10276  32.506  25.010  14.907
37929W        W10277   5.195  16.672   4.767
37930W        W10278   9.798  30.608  14.854
37931W        W10279  34.466  37.072  13.887
37932W        W10280  39.054  27.960   0.248
37933W        W10281  18.694  41.352   4.633
37934W        W10282   0.366  21.069  12.999
37935W        W10283  40.341  11.327  12.508
37936W        W10284   4.900  28.030  10.409
37937W        W10285   2.835   3.271  14.783
37938W        W10286  29.036  44.873   1.391
37939W        W10287  43.012   6.222  14.334
37940W        W10288  23.154  26.527   3.381
37941W        W10289  24.702   6.344  10.421
37942W        W10290   8.401  31.503  11.083
37943W        W10291  10.292  19.129  14.881
37944W        W10292   9.175  14.593  10.435
37945W        W10293   4.387  17.659  11.410
37946W        W10294  18.076  13.740   3.767
37947W        W10295  14.197  42.389  13.502
37948W        W10296  28.606  14.201  13.009
37949W        W10297  26.132  18.201  10.988
37950W        W10298  20.680  42.377   0.399
37951W        W10299   9.744  27.574  10.463
37952W        W10300  21.140  40.934   2.866
37953W        W10301  32.967  38.975  13.866
37954W        W10302  13.235  21.708   4.331
37955W        W10303   4.395  40.526   2.336
37956W        W10304   0.307  32.908  14.302
37957W        W10305  44.978  21.154   9.941
37958W        W10306  32.404  36.363   0.781
37959W        W10307  41.533  11.132  14.339
37960W        W10308  44.501   2.238  14.350
37961W        W10309   5.847   5.334  13.051
37962W        W10310  32.887   6.352  10.044
37963W        W10311  41.808  39.870   3.696
37964W        W10312  32.059  20.195  13.980
37965W        W10313  20.684  10.676  11.053
37966W        W10314  40.329  16.717  11.530
37967W        W10315  15.797   7.842  11.993
37968W        W10316  36.400  25.662  13.046
37969W        W10317   0.894  31.132   3.732
37970W        W10318   5.873  12.360  14.890
37971W        W10319  44.385   7.404  13.984
37972W        W10320  28.587   0.763  13.349
37973W        W10321  37.453  42.524  14.990
37974W        W10322   5.885  18.624   4.239
37975W        W10323  33.580  16.242  13.858
37976W        W10324  15.307  22.249  10.619
37977W        W10325  17.216   0.395   1.790
37978W        W10326  37.907   7.399   1.846
37979W        W10327  21.708  10.670  14.982
37980W        W10328   0.923  31.545   1.927
37981W        W10329  13.117  22.721   4.637
37982W        W10330  37.454   0.966  13.313
37983W        W10331  22.667  20.220  14.397
37984W        W10332   5.919   9.190   4.711
37985W        W10333   6.235  18.786   0.445
37986W        W10334  27.960  32.046  10.616
37987W        W10335   5.860  44.832  12.045
37988W        W10336  17.218  19.227   1.831
37989W        W10337  32.056  31.525  13.370
37990W        W10338   9.674  32.984   1.817
37991W        W10339  39.534   3.784  12.890
37992W        W10340  42.524  40.450  13.400
37993W        W10341  30.520   8.334   0.857
37994W        W10342  42.298  26.482   0.739
37995W        W10343  10.174  43.788  13.041
37996W        W10344  18.585  33.403  13.062
37997W        W10345   4.784  34.514  10.553
37998W        W10346   0.339   1.966  10.618
37999W        W10347  42.910  34.487  14.297
38000W        W10348  18.549  44.299   0.378
38001W        W10349  37.965  27.167   4.697
38002W        W10350  33.547  39.003   1.708
38003W        W10351  16.630  30.517   3.216
38004W        W10352  42.846  33.120  13.823
38005W        W10353  36.092   9.319  11.856
38006W        W10354  18.588  41.022   4.154
38007W        W10355  28.476  41.896  14.781
38008W        W10356  11.852  42.433   0.457
38009W        W10357  14.681  13.825  11.970
38010W        W10358  38.481  41.420  12.084
38011W        W10359   4.750  36.487   0.317
38012W        W10360  41.940   8.771   1.729
38013W        W10361  27.479  32.399  13.949
38014W        W10362  16.166  44.829  14.386
38015W        W10363  41.460  15.672  11.517
38016W        W10364  40.929  35.545   3.850
38017W        W10365  43.888  15.084  11.957
38018W        W10366   1.421  24.636   0.359
38019W        W10367  44.893  36.096   1.891
38020W        W10368   5.913  36.424   4.654
38021W        W10369  16.122  44.266  10.925
38022W        W10370  23.699  28.973   2.400
38023W        W10371  32.986  15.179  14.003
38024W        W10372  33.051  16.663  11.483
38025W        W10373  32.548  16.739  12.543
38026W        W10374  22.626  41.811  12.020
38027W        W10375  36.985   4.411  14.395
38028W        W10376  22.015  17.182   1.765
38029W        W10377  32.553  43.986  14.508
38030W        W10378  28.985  39.944  14.017
38031W        W10379  24.155  34.993   0.883
38032W        W10380  37.990   0.491  10.928
38033W        W10381  39.498   9.709   4.301
38034W        W10382  38.034  13.303   2.310
38035W        W10383  40.974  41.317  12.378
38036W        W10384  37.337   3.714  11.904
38037W        W10385  17.628  22.202  12.859
38038W        W10386  17.210   4.388  11.936
38039W        W10387  38.858  31.576  14.878
38040W        W10388  38.466  24.179   4.808
38041W        W10389  28.086  31.552  12.056
38042W        W10390  22.695  19.723   0.859
38043W        W10391   2.745  17.229   4.327
38044W        W10392  37.393  22.107  10.498
38045W        W10393  30.131  23.654   4.838
38046W        W10394   8.762  33.482   4.166
38047W        W10395  41.962  43.916   3.722
38048W        W10396   6.804  24.060   2.670
38049W        W10397   6.702  41.448   2.753
38050W        W10398   5.897  30.056  13.917
38051W        W10399  41.829  20.249  14.491
38052W        W10400  44.802  19.778  10.484
38053W        W10401  10.786  19.672   0.827
38054W        W10402   9.355  23.535   2.323
38055W        W10403  26.686  44.768  12.010
38056W        W10404   9.277   7.417  13.458
38057W        W10405  28.014  32.525   1.903
38058W        W10406   7.283   1.852  14.373
38059W        W10407   5.799   0.322   3.701
38060W        W10408  15.286   3.399   1.214
38061W        W10409  41.986   6.292  13.473
38062W        W10410  19.243  38.497  10.921
38063W        W10411  22.222   0.902   4.797
38064W        W10412  11.833  41.360   0.456
38065W        W10413  27.138   0.316   0.866
38066W        W10414  28.158  34.534  13.058
38067W        W10415  43.858   9.782  12.363
38068W        W10416  43.353   9.374   1.363
38069W        W10417   7.368  24.045   0.865
38070W        W10418   2.261  20.555   4.230
38071W        W10419  33.019  41.886   4.266
38072W        W10420  35.447   6.202  12.066
38073W        W10421  36.091  29.560   3.645
38074W        W10422  39.389   1.359  12.471
38075W        W10423  30.123  43.396  11.947
38076W        W10424  33.877   2.730  13.978
38077W        W10425   1.954  11.354  10.969
38078W        W10426  24.499  35.873  14.847
38079W        W10427   8.810  15.623   0.386
38080W        W10428  24.091  15.726   3.369
38081W        W10429  11.839  26.680  11.934
38082W        W10430  38.424  36.582  10.533
38083W        W10431  16.271   5.217   1.388
38084W        W10432  34.065  21.704  10.977
38085W        W10433  24.644  30.519   3.681
38086W        W10434  22.212  42.864   1.295
38087W        W10435  31.052   1.900  10.588
38088W        W10436  19.682  44.800   4.691
38089W        W10437  32.632  16.269   0.269
38090W        W10438  10.271  10.643  12.874
38091W        W10439   3.818   7.732  12.432
38092W        W10440  39.497  33.436  13.827
38093W        W10441   9.852  16.162  14.028
38094W        W10442   1.740   4.854   0.346
38095W        W10443  26.173  21.650   0.904
38096W        W10444   2.899   3.217  13.948
38097W        W10445  42.439  30.107   1.841
38098W        W10446  23.586  21.136  14.916
38099W        W10447  10.164  22.218  12.929
38100W        W10448  12.806  11.140   2.773
38101W        W10449   9.864  27.677  12.482
38102W        W10450  24.104  34.031   2.803
38103W        W10451  25.601  39.879  11.868
38104W        W10452  17.591  29.966   5.771
38105W        W10453   9.883  16.252   0.396
38106W        W10454  22.228   4.416  14.934
38107W        W10455   7.783  12.760   4.746
38108W        W10456  41.997  22.034   4.799
38109W        W10457  14.306  34.868   3.868
38110W        W10458   7.357   2.936   0.351
38111W        W10459  10.767  17.156  10.558
38112W        W10460  15.157   0.288   4.146
38113W        W10461  43.464  22.096   4.174
38114W        W10462  43.347  28.931  12.510
38115W        W10463  22.629   7.776   3.668
38116W        W10464  41.997  18.140  13.458
38117W        W10465  12.742  32.918   2.874
38118W        W10466  33.040  35.485   2.877
38119W        W10467   0.394  42.947   0.475
38120W        W10468  10.320  37.050  13.325
38121W        W10469   8.357  41.803   0.472
38122W        W10470  38.326   5.762  12.366
38123W        W10471   2.323   2.247  12.032
38124W        W10472  37.406  35.041   2.414
38125W        W10473  28.097  17.643  10.629
38126W        W10474  31.648   9.285   1.434
38127W        W10475   2.439  23.989  14.927
38128W        W10476   9.312   1.899   0.295
38129W        W10477  13.647  27.689   2.884
38130W        W10478  35.028  14.309  11.036
38131W        W10479  25.133  18.701  13.396
38132W        W10480  29.583  15.712   2.677
38133W        W10481  31.475   6.213   3.741
38134W        W10482  10.656   7.188   0.462
38135W        W10483   7.289  14.210  10.979
38136W        W10484  10.691  16.249  14.406
38137W        W10485  44.935  23.674  11.953
38138W        W10486   5.772  24.723  11.023
38139W        W10487  33.063   4.736  12.080
38140W        W10488  18.290  15.167   1.714
38141W        W10489  27.622  42.453  12.359
38142W        W10490  34.067  22.058  13.876
38143W        W10491  41.809  11.279  12.512
38144W        W10492  42.875  41.901   1.443
38145W        W10493  27.987   9.339   3.657
38146W        W10494  38.978  34.475  13.997
38147W        W10495  26.158  15.813  13.475
38148W        W10496  39.045   6.842  12.912
38149W        W10497  33.036  35.366  14.317
38150W        W10498  20.613  35.476  13.486
38151W        W10499  18.198  18.588  13.977
38152W        W10500   1.842   1.424   2.811
38153W        W10501  35.080  17.291   2.178
38154W        W10502   8.377  31.404   2.345
38155W        W10503   0.957  10.788   0.938
38156W        W10504  16.628  34.466  10.575
38157W        W10505  31.639  18.224   2.394
38158W        W10506   7.872   0.790   5.158
38159W        W10507  37.066   5.319   0.939
38160W        W10508  44.871   0.868  13.968
38161W        W10509  30.604  21.755  10.907
38162W        W10510  40.497  30.126  14.822
38163W        W10511  21.257  28.137   1.406
38164W        W10512   3.937  39.836   4.793
38165W        W10513   5.288  43.879  12.842
38166W        W10514  34.958  22.189  10.615
38167W        W10515  40.978  30.104   4.210
38168W        W10516  11.732  28.105   3.657
38169W        W10517  20.117  17.215  14.927
38170W        W10518  30.469  17.149  13.869
38171W        W10519   3.884  11.300  12.458
38172W        W10520   8.723  17.274  10.615
38173W        W10521  14.696  26.664  10.902
38174W        W10522   8.836   4.825  12.018
38175W        W10523  28.491  11.313   2.806
38176W        W10524  21.190   0.468  11.078
38177W        W10525  44.869   7.871   3.822
38178W        W10526  44.264  23.712   1.810
38179W        W10527   4.805  37.066   9.959
38180W        W10528  36.413  10.216  11.464
38181W        W10529   1.289  39.857   4.324
38182W        W10530  10.648  19.072   4.261
38183W        W10531   6.352  29.018   3.304
38184W        W10532   5.806  20.269   4.771
38185W        W10533  34.908  36.505  11.051
38186W        W10534  38.991   2.850  12.346
38187W        W10535   9.786  39.826  14.341
38188W        W10536   1.399   1.388  14.475
38189W        W10537  27.087   2.229   1.732
38190W        W10538  36.348  14.335   0.743
38191W        W10539   6.819  10.205  10.643
38192W        W10540  40.345   0.402   3.640
38193W        W10541   3.725  29.994   4.233
38194W        W10542  41.474  20.037   4.693
38195W        W10543  33.993  27.609   1.242
38196W        W10544   7.837  37.464   3.305
38197W        W10545  27.609  11.190   0.763
38198W        W10546  14.109  10.762  11.925
38199W        W10547   1.856  16.094  11.044
38200W        W10548  33.981   7.394   0.430
38201W        W10549   1.242  14.306   5.285
38202W        W10550  18.629  19.663  10.468
38203W        W10551  30.624  29.017   3.159
38204W        W10552   6.264  30.611  12.982
38205W        W10553   7.735  26.203   2.858
38206W        W10554  25.692   4.388   4.692
38207W        W10555  11.780  16.238  11.879
38208W        W10556   4.211  14.619  11.124
38209W        W10557  38.006  31.127  12.511
38210W        W10558  15.584  16.723   0.864
38211W        W10559  11.641  26.146   1.767
38212W        W10560  31.089  23.619  13.035
38213W        W10561   1.475   6.212  12.395
38214W        W10562   4.389  11.805  11.589
38215W        W10563   7.826  18.556   1.879
38216W        W10564   0.282   3.839  11.467
38217W        W10565  26.527  26.575  14.952
38218W        W10566   7.874  38.526   1.371
38219W        W10567   5.791  11.136   2.375
38220W        W10568   6.685   3.709   4.665
38221W        W10569  18.135  22.069   4.682
38222W        W10570  38.465  18.581  12.516
38223W        W10571   7.693  21.154  11.871
38224W        W10572  40.977  32.030   9.976
38225W        W10573  11.160  14.707   2.732
38226W        W10574   4.874  26.660  12.977
38227W        W10575  20.580  33.924   2.872
38228W        W10576  35.083  11.318   3.748
38229W        W10577   4.922  23.568  12.866
38230W        W10578  23.586   0.894   4.766
38231W        W10579   1.304  22.017   4.298
38232W        W10580  15.587  32.075   0.417
38233W        W10581   4.708  23.495   4.696
38234W        W10582  23.620  23.693  14.395
38235W        W10583  13.836  43.939  13.945
38236W        W10584   7.408   2.328   3.787
38237W        W10585  40.903  29.640   3.629
38238W        W10586   8.240  15.797   1.860
38239W        W10587  40.847  25.559  14.002
38240W        W10588  12.222  18.559  14.497
38241W        W10589  41.020   3.736  13.989
38242W        W10590  29.951  13.271   2.739
38243W        W10591  37.475  28.673  13.381
38244W        W10592  34.463  28.017  14.875
38245W        W10593   7.276   1.782  14.823
38246W        W10594  19.696  43.384   4.209
38247W        W10595  11.327  20.094   1.250
38248W        W10596   9.871  37.470  13.808
38249W        W10597  14.733   9.213   2.762
38250W        W10598   7.681  11.251  12.026
38251W        W10599  32.014  16.702  14.890
38252W        W10600   4.770   7.187   0.869
38253W        W10601  36.035   6.193   0.371
38254W        W10602  39.486   4.268  13.930
38255W        W10603  25.982  37.358  10.928
38256W        W10604   1.327   2.728   1.814
38257W        W10605  37.548  20.230   4.685
38258W        W10606  34.079   4.327  13.312
38259W        W10607  24.014  20.683   4.334
38260W        W10608   0.276  29.615  13.333
38261W        W10609   6.416   0.825   3.693
38262W        W10610  36.446   1.381   2.226
38263W        W10611  43.304  37.450   3.804
38264W        W10612  44.384   7.741   1.306
38265W        W10613  38.016  39.982  13.409
38266W        W10614  27.601  30.431  14.487
38267W        W10615   2.356  26.010   4.689
38268W        W10616  37.977  16.761  12.085
38269W        W10617   8.213   4.445   0.863
38270W        W10618  41.526  36.047  13.312
38271W        W10619   8.358  26.156  14.906
38272W        W10620  19.235  36.967   4.669
38273W        W10621   6.880  30.111  10.635
38274W        W10622  19.047  27.056   2.301
38275W        W10623   1.470  13.191   4.188
38276W        W10624  34.879  41.824  14.366
38277W        W10625  19.602  27.471  12.841
38278W        W10626  16.656  18.114   4.644
38279W        W10627  32.121  20.760  14.013
38280W        W10628  21.196  14.204   3.239
38281W        W10629  44.473  40.031  12.878
38282W        W10630  34.470  31.044   3.632
38283W        W10631  16.274  20.641  14.331
38284W        W10632   3.365  11.162   2.372
38285W        W10633   8.691  29.454  14.798
38286W        W10634   1.941  42.296   3.307
38287W        W10635  25.476  44.393  11.068
38288W        W10636  16.765  20.560  14.340
38289W        W10637  20.674  35.896  11.912
38290W        W10638  36.985  16.800   0.262
38291W        W10639  33.463  36.098   0.767
38292W        W10640  15.816  23.534   0.891
38293W        W10641  32.966  26.143   1.214
38294W        W10642  43.372  38.894  12.454
38295W        W10643   4.372  12.821  14.996
38296W        W10644  14.667  27.028   3.183
38297W        W10645  26.643  10.320   0.863
38298W        W10646  11.749  35.108   2.734
38299W        W10647   1.243  24.571  12.566
38300W        W10648  36.958   8.666  10.943
38301W        W10649  11.167   1.335  11.496
38302W        W10650  21.638  14.718   4.272
38303W        W10651  35.473  11.735  14.478
38304W        W10652  34.005  19.708  11.050
38305W        W10653  15.770   3.447  14.419
38306W        W10654  23.113  38.549  13.357
38307W        W10655  25.650  32.029   4.286
38308W        W10656  18.719  24.139  13.373
38309W        W10657  24.196   7.221   0.283
38310W        W10658  18.580  26.014  14.339
38311W        W10659  35.899   2.898   3.745
38312W        W10660  27.004  36.380  14.509
38313W        W10661  35.361  21.719   1.773
38314W        W10662  27.063  25.167  11.483
38315W        W10663  19.263  44.488   2.332
38316W        W10664   1.242  37.043   3.797
38317W        W10665   0.354  26.103  13.001
38318W        W10666   4.424  16.577   0.444
38319W        W10667  35.362  44.493  12.369
38320W        W10668  20.061  33.512  11.444
38321W        W10669  30.034  38.456  11.430
38322W        W10670  23.166  29.073   0.935
38323W        W10671   6.895   6.387   2.223
38324W        W10672   0.798  27.170   4.326
38325W        W10673  36.415  15.261  14.813
38326W        W10674  18.606  40.031  14.953
38327W        W10675  27.013   9.163   1.707
38328W        W10676  15.166   8.256   1.795
38329W        W10677  30.150  31.907  12.408
38330W        W10678  35.949  40.511   1.314
38331W        W10679  27.501  28.526   1.796
38332W        W10680  38.570   6.786   0.927
38333W        W10681  10.758  27.598   3.722
38334W        W10682   1.360   6.234   3.257
38335W        W10683  28.139  25.473  14.950
38336W        W10684  25.496  27.633  12.409
38337W        W10685  15.646  41.472  10.511
38338W        W10686   8.751  41.842  14.835
38339W        W10687  28.570  23.048  13.846
38340W        W10688  11.281  19.666  11.429
38341W        W10689   7.268  26.457   3.757
38342W        W10690  18.752   2.766  11.585
38343W        W10691  14.297   5.837   0.837
38344W        W10692  25.118   3.744  12.975
38345W        W10693   0.473   1.948   0.854
38346W        W10694  35.415  22.120   1.227
38347W        W10695   0.940   8.674  12.363
38348W        W10696   7.356   0.415  11.586
38349W        W10697  22.533  31.027   3.343
38350W        W10698  32.414  41.363   1.360
38351W        W10699  22.679   1.742  13.946
38352W        W10700  25.662  14.739  12.419
38353W        W10701  42.442   9.286  11.020
38354W        W10702   3.299  40.474   0.317
38355W        W10703  36.399  42.840   0.340
38356W        W10704   0.950   7.414  12.510
38357W        W10705  25.626  22.062  14.449
38358W        W10706   3.904  27.955   0.852
38359W        W10707  37.346  17.587   3.630
38360W        W10708  30.936  24.072  13.810
38361W        W10709   4.270   5.763  14.454
38362W        W10710   8.390  25.995  12.942
38363W        W10711   6.729  39.897   0.899
38364W        W10712   2.895  28.676   2.292
38365W        W10713  25.187  33.057   4.200
38366W        W10714   0.778   7.753  10.985
38367W        W10715  20.719  24.720  12.829
38368W        W10716  44.470  26.185   0.872
38369W        W10717  15.202  15.180   5.257
38370W        W10718   2.295  31.133   0.327
38371W        W10719  21.123  18.186  14.879
38372W        W10720  43.999  37.485  12.996
38373W        W10721  13.313  23.173   0.796
38374W        W10722  28.947   8.254  12.866
38375W        W10723  39.503   0.856  14.912
38376W        W10724   4.393  18.779  10.952
38377W        W10725  30.643  22.715  12.437
38378W        W10726  40.312  24.026  11.980
38379W        W10727  13.291   8.679   2.777
38380W        W10728  17.091  26.990  14.275
38381W        W10729   0.969  32.435  10.969
38382W        W10730   4.729   8.356  11.887
38383W        W10731  21.141   5.754   2.744
38384W        W10732  23.051  23.152  12.506
38385W        W10733  34.978  28.932  11.394
38386W        W10734  23.684  21.017  11.431
38387W        W10735  18.608  40.306  11.533
38388W        W10736  13.759  18.185   3.849
38389W        W10737   0.752  14.675   1.231
38390W        W10738  13.771  25.993  13.317
38391W        W10739  32.614  37.426  10.929
38392W        W10740  31.021   5.695   1.894
38393W        W10741   0.280   7.173   1.728
38394W        W10742  31.437  40.899   1.241
38395W        W10743  25.517   0.445  11.976
38396W        W10744  15.690  33.532  10.970
38397W        W10745   5.709   2.900   3.641
38398W        W10746   5.882  20.695  14.400
38399W        W10747  38.886  22.188   1.924
38400W        W10748   6.427  34.573  11.420
38401W        W10749  35.573   0.268   0.305
38402W        W10750  10.821  17.751  13.350
38403W        W10751   4.945  31.099   4.116
38404W        W10752  12.835  12.268  10.486
38405W        W10753   8.700  37.074  14.921
38406W        W10754  25.504   0.325   1.750
38407W        W10755  29.106   2.465  13.933
38408W        W10756   0.817  17.304   0.300
38409W        W10757   9.877  35.896   3.200
38410W        W10758  17.632  33.590  11.470
38411W        W10759  22.175  39.016   1.923
38412W        W10760   8.738  22.684  11.016
38413W        W10761  37.542  31.539  11.505
38414W        W10762  33.436  24.518   0.331
38415W        W10763  28.169   5.856  12.959
38416W        W10764  15.790   6.258  10.602
38417W        W10765  41.472   0.398   0.472
38418W        W10766  34.912  10.718  13.793
38419W        W10767  19.092  13.787  14.908
38420W        W10768  43.932  36.458   4.777
38421W        W10769  14.226  20.137   1.776
38422W        W10770  39.413   8.881  13.507
38423W        W10771  41.968  28.938   3.199
38424W        W10772   6.807  35.419   0.298
38425W        W10773  22.136  36.483   0.949
38426W        W10774  44.977  22.686   1.257
38427W        W10775  38.838  19.589   4.689
38428W        W10776  35.558  40.502   2.211
38429W        W10777  39.056  38.866  11.604
38430W        W10778   6.780   7.797  10.893
38431W        W10779  12.712  31.943   2.673
38432W        W10780   4.780  36.460   4.655
38433W        W10781  31.001  35.876  14.797
38434W        W10782  31.952  32.410   4.708
38435W        W10783  29.574  17.097  12.876
38436W        W10784  43.370  18.736  14.929
38437W        W10785  21.673  20.600   4.135
38438W        W10786  28.087   3.773  11.474
38439W        W10787  37.558   7.349   1.845
38440W        W10788   8.702  27.617   3.753
38441W        W10789  21.186  14.332   3.778
38442W        W10790  25.579   2.394  12.946
38443W        W10791  25.670   4.709   1.750
38444W        W10792   8.693  14.633  13.941
38445W        W10793  12.662   6.700   9.544
38446W        W10794  14.122  18.210  12.445
38447W        W10795   4.745  29.008   4.326
38448W        W10796   4.245  42.935   0.305
38449W        W10797  27.657   6.862   0.389
38450W        W10798  29.467  41.342   2.334
38451W        W10799   8.321  15.271   0.396
38452W        W10800   3.363  19.050   1.295
38453W        W10801  33.528  42.460   3.365
38454W        W10802  16.152  29.582   4.622
38455W        W10803  25.048   5.728   2.316
38456W        W10804  23.603  20.197  13.827
38457W        W10805  10.654  41.851   4.230
38458W        W10806  12.235   3.343   1.382
38459W        W10807  26.547  39.984  13.921
38460W        W10808   7.186  20.234  12.938
38461W        W10809  24.107   4.897  13.518
38462W        W10810  44.276  31.079  14.837
38463W        W10811  30.568   1.265  10.437
38464W        W10812   0.281  14.171   4.769
38465W        W10813  43.328  18.177   2.302
38466W        W10814  29.637  41.932  13.415
38467W        W10815   8.281   7.785   0.412
38468W        W10816  13.226  34.393  12.476
38469W        W10817  30.622  40.815  13.852
38470W        W10818   2.859  30.121   1.388
38471W        W10819  14.291  35.523  14.279
38472W        W10820  29.504   5.400  12.040
38473W        W10821  30.551  30.438   1.753
38474W        W10822  20.682  40.359  10.520
38475W        W10823  31.940  13.686  12.364
38476W        W10824  18.635  11.775  14.979
38477W        W10825  13.653  21.619   1.773
38478W        W10826  31.402  13.185  13.429
38479W        W10827  16.646  22.592  10.448
38480W        W10828  21.060   3.871   2.763
38481W        W10829  25.613  12.763  12.095
38482W        W10830  20.215  22.661  12.025
38483W        W10831  24.150   1.303  13.440
38484W        W10832   8.393  27.069   1.210
38485W        W10833  22.598  20.678  10.453
38486W        W10834   1.757  38.388  10.479
38487W        W10835   4.794  11.696   4.787
38488W        W10836   7.237   8.253  13.851
38489W        W10837  35.371  20.587  12.072
38490W        W10838  12.627   1.416   3.630
38491W        W10839  27.619   3.374  10.911
38492W        W10840  43.021  44.761   1.892
38493W        W10841  43.915  16.642  13.949
38494W        W10842  28.064  37.892  13.007
38495W        W10843   5.204  26.601  10.551
38496W        W10844   2.721  34.499  13.996
38497W        W10845  12.299  29.642  14.784
38498W        W10846   1.752  24.496   0.771
38499W        W10847  21.073  11.224   0.290
38500W        W10848   3.455  12.264   2.265
38501W        W10849   6.402  31.536  10.113
38502W        W10850  30.062  10.203   1.212
38503W        W10851  42.366  38.567  10.900
38504W        W10852   3.325  28.072  12.017
38505W        W10853  12.199   3.358   1.906
38506W        W10854  31.905  25.000  10.058
38507W        W10855  40.820  22.577  10.556
38508W        W10856  18.154  41.876   1.285
38509W        W10857  23.499   3.861  12.064
38510W        W10858  28.944  23.002  13.540
38511W        W10859  33.103  34.457   3.167
38512W        W10860  25.143  33.920  12.362
38513W        W10861  26.970  10.303  10.066
38514W        W10862  14.233   8.660   3.228
38515W        W10863  33.093  34.399  14.832
38516W        W10864  30.094  38.404  14.459
38517W        W10865   9.842   0.395   0.827
38518W        W10866  32.123  41.393   3.218
38519W        W10867   1.325  29.532   4.340
38520W        W10868  17.239  16.566  12.998
38521W        W10869  36.419  43.877  10.435
38522W        W10870  31.062  39.041   4.641
38523W        W10871  17.159  23.713  10.089
38524W        W10872  17.643  35.022  14.933
38525W        W10873  27.959  11.317   0.284
38526W        W10874  17.269  34.570   4.349
38527W        W10875   7.211  34.378   3.201
38528W        W10876  28.671   8.272   3.381
38529W        W10877   4.363  35.103  14.469
38530W        W10878  36.504  19.184  11.544
38531W        W10879  10.266  27.543  14.319
38532W        W10880  35.454  18.753   0.895
38533W        W10881  14.311  34.575   4.713
38534W        W10882   7.290  15.604  11.568
38535W        W10883  16.720  24.539   0.391
38536W        W10884  33.597  12.664  13.441
38537W        W10885  30.602   0.758   2.672
38538W        W10886   3.908  22.218  11.587
38539W        W10887  33.418   7.777   3.288
38540W        W10888  24.000  19.668   2.280
38541W        W10889  40.800  33.131  13.968
38542W        W10890  33.993  37.457  12.072
38543W        W10891  22.614  37.907   4.745
38544W        W10892  18.547  25.642   3.219
38545W        W10893   1.407  21.754   4.162
38546W        W10894  36.506  18.674  13.353
38547W        W10895  30.098   2.352  12.050
38548W        W10896   5.903  11.741  13.473
38549W        W10897  44.395  27.964   4.170
38550W        W10898   6.795   6.874   1.338
38551W        W10899  26.692  20.594  12.456
38552W        W10900   5.875  27.561   1.419
38553W        W10901  28.077  43.933   4.236
38554W        W10902  10.878  41.469   4.158
38555W        W10903  40.986  12.740  10.995
38556W        W10904  39.500   8.715  14.819
38557W        W10905  23.091  36.974  11.091
38558W        W10906  31.461   3.951   0.246
38559W        W10907  28.627   5.862  12.442
38560W        W10908  30.503   2.860   0.297
38561W        W10909  25.641   4.888   4.637
38562W        W10910  10.346  21.606   3.207
38563W        W10911  24.605  10.193  11.487
38564W        W10912  13.150   8.750   4.828
38565W        W10913  37.833  11.362   2.779
38566W        W10914  39.816  42.314  13.393
38567W        W10915  10.307  31.093   2.376
38568W        W10916  17.703  34.013  10.589
38569W        W10917  17.674   7.837  14.911
38570W        W10918  24.027  23.096  11.927
38571W        W10919   9.338   8.720  12.351
38572W        W10920  44.993  16.573  14.337
38573W        W10921  32.120   1.327  13.387
38574W        W10922  44.471  40.400   1.276
38575W        W10923   4.410   4.218  13.481
38576W        W10924  19.226   9.340   4.213
38577W        W10925  20.135  26.203  13.063
38578W        W10926  12.856  28.034   4.685
38579W        W10927  19.603  42.873  14.981
38580W        W10928   3.217  14.818  12.484
38581W        W10929  12.714  10.162  14.761
38582W        W10930  12.179   4.756  10.627
38583W        W10931   5.287  21.513  11.563
38584W        W10932   9.159  20.040  12.063
38585W        W10933  29.560  42.891   0.863
38586W        W10934   9.886  25.979  12.544
38587W        W10935  32.051  19.257   3.745
38588W        W10936   4.413  30.909   0.844
38589W        W10937   7.316  34.473  11.511
38590W        W10938   9.860  32.433  14.409
38591W        W10939  42.801  38.510  11.522
38592W        W10940  24.134   2.348   3.276
38593W        W10941   1.883  44.828  13.532
38594W        W10942  15.316  29.590   0.967
38595W        W10943  43.929   3.319  14.349
38596W        W10944  17.121  12.304   5.204
38597W        W10945  28.554  43.318  13.034
38598W        W10946  18.589  23.700  12.355
38599W        W10947  18.574   0.749   5.193
38600W        W10948  30.451   1.970  12.956
38601W        W10949  13.707  15.171   0.391
38602W        W10950  43.408  29.617   0.440
38603W        W10951  41.520  15.778   3.159
38604W        W10952  29.986  19.129   4.601
38605W        W10953  27.579  30.055   3.732
38606W        W10954  23.119  22.747  11.010
38607W        W10955  40.013  25.514   2.248
38608W        W10956   3.289   2.928   3.198
38609W        W10957   4.812   1.358  10.896
38610W        W10958  27.453   8.401  11.554
38611W        W10959  24.018   7.788   0.245
38612W        W10960   6.736  39.924  11.073
38613W        W10961  15.764   8.792   2.799
38614W        W10962   4.373   2.296  11.463
38615W        W10963  10.681  14.301   2.708
38616W        W10964  21.152  20.074   2.269
38617W        W10965   8.188  22.073   5.740
38618W        W10966  23.152  38.891  13.385
38619W        W10967   9.683   5.358   5.732
38620W        W10968  21.098  24.592   1.821
38621W        W10969  18.599  43.021   2.338
38622W        W10970  31.052  19.088  14.314
38623W        W10971  27.683   7.319  12.444
38624W        W10972  39.336   3.356  10.504
38625W        W10973  34.461  15.635  14.343
38626W        W10974  17.077  36.093   5.267
38627W        W10975  19.171   6.721   4.179
38628W        W10976   2.929   2.434   2.827
38629W        W10977  41.421  42.381  12.471
38630W        W10978  18.644  16.577   1.246
38631W        W10979  42.517  30.155   3.221
38632W        W10980  37.539   5.353  13.027
38633W        W10981  26.625   5.298   1.232
38634W        W10982  34.485  19.233  14.872
38635W        W10983   4.702   2.351   3.374
38636W        W10984   2.257   0.931  14.899
38637W        W10985  17.268  40.812  14.493
38638W        W10986  39.393  12.770   1.443
38639W        W10987  10.794   2.277   2.825
38640W        W10988  18.104  29.619   3.321
38641W        W10989  18.128  39.482  11.430
38642W        W10990  16.243  37.908   2.376
38643W        W10991   2.254  42.282   2.411
38644W        W10992  29.010  16.696  13.795
38645W        W10993  41.006  17.201  12.459
38646W        W10994  18.715  29.150   5.592
38647W        W10995   3.828   3.221   0.337
38648W        W10996  26.626   3.278  11.031
38649W        W10997  44.860  29.977   0.286
38650W        W10998  33.611  16.153   0.732
38651W        W10999  39.000  32.544   3.765
38652W        W11000  42.991  41.465  13.063
38653W        W11001   7.282  24.666  13.483
38654W        W11002   8.338  39.985  11.889
38655W        W11003  21.693  18.781   4.184
38656W        W11004  31.567  16.308  13.036
38657W        W11005  20.080  12.339   1.223
38658W        W11006  10.350  42.848   4.647
38659W        W11007   4.268  44.309   0.463
38660W        W11008  29.514  20.733   1.741
38661W        W11009   3.837  33.384   2.832
38662W        W11010   3.350  13.607  11.419
38663W        W11011  38.867   5.211  11.877
38664W        W11012  21.113  37.510   5.084
38665W        W11013  21.728   9.331   3.314
38666W        W11014  41.941  43.478  12.978
38667W        W11015  42.802  31.480   2.281
38668W        W11016  15.665   0.331  13.792
38669W        W11017  23.231   1.390   4.313
38670W        W11018  31.004  42.504   2.842
38671W        W11019  33.968  43.391   3.150
38672W        W11020  42.332   0.368  12.470
38673W        W11021  32.470   0.299   0.937
38674W        W11022  21.607  23.111   3.775
38675W        W11023  18.111  33.399   4.121
38676W        W11024  33.436  18.660  12.398
38677W        W11025   4.860  43.019   3.195
38678W        W11026  25.511   3.448  14.954
38679W        W11027  43.379  10.774  13.031
38680W        W11028  15.247  21.691   3.702
38681W        W11029   6.387  12.219  13.346
38682W        W11030  43.498   0.829   0.885
38683W        W11031  43.311  12.296   3.777
38684W        W11032  34.474  31.459   0.856
38685W        W11033   0.759  22.183   4.213
38686W        W11034  17.689  43.420   1.927
38687W        W11035   5.727   4.327  11.417
38688W        W11036   5.385  32.141  10.580
38689W        W11037  34.477  43.998  13.310
38690W        W11038  18.594  36.068  12.092
38691W        W11039  27.619  28.020   0.289
38692W        W11040  20.077  29.946   2.819
38693W        W11041  26.190  25.584   1.713
38694W        W11042  35.037  13.723  12.846
38695W        W11043  12.717  23.671   3.864
38696W        W11044   7.775   7.864  10.484
38697W        W11045  39.910  21.131  12.858
38698W        W11046  34.572  22.649   4.286
38699W        W11047  32.580   8.262   5.125
38700W        W11048   2.870  27.038  14.410
38701W        W11049  18.655  27.035  11.510
38702W        W11050  21.719   9.816  12.010
38703W        W11051  15.817  31.582   2.783
38704W        W11052   9.288  22.162   4.751
38705W        W11053   6.371  38.462  13.001
38706W        W11054  14.798   5.382  12.056
38707W        W11055  29.083  24.690   3.770
38708W        W11056   6.821  18.608   2.829
38709W        W11057  19.594  12.638  14.027
38710W        W11058  25.026  27.625  13.439
38711W        W11059   6.382  26.511  13.803
38712W        W11060  37.354  29.617  13.486
38713W        W11061  37.979  23.991  14.350
38714W        W11062  36.937  13.148  10.903
38715W        W11063  25.627   0.762   4.671
38716W        W11064   1.969   3.930   5.293
38717W        W11065  26.170  28.956   3.281
38718W        W11066  34.082  24.647  13.923
38719W        W11067  29.497  24.004   2.847
38720W        W11068   3.241  43.939   2.214
38721W        W11069  41.946  35.485  13.446
38722W        W11070  16.296  17.221  14.516
38723W        W11071  33.908  39.427   3.152
38724W        W11072  17.707  19.188   3.693
38725W        W11073   9.781  41.804  12.939
38726W        W11074   4.836  17.215  13.013
38727W        W11075  17.259  27.969   2.345
38728W        W11076  15.089  31.075  14.925
38729W        W11077  32.507   8.710  13.519
38730W        W11078  21.161  43.290  11.601
38731W        W11079  19.234  19.105   4.206
38732W        W11080  13.603  15.818   1.898
38733W        W11081  31.972  20.204   0.755
38734W        W11082   9.173  11.312   0.848
38735W        W11083  40.524  42.491   1.271
38736W        W11084  13.147   8.839   1.298
38737W        W11085  13.614  17.628   4.689
38738W        W11086   8.311  42.914   3.202
38739W        W11087  12.744  13.218   3.188
38740W        W11088  36.386   7.199  14.423
38741W        W11089  10.656   0.448   0.858
38742W        W11090  17.742  14.094   5.728
38743W        W11091  23.592   8.160   0.817
38744W        W11092  15.233  15.780  12.556
38745W        W11093  17.167  21.059   0.833
38746W        W11094  19.186  10.635  12.044
38747W        W11095  22.114  31.127   3.247
38748W        W11096  33.043  31.907  10.595
38749W        W11097  31.576  39.430   2.316
38750W        W11098   7.231  27.649   4.603
38751W        W11099  12.770   9.718   2.314
38752W        W11100  34.571  10.742   0.759
38753W        W11101  30.459  13.661   0.882
38754W        W11102  15.185  41.386   0.462
38755W        W11103  12.169   4.392   5.094
38756W        W11104  29.457  27.034  11.537
38757W        W11105   8.707  42.515   3.798
38758W        W11106  29.658  21.172  13.510
38759W        W11107  14.755  25.157   2.310
38760W        W11108  36.466  33.114   4.274
38761W        W11109  22.217  41.303  13.902
38762W        W11110   4.410  26.955  10.593
38763W        W11111  34.478  23.512   0.331
38764W        W11112  14.763  39.559   4.134
38765W        W11113  25.695  19.660   5.306
38766W        W11114  21.567  40.363  11.872
38767W        W11115   9.350  14.173   1.271
38768W        W11116   4.323  20.597   3.225
38769W        W11117  34.909  15.288   3.214
38770W        W11118   0.462  16.621  14.958
38771W        W11119  34.512  29.067  13.542
38772W        W11120  33.466  16.763  11.538
38773W        W11121  17.759  36.880  13.546
38774W        W11122  26.122  21.149  12.883
38775W        W11123  32.614  21.122  13.834
38776W        W11124  17.713   9.659  11.074
38777W        W11125   6.738  18.221  12.372
38778W        W11126  30.624  39.057   2.197
38779W        W11127   5.838   8.287  13.842
38780W        W11128  43.282  29.114  10.587
38781W        W11129  33.518  17.288  13.373
38782W        W11130  19.597  33.948   0.816
38783W        W11131  34.963  22.681  14.917
38784W        W11132  13.831   7.206   1.831
38785W        W11133  32.055   1.972   2.684
38786W        W11134  10.668  33.534   1.728
38787W        W11135  25.975  36.350  13.348
38788W        W11136  39.916  31.984   0.270
38789W        W11137   2.343  36.894   2.230
38790W        W11138  35.031  24.024  12.965
38791W        W11139  41.854  39.971   1.854
38792W        W11140  37.440  10.162   4.793
38793W        W11141  22.594  36.013   2.301
38794W        W11142  30.919  42.379  14.401
38795W        W11143  42.019  44.343  12.008
38796W        W11144  31.517  25.593  13.946
38797W        W11145  14.681  13.203  12.057
38798W        W11146  43.464  22.745  10.013
38799W        W11147  24.082  23.022   4.620
38800W        W11148  11.141  15.755  11.880
38801W        W11149   4.742  18.546  12.942
38802W        W11150  10.383  37.943   1.447
38803W        W11151   5.790  41.482  12.905
38804W        W11152  33.389   9.737  11.071
38805W        W11153   9.275  29.434  10.933
38806W        W11154   8.321  36.010  14.775
38807W        W11155   2.429   7.750   1.804
38808W        W11156  20.178  16.607  13.342
38809W        W11157  19.560  22.232   3.647
38810W        W11158  43.851  35.896  14.467
38811W        W11159  21.154  38.872   4.725
38812W        W11160  34.599   3.228  13.948
38813W        W11161  20.188  26.586   3.328
38814W        W11162   8.383  33.021   4.150
38815W        W11163  38.046  36.395  13.030
38816W        W11164  25.472  14.787   0.903
38817W        W11165  41.958  25.712  10.912
38818W        W11166   4.833  17.262  10.914
38819W        W11167  19.559  40.370  14.914
38820W        W11168  27.119  38.909  13.514
38821W        W11169  18.559  31.471  13.975
38822W        W11170  27.012  23.612   0.370
38823W        W11171  15.698  12.709   3.765
38824W        W11172   3.805  38.922  12.824
38825W        W11173  41.340  29.089  11.375
38826W        W11174  34.388  25.703   0.762
38827W        W11175   4.942   5.314  14.488
38828W        W11176  10.229  17.160   4.300
38829W        W11177  19.139  35.087  11.076
38830W        W11178   4.755  14.715   2.797
38831W        W11179  12.837  14.676   3.387
38832W        W11180   5.702  41.910  14.505
38833W        W11181  24.227  41.491  14.959
38834W        W11182  23.168   2.301   3.200
38835W        W11183  35.857  25.088   4.353
38836W        W11184  18.273  28.612  14.485
38837W        W11185  20.170   9.181   1.801
38838W        W11186  27.997  29.049  10.470
38839W        W11187  20.688  41.412  11.536
38840W        W11188  18.246   3.794  11.105
38841W        W11189  44.007  15.262  14.385
38842W        W11190  33.608  14.593   0.396
38843W        W11191   0.781  30.021   1.216
38844W        W11192  37.523  20.219  12.458
38845W        W11193  25.120  28.094   3.830
38846W        W11194  42.521   9.687   4.198
38847W        W11195  36.921  36.909   3.254
38848W        W11196  11.368  31.407   0.481
38849W        W11197  37.870   5.437  14.839
38850W        W11198  42.314  40.362  13.048
38851W        W11199  13.276   1.911   2.806
38852W        W11200   7.314  39.415  11.549
38853W        W11201   4.905  35.907  14.939
38854W        W11202  39.975  12.284  12.397
38855W        W11203  24.066  26.623  10.473
38856W        W11204  13.123  30.948  13.811
38857W        W11205  43.354  19.698  10.590
38858W        W11206  42.911  25.653  11.976
38859W        W11207   4.741   0.905   1.279
38860W        W11208  25.573   0.934  13.049
38861W        W11209  17.594  32.014   2.793
38862W        W11210  35.583   3.302   3.252
38863W        W11211  24.562  41.346   2.851
38864W        W11212  27.459  25.052  14.290
38865W        W11213  29.583  11.753   2.844
38866W        W11214   9.871  20.200   9.960
38867W        W11215  39.817  22.692  12.941
38868W        W11216  44.297  24.156   0.368
38869W        W11217  18.137  11.719  13.873
38870W        W11218  17.230  42.295   1.889
38871W        W11219  31.588   7.847  10.035
38872W        W11220  23.505  24.195  14.974
38873W        W11221  37.538  20.072  13.053
38874W        W11222   8.666  19.152   2.409
38875W        W11223  36.955  16.262   1.393
38876W        W11224  32.998  26.991   3.868
38877W        W11225   4.783  24.101  10.909
38878W        W11226  23.618  35.981   2.867
38879W        W11227  28.981   7.812   3.262
38880W        W11228   8.659  19.586   5.596
38881W        W11229  25.989  44.278   4.188
38882W        W11230   5.703  21.145  12.924
38883W        W11231  26.066  44.330  13.011
38884W        W11232  11.748  36.385   3.647
38885W        W11233  32.070   8.693  13.899
38886W        W11234  37.891  29.154   2.805
38887W        W11235  37.460  31.447   3.737
38888W        W11236   5.224   5.309  12.006
38889W        W11237  29.012   7.300  14.856
38890W        W11238  15.596  33.554  12.353
38891W        W11239  39.972  41.935  12.903
38892W        W11240  12.776  44.263  12.551
38893W        W11241   3.741  36.356  11.486
38894W        W11242  41.513  39.845  12.901
38895W        W11243   2.868  35.877  12.393
38896W        W11244  41.902  39.500   3.824
38897W        W11245  37.059  16.121   3.692
38898W        W11246  39.042   8.755  10.587
38899W        W11247  34.476  20.269   2.774
38900W        W11248  11.693  28.062   1.837
38901W        W11249   9.359  22.039  10.962
38902W        W11250  16.629  28.542  13.321
38903W        W11251  16.304  28.156  11.496
38904W        W11252  42.977   1.877   4.838
38905W        W11253  24.036  40.032   4.830
38906W        W11254  20.052  18.125  14.900
38907W        W11255  42.026  30.652   3.340
38908W        W11256  29.135  32.390  11.868
38909W        W11257  22.598  20.210  13.849
38910W        W11258   2.345  12.699   4.351
38911W        W11259   2.331  15.166   4.747
38912W        W11260  33.410   7.289  11.867
38913W        W11261  42.834  10.186   4.224
38914W        W11262   9.330  34.500  11.375
38915W        W11263  23.606  19.554   0.304
38916W        W11264   1.806   3.332  11.505
38917W        W11265  16.245  35.558   1.301
38918W        W11266  20.269  21.128   4.229
38919W        W11267  23.066  17.648   0.822
38920W        W11268  23.542  22.185   2.889
38921W        W11269  38.369  11.838  14.989
38922W        W11270  16.182  42.928   0.929
38923W        W11271  38.989  22.691   4.751
38924W        W11272  12.335  21.076   3.736
38925W        W11273  27.170   5.866  13.413
38926W        W11274  39.871   3.770   0.740
38927W        W11275  34.991  21.616   2.699
38928W        W11276  22.195  43.866  13.475
38929W        W11277  39.394   1.439  10.487
38930W        W11278  27.474  15.799  10.418
38931W        W11279  42.913  26.581   0.821
38932W        W11280  13.700  39.973   0.866
38933W        W11281  28.628  13.630  12.988
38934W        W11282  29.057  39.502  12.344
38935W        W11283  13.233   5.745   5.133
38936W        W11284  44.999  33.589   9.926
38937W        W11285  33.500  43.420  10.988
38938W        W11286  14.678  42.305   2.807
38939W        W11287  16.259  37.378  13.323
38940W        W11288  11.217  26.635  12.434
38941W        W11289  32.018   8.362   1.267
38942W        W11290  31.440  41.011   0.394
38943W        W11291  17.278  27.974  14.463
38944W        W11292  43.900  16.177   1.293
38945W        W11293   7.211  16.689   2.380
38946W        W11294   0.890  20.188  12.945
38947W        W11295  35.941  33.575   1.739
38948W        W11296  16.762  39.551   3.278
38949W        W11297  16.157  22.089   4.822
38950W        W11298  35.466  38.363   2.347
38951W        W11299  17.679  17.297  13.908
38952W        W11300  30.066  13.147  12.946
38953W        W11301   8.212  36.977  11.881
38954W        W11302  36.418  44.399  10.032
38955W        W11303  24.077  20.600  10.582
38956W        W11304   8.764   3.402  12.406
38957W        W11305  26.580   7.393  11.104
38958W        W11306  25.014  18.105  14.437
38959W        W11307  19.588  29.537   1.310
38960W        W11308  29.601  38.538   2.286
38961W        W11309  39.878   7.174   4.351
38962W        W11310  31.083  31.153  11.396
38963W        W11311  20.744   3.865   1.815
38964W        W11312  14.250   2.727   0.269
38965W        W11313  26.484  23.134  10.924
38966W        W11314  36.964  32.142   3.251
38967W        W11315  22.618   7.379   1.315
38968W        W11316  35.453  17.595  12.568
38969W        W11317  44.464  27.532   5.108
38970W        W11318  42.801   6.301  12.061
38971W        W11319  43.849  21.757  12.462
38972W        W11320   2.454  27.965  11.549
38973W        W11321  44.283  20.220  14.318
38974W        W11322  24.991   8.840   3.861
38975W        W11323  26.953  32.108  10.921
38976W        W11324   3.423  12.664  11.917
38977W        W11325  15.670   3.240  13.414
38978W        W11326  24.502   4.746  12.510
38979W        W11327  11.704   4.862  10.930
38980W        W11328  31.435   2.809   4.138
38981W        W11329  41.832  17.683   3.354
38982W        W11330  32.890  26.152  14.304
38983W        W11331  11.707  25.654   1.313
38984W        W11332  16.258  39.526   1.269
38985W        W11333  25.649  13.250  11.062
38986W        W11334  35.065   1.907  10.476
38987W        W11335   8.331  11.365  11.605
38988W        W11336  20.179  39.463  12.920
38989W        W11337  43.989   0.424  11.585
38990W        W11338  29.042  37.965  12.498
38991W        W11339  10.249  10.874   0.403
38992W        W11340   0.969  29.080  14.297
38993W        W11341  43.278   2.730  12.502
38994W        W11342   5.246  36.447   0.876
38995W        W11343  28.030  29.463   2.805
38996W        W11344  29.650  20.207   3.813
38997W        W11345   0.328  23.191  10.927
38998W        W11346  40.370  21.022   2.295
38999W        W11347  14.158   2.843   3.691
39000W        W11348  26.186  20.188  11.508
39001W        W11349  21.613  37.442  13.970
39002W        W11350  26.101  30.917  11.535
39003W        W11351  37.367  42.397   1.309
39004W        W11352  21.681  18.283  13.968
39005W        W11353  38.890  26.174  13.844
39006W        W11354  14.627   2.249  13.546
39007W        W11355   1.449  22.091   2.680
39008W        W11356  34.026  19.763   0.816
39009W        W11357  19.672  26.581  14.824
39010W        W11358  31.132  20.536   4.303
39011W        W11359  14.276  24.991   1.719
39012W        W11360  18.092  27.040  14.796
39013W        W11361  26.125  35.446  14.359
39014W        W11362  32.955  32.073  12.009
39015W        W11363  41.962  24.139   1.719
39016W        W11364  38.849  41.875   4.343
39017W        W11365  23.214   9.203   4.716
39018W        W11366  42.518   0.821   0.285
39019W        W11367  25.581  25.545   1.742
39020W        W11368  36.573  10.788   2.700
39021W        W11369  26.955  40.822  12.025
39022W        W11370  31.467  39.000  12.042
39023W        W11371  31.945  34.000  14.495
39024W        W11372  31.133   7.376   3.733
39025W        W11373   7.278  11.196   3.755
39026W        W11374  12.239  33.913   0.901
39027W        W11375  12.359  38.965  14.417
39028W        W11376  29.619  35.550   0.339
39029W        W11377  19.095  23.631   4.265
39030W        W11378  20.197   1.428  11.937
39031W        W11379  30.921  41.372   9.950
39032W        W11380   9.363  38.411   3.311
39033W        W11381  34.913  12.658   1.210
39034W        W11382  15.103  36.019  12.888
39035W        W11383  10.765  32.927  14.345
39036W        W11384  30.951   9.829   0.415
39037W        W11385  10.174  29.518  11.071
39038W        W11386  42.327  26.679  11.458
39039W        W11387  35.496  36.400   1.865
39040W        W11388  12.852  20.704  14.969
39041W        W11389  17.117  24.622  14.358
39042W        W11390   2.337  21.049   3.206
39043W        W11391   0.867  31.001  11.956
39044W        W11392  22.669  31.953  14.820
39045W        W11393  31.929  16.776   1.766
39046W        W11394   4.345  25.528  10.474
39047W        W11395  29.079   6.921  12.418
39048W        W11396  12.240  12.687   3.820
39049W        W11397  17.188   3.384   1.907
39050W        W11398  34.549   1.944  14.851
39051W        W11399   5.915   4.841  12.389
39052W        W11400  22.542  11.713   2.815
39053W        W11401  11.332  41.414   2.255
39054W        W11402  15.647  44.433  14.013
39055W        W11403  14.718  22.250   4.668
39056W        W11404  16.087   6.323   1.402
39057W        W11405  10.719   1.378  13.352
39058W        W11406  26.133   9.654   3.222
39059W        W11407  43.936  13.195   1.706
39060W        W11408  44.445  30.995  12.440
39061W        W11409  22.619  44.464   1.226
39062W        W11410  11.213  24.121  11.910
39063W        W11411  10.159  36.886   2.838
39064W        W11412  12.169  17.254   1.925
39065W        W11413  25.651  33.425  13.539
39066W        W11414  38.397  15.751  12.900
39067W        W11415  34.863   2.325  10.558
39068W        W11416  35.358  17.704  10.480
39069W        W11417   3.360  38.866  11.892
39070W        W11418  39.435  22.659   1.383
39071W        W11419  25.149  16.197  11.076
39072W        W11420  13.782  15.158  13.356
39073W        W11421  16.269  29.141   2.877
39074W        W11422  28.603  38.911   1.260
39075W        W11423  12.639   3.728   3.334
39076W        W11424   7.247  34.888   1.330
39077W        W11425  10.679   1.460   1.724
39078W        W11426  28.043  10.714  13.823
39079W        W11427  19.662  20.677   0.358
39080W        W11428  19.698  17.569  14.909
39081W        W11429  39.063   2.427  13.365
39082W        W11430  20.707   7.290  12.368
39083W        W11431  43.998  26.575  12.514
39084W        W11432  23.498   8.331   1.228
39085W        W11433  24.583  43.338  12.897
39086W        W11434  38.003  34.404   1.280
39087W        W11435  25.471  20.538   0.925
39088W        W11436   9.878  22.544   0.366
39089W        W11437  11.275  35.601   4.606
39090W        W11438  10.313   0.289  10.553
39091W        W11439  10.248   6.878  12.019
39092W        W11440  19.184   0.484  13.425
39093W        W11441  33.020  10.717   0.806
39094W        W11442   7.801   0.879  10.527
39095W        W11443   1.878  43.511  14.984
39096W        W11444  37.439  11.671   4.327
39097W        W11445  13.650   8.355  13.344
39098W        W11446  18.129  42.809  14.501
39099W        W11447  23.561  32.626   0.405
39100W        W11448   4.249  39.854   4.667
39101W        W11449  11.715  12.198  13.310
39102W        W11450  11.634  22.578  10.134
39103W        W11451  14.721  32.026  11.949
39104W        W11452   4.897  14.279  11.124
39105W        W11453  22.729  38.015   2.885
39106W        W11454  14.262   7.689   0.733
39107W        W11455  14.811  24.995   0.284
39108W        W11456  13.753   4.305   0.359
39109W        W11457   5.698  20.119  11.596
39110W        W11458   2.769  11.676  10.430
39111W        W11459  29.624  27.095  12.999
39112W        W11460  36.420  22.126   1.909
39113W        W11461  43.916  26.047   2.352
39114W        W11462  36.384  40.941   0.295
39115W        W11463  20.249  22.616   1.387
39116W        W11464  13.628  33.002   0.299
39117W        W11465  38.896  34.608  12.941
39118W        W11466  36.513  23.110   2.667
39119W        W11467  17.787  25.043   3.291
39120W        W11468  15.182  26.656   1.715
39121W        W11469   8.791  42.031   1.237
39122W        W11470  40.384   1.756  11.118
39123W        W11471  18.182   0.755  10.887
39124W        W11472  20.126  32.022  11.485
39125W        W11473   7.288  16.755   1.422
39126W        W11474  35.868  12.824   2.694
39127W        W11475  23.124  16.724   2.885
39128W        W11476  23.165  38.068  13.870
39129W        W11477  21.200  11.127   4.805
39130W        W11478  19.123  28.080   4.287
39131W        W11479  35.919   3.404  11.430
39132W        W11480   4.388  43.905  14.873
39133W        W11481  10.141  43.931  12.507
39134W        W11482   8.821  34.109  12.446
39135W        W11483  30.610  40.885  13.049
39136W        W11484  42.444   0.852   0.829
39137W        W11485  43.824  38.450   1.252
39138W        W11486  25.625  38.038   0.887
39139W        W11487   1.376  24.214  10.543
39140W        W11488  41.846  25.138  11.422
39141W        W11489  31.600  17.278   4.620
39142W        W11490   9.181  16.116  10.546
39143W        W11491  33.510  32.116   5.275
39144W        W11492  19.649   2.740  14.000
39145W        W11493  38.843  27.641  12.006
39146W        W11494  26.183  18.218   1.921
39147W        W11495  14.770  36.038  12.840
39148W        W11496   4.798  22.244   4.686
39149W        W11497  11.217  30.603   4.141
39150W        W11498  30.464   9.788   2.328
39151W        W11499   8.772  41.862  12.060
39152W        W11500   4.406  25.642   0.411
39153W        W11501  11.778  36.052   0.374
39154W        W11502  11.854   0.901  14.972
39155W        W11503  25.054  20.758   4.735
39156W        W11504   6.759   1.907  10.568
39157W        W11505  24.080  18.725  14.894
39158W        W11506  14.118   9.691   3.869
39159W        W11507  41.323   3.251   0.444
39160W        W11508  10.255  40.011  10.929
39161W        W11509  33.481   0.759  11.015
39162W        W11510   7.285  13.180  13.415
39163W        W11511   5.904  38.475   1.835
39164W        W11512  18.085  29.120  10.892
39165W        W11513  31.515  28.565   4.742
39166W        W11514  10.210  34.871  14.880
39167W        W11515  27.177  10.147  13.988
39168W        W11516  36.050  35.038   2.397
39169W        W11517  34.923   1.293   2.391
39170W        W11518  32.419  27.179  13.457
39171W        W11519  29.136  27.630   0.774
39172W        W11520   3.238  14.322  14.291
39173W        W11521  24.973  21.748   2.192
39174W        W11522  15.651  34.544   4.630
39175W        W11523  36.559  12.776   4.117
39176W        W11524  37.983  43.493  11.533
39177W        W11525  32.565  36.453  13.812
39178W        W11526  18.182  34.443   4.743
39179W        W11527   5.374   1.824  12.911
39180W        W11528  35.474   3.440  12.867
39181W        W11529  38.507  34.580   1.439
39182W        W11530  30.995  15.775  11.914
39183W        W11531  41.972  14.304   3.745
39184W        W11532   9.377  41.988   4.706
39185W        W11533  19.215   4.744  12.963
39186W        W11534  10.263  13.704   1.389
39187W        W11535  21.625   8.395   1.796
39188W        W11536  20.270   3.292  13.451
39189W        W11537  31.408   9.301  14.869
39190W        W11538  37.991   6.283  11.445
39191W        W11539  15.283   9.681  12.464
39192W        W11540   2.777  14.127  13.986
39193W        W11541  24.125  42.952   3.172
39194W        W11542  15.140  40.503   4.697
39195W        W11543   7.356  22.679  14.439
39196W        W11544  11.802   2.747   1.744
39197W        W11545  11.324  38.540   1.924
39198W        W11546  24.096  44.498  10.958
39199W        W11547  42.838  33.397   1.388
39200W        W11548  24.124  31.438  11.040
39201W        W11549  35.599   6.244  14.879
39202W        W11550  25.079  12.702   0.756
39203W        W11551  17.636  33.041   0.805
39204W        W11552  25.541  39.944  10.431
39205W        W11553  25.965  28.441  11.610
39206W        W11554  36.469  23.707   1.748
39207W        W11555  18.164  40.889   3.762
39208W        W11556  43.397  35.909  13.915
39209W        W11557  14.763  25.689   4.234
39210W        W11558   6.288  12.354   2.349
39211W        W11559   8.174  26.172   2.838
39212W        W11560  38.522   4.829   0.366
39213W        W11561   3.331   8.880   3.696
39214W        W11562  11.154  40.389   2.813
39215W        W11563  24.010  22.578  10.894
39216W        W11564  27.610  28.142  12.016
39217W        W11565  23.625   1.860   2.390
39218W        W11566  27.667  36.093   3.348
39219W        W11567  10.635  18.736  11.579
39220W        W11568  43.889  18.109   0.403
39221W        W11569  19.265   5.395   0.470
39222W        W11570  10.364  15.658  12.949
39223W        W11571  12.663   5.712   5.655
39224W        W11572  15.816  11.305  13.025
39225W        W11573  13.682  20.076   4.799
39226W        W11574   1.732  22.555  14.509
39227W        W11575   0.257  44.370  10.942
39228W        W11576  18.291  23.003   3.730
39229W        W11577  36.935  16.223   2.299
39230W        W11578   2.958  35.403  13.999
39231W        W11579  43.867   5.265  10.920
39232W        W11580  40.912   2.801  12.456
39233W        W11581  22.246  12.623   0.735
39234W        W11582  20.243  34.892  11.466
39235W        W11583  20.764  22.698   4.766
39236W        W11584  34.895  19.534  10.108
39237W        W11585  13.268  12.699  10.981
39238W        W11586  39.824  39.047   0.812
39239W        W11587  31.039  12.317  12.067
39240W        W11588  18.180  30.102   3.371
39241W        W11589   7.671  15.306   3.782
39242W        W11590  44.320  28.651   2.843
39243W        W11591  27.037  37.930   0.771
39244W        W11592  19.258  38.857   0.452
39245W        W11593  11.659  28.100   3.281
39246W        W11594  22.704   9.698   3.813
39247W        W11595  37.441  40.442   0.307
39248W        W11596  30.584  41.311   2.354
39249W        W11597  12.718  24.000  13.372
39250W        W11598  21.595   7.702   0.309
39251W        W11599  18.097  28.998   2.858
39252W        W11600  44.480   3.943  12.894
39253W        W11601  16.630  19.555  13.979
39254W        W11602  13.350  38.337   4.202
39255W        W11603  19.707  37.847  10.900
39256W        W11604  17.152  28.051   3.218
39257W        W11605  12.723  30.137  10.545
39258W        W11606   4.715  41.431  14.464
39259W        W11607  30.499  29.087   2.851
39260W        W11608  18.128  26.042  14.908
39261W        W11609  11.218  26.494   2.290
39262W        W11610  30.992  24.213   3.737
39263W        W11611  12.319  27.987  14.765
39264W        W11612  28.004  16.589  11.863
39265W        W11613   9.246   8.799   2.739
39266W        W11614  20.541  25.565   2.755
39267W        W11615   9.796  39.437  10.467
39268W        W11616  36.432  28.141  12.969
39269W        W11617   5.327  29.002  10.531
39270W        W11618  37.579  37.506   4.348
39271W        W11619  26.117  38.075   1.401
39272W        W11620  24.129  26.655   0.256
39273W        W11621  33.427  11.685  12.077
39274W        W11622  42.961  32.017  13.000
39275W        W11623  35.022   2.789   0.964
39276W        W11624  40.334  17.625  12.516
39277W        W11625  23.222   0.796   0.330
39278W        W11626   2.848   5.915   0.406
39279W        W11627  31.049  37.886  11.087
39280W        W11628  28.453   2.262   1.902
39281W        W11629  41.027  25.187   0.280
39282W        W11630  34.547  26.134  12.005
39283W        W11631  31.578  31.899   1.332
39284W        W11632  20.102  11.864  10.537
39285W        W11633  22.117   8.758   4.297
39286W        W11634  17.068  44.301   3.650
39287W        W11635  34.930  32.534  11.460
39288W        W11636  18.226  18.723   1.795
39289W        W11637   5.914  42.435   3.747
39290W        W11638   2.386   5.717  14.973
39291W        W11639  27.135  24.584  14.384
39292W        W11640  27.963  38.054   1.226
39293W        W11641  41.801  38.941   1.233
39294W        W11642  27.187   6.381   2.274
39295W        W11643  26.652  14.670   4.837
39296W        W11644  44.891  42.451   2.384
39297W        W11645  34.418  17.624  10.508
39298W        W11646  15.196  23.514  10.635
39299W        W11647  22.655  22.529   4.336
39300W        W11648  32.025  22.141  13.931
39301W        W11649  28.033  35.510  10.589
39302W        W11650  34.603  27.107  12.086
39303W        W11651  32.473   2.747  13.863
39304W        W11652  38.437  21.564   3.775
39305W        W11653  14.160  40.040   1.854
39306W        W11654  15.271  12.768   2.770
39307W        W11655  15.674  11.165   9.500
39308W        W11656  18.243  19.707  10.432
39309W        W11657  16.746  37.002  12.974
39310W        W11658  23.112  24.530  11.395
39311W        W11659   5.212  24.612   0.836
39312W        W11660  17.623  15.211  13.953
39313W        W11661  14.125   3.818   2.366
39314W        W11662   5.414  33.480  14.399
39315W        W11663  24.073  16.698  14.412
39316W        W11664  12.800   1.914  14.936
39317W        W11665   2.337  30.595  10.439
39318W        W11666   5.211  15.717  12.902
39319W        W11667  36.856  29.479  14.422
39320W        W11668  14.673  27.962  14.032
39321W        W11669  44.827  17.575   4.331
39322W        W11670  34.058  11.754  15.000
39323W        W11671  22.746   8.693  11.899
39324W        W11672  20.569   5.411  14.913
39325W        W11673  22.692   2.763   1.442
39326W        W11674  36.389  30.911  11.013
39327W        W11675  36.045  29.612  13.325
39328W        W11676  30.472  41.452  10.444
39329W        W11677  25.533  44.283   3.843
39330W        W11678  36.861  28.493  12.955
39331W        W11679  14.227   9.183  12.492
39332W        W11680  18.668  41.798  14.390
39333W        W11681  33.895  23.699   1.914
39334W        W11682  16.161  43.346   0.747
39335W        W11683  34.082  23.191  12.488
39336W        W11684  40.466  37.069  13.325
39337W        W11685  36.440  30.611  12.829
39338W        W11686   4.941  24.634  12.839
39339W        W11687  10.185  12.258   2.744
39340W        W11688  22.149  35.017  11.096
39341W        W11689  35.927  42.312  13.468
39342W        W11690   4.769  35.857  10.533
39343W        W11691   5.323  40.372  13.333
39344W        W11692   0.256  42.871   0.794
39345W        W11693   1.792  43.912  13.915
39346W        W11694  26.125  43.816   2.239
39347W        W11695  17.116  40.501   0.412
39348W        W11696  24.016  38.940   0.883
39349W        W11697   5.236  20.532   4.665
39350W        W11698  41.787  36.989  10.961
39351W        W11699  15.303  29.021   3.830
39352W        W11700   3.266  32.539   2.256
39353W        W11701  14.313   5.767  11.515
39354W        W11702  41.794  34.447  14.774
39355W        W11703  36.937  24.144   2.710
39356W        W11704  32.096  42.915   5.263
39357W        W11705  21.100  21.587  12.362
39358W        W11706   5.223  20.077   3.707
39359W        W11707  37.366  42.463   4.342
39360W        W11708  19.207  32.987  14.913
39361W        W11709   1.339  32.103   1.362
39362W        W11710  40.438  12.328   3.343
39363W        W11711  28.486   2.300  11.489
39364W        W11712  37.932   8.726   4.634
39365W        W11713  17.754  44.286   0.342
39366W        W11714  42.969  26.079  12.492
39367W        W11715   4.930   3.831  11.918
39368W        W11716  39.348  23.656   4.795
39369W        W11717   0.849  14.141   3.367
39370W        W11718   2.822  14.319   0.887
39371W        W11719  13.131   1.818  12.052
39372W        W11720   2.316  11.256  11.415
39373W        W11721  36.962  33.002  12.929
39374W        W11722  13.216  42.381   4.176
39375W        W11723  16.154  42.502   4.114
39376W        W11724  37.387  24.617   2.267
39377W        W11725  36.027  42.412   4.605
39378W        W11726  37.486  39.838   1.244
39379W        W11727  17.612  28.542   3.787
39380W        W11728  43.328  23.060  14.932
39381W        W11729  32.576  38.417   3.226
39382W        W11730  32.538   2.950  11.398
39383W        W11731   8.754  23.054  14.364
39384W        W11732  28.132  19.713   0.773
39385W        W11733  22.548  37.494   1.314
39386W        W11734  15.254  17.182   2.865
39387W        W11735  20.149  39.827   0.774
39388W        W11736  42.788  34.599   0.463
39389W        W11737  17.076  14.225  14.332
39390W        W11738  18.762  35.009   2.743
39391W        W11739  11.279  40.477  14.883
39392W        W11740  27.944  39.049   2.413
39393W        W11741  21.654  27.560  11.473
39394W        W11742  27.112   6.272   2.900
39395W        W11743  24.058  35.958   3.375
39396W        W11744  42.498  19.770   0.823
39397W        W11745  42.800  32.928   4.143
39398W        W11746   8.860  32.993  13.477
39399W        W11747   1.812  15.769   1.370
39400W        W11748  14.724   0.265  14.393
39401W        W11749  10.709  15.714  11.098
39402W        W11750  23.518  38.926  11.911
39403W        W11751  19.158   5.915  14.464
39404W        W11752  16.660   6.858  13.325
39405W        W11753   3.940  19.534   4.210
39406W        W11754  15.152   5.204   1.862
39407W        W11755  28.554  26.581   1.747
39408W        W11756  23.191  40.024  10.621
39409W        W11757  16.779   2.405   3.697
39410W        W11758  41.302   7.868  11.966
39411W        W11759  14.242  35.109  14.906
39412W        W11760  21.544  10.164  13.916
39413W        W11761   7.894  11.761  12.874
39414W        W11762  34.918   3.783   3.638
39415W        W11763   3.774  27.141   1.405
39416W        W11764  18.641  19.740  12.434
39417W        W11765  16.614  38.543   2.381
39418W        W11766  40.505   5.736  12.456
39419W        W11767  26.460  21.643  14.465
39420W        W11768   6.714   1.371   2.415
39421W        W11769   2.346  12.634   2.197
39422W        W11770   0.906  18.633   1.431
39423W        W11771   2.303  37.482   5.155
39424W        W11772   7.750  31.472   1.352
39425W        W11773  36.513  24.646   0.836
39426W        W11774  32.592   7.313   0.877
39427W        W11775  44.868  44.004   3.184
39428W        W11776  26.003  29.964   0.463
39429W        W11777  23.215   9.865   3.665
39430W        W11778   6.242  44.900  11.373
39431W        W11779  33.557  41.420   0.889
39432W        W11780  40.468   8.817  11.423
39433W        W11781  41.505  34.527   2.360
39434W        W11782  43.917  16.174   1.820
39435W        W11783  11.247  21.115   5.088
39436W        W11784  35.512   6.383   4.320
39437W        W11785  26.987   3.435   2.741
39438W        W11786  20.769  24.565  10.975
39439W        W11787  39.958  21.719  11.538
39440W        W11788  42.286  17.555   2.731
39441W        W11789   4.742  43.303   1.925
39442W        W11790  42.906  28.604   3.816
39443W        W11791  28.532   3.340   1.417
39444W        W11792   3.216  43.490  10.991
39445W        W11793  32.570  40.333  10.916
39446W        W11794   1.272   9.330   4.219
39447W        W11795  36.892  36.847  13.037
39448W        W11796  25.589  40.895  13.834
39449W        W11797  28.506  43.897   3.168
39450W        W11798  23.676  34.480   4.733
39451W        W11799   5.772  37.412  11.102
39452W        W11800  31.474  36.347  14.334
39453W        W11801   2.893  27.571   3.202
39454W        W11802  21.081  28.478  13.904
39455W        W11803  22.068  32.439  11.395
39456W        W11804   4.785   8.364   2.392
39457W        W11805   3.312  41.443   4.786
39458W        W11806  26.472   5.261  11.050
39459W        W11807  39.036  28.635  11.904
39460W        W11808   2.787  23.156   4.792
39461W        W11809  20.685  44.314  13.994
39462W        W11810  42.295  12.154   3.771
39463W        W11811  41.837  12.787  10.993
39464W        W11812  42.929   8.751  12.492
39465W        W11813  40.419  25.088  13.470
39466W        W11814  21.230  21.593   3.795
39467W        W11815  25.505  29.014  12.828
39468W        W11816  17.176  29.975  13.875
39469W        W11817   8.369  13.792   2.727
39470W        W11818  21.517   1.476   4.299
39471W        W11819  44.807  19.248   4.304
39472W        W11820   5.382   1.443   3.360
39473W        W11821   1.933  38.490  14.452
39474W        W11822  29.647  32.117  10.543
39475W        W11823  40.979  35.998  10.494
39476W        W11824   5.225  16.206  10.546
39477W        W11825  17.307  19.047   2.182
39478W        W11826  31.927  23.168   2.353
39479W        W11827  43.414  35.075   3.729
39480W        W11828  30.045   6.795  13.058
39481W        W11829  35.097  35.518   2.727
39482W        W11830  43.397  43.914   4.230
39483W        W11831  20.663  20.093   2.216
39484W        W11832  16.658  28.051   3.667
39485W        W11833   3.355  24.608  10.445
39486W        W11834   9.876  34.933   1.806
39487W        W11835  16.078  27.063   2.343
39488W        W11836  37.570   5.418   1.877
39489W        W11837   5.370  23.660  10.982
39490W        W11838  35.588  26.123   4.653
39491W        W11839  42.870  18.223   1.436
39492W        W11840  25.606   4.376  12.010
39493W        W11841  12.781  37.402   0.355
39494W        W11842   8.197  29.151   4.701
39495W        W11843  28.018  33.882   4.656
39496W        W11844  32.510   0.790  14.890
39497W        W11845  36.592  40.979   1.742
39498W        W11846  30.145   9.773   1.694
39499W        W11847  27.445  16.317   3.735
39500W        W11848  41.855  18.075   1.228
39501W        W11849  38.329  22.569  11.081
39502W        W11850   2.378  43.985   0.449
39503W        W11851  13.771  11.632  11.919
39504W        W11852  32.071  19.663  13.324
39505W        W11853  23.537  34.611   1.329
39506W        W11854  40.472  34.380   4.195
39507W        W11855  13.764   0.903  13.968
39508W        W11856  15.250  17.072  12.855
39509W        W11857  33.082  27.992   2.697
39510W        W11858  35.966  19.171  14.473
39511W        W11859  12.324  40.396   4.326
39512W        W11860  36.546  16.757  14.382
39513W        W11861  40.986   9.285  14.412
39514W        W11862  33.107  14.622  11.020
39515W        W11863  29.983   0.390   1.402
39516W        W11864  43.312  24.488   0.956
39517W        W11865   4.884  38.417   4.612
39518W        W11866   8.377  37.511  12.923
39519W        W11867  38.327  15.315  12.419
39520W        W11868   0.477  27.502   4.663
39521W        W11869   3.763  32.627  14.294
39522W        W11870  19.708   4.804  11.057
39523W        W11871  33.433  40.399   0.735
39524W        W11872   4.318   4.418  12.054
39525W        W11873   2.944  41.885  11.384
39526W        W11874  18.608  30.153   1.891
39527W        W11875   8.703  17.270   1.249
39528W        W11876  36.965  42.393  14.361
39529W        W11877   2.289  42.392  13.330
39530W        W11878  18.066  36.380   1.323
39531W        W11879  32.047  20.639  12.082
39532W        W11880  29.434  30.562  12.954
39533W        W11881  41.985   2.781  10.615
39534W        W11882  22.730  37.465  12.028
39535W        W11883  20.531  23.733   0.918
39536W        W11884  24.622   2.888   4.304
39537W        W11885  33.077  23.537  10.424
39538W        W11886  44.927  31.466  13.399
39539W        W11887   2.902   9.658   2.303
39540W        W11888  17.156   6.782   4.299
39541W        W11889  33.394  34.087  11.372
39542W        W11890   1.858  30.088  11.080
39543W        W11891   3.921  12.705  12.007
39544W        W11892  36.362  27.083  11.395
39545W        W11893  24.567  34.586  13.851
39546W        W11894  44.982  10.865  11.598
39547W        W11895   8.336  11.802   0.309
39548W        W11896  13.749  31.047  12.501
39549W        W11897   9.296   5.698  12.912
39550W        W11898   7.265   1.435   3.379
39551W        W11899  36.941   4.722   1.751
39552W        W11900  28.612  19.686   3.229
39553W        W11901  35.381  37.538   2.698
39554W        W11902   3.935  40.308  10.501
39555W        W11903  36.859  18.641   4.643
39556W        W11904  31.970   9.653  11.946
39557W        W11905  15.620  23.653   1.806
39558W        W11906  44.495  43.375   3.799
39559W        W11907  18.634  29.529  12.987
39560W        W11908  40.935   8.718  14.002
39561W        W11909  15.820  16.188   1.899
39562W        W11910  21.667   0.842   4.286
39563W        W11911  23.596  35.421  14.305
39564W        W11912  43.882  29.073  12.837
39565W        W11913   1.278  19.200   1.452
39566W        W11914   8.775  27.613  12.369
39567W        W11915   9.288  32.094   3.738
39568W        W11916   9.820  32.532   1.724
39569W        W11917  38.048  36.351   3.219
39570W        W11918  36.890  24.718   2.875
39571W        W11919  38.830  22.006  10.001
39572W        W11920  15.701   7.255  10.430
39573W        W11921   9.288  20.621   0.424
39574W        W11922   1.314  25.197   3.158
39575W        W11923  33.527  41.298  12.897
39576W        W11924   4.379  44.344  10.480
39577W        W11925  26.146  42.291  12.408
39578W        W11926  21.691  21.156   0.747
39579W        W11927  28.983   1.903   3.707
39580W        W11928  16.723  15.657  12.398
39581W        W11929  13.725  37.369   0.473
39582W        W11930   3.744  24.994   5.186
39583W        W11931  12.837  42.435   0.934
39584W        W11932  27.987  11.271   2.854
39585W        W11933   0.754  42.894  11.041
39586W        W11934  28.463  15.698   4.161
39587W        W11935   5.932  38.533   4.171
39588W        W11936  31.532  10.713  12.483
39589W        W11937  13.792  31.001   3.685
39590W        W11938  35.989  12.269   0.448
39591W        W11939  17.256  12.747  12.487
39592W        W11940  36.529  24.485   4.244
39593W        W11941   2.849  30.587   4.325
39594W        W11942  19.689  26.052   3.165
39595W        W11943   0.431  17.227   4.806
39596W        W11944  37.501  18.067   1.371
39597W        W11945  18.668  34.426   9.989
39598W        W11946  11.692   6.688   2.375
39599W        W11947  44.890  35.416   2.343
39600W        W11948  16.105   8.378  14.838
39601W        W11949  38.457  13.701   3.276
39602W        W11950  19.599  20.530  11.532
39603W        W11951  29.167  26.549  11.117
39604W        W11952   3.873   8.654  13.410
39605W        W11953  21.241  43.816   2.779
39606W        W11954   9.870  20.528   2.357
39607W        W11955  13.667  12.251  14.866
39608W        W11956   9.875  15.612   4.324
39609W        W11957  39.008  39.938   0.737
39610W        W11958  26.479  10.303   1.384
39611W        W11959  42.333  21.558  14.294
39612W        W11960   9.350  18.775  13.940
39613W        W11961  19.753  44.886  13.913
39614W        W11962   5.818  33.386   3.209
39615W        W11963  42.971  31.928   1.786
39616W        W11964  27.014  26.523  14.906
39617W        W11965  34.422  35.869  12.449
39618W        W11966  30.928   5.380  11.978
39619W        W11967   7.737  11.175   2.766
39620W        W11968  26.628   7.744  10.515
39621W        W11969  34.567   7.177   1.420
39622W        W11970   7.260   1.754   3.645
39623W        W11971  28.112  35.499  13.926
39624W        W11972  34.077  27.056   2.810
39625W        W11973  32.492   3.422   2.249
39626W        W11974   4.930  35.381  14.011
39627W        W11975  11.141   8.699   1.703
39628W        W11976  18.125  10.825   2.280
39629W        W11977  23.578  23.004   4.313
39630W        W11978  33.104   5.214  14.321
39631W        W11979  31.418  14.285  13.875
39632W        W11980   5.877   2.910   0.792
39633W        W11981   6.827  14.683   4.769
39634W        W11982  26.637  39.944   4.654
39635W        W11983  32.593  22.163   4.800
39636W        W11984  34.086  37.563   0.319
39637W        W11985  42.879  28.517   1.706
39638W        W11986  23.132   9.390   3.305
39639W        W11987  14.674  12.136  14.281
39640W        W11988  44.470  10.819  14.302
39641W        W11989  38.392  43.909  11.499
39642W        W11990  23.127   0.367   1.802
39643W        W11991  37.502  30.437   9.959
39644W        W11992  43.450  38.900   2.877
39645W        W11993  43.331  32.477  14.797
39646W        W11994  26.096  25.174  14.373
39647W        W11995   0.918  34.111   4.274
39648W        W11996  33.072   8.320  10.037
39649W        W11997   9.806  23.677   1.719
39650W        W11998  11.218  30.604  13.468
39651W        W11999  42.825  32.508  11.461
39652W        W12000  24.564  27.675  10.561
39653W        W12001  42.829  16.787   0.346
39654W        W12002  20.687  23.559  12.537
39655W        W12003  43.335  42.368   2.841
39656W        W12004  29.663  27.996   2.662
39657W        W12005  11.748   4.887  11.897
39658W        W12006  43.275  14.144  12.953
39659W        W12007  34.408  34.933   1.242
39660W        W12008  41.791  30.447  13.314
39661W        W12009  13.604   6.293   1.718
39662W        W12010  21.719  35.952   1.258
39663W        W12011  38.477   1.453   0.956
39664W        W12012  34.539   7.307  14.515
39665W        W12013   0.805  35.985  11.108
39666W        W12014  36.482   1.471   3.165
39667W        W12015  31.952  40.333  11.942
39668W        W12016  23.663  41.830  13.497
39669W        W12017  33.617   3.423  13.526
39670W        W12018  10.855  27.461  13.433
39671W        W12019   2.451   0.958   0.382
39672W        W12020   1.475  41.979   3.708
39673W        W12021  14.225  18.074  10.942
39674W        W12022  32.577  19.739  10.534
39675W        W12023  32.050  12.120   1.314
39676W        W12024  30.481  21.660  12.550
39677W        W12025  44.841   7.297  10.416
39678W        W12026  20.642  24.574  10.406
39679W        W12027  19.102  21.533   3.149
39680W        W12028  24.198  36.486   0.277
39681W        W12029  21.075  41.998   1.753
39682W        W12030  32.100  22.742   1.396
39683W        W12031  37.564  20.169  11.939
39684W        W12032  33.946   5.857   9.513
39685W        W12033  22.720  37.921   0.410
39686W        W12034   6.820  37.050   2.738
39687W        W12035  10.158  18.189  14.818
39688W        W12036   0.813  31.900  14.508
39689W        W12037  30.990  28.091   4.759
39690W        W12038  27.676   8.205   1.221
39691W        W12039   1.784  27.574   3.673
39692W        W12040  30.988  40.479   4.314
39693W        W12041  20.182  18.137   3.671
39694W        W12042  13.739  27.651   1.755
39695W        W12043  44.452  24.646   2.382
39696W        W12044   7.281   1.431  14.965
39697W        W12045  34.866  20.177  14.915
39698W        W12046  13.776  21.082  10.598
39699W        W12047  20.592  41.363   0.774
39700W        W12048  20.109  43.857  11.857
39701W        W12049  29.924  34.510  13.791
39702W        W12050  35.942  27.470  12.532
39703W        W12051  18.611  19.726  14.853
39704W        W12052   9.170   8.310   3.631
39705W        W12053  18.251  34.496   3.303
39706W        W12054  27.956  29.471   3.304
39707W        W12055  36.436  38.049  13.864
39708W        W12056   9.273  32.050  13.479
39709W        W12057  26.672  20.613   0.811
39710W        W12058  39.910  25.643  14.364
39711W        W12059  17.711  19.729   4.821
39712W        W12060  33.964  15.293  12.025
39713W        W12061  33.624  14.728   1.702
39714W        W12062  42.346  18.253  13.428
39715W        W12063  16.633   6.285   4.309
39716W        W12064  15.279   6.787  11.999
39717W        W12065  39.031  18.790  14.316
39718W        W12066  31.595  25.592  13.516
39719W        W12067  39.433  28.581  14.441
39720W        W12068  23.549   5.741  14.277
39721W        W12069  26.969  20.078   4.818
39722W        W12070  11.832   0.841   4.681
39723W        W12071  23.070  29.586   3.307
39724W        W12072  34.406   9.794   3.146
39725W        W12073  34.533  18.210   3.678
39726W        W12074   4.252   2.381  14.850
39727W        W12075   1.861   4.826  13.971
39728W        W12076  43.838  35.952   0.731
39729W        W12077  40.892  15.725  11.548
39730W        W12078  32.592  28.972   4.216
39731W        W12079  12.338   0.413   2.900
39732W        W12080  39.422  22.646   4.168
39733W        W12081  13.617  27.545  14.340
39734W        W12082   8.823  12.214  14.901
39735W        W12083  17.594  36.972  10.455
39736W        W12084   7.700  43.414   2.291
39737W        W12085  27.073  14.632  13.322
39738W        W12086   7.375  29.532  14.353
39739W        W12087  19.280  25.996  13.308
39740W        W12088  42.837   4.283   3.275
39741W        W12089  13.719  38.076  10.637
39742W        W12090  10.379  38.331  13.509
39743W        W12091  37.936  18.667  10.545
39744W        W12092  12.633  35.993   3.318
39745W        W12093   8.674  36.845  12.948
39746W        W12094   3.376   9.726  14.338
39747W        W12095   3.859  21.688  13.487
39748W        W12096  18.064  23.686   2.343
39749W        W12097  11.198  25.470  14.461
39750W        W12098  14.198  24.029   3.641
39751W        W12099  17.561  35.967   4.639
39752W        W12100   8.401   4.824  13.012
39753W        W12101   1.249  14.701   3.732
39754W        W12102  36.567   2.228   2.319
39755W        W12103   2.915  14.603   2.227
39756W        W12104  37.868  22.010  13.869
39757W        W12105  14.165  12.193   5.240
39758W        W12106  16.126   8.383  12.354
39759W        W12107  35.975  10.700   0.359
39760W        W12108   9.683   0.785  12.469
39761W        W12109   9.885  19.129   2.739
39762W        W12110  10.373  23.190   1.272
39763W        W12111  20.566   7.390   3.284
39764W        W12112  30.521  39.496  11.569
39765W        W12113   3.814  33.052   2.199
39766W        W12114  41.357  24.496  14.016
39767W        W12115   9.813  42.849   0.279
39768W        W12116  27.588  29.615   4.228
39769W        W12117  22.122  10.821  11.387
39770W        W12118  28.148  37.904  10.611
39771W        W12119  43.983  15.278   3.686
39772W        W12120  26.614  40.359  14.893
39773W        W12121  13.134   0.257  10.418
39774W        W12122   7.173  16.759   4.301
39775W        W12123  19.693   0.294   3.152
39776W        W12124  25.474   4.784  14.279
39777W        W12125   8.269  22.119   4.127
39778W        W12126  21.613  31.150  11.424
39779W        W12127  20.133   5.420  13.323
39780W        W12128  12.362  13.196  13.969
39781W        W12129  42.981  35.052  13.990
39782W        W12130  32.937   9.340   4.695
39783W        W12131  26.124   0.974   2.846
39784W        W12132  40.433  24.611  11.594
39785W        W12133  32.530  17.644   3.147
39786W        W12134  14.129  41.833  14.019
39787W        W12135   7.729   5.397  11.867
39788W        W12136  35.384  35.569  11.504
39789W        W12137  43.852  27.044   3.222
39790W        W12138  34.913  14.261   3.841
39791W        W12139  26.523  30.143  11.436
39792W        W12140  27.473  31.564   1.243
39793W        W12141  25.092  32.905  10.426
39794W        W12142  42.341  16.736  14.344
39795W        W12143  28.177   4.227  13.344
39796W        W12144  11.266  18.184  10.421
39797W        W12145  23.590  43.802   3.312
39798W        W12146  14.686   9.849  10.581
39799W        W12147  34.539  38.344  13.937
39800W        W12148  26.674  41.474   9.928
39801W        W12149  26.623   9.226  10.405
39802W        W12150   8.675  43.410  11.882
39803W        W12151   6.223   5.354  12.944
39804W        W12152  14.194  20.604   3.641
39805W        W12153  19.122  36.556  12.085
39806W        W12154   9.772  41.515  14.776
39807W        W12155  35.555  26.599   1.851
39808W        W12156   9.183  26.025  12.556
39809W        W12157  21.527  29.622  12.900
39810W        W12158  42.377  39.954  13.418
39811W        W12159   5.763  14.259  14.957
39812W        W12160  24.632  22.007   2.741
39813W        W12161  24.059  28.437   4.611
39814W        W12162   4.234  27.647  13.879
39815W        W12163  11.275  26.202   4.344
39816W        W12164   6.422  23.517  12.389
39817W        W12165  10.722  21.610   0.366
39818W        W12166   2.316  33.446  12.984
39819W        W12167  20.159   2.892   0.445
39820W        W12168  33.024  42.844  14.462
39821W        W12169  43.958  23.207  12.985
39822W        W12170  33.442  27.965   3.309
39823W        W12171  41.348  44.972  11.456
39824W        W12172   0.338  23.059   2.370
39825W        W12173   4.350  18.217   0.289
39826W        W12174  25.120  14.156   4.781
39827W        W12175  32.413   8.180   2.796
39828W        W12176  28.579  31.109   2.898
39829W        W12177   6.373   8.190  12.497
39830W        W12178  20.217  33.455   0.280
39831W        W12179  41.414  17.187  14.392
39832W        W12180   1.392  26.489  13.546
39833W        W12181  40.377  20.599   2.663
39834W        W12182  27.450  21.644  13.889
39835W        W12183  31.006  34.375  11.042
39836W        W12184   2.358  18.227  14.334
39837W        W12185  23.045   5.688   4.795
39838W        W12186   0.285  37.859  12.546
39839W        W12187  17.662  21.617   0.824
39840W        W12188  31.915  11.785  10.626
39841W        W12189  11.722   5.271  11.866
39842W        W12190  12.737   8.240  12.095
39843W        W12191  27.481  39.916  14.342
39844W        W12192  14.601  37.050  14.458
39845W        W12193  31.567  37.959  14.888
39846W        W12194  40.436   6.705   4.167
39847W        W12195  38.373   2.386  12.551
39848W        W12196  15.674  10.854   1.435
39849W        W12197  10.263  28.107  13.345
39850W        W12198  29.135  26.985  14.464
39851W        W12199  26.205  15.319  13.852
39852W        W12200   7.278  25.107  12.429
39853W        W12201  36.551  24.118   5.230
39854W        W12202  12.723  40.026  13.474
39855W        W12203  44.430  43.418  11.081
39856W        W12204  25.204  35.893  14.305
39857W        W12205  26.004  16.289  12.009
39858W        W12206   8.167  22.118   2.226
39859W        W12207   1.772  20.639  10.421
39860W        W12208  42.895   6.855   4.614
39861W        W12209  37.922   2.923   3.770
39862W        W12210  20.714   4.261  11.410
39863W        W12211  37.903  34.936   0.788
39864W        W12212  19.536   1.822   3.699
39865W        W12213  39.839  35.052  11.103
39866W        W12214  24.538  30.539  13.866
39867W        W12215  37.581  18.265   2.307
39868W        W12216  18.605  19.156   1.245
39869W        W12217   6.339  18.665   4.261
39870W        W12218  30.157  12.338  13.508
39871W        W12219  44.469  23.018  13.976
39872W        W12220   0.783  18.186   2.691
39873W        W12221   7.286  32.541   1.288
39874W        W12222  36.906  22.698  12.917
39875W        W12223  25.002  12.750  13.418
39876W        W12224  20.042  25.631  12.056
39877W        W12225  12.191  32.001   0.755
39878W        W12226  11.755   9.383   2.383
39879W        W12227  34.550   0.378   2.225
39880W        W12228  11.640  30.445  12.945
39881W        W12229  18.262  35.567  12.065
39882W        W12230  17.283  22.589  14.414
39883W        W12231  24.000  16.311   1.231
39884W        W12232  39.446  34.991  12.005
39885W        W12233  16.726  23.079  13.839
39886W        W12234  43.809  25.219   3.831
39887W        W12235   5.926  28.594  11.547
39888W        W12236  18.602  43.892  12.470
39889W        W12237  29.445  23.205  11.557
39890W        W12238  27.474  25.548   2.802
39891W        W12239  34.501  17.700   3.841
39892W        W12240   4.226   9.751   3.758
39893W        W12241   8.329   5.786  13.937
39894W        W12242  31.926  35.068   4.679
39895W        W12243  40.848  13.328  10.459
39896W        W12244  40.869   8.781  10.507
39897W        W12245  11.143  13.654  12.077
39898W        W12246  37.938  19.691  10.494
39899W        W12247   2.381  14.825  14.499
39900W        W12248  15.746  17.061  11.003
39901W        W12249  12.339  23.027  10.575
39902W        W12250   4.905  35.589   1.326
39903W        W12251  26.044   7.818   3.639
39904W        W12252  42.780  26.503   0.408
39905W        W12253   8.797   1.900  13.387
39906W        W12254  42.031  14.674  10.485
39907W        W12255  22.099  30.008   0.762
39908W        W12256  33.546   5.748  11.442
39909W        W12257   5.330  15.091  14.284
39910W        W12258  12.145  37.505  13.034
39911W        W12259  19.616  27.494  10.466
39912W        W12260  13.811  32.536  11.871
39913W        W12261  27.561  30.481  13.021
39914W        W12262  20.694  20.540  12.956
39915W        W12263   6.356   7.886   1.441
39916W        W12264  32.937   3.941  11.379
39917W        W12265  19.560  16.217  11.096
39918W        W12266   5.701  14.154   1.387
39919W        W12267  25.215  33.561  13.002
39920W        W12268  11.759  41.996   0.946
39921W        W12269  29.539  18.260  12.382
39922W        W12270  28.081  27.019   0.358
39923W        W12271  31.480  33.512  14.960
39924W        W12272   0.847  23.081  13.970
39925W        W12273  24.697   6.377  14.394
39926W        W12274   1.338  26.610   3.755
39927W        W12275   7.840  35.429  14.936
39928W        W12276  30.541  23.211  12.348
39929W        W12277  42.387   3.311  12.425
39930W        W12278  43.914  31.575  12.442
39931W        W12279  24.630  11.252  12.426
39932W        W12280  23.209  19.172   0.877
39933W        W12281   4.882   4.370  11.906
39934W        W12282  44.754  27.080   4.239
39935W        W12283  34.490   4.802  14.918
39936W        W12284  43.390  32.541  11.932
39937W        W12285  39.471  25.697  13.939
39938W        W12286  44.271  33.089  13.421
39939W        W12287  25.997  38.946   1.421
39940W        W12288   0.261  20.038  11.454
39941W        W12289  24.549   8.384   1.880
39942W        W12290  43.278   5.424   4.643
39943W        W12291  36.480  10.219  12.528
39944W        W12292  20.178   1.771   4.677
39945W        W12293  34.099   8.817  14.454
39946W        W12294  34.059  36.038   0.923
39947W        W12295   7.824   1.322  14.337
39948W        W12296  29.101   3.270  12.941
39949W        W12297  36.952   1.956  13.349
39950W        W12298  38.902   2.302   0.847
39951W        W12299  30.460   2.405   2.191
39952W        W12300  16.568  43.368   1.389
39953W        W12301  22.554   9.324   1.277
39954W        W12302  17.294  41.851  10.506
39955W        W12303  20.744   3.880   1.350
39956W        W12304   6.834   3.266   4.683
39957W        W12305  40.932  13.236  13.480
39958W        W12306  24.618  27.521  14.331
39959W        W12307  24.099  39.991  12.439
39960W        W12308  27.531  26.123  11.373
39961W        W12309  18.148  38.989  11.925
39962W        W12310  45.000  20.089  12.909
39963W        W12311   6.391  37.087   1.368
39964W        W12312  11.182  34.097   1.822
39965W        W12313   7.812   2.402  14.902
39966W        W12314  31.044  30.129  13.976
39967W        W12315  10.711  13.835   3.317
39968W        W12316   5.346   3.823   4.780
39969W        W12317  27.562  42.322  13.364
39970W        W12318  37.054  18.221  12.075
39971W        W12319  11.289  25.525  12.350
39972W        W12320  15.155  22.120   2.822
39973W        W12321  43.401  12.183  14.920
39974W        W12322   7.707   7.185   5.157
39975W        W12323  32.919  18.658   3.179
39976W        W12324  11.645   9.764  13.809
39977W        W12325  22.528   4.236   0.467
39978W        W12326  44.894  21.645  10.973
39979W        W12327  23.145  15.727   1.350
39980W        W12328   2.340  14.203  11.072
39981W        W12329  15.788  35.447  12.834
39982W        W12330  26.674  14.266   1.451
39983W        W12331  32.922  10.340  14.433
39984W        W12332  13.627   1.945  11.456
39985W        W12333  11.856   3.935   9.495
39986W        W12334   7.261  32.611  10.628
39987W        W12335  16.140  39.930  12.929
39988W        W12336  43.825   4.826   2.305
39989W        W12337   5.380  26.109  12.459
39990W        W12338  39.885  26.535   1.415
39991W        W12339  22.018  11.166   0.868
39992W        W12340  16.738  21.036  12.050
39993W        W12341  24.694   5.247   2.386
39994W        W12342   1.744  24.601  11.947
39995W        W12343   6.311   5.895  12.982
39996W        W12344  37.571   0.485   2.675
39997W        W12345  18.603  35.499   1.269
39998W        W12346   0.851   9.820   4.709
39999W        W12347  39.550  35.923   0.267
40000W        W12348  28.542   4.804   3.808
40001W        W12349  36.541  12.666   0.386
40002W        W12350   4.204  16.157  10.615
40003W        W12351   8.870  12.743   1.431
40004W        W12352  12.131  31.148   0.315
40005W        W12353  16.702  36.083  11.982
40006W        W12354  24.555   2.762   2.864
40007W        W12355  38.547  13.282   2.805
40008W        W12356  24.591  12.308   3.844
40009W        W12357  33.536   5.317   3.736
40010W        W12358  42.502   2.799   4.123
40011W        W12359  39.348   8.692  10.054
40012W        W12360  20.256  14.609  11.910
40013W        W12361  22.111  35.474   1.291
40014W        W12362  14.705  23.131   2.896
40015W        W12363  23.730  26.580   0.257
40016W        W12364  29.998  43.773  14.321
40017W        W12365  28.032  26.548  10.442
40018W        W12366  43.807  17.678  10.585
40019W        W12367  33.078  29.168   4.335
40020W        W12368   9.876  31.435   9.943
40021W        W12369  34.551   7.202  14.026
40022W        W12370  14.684  37.571   1.403
40023W        W12371  37.385  32.475  13.007
40024W        W12372  21.100  27.044  12.875
40025W        W12373  40.525  10.667  14.340
40026W        W12374   2.796  36.867   4.171
40027W        W12375  32.072  37.939  10.924
40028W        W12376  34.548  33.470   4.641
40029W        W12377   0.752  15.085   2.359
40030W        W12378  28.676  13.149  13.319
40031W        W12379   7.759  21.070   0.747
40032W        W12380  37.899  28.493  13.817
40033W        W12381  44.972   6.256   0.967
40034W        W12382  13.164  35.553  10.645
40035W        W12383  35.548  11.219  10.558
40036W        W12384  26.043  18.261  10.494
40037W        W12385   2.854  31.990  11.378
40038W        W12386   0.854  25.207   4.715
40039W        W12387  29.551  26.158  10.569
40040W        W12388  42.309   8.792  12.866
40041W        W12389  44.826  42.453  10.526
40042W        W12390  29.162  28.947  11.582
40043W        W12391  21.196  39.926   3.706
40044W        W12392   1.909  22.159  11.856
40045W        W12393  42.000  43.324   0.934
40046W        W12394   4.778  33.974   1.711
40047W        W12395   6.835  27.617   3.846
40048W        W12396   2.749  10.294  10.914
40049W        W12397  44.449  12.298  13.793
40050W        W12398  20.127   9.720   1.443
40051W        W12399   0.861  10.249  10.643
40052W        W12400  39.820   6.751  11.064
40053W        W12401  27.071  35.090  10.911
40054W        W12402  32.062  14.730  12.894
40055W        W12403  17.713  30.496   0.440
40056W        W12404  11.251  22.645  12.342
40057W        W12405  16.810  10.851   0.470
40058W        W12406  12.842   2.371  12.420
40059W        W12407  19.673  35.925  13.955
40060W        W12408  43.934  12.305   4.729
40061W        W12409  43.286  19.589  10.952
40062W        W12410   4.706  42.418  14.029
40063W        W12411  12.797  27.122   0.461
40064W        W12412   8.680  42.913  14.809
40065W        W12413   1.416  23.602  13.492
40066W        W12414   9.782  18.620   1.876
40067W        W12415  18.094  16.269  14.409
40068W        W12416  44.882  17.618   2.806
40069W        W12417  28.999  37.043  13.499
40070W        W12418  36.455   2.400   2.898
40071W        W12419  10.694  12.648  14.408
40072W        W12420  22.194  16.651  10.897
40073W        W12421   4.222  31.559  14.358
40074W        W12422   9.305  13.154   4.667
40075W        W12423   4.752  32.547   3.663
40076W        W12424   0.405  41.947   0.798
40077W        W12425  40.308   7.279   3.166
40078W        W12426  42.894  15.656  11.010
40079W        W12427  44.385  14.206   4.257
40080W        W12428  23.699  41.484   1.704
40081W        W12429   6.224  10.343  13.513
40082W        W12430  24.547  14.175   4.722
40083W        W12431  11.210  38.434  10.624
40084W        W12432  38.363   9.696  10.504
40085W        W12433   9.659  11.197   1.779
40086W        W12434  12.639   6.208  12.965
40087W        W12435  38.331   0.765  13.510
40088W        W12436  11.785  24.221   2.197
40089W        W12437  42.881   1.887   3.333
40090W        W12438  13.796  36.560  12.853
40091W        W12439  11.271  15.165  14.029
40092W        W12440  19.100   6.402  11.978
40093W        W12441  19.152   9.182   1.379
40094W        W12442  24.568  24.505  12.507
40095W        W12443  32.494  42.339  11.860
40096W        W12444  39.896  31.063  10.447
40097W        W12445  38.976  21.232  14.427
40098W        W12446   5.384  19.225  14.944
40099W        W12447   5.752  31.446  10.923
40100W        W12448  21.201  43.351   2.679
40101W        W12449  10.776   1.765  14.949
40102W        W12450  41.825   9.753  10.917
40103W        W12451  41.872  11.145  12.045
40104W        W12452  27.121  25.474   4.828
40105W        W12453  39.046  39.014  14.509
40106W        W12454  34.877  20.056   0.444
40107W        W12455  27.459  14.768  13.842
40108W        W12456  18.589  15.727  10.626
40109W        W12457  30.596  42.866   0.382
40110W        W12458  27.130   1.806  11.459
40111W        W12459  12.743  34.095   1.265
40112W        W12460   0.270  22.697   3.731
40113W        W12461  39.895  21.214   1.279
40114W        W12462  38.428   6.890   3.199
40115W        W12463  31.898   9.789   3.224
40116W        W12464  40.965   7.363  14.329
40117W        W12465   0.349  35.557   4.622
40118W        W12466  21.046  40.351  12.359
40119W        W12467  24.614  23.102  12.351
40120W        W12468   7.733  17.562  10.562
40121W        W12469  25.006  25.016   2.735
40122W        W12470   0.263  42.857   4.265
40123W        W12471  19.120  30.913   5.129
40124W        W12472  25.998  23.736   0.344
40125W        W12473  39.931  36.849  13.799
40126W        W12474  35.418  11.337  11.981
40127W        W12475  19.778  22.997   1.417
40128W        W12476  44.401   5.744  12.372
40129W        W12477  39.818  28.484  13.499
40130W        W12478  12.666  16.292   1.286
40131W        W12479  15.757  33.125   5.208
40132W        W12480  24.593   2.419   2.222
40133W        W12481  15.301  40.355   3.666
40134W        W12482  11.636  32.125   4.145
40135W        W12483  28.112  31.542  13.985
40136W        W12484   0.275   7.363   0.872
40137W        W12485  38.517  43.289  12.382
40138W        W12486  19.544   2.232   4.636
40139W        W12487  33.960  42.787  11.964
40140W        W12488  37.499  22.734   0.260
40141W        W12489  12.132  44.898   2.202
40142W        W12490  22.658  25.182   1.815
40143W        W12491  17.755  32.412  11.005
40144W        W12492  31.420  20.173   2.193
40145W        W12493  37.522  39.519  13.907
40146W        W12494  41.510  22.191   0.470
40147W        W12495  25.166  21.536   0.479
40148W        W12496   5.371  32.450   4.770
40149W        W12497   0.784   5.802  12.856
40150W        W12498   0.856  38.466  11.463
40151W        W12499  39.380  26.664   3.325
40152W        W12500  12.352   3.762   5.700
40153W        W12501  33.438  43.783  11.397
40154W        W12502   7.772  42.433  11.534
40155W        W12503  11.758  28.657  14.368
40156W        W12504  13.127  30.489   2.187
40157W        W12505  11.369   5.375   2.792
40158W        W12506  21.700  23.059   0.811
40159W        W12507   6.251  36.572   3.635
40160W        W12508  26.458  38.996   3.214
40161W        W12509  25.189  41.039   2.846
40162W        W12510  12.733  11.754   4.682
40163W        W12511  24.503  18.710   1.415
40164W        W12512  27.611  10.279  13.964
40165W        W12513  34.041  35.555  14.965
40166W        W12514  20.254  37.468   2.900
40167W        W12515  42.926  30.938  11.907
40168W        W12516  25.025  27.985   4.783
40169W        W12517  41.844  14.175  13.960
40170W        W12518   4.226  26.176  13.951
40171W        W12519  34.994  41.532  13.832
40172W        W12520  28.644  42.423   4.607
40173W        W12521  20.530  18.296  14.832
40174W        W12522  40.473  39.549  11.447
40175W        W12523  19.262  25.201  14.385
40176W        W12524  34.527  41.530   1.439
40177W        W12525  26.153  10.845  10.607
40178W        W12526  23.726  35.478  13.384
40179W        W12527  24.108   1.386   4.237
40180W        W12528  28.930  23.494   0.411
40181W        W12529   9.330   2.421   3.292
40182W        W12530  27.652   9.881  10.590
40183W        W12531  14.808  23.086  14.366
40184W        W12532   7.200   4.416   4.122
40185W        W12533  10.810   6.862  13.377
40186W        W12534  28.455  18.582   1.237
40187W        W12535   4.821  28.639  14.395
40188W        W12536  17.079  15.172   3.312
40189W        W12537  22.071  22.524   2.196
40190W        W12538  36.482   6.387   2.219
40191W        W12539  20.693  44.836  12.418
40192W        W12540  30.092   6.837   3.277
40193W        W12541   6.287  41.017  11.100
40194W        W12542  21.653  41.885  10.919
40195W        W12543  33.416  41.992  10.911
40196W        W12544  31.944  17.641  10.626
40197W        W12545  37.406  41.988  14.420
40198W        W12546  13.727  36.849  14.436
40199W        W12547  11.296  27.951   0.305
40200W        W12548   5.275  28.166  13.970
40201W        W12549   1.277  18.787  12.992
40202W        W12550  28.481  17.759  12.540
40203W        W12551  17.091  33.619  14.301
40204W        W12552  19.251  13.671   3.324
40205W        W12553  30.557  23.563   2.824
40206W        W12554  33.974  38.004   4.712
40207W        W12555  27.527  43.439   4.812
40208W        W12556  41.807   5.438  14.003
40209W        W12557  44.272  19.601   2.339
40210W        W12558  21.071  31.513   5.107
40211W        W12559  24.527  13.691   0.955
40212W        W12560  38.428  21.611  14.329
40213W        W12561   2.431  26.203  11.979
40214W        W12562  41.356  16.734  11.001
40215W        W12563   0.371  19.566  11.087
40216W        W12564  15.706  42.984   1.318
40217W        W12565  15.616  30.974  11.451
40218W        W12566  35.530   2.399   1.234
40219W        W12567  23.066  44.285   0.919
40220W        W12568  42.958  30.640   4.161
40221W        W12569  44.490  28.498  10.944
40222W        W12570   1.801   4.741   2.690
40223W        W12571  22.621  37.083   0.772
40224W        W12572   6.307  35.586   1.828
40225W        W12573  13.617  44.484   0.285
40226W        W12574   3.274  19.767  11.400
40227W        W12575  18.240   6.784   2.699
40228W        W12576   8.774   0.881  10.523
40229W        W12577   7.669  19.686   4.284
40230W        W12578  37.340  43.503  11.438
40231W        W12579  25.580   8.357   1.255
40232W        W12580   4.290  21.519  13.439
40233W        W12581  19.689  18.267   2.386
40234W        W12582   4.899  26.534  10.086
40235W        W12583  12.128   8.250  14.453
40236W        W12584  32.513  36.970   1.891
40237W        W12585  23.617  22.193   4.731
40238W        W12586   6.885  30.941  14.003
40239W        W12587  41.945  43.008  14.868
40240W        W12588  27.015  37.454   4.276
40241W        W12589  20.098  34.967   4.229
40242W        W12590   1.948  34.905   1.318
40243W        W12591   7.248  38.549   3.221
40244W        W12592  33.577  26.651   1.896
40245W        W12593  43.915  29.608   3.680
40246W        W12594  39.049  18.769   2.664
40247W        W12595   9.310  40.511  13.902
40248W        W12596  14.698   7.733  11.588
40249W        W12597  26.512  34.408  11.102
40250W        W12598  39.450  44.998  14.501
40251W        W12599  25.981  38.929  11.899
40252W        W12600  23.535  11.838  14.433
40253W        W12601   7.798   2.265  13.964
40254W        W12602  37.079   7.280   5.138
40255W        W12603  22.555  41.335   2.788
40256W        W12604  39.943  38.854   0.259
40257W        W12605  38.546  26.603   3.733
40258W        W12606  31.016  17.177   3.273
40259W        W12607  14.197  17.792  12.484
40260W        W12608  23.510  15.156   3.720
40261W        W12609  32.941  22.671   3.278
40262W        W12610   5.313  15.584   4.688
40263W        W12611  30.498   1.241  13.877
40264W        W12612  22.563  29.654  12.951
40265W        W12613  19.270   8.772   1.237
40266W        W12614  31.581  33.431  11.108
40267W        W12615  25.019  37.394   0.401
40268W        W12616  32.913  11.310   4.160
40269W        W12617  41.394  12.216   3.341
40270W        W12618  10.686  23.047   0.395
40271W        W12619   6.210  40.421  14.815
40272W        W12620  31.002  30.466   1.841
40273W        W12621  38.496  14.236   3.168
40274W        W12622  36.844  12.202   1.865
40275W        W12623  17.081  28.955  13.849
40276W        W12624   2.909  26.114   2.259
40277W        W12625  30.132  24.028   4.716
40278W        W12626  11.212  35.996  12.355
40279W        W12627  33.917  19.171  10.412
40280W        W12628  23.614  40.841  13.960
40281W        W12629  12.857  41.312   4.212
40282W        W12630  28.034  18.635   3.827
40283W        W12631  36.574  13.267   3.346
40284W        W12632  13.111  28.489   2.322
40285W        W12633  44.868  18.583   3.292
40286W        W12634  10.815   3.292  10.562
40287W        W12635  14.261  23.023  13.323
40288W        W12636  23.563  42.875  12.565
40289W        W12637  15.746  30.121  10.515
40290W        W12638  12.264  16.639   1.216
40291W        W12639   4.420  28.069  11.932
40292W        W12640   7.836  21.686   1.360
40293W        W12641   1.344  40.824  14.855
40294W        W12642  24.007  41.974   1.362
40295W        W12643   1.733  31.957   2.752
40296W        W12644   6.372  23.591   0.938
40297W        W12645  41.408  35.548  11.046
40298W        W12646   7.284  40.835  12.992
40299W        W12647  26.179  16.252  11.010
40300W        W12648   9.731   6.361  11.987
40301W        W12649  41.324  39.447   0.821
40302W        W12650  25.108  15.607   4.833
40303W        W12651  21.681  36.050  11.861
40304W        W12652  24.497  29.139  13.985
40305W        W12653  25.540  31.000   4.269
40306W        W12654  31.467  24.991  10.626
40307W        W12655  24.597   8.384   3.195
40308W        W12656  36.560  38.340  11.123
40309W        W12657  32.974   1.744   4.147
40310W        W12658  34.473  43.497  12.427
40311W        W12659  20.081  16.214   3.259
40312W        W12660  37.576   0.804  11.437
40313W        W12661  33.395   6.756   1.808
40314W        W12662   8.701  33.901  11.420
40315W        W12663  33.587   8.733   4.336
40316W        W12664  27.515  27.449  13.467
40317W        W12665   1.885  15.591   2.674
40318W        W12666   5.708  16.081  10.957
40319W        W12667  44.901  26.693  11.491
40320W        W12668   6.344  16.223   0.445
40321W        W12669  14.750  11.766   1.294
40322W        W12670  42.440   5.303   2.339
40323W        W12671  43.355  24.704   3.701
40324W        W12672  38.429  26.591  11.388
40325W        W12673  16.299  19.709  14.766
40326W        W12674  37.870  35.035   1.907
40327W        W12675  33.934  36.565  14.355
40328W        W12676  11.287  19.580   4.141
40329W        W12677  13.754  44.455   2.356
40330W        W12678  36.396  34.047  14.908
40331W        W12679  14.593  23.075  11.386
40332W        W12680  19.665   9.753  12.091
40333W        W12681  27.063  22.626  10.452
40334W        W12682  12.232  39.378   1.757
40335W        W12683  13.665   4.448   5.661
40336W        W12684  20.248   1.770   1.808
40337W        W12685   1.260  36.462   3.229
40338W        W12686  30.950  10.789   2.877
40339W        W12687   7.898  28.995   0.861
40340W        W12688  14.177  30.052  12.996
40341W        W12689  40.027  42.294  10.528
40342W        W12690  11.784   4.715   1.370
40343W        W12691   3.366   7.846   4.228
40344W        W12692  18.726   5.345  10.922
40345W        W12693  37.054  13.143   4.602
40346W        W12694  10.775   6.428  13.922
40347W        W12695  25.700  21.135   2.362
40348W        W12696  33.609   7.315   5.729
40349W        W12697  18.766  19.668   3.674
40350W        W12698  28.528  41.927  13.488
40351W        W12699  30.147  17.269  12.002
40352W        W12700  15.153  11.232   0.344
40353W        W12701   8.865  29.619   1.365
40354W        W12702  21.201   5.404   2.406
40355W        W12703   0.781   3.262   0.826
40356W        W12704   4.261  44.422   3.165
40357W        W12705  17.110  37.476   2.264
40358W        W12706  27.653  34.980  11.452
40359W        W12707   4.359  11.678  13.360
40360W        W12708  17.601  10.154   3.686
40361W        W12709   4.306  36.578  11.973
40362W        W12710  22.521  38.380  11.597
40363W        W12711   2.343   2.425  14.362
40364W        W12712  26.560   4.886  13.992
40365W        W12713   8.871  13.754   3.730
40366W        W12714   1.804  30.066   3.349
40367W        W12715  17.587   3.292   0.757
40368W        W12716  34.382  16.074   2.888
40369W        W12717  14.287  21.648   4.227
40370W        W12718  32.005  23.657  12.343
40371W        W12719  18.077  41.795  14.979
40372W        W12720  22.541   1.966  10.448
40373W        W12721  42.814  17.217  11.935
40374W        W12722  39.933  32.893  14.421
40375W        W12723   1.414  29.426  10.926
40376W        W12724  41.923  44.914   0.906
40377W        W12725   7.752  15.144  12.007
40378W        W12726  18.292  38.499  11.494
40379W        W12727  43.858  40.819  13.502
40380W        W12728  14.695  12.654   5.667
40381W        W12729  40.805  12.646   3.785
40382W        W12730  40.979  27.447  11.472
40383W        W12731  23.992   4.832  12.840
40384W        W12732  32.916  22.200   3.271
40385W        W12733  27.594  17.252  14.917
40386W        W12734  43.957  15.268   2.700
40387W        W12735  33.081   3.791  13.804
40388W        W12736  27.629  13.207   2.763
40389W        W12737  22.723  24.661  12.526
40390W        W12738  28.645   5.246   1.712
40391W        W12739  14.670  33.445   4.141
40392W        W12740  18.251  11.693   4.195
40393W        W12741  29.534   1.910   1.715
40394W        W12742  40.878  34.538  13.795
40395W        W12743  16.177  22.658   0.343
40396W        W12744  16.264  19.594   3.279
40397W        W12745   0.320  32.981  11.458
40398W        W12746  22.135  43.284  11.043
40399W        W12747  36.950  44.975  12.577
40400W        W12748   9.796  31.074  13.791
40401W        W12749  39.478  14.231  11.463
40402W        W12750  26.483   5.913  12.349
40403W        W12751   4.271   3.223   1.756
40404W        W12752  25.650  21.218   0.825
40405W        W12753   1.893  24.203   4.156
40406W        W12754  24.559  25.083  14.009
40407W        W12755  20.066  30.120  10.465
40408W        W12756  27.145  39.497   3.269
40409W        W12757  17.184  18.146  13.333
40410W        W12758  10.820  11.696  13.863
40411W        W12759  24.992  19.634   4.220
40412W        W12760  40.833  20.635  10.953
40413W        W12761  40.382   9.652  11.539
40414W        W12762  31.003  43.283   0.467
40415W        W12763  27.497  17.282   2.329
40416W        W12764   4.303   3.853   2.683
40417W        W12765  34.894   7.390   1.709
40418W        W12766  34.559  40.332  11.448
40419W        W12767  11.629  32.014  13.937
40420W        W12768  20.054   7.364  11.394
40421W        W12769  14.796  18.146  12.081
40422W        W12770  14.748  24.700  13.806
40423W        W12771  28.936  40.050   2.782
40424W        W12772   9.866  30.122   1.416
40425W        W12773   8.191  15.170  10.975
40426W        W12774   2.228  26.165   2.709
40427W        W12775   9.239   2.323  11.885
40428W        W12776  15.684  39.345  13.800
40429W        W12777  44.783  43.815  13.872
40430W        W12778  43.333  21.731   3.384
40431W        W12779  17.723  39.551  14.320
40432W        W12780   6.749  35.981   4.660
40433W        W12781  23.016   4.796   2.866
40434W        W12782  19.165  29.976   1.916
40435W        W12783  24.009  19.148  13.386
40436W        W12784  26.587  10.815  11.058
40437W        W12785  33.126  24.161   1.249
40438W        W12786   4.448  23.580   2.732
40439W        W12787  28.029  22.603  13.023
40440W        W12788   3.306  39.022   2.670
40441W        W12789   3.766  15.609  12.870
40442W        W12790  35.474  12.212  11.987
40443W        W12791   0.464  36.065   0.333
40444W        W12792  20.044   8.751   1.331
40445W        W12793   5.229  36.519   3.658
40446W        W12794  13.223  14.646  11.382
40447W        W12795  23.126  15.295  14.393
40448W        W12796  17.759  16.800   2.893
40449W        W12797  23.706  11.270  14.493
40450W        W12798  28.648   0.461   4.147
40451W        W12799  10.359   0.349  13.815
40452W        W12800  32.482  43.463  11.557
40453W        W12801  23.502  15.298   1.802
40454W        W12802  16.227  36.517   1.227
40455W        W12803  24.554   0.899  11.595
40456W        W12804  24.589  38.445   2.339
40457W        W12805   3.765  35.374  12.042
40458W        W12806  39.374  44.796   2.360
40459W        W12807  18.573  30.531   0.910
40460W        W12808  40.978  38.060   1.433
40461W        W12809  16.575  40.022  10.628
40462W        W12810  18.058  39.850  14.355
40463W        W12811   7.865  40.544   0.905
40464W        W12812  38.968  37.881   2.274
40465W        W12813  42.524   4.268  10.523
40466W        W12814  24.210  15.255  14.469
40467W        W12815   2.954  18.216  11.092
40468W        W12816  28.994  31.642  14.901
40469W        W12817  25.086  42.315   2.406
40470W        W12818  39.539  22.037  13.980
40471W        W12819   1.463  29.940   1.305
40472W        W12820   2.397  29.991  11.931
40473W        W12821  22.607  37.429   1.903
40474W        W12822  11.686   1.872  14.391
40475W        W12823  34.613  39.050   0.385
40476W        W12824  21.250  17.592   4.329
40477W        W12825   0.763  43.995  14.765
40478W        W12826  29.526   4.926   0.456
40479W        W12827  30.950  27.048   3.256
40480W        W12828  16.137  28.534  11.061
40481W        W12829   7.856  27.611  13.325
40482W        W12830  34.494  41.478   3.197
40483W        W12831  40.349  32.395   0.457
40484W        W12832  37.881  37.938  12.486
40485W        W12833  32.982  13.737   0.814
40486W        W12834   8.832  16.079   0.869
40487W        W12835  20.693   4.229  13.870
40488W        W12836   7.269  32.477  14.877
40489W        W12837   5.327   4.712  10.564
40490W        W12838  13.828  19.133   0.847
40491W        W12839  42.404  11.645  10.606
40492W        W12840  43.831  24.601  10.946
40493W        W12841   6.392  18.253   2.672
40494W        W12842  16.261  43.931  10.939
40495W        W12843  14.627   7.815  12.989
40496W        W12844  15.298  28.600   3.744
40497W        W12845  23.608   6.185   0.284
40498W        W12846   9.375  21.236  11.398
40499W        W12847   3.895  44.837  14.008
40500W        W12848  16.176  20.526   1.736
40501W        W12849  44.761  25.120  14.793
40502W        W12850   6.385   9.843   2.807
40503W        W12851  21.152  44.928   3.713
40504W        W12852  44.293  39.531  11.556
40505W        W12853  27.019  32.534  11.605
40506W        W12854  13.766  21.162  10.930
40507W        W12855   5.388   2.755  13.393
40508W        W12856  10.727  24.206   3.785
40509W        W12857  12.203   8.265   4.292
40510W        W12858  41.878  36.533  10.906
40511W        W12859  17.560  33.882  12.877
40512W        W12860  21.641  34.503  14.766
40513W        W12861  36.478  24.669  14.370
40514W        W12862  19.622  10.162   1.258
40515W        W12863  13.169  22.561   1.761
40516W        W12864  26.650   5.326  14.782
40517W        W12865   8.728  32.571   1.210
40518W        W12866  41.990  22.738  13.354
40519W        W12867  31.506  29.516  14.852
40520W        W12868  17.797  24.684  13.805
40521W        W12869  33.877   7.882   2.701
40522W        W12870  40.870  25.510  11.534
40523W        W12871  41.363  40.517  13.838
40524W        W12872  24.148  26.685  14.027
40525W        W12873  23.704  17.137   2.323
40526W        W12874  34.938  39.946  11.889
40527W        W12875  41.796  41.939  13.002
40528W        W12876  10.808   6.718   2.354
40529W        W12877  17.598   6.731  11.386
40530W        W12878  14.805  43.826   0.470
40531W        W12879   3.824  44.281  14.480
40532W        W12880  38.379  37.366   0.368
40533W        W12881  26.463  29.572  13.961
40534W        W12882  31.462   9.170  10.068
40535W        W12883  15.122  28.968  14.994
40536W        W12884  24.697  18.256   0.333
40537W        W12885  16.677  32.013  13.396
40538W        W12886  41.364  10.849   2.210
40539W        W12887  37.500  19.209   0.869
40540W        W12888   9.881   0.437   1.408
40541W        W12889  28.141   2.339  12.939
40542W        W12890   3.323  23.149  12.845
40543W        W12891  16.567  33.048  12.061
40544W        W12892  30.514  29.156   2.329
40545W        W12893  18.084  39.318   2.747
40546W        W12894  35.395  27.478  12.375
40547W        W12895   8.178   8.283   4.167
40548W        W12896  29.509  15.812   1.232
40549W        W12897  28.479  29.429   3.678
40550W        W12898  31.413  17.612   1.432
40551W        W12899  41.419  38.378  12.091
40552W        W12900  27.661  36.899   4.826
40553W        W12901  16.084  14.703   4.751
40554W        W12902  16.253  35.569  13.895
40555W        W12903   5.816  14.202   1.858
40556W        W12904  29.994  39.341   0.471
40557W        W12905  12.750   7.218   3.666
40558W        W12906  38.912  35.948   2.315
40559W        W12907  13.290  28.457   1.422
40560W        W12908  44.798  28.156  10.009
40561W        W12909   3.314  42.447  12.430
40562W        W12910  36.040  22.201  14.889
40563W        W12911  31.415  38.008  13.332
40564W        W12912   7.862  28.146  10.452
40565W        W12913  27.671  32.448  11.058
40566W        W12914   2.365   5.842   2.834
40567W        W12915   5.263  20.574   2.374
40568W        W12916  19.753  19.270   3.383
40569W        W12917  41.818  31.528  13.867
40570W        W12918  38.991  18.071  12.047
40571W        W12919  22.518  26.603   3.799
40572W        W12920  11.792  42.516   4.699
40573W        W12921  15.772  13.789   4.145
40574W        W12922   9.336  32.021   9.961
40575W        W12923  31.540   9.199   4.719
40576W        W12924  36.526  34.462  10.933
40577W        W12925   6.316  25.647  10.447
40578W        W12926  12.655  24.208  12.420
40579W        W12927  29.597  22.512  13.368
40580W        W12928  19.650  23.220  12.859
40581W        W12929  30.910  11.245   4.279
40582W        W12930   9.231  36.559   1.850
40583W        W12931  42.868  28.662  11.864
40584W        W12932  12.808  21.733  12.063
40585W        W12933   1.430  40.520  11.440
40586W        W12934  25.997  29.640  11.910
40587W        W12935   2.796   4.331   3.163
40588W        W12936   1.315  28.133   0.891
40589W        W12937  40.897   9.672   3.857
40590W        W12938   9.321  16.204   2.360
40591W        W12939   1.939  22.038  11.461
40592W        W12940  44.788  24.553   0.909
40593W        W12941  33.071   6.264   1.276
40594W        W12942  38.461   0.441   1.876
40595W        W12943   8.243  20.695   1.782
40596W        W12944   6.426  30.453   0.428
40597W        W12945  38.429  44.804  10.923
40598W        W12946  27.054   7.695  13.455
40599W        W12947  19.703  36.418  13.455
40600W        W12948  11.208  28.111  13.522
40601W        W12949  44.838  11.701   0.245
40602W        W12950  27.562  14.284  10.943
40603W        W12951  14.252  32.002  12.907
40604W        W12952  20.650  10.238  13.867
40605W        W12953  28.990   5.436   0.431
40606W        W12954  31.907  38.426   3.757
40607W        W12955  26.687  33.041  12.515
40608W        W12956  22.620  30.643   2.734
40609W        W12957   3.455  11.631  11.965
40610W        W12958  16.715  42.299  14.365
40611W        W12959  42.963   6.301   3.165
40612W        W12960  35.427  25.972  13.966
40613W        W12961  41.344  16.773   2.866
40614W        W12962  26.603  24.140   3.206
40615W        W12963   2.961  37.977   1.418
40616W        W12964   8.668  11.233   3.729
40617W        W12965  41.005  29.495  10.407
40618W        W12966  27.056   5.862  14.305
40619W        W12967  12.708  10.263  13.809
40620W        W12968  21.688  16.737   2.404
40621W        W12969  12.345   8.808  12.002
40622W        W12970   7.690  25.056   1.231
40623W        W12971  10.158  38.374  10.914
40624W        W12972   0.900  21.124  14.955
40625W        W12973  14.132  18.144   3.678
40626W        W12974  31.067  17.561   3.299
40627W        W12975  16.218  13.225   4.348
40628W        W12976  41.961   2.434   3.685
40629W        W12977   1.837  14.736   4.671
40630W        W12978   6.848  18.167   1.705
40631W        W12979  18.176  11.225   4.768
40632W        W12980  37.026  27.028  14.771
40633W        W12981   1.908  31.594   0.753
40634W        W12982  24.574  41.384  14.901
40635W        W12983  16.765  10.167  14.473
40636W        W12984  24.544   5.864   4.736
40637W        W12985  25.972  33.438   2.740
40638W        W12986  28.089  32.025  11.601
40639W        W12987  31.992   4.852   0.953
40640W        W12988  34.478  40.046   4.164
40641W        W12989  25.471   9.220   1.890
40642W        W12990  36.891  16.134   4.832
40643W        W12991   7.816  42.996   0.471
40644W        W12992  30.625  36.046  11.984
40645W        W12993  23.118  23.048   1.819
40646W        W12994  42.024   7.248   3.344
40647W        W12995  41.354  33.519   0.429
40648W        W12996  11.143  14.802  12.531
40649W        W12997  23.146  21.563   2.784
40650W        W12998   0.923   2.921  14.762
40651W        W12999  39.454  18.582   4.727
40652W        W13000  14.310  30.513   3.845
40653W        W13001  34.016  25.122   1.728
40654W        W13002  24.040  41.937   4.812
40655W        W13003  22.214  10.755  14.355
40656W        W13004   8.378  17.084   0.249
40657W        W13005  22.053  20.148   2.380
40658W        W13006  43.320  12.240  14.393
40659W        W13007   5.423  37.402   2.691
40660W        W13008  34.524  20.699  14.336
40661W        W13009  13.306   5.438  12.025
40662W        W13010  25.969   4.789  14.346
40663W        W13011  19.620  15.788  11.106
40664W        W13012  25.539  24.543  11.930
40665W        W13013  40.518   1.965   4.138
40666W        W13014   4.748   2.875  11.881
40667W        W13015  38.849   2.381  14.286
40668W        W13016  23.198  16.601   0.407
40669W        W13017  25.196  22.622   4.630
40670W        W13018  26.060  18.654  12.965
40671W        W13019   5.729  10.148  14.012
40672W        W13020  10.251  20.535   0.886
40673W        W13021  20.734  34.454   4.838
40674W        W13022  24.653   9.311  11.438
40675W        W13023  19.618  10.740   3.741
40676W        W13024  32.402  26.187   3.328
40677W        W13025   4.305  10.687  11.053
40678W        W13026   7.256   7.183   4.625
40679W        W13027  42.828   6.708   4.298
40680W        W13028  29.176  28.131  10.411
40681W        W13029  39.487   9.160   1.713
40682W        W13030   3.781   7.703   2.245
40683W        W13031  32.102  27.120   2.763
40684W        W13032  33.886  18.760  10.614
40685W        W13033  41.845  26.135  11.942
40686W        W13034  19.091  17.193  11.014
40687W        W13035  19.684  15.715   0.731
40688W        W13036  18.220  42.392  10.508
40689W        W13037   8.339  11.317   1.741
40690W        W13038  10.180  38.075  11.005
40691W        W13039  29.085  16.080   3.250
40692W        W13040  22.651  44.407  11.995
40693W        W13041  40.487  25.678   4.255
40694W        W13042  42.345  18.724  12.014
40695W        W13043  27.968  26.051  12.382
40696W        W13044  31.011   1.319  14.403
40697W        W13045  35.576  31.028   0.465
40698W        W13046   0.290  27.096  11.067
40699W        W13047   3.402  38.416  14.886
40700W        W13048  20.207  34.485  11.556
40701W        W13049  13.313  23.515   1.839
40702W        W13050  44.905   5.424   4.301
40703W        W13051   1.819  23.197   2.819
40704W        W13052  11.340  11.161  12.095
40705W        W13053  24.591  11.323  11.459
40706W        W13054   0.333  32.619   2.875
40707W        W13055  39.529  20.076  11.574
40708W        W13056   2.225  36.581   3.648
40709W        W13057  32.956  20.688  11.102
40710W        W13058   3.849  29.941   1.703
40711W        W13059  29.018   3.420   2.718
40712W        W13060  35.461  41.833  11.598
40713W        W13061   9.664  34.990  10.636
40714W        W13062   8.168  35.393  14.032
40715W        W13063  37.391  37.081  12.956
40716W        W13064   1.731  15.798  11.980
40717W        W13065  35.470  15.718   4.739
40718W        W13066   7.757   3.832   2.703
40719W        W13067   6.756   4.274   4.790
40720W        W13068  43.843  32.552   1.414
40721W        W13069  13.834  26.977  11.569
40722W        W13070   9.275  41.854   3.277
40723W        W13071  21.667  32.016   3.319
40724W        W13072  32.082  22.071  10.470
40725W        W13073   7.730  43.311  14.780
40726W        W13074  38.356   7.863   4.238
40727W        W13075  24.526   4.213   0.750
40728W        W13076  20.652   9.656  13.449
40729W        W13077  20.557  41.985  11.905
40730W        W13078  39.443  35.006   3.694
40731W        W13079  28.502  17.690  13.971
40732W        W13080  22.114  32.394   3.746
40733W        W13081  10.292  22.229  12.359
40734W        W13082  28.652  14.725   1.742
40735W        W13083  16.256  28.639  12.890
40736W        W13084  44.347  32.937   2.895
40737W        W13085  40.408  16.586   0.442
40738W        W13086  38.960   9.288  12.987
40739W        W13087   2.723   9.747  14.457
40740W        W13088  43.363  37.059  11.555
40741W        W13089  24.207  16.072   2.784
40742W        W13090  30.114  29.657   4.816
40743W        W13091   7.732  36.865  12.578
40744W        W13092  13.334  18.165  13.865
40745W        W13093  26.459  28.542   5.216
40746W        W13094  34.871  33.949   2.202
40747W        W13095  35.096  23.124  14.283
40748W        W13096  25.543  10.669   3.277
40749W        W13097  40.328  23.075  13.883
40750W        W13098  34.435  20.715   1.417
40751W        W13099  17.627  24.702   4.312
40752W        W13100  25.476  20.567   3.291
40753W        W13101   1.416   2.253  10.466
40754W        W13102  40.327  39.427   3.355
40755W        W13103   9.357  19.764  11.504
40756W        W13104  32.992  18.698   2.688
40757W        W13105   4.343   6.785   4.128
40758W        W13106  18.241   5.723   0.421
40759W        W13107   0.937  11.722   2.233
40760W        W13108  29.130   2.768  13.909
40761W        W13109  17.625  12.832  11.916
40762W        W13110  41.808  41.364   1.276
40763W        W13111   9.821  24.008   0.255
40764W        W13112  20.153  39.855  14.788
40765W        W13113   1.886  19.047   3.160
40766W        W13114  25.963   6.701   4.706
40767W        W13115   2.892   4.759  11.532
40768W        W13116  14.746  38.568  13.021
40769W        W13117   6.425  35.586   3.813
40770W        W13118  24.131  29.118  13.997
40771W        W13119  35.047  17.136   1.884
40772W        W13120   7.841  18.714  14.775
40773W        W13121  21.516   1.833  14.007
40774W        W13122   1.800   3.948  13.375
40775W        W13123   6.301  43.775  12.866
40776W        W13124  39.926  37.954  12.913
40777W        W13125  30.480   4.289  12.508
40778W        W13126   9.313   3.839   4.176
40779W        W13127   5.405  16.715   0.951
40780W        W13128  15.823  18.215   2.846
40781W        W13129  39.380  40.379   1.254
40782W        W13130  27.689   7.360   4.209
40783W        W13131  19.091   5.795   0.882
40784W        W13132  28.139  15.794   9.940
40785W        W13133  31.601  38.478  14.885
40786W        W13134   1.479  21.528   1.776
40787W        W13135  14.818   7.861   3.320
40788W        W13136  41.372   3.719   3.367
40789W        W13137  35.023  43.798  12.073
40790W        W13138   8.195  22.165   4.610
40791W        W13139  43.783   1.897  10.986
40792W        W13140   9.351  13.122  12.565
40793W        W13141  23.604  30.429  10.452
40794W        W13142  42.282  18.764   4.602
40795W        W13143  28.985  13.179   1.808
40796W        W13144  18.765  27.061  13.419
40797W        W13145   9.188   9.311  11.930
40798W        W13146  13.324  17.168   5.254
40799W        W13147  13.301  37.574   0.244
40800W        W13148  32.978   2.836   4.285
40801W        W13149  15.756  16.119   4.701
40802W        W13150   9.741  28.939  12.916
40803W        W13151  14.277   5.356   2.795
40804W        W13152  11.730  34.066   3.819
40805W        W13153  20.626  25.694  14.772
40806W        W13154  17.223  16.707   2.895
40807W        W13155  24.220  37.422  14.823
40808W        W13156  23.047  40.800  12.932
40809W        W13157  23.985   1.279   4.776
40810W        W13158  32.015  35.477   3.167
40811W        W13159  13.672   4.889  14.867
40812W        W13160  10.259  13.751   3.285
40813W        W13161  16.207  15.668  12.931
40814W        W13162   6.426   5.404  10.999
40815W        W13163  18.064  17.142   0.817
40816W        W13164  23.525  22.196  13.021
40817W        W13165   5.809   1.745   1.881
40818W        W13166  39.061  12.695   1.739
40819W        W13167  25.071  33.583   1.920
40820W        W13168  21.703  41.846  13.058
40821W        W13169  20.074  33.060  11.443
40822W        W13170  33.030  38.452  11.579
40823W        W13171  36.943   5.750  10.643
40824W        W13172  42.818  35.422  12.369
40825W        W13173  37.026  30.610   2.875
40826W        W13174  44.862  23.207  11.053
40827W        W13175   4.404  14.775  14.922
40828W        W13176  12.173  14.101   1.866
40829W        W13177  25.217   5.802   4.283
40830W        W13178  17.069  26.067   4.235
40831W        W13179  17.184  15.688   2.758
40832W        W13180  22.115  26.613   2.238
40833W        W13181  15.686  31.932  13.838
40834W        W13182  41.043  42.356   2.383
40835W        W13183  15.819  24.675  13.477
40836W        W13184  15.095  40.859   1.784
40837W        W13185  22.042  13.746   2.683
40838W        W13186  43.278  37.527   1.438
40839W        W13187  16.208   1.467  11.593
40840W        W13188  36.017  26.476   0.758
40841W        W13189  27.176  37.350  14.003
40842W        W13190   8.794  24.097   4.608
40843W        W13191  34.934  11.180  14.961
40844W        W13192  34.081   5.927  10.461
40845W        W13193  24.485  33.086   3.693
40846W        W13194  13.693  20.122   2.359
40847W        W13195  16.603  16.240   1.776
40848W        W13196   2.785   1.246  14.366
40849W        W13197  42.849   4.322   0.307
40850W        W13198  24.102   0.950   0.273
40851W        W13199  36.422  23.583   1.377
40852W        W13200  22.082  36.012  12.876
40853W        W13201  37.564  12.821  10.406
40854W        W13202  39.526   6.865   5.572
40855W        W13203  25.525  22.996   2.208
40856W        W13204  18.652  34.509  10.964
40857W        W13205   8.760   8.189  13.012
40858W        W13206  43.280   7.302   0.289
40859W        W13207  19.768  41.866   2.739
40860W        W13208   2.846  24.709   0.871
40861W        W13209  38.934  29.531  11.908
40862W        W13210  34.570  38.360  10.560
40863W        W13211   3.226  38.065  14.459
40864W        W13212  38.992  27.147  10.906
40865W        W13213  41.326  34.051  14.876
40866W        W13214  27.472  26.614   2.293
40867W        W13215   4.717  13.161  13.014
40868W        W13216  35.601  42.471   4.220
40869W        W13217   8.760  15.161   2.676
40870W        W13218  36.437  17.691  10.980
40871W        W13219   6.725  19.111   1.860
40872W        W13220  24.140  39.402  12.006
40873W        W13221  34.510  18.557   3.163
40874W        W13222  30.494  19.712  14.293
40875W        W13223  12.771  41.460   3.688
40876W        W13224  31.941  14.266  12.031
40877W        W13225  16.076  16.594  13.525
40878W        W13226  26.149  40.412   4.744
40879W        W13227  15.104   3.857  11.587
40880W        W13228   1.863  27.128  10.460
40881W        W13229   2.341   3.430  10.946
40882W        W13230  43.869  34.915  13.040
40883W        W13231  15.687  11.714   0.242
40884W        W13232  32.132  15.125  14.862
40885W        W13233  43.798   1.775   1.249
40886W        W13234  21.145  16.198  11.515
40887W        W13235   2.933  23.677   2.178
40888W        W13236  29.446  18.197   4.719
40889W        W13237  18.752   0.816  10.999
40890W        W13238  23.084  25.040  11.856
40891W        W13239  44.981  37.447  11.061
40892W        W13240  13.284  33.892  14.879
40893W        W13241   9.677  23.042  11.584
40894W        W13242   5.882   7.888   0.446
40895W        W13243   5.850   8.331  11.075
40896W        W13244  22.515  42.361   4.618
40897W        W13245   7.381   3.316  13.365
40898W        W13246  18.703  43.328   1.318
40899W        W13247  13.656  11.838  10.531
40900W        W13248  26.695  28.544  14.473
40901W        W13249  27.131  27.096   2.788
40902W        W13250  32.428  18.620   2.692
40903W        W13251   3.794  13.795  11.434
40904W        W13252   3.812  37.513   2.682
40905W        W13253   6.732  30.641  13.896
40906W        W13254  12.117  44.816   1.235
40907W        W13255  33.604   0.869   2.233
40908W        W13256  18.657  17.082   1.786
40909W        W13257  20.705  32.135  13.938
40910W        W13258  33.456  25.691   4.702
40911W        W13259  22.135  41.826   1.891
40912W        W13260   7.402  25.512   2.240
40913W        W13261  13.758   6.785   1.878
40914W        W13262  16.189  11.341   0.868
40915W        W13263   2.726  30.438  10.503
40916W        W13264  33.956  14.175   3.235
40917W        W13265  18.088  27.514   0.954
40918W        W13266  38.458  24.584   3.749
40919W        W13267  24.547  16.653   2.194
40920W        W13268  10.316  38.014  10.581
40921W        W13269  44.883  39.813  10.474
40922W        W13270   9.336  36.452   0.770
40923W        W13271  21.729  35.484   1.886
40924W        W13272  28.532  21.615   0.867
40925W        W13273  28.968   8.794   2.193
40926W        W13274  12.340  16.621  12.494
40927W        W13275   9.839  40.986   1.360
40928W        W13276  24.150  11.755   4.216
40929W        W13277   7.286  35.430  12.369
40930W        W13278  25.530  25.074  11.058
40931W        W13279   3.830  33.566   4.195
40932W        W13280   1.293   2.231   4.288
40933W        W13281  22.041  41.909   3.812
40934W        W13282  36.081   3.953  13.536
40935W        W13283  40.489   2.940   4.308
40936W        W13284  44.956   7.726  12.906
40937W        W13285  26.040  16.184   4.646
40938W        W13286   4.258  20.171   3.314
40939W        W13287  42.807  32.556  14.968
40940W        W13288  37.072  14.617   3.688
40941W        W13289  25.710  14.666   3.845
40942W        W13290  36.906  38.835  13.819
40943W        W13291   2.436  21.148  10.106
40944W        W13292  38.524   8.863   2.798
40945W        W13293   7.856   8.850   3.634
40946W        W13294  13.346  11.861  14.010
40947W        W13295  38.480  17.075  11.030
40948W        W13296  16.250  42.363  14.435
40949W        W13297  29.626   7.191  13.898
40950W        W13298  16.758  34.471   0.830
40951W        W13299   4.919   5.707   2.283
40952W        W13300  13.208  15.715   2.339
40953W        W13301  36.452  34.076   0.357
40954W        W13302  19.141  23.045   1.315
40955W        W13303  23.580   7.400   1.433
40956W        W13304   2.424  14.150   2.819
40957W        W13305  13.787  20.147  13.308
40958W        W13306   7.755  33.948  14.320
40959W        W13307  16.134   9.745  12.366
40960W        W13308   3.778  22.705  13.936
40961W        W13309  44.343  37.082   1.918
40962W        W13310  12.247  17.740  12.030
40963W        W13311  12.243  24.997   4.818
40964W        W13312   2.965  26.701   3.730
40965W        W13313  27.949  16.716  12.543
40966W        W13314   0.393  36.541  12.951
40967W        W13315  21.053  22.048  14.343
40968W        W13316  43.349   0.272  12.833
40969W        W13317  27.969  12.696   3.770
40970W        W13318  12.151   1.781  10.435
40971W        W13319  28.630  35.922   3.836
40972W        W13320  13.320  10.283   4.659
40973W        W13321  41.426   4.816   4.127
40974W        W13322  37.470  25.700  14.949
40975W        W13323  40.893   6.917   3.753
40976W        W13324  17.127  35.376  12.945
40977W        W13325  38.530  22.118   1.851
40978W        W13326  35.857  18.060   2.856
40979W        W13327   8.767   5.689   2.343
40980W        W13328  12.819  36.450   2.863
40981W        W13329  39.386  20.265   4.350
40982W        W13330   5.826  32.391  10.439
40983W        W13331  25.698  39.507   1.867
40984W        W13332  17.755  44.370   3.720
40985W        W13333  27.654   4.923   3.729
40986W        W13334  26.010  13.211  13.988
40987W        W13335   0.394  14.235  13.910
40988W        W13336   6.369  18.554   3.227
40989W        W13337   0.923  41.352   3.291
40990W        W13338  32.002  19.721  14.332
40991W        W13339  34.046   1.352  14.938
40992W        W13340   7.874  34.056   0.860
40993W        W13341  30.148  15.760   5.253
40994W        W13342  13.246  40.337  14.312
40995W        W13343  14.832   9.168   3.720
40996W        W13344  35.020  43.002   3.168
40997W        W13345   4.914  14.238   1.316
40998W        W13346  28.985  31.558   1.405
40999W        W13347  39.968  27.155   3.275
41000W        W13348  33.974  11.157   0.898
41001W        W13349  22.157  16.150  12.523
41002W        W13350  21.721   7.238  12.355
41003W        W13351   1.848  28.477  13.435
41004W        W13352  32.455  22.183   0.287
41005W        W13353   3.265  24.599   3.728
41006W        W13354  37.388  24.644   3.220
41007W        W13355  40.901   9.306   0.929
41008W        W13356   4.712   9.292  13.993
41009W        W13357  37.994   6.398  12.044
41010W        W13358  14.317  14.165   2.763
41011W        W13359  31.914  13.188  10.967
41012W        W13360   9.328  20.572   1.256
41013W        W13361  18.071   1.852   0.799
41014W        W13362  15.144  31.638   2.408
41015W        W13363   8.788  10.205   2.843
41016W        W13364   6.363  29.523   3.218
41017W        W13365  40.363   3.357   1.360
41018W        W13366   6.306  12.680  11.485
41019W        W13367  41.531  12.840  13.506
41020W        W13368  21.149   4.721   2.390
41021W        W13369  31.008  30.639  10.603
41022W        W13370  24.558   5.898   1.275
41023W        W13371  30.152   0.904  12.396
41024W        W13372  18.745  12.284   0.804
41025W        W13373  19.166  14.757  11.397
41026W        W13374   8.757   2.784   0.937
41027W        W13375  37.445  33.058   2.688
41028W        W13376  36.877  22.714   1.231
41029W        W13377  24.585  21.168  12.000
41030W        W13378  17.742  43.423   0.464
41031W        W13379  15.787  34.943   3.736
41032W        W13380  40.807  15.766   1.363
41033W        W13381  29.547  20.659   1.412
41034W        W13382  13.244  28.076  11.532
41035W        W13383  26.075   3.380  14.516
41036W        W13384  36.883  43.271  10.616
41037W        W13385  39.451  17.795   1.273
41038W        W13386  41.491  21.080   3.839
41039W        W13387  43.318  13.348   3.750
41040W        W13388  28.178   9.301   1.713
41041W        W13389  34.498   0.981  12.988
41042W        W13390   4.349  19.262  14.503
41043W        W13391  33.942  22.189  11.475
41044W        W13392  34.524   7.787  12.540
41045W        W13393  11.135  42.805  12.434
41046W        W13394  42.989  37.431   3.770
41047W        W13395   9.290  33.023  12.035
41048W        W13396  10.697  26.066  13.912
41049W        W13397  25.974   7.713  11.921
41050W        W13398  41.528  11.760  12.465
41051W        W13399  11.757  12.125   3.747
41052W        W13400   8.188  22.678   1.833
41053W        W13401  29.043  16.567  10.613
41054W        W13402  36.365   9.733  11.128
41055W        W13403   4.229  14.141   0.245
41056W        W13404  44.937  36.866  11.538
41057W        W13405  22.510   9.233   2.361
41058W        W13406  26.030  13.301  14.820
41059W        W13407   2.252  38.388  10.448
41060W        W13408  30.065  27.687  14.947
41061W        W13409  35.538  16.072   4.135
41062W        W13410   6.790  33.544   5.089
41063W        W13411   3.948  10.762   0.934
41064W        W13412   8.258  42.864  11.472
41065W        W13413  19.122  37.944   4.162
41066W        W13414  23.122  40.482   4.784
41067W        W13415  15.624   0.845   2.255
41068W        W13416   0.359  10.215  14.504
41069W        W13417  18.745  43.768   0.263
41070W        W13418   6.213  39.430   3.234
41071W        W13419   3.809   8.834   0.865
41072W        W13420  20.189   0.267   0.736
41073W        W13421  15.747  24.124   3.370
41074W        W13422  16.584  28.556  11.084
41075W        W13423  28.638   5.291   0.952
41076W        W13424  40.354  26.572  10.484
41077W        W13425  20.580  25.045  14.798
41078W        W13426  38.858  29.157  14.294
41079W        W13427  30.129   2.815  12.343
41080W        W13428  12.764  13.335  14.500
41081W        W13429  17.279   3.882  12.902
41082W        W13430   6.342  26.104   4.758
41083W        W13431  24.631   5.896   1.752
41084W        W13432  12.134  26.188  12.481
41085W        W13433  41.455  39.548  14.024
41086W        W13434  18.051  13.833  12.511
41087W        W13435  26.029   0.892  12.882
41088W        W13436  10.252  12.145   0.888
41089W        W13437   7.751  26.683   3.340
41090W        W13438  31.438   6.780  11.109
41091W        W13439  27.627  13.143   1.714
41092W        W13440  31.081  34.961  11.481
41093W        W13441  10.681  23.561   4.745
41094W        W13442  40.893   2.782   2.381
41095W        W13443  13.765   4.285  13.805
41096W        W13444  39.030   1.397   1.760
41097W        W13445  26.173  18.168   2.900
41098W        W13446  13.317   4.819   3.709
41099W        W13447  34.030   6.760  10.554
41100W        W13448  23.135   8.836   1.446
41101W        W13449  14.655  28.527   0.393
41102W        W13450  20.171  30.627  12.824
41103W        W13451  19.733  19.577   3.254
41104W        W13452  37.510   2.299   2.313
41105W        W13453  43.941   8.248  13.002
41106W        W13454  13.198  19.569  11.431
41107W        W13455  37.555  15.615  14.860
41108W        W13456  18.757  17.644  11.482
41109W        W13457  22.231   3.445  13.000
41110W        W13458  22.678  16.744   3.382
41111W        W13459  13.827  34.062   2.791
41112W        W13460  28.081  22.132   2.233
41113W        W13461  30.086  41.417   3.711
41114W        W13462  36.461   3.248   3.227
41115W        W13463  23.031   3.333  12.962
41116W        W13464   0.949  34.418   1.382
41117W        W13465  23.111   0.307   2.768
41118W        W13466  32.413   3.783   3.656
41119W        W13467  19.557  43.498  14.930
41120W        W13468  44.969   3.927   4.219
41121W        W13469  12.690  22.151  11.405
41122W        W13470  29.588  14.218   4.640
41123W        W13471  27.615  42.370  11.558
41124W        W13472  32.468  42.969   3.271
41125W        W13473   9.798  16.631   1.329
41126W        W13474  16.144  19.208  14.888
41127W        W13475  29.953  18.181  13.542
41128W        W13476  32.577  10.320  11.400
41129W        W13477  20.729  33.506   4.166
41130W        W13478   8.711  34.987  13.814
41131W        W13479  33.523   2.936   4.215
41132W        W13480  35.916  19.132  11.447
41133W        W13481  33.417   8.817  11.861
41134W        W13482   2.835   5.230  13.955
41135W        W13483  22.714  35.037   2.226
41136W        W13484  17.182  34.535  13.405
41137W        W13485  29.486  25.184  10.534
41138W        W13486  17.578   2.789   2.384
41139W        W13487  20.555   8.870  12.562
41140W        W13488   1.762  38.052  12.484
41141W        W13489  18.558  13.174   3.845
41142W        W13490  20.143  34.452  13.313
41143W        W13491  31.049   6.271  12.095
41144W        W13492  40.437  44.831  13.457
41145W        W13493  10.151  24.018   1.721
41146W        W13494   5.434   4.218  12.371
41147W        W13495   0.450   9.780   0.439
41148W        W13496  24.508  21.552  14.436
41149W        W13497  34.061  24.651   1.928
41150W        W13498  43.316  23.625   4.214
41151W        W13499  33.032  18.610  14.438
41152W        W13500  41.393  38.456  13.525
41153W        W13501   4.377  38.380   1.390
41154W        W13502  12.275  24.662   4.163
41155W        W13503  28.583  12.723   1.838
41156W        W13504  24.700  42.480  14.794
41157W        W13505  33.927   9.283  11.538
41158W        W13506  29.642  34.541  12.001
41159W        W13507   8.197   4.886  11.529
41160W        W13508  41.803   8.766  11.375
41161W        W13509  15.265  14.783   2.820
41162W        W13510  36.881  39.537   4.214
41163W        W13511   2.345  39.469   1.817
41164W        W13512  33.945  25.580   3.152
41165W        W13513  15.242  35.068   1.226
41166W        W13514  14.779  41.922   4.636
41167W        W13515  30.935  40.920  12.366
41168W        W13516  29.921  16.215  13.022
41169W        W13517  11.711  43.871  10.414
41170W        W13518  16.114  14.202   0.781
41171W        W13519   3.412   9.784   2.665
41172W        W13520  16.144  25.963   0.905
41173W        W13521   4.723  12.668   2.301
41174W        W13522  22.060  10.776  13.903
41175W        W13523  20.030  42.002   3.286
41176W        W13524  14.626   5.919  14.959
41177W        W13525  32.509  26.979   3.737
41178W        W13526  14.759  23.232   3.367
41179W        W13527  42.426  42.981  13.859
41180W        W13528  33.877  13.722   0.753
41181W        W13529  33.573  14.164  12.900
41182W        W13530  33.034  33.936   5.208
41183W        W13531  25.679   7.683   1.847
41184W        W13532  38.829  16.113   5.118
41185W        W13533   1.740  39.371  13.917
41186W        W13534  26.061  24.665  11.591
41187W        W13535  19.134   8.726   4.300
41188W        W13536  36.554   4.209  12.406
41189W        W13537  44.440   8.226  14.954
41190W        W13538  18.593  16.647   3.385
41191W        W13539  40.913  16.224   1.850
41192W        W13540  40.452  21.546  13.933
41193W        W13541  27.577   1.418  11.055
41194W        W13542  15.148  17.225  13.393
41195W        W13543  18.079   8.812   3.680
41196W        W13544  25.522  40.548  11.568
41197W        W13545  17.232  14.719  10.564
41198W        W13546  10.293  11.162   4.276
41199W        W13547  21.189  11.817   3.151
41200W        W13548   3.714  11.203   1.372
41201W        W13549   9.672  18.778  10.448
41202W        W13550  26.980  14.299  13.389
41203W        W13551  28.493  12.218  10.542
41204W        W13552  12.296  28.142  10.614
41205W        W13553  10.176  30.137  13.540
41206W        W13554  33.117   4.310   4.250
41207W        W13555  31.543  38.929   4.304
41208W        W13556   8.278  13.210   1.413
41209W        W13557  14.654  15.104   3.718
41210W        W13558   3.339   0.946  10.634
41211W        W13559  36.499   7.909   4.306
41212W        W13560  34.424  23.173  14.979
41213W        W13561  36.011  18.688  10.467
41214W        W13562  43.922  16.306   0.943
41215W        W13563  42.940  39.007  11.126
41216W        W13564  33.578  41.347  13.337
41217W        W13565   9.160   8.750   4.286
41218W        W13566  40.972  12.707  10.436
41219W        W13567   2.955   0.965  12.848
41220W        W13568  41.427  35.572   2.676
41221W        W13569  19.245   0.264  12.467
41222W        W13570   9.879   2.240  14.886
41223W        W13571  18.121  32.633  11.537
41224W        W13572   0.892  28.089   4.132
41225W        W13573  11.150  40.845   4.212
41226W        W13574  36.079  20.576  10.521
41227W        W13575  11.722  23.655   4.697
41228W        W13576  41.440  23.672  12.488
41229W        W13577  42.421  44.836  12.935
41230W        W13578  24.039  17.732  12.567
41231W        W13579  11.633   6.250   4.732
41232W        W13580  29.603  43.490   0.823
41233W        W13581  23.614  35.890   0.412
41234W        W13582  33.405  10.643  10.476
41235W        W13583   9.857   9.678   4.791
41236W        W13584  23.166  19.779   0.324
41237W        W13585   3.831  43.841   4.681
41238W        W13586  26.687  40.909   0.426
41239W        W13587   6.357   1.774  13.347
41240W        W13588  32.097  33.071  12.375
41241W        W13589  12.853   2.255  10.415
41242W        W13590  30.091  15.699   1.395
41243W        W13591  40.848   0.287  13.914
41244W        W13592  23.494   1.385   2.793
41245W        W13593   4.826  12.217   3.796
41246W        W13594  40.934  38.477  10.967
41247W        W13595  40.924  22.244   4.760
41248W        W13596  37.474  26.677  10.540
41249W        W13597  15.669  43.911   3.749
41250W        W13598  13.749   3.214   2.380
41251W        W13599  36.976  27.547  13.829
41252W        W13600  28.096   2.739   2.865
41253W        W13601  18.171  33.593  13.892
41254W        W13602   1.470  24.614   2.341
41255W        W13603  35.578   0.804   2.862
41256W        W13604  36.927  32.011  13.953
41257W        W13605  31.419  17.728   4.308
41258W        W13606  36.844  38.436  11.477
41259W        W13607  14.739  39.839   0.302
41260W        W13608  35.076  11.158   0.420
41261W        W13609   4.885  37.849   0.825
41262W        W13610  29.517  14.333  10.628
41263W        W13611   7.900  42.927   4.159
41264W        W13612  35.852  32.411   3.307
41265W        W13613  16.733  38.430  11.896
41266W        W13614  17.096   5.369   1.735
41267W        W13615   5.867   0.435  12.910
41268W        W13616  20.223  18.674  14.342
41269W        W13617  39.945  42.001   4.776
41270W        W13618   5.363   5.860   0.958
41271W        W13619  25.194  23.993  11.530
41272W        W13620  32.627  32.565   1.922
41273W        W13621  43.844  19.040  13.949
41274W        W13622  39.039   6.698  12.346
41275W        W13623  27.655  11.219  13.431
41276W        W13624   4.210   8.768  14.925
41277W        W13625  13.253  36.098   5.126
41278W        W13626  43.774  13.619  13.423
41279W        W13627  26.957  14.792  12.910
41280W        W13628  27.494   5.421  10.622
41281W        W13629  25.029   7.174   1.395
41282W        W13630  20.184   5.254  12.055
41283W        W13631  13.718  15.749  12.035
41284W        W13632  42.896   7.413   0.873
41285W        W13633   0.946  33.492  13.900
41286W        W13634  18.164  12.687  11.545
41287W        W13635  41.913  29.951   4.244
41288W        W13636  34.047   8.188   4.320
41289W        W13637  20.705  38.349  12.576
41290W        W13638  22.601   1.800  12.032
41291W        W13639   9.869   0.252   2.263
41292W        W13640   9.844   3.277   2.809
41293W        W13641  38.546  43.389   3.373
41294W        W13642  29.118   1.359   1.319
41295W        W13643  41.466  31.492  14.333
41296W        W13644  22.678   0.778  10.108
41297W        W13645  37.853  19.570   3.169
41298W        W13646  25.580  31.607   2.876
41299W        W13647  16.219  40.954   2.214
41300W        W13648  21.652  30.444   1.290
41301W        W13649  23.527  35.881   1.799
41302W        W13650   5.743   1.444  14.929
41303W        W13651  12.845  20.181  14.278
41304W        W13652  42.451  30.574   0.945
41305W        W13653  23.660  17.142   0.299
41306W        W13654  20.219  41.017   3.745
41307W        W13655  34.496  19.565  11.408
41308W        W13656  28.107  24.018   0.279
41309W        W13657  23.019  32.603  11.106
41310W        W13658  15.276   8.824   3.155
41311W        W13659  10.660   4.927  10.621
41312W        W13660  36.491  11.172  12.435
41313W        W13661  13.173  18.708  12.347
41314W        W13662  43.444  39.384  13.042
41315W        W13663  20.709   2.861  14.939
41316W        W13664  14.595  42.336   0.251
41317W        W13665  36.855  12.745  14.911
41318W        W13666  26.098  29.156   4.207
41319W        W13667  25.480  36.936   4.708
41320W        W13668  33.922  36.939  11.064
41321W        W13669  32.444  18.652  11.421
41322W        W13670  23.200  39.530   1.220
41323W        W13671  34.491  21.730  14.277
41324W        W13672   8.386  29.924   3.152
41325W        W13673  34.586  40.816  11.523
41326W        W13674   5.272  20.575  14.314
41327W        W13675  42.438  36.504  11.014
41328W        W13676  17.689   0.416  14.435
41329W        W13677  32.109  11.630  14.907
41330W        W13678  41.803  21.745   1.331
41331W        W13679   8.836  21.666   0.419
41332W        W13680  40.849  26.563   4.787
41333W        W13681  28.144   3.772   1.303
41334W        W13682  20.196  42.289  13.867
41335W        W13683  36.396  18.145  13.052
41336W        W13684  27.501   1.432   2.717
41337W        W13685   5.218  39.520   4.273
41338W        W13686   4.210  22.007   2.389
41339W        W13687  15.221  23.011   0.756
41340W        W13688  10.337  35.944  14.030
41341W        W13689  43.453  22.011   3.820
41342W        W13690   8.700  21.138   2.667
41343W        W13691   2.454  27.539  14.835
41344W        W13692   4.803  19.178  11.459
41345W        W13693  31.935  30.936  10.889
41346W        W13694   5.914  16.097   4.273
41347W        W13695  41.297  24.027  10.891
41348W        W13696  14.134  24.508   2.828
41349W        W13697  16.211  44.789  11.974
41350W        W13698  10.666  19.706   2.670
41351W        W13699  28.594   9.210  11.099
41352W        W13700   3.384   5.901  12.518
41353W        W13701  10.315  37.008  13.906
41354W        W13702  29.551   4.320  11.991
41355W        W13703  10.352  17.570   0.732
41356W        W13704  24.130  36.437  11.462
41357W        W13705  23.004  32.537   1.890
41358W        W13706  31.417  21.547  14.504
41359W        W13707   9.844  18.062  14.912
41360W        W13708  38.487  18.072  12.361
41361W        W13709   4.312  22.716   1.834
41362W        W13710  18.617  38.504  13.023
41363W        W13711  38.498  40.053  10.950
41364W        W13712  22.517  20.107  11.010
41365W        W13713  12.692  31.609  12.375
41366W        W13714  43.898  31.496  12.947
41367W        W13715  16.669   2.294   1.728
41368W        W13716  28.129  34.544   0.279
41369W        W13717  13.766  10.302  10.977
41370W        W13718  32.496  25.528   0.875
41371W        W13719  35.603  39.345   4.715
41372W        W13720  27.544  36.975  11.459
41373W        W13721   1.417  35.562   2.813
41374W        W13722  34.564  18.276  12.548
41375W        W13723  22.727  44.460   2.846
41376W        W13724   2.800  36.011   0.937
41377W        W13725  33.577  37.064  13.959
41378W        W13726  27.580  42.461  11.861
41379W        W13727   1.799  24.570  12.835
41380W        W13728  15.582  17.786  13.003
41381W        W13729  31.621  16.624  14.994
41382W        W13730   9.340  41.437   1.804
41383W        W13731  16.590   4.312  11.556
41384W        W13732  22.179  26.538  14.417
41385W        W13733  29.060   6.801   1.382
41386W        W13734   7.847  20.728  13.960
41387W        W13735  20.542  10.299   0.293
41388W        W13736  24.071  37.538  10.095
41389W        W13737   7.302  29.480   2.880
41390W        W13738  23.690  32.930   1.386
41391W        W13739  14.162  36.990  14.878
41392W        W13740  35.959  33.486   3.681
41393W        W13741  12.748  11.139   1.833
41394W        W13742  23.730  13.262   0.379
41395W        W13743  34.387  22.713  14.024
41396W        W13744  43.467  17.741   1.779
41397W        W13745  44.271  18.269  11.479
41398W        W13746  29.174   4.449  11.975
41399W        W13747  36.075  21.230  10.943
41400W        W13748  15.657  38.032   3.823
41401W        W13749  21.156   8.848   0.899
41402W        W13750  35.603  42.338   1.296
41403W        W13751  36.989  25.129  14.803
41404W        W13752  16.213  26.575   3.661
41405W        W13753  32.490  43.294  12.397
41406W        W13754  14.605   2.936   1.306
41407W        W13755  22.233  43.443   1.329
41408W        W13756  44.466  34.568  13.426
41409W        W13757  29.084  10.790  12.005
41410W        W13758  13.187  39.492  10.515
41411W        W13759  12.650  12.621  10.491
41412W        W13760  21.734  33.561   3.268
41413W        W13761  18.198  34.540  14.370
41414W        W13762   1.292  44.477   1.216
41415W        W13763  33.952  35.097   0.857
41416W        W13764  43.912  20.055   1.213
41417W        W13765  20.746  11.762   0.374
41418W        W13766  14.239  29.554   4.330
41419W        W13767  37.566  20.546   9.562
41420W        W13768  27.101  29.157  13.862
41421W        W13769  42.456  18.233  10.938
41422W        W13770  40.811  35.401   0.379
41423W        W13771  17.173   4.212  13.390
41424W        W13772  24.501   9.645   3.273
41425W        W13773  19.654  29.139  14.918
41426W        W13774  34.405  29.566  10.510
41427W        W13775  25.032   6.377  11.586
41428W        W13776  13.689  41.846  12.466
41429W        W13777  34.600   4.381  14.329
41430W        W13778  20.755  44.947  12.976
41431W        W13779  16.610  19.167   0.419
41432W        W13780   8.363  40.460  11.011
41433W        W13781  41.356  30.651   3.630
41434W        W13782  16.308  19.599   0.454
41435W        W13783  35.934  40.327  14.446
41436W        W13784  20.605  34.019   0.908
41437W        W13785   9.794   6.361  11.078
41438W        W13786  33.439   1.432  14.957
41439W        W13787  25.179  39.436   4.815
41440W        W13788  35.999   1.273  10.462
41441W        W13789  11.706   2.450   0.959
41442W        W13790  20.607  17.265  13.334
41443W        W13791   5.878  43.793  11.876
41444W        W13792  30.633  35.597   2.181
41445W        W13793  43.817  38.030   1.783
41446W        W13794  21.131  40.956   0.915
41447W        W13795   8.218  32.963  11.420
41448W        W13796  35.081  29.919  14.390
41449W        W13797  40.930  37.941  14.860
41450W        W13798  42.425  43.496  14.478
41451W        W13799  35.484   6.388   2.201
41452W        W13800  14.592  23.169  14.850
41453W        W13801  16.096   1.405  11.939
41454W        W13802  39.464  44.493   0.868
41455W        W13803   0.819   4.940   2.741
41456W        W13804  11.727  42.823  13.044
41457W        W13805   1.446  28.641   0.878
41458W        W13806  30.912  19.562  10.567
41459W        W13807  10.847  21.557   0.887
41460W        W13808  18.771   6.188  11.509
41461W        W13809  41.931   4.733  12.994
41462W        W13810  20.647  35.438   1.906
41463W        W13811  30.050  11.693  13.864
41464W        W13812  14.737  16.624   1.702
41465W        W13813   6.357  37.562  10.408
41466W        W13814  17.560  11.322  10.588
41467W        W13815  44.480   0.273   4.342
41468W        W13816  23.687  36.400  12.555
41469W        W13817  24.114   2.874  12.950
41470W        W13818   1.280  44.374   0.375
41471W        W13819  16.600  40.987  11.539
41472W        W13820  25.038  28.943  11.418
41473W        W13821   8.827  11.767  13.934
41474W        W13822  28.460  27.967  10.567
41475W        W13823  26.481  29.153  10.459
41476W        W13824   4.717  41.030   2.672
41477W        W13825  20.137  43.013  11.491
41478W        W13826  42.863   8.877  10.574
41479W        W13827  32.122  14.628  12.032
41480W        W13828  37.411   4.802   4.262
41481W        W13829  28.102  44.892   1.765
41482W        W13830  30.064   5.696   5.152
41483W        W13831  22.020  28.933   3.691
41484W        W13832  10.166  41.536   1.268
41485W        W13833  12.269  30.985   3.263
41486W        W13834   8.842  20.576   0.365
41487W        W13835  33.113   5.914  10.633
41488W        W13836  33.915  29.119   0.961
41489W        W13837  14.829  25.031   5.262
41490W        W13838  18.746  26.190  13.994
41491W        W13839  19.593  12.802  11.604
41492W        W13840  32.903  10.669  11.102
41493W        W13841  41.041  30.908   3.264
41494W        W13842  22.197  28.518   1.254
41495W        W13843  39.044  38.571  13.364
41496W        W13844  43.900  24.485   4.828
41497W        W13845   2.277   7.820   2.716
41498W        W13846  28.525  28.578  10.457
41499W        W13847  15.599  11.776  10.483
41500W        W13848  23.492  29.036  12.945
41501W        W13849  37.939  28.559   3.703
41502W        W13850  20.670  34.561   4.140
41503W        W13851   9.685  17.781   2.217
41504W        W13852  14.138  16.637   3.203
41505W        W13853  16.658  27.947  12.824
41506W        W13854  26.601  38.437  14.993
41507W        W13855   3.808   4.920   0.820
41508W        W13856  29.083   2.401   2.691
41509W        W13857  17.608  18.678  14.832
41510W        W13858   8.850  32.057  12.928
41511W        W13859  39.471  42.525  12.372
41512W        W13860  16.614  20.736  13.865
41513W        W13861  31.927  35.867   3.364
41514W        W13862  20.041  15.144  13.832
41515W        W13863  12.845   6.239  10.068
41516W        W13864  11.201  38.905   1.890
41517W        W13865  42.934  28.581  14.961
41518W        W13866  15.206  37.447   4.671
41519W        W13867   7.800  12.691   3.257
41520W        W13868   9.264  11.662   1.360
41521W        W13869  43.397  26.105   4.247
41522W        W13870  29.593  37.335   2.705
41523W        W13871  27.543  29.572  12.511
41524W        W13872  26.097  37.904  14.984
41525W        W13873   0.348  10.759   4.698
41526W        W13874  43.966   6.351  14.943
41527W        W13875  28.610  26.640   0.781
41528W        W13876  32.104   4.249   4.122
41529W        W13877  33.022  34.409  11.070
41530W        W13878  40.473  27.180  14.986
41531W        W13879  39.940  27.998   3.787
41532W        W13880  20.765  13.237  14.385
41533W        W13881  18.187  26.646   0.787
41534W        W13882  22.576  15.772   5.240
41535W        W13883  44.293  40.833  10.954
41536W        W13884  43.306   0.871   3.241
41537W        W13885   4.229   0.362  13.064
41538W        W13886  22.147  22.655  10.473
41539W        W13887   4.354  11.142  14.819
41540W        W13888  25.547   1.439   3.255
41541W        W13889  39.375  33.448   3.659
41542W        W13890  27.460  39.334  11.374
41543W        W13891  28.086  28.992   2.851
41544W        W13892   4.340  20.257  13.316
41545W        W13893  15.129  11.768   0.838
41546W        W13894  14.675  39.944   3.718
41547W        W13895  36.040  15.790   3.207
41548W        W13896  14.296   7.861  13.003
41549W        W13897  20.220  20.705  10.929
41550W        W13898  43.998  18.287   3.671
41551W        W13899   0.955   7.723  11.537
41552W        W13900  26.151   4.891   2.331
41553W        W13901  22.611  31.552   2.807
41554W        W13902  41.815  33.569  10.951
41555W        W13903  38.856  28.614   3.720
41556W        W13904  22.610  27.940  10.450
41557W        W13905  20.073  10.319  13.914
41558W        W13906   5.898  39.340   3.298
41559W        W13907  20.154  44.424   4.268
41560W        W13908  43.343  43.793  10.947
41561W        W13909  32.000  43.458   2.337
41562W        W13910  16.245  23.733   1.815
41563W        W13911  42.486   1.863  14.424
41564W        W13912   0.951   9.839   2.767
41565W        W13913  12.205   2.328   2.733
41566W        W13914  14.265   8.221  10.492
41567W        W13915   6.902   2.906   2.833
41568W        W13916  39.988   4.930  14.283
41569W        W13917  20.713  20.680   4.693
41570W        W13918   9.742  40.858   4.664
41571W        W13919   6.305   0.386   3.842
41572W        W13920  38.071  23.992   2.361
41573W        W13921  22.217  16.712   3.305
41574W        W13922   8.887   3.311   2.679
41575W        W13923   1.346  40.510   3.748
41576W        W13924  21.144   3.293  13.372
41577W        W13925  43.340   5.275   3.782
41578W        W13926  42.954  31.453   1.820
41579W        W13927  29.646  32.066  11.432
41580W        W13928   5.266  25.087   1.725
41581W        W13929  24.641  30.539  11.455
41582W        W13930  11.365  26.578  12.966
41583W        W13931  24.583   0.367  11.947
41584W        W13932  11.224   6.291   5.640
41585W        W13933   5.696   6.224  13.412
41586W        W13934  30.950   2.840  14.369
41587W        W13935  25.170  13.845  10.918
41588W        W13936   8.723  34.595  14.881
41589W        W13937  42.368  23.074   2.398
41590W        W13938  37.029   4.782  14.989
41591W        W13939  37.410  38.973  10.914
41592W        W13940  30.530   6.353  13.811
41593W        W13941  33.015  11.665   4.308
41594W        W13942  28.626  19.144   4.158
41595W        W13943  24.563  36.036   3.319
41596W        W13944  15.614  38.879  14.297
41597W        W13945  24.589   9.361   3.145
41598W        W13946  22.023  40.916   1.429
41599W        W13947  26.561  34.609  12.896
41600W        W13948  35.604  22.610   0.912
41601W        W13949  43.368   4.779   2.200
41602W        W13950  41.824  35.903  13.991
41603W        W13951  27.598  26.982  14.438
41604W        W13952  21.541  43.897  12.388
41605W        W13953  27.482  30.127   4.658
41606W        W13954  26.471   6.894  11.903
41607W        W13955  18.624  28.106  12.994
41608W        W13956  38.960   6.289   1.212
41609W        W13957  18.098  20.646  13.901
41610W        W13958  20.742  33.000   3.700
41611W        W13959  30.640  12.621   0.860
41612W        W13960  33.920  24.502  14.964
41613W        W13961  14.323  38.944   1.831
41614W        W13962  28.493  19.694  10.947
41615W        W13963  21.675   8.221   1.264
41616W        W13964  40.000   5.337  10.549
41617W        W13965  41.959  21.104  13.432
41618W        W13966   5.277  33.062  12.837
41619W        W13967  42.445  20.043   3.663
41620W        W13968   6.786   7.269  10.608
41621W        W13969  20.658  23.166  14.436
41622W        W13970  42.462  38.004   2.259
41623W        W13971  33.929  22.657  11.559
41624W        W13972  13.240  33.500   4.248
41625W        W13973  13.627  26.057   0.341
41626W        W13974   9.769  12.786   0.894
41627W        W13975   6.347  24.716   3.847
41628W        W13976  32.974  35.872   2.662
41629W        W13977  31.057  34.432  14.947
41630W        W13978  34.613   5.417  12.937
41631W        W13979   9.725  35.487  13.374
41632W        W13980  30.464  34.034   2.381
41633W        W13981  21.162   3.379  13.883
41634W        W13982  12.276  31.488  10.925
41635W        W13983  15.585  35.927  10.107
41636W        W13984  23.117  38.871   2.342
41637W        W13985   6.815   4.709   3.166
41638W        W13986  16.096  44.957  10.451
41639W        W13987  29.425  27.017  13.875
41640W        W13988  11.859  35.987  13.791
41641W        W13989   5.335  37.832  13.464
41642W        W13990  42.325   6.412  13.942
41643W        W13991  41.926  41.404  14.358
41644W        W13992   9.742  18.676   1.239
41645W        W13993  29.926  15.741   1.909
41646W        W13994  23.148   9.884   4.323
41647W        W13995  42.347  23.537   4.787
41648W        W13996  36.478  30.024   0.435
41649W        W13997  44.304  38.836   4.823
41650W        W13998  20.221   1.287   3.738
41651W        W13999  43.403  31.939   1.768
41652W        W14000  28.542  35.985  11.424
41653W        W14001  13.291   6.709   1.365
41654W        W14002  39.042  26.496  13.862
41655W        W14003  22.513   9.315  13.974
41656W        W14004  20.666  34.982   1.922
41657W        W14005  27.170  18.748   4.166
41658W        W14006   3.820  19.662   1.396
41659W        W14007   4.906  28.664  13.349
41660W        W14008  16.154  29.005   4.273
41661W        W14009  33.096  38.400   3.757
41662W        W14010  13.814  35.033  13.045
41663W        W14011  18.296  26.100   1.286
41664W        W14012   1.435   8.365  11.006
41665W        W14013  32.109  25.999   4.703
41666W        W14014  33.584  15.710  13.927
41667W        W14015  35.105  31.573   1.741
41668W        W14016  26.066   0.783  13.996
41669W        W14017   4.288  31.052  11.514
41670W        W14018   7.770  11.306  13.490
41671W        W14019  41.300  30.457   3.252
41672W        W14020  32.133  41.479  11.391
41673W        W14021  29.006  26.629   0.796
41674W        W14022  20.551  43.500   4.720
41675W        W14023  40.914  11.808   1.314
41676W        W14024  24.508  28.605   3.183
41677W        W14025  10.249  25.709   3.291
41678W        W14026  38.980  17.138   1.876
41679W        W14027   3.332   8.842   4.719
41680W        W14028  37.908   0.317   0.769
41681W        W14029   3.338  37.563   0.246
41682W        W14030  39.435  22.218  11.525
41683W        W14031  15.785  33.102   4.217
41684W        W14032  22.569  33.614   4.612
41685W        W14033  11.729  30.929   4.191
41686W        W14034  33.534   8.264   0.814
41687W        W14035  44.850  37.468  12.350
41688W        W14036  31.530  39.523  10.445
41689W        W14037  41.335  40.374  10.528
41690W        W14038  22.245  32.036   3.744
41691W        W14039  20.194  28.640  11.453
41692W        W14040  30.438  21.580   2.332
41693W        W14041  17.737  21.046   4.759
41694W        W14042  39.058  17.662  12.918
41695W        W14043  30.448   2.434   3.161
41696W        W14044   1.360   8.840  12.355
41697W        W14045  42.424  19.074  11.587
41698W        W14046  20.159  26.622  14.494
41699W        W14047  41.385  33.936   1.368
41700W        W14048  36.980  14.099   3.294
41701W        W14049  27.625  23.095  13.977
41702W        W14050  40.476   2.749   1.935
41703W        W14051  36.945  42.365  11.590
41704W        W14052   6.415  37.531   4.276
41705W        W14053  24.184   2.358  12.519
41706W        W14054   7.749  11.239  10.593
41707W        W14055   5.757  37.989   0.367
41708W        W14056  24.723  34.523   3.350
41709W        W14057   7.412  37.888   1.413
41710W        W14058  38.993  22.152  10.610
41711W        W14059  22.152  33.589   4.651
41712W        W14060  41.498  37.073   0.890
41713W        W14061  18.113  39.934  11.577
41714W        W14062  35.585  29.059  11.557
41715W        W14063   1.375  13.294   0.350
41716W        W14064  12.804  41.798   0.932
41717W        W14065  40.964  20.250   1.338
41718W        W14066  12.277  40.941  11.866
41719W        W14067   5.914  20.575  10.540
41720W        W14068  25.502  29.566  10.551
41721W        W14069  26.610  16.576  14.347
41722W        W14070  42.393  27.972   2.841
41723W        W14071   8.234   6.866   2.687
41724W        W14072  37.949  18.145   0.763
41725W        W14073  38.496  30.091   2.716
41726W        W14074  10.714   6.325  11.121
41727W        W14075  19.048  33.509  11.520
41728W        W14076  43.900  29.971   3.299
41729W        W14077  44.487  21.030   1.420
41730W        W14078  32.942  17.106   3.163
41731W        W14079  18.722  15.235  12.840
41732W        W14080  27.012   2.379  10.442
41733W        W14081  33.381  18.788   3.687
41734W        W14082  25.185  42.486   4.248
41735W        W14083  26.096  34.964   2.216
41736W        W14084  38.043  39.436   1.861
41737W        W14085  21.611  40.797   0.773
41738W        W14086  33.915  12.632   1.286
41739W        W14087  28.181   7.891   2.208
41740W        W14088  38.445  24.549   2.778
41741W        W14089  21.229   8.664  11.459
41742W        W14090   8.844  39.443  12.409
41743W        W14091  29.122  31.624  11.521
41744W        W14092  23.119   5.363  12.059
41745W        W14093  10.194  24.126   4.683
41746W        W14094   3.848  30.634  14.858
41747W        W14095  36.382  42.837  10.598
41748W        W14096  23.654  33.411  14.468
41749W        W14097  11.738  40.491   2.856
41750W        W14098  23.610   1.469   3.856
41751W        W14099  23.568   9.811   3.658
41752W        W14100  20.099  25.189   1.349
41753W        W14101  17.251   5.318  11.555
41754W        W14102  29.427  39.941  10.554
41755W        W14103  43.505   8.671   1.922
41756W        W14104  37.998  13.176  14.978
41757W        W14105  25.685   5.709  14.348
41758W        W14106  33.551  12.269   1.389
41759W        W14107  15.797  41.881  11.914
41760W        W14108  23.226  29.502  12.455
41761W        W14109  31.906  14.818   2.709
41762W        W14110  33.035  21.588   0.456
41763W        W14111   4.717  27.052  10.409
41764W        W14112  18.070  28.494   1.843
41765W        W14113  19.635   6.844   2.339
41766W        W14114  19.170  35.941   1.872
41767W        W14115  32.061  18.211   2.212
41768W        W14116  10.379   3.950   2.886
41769W        W14117  17.794   8.315  11.455
41770W        W14118  20.126  31.903  13.821
41771W        W14119  44.369  42.284  11.041
41772W        W14120  44.361  42.897  11.483
41773W        W14121  21.131  23.118  12.053
41774W        W14122  20.184  24.009   0.419
41775W        W14123  20.524  39.988  14.482
41776W        W14124  42.822  26.525   3.160
41777W        W14125  13.270  29.018   2.720
41778W        W14126   9.381  42.405  10.961
41779W        W14127  40.849  18.139  13.904
41780W        W14128  25.607  36.474  13.334
41781W        W14129  34.084  20.271  14.462
41782W        W14130  26.200  34.370  14.373
41783W        W14131   1.936  35.081  13.867
41784W        W14132   0.455  20.240   2.178
41785W        W14133   4.312  24.483   3.157
41786W        W14134  15.647  30.109   0.764
41787W        W14135  15.686  32.471  14.018
41788W        W14136  28.543   8.748  10.471
41789W        W14137  34.095  21.109   3.146
41790W        W14138  16.726  19.215  14.376
41791W        W14139  31.118  43.881  11.103
41792W        W14140  43.862  25.002  11.385
41793W        W14141  24.503  27.957   1.313
41794W        W14142   2.842  23.177  12.040
41795W        W14143  39.854   7.380   2.339
41796W        W14144  22.641   2.357   2.383
41797W        W14145  14.337  25.601   5.320
41798W        W14146   7.220  27.559   3.362
41799W        W14147  39.891  13.613  13.383
41800W        W14148  35.090  38.569   1.242
41801W        W14149  31.112  12.135  12.444
41802W        W14150  26.062   6.259   4.726
41803W        W14151  16.681   9.195   1.800
41804W        W14152  36.901  40.355  10.469
41805W        W14153  27.050  41.477  14.006
41806W        W14154  41.042  44.805  14.022
41807W        W14155  40.839  18.723   2.901
41808W        W14156  34.596  15.161   4.688
41809W        W14157  44.910  32.410  11.972
41810W        W14158  35.895  20.105  11.045
41811W        W14159  16.748   9.177  10.535
41812W        W14160  16.233  39.867  14.971
41813W        W14161  34.390  33.997   3.766
41814W        W14162  27.082  17.720  12.412
41815W        W14163  18.087  17.590   2.760
41816W        W14164  44.911  16.609  14.805
41817W        W14165  25.503  24.193   2.702
41818W        W14166  18.233  12.231  13.399
41819W        W14167  27.057  33.013   4.124
41820W        W14168  15.219  17.565   4.662
41821W        W14169  43.962  20.200  14.424
41822W        W14170  31.591  32.071  14.360
41823W        W14171  37.994  32.544   4.712
41824W        W14172   7.383  37.500  12.342
41825W        W14173   6.762  32.995  11.608
41826W        W14174  43.976  26.011   0.850
41827W        W14175  14.691  29.009  12.028
41828W        W14176  14.177  39.030   3.732
41829W        W14177  37.532  27.478   4.646
41830W        W14178   9.848  31.616  11.971
41831W        W14179   5.688   6.388  12.542
41832W        W14180  12.166  41.376  14.832
41833W        W14181  24.060  12.824   3.854
41834W        W14182  39.904   3.347   1.799
41835W        W14183  42.446  21.210  11.857
41836W        W14184   1.916   1.801   0.323
41837W        W14185  30.575  32.424   3.257
41838W        W14186   1.741  32.598  12.041
41839W        W14187  29.554  12.264   1.337
41840W        W14188  29.584   6.426   0.387
41841W        W14189  31.001  18.142   0.780
41842W        W14190  24.178   4.371   0.457
41843W        W14191  35.923  39.480   3.813
41844W        W14192  38.963  11.629   4.765
41845W        W14193  22.108   5.758  10.614
41846W        W14194  40.495  24.021   3.204
41847W        W14195  16.190   9.827   2.330
41848W        W14196  27.549  19.110   1.397
41849W        W14197  14.816  32.612   3.709
41850W        W14198  33.986  17.120   2.702
41851W        W14199   3.330  24.053  13.428
41852W        W14200  38.388  27.116   4.696
41853W        W14201   8.875  36.982  12.517
41854W        W14202   4.217   4.408  12.921
41855W        W14203  37.503   2.408  11.528
41856W        W14204  38.428  16.719   3.708
41857W        W14205   4.247  34.974   1.449
41858W        W14206  21.030  16.655   1.296
41859W        W14207  18.242  21.566  13.440
41860W        W14208   9.779  23.066  14.882
41861W        W14209   8.674  38.881  12.389
41862W        W14210  17.759   3.410   3.337
41863W        W14211  20.218  37.063   3.776
41864W        W14212   8.880   2.447   5.159
41865W        W14213  10.173  16.806   4.622
41866W        W14214  42.854  27.527  13.415
41867W        W14215  39.384  43.877   1.414
41868W        W14216  30.658  35.358   2.826
41869W        W14217  35.445   5.733   2.881
41870W        W14218  34.378  13.328   3.203
41871W        W14219   0.470  44.392   2.776
41872W        W14220   8.307  23.181   0.919
41873W        W14221  35.917  41.461  12.349
41874W        W14222  29.619  27.093   0.389
41875W        W14223   0.317   3.359   4.188
41876W        W14224  19.758  14.676   4.650
41877W        W14225  44.501  14.324  11.921
41878W        W14226  10.278  11.299  11.533
41879W        W14227  16.647  16.189   4.668
41880W        W14228  12.777  20.233   4.740
41881W        W14229  43.361  35.519   3.382
41882W        W14230  29.627   0.277  12.556
41883W        W14231  38.957  41.937   3.865
41884W        W14232  39.981  32.637   1.712
41885W        W14233  39.449  13.312  12.859
41886W        W14234  33.079  20.253  13.890
41887W        W14235  31.521   5.829   3.777
41888W        W14236  16.152  22.199  13.475
41889W        W14237  38.903  13.608  12.997
41890W        W14238   4.867  39.436  11.866
41891W        W14239  43.985  11.662   3.869
41892W        W14240  30.022  26.007  11.106
41893W        W14241  41.030   1.248  10.944
41894W        W14242  17.168  13.675  11.435
41895W        W14243  27.548  33.488  12.056
41896W        W14244  43.864   0.752  11.411
41897W        W14245  16.624  29.456   4.812
41898W        W14246  12.202   4.220   2.197
41899W        W14247  20.125  30.609  12.409
41900W        W14248  35.549   8.840  11.907
41901W        W14249  35.377  29.563   2.251
41902W        W14250   8.807   6.348  12.401
41903W        W14251  35.604  35.955  12.551
41904W        W14252  29.052  24.039   0.878
41905W        W14253  31.049   4.321   0.936
41906W        W14254  33.602  18.083   1.377
41907W        W14255  22.205   2.335   0.955
41908W        W14256  10.742  35.557  10.979
41909W        W14257  26.031  42.375  14.332
41910W        W14258   8.161  27.960   2.763
41911W        W14259   2.953  21.220   0.907
41912W        W14260  17.260  43.500  13.372
41913W        W14261   9.826  33.074  14.910
41914W        W14262  13.294  40.348   4.261
41915W        W14263   7.853  32.478  10.962
41916W        W14264  35.455  35.472   0.739
41917W        W14265   3.401  43.810  10.521
41918W        W14266   2.314  22.042  12.985
41919W        W14267  30.560  15.154  13.316
41920W        W14268  38.964  32.483   0.858
41921W        W14269  41.379  25.220  14.933
41922W        W14270   9.767  39.359  13.902
41923W        W14271  29.495  25.600  14.988
41924W        W14272  10.382  36.491  12.468
41925W        W14273  31.118  32.581   1.418
41926W        W14274  21.224  44.976  13.401
41927W        W14275   4.788  36.841  13.819
41928W        W14276   6.717   2.957   3.666
41929W        W14277   2.328   4.363   4.169
41930W        W14278   8.712  34.893   4.616
41931W        W14279   3.721   8.327  11.978
41932W        W14280   4.712  15.320   4.790
41933W        W14281  38.482  19.246  13.030
41934W        W14282  17.597  31.005  11.979
41935W        W14283  13.229  44.486   4.838
41936W        W14284   2.418   7.796  14.982
41937W        W14285  19.725  35.602   1.406
41938W        W14286   5.714  26.565   1.735
41939W        W14287  12.237  15.172   3.192
41940W        W14288  12.746  19.620   3.234
41941W        W14289  20.630   6.355   0.843
41942W        W14290   6.849  13.145  11.458
41943W        W14291  38.832   9.390  10.091
41944W        W14292  21.108  43.277   1.407
41945W        W14293  30.486  36.347  11.384
41946W        W14294  43.948  22.710   2.857
41947W        W14295  44.371  21.177  12.847
41948W        W14296  13.272  42.387  14.452
41949W        W14297   5.840  10.802  14.837
41950W        W14298  25.198  21.134   3.379
41951W        W14299   3.729  20.042   1.294
41952W        W14300  13.802   9.679   0.790
41953W        W14301  21.712  36.057  10.549
41954W        W14302  38.393  42.791  12.045
41955W        W14303   1.947  23.525  14.022
41956W        W14304  34.512  31.145   3.199
41957W        W14305   9.317  14.289  14.301
41958W        W14306  29.071  14.623   1.269
41959W        W14307  32.394  11.779   2.264
41960W        W14308   4.268   0.400  14.800
41961W        W14309  42.362  39.059  13.534
41962W        W14310  26.644  29.514  14.994
41963W        W14311  10.270  30.596   4.790
41964W        W14312  15.196  16.108   1.833
41965W        W14313  17.564  20.649  11.429
41966W        W14314  39.364  38.544  10.507
41967W        W14315   6.746  44.792   4.218
41968W        W14316  22.683  21.214  11.504
41969W        W14317  36.023  22.566   0.259
41970W        W14318  11.365  34.468   1.260
41971W        W14319  12.344  13.311   1.800
41972W        W14320  24.624  43.966  10.612
41973W        W14321  33.617  37.364  13.546
41974W        W14322   2.382  16.132   1.748
41975W        W14323  42.022   3.269   5.249
41976W        W14324  44.776  18.608   2.223
41977W        W14325  38.470  44.962   1.389
41978W        W14326   0.429  23.694   0.855
41979W        W14327  21.548  11.241   0.892
41980W        W14328   1.797  12.822   4.658
41981W        W14329  10.872  25.630  14.378
41982W        W14330   6.808   6.210  12.892
41983W        W14331  32.465  16.751   4.261
41984W        W14332  12.216  18.688  11.448
41985W        W14333  20.557   0.876   4.677
41986W        W14334  36.590  37.476   0.461
41987W        W14335  21.202  17.644   0.467
41988W        W14336  10.334  11.159  11.959
41989W        W14337  30.943  41.432  13.979
41990W        W14338  16.748  40.873  11.958
41991W        W14339  22.610  35.509  11.915
41992W        W14340  18.556  28.956  10.990
41993W        W14341   7.742  40.501  11.599
41994W        W14342  24.540   4.930   0.431
41995W        W14343   9.253   6.280  13.517
41996W        W14344  35.570  18.093   1.827
41997W        W14345  18.736  22.173  12.477
41998W        W14346  21.589   5.836  14.403
41999W        W14347   9.866  16.156   4.163
42000W        W14348  23.146  11.725   4.118
42001W        W14349  19.685  13.659  13.331
42002W        W14350  43.428  29.949   0.954
42003W        W14351  18.296  17.122   0.330
42004W        W14352  41.843  19.113  10.896
42005W        W14353  17.712  24.032  13.369
42006W        W14354   7.331   8.693   2.806
42007W        W14355  12.156  32.925   0.953
42008W        W14356   2.277   6.706   0.819
42009W        W14357  21.255  37.871  14.334
42010W        W14358  34.992  22.025   1.234
42011W        W14359   7.679  16.285  11.500
42012W        W14360  44.389  38.064   2.900
42013W        W14361  38.821  43.962   3.835
42014W        W14362  29.144  18.148  13.959
42015W        W14363  36.954   5.367  12.889
42016W        W14364  10.238  13.783  13.398
42017W        W14365  42.966  38.950  13.426
42018W        W14366  44.424  38.477   0.392
42019W        W14367   5.893  21.064  14.998
42020W        W14368  22.604  27.049  13.851
42021W        W14369  44.409   9.373  11.912
42022W        W14370  24.170  14.663  13.827
42023W        W14371  22.239  12.805   2.316
42024W        W14372   0.972  35.398   4.627
42025W        W14373  36.593  14.268  10.139
42026W        W14374  13.737   4.301   2.887
42027W        W14375  27.149   6.798   3.147
42028W        W14376  23.495  38.933   3.362
42029W        W14377  11.289  11.664  10.493
42030W        W14378  13.179  24.683  10.589
42031W        W14379  14.605  30.079  12.839
42032W        W14380  44.475  25.667  14.771
42033W        W14381  11.860  39.410  11.111
42034W        W14382  25.168  15.091   3.670
42035W        W14383  36.420  18.631   4.691
42036W        W14384  41.959  29.493   3.274
42037W        W14385  15.302  27.492   4.676
42038W        W14386  15.632  10.830   4.739
42039W        W14387   4.352  28.472   3.810
42040W        W14388   2.722  40.473   4.750
42041W        W14389   7.218  35.499  11.017
42042W        W14390   0.958  31.912   1.865
42043W        W14391  14.099  27.673   3.289
42044W        W14392  12.331  40.506  13.503
42045W        W14393  43.781  18.696  13.990
42046W        W14394  38.369  23.135   3.169
42047W        W14395  37.965  13.110   0.451
42048W        W14396  21.661  33.120   0.325
42049W        W14397  44.374   6.794   2.370
42050W        W14398  14.256  42.984  14.938
42051W        W14399  38.039  30.926  10.603
42052W        W14400   1.843   7.364   4.673
42053W        W14401  12.188  23.101  14.992
42054W        W14402   0.490  13.785   4.345
42055W        W14403  39.363  29.042   1.834
42056W        W14404  11.290  14.187   3.808
42057W        W14405   9.680  26.119   1.706
42058W        W14406   4.932   3.291   3.290
42059W        W14407   3.431   3.720  12.906
42060W        W14408  25.576  32.020   1.428
42061W        W14409  33.965   0.430  14.397
42062W        W14410  41.947  37.571   4.685
42063W        W14411  44.867   6.701  14.879
42064W        W14412  25.167  29.078   0.272
42065W        W14413  14.812   4.739   5.123
42066W        W14414  37.485   5.783   0.831
42067W        W14415  10.745  24.595   1.737
42068W        W14416  17.559   0.289  14.976
42069W        W14417  39.946  21.675   4.675
42070W        W14418   1.405  40.011  13.482
42071W        W14419  20.034  30.040  11.920
42072W        W14420   4.393  35.550  10.910
42073W        W14421  22.616  22.677  11.394
42074W        W14422  13.795  28.953   2.862
42075W        W14423  30.922   7.807  10.069
42076W        W14424  29.476  44.276   3.856
42077W        W14425  16.302   3.303   1.910
42078W        W14426  14.191   7.403   3.760
42079W        W14427  30.574  36.984  10.955
42080W        W14428  35.387   3.457  14.774
42081W        W14429   3.888  35.025   1.918
42082W        W14430  17.243  13.742   0.290
42083W        W14431  14.799  21.080   2.349
42084W        W14432   6.916   6.364   1.361
42085W        W14433  41.948  10.774   2.395
42086W        W14434  25.971  34.115  14.474
42087W        W14435  17.109   9.771   3.695
42088W        W14436  43.408  29.067   3.862
42089W        W14437  21.569   8.800  13.926
42090W        W14438   8.337  28.182   1.763
42091W        W14439  22.743  44.435  11.373
42092W        W14440  31.619  11.720   0.369
42093W        W14441  26.510   7.210   0.471
42094W        W14442   5.384  23.558   0.326
42095W        W14443  35.072   5.701   1.302
42096W        W14444  29.476   6.182  10.455
42097W        W14445  30.541   8.343  14.503
42098W        W14446  34.950  12.287   1.369
42099W        W14447  25.624  22.035  11.416
42100W        W14448  38.393  26.014  14.439
42101W        W14449  37.409   8.873   1.714
42102W        W14450  27.051  14.135  13.973
42103W        W14451  38.866  41.883  13.987
42104W        W14452  25.117  35.003   1.726
42105W        W14453  25.057  35.553   1.390
42106W        W14454  36.871  12.835   2.396
42107W        W14455  28.634  44.004  13.903
42108W        W14456  11.863   8.335   0.441
42109W        W14457  25.045   4.916   2.787
42110W        W14458  32.946   4.411   4.710
42111W        W14459   3.804   0.753   1.277
42112W        W14460  24.203  41.350  13.870
42113W        W14461  33.455   9.204   4.251
42114W        W14462   9.847  29.505  13.793
42115W        W14463  37.977  30.525  13.541
42116W        W14464  41.877  14.174  10.416
42117W        W14465  21.222  41.352  13.900
42118W        W14466   0.831  34.578   2.255
42119W        W14467   6.684  27.050  12.340
42120W        W14468  29.088  36.580  12.044
42121W        W14469  43.337  37.851  13.012
42122W        W14470  36.385  34.408   4.756
42123W        W14471  35.895   3.222   2.766
42124W        W14472  28.129  31.082   4.621
42125W        W14473   4.290  43.483   2.224
42126W        W14474  16.595  39.857  14.412
42127W        W14475  37.006  42.383   3.723
42128W        W14476  12.180  37.958   4.301
42129W        W14477   3.403  27.504  10.406
42130W        W14478   3.862  44.770  12.954
42131W        W14479  21.070  18.714  13.350
42132W        W14480  42.836  10.762  10.570
42133W        W14481  24.666  22.681  11.942
42134W        W14482  29.638  32.561   0.416
42135W        W14483  25.683  23.554   3.842
42136W        W14484  29.117   8.816  13.053
42137W        W14485  28.943  20.035   4.264
42138W        W14486  34.597  26.978   2.737
42139W        W14487   7.257  13.830   0.768
42140W        W14488  13.741  25.500   4.187
42141W        W14489   2.405  42.998  11.019
42142W        W14490  21.065  29.524  13.539
42143W        W14491  30.015  11.271  13.947
42144W        W14492  25.679  15.585  10.926
42145W        W14493  37.577   8.657  14.761
42146W        W14494  17.733  26.576   1.400
42147W        W14495   1.458  40.344   0.773
42148W        W14496  21.585  20.235   3.781
42149W        W14497   2.906  25.680   4.308
42150W        W14498   9.315  44.840  10.573
42151W        W14499  39.480  17.240   0.262
42152W        W14500  16.587  36.528  14.450
42153W        W14501  15.709  24.977   0.827
42154W        W14502  30.484  38.915  14.332
42155W        W14503  10.239  41.420  11.502
42156W        W14504   6.764  42.386  12.353
42157W        W14505  39.328   9.841   3.280
42158W        W14506  11.353  40.309  10.896
42159W        W14507  37.494  12.141   0.826
42160W        W14508  14.662  22.042  13.878
42161W        W14509  12.734  28.477   4.748
42162W        W14510  30.580   0.775   2.285
42163W        W14511   7.760  21.077  10.565
42164W        W14512  16.138   8.746  11.021
42165W        W14513  31.599  36.416   3.845
42166W        W14514  39.971  27.968  12.480
42167W        W14515  16.574  42.389  13.854
42168W        W14516  14.602   8.290   2.348
42169W        W14517  43.814  11.193  12.491
42170W        W14518  43.882  12.682   2.295
42171W        W14519  42.822  11.321   3.232
42172W        W14520   5.717   1.777  13.001
42173W        W14521  25.065   4.807  13.855
42174W        W14522  33.127  12.850   0.374
42175W        W14523  23.581   3.419  13.479
42176W        W14524  15.154   4.334   3.646
42177W        W14525  44.838   4.400   3.252
42178W        W14526  38.556  12.668  14.795
42179W        W14527  37.355  19.539  11.543
42180W        W14528   5.737  41.844  10.611
42181W        W14529  28.576  24.097  14.765
42182W        W14530  23.667  26.112   0.369
42183W        W14531  10.243  30.447   3.639
42184W        W14532   8.736  33.009   4.270
42185W        W14533  28.098  17.169   0.853
42186W        W14534  31.034   6.739  13.478
42187W        W14535  29.171  30.482   0.473
42188W        W14536  28.626  21.610  14.860
42189W        W14537  13.612  33.379  12.047
42190W        W14538  33.902   6.704   1.418
42191W        W14539  25.991  11.657   2.892
42192W        W14540   5.876  27.163   0.775
42193W        W14541   6.799  37.359  14.337
42194W        W14542   9.370   3.719   0.789
42195W        W14543  34.965   8.380   1.286
42196W        W14544  19.237   5.863   0.448
42197W        W14545  28.019  25.079  14.859
42198W        W14546  17.632  12.212   9.992
42199W        W14547   9.809  33.517   1.223
42200W        W14548  22.582  22.593  14.875
42201W        W14549   5.287  10.383  11.916
42202W        W14550  43.001   2.738   3.747
42203W        W14551  16.606  35.542  13.886
42204W        W14552  29.431  25.690  11.950
42205W        W14553   3.780   1.430   1.275
42206W        W14554  32.119   6.781   2.662
42207W        W14555  43.412  29.137   2.762
42208W        W14556  33.063  35.024   0.865
42209W        W14557  28.085  42.935   4.662
42210W        W14558  27.620  12.775  14.375
42211W        W14559  31.044  20.646  10.403
42212W        W14560  43.495  13.186   2.189
42213W        W14561  31.945  29.527   4.147
42214W        W14562   1.885  26.647  11.914
42215W        W14563  14.217   5.741  14.848
42216W        W14564  23.653   5.730  13.942
42217W        W14565  43.863  21.699   0.931
42218W        W14566  27.159  31.555  14.956
42219W        W14567  13.638  15.779  14.421
42220W        W14568  33.920  12.135   4.826
42221W        W14569  24.527  31.543  12.027
42222W        W14570  19.196  29.585  13.435
42223W        W14571   3.254  24.080  13.942
42224W        W14572  32.897  34.030   0.798
42225W        W14573  25.998  17.245  13.489
42226W        W14574  40.847  38.073   1.914
42227W        W14575  34.531  26.494  12.958
42228W        W14576  25.503  24.695  14.284
42229W        W14577  41.524   4.784  10.006
42230W        W14578   6.839  18.168  10.941
42231W        W14579  16.731   8.772  13.504
42232W        W14580  31.629  14.608  14.373
42233W        W14581  21.153  11.154   2.751
42234W        W14582   2.895  17.210   0.346
42235W        W14583   5.690  42.907   0.753
42236W        W14584  21.555   3.955   2.791
42237W        W14585   8.789  14.323  13.827
42238W        W14586  25.035  26.105  13.944
42239W        W14587  31.918  22.687   4.188
42240W        W14588  35.961  25.510  14.957
42241W        W14589  35.554  22.544   5.167
42242W        W14590  44.281  19.574  11.903
42243W        W14591   2.410  40.947   3.313
42244W        W14592  14.300  10.649   2.781
42245W        W14593  40.517  10.716  12.992
42246W        W14594  40.364  29.553   3.688
42247W        W14595   1.950  11.299  13.793
42248W        W14596  32.956  15.701  13.496
42249W        W14597  21.755  26.165   0.352
42250W        W14598  13.630  33.992  13.519
42251W        W14599  22.585  25.194   4.666
42252W        W14600  13.789  11.287   4.235
42253W        W14601   7.361  11.818  14.915
42254W        W14602  16.799  12.181  12.392
42255W        W14603   7.759  18.179  12.526
42256W        W14604  35.092  18.779  14.385
42257W        W14605  32.055  34.978   3.306
42258W        W14606  38.382  41.957   4.739
42259W        W14607  34.520  32.599  13.897
42260W        W14608  21.254   6.276  11.108
42261W        W14609   7.843  28.630   4.252
42262W        W14610   9.148  44.917  11.977
42263W        W14611  10.274  43.371   5.260
42264W        W14612  35.932  35.423  10.543
42265W        W14613  18.584  33.015   4.199
42266W        W14614  36.064  36.358   3.246
42267W        W14615  41.815  18.280  13.984
42268W        W14616  17.616  33.079  10.563
42269W        W14617   1.323  33.490  10.902
42270W        W14618  25.476  14.601   4.601
42271W        W14619  18.754  29.540   1.377
42272W        W14620  16.076  42.786   4.658
42273W        W14621  30.026   3.737   1.247
42274W        W14622   7.812  13.309  12.418
42275W        W14623  36.099  21.724  10.125
42276W        W14624  23.089   4.423  10.456
42277W        W14625   4.281  17.639  13.953
42278W        W14626   3.790  15.631  14.326
42279W        W14627  25.980   1.741  12.520
42280W        W14628  11.693   5.758   2.196
42281W        W14629  38.428  19.587   3.741
42282W        W14630  19.202  31.554  12.538
42283W        W14631  33.496  35.017  12.836
42284W        W14632   7.369  26.676  14.402
42285W        W14633  31.414  35.421   3.286
42286W        W14634  38.474  11.663   3.174
42287W        W14635  26.583  19.198  11.401
42288W        W14636  25.526  43.935   0.335
42289W        W14637  37.564  12.203  11.941
42290W        W14638   5.707   6.418   3.783
42291W        W14639  43.505  33.964   4.314
42292W        W14640  44.340  14.638   2.349
42293W        W14641  18.628  15.170  11.612
42294W        W14642  24.173   4.799   5.261
42295W        W14643  41.434  21.022  13.863
42296W        W14644  41.350  38.372   4.202
42297W        W14645  42.828  22.608   1.350
42298W        W14646  36.353  14.589   0.336
42299W        W14647   4.397  11.222  10.905
42300W        W14648   0.974  17.269   3.638
42301W        W14649  35.062  26.591  13.940
42302W        W14650  23.548   1.481  12.055
42303W        W14651  37.869  27.966   4.236
42304W        W14652  15.199   4.944   1.898
42305W        W14653   2.360  20.716  11.373
42306W        W14654  34.874  25.711  14.828
42307W        W14655  31.513   3.293  13.931
42308W        W14656   2.749  26.664   0.830
42309W        W14657   8.782  11.673  11.895
42310W        W14658   3.317  26.097   4.289
42311W        W14659  28.045  25.973  10.458
42312W        W14660  20.555  35.992   4.273
42313W        W14661  21.252   1.439   2.849
42314W        W14662   7.208   8.175  11.547
42315W        W14663  18.153  42.857  12.930
42316W        W14664  22.120  12.855  14.030
42317W        W14665  22.555  14.791   0.792
42318W        W14666  27.624  21.742  10.477
42319W        W14667  11.772  42.825   4.781
42320W        W14668  44.783   8.210   1.717
42321W        W14669  10.315  18.780   2.401
42322W        W14670   3.390  31.596  11.546
42323W        W14671  11.699  35.573   2.748
42324W        W14672  44.904  31.473  14.786
42325W        W14673  44.418  34.970   4.225
42326W        W14674  30.555  29.494  11.527
42327W        W14675  30.955   7.830   3.838
42328W        W14676  18.269  24.140  14.489
42329W        W14677  33.085  34.069  12.417
42330W        W14678  22.562  22.107   4.740
42331W        W14679   2.307   4.262  13.476
42332W        W14680  30.417  15.187  11.055
42333W        W14681  43.786  22.537   4.667
42334W        W14682  34.087   4.750   0.366
42335W        W14683  43.424  28.563   0.776
42336W        W14684   9.657  12.281  11.007
42337W        W14685  26.643  13.145   5.271
42338W        W14686  23.168  40.873  14.459
42339W        W14687  11.675   5.713  10.529
42340W        W14688   9.151  28.963  11.981
42341W        W14689   9.801  37.498   1.823
42342W        W14690   1.828   2.736   3.646
42343W        W14691  18.166  19.136  12.848
42344W        W14692  44.356   0.318  12.848
42345W        W14693  39.554  38.000   2.322
42346W        W14694  11.186  14.238   2.856
42347W        W14695  30.420  24.012  13.043
42348W        W14696  38.401   9.665   0.259
42349W        W14697   9.160   7.299  11.440
42350W        W14698   2.949   5.796   4.162
42351W        W14699  43.941  22.226  11.051
42352W        W14700  44.329  26.181  14.836
42353W        W14701  23.587  28.637   3.742
42354W        W14702  44.453  21.216  13.880
42355W        W14703  18.788   7.261  11.571
42356W        W14704  25.065   1.363  10.523
42357W        W14705   8.759  38.926  14.470
42358W        W14706  35.507  31.521  14.811
42359W        W14707  32.930   9.729   0.770
42360W        W14708  39.428  18.659   1.807
42361W        W14709   4.329  23.685  12.912
42362W        W14710  34.044  18.167  11.855
42363W        W14711  42.283  27.008  14.371
42364W        W14712   4.447  37.456   3.200
42365W        W14713   9.390   9.325   3.857
42366W        W14714  13.249  14.792   3.807
42367W        W14715  21.535   1.797   3.775
42368W        W14716  28.587  18.648  11.391
42369W        W14717  27.941  36.443   1.237
42370W        W14718  25.536   2.443  11.424
42371W        W14719   3.369   3.937   4.749
42372W        W14720  37.963  42.974   4.115
42373W        W14721   4.438  42.389  12.007
42374W        W14722  29.640   5.309   1.232
42375W        W14723   0.429  44.455  11.580
42376W        W14724  43.975  10.224   0.456
42377W        W14725  33.473  34.106   2.757
42378W        W14726  34.444  38.506  12.015
42379W        W14727   2.338   6.715  12.447
42380W        W14728  44.489  27.183  10.113
42381W        W14729  41.970   8.256   4.674
42382W        W14730  37.016  20.645  14.798
42383W        W14731  39.488  24.190  12.573
42384W        W14732  43.327  26.591  12.049
42385W        W14733   7.740   6.384   5.226
42386W        W14734  12.738  36.029  12.401
42387W        W14735  39.993  14.736  12.905
42388W        W14736  18.578   6.709  12.458
42389W        W14737  33.399  21.604   3.638
42390W        W14738  40.500  38.938   2.416
42391W        W14739  23.566  12.231  14.894
42392W        W14740  25.081   4.700  13.546
42393W        W14741  31.027  30.481  10.952
42394W        W14742   5.235  43.466   1.908
42395W        W14743  16.619  14.770   2.826
42396W        W14744  15.162   7.326   2.717
42397W        W14745  43.979  23.527  14.802
42398W        W14746  21.675   2.238   3.195
42399W        W14747  31.611  12.150   3.653
42400W        W14748  28.972  26.479  11.552
42401W        W14749  15.659  25.586  13.824
42402W        W14750  16.747  37.567  10.463
42403W        W14751  34.906  43.869   1.306
42404W        W14752  28.498  39.996   0.376
42405W        W14753   0.789  16.234   1.219
42406W        W14754  43.498  28.101   0.963
42407W        W14755  10.817  19.718  11.021
42408W        W14756  37.937   6.788   5.224
42409W        W14757  42.520  42.815  11.875
42410W        W14758  43.929  38.937  10.471
42411W        W14759  43.975   8.320   1.351
42412W        W14760  43.820   3.774  14.361
42413W        W14761  14.663   6.736  10.993
42414W        W14762  33.039  29.053   3.230
42415W        W14763   8.745  10.778  11.383
42416W        W14764  39.970  32.497  12.917
42417W        W14765  16.646  17.723  12.937
42418W        W14766  15.790  19.586   0.290
42419W        W14767  42.494  24.685   2.206
42420W        W14768  21.232   2.247  12.388
42421W        W14769  37.510  41.978   4.171
42422W        W14770   5.772  34.448  11.888
42423W        W14771  28.538  14.629   2.685
42424W        W14772  42.832   0.488   0.902
42425W        W14773   7.367  19.121   4.659
42426W        W14774  21.194  35.902   3.848
42427W        W14775  40.012  23.988   4.828
42428W        W14776   6.900  11.739   0.418
42429W        W14777  23.218   6.324  13.829
42430W        W14778  33.887  20.569  11.903
42431W        W14779  10.718   4.855   5.235
42432W        W14780   7.285   2.446  13.868
42433W        W14781  24.537  40.333   3.745
42434W        W14782  32.010  41.865   5.223
42435W        W14783  29.045   0.950   2.712
42436W        W14784  41.923  38.033  13.487
42437W        W14785   5.700  42.888   1.776
42438W        W14786  41.319   0.951  14.854
42439W        W14787  17.189   0.335   2.770
42440W        W14788  19.681  41.867  14.371
42441W        W14789  36.077  34.099   2.664
42442W        W14790  16.758  14.652   9.989
42443W        W14791  17.262  43.810  11.489
42444W        W14792  35.385  25.067   2.877
42445W        W14793   1.914  31.500  13.446
42446W        W14794  16.092  37.929  11.920
42447W        W14795  41.525  38.057   0.279
42448W        W14796   6.879  37.397   2.901
42449W        W14797  40.808   7.171   0.788
42450W        W14798  20.033  21.250   0.775
42451W        W14799  17.261  31.036  10.566
42452W        W14800  36.498  18.129   3.235
42453W        W14801  31.628  14.637  12.977
42454W        W14802   5.362  17.246   1.386
42455W        W14803   3.903   8.844   1.759
42456W        W14804  22.238  29.028  13.016
42457W        W14805  11.245  29.552   1.236
42458W        W14806   1.443  10.291   3.799
42459W        W14807  32.400  36.403   5.178
42460W        W14808  27.198  10.809   1.915
42461W        W14809  40.532  24.561  12.824
42462W        W14810  23.190  19.180  10.933
42463W        W14811  39.560  38.933  13.822
42464W        W14812  24.218  40.470  11.514
42465W        W14813  20.245  41.426   0.248
42466W        W14814  13.818  36.091  13.793
42467W        W14815  13.641  16.105  13.498
42468W        W14816   7.272   9.695   3.322
42469W        W14817   6.712  34.604   2.253
42470W        W14818   8.340   5.208  10.639
42471W        W14819  13.243  35.034   2.747
42472W        W14820  41.454  29.025   3.263
42473W        W14821   2.748   2.723  11.033
42474W        W14822  36.380  31.030   1.762
42475W        W14823  11.197  13.235  13.957
42476W        W14824  33.071  35.411   0.461
42477W        W14825  30.416  25.517  14.016
42478W        W14826   6.355  12.227   2.689
42479W        W14827  31.896  11.666  13.828
42480W        W14828  25.973  29.067   1.369
42481W        W14829  38.445  42.802   3.340
42482W        W14830  13.176  40.324  11.049
42483W        W14831  33.603  40.011  13.432
42484W        W14832  35.014  15.765   2.252
42485W        W14833  31.492  27.510   4.218
42486W        W14834  28.479  15.703   2.670
42487W        W14835  22.138  30.118   1.741
42488W        W14836  17.104  38.405   3.265
42489W        W14837  12.757  40.023   2.187
42490W        W14838   9.830   9.341  14.467
42491W        W14839  18.573  39.442   4.630
42492W        W14840  39.975  36.529   1.290
42493W        W14841   3.303  38.481  14.416
42494W        W14842  25.029  43.991  12.968
42495W        W14843  18.761  42.427  14.812
42496W        W14844  39.861  34.058  10.588
42497W        W14845  23.529  35.964   4.298
42498W        W14846  13.259  15.598  14.292
42499W        W14847   6.774  12.762   0.951
42500W        W14848   2.327   4.412  11.457
42501W        W14849  36.592  43.799   3.364
42502W        W14850  24.629  15.126   3.146
42503W        W14851  29.069  44.977  11.128
42504W        W14852   8.777  37.351   0.800
42505W        W14853  20.703   4.261   1.269
42506W        W14854  27.604  19.141  10.636
42507W        W14855   9.363  28.084   1.358
42508W        W14856  41.413   0.902   4.625
42509W        W14857  35.096  38.064   0.798
42510W        W14858  44.763  10.671   2.826
42511W        W14859  10.643  14.639  14.004
42512W        W14860   2.772  17.604  12.861
42513W        W14861  19.103  33.943   0.809
42514W        W14862  38.380  23.150  12.920
42515W        W14863  29.973   8.869   0.856
42516W        W14864  39.889  36.971   3.807
42517W        W14865  15.286   6.809  13.514
42518W        W14866  36.501  37.883  14.404
42519W        W14867  22.592  23.105  12.950
42520W        W14868   7.683  37.907   1.771
42521W        W14869   5.925  40.346  11.444
42522W        W14870  35.105  42.456   1.743
42523W        W14871  23.513  43.371   0.423
42524W        W14872  27.588   9.876   0.756
42525W        W14873  35.565  42.857  10.954
42526W        W14874  19.047   2.835  13.961
42527W        W14875  30.923  41.851  10.934
42528W        W14876   2.295  22.009   2.190
42529W        W14877   0.791   4.798   0.759
42530W        W14878  15.198  24.054   4.334
42531W        W14879  39.545  11.744   0.333
42532W        W14880  39.375  35.380   1.319
42533W        W14881   0.922  40.902   2.835
42534W        W14882   0.852   1.311  10.488
42535W        W14883  41.852  27.109   3.259
42536W        W14884  26.090  15.189  14.902
42537W        W14885   2.300   5.292   2.380
42538W        W14886  36.064  12.786   1.732
42539W        W14887   8.877  33.598  10.041
42540W        W14888  22.128   9.848  11.609
42541W        W14889  30.624  16.188  10.418
42542W        W14890  31.055  14.295   2.403
42543W        W14891   7.378   9.845   1.731
42544W        W14892  34.002  17.110  14.775
42545W        W14893  41.329   5.903  11.054
42546W        W14894   9.393  26.484  14.874
42547W        W14895  41.910  23.984   2.403
42548W        W14896   8.761  24.617  12.390
42549W        W14897  25.555  30.027  14.857
42550W        W14898  31.510  21.064   1.702
42551W        W14899  19.165  34.532  10.589
42552W        W14900   8.195  29.600   0.266
42553W        W14901  30.566  35.885  11.382
42554W        W14902  23.714  20.263   2.185
42555W        W14903  25.488  18.113  12.866
42556W        W14904  42.783  17.092   3.764
42557W        W14905  33.065  24.596  14.328
42558W        W14906  17.738  36.995   3.725
42559W        W14907  23.552  10.830  12.010
42560W        W14908   8.684   8.294   1.350
42561W        W14909   1.855  17.640  13.890
42562W        W14910  36.421  12.625   1.699
42563W        W14911  26.570   8.307  12.922
42564W        W14912   4.355  37.836  14.391
42565W        W14913  27.563  15.689   3.248
42566W        W14914  15.306  39.023  11.106
42567W        W14915  17.616   8.854   3.836
42568W        W14916  37.873  25.097  12.930
42569W        W14917   5.305  28.017  12.457
42570W        W14918  31.501  12.714   4.147
42571W        W14919  23.168  24.003   3.292
42572W        W14920  38.977   8.845   0.811
42573W        W14921  40.881   8.667   1.792
42574W        W14922  16.778  36.406   0.794
42575W        W14923  21.132  11.137  11.468
42576W        W14924  16.312  39.885   5.269
42577W        W14925  14.217  31.497  11.578
42578W        W14926  20.561  38.397  11.381
42579W        W14927  32.484  38.519  11.607
42580W        W14928  29.431  42.392  14.951
42581W        W14929  42.887  35.417  12.952
42582W        W14930  27.508  43.339   0.784
42583W        W14931  28.532  43.971  11.127
42584W        W14932  25.575  43.479   3.809
42585W        W14933  21.196  38.928  13.453
42586W        W14934  26.044  11.263  14.470
42587W        W14935  10.246  21.746  14.963
42588W        W14936   9.241   1.888  14.441
42589W        W14937  10.716  22.140   9.657
42590W        W14938   0.275   4.716   1.800
42591W        W14939  21.585  41.506  14.357
42592W        W14940   9.733   9.860  10.947
42593W        W14941  25.219  24.606   1.345
42594W        W14942  40.327  10.262  11.114
42595W        W14943   3.812  20.646   4.680
42596W        W14944  43.883  10.698  12.953
42597W        W14945  10.846  21.742   4.813
42598W        W14946  23.182  44.453  13.872
42599W        W14947  30.461  39.324  14.872
42600W        W14948  15.793  16.671   4.114
42601W        W14949  31.937  28.071   2.341
42602W        W14950   4.882   8.793   0.254
42603W        W14951  20.605   4.744  13.482
42604W        W14952  11.177  37.495  14.906
42605W        W14953   8.696   1.428  14.437
42606W        W14954  42.414  30.009  13.801
42607W        W14955  23.035  19.617   4.747
42608W        W14956  14.661   7.354   3.833
42609W        W14957  16.130  40.892  11.561
42610W        W14958   0.366  21.640  14.303
42611W        W14959  19.172  33.573   0.732
42612W        W14960  38.900  24.713  10.540
42613W        W14961  20.050  12.827  11.863
42614W        W14962  40.524  41.450   9.940
42615W        W14963  24.719  28.000  12.540
42616W        W14964  36.462  12.189  14.323
42617W        W14965  25.705  29.546  13.002
42618W        W14966  22.163  14.301  13.922
42619W        W14967   1.960   0.858  13.396
42620W        W14968  21.175  40.008  10.156
42621W        W14969  41.494  26.169  11.037
42622W        W14970   0.860  41.368  12.393
42623W        W14971  37.990  32.011  11.536
42624W        W14972  12.360   9.823  13.526
42625W        W14973  30.999   0.490  12.848
42626W        W14974  16.181  37.541  12.448
42627W        W14975  17.090  15.614   3.643
42628W        W14976  40.885  44.478   2.877
42629W        W14977  20.157  35.073  14.398
42630W        W14978  29.463  10.360   4.183
42631W        W14979  30.656  44.967  13.809
42632W        W14980  32.142  38.547   3.321
42633W        W14981  11.744  26.611   4.662
42634W        W14982  31.963  14.803   4.181
42635W        W14983  37.842  14.254  10.460
42636W        W14984  13.199  33.437   3.256
42637W        W14985  34.931   8.703   2.224
42638W        W14986  30.537  29.472   5.259
42639W        W14987   2.876  35.884   0.421
42640W        W14988  35.092  32.089   0.917
42641W        W14989  39.062  19.563   2.797
42642W        W14990  21.067  17.669   1.701
42643W        W14991  20.146   5.740   4.788
42644W        W14992  42.790  11.321  13.428
42645W        W14993  31.619  11.312  10.954
42646W        W14994  13.136  21.222   3.240
42647W        W14995  19.149   3.778   1.755
42648W        W14996  41.314  11.859  14.799
42649W        W14997  41.445  12.285   2.244
42650W        W14998   3.893  38.834  14.847
42651W        W14999  38.828   8.193   3.198
42652W        W15000  39.830  42.010  11.010
42653W        W15001  43.370  39.917   2.762
42654W        W15002  11.705  34.052   4.318
42655W        W15003  42.519  34.879  13.350
42656W        W15004  31.084  35.064   1.749
42657W        W15005  29.552   4.879  12.052
42658W        W15006  20.111  17.292  12.540
42659W        W15007  21.218  32.578  14.003
42660W        W15008  29.533   2.380  11.965
42661W        W15009  43.472  16.272   1.306
42662W        W15010   6.369  40.321  12.943
42663W        W15011  13.750   1.828  11.069
42664W        W15012  25.039  22.535   4.324
42665W        W15013  17.187  21.603   0.296
42666W        W15014  34.053  18.199   0.864
42667W        W15015  39.537  20.719  14.274
42668W        W15016  16.805  27.604  13.318
42669W        W15017  44.859   3.414   3.702
42670W        W15018  18.095  22.029   2.353
42671W        W15019  27.186  41.925   2.331
42672W        W15020  25.085   3.729  12.410
42673W        W15021  39.819  28.149   0.748
42674W        W15022   7.859  13.748   3.700
42675W        W15023   7.210  30.433  12.553
42676W        W15024  43.836  44.421  13.983
42677W        W15025  43.984  35.417   3.852
42678W        W15026  27.512  38.333  13.311
42679W        W15027  35.945  20.734  13.963
42680W        W15028  20.253  23.066  11.099
42681W        W15029   2.276  11.364   0.274
42682W        W15030  18.764   8.789  14.923
42683W        W15031   0.264  35.551  12.094
42684W        W15032  21.100  40.921   4.323
42685W        W15033  27.194  27.655   0.368
42686W        W15034   2.372  32.407  10.889
42687W        W15035  23.674  38.048   2.777
42688W        W15036  37.513  28.986  13.917
42689W        W15037   1.773  22.142  12.947
42690W        W15038  41.037  19.257   4.709
42691W        W15039  18.205  16.762  13.824
42692W        W15040  31.992  14.730  10.431
42693W        W15041  10.256  38.880   1.910
42694W        W15042  32.923  18.297   0.319
42695W        W15043   1.908  16.655   2.397
42696W        W15044  32.393  15.209  11.864
42697W        W15045   1.741   0.887   2.805
42698W        W15046  36.387  14.214   3.225
42699W        W15047  36.452  40.422   2.806
42700W        W15048  39.828  10.721   1.340
42701W        W15049  31.052  40.347  12.827
42702W        W15050  22.556  32.623   3.161
42703W        W15051  42.424  17.796  14.955
42704W        W15052  28.174  26.460  12.006
42705W        W15053  34.494   8.795  13.488
42706W        W15054  21.043  15.130   4.732
42707W        W15055  38.897  10.851  10.501
42708W        W15056   2.345  40.485  12.862
42709W        W15057  43.913  16.600   0.964
42710W        W15058  40.497  39.829   9.922
42711W        W15059   1.821  41.468  14.279
42712W        W15060  10.215  28.591  13.502
42713W        W15061  15.254  25.583   4.734
42714W        W15062   4.856  25.153   4.668
42715W        W15063  36.932  12.626   1.798
42716W        W15064  40.024  23.606  12.562
42717W        W15065  10.764  42.467  11.563
42718W        W15066   7.363   0.764  10.511
42719W        W15067  29.638  41.975  10.933
42720W        W15068  32.488  37.856   4.620
42721W        W15069  35.499  44.300   1.824
42722W        W15070   4.352  35.405  12.455
42723W        W15071  29.432   0.264   2.242
42724W        W15072  36.454  15.107   0.890
42725W        W15073  36.499   7.196   3.250
42726W        W15074  25.625   7.724  10.645
42727W        W15075   1.850  10.217  14.351
42728W        W15076  42.302  19.652   0.250
42729W        W15077   8.689  33.956   3.752
42730W        W15078   9.271  31.579   5.601
42731W        W15079  15.163  25.085  14.451
42732W        W15080   4.812   4.384  10.484
42733W        W15081  44.292  12.256   0.460
42734W        W15082  24.537  25.494  13.959
42735W        W15083   9.750  35.979   1.791
42736W        W15084  20.550   6.185   0.449
42737W        W15085   9.395  19.140  14.276
42738W        W15086  13.321  40.485   1.411
42739W        W15087  14.219  23.153  14.310
42740W        W15088  21.072  20.170   4.817
42741W        W15089  13.631  13.136  14.953
42742W        W15090  36.479   5.221   0.869
42743W        W15091   0.284   0.380  12.057
42744W        W15092   3.756  29.990  13.795
42745W        W15093  27.045  39.942   0.927
42746W        W15094   6.288  22.122   0.289
42747W        W15095   1.758  41.856   2.340
42748W        W15096  43.393  43.833  12.549
42749W        W15097  33.456  28.970   4.331
42750W        W15098  24.688   7.722  13.994
42751W        W15099  41.996  42.352   4.348
42752W        W15100  20.764  29.112   2.826
42753W        W15101  40.962  18.052   4.801
42754W        W15102  33.941   3.332   0.862
42755W        W15103  26.971  38.358  11.514
42756W        W15104  36.994  13.679  11.012
42757W        W15105  44.879  42.822   0.775
42758W        W15106  31.901  10.678   2.301
42759W        W15107   0.392  29.495  14.818
42760W        W15108  30.132  31.541  11.898
42761W        W15109  39.520  34.563   1.418
42762W        W15110  17.191  15.791   1.771
42763W        W15111  16.262  28.140   1.322
42764W        W15112  44.492  27.100  13.465
42765W        W15113  31.474  36.491  14.905
42766W        W15114   1.276  20.264  13.535
42767W        W15115   1.744   7.900   4.134
42768W        W15116  20.073  12.667   4.775
42769W        W15117  35.515  31.519   0.387
42770W        W15118  24.606  15.198  14.439
42771W        W15119   0.295  39.986   3.368
42772W        W15120  33.037  13.745  14.999
42773W        W15121  40.332   6.800   1.869
42774W        W15122  10.729   5.914   3.826
42775W        W15123  34.018   6.375  14.974
42776W        W15124  26.700  19.194  13.824
42777W        W15125   5.308  36.844  11.595
42778W        W15126  34.998  24.676  14.797
42779W        W15127  12.319  37.985  14.957
42780W        W15128   7.791  26.691   5.305
42781W        W15129  38.407   5.913   0.405
42782W        W15130  40.808  36.426   0.461
42783W        W15131   4.933  44.894   4.818
42784W        W15132   3.897  25.684  14.279
42785W        W15133  31.043  30.639  14.513
42786W        W15134   8.717  32.010   0.470
42787W        W15135  25.695  35.093   3.831
42788W        W15136  12.220  32.926  12.984
42789W        W15137  22.588  40.980   3.831
42790W        W15138   0.760  12.827   9.924
42791W        W15139   7.902  16.234  14.435
42792W        W15140  38.569   9.233  13.802
42793W        W15141  31.910   9.689   1.328
42794W        W15142  11.272  21.751   3.689
42795W        W15143   7.681  27.188   3.789
42796W        W15144  12.849  14.807  13.835
42797W        W15145  34.484  18.701   2.831
42798W        W15146  37.529   5.689  14.356
42799W        W15147  41.871  18.738  13.058
42800W        W15148   3.854  18.234  14.983
42801W        W15149  20.085  23.522   5.273
42802W        W15150  10.279  13.114   1.762
42803W        W15151  14.303   8.265   3.777
42804W        W15152   8.187  32.116   1.283
42805W        W15153  10.319   2.404  12.000
42806W        W15154  42.281  22.052  12.030
42807W        W15155  24.145   4.921   2.676
42808W        W15156   0.483  28.490  11.909
42809W        W15157  17.595  36.920   4.259
42810W        W15158  14.789  14.718   0.315
42811W        W15159   9.888  36.883  10.619
42812W        W15160   8.361  25.084  13.337
42813W        W15161   1.331   1.345  11.971
42814W        W15162   2.288  40.399   1.292
42815W        W15163  44.260   7.384  11.041
42816W        W15164  36.443  40.921   1.241
42817W        W15165  11.665   8.361  10.595
42818W        W15166  38.915  29.015  11.016
42819W        W15167  38.450   1.306   2.386
42820W        W15168  13.733  44.505  11.415
42821W        W15169  17.144  29.160   1.267
42822W        W15170   9.682  40.019  10.611
42823W        W15171  33.603  21.049  13.053
42824W        W15172  30.629   5.784  13.512
42825W        W15173  14.242  31.447   1.741
42826W        W15174  43.438  16.237  14.417
42827W        W15175  36.844  25.698  14.020
42828W        W15176  34.493  41.987   2.261
42829W        W15177  13.182  40.383   9.959
42830W        W15178  16.162  34.058  13.373
42831W        W15179  11.187  14.101   4.735
42832W        W15180  38.347  11.128   4.776
42833W        W15181  24.698   2.952   3.788
42834W        W15182  18.713  16.743   4.282
42835W        W15183  18.753  14.640   0.268
42836W        W15184  44.299  42.447   3.763
42837W        W15185   9.201  23.664  13.535
42838W        W15186  44.832  20.223   2.381
42839W        W15187  26.657  33.417  13.880
42840W        W15188  39.451  40.956  14.958
42841W        W15189   3.944  38.826   1.287
42842W        W15190  20.091   1.943  10.063
42843W        W15191  35.430  38.998   0.729
42844W        W15192  17.252   7.720  14.438
42845W        W15193   0.742  19.093   1.372
42846W        W15194   1.356  28.438  14.507
42847W        W15195  16.226   7.327  13.027
42848W        W15196  26.202  10.854  12.360
42849W        W15197  23.221  26.135   4.814
42850W        W15198  14.339  24.002   0.474
42851W        W15199  37.391  23.171   5.786
42852W        W15200  44.469  31.494  10.610
42853W        W15201  36.357  36.932  13.005
42854W        W15202  13.614  34.062  11.934
42855W        W15203   5.309   3.456   2.784
42856W        W15204  13.646  42.396   0.892
42857W        W15205  10.775  27.549   3.271
42858W        W15206  44.784  29.171  12.061
42859W        W15207  26.475  34.605   9.980
42860W        W15208  41.034   8.286  11.490
42861W        W15209  40.845  27.164   3.169
42862W        W15210   4.331  11.324   4.192
42863W        W15211   8.725  26.615  11.397
42864W        W15212  26.703   6.702  10.917
42865W        W15213  21.585  34.944   3.279
42866W        W15214  12.772  28.482   1.276
42867W        W15215  11.350   1.858   3.383
42868W        W15216  21.160   4.879  12.354
42869W        W15217  14.143   2.871  10.403
42870W        W15218  41.418   9.336  14.343
42871W        W15219  38.947   1.325  11.550
42872W        W15220  39.325  24.560  12.472
42873W        W15221  21.729  38.450  10.416
42874W        W15222  21.162   6.874  12.002
42875W        W15223  43.017  26.190  12.086
42876W        W15224  41.998  39.506  11.875
42877W        W15225  36.089  23.721   5.148
42878W        W15226   9.775  23.177  11.114
42879W        W15227  15.287  18.256   2.218
42880W        W15228   0.439   5.828   4.348
42881W        W15229  21.184  12.699  12.553
42882W        W15230  24.177   8.699  12.096
42883W        W15231  34.931  27.479  13.506
42884W        W15232  39.895  10.726   2.366
42885W        W15233   3.395  36.431   4.342
42886W        W15234   8.704  14.702  14.486
42887W        W15235  30.057  35.388  11.019
42888W        W15236  24.135  29.643   4.135
42889W        W15237  18.233   6.915  12.024
42890W        W15238   8.843  31.440  13.467
42891W        W15239  35.441  43.423   1.430
42892W        W15240   1.287  23.105   3.310
42893W        W15241   0.402  17.680   1.828
42894W        W15242  31.600  16.193  12.395
42895W        W15243   3.298  36.565   0.803
42896W        W15244  42.031  28.452   3.771
42897W        W15245  39.548  10.836  11.873
42898W        W15246   8.315  19.057   3.698
42899W        W15247  38.986   7.258  10.459
42900W        W15248  35.905  26.161  11.922
42901W        W15249  23.213   7.378  14.304
42902W        W15250  24.574  19.071   4.755
42903W        W15251   6.921  33.471  13.464
42904W        W15252  43.994  18.207   1.795
42905W        W15253   0.813  40.011   4.286
42906W        W15254  36.045  37.336   3.755
42907W        W15255  35.105  27.633   3.763
42908W        W15256  30.448   6.312   1.767
42909W        W15257  14.724  39.423  11.589
42910W        W15258  28.655   5.712   1.763
42911W        W15259  20.554   7.689  11.951
42912W        W15260  14.334  36.540   2.281
42913W        W15261  32.421  27.551   3.376
42914W        W15262  37.479  29.624   3.363
42915W        W15263  27.122  40.454   0.452
42916W        W15264  12.702  33.426  13.356
42917W        W15265   2.865   3.278   0.743
42918W        W15266   9.317   7.310  10.508
42919W        W15267   3.254   2.447  14.788
42920W        W15268  40.941   8.838   1.382
42921W        W15269  34.541  40.028   3.736
42922W        W15270   9.390  36.544  13.503
42923W        W15271  42.031  27.087  11.564
42924W        W15272  37.904   2.278  11.083
42925W        W15273  20.181   5.903  12.468
42926W        W15274  10.312  10.793   1.857
42927W        W15275  14.242  30.486   3.271
42928W        W15276  37.076  14.157   4.822
42929W        W15277  32.924  34.881   3.160
42930W        W15278  33.998  36.973   1.926
42931W        W15279  15.798   5.864   0.279
42932W        W15280  21.153   9.288  14.325
42933W        W15281  41.886  40.868  14.459
42934W        W15282   6.354  13.294   0.334
42935W        W15283  34.024  12.296  14.989
42936W        W15284  23.018  43.834   3.747
42937W        W15285  12.732  44.760  13.357
42938W        W15286  13.841  31.501  10.516
42939W        W15287  17.768  30.150   4.213
42940W        W15288  40.483  34.873  12.977
42941W        W15289  36.909  34.557   4.683
42942W        W15290   4.802   4.944   0.410
42943W        W15291  22.719  40.313  13.523
42944W        W15292  37.477  27.518   2.185
42945W        W15293   7.358  34.118  10.982
42946W        W15294  10.636  21.564   2.281
42947W        W15295  34.011  44.804   1.427
42948W        W15296  29.464  40.508   4.819
42949W        W15297  11.224  32.918   0.857
42950W        W15298  16.226  42.322   2.306
42951W        W15299  32.945   8.322   0.795
42952W        W15300  31.977  44.463   9.930
42953W        W15301  28.592   2.384  12.024
42954W        W15302   4.944  20.669   1.300
42955W        W15303  15.197  26.627   1.430
42956W        W15304  20.716  44.431  14.759
42957W        W15305  16.094  30.084   1.372
42958W        W15306  22.604  26.653  14.025
42959W        W15307  41.933  40.319  11.608
42960W        W15308  29.599  21.710  13.964
42961W        W15309  13.705   2.238   4.248
42962W        W15310  33.967   7.391   2.900
42963W        W15311  36.847  31.449  11.863
42964W        W15312  32.578  39.423   1.223
42965W        W15313  22.202  42.376   4.685
42966W        W15314  43.863  13.301  13.860
42967W        W15315  20.664   6.878  10.476
42968W        W15316   0.384  14.767  11.422
42969W        W15317  34.094  40.486  12.885
42970W        W15318  21.197  13.106  13.895
42971W        W15319  33.979  34.921  11.093
42972W        W15320  34.940  29.134  13.023
42973W        W15321   4.412   7.843   1.818
42974W        W15322  22.660  20.589  12.007
42975W        W15323  18.136   2.931  12.029
42976W        W15324   9.350  37.961   0.411
42977W        W15325  17.131  22.020   2.753
42978W        W15326  23.131   5.732   2.347
42979W        W15327  40.358  14.797  12.557
42980W        W15328  33.462   5.779  13.385
42981W        W15329  32.996  36.376  13.312
42982W        W15330  20.168   8.274   0.317
42983W        W15331  20.199  27.176   4.300
42984W        W15332  37.061  14.108   1.700
42985W        W15333  28.498  14.168  12.455
42986W        W15334   8.740  30.624  13.448
42987W        W15335  24.704  26.203  14.504
42988W        W15336   0.916  18.248   2.211
42989W        W15337   2.835  14.651   2.760
42990W        W15338  36.967  27.110   4.302
42991W        W15339   2.761   5.440   3.800
42992W        W15340  19.540  17.233  10.564
42993W        W15341   9.351  17.790  10.996
42994W        W15342  43.899  41.972  14.445
42995W        W15343   1.366  12.325   0.307
42996W        W15344  40.305  25.602  14.296
42997W        W15345  39.052  38.494  11.462
42998W        W15346  24.141  20.055  12.999
42999W        W15347   9.151  41.038  12.858
43000W        W15348   7.824  16.127   4.651
43001W        W15349  27.118  21.664  12.050
43002W        W15350   4.824  21.084   3.178
43003W        W15351  15.257  43.816   1.834
43004W        W15352  42.291  41.401  11.885
43005W        W15353  38.884  26.093   2.897
43006W        W15354  25.591   8.687  11.129
43007W        W15355   9.213  19.112   9.593
43008W        W15356  37.861  28.110  13.351
43009W        W15357  41.956   1.897  10.465
43010W        W15358  10.308  19.090   2.719
43011W        W15359  42.313  10.676   1.851
43012W        W15360  31.633  25.968  12.003
43013W        W15361  19.125  41.892   0.338
43014W        W15362   6.239  28.535  13.533
43015W        W15363  18.661  40.536   0.428
43016W        W15364  35.958  37.068   3.346
43017W        W15365  37.472  13.815  10.953
43018W        W15366   9.704  34.092  13.053
43019W        W15367   1.891  41.896  13.515
43020W        W15368  13.715  18.119  12.021
43021W        W15369  41.345  40.898  11.022
43022W        W15370   5.430  40.039   1.392
43023W        W15371  12.716  28.522   1.766
43024W        W15372  14.225  18.172  13.984
43025W        W15373  24.069  17.190   0.816
43026W        W15374  28.024  20.564   4.192
43027W        W15375  17.643  19.055   0.813
43028W        W15376   7.284   0.914   3.185
43029W        W15377  16.139  41.946   1.372
43030W        W15378   5.921  16.720   0.932
43031W        W15379  13.313  30.452  13.979
43032W        W15380  13.245  25.188  11.389
43033W        W15381  29.972  25.711  14.512
43034W        W15382   9.863   4.735  14.298
43035W        W15383  19.116  14.729   4.217
43036W        W15384  29.070   2.949  12.060
43037W        W15385   1.898  20.681  12.928
43038W        W15386  42.800  44.339   0.873
43039W        W15387  26.160  13.285   2.416
43040W        W15388  35.034  14.778  13.362
43041W        W15389  15.270  25.532  11.866
43042W        W15390   0.373  31.562  13.833
43043W        W15391  19.095  10.181   3.216
43044W        W15392  17.785  40.379   4.824
43045W        W15393  26.130  15.770  11.884
43046W        W15394  25.135   9.348   5.322
43047W        W15395  26.089  12.311   0.961
43048W        W15396   4.726  26.059  12.547
43049W        W15397   7.837  44.896  11.038
43050W        W15398  30.631  25.487  12.510
43051W        W15399  44.429  29.531   3.730
43052W        W15400   7.285  26.457  13.035
43053W        W15401  36.981   5.375   3.718
43054W        W15402  24.131  22.179   4.738
43055W        W15403  36.029   4.320   1.695
43056W        W15404   8.864   1.766  11.546
43057W        W15405   5.721  30.932  14.981
43058W        W15406   2.819  18.202   3.184
43059W        W15407  28.674   2.251  10.594
43060W        W15408  32.449  41.526   0.947
43061W        W15409   0.787  30.091   1.870
43062W        W15410  24.084   2.348   5.209
43063W        W15411  19.737  42.281  13.031
43064W        W15412  22.120  33.528   1.331
43065W        W15413  24.565  29.579  11.112
43066W        W15414  17.103  20.138   4.174
43067W        W15415  31.031  27.526   3.851
43068W        W15416   4.227   9.176  12.485
43069W        W15417  13.729  34.998   4.143
43070W        W15418  30.031  27.089   4.279
43071W        W15419  17.114  16.237   4.735
43072W        W15420  10.275  27.023  14.277
43073W        W15421  39.464  17.686   1.853
43074W        W15422  27.577  31.448   2.371
43075W        W15423   0.881  24.708  14.821
43076W        W15424  25.483  21.734   0.905
43077W        W15425  24.180   6.697  13.406
43078W        W15426   4.844  14.202   2.242
43079W        W15427  25.624   4.700   1.305
43080W        W15428   1.768  13.104  13.462
43081W        W15429  16.082  26.613  13.052
43082W        W15430  31.548   7.351  10.042
43083W        W15431  18.232  16.716   4.618
43084W        W15432  36.039  39.559  14.784
43085W        W15433  23.513  27.658  12.447
43086W        W15434  35.004   3.732   1.359
43087W        W15435  12.221  16.318  10.628
43088W        W15436  11.204  20.702  12.050
43089W        W15437  11.313  34.591   4.634
43090W        W15438   7.409   3.267   4.118
43091W        W15439  10.274  22.566  10.019
43092W        W15440  24.143  14.826   3.833
43093W        W15441  23.647  12.625   1.351
43094W        W15442  33.539  14.596  14.295
43095W        W15443  37.481   5.423   5.133
43096W        W15444  39.846  26.163   2.340
43097W        W15445  41.441   1.775   3.178
43098W        W15446  42.894  30.149  14.425
43099W        W15447   4.800  41.845   9.993
43100W        W15448  32.976   0.966  12.349
43101W        W15449  37.391  16.100   2.274
43102W        W15450  39.454  16.089   1.722
43103W        W15451   2.777  36.491  11.006
43104W        W15452  32.635  22.677  10.498
43105W        W15453   7.189  37.878   4.726
43106W        W15454  25.052  22.513  11.944
43107W        W15455  29.592  12.320   0.859
43108W        W15456  31.417  21.262   0.793
43109W        W15457  13.687  44.284   0.885
43110W        W15458   7.858  30.463   1.697
43111W        W15459   8.688   6.206  12.019
43112W        W15460   7.774  30.934   3.786
43113W        W15461   6.221  34.016  12.868
43114W        W15462  38.528  22.035   3.657
43115W        W15463  40.825  19.247   4.140
43116W        W15464  40.540  33.109  11.498
43117W        W15465  15.820  14.638   3.263
43118W        W15466  38.503   0.751  14.343
43119W        W15467  17.305  42.326   1.447
43120W        W15468   9.799  31.457   9.529
43121W        W15469  36.504  41.946  11.022
43122W        W15470   7.324  23.579  12.397
43123W        W15471  38.916   0.268   1.311
43124W        W15472  24.030  35.521   4.307
43125W        W15473  31.483  21.101   2.730
43126W        W15474  32.004   8.274  13.395
43127W        W15475   9.278  13.798  13.358
43128W        W15476  42.873  18.677   4.747
43129W        W15477  40.473  40.964  12.570
43130W        W15478  25.603  40.896   1.830
43131W        W15479   0.316  42.494   4.206
43132W        W15480  44.380  23.515   2.684
43133W        W15481  20.118  38.034   4.171
43134W        W15482  32.950   3.372   2.814
43135W        W15483   8.347  24.195   2.360
43136W        W15484   7.200  24.051   3.769
43137W        W15485   6.767  25.601  12.904
43138W        W15486   4.892  33.076  14.862
43139W        W15487  15.743  10.635  13.434
43140W        W15488  35.105  41.401   1.823
43141W        W15489  11.636  39.454   0.811
43142W        W15490  36.854  39.421   3.293
43143W        W15491  25.684  28.142   0.386
43144W        W15492  30.915  23.504  14.502
43145W        W15493  26.161   1.408  11.470
43146W        W15494  22.251  19.612  14.405
43147W        W15495  14.687   2.946  14.287
43148W        W15496  41.365  15.297   1.267
43149W        W15497  19.076  31.046   9.553
43150W        W15498  18.718  19.224   3.358
43151W        W15499  44.342   7.758   0.764
43152W        W15500  26.691  22.640   1.712
43153W        W15501  24.666   0.840  11.006
43154W        W15502  13.310  17.104   4.620
43155W        W15503  13.750  11.702   4.268
43156W        W15504  15.697  44.414   1.412
43157W        W15505  31.482   6.890  12.033
43158W        W15506  33.491  22.122   3.682
43159W        W15507   2.922  25.177  13.321
43160W        W15508  38.453  25.531   3.794
43161W        W15509  29.479  22.682   0.338
43162W        W15510   4.737  34.042  10.573
43163W        W15511  15.173   0.953  12.419
43164W        W15512  13.111  13.130  12.385
43165W        W15513  16.608  43.367  12.559
43166W        W15514  36.565  33.623  11.066
43167W        W15515  31.009   3.882   3.229
43168W        W15516  36.566   8.814  13.535
43169W        W15517   8.208  29.614  12.870
43170W        W15518   0.756  21.060  10.406
43171W        W15519  11.746  19.656   3.330
43172W        W15520  31.914  19.711   4.116
43173W        W15521  30.960   9.241   4.209
43174W        W15522  10.835  19.153  14.343
43175W        W15523  16.121   0.262  10.561
43176W        W15524  18.576  34.586   4.689
43177W        W15525  34.979  27.570  13.985
43178W        W15526   0.387  14.615   1.361
43179W        W15527   0.792  25.628   3.659
43180W        W15528  40.486  36.012   2.405
43181W        W15529  24.628  30.571  13.333
43182W        W15530  15.753  20.197   1.717
43183W        W15531  14.818  29.137   3.152
43184W        W15532  38.974  31.093  14.277
43185W        W15533  26.066   6.757   1.884
43186W        W15534  11.174  14.176  11.442
43187W        W15535  27.599  31.636  12.431
43188W        W15536  38.045  31.419  13.364
43189W        W15537  21.557  37.842  11.035
43190W        W15538  18.571  39.052   0.476
43191W        W15539  41.018  27.996   2.215
43192W        W15540  29.006  20.764   3.795
43193W        W15541   3.743   9.252   4.651
43194W        W15542  14.801  24.182   1.382
43195W        W15543  36.015  41.528   4.719
43196W        W15544   8.798  31.973   2.665
43197W        W15545  40.542  25.139  10.111
43198W        W15546  35.921  15.700  12.442
43199W        W15547  19.205  39.313   0.764
43200W        W15548  34.468  41.950   2.844
43201W        W15549  44.916   5.783   0.830
43202W        W15550  15.658   4.378   3.235
43203W        W15551  40.011  19.077  10.995
43204W        W15552   3.222  26.991   1.885
43205W        W15553  26.196  23.220  14.919
43206W        W15554   0.881   4.222   4.167
43207W        W15555  29.621   7.289  13.461
43208W        W15556  35.074  25.101  14.433
43209W        W15557  29.058   9.750  13.486
43210W        W15558  40.496  11.175  10.624
43211W        W15559   8.261  11.166   3.222
43212W        W15560  15.738  43.998   1.790
43213W        W15561   7.684  28.125   0.414
43214W        W15562  29.630   8.280   3.690
43215W        W15563  37.952  12.763  10.596
43216W        W15564  18.723  34.558   0.376
43217W        W15565  35.559  20.653   4.809
43218W        W15566   3.765   2.353   2.289
43219W        W15567  39.838  37.858  13.969
43220W        W15568  12.289  13.831  11.394
43221W        W15569  30.927  38.375  13.864
43222W        W15570  41.300  14.302  13.864
43223W        W15571  16.666  37.003   2.711
43224W        W15572  11.237  29.059   2.281
43225W        W15573  44.843  33.096  10.478
43226W        W15574   6.900  38.002  12.482
43227W        W15575   3.890  16.233   2.339
43228W        W15576   7.233  22.084  14.878
43229W        W15577   9.358  38.919   5.293
43230W        W15578  12.667  14.152  14.327
43231W        W15579   7.743  28.010   1.415
43232W        W15580  21.190  28.157   2.337
43233W        W15581  39.018  19.229   2.872
43234W        W15582  44.404  22.534  10.548
43235W        W15583   9.876  37.904   2.416
43236W        W15584  42.316   4.280   2.889
43237W        W15585  15.737   7.855  11.603
43238W        W15586   2.865   8.781   3.384
43239W        W15587  32.130  21.189   2.374
43240W        W15588  15.142  28.950  11.574
43241W        W15589  24.046  32.034  10.942
43242W        W15590  19.676  25.198   3.752
43243W        W15591  37.026  44.981   0.940
43244W        W15592  33.058  35.407   4.606
43245W        W15593   1.800  17.782  12.408
43246W        W15594  39.815  36.061   3.848
43247W        W15595  30.592  33.987   1.259
43248W        W15596  18.101  26.610  12.038
43249W        W15597  35.010  40.013  12.453
43250W        W15598  39.891  31.431   3.256
43251W        W15599  16.753  30.159   1.768
43252W        W15600  35.097  19.703   2.834
43253W        W15601   5.912  12.702   0.280
43254W        W15602  13.726  21.658  10.903
43255W        W15603  36.471  21.128  10.531
43256W        W15604  12.831  41.379  11.920
43257W        W15605   5.783  30.652   5.150
43258W        W15606  29.168  38.384   0.849
43259W        W15607  10.366   6.330  12.080
43260W        W15608   5.303  28.150  11.457
43261W        W15609  25.218  22.176  14.983
43262W        W15610  10.260  26.130   1.928
43263W        W15611   7.249  42.922  10.520
43264W        W15612  42.525  35.983   2.292
43265W        W15613  14.645  22.678   0.327
43266W        W15614   0.340  33.065   2.337
43267W        W15615   9.274  21.634   3.677
43268W        W15616   5.839  19.592  13.333
43269W        W15617  13.166  23.535  11.005
43270W        W15618  11.799   8.836   1.373
43271W        W15619   9.382  28.479  11.957
43272W        W15620  10.334  22.208  13.902
43273W        W15621  14.309  26.141   4.245
43274W        W15622   7.300  31.986  14.799
43275W        W15623  10.795  24.000  13.537
43276W        W15624  38.400  11.775  11.981
43277W        W15625   8.400  24.054  13.491
43278W        W15626   3.315  39.959   3.239
43279W        W15627  13.203  44.260   2.360
43280W        W15628   4.396   0.363  12.496
43281W        W15629   8.727  30.005  14.794
43282W        W15630  21.112  42.836   3.204
43283W        W15631  27.636   5.702  10.597
43284W        W15632  26.156  41.924  12.990
43285W        W15633  27.127   5.729   3.796
43286W        W15634   4.704  22.234   3.173
43287W        W15635  12.628   3.292   0.421
43288W        W15636  38.921  39.386   1.412
43289W        W15637  44.437  27.947   2.796
43290W        W15638  10.345   4.770   5.210
43291W        W15639   0.782  26.565  10.538
43292W        W15640  30.596  38.062   2.401
43293W        W15641  37.951  24.226   4.688
43294W        W15642   8.348   6.216  12.380
43295W        W15643  22.649  27.979  10.966
43296W        W15644  14.697  44.425  10.998
43297W        W15645  14.244  14.592  11.128
43298W        W15646  25.666  22.558   2.744
43299W        W15647  17.231  33.622   3.805
43300W        W15648   2.746  15.154   1.829
43301W        W15649  43.926  29.563   4.681
43302W        W15650   6.190  27.950  11.118
43303W        W15651  32.514  16.121  12.477
43304W        W15652  11.222   4.853   1.432
43305W        W15653  32.121   0.395   0.728
43306W        W15654  10.343   8.293  12.073
43307W        W15655   5.340  38.374   2.207
43308W        W15656  39.380   7.366  14.367
43309W        W15657   1.751  11.370   0.751
43310W        W15658   0.749  41.920  13.322
43311W        W15659  19.111  19.169   1.246
43312W        W15660  40.534  19.065  10.454
43313W        W15661  26.062  31.426  13.021
43314W        W15662  21.028  11.640   4.122
43315W        W15663  20.180  29.994  14.348
43316W        W15664  14.271  37.899   0.774
43317W        W15665  10.845  38.535   3.248
43318W        W15666  43.963  24.565   0.458
43319W        W15667  18.294   5.397   1.845
43320W        W15668  44.320   4.404   2.205
43321W        W15669  43.440  42.462  12.362
43322W        W15670  10.868  43.415  14.009
43323W        W15671   2.943   1.795   0.350
43324W        W15672  14.326  41.861  12.088
43325W        W15673  41.800  12.694  11.402
43326W        W15674  35.522   4.413  10.580
43327W        W15675  30.634  27.485   4.744
43328W        W15676   0.966   2.960   0.425
43329W        W15677  22.131  10.733  13.008
43330W        W15678  20.135  17.240   3.276
43331W        W15679  20.575  25.563   4.774
43332W        W15680  37.523  29.974  12.437
43333W        W15681  12.803   9.828   3.767
43334W        W15682  33.068  31.018  10.601
43335W        W15683  25.482  24.521   1.838
43336W        W15684  30.909  20.604   3.262
43337W        W15685  32.093  38.401  12.044
43338W        W15686  39.537  20.259  13.960
43339W        W15687  14.096  40.518  12.087
43340W        W15688  34.491  25.572  11.901
43341W        W15689  21.189  44.329  13.849
43342W        W15690  13.637   2.402  13.935
43343W        W15691  40.410  26.976   1.246
43344W        W15692   1.461   8.202  11.388
43345W        W15693  13.762  25.585   0.246
43346W        W15694  17.293   3.309  10.948
43347W        W15695  23.667  11.146   3.731
43348W        W15696   3.744  44.959  11.042
43349W        W15697  17.207  10.327   2.838
43350W        W15698  34.609  27.132   1.265
43351W        W15699  29.941  23.536   3.248
43352W        W15700  10.663   0.848   3.266
43353W        W15701  21.543  36.518  11.601
43354W        W15702  27.500  40.829   0.796
43355W        W15703   8.735  20.543  11.936
43356W        W15704  31.063  43.341   4.604
43357W        W15705  14.626  31.973   2.405
43358W        W15706  17.265  19.055   1.273
43359W        W15707   8.367   4.387  11.451
43360W        W15708   8.365  40.486   3.853
43361W        W15709  32.607  39.387   4.188
43362W        W15710  10.315  27.678  13.967
43363W        W15711  10.321  36.482  10.552
43364W        W15712  43.846   7.796  10.485
43365W        W15713  14.117  23.153   2.703
43366W        W15714  26.574  30.020   2.831
43367W        W15715  44.477   5.357   3.233
43368W        W15716   3.747   0.802   4.328
43369W        W15717  35.063   7.360  14.768
43370W        W15718   0.420  27.555   0.416
43371W        W15719  21.658  33.578   3.715
43372W        W15720  31.474  10.258  13.842
43373W        W15721   5.724   1.965  10.439
43374W        W15722   0.743  35.381  12.950
43375W        W15723  41.923   3.377   3.630
43376W        W15724  25.173  18.565  14.297
43377W        W15725  34.051  15.294  13.447
43378W        W15726   7.877   4.308   1.420
43379W        W15727  38.891  40.834  13.936
43380W        W15728  19.689  30.914   4.130
43381W        W15729  43.387  12.174   1.245
43382W        W15730  12.697  36.047  13.432
43383W        W15731  41.836  15.689   1.805
43384W        W15732  25.020   0.807  12.921
43385W        W15733  43.473  19.071  13.818
43386W        W15734   4.771  23.206   2.182
43387W        W15735  44.841  11.290   3.261
43388W        W15736  24.064   0.247  14.869
43389W        W15737  27.037  11.753   0.838
43390W        W15738  30.114  44.342  14.808
43391W        W15739  21.171  43.942  13.053
43392W        W15740  25.106  14.710   1.814
43393W        W15741  18.660  32.135  11.432
43394W        W15742  12.670  21.704   0.404
43395W        W15743  15.645  37.536   3.371
43396W        W15744  14.776  29.465   3.265
43397W        W15745  13.618  27.138   4.241
43398W        W15746  29.948  19.238  11.535
43399W        W15747  21.219  32.452  12.411
43400W        W15748  37.346   9.165   4.641
43401W        W15749  28.458  33.580   1.907
43402W        W15750  29.956  39.044  14.296
43403W        W15751  29.097   6.877  11.492
43404W        W15752  17.756   3.882  11.918
43405W        W15753  13.147   0.387   2.727
43406W        W15754   2.381   8.222   3.785
43407W        W15755  39.839  35.575  13.375
43408W        W15756  23.150  42.793   2.829
43409W        W15757  39.383  17.265   4.801
43410W        W15758  12.287   2.805  13.827
43411W        W15759  41.844  13.616  11.013
43412W        W15760  33.417   1.276   3.728
43413W        W15761  16.630  30.998   0.812
43414W        W15762  23.062   4.355  12.892
43415W        W15763   7.749  38.547   0.800
43416W        W15764  35.039  38.885  12.874
43417W        W15765   5.917  38.385   0.354
43418W        W15766   0.349  37.980   1.336
43419W        W15767  20.265  32.399   1.769
43420W        W15768   7.325   5.196   4.152
43421W        W15769   9.249  17.791   1.740
43422W        W15770  10.167  38.921   0.475
43423W        W15771  18.623  35.049   4.166
43424W        W15772  34.426  29.003   2.772
43425W        W15773  24.586  17.231  11.874
43426W        W15774  40.311  30.006  12.003
43427W        W15775  13.766   8.321   1.805
43428W        W15776  12.207  12.754  10.571
43429W        W15777  19.065  11.136   1.250
43430W        W15778  22.181  11.727  11.039
43431W        W15779  34.097  14.286   1.767
43432W        W15780  10.241  25.554  10.474
43433W        W15781  40.964  27.469   2.793
43434W        W15782  23.649  41.931  13.860
43435W        W15783  26.577  17.307   1.272
43436W        W15784   7.766  35.900  14.807
43437W        W15785   9.340  35.097   0.392
43438W        W15786  42.922  14.712  14.332
43439W        W15787  37.060  23.176  12.003
43440W        W15788  26.964   6.309   1.741
43441W        W15789  40.353  24.009  11.478
43442W        W15790  12.145  19.259   1.733
43443W        W15791  40.435   0.437   4.258
43444W        W15792   0.253  23.691   4.137
43445W        W15793  31.976   9.373   9.936
43446W        W15794  22.529  15.095   1.419
43447W        W15795   5.247  14.196  13.502
43448W        W15796   5.821  17.222  12.504
43449W        W15797   0.394  12.622   3.864
43450W        W15798  44.812   2.298   2.346
43451W        W15799   1.286  16.138   1.341
43452W        W15800  15.675  43.378  14.471
43453W        W15801  34.869  26.699   2.705
43454W        W15802  15.150  14.271   5.166
43455W        W15803  32.125   7.331  10.968
43456W        W15804  40.048  16.193  11.072
43457W        W15805  22.725  22.995   0.402
43458W        W15806  35.956  39.482  11.937
43459W        W15807  25.109  17.648   0.865
43460W        W15808  23.104  10.193   1.859
43461W        W15809  42.465   1.333   3.667
43462W        W15810   9.266   0.784   4.789
43463W        W15811   9.807  29.104  14.908
43464W        W15812  12.199  24.071  12.387
43465W        W15813   6.421  39.923  10.469
43466W        W15814  38.841  11.842  11.445
43467W        W15815  32.000   4.762   0.344
43468W        W15816  22.020  34.370  10.427
43469W        W15817  26.990  42.032  10.505
43470W        W15818   3.928   6.325   2.308
43471W        W15819   9.677   5.301   3.234
43472W        W15820  14.722  10.808  12.867
43473W        W15821   9.250  27.131   2.791
43474W        W15822  38.461   3.955  12.549
43475W        W15823   1.361  43.443   4.766
43476W        W15824   1.291  39.995  13.822
43477W        W15825  23.050  38.506   2.722
43478W        W15826   2.808  29.115   0.927
43479W        W15827   9.250  33.515   5.239
43480W        W15828  19.222  11.657  13.836
43481W        W15829  21.179  29.500   2.731
43482W        W15830  34.104  32.519   4.204
43483W        W15831  40.012  31.455  12.054
43484W        W15832   1.395   0.910   0.341
43485W        W15833   5.916  32.630   0.819
43486W        W15834  20.578   9.687  11.930
43487W        W15835  13.177   6.834   5.100
43488W        W15836  15.756   9.192   1.315
43489W        W15837  31.979  17.261   5.276
43490W        W15838  30.465  27.560  11.518
43491W        W15839  30.487  43.857   2.370
43492W        W15840  36.560  31.556  11.074
43493W        W15841  24.504   8.368   0.249
43494W        W15842  32.054  41.906   1.876
43495W        W15843  18.103  42.965   0.808
43496W        W15844  36.369  40.025  13.839
43497W        W15845   6.355  42.957  11.394
43498W        W15846  40.315   8.868  10.110
43499W        W15847   5.238  37.521  12.541
43500W        W15848  17.567  29.951  14.825
43501W        W15849  29.580  22.641  11.601
43502W        W15850  31.936  38.468  12.577
43503W        W15851  44.954  23.204   4.247
43504W        W15852  35.009   8.776  10.150
43505W        W15853  33.880  42.871   1.438
43506W        W15854  28.591  33.022  11.427
43507W        W15855  38.953  33.436   2.247
43508W        W15856  35.359  35.392   4.769
43509W        W15857  14.222   0.835  13.868
43510W        W15858  36.540  41.412   3.300
43511W        W15859  23.554  29.072  14.417
43512W        W15860  43.779  14.626   1.889
43513W        W15861  41.476  17.573  12.422
43514W        W15862  17.154  40.471   4.681
43515W        W15863  29.531  38.860   0.873
43516W        W15864   9.646   7.690   2.393
43517W        W15865  18.285   6.742   3.235
43518W        W15866  37.071   7.244   1.320
43519W        W15867  22.645   2.404  14.478
43520W        W15868  25.493  42.963   2.687
43521W        W15869  37.981  12.618   2.702
43522W        W15870  14.259  20.255   3.682
43523W        W15871  10.735  34.582  11.442
43524W        W15872  26.988  24.650   4.719
43525W        W15873  36.369  32.618  10.988
43526W        W15874  31.564  38.023  12.085
43527W        W15875  25.565  40.982   3.294
43528W        W15876  26.206  14.221   4.625
43529W        W15877  20.747  40.034   3.700
43530W        W15878  11.836  10.152  13.474
43531W        W15879   4.821  24.550  11.934
43532W        W15880  27.981  40.378  13.884
43533W        W15881   5.404  27.615   2.250
43534W        W15882  32.950  11.288  11.901
43535W        W15883  10.173  23.163  13.328
43536W        W15884  33.095  30.062  13.452
43537W        W15885   4.306  42.361  13.809
43538W        W15886  34.577   0.395   3.658
43539W        W15887   0.762  37.365   1.796
43540W        W15888   9.221  20.169  13.997
43541W        W15889  11.235  36.030  14.318
43542W        W15890  31.908  14.146  13.855
43543W        W15891  13.215  25.662  12.082
43544W        W15892   2.880  34.414  10.957
43545W        W15893  15.210   9.211  11.471
43546W        W15894  31.907  11.754   3.154
43547W        W15895   4.218  44.974  11.595
43548W        W15896  16.271  34.948   2.713
43549W        W15897  27.097  44.407  14.930
43550W        W15898  29.064  24.721  14.277
43551W        W15899  11.712  31.514  13.429
43552W        W15900   6.745   4.921   0.749
43553W        W15901  16.248   7.708  13.800
43554W        W15902   1.394   8.663  12.001
43555W        W15903  34.053  32.934   0.360
43556W        W15904  21.048  44.986  11.003
43557W        W15905  17.726  14.828   2.754
43558W        W15906  42.387   4.236  14.453
43559W        W15907   2.406  25.560   3.162
43560W        W15908   2.292  26.473   3.159
43561W        W15909  12.352  17.185  12.562
43562W        W15910  34.005  32.499  11.444
43563W        W15911  17.737  38.450   1.864
43564W        W15912  22.068  17.186   4.743
43565W        W15913  29.933  37.051  11.585
43566W        W15914  10.788  36.059   4.240
43567W        W15915  14.098  40.010   1.268
43568W        W15916   1.870   6.712   2.372
43569W        W15917  17.564  30.631   5.675
43570W        W15918  19.060  42.444  13.527
43571W        W15919  12.249  18.191  10.427
43572W        W15920  11.773  42.899   1.927
43573W        W15921  10.646  27.147  14.354
43574W        W15922   5.689   5.295   2.833
43575W        W15923  44.294   2.331  11.932
43576W        W15924   2.903  19.251  14.464
43577W        W15925  44.816  33.976   3.683
43578W        W15926  31.414  15.811   5.314
43579W        W15927  30.988  31.105   1.707
43580W        W15928  39.036  44.886   1.277
43581W        W15929   9.657  29.445   1.391
43582W        W15930  26.011  12.278  10.524
43583W        W15931  16.805  13.265   4.735
43584W        W15932  32.501   7.769  12.009
43585W        W15933  38.038  20.179  12.004
43586W        W15934  43.271  20.106   3.284
43587W        W15935   3.941  22.526  10.937
43588W        W15936  32.576  35.893  11.858
43589W        W15937  42.458  32.448   3.215
43590W        W15938   2.359  29.087  12.095
43591W        W15939  35.058  12.182   0.784
43592W        W15940  13.659  32.539   2.729
43593W        W15941  36.374  21.609   0.265
43594W        W15942  44.330  23.693   0.886
43595W        W15943  18.069  14.600   2.356
43596W        W15944  40.904  38.969   1.249
43597W        W15945  22.738   3.889   4.331
43598W        W15946   0.312  34.569   4.655
43599W        W15947   4.869  28.004   3.227
43600W        W15948  22.673  35.965   3.716
43601W        W15949  44.303  40.363  13.056
43602W        W15950  20.720  11.721  11.574
43603W        W15951  32.952   2.882  10.997
43604W        W15952  15.181  37.838  12.948
43605W        W15953  34.008  39.364  12.828
43606W        W15954   3.446  15.607   0.936
43607W        W15955   7.750  39.546  13.901
43608W        W15956  21.087  29.922   0.843
43609W        W15957  18.564  28.953   2.689
43610W        W15958  26.109  23.506   3.191
43611W        W15959  42.391   5.875  11.599
43612W        W15960  18.232  13.714  13.367
43613W        W15961  11.366  22.544   5.097
43614W        W15962  17.126   4.311   4.615
43615W        W15963  28.630  20.738  12.391
43616W        W15964  26.125  40.840  14.987
43617W        W15965  29.978  23.051   3.759
43618W        W15966  17.581  20.576  13.420
43619W        W15967  43.882  36.550   2.392
43620W        W15968  29.063  37.459  12.958
43621W        W15969  34.611  23.197   5.280
43622W        W15970  22.083  10.375   3.364
43623W        W15971  37.896  12.851   4.685
43624W        W15972  29.524  10.280   5.321
43625W        W15973  13.632  27.974   0.446
43626W        W15974  32.062  31.106  11.380
43627W        W15975  35.934  36.980  13.997
43628W        W15976   6.249   9.702  10.583
43629W        W15977  28.524   3.869   1.893
43630W        W15978  17.285  33.601  12.909
43631W        W15979  22.743  14.212  12.354
43632W        W15980   2.383  11.847   4.235
43633W        W15981   6.841  14.714   2.413
43634W        W15982   0.884  17.601   1.287
43635W        W15983  18.765  16.105  14.875
43636W        W15984   7.760  20.555   1.803
43637W        W15985  29.546  14.608  13.828
43638W        W15986  16.670  33.096   2.218
43639W        W15987   0.492  17.678   3.849
43640W        W15988  16.099   2.226   1.361
43641W        W15989  36.847  24.587  13.872
43642W        W15990  29.125  38.437  14.002
43643W        W15991  34.039  17.618   2.701
43644W        W15992   1.813  18.684  11.532
43645W        W15993  24.620   8.384  14.970
43646W        W15994  40.026   0.274  11.983
43647W        W15995  18.606  21.756  13.846
43648W        W15996   1.963  27.485  12.036
43649W        W15997  25.488  14.142  13.408
43650W        W15998   8.784  18.154   2.247
43651W        W15999  24.193  34.530   3.357
43652W        W16000   5.699  44.852  14.882
43653W        W16001   4.900  27.551  10.080
43654W        W16002  32.500  42.996  11.872
43655W        W16003   6.364  19.677  11.377
43656W        W16004  11.217  25.147  11.473
43657W        W16005  13.325   6.677   3.326
43658W        W16006  34.581  24.062   0.915
43659W        W16007   4.897  24.014   0.434
43660W        W16008   9.845   1.963  14.875
43661W        W16009  37.970  30.044   2.222
43662W        W16010  44.002  22.165   2.865
43663W        W16011  23.221  33.037   3.754
43664W        W16012  29.441  30.636   3.190
43665W        W16013  30.438  21.687  12.951
43666W        W16014  40.395  33.429  12.915
43667W        W16015  36.393   5.391  12.984
43668W        W16016  29.047  17.712   3.750
43669W        W16017   6.749  21.090   0.967
43670W        W16018  27.970  32.893  13.358
43671W        W16019  37.550  36.849   1.321
43672W        W16020  36.019   7.726   2.306
43673W        W16021  44.951  37.550  14.934
43674W        W16022  31.507  21.672  10.632
43675W        W16023  15.613  11.268   4.142
43676W        W16024  43.481  21.724   4.677
43677W        W16025  11.342   3.930   0.926
43678W        W16026  40.047  38.554   2.663
43679W        W16027  33.433  24.986  13.836
43680W        W16028  30.947   5.848  12.922
43681W        W16029  11.653   0.442  10.900
43682W        W16030  12.662  25.699   4.260
43683W        W16031  13.254   3.411  12.565
43684W        W16032  16.315   4.812  13.466
43685W        W16033  28.461  35.388  12.891
43686W        W16034  20.135   2.729   3.209
43687W        W16035  24.158  39.451   4.637
43688W        W16036   3.760  44.481   3.351
43689W        W16037  44.777   7.209  11.965
43690W        W16038  24.113  21.658  13.428
43691W        W16039  12.228  32.406   1.868
43692W        W16040  44.957  44.964   2.763
43693W        W16041  35.557  39.486  12.478
43694W        W16042  36.415  27.102   3.831
43695W        W16043   8.206  40.421  12.899
43696W        W16044  14.719  42.809   0.795
43697W        W16045  39.842   0.343   4.800
43698W        W16046  22.117  22.577  13.388
43699W        W16047  24.699  34.380   0.385
43700W        W16048   8.373  25.067  11.563
43701W        W16049   1.298  10.671   0.345
43702W        W16050   3.453  30.939   3.642
43703W        W16051  43.830  34.377   0.963
43704W        W16052   1.774   0.325  14.428
43705W        W16053   6.322  13.599  13.527
43706W        W16054  27.077  34.045   2.714
43707W        W16055   0.446  34.982   4.732
43708W        W16056  26.169  30.579   3.651
43709W        W16057  22.020  40.493  13.850
43710W        W16058  10.673   6.190  14.788
43711W        W16059  11.129  35.359   2.184
43712W        W16060  18.152   1.754  10.910
43713W        W16061  20.539   2.830  13.905
43714W        W16062  18.222  14.680   1.305
43715W        W16063  34.877   9.663  12.883
43716W        W16064   7.805   5.898   3.794
43717W        W16065  40.943  10.381  14.410
43718W        W16066  35.504  20.652   3.660
43719W        W16067  27.589  35.924  13.440
43720W        W16068  27.633  18.136   0.734
43721W        W16069  31.119   6.312  12.982
43722W        W16070  42.865  44.485   4.598
43723W        W16071  23.529  31.631  10.641
43724W        W16072  12.264  27.557   3.689
43725W        W16073   2.933  23.494   3.269
43726W        W16074   9.177  28.932   1.417
43727W        W16075  27.474  25.604  12.088
43728W        W16076  22.582  22.730   0.778
43729W        W16077  29.495   4.751  11.038
43730W        W16078  36.548  37.833   3.655
43731W        W16079  19.054   1.400  14.469
43732W        W16080   8.281  30.424  11.563
43733W        W16081  18.570  44.920  10.965
43734W        W16082  36.867  17.799  12.927
43735W        W16083  40.900  14.271   1.359
43736W        W16084   4.330  34.997   4.620
43737W        W16085  39.398   7.275  13.998
43738W        W16086  17.791  30.456   4.784
43739W        W16087   2.418  40.823   0.250
43740W        W16088  32.498  23.551  12.575
43741W        W16089  36.424  17.790   4.687
43742W        W16090  33.613   6.341   0.924
43743W        W16091  42.919  21.692   3.724
43744W        W16092   2.892  18.741   0.248
43745W        W16093  41.894   5.702   1.410
43746W        W16094  42.821  12.146   0.742
43747W        W16095   8.668  12.799   3.243
43748W        W16096  14.261   7.417  13.849
43749W        W16097  24.213  25.095   3.224
43750W        W16098  22.717   0.311   1.236
43751W        W16099  36.975  32.894   2.392
43752W        W16100  11.130  31.060  10.620
43753W        W16101  32.003  43.516   4.820
43754W        W16102  18.177   0.919  14.837
43755W        W16103  37.895   9.651   1.352
43756W        W16104  37.851  22.600  13.981
43757W        W16105   8.857  42.294   1.858
43758W        W16106  17.738  23.141  14.024
43759W        W16107  16.153  17.094   3.693
43760W        W16108  24.226  16.621  10.563
43761W        W16109  38.070  24.223  10.100
43762W        W16110   7.843   9.653  11.909
43763W        W16111  27.133   1.381  10.494
43764W        W16112  37.555   5.408   4.815
43765W        W16113  34.064  38.556   0.940
43766W        W16114   4.811  41.392   2.676
43767W        W16115  24.539   2.354  10.503
43768W        W16116  11.369   5.835   5.113
43769W        W16117   6.266  43.860  10.988
43770W        W16118   5.761  18.633  11.554
43771W        W16119   2.385  10.697  12.571
43772W        W16120  18.159  20.048  12.009
43773W        W16121  10.315  27.985   0.818
43774W        W16122   8.315   5.869   1.868
43775W        W16123   5.909  11.622   3.184
43776W        W16124  43.947  14.785  14.504
43777W        W16125   4.708  26.058  12.081
43778W        W16126  11.807  41.966  14.395
43779W        W16127  21.029   9.260  13.965
43780W        W16128  11.285  29.445   3.357
43781W        W16129   2.332  10.846  10.535
43782W        W16130  16.302  10.686  13.885
43783W        W16131   4.206  36.364   3.767
43784W        W16132  28.148  32.095   1.288
43785W        W16133  19.265   9.873   1.367
43786W        W16134   6.387  14.324   3.763
43787W        W16135  21.634  32.429   3.204
43788W        W16136  11.778   1.836  11.562
43789W        W16137  27.045  14.681  13.879
43790W        W16138  11.306  25.101  14.912
43791W        W16139  25.691   5.908  11.875
43792W        W16140  33.997  23.187  11.064
43793W        W16141  28.499   0.808  10.946
43794W        W16142   3.812  12.310  14.850
43795W        W16143  40.036  41.829   1.282
43796W        W16144  16.180  12.280  10.559
43797W        W16145  36.368  33.437   0.453
43798W        W16146   4.359  39.924  13.928
43799W        W16147  41.911  44.809  14.807
43800W        W16148  40.501  16.308  10.448
43801W        W16149   3.737   3.319  12.052
43802W        W16150  41.027   8.370   4.271
43803W        W16151  33.965  31.497  14.435
43804W        W16152  12.804  40.522  13.346
43805W        W16153   8.723   3.827  11.968
43806W        W16154  18.684  31.047   1.424
43807W        W16155  28.104  22.181  12.855
43808W        W16156  37.517   6.800  11.034
43809W        W16157  14.194  12.353   1.814
43810W        W16158  30.908  17.775  11.391
43811W        W16159  41.891  15.626  12.572
43812W        W16160   6.353  21.241  11.481
43813W        W16161   8.736   9.237  12.994
43814W        W16162  21.160  16.704  12.937
43815W        W16163  13.144  41.422  10.987
43816W        W16164  39.331  40.463   4.146
43817W        W16165  18.656  42.449   3.213
43818W        W16166  30.965   2.432   2.799
43819W        W16167  32.902   1.868  11.400
43820W        W16168  33.070   3.872   0.403
43821W        W16169   2.779  34.505  11.488
43822W        W16170   3.410  38.843  11.449
43823W        W16171   6.235  12.160  11.989
43824W        W16172  44.480  29.538  14.307
43825W        W16173  37.880  27.451   4.252
43826W        W16174  20.259  24.023   4.348
43827W        W16175  10.165  38.915  13.470
43828W        W16176  18.694  17.648   0.966
43829W        W16177  33.050  27.552   2.876
43830W        W16178  36.348  41.921   4.133
43831W        W16179  30.607  24.097   3.351
43832W        W16180  16.155  34.115  12.891
43833W        W16181  29.653   8.897   4.352
43834W        W16182   7.274   0.317   1.760
43835W        W16183  25.035   4.217   4.816
43836W        W16184  17.168  37.427  11.493
43837W        W16185  16.720  32.614   2.257
43838W        W16186  43.009  21.675  10.610
43839W        W16187  16.284  18.253   1.215
43840W        W16188  22.565  14.216  10.918
43841W        W16189  44.766   7.704  12.050
43842W        W16190  38.429  23.658  11.407
43843W        W16191  40.390   6.321   1.414
43844W        W16192   7.692   6.208  12.423
43845W        W16193  28.031  30.486  14.959
43846W        W16194   4.310  26.990  14.910
43847W        W16195  23.062  38.524  14.444
43848W        W16196   1.409  21.114  13.869
43849W        W16197  14.714  17.159  13.512
43850W        W16198  36.997  27.138   4.603
43851W        W16199  32.067  27.475  14.783
43852W        W16200  11.225   3.229   1.831
43853W        W16201  14.174  22.741   1.803
43854W        W16202  22.202   6.194  13.968
43855W        W16203  12.782  35.019   4.730
43856W        W16204   7.854   4.242   2.724
43857W        W16205  29.967  10.837  13.320
43858W        W16206   7.395  18.637   0.289
43859W        W16207  41.300  17.247   2.230
43860W        W16208  24.618  44.384   3.753
43861W        W16209  21.647  10.833  12.348
43862W        W16210   6.826  28.471   2.358
43863W        W16211  19.634   6.920   1.335
43864W        W16212  43.412  23.073  11.429
43865W        W16213  30.936  39.004  11.919
43866W        W16214  21.535  33.980  13.474
43867W        W16215   0.768   1.243   2.837
43868W        W16216  30.913   1.460  14.835
43869W        W16217  24.610   1.801   0.299
43870W        W16218   7.811  34.598   3.831
43871W        W16219  43.348   6.426  13.531
43872W        W16220  18.620  32.521   1.701
43873W        W16221  32.468  38.552  14.295
43874W        W16222  36.991  25.176   4.619
43875W        W16223   2.908  23.703  14.395
43876W        W16224  27.116  25.669   0.738
43877W        W16225  15.812  35.861  13.405
43878W        W16226  39.474  17.668  13.327
43879W        W16227  33.577   2.817  11.867
43880W        W16228  15.606   9.256   0.751
43881W        W16229  42.993   0.848   1.398
43882W        W16230  37.554   5.368   9.953
43883W        W16231  19.570  28.660  13.937
43884W        W16232  40.326   6.417   4.273
43885W        W16233  28.989  11.145  14.771
43886W        W16234   2.951  20.614  12.053
43887W        W16235  20.750  44.804  11.016
43888W        W16236  36.435  40.843   0.770
43889W        W16237  14.640  15.100  10.498
43890W        W16238  37.084  33.945   1.818
43891W        W16239   5.696  40.311  11.085
43892W        W16240  28.641  11.242   2.335
43893W        W16241  40.847  40.843  10.571
43894W        W16242  22.053  34.540  13.321
43895W        W16243  41.960  13.289  12.974
43896W        W16244  42.328  20.174  14.507
43897W        W16245  22.145  22.547   1.370
43898W        W16246  27.679  29.433   0.257
43899W        W16247  41.814  14.218   4.273
43900W        W16248  10.805  17.236   1.360
43901W        W16249  35.468  35.016   4.737
43902W        W16250  43.428  12.190   4.150
43903W        W16251  39.844  35.524  14.954
43904W        W16252  25.057  15.126   2.399
43905W        W16253   0.936   6.352   5.267
43906W        W16254  39.505  18.682  11.934
43907W        W16255  18.183   7.736  14.939
43908W        W16256  41.293  20.735  14.367
43909W        W16257  25.666  11.165  11.462
43910W        W16258  26.562  34.527   2.346
43911W        W16259   1.927  35.954  12.041
43912W        W16260  24.574   8.820   3.179
43913W        W16261   8.185  43.351   3.152
43914W        W16262  33.039  34.063   1.361
43915W        W16263   6.691  14.209   1.379
43916W        W16264  38.848   0.483   3.228
43917W        W16265  34.371   7.767  11.990
43918W        W16266  19.114  39.822   1.884
43919W        W16267  22.509  16.237  12.916
43920W        W16268  20.638  26.700   0.865
43921W        W16269  38.907  13.308   2.717
43922W        W16270  35.387  19.205  13.403
43923W        W16271  34.036   6.345   1.435
43924W        W16272  22.543  42.776  14.860
43925W        W16273  34.121  26.504  13.337
43926W        W16274  44.470  33.887   0.374
43927W        W16275  21.624   2.255  14.354
43928W        W16276  10.300  26.149  13.416
43929W        W16277   5.329  10.811   1.281
43930W        W16278  37.577  19.589   2.202
43931W        W16279   4.929  35.422  14.964
43932W        W16280  44.754  40.374  13.389
43933W        W16281  27.152   3.780  14.889
43934W        W16282  42.474  28.087   0.818
43935W        W16283  23.521  23.084  13.314
43936W        W16284  17.568  14.615   1.716
43937W        W16285  36.469  43.833  12.008
43938W        W16286  40.859  39.447  11.963
43939W        W16287  44.432  24.527  12.533
43940W        W16288  18.280   2.826  13.372
43941W        W16289  27.943  36.008   1.710
43942W        W16290  19.246  22.177  11.525
43943W        W16291   4.393   2.261   1.794
43944W        W16292  38.508   6.731   4.247
43945W        W16293  16.204   2.820   3.236
43946W        W16294   1.852   4.403  12.344
43947W        W16295   4.789  14.278   1.909
43948W        W16296  26.186  28.676  13.353
43949W        W16297  22.544   3.237  12.013
43950W        W16298  22.577  17.793   3.370
43951W        W16299  10.716  21.124  12.853
43952W        W16300  21.085  13.341   1.833
43953W        W16301  44.881  20.743  12.892
43954W        W16302  32.139  25.490   3.267
43955W        W16303  22.069  33.494  12.030
43956W        W16304  39.529  18.571  12.903
43957W        W16305   9.384  17.571  14.397
43958W        W16306  16.089  32.948  10.955
43959W        W16307   0.324  42.880  14.510
43960W        W16308  16.227  43.822  12.888
43961W        W16309  23.109   3.299  10.484
43962W        W16310  35.469   2.778   4.334
43963W        W16311   5.293  13.606  13.791
43964W        W16312   7.328  16.725  11.442
43965W        W16313  42.858  30.459   0.856
43966W        W16314  17.699  17.602  11.562
43967W        W16315   7.359  37.452   0.818
43968W        W16316   6.347  16.276  14.962
43969W        W16317   0.794  33.882  12.508
43970W        W16318   7.908  12.147  10.963
43971W        W16319  22.119  40.472  14.803
43972W        W16320   7.286   9.387  11.415
43973W        W16321  14.212  42.332  12.906
43974W        W16322  20.073  23.199   2.391
43975W        W16323  35.527  39.483  11.515
43976W        W16324  36.491  33.539  11.967
43977W        W16325  41.500  33.609   3.325
43978W        W16326   5.771  40.050  10.965
43979W        W16327   2.409  15.785  12.873
43980W        W16328   2.960  43.855  11.388
43981W        W16329  30.115  35.085   4.350
43982W        W16330  14.320  22.037   1.415
43983W        W16331  27.657   7.694   3.867
43984W        W16332  29.456  12.624   4.614
43985W        W16333  20.697  38.500   4.144
43986W        W16334  11.309  37.910   2.399
43987W        W16335  40.391  28.974   4.126
43988W        W16336  26.130  21.125  10.951
43989W        W16337  11.203   4.369  14.325
43990W        W16338  36.572  39.020  10.448
43991W        W16339  12.236   7.337  10.072
43992W        W16340   2.309  22.071   1.916
43993W        W16341  25.061  30.570  12.367
43994W        W16342  39.393  26.207  13.993
43995W        W16343  30.495  35.909  12.964
43996W        W16344  26.491   0.421   1.934
43997W        W16345  17.278  38.037   3.702
43998W        W16346  30.006  38.075   2.832
43999W        W16347  33.045  41.862  13.825
44000W        W16348  14.127   3.844  11.576
44001W        W16349  44.792   4.905   3.185
44002W        W16350  30.593  20.037  11.418
44003W        W16351  35.576  35.090  13.915
44004W        W16352  39.446  10.347   0.372
44005W        W16353  18.561  23.190  10.900
44006W        W16354  21.102  32.009  13.028
44007W        W16355  22.639  33.000  10.974
44008W        W16356  32.542   9.374   5.097
44009W        W16357  19.116  40.006  13.827
44010W        W16358  39.830  21.212   0.414
44011W        W16359  35.436  10.184   2.745
44012W        W16360  43.502  26.649  10.983
44013W        W16361  32.975  37.359  10.126
44014W        W16362  30.943  37.411  14.932
44015W        W16363  24.125   8.398   0.321
44016W        W16364   9.663  39.387   2.341
44017W        W16365  33.551   4.444  10.079
44018W        W16366  34.454  14.223   0.473
44019W        W16367  25.963   4.437   0.819
44020W        W16368  27.532  44.010  14.343
44021W        W16369   1.442  19.714   3.376
44022W        W16370  26.478  35.536  10.468
44023W        W16371  39.322  28.161   3.276
44024W        W16372  12.766  15.085  14.491
44025W        W16373  30.455  29.489  13.017
44026W        W16374  41.013  32.606   4.603
44027W        W16375   9.343  15.737  14.435
44028W        W16376  26.472   1.359   1.799
44029W        W16377  12.683  16.106   0.904
44030W        W16378  28.184  38.863   3.151
44031W        W16379  24.509   8.238   5.304
44032W        W16380  28.587  32.538  14.896
44033W        W16381  24.150   1.780   2.692
44034W        W16382  37.348  38.339  14.513
44035W        W16383   5.247   3.296  12.837
44036W        W16384  13.802   7.831   0.436
44037W        W16385  38.023   7.239  10.052
44038W        W16386  33.874  35.093   3.652
44039W        W16387  11.639   2.825  13.032
44040W        W16388  33.583  39.900  11.944
44041W        W16389  15.735  44.328  11.449
44042W        W16390  40.372   2.807  11.434
44043W        W16391  40.467  35.966  14.320
44044W        W16392  25.595  25.080  10.075
44045W        W16393  28.640  24.581   2.851
44046W        W16394  21.209  37.385  11.898
44047W        W16395  36.418  18.278  14.775
44048W        W16396  28.573  26.538  12.421
44049W        W16397  20.674  36.984   4.272
44050W        W16398  31.084  29.590   2.247
44051W        W16399   7.404  26.015   3.722
44052W        W16400  12.353  11.683  11.613
44053W        W16401  29.955  26.965   1.914
44054W        W16402  18.276   0.297   4.327
44055W        W16403   7.275  31.451  12.985
44056W        W16404   9.216  11.236   4.225
44057W        W16405   2.931  19.076   0.309
44058W        W16406   8.861  21.244   1.406
44059W        W16407  28.179  39.500  11.100
44060W        W16408  31.551  30.097   0.756
44061W        W16409  22.206   4.299   0.830
44062W        W16410  41.960  13.193   0.823
44063W        W16411  41.504  36.522   0.478
44064W        W16412  19.164  44.278  11.597
44065W        W16413  18.060   0.922   3.262
44066W        W16414   9.769  44.336   3.689
44067W        W16415  25.564  39.388   3.799
44068W        W16416  23.569   0.745  11.419
44069W        W16417  25.992  11.647  14.515
44070W        W16418  32.617   6.713   0.889
44071W        W16419   4.756  35.534  11.473
44072W        W16420   2.448  27.945   2.781
44073W        W16421  13.198  42.864   1.774
44074W        W16422   5.379  22.618  12.468
44075W        W16423   0.254  11.742  12.835
44076W        W16424  25.095  17.209  12.368
44077W        W16425   7.245  12.207   2.395
44078W        W16426  42.356  23.203  11.084
44079W        W16427  30.987   8.711  14.452
44080W        W16428  26.630  21.252   4.752
44081W        W16429  13.331  24.599  12.041
44082W        W16430  21.210  33.427  13.992
44083W        W16431  21.579  10.368  13.381
44084W        W16432  44.487  17.180   4.778
44085W        W16433  26.543  29.588  11.533
44086W        W16434  35.923  41.981  11.103
44087W        W16435  13.299  12.231  10.530
44088W        W16436  29.620   0.974   2.869
44089W        W16437  21.610  19.176  12.915
44090W        W16438   9.838  10.828   1.379
44091W        W16439   6.768  23.554  12.044
44092W        W16440  16.269  33.482  12.346
44093W        W16441  44.881  21.036  10.987
44094W        W16442  35.882  37.358  13.546
44095W        W16443   0.786  21.241   4.797
44096W        W16444  41.854  22.681   3.645
44097W        W16445  21.734  42.027   0.440
44098W        W16446  23.717  17.678   3.665
44099W        W16447   0.966  31.954  13.381
44100W        W16448   9.853   2.787  13.923
44101W        W16449  44.504   7.870  12.842
44102W        W16450  26.574  33.530   5.130
44103W        W16451  24.135  35.883   4.302
44104W        W16452  23.165  30.976  11.053
44105W        W16453  34.473  12.764   3.728
44106W        W16454  29.118  33.603   2.691
44107W        W16455  20.095  14.315   1.757
44108W        W16456  36.545  28.657  11.592
44109W        W16457  41.825  25.045   4.832
44110W        W16458   1.410  30.420  11.558
44111W        W16459  14.173  16.640  10.942
44112W        W16460  35.412  42.897  14.434
44113W        W16461  19.533  32.461   4.676
44114W        W16462  25.502  19.616  12.884
44115W        W16463   1.338   2.265  13.881
44116W        W16464  44.814  43.361  14.904
44117W        W16465  14.793   3.891  13.813
44118W        W16466  10.819  38.467   0.381
44119W        W16467   5.261  24.172   2.364
44120W        W16468   8.792   2.892   1.768
44121W        W16469   7.718   0.424   1.717
44122W        W16470  21.614  40.907   4.779
44123W        W16471  23.571  36.513  11.024
44124W        W16472  24.610  18.218   2.817
44125W        W16473   8.741  19.565  11.922
44126W        W16474   9.386  12.824  12.566
44127W        W16475   3.859  25.594   3.759
44128W        W16476  41.441  18.116   2.320
44129W        W16477   9.658   4.328   1.412
44130W        W16478  35.074  12.681  11.951
44131W        W16479  27.451   7.362   0.965
44132W        W16480   2.404  34.539   5.273
44133W        W16481  19.777  12.283  12.870
44134W        W16482   5.694  19.713  12.055
44135W        W16483  21.218  29.517  13.875
44136W        W16484  18.219  18.208   1.818
44137W        W16485  39.952  29.953   3.228
44138W        W16486  33.501  19.608  13.889
44139W        W16487  23.497  15.223  11.501
44140W        W16488   6.223  19.607  13.509
44141W        W16489  16.804   0.435   0.898
44142W        W16490  22.587  15.692   0.312
44143W        W16491   3.215  26.049  12.027
44144W        W16492  10.159  26.112  11.065
44145W        W16493  21.561  42.316  12.374
44146W        W16494  32.975  10.365  10.598
44147W        W16495  30.131   5.707   3.301
44148W        W16496   9.772  18.785   4.754
44149W        W16497  17.593  30.092   4.676
44150W        W16498  30.457  23.148  12.061
44151W        W16499  32.887  19.539   1.446
44152W        W16500  23.047   3.322  12.577
44153W        W16501  17.664  40.352  12.837
44154W        W16502  42.787   4.738  11.483
44155W        W16503  40.545  34.021   1.741
44156W        W16504   8.708  29.582   2.704
44157W        W16505  30.132  24.537  11.589
44158W        W16506  20.072  25.218  13.884
44159W        W16507  33.617  23.673   4.824
44160W        W16508  15.806  17.082  14.876
44161W        W16509  28.994   7.267  11.448
44162W        W16510  42.325  11.803   3.730
44163W        W16511  38.021  21.242  10.580
44164W        W16512  28.608   6.898  13.346
44165W        W16513  28.657  21.122   3.778
44166W        W16514  16.303  42.997  13.943
44167W        W16515  22.997  39.957   3.339
44168W        W16516   0.432  37.083   2.207
44169W        W16517  36.448   0.428   2.815
44170W        W16518  14.721  25.047  10.482
44171W        W16519  17.203  24.113   2.402
44172W        W16520   3.432  29.639   0.801
44173W        W16521  24.614  21.151   3.209
44174W        W16522  11.287  33.041   3.756
44175W        W16523  11.759  30.136   4.239
44176W        W16524  34.929  18.752  13.324
44177W        W16525  31.929  42.984   2.713
44178W        W16526  20.703  27.457  12.367
44179W        W16527  37.354  22.055  13.366
44180W        W16528  17.633  18.753  11.588
44181W        W16529  14.692  36.360   1.282
44182W        W16530  25.478  11.822  12.959
44183W        W16531  12.147  29.029   0.431
44184W        W16532  31.064  19.717  12.018
44185W        W16533   4.231  43.808   4.740
44186W        W16534  28.076  42.844  14.971
44187W        W16535  38.347  18.691  14.367
44188W        W16536  30.502  42.884   1.437
44189W        W16537  28.458   0.987  14.908
44190W        W16538  20.594   5.773  11.892
44191W        W16539   8.731  27.117  14.339
44192W        W16540  29.051   3.452   4.634
44193W        W16541  29.516   3.388   2.738
44194W        W16542  32.462  22.226  13.390
44195W        W16543  41.528  43.299   1.829
44196W        W16544  35.490  13.350   1.727
44197W        W16545  44.337  17.791   2.353
44198W        W16546  21.025  43.841   0.383
44199W        W16547  38.998   3.300   5.258
44200W        W16548   8.825  29.952   0.400
44201W        W16549  22.724   8.307   2.858
44202W        W16550  21.632  40.860  14.294
44203W        W16551   4.434  27.946   2.298
44204W        W16552  20.173  30.513   4.258
44205W        W16553  38.915   3.774  13.452
44206W        W16554   0.253  29.581   2.216
44207W        W16555   4.870   0.478   3.809
44208W        W16556  41.385  41.801   3.282
44209W        W16557  10.203  27.516  12.949
44210W        W16558  38.490  27.666   4.657
44211W        W16559   7.332  12.837   3.853
44212W        W16560  35.899  44.287   3.693
44213W        W16561  42.821  29.094   1.352
44214W        W16562   8.841  12.175   4.629
44215W        W16563  44.267  21.721   5.309
44216W        W16564  42.295   9.265  13.342
44217W        W16565   5.919  38.029   1.282
44218W        W16566   1.789  42.952   4.824
44219W        W16567  14.121  34.405  10.948
44220W        W16568  30.586  17.626   1.439
44221W        W16569  13.325  42.472  12.087
44222W        W16570  21.668  39.416   1.715
44223W        W16571  44.479  11.282   1.820
44224W        W16572  15.236  17.175  13.842
44225W        W16573  29.530  27.054  11.003
44226W        W16574  16.604  27.003  12.385
44227W        W16575   7.292  23.610   0.318
44228W        W16576  20.745   5.432  12.492
44229W        W16577  10.747  32.522  14.284
44230W        W16578  15.133  26.981  10.976
44231W        W16579   6.917  21.741   3.235
44232W        W16580  43.332  12.669   4.616
44233W        W16581  37.537  43.888  14.847
44234W        W16582  17.113   5.716   3.222
44235W        W16583  19.077  33.426  10.608
44236W        W16584  29.167  11.222   4.839
44237W        W16585  31.458  14.795   4.170
44238W        W16586  26.048  42.983   2.181
44239W        W16587  28.506  44.999  11.505
44240W        W16588  13.640  33.506   4.337
44241W        W16589  37.015  23.714  10.600
44242W        W16590  19.121   3.367  12.025
44243W        W16591   8.678  43.946   2.285
44244W        W16592   2.893  27.149  11.068
44245W        W16593  19.564  39.993   1.740
44246W        W16594  34.416  34.482   9.969
44247W        W16595  31.149  29.482   4.803
44248W        W16596  24.522  17.556  12.378
44249W        W16597  36.450  32.494   4.315
44250W        W16598  17.673   4.273  11.525
44251W        W16599  38.907   0.427   3.814
44252W        W16600  42.845   8.763   0.943
44253W        W16601   6.259  37.501  13.063
44254W        W16602  43.470  14.633  12.830
44255W        W16603  37.053  33.574   0.947
44256W        W16604   1.274  11.202   3.304
44257W        W16605  20.154  31.491  13.810
44258W        W16606  16.705  44.492  11.910
44259W        W16607  41.312  24.543   0.930
44260W        W16608  38.498   2.723   0.246
44261W        W16609  18.545  25.122   3.289
44262W        W16610  21.132   7.286  10.524
44263W        W16611   5.777  22.709   0.728
44264W        W16612  39.044  24.526   0.463
44265W        W16613  13.699  30.119   0.342
44266W        W16614   3.720  21.174  10.931
44267W        W16615  13.727   1.290  12.946
44268W        W16616  16.700  43.815  12.842
44269W        W16617  28.935  18.158   4.234
44270W        W16618  35.387   4.877  11.531
44271W        W16619  17.758  14.287  14.775
44272W        W16620  42.819  35.906   4.146
44273W        W16621  33.436   0.358   4.650
44274W        W16622  23.077  28.478   1.229
44275W        W16623  14.776  13.220   0.293
44276W        W16624  39.060   4.339   9.639
44277W        W16625  18.657  31.079  12.382
44278W        W16626  37.860  10.874  13.022
44279W        W16627  39.005  42.466   0.469
44280W        W16628  24.974  25.554   0.315
44281W        W16629  27.076   8.707   2.210
44282W        W16630  37.469  33.115   4.143
44283W        W16631  14.815  30.540   3.223
44284W        W16632  21.017  33.106   1.777
44285W        W16633   8.195  42.015  11.389
44286W        W16634   2.352  38.841   2.387
44287W        W16635  15.639  22.718   2.196
44288W        W16636  12.766  43.892  13.044
44289W        W16637  31.489  40.840  13.467
44290W        W16638   1.410  32.905   4.315
44291W        W16639  17.677  38.412  10.594
44292W        W16640  19.637  29.557  11.974
44293W        W16641  20.661  23.053   2.344
44294W        W16642  16.265  26.167  10.559
44295W        W16643  23.697   0.919  12.091
44296W        W16644  30.163  33.018   2.284
44297W        W16645   7.417  38.365  13.530
44298W        W16646  36.435  26.971  14.819
44299W        W16647   7.747  30.478   2.378
44300W        W16648  33.475  23.132  12.380
44301W        W16649  23.633  16.222  12.873
44302W        W16650  24.582   3.900  12.044
44303W        W16651  35.527  44.948  12.420
44304W        W16652  26.464  30.158   1.747
44305W        W16653  11.664  34.374   3.870
44306W        W16654   7.819   5.929  14.945
44307W        W16655   3.252  34.888   4.188
44308W        W16656  13.821  17.792  10.980
44309W        W16657  43.343  40.804  11.471
44310W        W16658  40.319  32.055   3.234
44311W        W16659   1.953  34.983   4.163
44312W        W16660   6.850  41.363   1.303
44313W        W16661  34.541  14.228  11.531
44314W        W16662  44.388   9.715  14.339
44315W        W16663  11.827  21.166   5.096
44316W        W16664  28.435  36.877   0.410
44317W        W16665   8.702  29.923  13.515
44318W        W16666  43.440  44.270   1.865
44319W        W16667  23.681  31.626   0.930
44320W        W16668  38.920   2.857  12.906
44321W        W16669  44.965  29.987   2.291
44322W        W16670  17.139  21.663   3.325
44323W        W16671   7.327  39.479  12.542
44324W        W16672  39.351  22.134   4.240
44325W        W16673  41.434  24.629   3.678
44326W        W16674  43.316  11.683   1.736
44327W        W16675  15.591  39.505  12.022
44328W        W16676   3.216  20.059   1.894
44329W        W16677  39.064  26.118   2.262
44330W        W16678  25.530  42.900  11.600
44331W        W16679   3.783  28.169  13.841
44332W        W16680  37.379  37.556   1.324
44333W        W16681   8.361  19.666   5.231
44334W        W16682  12.256  34.102  10.509
44335W        W16683  34.112  40.542  13.547
44336W        W16684  40.870  41.487   1.829
44337W        W16685  18.770  42.026   4.698
44338W        W16686   5.236  35.588   3.801
44339W        W16687  14.273  16.602   4.813
44340W        W16688   6.351  44.291   0.352
44341W        W16689   7.837  25.151  10.042
44342W        W16690  26.614  24.174  12.888
44343W        W16691  33.053  28.134  14.402
44344W        W16692  27.502  15.579  14.393
44345W        W16693  25.190  11.316   2.692
44346W        W16694  31.034   9.879   0.785
44347W        W16695  44.783   2.392  10.602
44348W        W16696  40.532  29.483   5.129
44349W        W16697   2.359   9.373  13.916
44350W        W16698  24.662   9.354   9.949
44351W        W16699   9.293  20.241   0.744
44352W        W16700  44.315   2.308   2.792
44353W        W16701  27.984  12.325   0.767
44354W        W16702  21.738  13.247   4.778
44355W        W16703  28.995   1.276  12.446
44356W        W16704  32.897   4.340   2.222
44357W        W16705  40.339   2.397  13.965
44358W        W16706   0.984  26.007  12.339
44359W        W16707  33.017   7.909  10.048
44360W        W16708  39.535  40.871  12.940
44361W        W16709  38.914  43.504  12.410
44362W        W16710  25.013   9.863  13.311
44363W        W16711  34.507  28.046  10.506
44364W        W16712  14.161  25.097   2.850
44365W        W16713  16.198   3.345  13.325
44366W        W16714  25.985   7.216  11.077
44367W        W16715  13.189  10.159  12.010
44368W        W16716   4.345  43.413  14.793
44369W        W16717  19.250   8.368  14.399
44370W        W16718  18.573  20.738   0.436
44371W        W16719  27.553  19.701   1.850
44372W        W16720  18.666  15.270   0.786
44373W        W16721  22.102  26.127  11.428
44374W        W16722  27.653  16.807  14.774
44375W        W16723  20.259  34.568  11.930
44376W        W16724  37.408   4.810   3.383
44377W        W16725  21.207  38.362   0.849
44378W        W16726  14.606  12.298   5.160
44379W        W16727  23.100  38.487   2.215
44380W        W16728  12.720  12.840   4.343
44381W        W16729  25.703  33.047  13.813
44382W        W16730  23.101  26.546  10.545
44383W        W16731  34.085  12.214   2.706
44384W        W16732   4.919  36.848  14.964
44385W        W16733  44.270   8.199  11.952
44386W        W16734   2.373  26.576   5.200
44387W        W16735  34.414  30.096   2.391
44388W        W16736  14.330  22.190  10.570
44389W        W16737  19.089  15.242  13.464
44390W        W16738   4.899  24.015  13.407
44391W        W16739  13.688   2.468  12.472
44392W        W16740  43.937  35.051  14.458
44393W        W16741  42.824  38.419  11.124
44394W        W16742   4.937  13.222  10.417
44395W        W16743  20.754  16.763   2.366
44396W        W16744  32.096  39.988  10.050
44397W        W16745   7.832  30.459  14.886
44398W        W16746  30.099   0.433   3.218
44399W        W16747  16.696   0.344   0.338
44400W        W16748  14.665  17.300   9.957
44401W        W16749  28.109  20.695  10.972
44402W        W16750  36.865  22.654  12.477
44403W        W16751  36.087  41.504  13.528
44404W        W16752  30.008  22.115  14.400
44405W        W16753  12.751  11.726   3.359
44406W        W16754  13.294   7.688  14.394
44407W        W16755  10.835   9.245   4.229
44408W        W16756  32.548  12.638  11.895
44409W        W16757  24.642  41.507  13.367
44410W        W16758   7.203  30.563   1.439
44411W        W16759  26.965  44.758   1.790
44412W        W16760   6.268  33.947  11.426
44413W        W16761  40.376  18.548   0.327
44414W        W16762  20.046  27.469   4.166
44415W        W16763   3.417  36.463  13.465
44416W        W16764   3.829  29.539  10.152
44417W        W16765  33.565  42.879  13.457
44418W        W16766  10.155  16.101   1.365
44419W        W16767  18.145  21.133  10.521
44420W        W16768  32.607  13.339  11.102
44421W        W16769  11.130  36.089  14.884
44422W        W16770  31.581  44.939   2.862
44423W        W16771   2.370  43.864   4.308
44424W        W16772  10.702  18.294   0.364
44425W        W16773  41.870  20.236  13.311
44426W        W16774   7.320  22.038  13.942
44427W        W16775   1.277  19.585   4.759
44428W        W16776  37.353   2.452  14.947
44429W        W16777  38.827  26.035   0.901
44430W        W16778   9.299   3.844  13.995
44431W        W16779  31.619  28.978  12.467
44432W        W16780  17.178  38.006  13.324
44433W        W16781  44.373   6.808  13.837
44434W        W16782   0.911  44.275   3.715
44435W        W16783  36.849  24.505   3.845
44436W        W16784  12.123  23.663   2.844
44437W        W16785  29.481  31.934   0.759
44438W        W16786   9.381  26.099   0.782
44439W        W16787  26.985  21.104   1.351
44440W        W16788  10.143  13.127   4.775
44441W        W16789   5.770  33.991   0.749
44442W        W16790   2.389   0.955  14.321
44443W        W16791  12.675  13.662   1.835
44444W        W16792   2.856  43.796   3.839
44445W        W16793   0.339  38.561  14.462
44446W        W16794  32.431  17.221  12.479
44447W        W16795  42.887  28.458   4.792
44448W        W16796  28.493  13.292  14.393
44449W        W16797  14.115  33.904   1.903
44450W        W16798  39.045  10.774   1.722
44451W        W16799  39.537  40.504  13.957
44452W        W16800   5.911   5.842  13.860
44453W        W16801  24.638   1.431  12.858
44454W        W16802  18.600   3.296  11.508
44455W        W16803   0.428   3.763   3.655
44456W        W16804  37.971  21.664  11.868
44457W        W16805  11.661  25.152  12.538
44458W        W16806  34.501  28.651  10.460
44459W        W16807   0.356  34.529  14.463
44460W        W16808  15.642  41.828  11.412
44461W        W16809  28.127  39.402   2.661
44462W        W16810   0.893  21.623  10.895
44463W        W16811  31.022  39.875  14.343
44464W        W16812  28.670  13.303   0.369
44465W        W16813   7.780  15.205  14.972
44466W        W16814  25.521  33.890   1.254
44467W        W16815   2.933  30.499   3.666
44468W        W16816  39.502  22.020   4.797
44469W        W16817  41.464  33.511   1.277
44470W        W16818  33.481   2.319  12.915
44471W        W16819  23.621  40.973   0.444
44472W        W16820   7.175  21.146  11.496
44473W        W16821  24.520   7.360  14.277
44474W        W16822  42.030   4.376  12.497
44475W        W16823  35.852  17.100  13.970
44476W        W16824  21.120   3.764  13.998
44477W        W16825  16.808  27.112   1.906
44478W        W16826  21.253   2.406   2.853
44479W        W16827  20.559  16.598  12.968
44480W        W16828  37.463  30.573   1.928
44481W        W16829  37.411   5.785   3.343
44482W        W16830  16.683  18.102   2.348
44483W        W16831  14.135  30.119   1.773
44484W        W16832   5.368  34.936   3.663
44485W        W16833   3.820  38.061  13.810
44486W        W16834   2.371  32.009  12.444
44487W        W16835  30.628  28.166   1.370
44488W        W16836   5.849  17.727   3.794
44489W        W16837  28.572  22.235   4.707
44490W        W16838  22.555  29.958  14.925
44491W        W16839   9.817  41.293  13.946
44492W        W16840  38.933   9.673   0.260
44493W        W16841  37.566  44.274   0.890
44494W        W16842  39.469  25.169   4.238
44495W        W16843   8.373  24.993  12.939
44496W        W16844  29.621  26.693   3.794
44497W        W16845  33.987  44.963  13.381
44498W        W16846  27.627   7.382   4.644
44499W        W16847  22.112  25.005  14.007
44500W        W16848  23.709   4.708  12.940
44501W        W16849  34.542  36.888   3.688
44502W        W16850  25.512   8.658  12.896
44503W        W16851   8.342  15.201  12.425
44504W        W16852  32.028  36.454   5.177
44505W        W16853  15.811  31.546  13.007
44506W        W16854  22.583  42.496  11.428
44507W        W16855   1.800  30.493  13.471
44508W        W16856  29.012  26.165   2.346
44509W        W16857  34.604  13.333  12.511
44510W        W16858  30.559  44.974  10.409
44511W        W16859  31.128  22.647  13.050
44512W        W16860  43.405  14.753   3.252
44513W        W16861   3.382  18.174  13.927
44514W        W16862  14.811  15.104  14.971
44515W        W16863   1.927  10.733  12.403
44516W        W16864  28.671   4.296   3.747
44517W        W16865  20.041  34.889   0.448
44518W        W16866  17.293  22.592   0.278
44519W        W16867  25.211  35.037   4.168
44520W        W16868  34.916  35.059   0.950
44521W        W16869  42.308  25.174  12.977
44522W        W16870   6.249   5.747  10.932
44523W        W16871  32.445  33.515  14.341
44524W        W16872   5.204  24.025   0.383
44525W        W16873  17.693  10.688   4.125
44526W        W16874  35.925  11.754   0.741
44527W        W16875  26.120   0.834  12.487
44528W        W16876   8.743  25.017   0.300
44529W        W16877   0.891  27.085   3.209
44530W        W16878  30.459  39.951   3.280
44531W        W16879  43.830   6.318  13.358
44532W        W16880  32.610  33.906  14.445
44533W        W16881  17.571   4.722   4.793
44534W        W16882  44.311   7.352  10.457
44535W        W16883   2.230  41.390  13.932
44536W        W16884  24.643  26.458   2.238
44537W        W16885   9.865   9.677   4.174
44538W        W16886  42.445   8.327  13.984
44539W        W16887  19.570  32.504   1.213
44540W        W16888  21.586  25.994   1.407
44541W        W16889  15.767  10.702   2.818
44542W        W16890   3.787   3.845  13.341
44543W        W16891   1.825  10.208  10.407
44544W        W16892  14.337   7.210   4.306
44545W        W16893   0.279  17.593  13.459
44546W        W16894   1.973  23.177   3.385
44547W        W16895   6.792  23.686  13.503
44548W        W16896   8.217  44.873   0.964
44549W        W16897  28.495  26.060  12.560
44550W        W16898  36.488  39.327  13.933
44551W        W16899  29.068  30.913  11.567
44552W        W16900  20.227  35.428  13.476
44553W        W16901   2.758  20.570   3.738
44554W        W16902  37.348   8.825  11.901
44555W        W16903  42.785  22.203   4.268
44556W        W16904   8.765  11.769  12.873
44557W        W16905   1.929  15.314  11.123
44558W        W16906  21.694  19.555  13.539
44559W        W16907  26.604  31.988   2.414
44560W        W16908  38.994  30.981  14.968
44561W        W16909  22.238  24.524  13.952
44562W        W16910   0.838  19.274  14.877
44563W        W16911  35.399   5.363   4.227
44564W        W16912  44.473  22.724  14.460
44565W        W16913  32.578   6.790   2.222
44566W        W16914   9.210  28.643  10.900
44567W        W16915  40.858  26.030   3.235
44568W        W16916  16.301  28.118   3.848
44569W        W16917  30.909   7.810   2.242
44570W        W16918  12.208  14.675   0.312
44571W        W16919  28.152  41.865   0.408
44572W        W16920   7.326  17.178   0.911
44573W        W16921  21.035  15.177  12.546
44574W        W16922  36.959  38.911   3.361
44575W        W16923  26.196  37.426  12.557
44576W        W16924  12.339  17.620   1.867
44577W        W16925  25.570  20.144   4.153
44578W        W16926  19.560  41.384   4.754
44579W        W16927  34.545  26.129  13.890
44580W        W16928   2.257  20.760   4.621
44581W        W16929   3.903  10.245   0.762
44582W        W16930  33.408  11.823   2.407
44583W        W16931   6.891   4.360  10.488
44584W        W16932  35.046  41.522   4.337
44585W        W16933  38.416  39.440   3.261
44586W        W16934  28.644  31.110   2.195
44587W        W16935  12.128   3.907   4.348
44588W        W16936  13.124   0.867  10.960
44589W        W16937   5.881  28.102   1.364
44590W        W16938   1.929   1.762   2.259
44591W        W16939   9.852  23.634  11.441
44592W        W16940  20.075  31.088  11.095
44593W        W16941   4.912  31.987  11.556
44594W        W16942   6.390   1.936  10.956
44595W        W16943  26.206  38.924  10.901
44596W        W16944  18.670  30.624   0.253
44597W        W16945   4.813  26.484  11.578
44598W        W16946  33.472  32.525  10.632
44599W        W16947  42.007   0.917  13.030
44600W        W16948  31.641  22.095   1.759
44601W        W16949  28.011  12.171   3.169
44602W        W16950  30.988  30.060   4.699
44603W        W16951  12.296  13.840  13.851
44604W        W16952  18.139  19.152   0.370
44605W        W16953   8.674   6.872  11.523
44606W        W16954   1.435  42.856  12.967
44607W        W16955  13.751  39.324   4.334
44608W        W16956  39.488  17.281  10.503
44609W        W16957  44.300   6.783  11.596
44610W        W16958   6.272   6.354  10.102
44611W        W16959  43.369  29.519   3.231
44612W        W16960  38.044  10.361  14.449
44613W        W16961  40.965  41.984   0.259
44614W        W16962   6.713  37.884  10.516
44615W        W16963  38.047  33.114   0.265
44616W        W16964  18.120  13.681   4.168
44617W        W16965  28.182  16.812   9.944
44618W        W16966  14.665  22.659   1.781
44619W        W16967  10.798   5.880   4.662
44620W        W16968  11.785   6.819  12.341
44621W        W16969  36.872   7.293  12.826
44622W        W16970  19.758   1.424  11.076
44623W        W16971  19.071  23.645   0.436
44624W        W16972   4.759  21.754   4.774
44625W        W16973  44.440   4.333  10.563
44626W        W16974   0.773   2.791  10.510
44627W        W16975  23.583  25.534   4.656
44628W        W16976  39.015  38.954   0.847
44629W        W16977   4.274  32.136   3.368
44630W        W16978  43.354  19.616   4.272
44631W        W16979  39.037   0.416   9.982
44632W        W16980   4.871  18.785  10.934
44633W        W16981   1.816   9.159  14.931
44634W        W16982  17.684   4.929   2.354
44635W        W16983  31.992   9.697  10.531
44636W        W16984  33.914  32.970  13.485
44637W        W16985  16.594  44.993   2.677
44638W        W16986  14.213  15.144  12.860
44639W        W16987  43.785  44.358   0.284
44640W        W16988  21.165  13.214  12.379
44641W        W16989  26.658   0.771  13.018
44642W        W16990  12.696  19.276   3.838
44643W        W16991  19.737   7.383   0.354
44644W        W16992  28.644  22.180   1.755
44645W        W16993  36.959  32.935  13.388
44646W        W16994   2.298   6.701   4.328
44647W        W16995  24.556  44.945  14.874
44648W        W16996  10.716  17.169   4.177
44649W        W16997  20.660  20.032   0.735
44650W        W16998   9.868  17.568   0.385
44651W        W16999  28.577  33.080   3.826
44652W        W17000  38.521  25.178  10.938
44653W        W17001  28.513   2.752  13.328
44654W        W17002  29.984  39.557   2.869
44655W        W17003  36.558  28.585  10.479
44656W        W17004  33.618  30.011   0.845
44657W        W17005  24.082  39.973   4.291
44658W        W17006   2.262  13.718  14.349
44659W        W17007  41.851  39.925  12.513
44660W        W17008  25.488  20.657   4.775
44661W        W17009  23.684  43.450   0.887
44662W        W17010  38.075   7.779   3.817
44663W        W17011  31.614  30.126  10.416
44664W        W17012  11.807  33.109  12.012
44665W        W17013   5.379  34.973  11.372
44666W        W17014   7.251  33.130   5.319
44667W        W17015  11.306   6.427  10.109
44668W        W17016  14.226   8.745  13.858
44669W        W17017  19.273   4.799   4.816
44670W        W17018   1.839  31.919  10.494
44671W        W17019  14.099  42.845  14.279
44672W        W17020   1.417  13.818   2.340
44673W        W17021  43.771   8.658   3.196
44674W        W17022  17.127  27.026   2.770
44675W        W17023   1.462  38.908   1.214
44676W        W17024  42.307  28.645   0.800
44677W        W17025  12.227  15.715  14.770
44678W        W17026   8.248  18.049   3.853
44679W        W17027  13.635   3.732   4.152
44680W        W17028  31.591  36.057   4.777
44681W        W17029  19.146  21.018   3.755
44682W        W17030  18.775  32.119   9.935
44683W        W17031  27.132  29.602   1.733
44684W        W17032   9.879  22.030   3.650
44685W        W17033   6.696  24.159  10.601
44686W        W17034   6.694  40.903   1.916
44687W        W17035  33.981  10.805  11.502
44688W        W17036   0.378  24.481   0.824
44689W        W17037   2.389  35.854  11.542
44690W        W17038  44.768  40.919  13.548
44691W        W17039  16.795  13.155   1.801
44692W        W17040  29.621  16.101   4.672
44693W        W17041  29.957  43.901   0.731
44694W        W17042  21.639  12.723   1.399
44695W        W17043   0.855  27.075   0.810
44696W        W17044  13.611  32.539  14.018
44697W        W17045   9.752  17.102  13.378
44698W        W17046  12.805  28.933  13.389
44699W        W17047  33.621  44.779  13.000
44700W        W17048  41.366   8.271   2.358
44701W        W17049   9.726  44.787  11.495
44702W        W17050   5.377  42.801   2.212
44703W        W17051  26.111   0.426  11.482
44704W        W17052  42.447  17.587   0.912
44705W        W17053  38.885  26.621   3.244
44706W        W17054   1.942   2.744  12.841
44707W        W17055   6.271  22.617  12.981
44708W        W17056  31.496  20.137   3.838
44709W        W17057   5.362  30.037   4.232
44710W        W17058  14.643  41.433   1.898
44711W        W17059  25.168   1.860   0.410
44712W        W17060  38.442  28.945   0.381
44713W        W17061  34.995   7.387  14.326
44714W        W17062   5.699  21.680  13.973
44715W        W17063  28.522  37.448  11.555
44716W        W17064   6.319  27.190   2.792
44717W        W17065  13.673   0.358   0.910
44718W        W17066  34.041  16.765   4.789
44719W        W17067  23.632  17.703   2.822
44720W        W17068  23.701  32.011   3.231
44721W        W17069  37.844  30.584   5.277
44722W        W17070  28.151  18.259   4.728
44723W        W17071  43.903   1.837   2.857
44724W        W17072   1.966   0.317  11.448
44725W        W17073  26.480  17.712   1.332
44726W        W17074   9.321  10.727   3.352
44727W        W17075  26.467  21.737  12.437
44728W        W17076  33.011   9.871   4.250
44729W        W17077  10.815  39.414  10.530
44730W        W17078  27.509  32.140  12.035
44731W        W17079  12.282  27.943   2.280
44732W        W17080  32.098  31.151   0.804
44733W        W17081   6.277  39.959  10.896
44734W        W17082  22.996  27.993  11.391
44735W        W17083  37.932   1.322   0.900
44736W        W17084   2.253  42.777  14.326
44737W        W17085  40.379  13.634  13.971
44738W        W17086  21.579  20.662   0.938
44739W        W17087  10.314  43.788  14.010
44740W        W17088  22.179  43.285   3.785
44741W        W17089  26.700  42.966   3.187
44742W        W17090  39.328   5.730  11.039
44743W        W17091   5.299  30.418  13.854
44744W        W17092   3.882  19.549   3.344
44745W        W17093   4.396  41.042  11.125
44746W        W17094  28.496  20.570   0.443
44747W        W17095  14.315  35.082  11.472
44748W        W17096   2.737  40.053   1.870
44749W        W17097  27.653  37.892  11.494
44750W        W17098  39.464  12.287   2.193
44751W        W17099  38.566   2.740  13.332
44752W        W17100  14.191  35.470  10.416
44753W        W17101  24.569  29.119   0.247
44754W        W17102  14.315   5.218  11.569
44755W        W17103   6.358  14.269  12.412
44756W        W17104  43.388  27.188  11.026
44757W        W17105  36.450  15.701   1.892
44758W        W17106  32.568  44.881   2.714
44759W        W17107  36.564  40.944  12.844
44760W        W17108  12.641  10.645   4.682
44761W        W17109  27.514  32.886   3.224
44762W        W17110  32.111  34.024  11.919
44763W        W17111   2.316  33.012  12.055
44764W        W17112  16.270  32.012   4.760
44765W        W17113   4.809   2.775   2.859
44766W        W17114  27.534  23.092  13.435
44767W        W17115   8.233  30.029   3.749
44768W        W17116  10.258  15.262  12.011
44769W        W17117  11.658  20.698   2.355
44770W        W17118  39.043  17.287  13.060
44771W        W17119   5.215  44.502   4.285
44772W        W17120  19.237  24.181   1.887
44773W        W17121   1.256  18.743  11.571
44774W        W17122   5.437  30.130  14.460
44775W        W17123  38.559   9.678   1.356
44776W        W17124  15.704  31.412  10.533
44777W        W17125  43.985  31.533   2.783
44778W        W17126  35.884  10.181  14.029
44779W        W17127  36.580   6.399  14.797
44780W        W17128   4.791  17.299   3.215
44781W        W17129  34.377  40.047   0.746
44782W        W17130   2.739  31.936  10.523
44783W        W17131   7.347  11.140   1.340
44784W        W17132  25.055   2.889  13.973
44785W        W17133  17.609  44.923  12.550
44786W        W17134   8.667  15.808   2.776
44787W        W17135   8.272  12.166  14.785
44788W        W17136  26.462  41.537   0.887
44789W        W17137  41.786  18.705  12.447
44790W        W17138  19.623  15.125  12.046
44791W        W17139   5.251  12.277   3.206
44792W        W17140  36.497  22.141   0.812
44793W        W17141   3.427  43.363  13.363
44794W        W17142  17.741  21.561   2.756
44795W        W17143  39.997  13.111   3.673
44796W        W17144  43.405  10.341   3.801
44797W        W17145  10.872   4.300  10.521
44798W        W17146  31.529  31.485   0.366
44799W        W17147  25.517  34.093  13.477
44800W        W17148  18.783  18.634   0.340
44801W        W17149  33.463  29.035   0.391
44802W        W17150  28.141  24.108  10.417
44803W        W17151  28.470  18.144  13.328
44804W        W17152   6.348  36.984   4.766
44805W        W17153  44.336  11.231   2.721
44806W        W17154   9.262  33.484   2.866
44807W        W17155   9.645  24.608  12.436
44808W        W17156  18.548  42.350  12.842
44809W        W17157  24.122  41.396   0.462
44810W        W17158  27.947  24.078  14.428
44811W        W17159  35.101  37.949  13.485
44812W        W17160  19.282  11.638  12.340
44813W        W17161  22.137  23.528  11.070
44814W        W17162  24.579  31.519   2.687
44815W        W17163  39.389   3.791  11.444
44816W        W17164  38.875  10.180   1.730
44817W        W17165  22.502  36.402   4.645
44818W        W17166  15.778  39.819  11.566
44819W        W17167  38.505  11.222   1.306
44820W        W17168  14.788  43.483   0.330
44821W        W17169   1.954  30.979   4.826
44822W        W17170   2.228  12.193   2.777
44823W        W17171   7.318  38.845  14.959
44824W        W17172  24.633  32.540  14.432
44825W        W17173  19.613  31.921  13.964
44826W        W17174  12.671  13.114   3.643
44827W        W17175   4.364  33.079   4.301
44828W        W17176  35.090  15.722  10.527
44829W        W17177  18.738   0.774   2.717
44830W        W17178  43.843  11.324  11.942
44831W        W17179  24.675  40.023  11.386
44832W        W17180  22.207  25.031  10.497
44833W        W17181  12.649  12.269   3.369
44834W        W17182  36.584  41.492   4.762
44835W        W17183  36.022  40.054  13.912
44836W        W17184  29.154   2.316  14.974
44837W        W17185  35.374  43.793   0.856
44838W        W17186  25.135  13.246  14.300
44839W        W17187   6.781  19.728   1.307
44840W        W17188   7.180  42.291  13.400
44841W        W17189  17.305   9.838  14.030
44842W        W17190  22.107  11.249   4.788
44843W        W17191  37.499   9.794  10.531
44844W        W17192  13.736  16.086   1.840
44845W        W17193  25.990  18.286  14.869
44846W        W17194   9.163  35.468  13.848
44847W        W17195  29.947  16.745  12.046
44848W        W17196  27.951  25.477  11.909
44849W        W17197  21.658   6.309   1.401
44850W        W17198  19.181  30.615   1.337
44851W        W17199  44.399  23.125  14.314
44852W        W17200   8.762   5.699  12.952
44853W        W17201  37.461  25.513   5.270
44854W        W17202  13.766  18.785   4.135
44855W        W17203  32.488  11.824  14.789
44856W        W17204   8.210   2.344  14.808
44857W        W17205   8.712  35.992   3.804
44858W        W17206   5.266  42.980   1.402
44859W        W17207  11.717  25.079   2.418
44860W        W17208  12.173  37.561   2.234
44861W        W17209  15.648   5.349   4.747
44862W        W17210  22.155  16.731  10.420
44863W        W17211   4.892  37.042   2.801
44864W        W17212   4.718  29.137   3.269
44865W        W17213  11.195  35.056   2.268
44866W        W17214  32.000  28.445  11.056
44867W        W17215  11.749  20.116  12.046
44868W        W17216  36.046  19.210   1.391
44869W        W17217  14.269  11.711  12.410
44870W        W17218  22.234  24.058   3.636
44871W        W17219  42.515  34.105   4.611
44872W        W17220  39.519  13.719   0.923
44873W        W17221  12.633  28.554   4.115
44874W        W17222  20.570  13.268  10.962
44875W        W17223  40.973   2.906   0.431
44876W        W17224  40.991  36.081   2.705
44877W        W17225  39.379  39.822  10.976
44878W        W17226  24.163  21.695   1.213
44879W        W17227  25.097   8.339   9.661
44880W        W17228  12.358  32.049   3.777
44881W        W17229  13.302  37.338  14.333
44882W        W17230  23.082  12.273  13.533
44883W        W17231   8.802  37.998   1.727
44884W        W17232  21.220   1.450  12.384
44885W        W17233   4.234   8.384  11.967
44886W        W17234  29.078   4.884   1.374
44887W        W17235  31.045  28.536  14.780
44888W        W17236   3.950  29.172   0.437
44889W        W17237  17.207  31.506   3.155
44890W        W17238  24.599  28.454   4.307
44891W        W17239  36.432  33.011   0.277
44892W        W17240  23.639  29.445   4.791
44893W        W17241  30.010  12.170  11.606
44894W        W17242   2.328  26.493  10.520
44895W        W17243  18.063  32.525   3.346
44896W        W17244  31.644  32.495   2.899
44897W        W17245  33.905  44.987  12.093
44898W        W17246  21.710  12.300   0.740
44899W        W17247  15.221  18.775   4.237
44900W        W17248   3.914   4.778  10.643
44901W        W17249   7.298  44.996  14.963
44902W        W17250  28.545  33.051   4.789
44903W        W17251  38.013  19.050  11.448
44904W        W17252   3.910   5.350  11.066
44905W        W17253  42.970  27.497  14.358
44906W        W17254  44.961  23.165   0.773
44907W        W17255  16.650  31.997   2.702
44908W        W17256  19.089  25.652   2.417
44909W        W17257  18.632  13.311  11.572
44910W        W17258  36.474  32.897  13.374
44911W        W17259  20.530  17.734   0.322
44912W        W17260  22.589  33.095  13.958
44913W        W17261  27.182  43.765   3.811
44914W        W17262  39.054  21.757  10.468
44915W        W17263  23.489  33.414  12.532
44916W        W17264  30.474   6.225  14.500
44917W        W17265  27.132  43.423   4.161
44918W        W17266  20.126   4.215  14.812
44919W        W17267   4.895  10.361  13.865
44920W        W17268  15.134  31.961  13.061
44921W        W17269  43.391  14.757   1.704
44922W        W17270  27.647  12.310   1.719
44923W        W17271  27.973   2.243   2.273
44924W        W17272  33.973  14.225  13.330
44925W        W17273  42.335   9.288   3.860
44926W        W17274  39.427  20.235  12.061
44927W        W17275   2.341   5.320   2.758
44928W        W17276  32.441  27.532   1.412
44929W        W17277   1.286  42.359  10.620
44930W        W17278  26.084  26.132   4.795
44931W        W17279  30.106  22.037  12.095
44932W        W17280  31.450   2.242   4.161
44933W        W17281  10.165   0.880  10.432
44934W        W17282  38.328  16.274   0.885
44935W        W17283   8.375  38.534   2.341
44936W        W17284  19.628  20.138  12.493
44937W        W17285   3.352  22.589   0.428
44938W        W17286  38.449  43.389   1.764
44939W        W17287  10.692   4.746   4.792
44940W        W17288   0.814  12.251   1.278
44941W        W17289  29.999  20.058   4.730
44942W        W17290  34.501  19.682  14.882
44943W        W17291  27.494  43.786  12.339
44944W        W17292   7.279   7.385  11.923
44945W        W17293  44.284  38.482  11.996
44946W        W17294   7.889  38.037  11.981
44947W        W17295  14.142   5.719  11.895
44948W        W17296  13.662  35.506   4.691
44949W        W17297   6.219  33.621  12.928
44950W        W17298  11.791   9.744   1.783
44951W        W17299   1.285  13.321  10.506
44952W        W17300   2.744  36.094  14.967
44953W        W17301  20.104  44.997  11.113
44954W        W17302   5.820   8.872  13.507
44955W        W17303  26.461  10.779  12.538
44956W        W17304   3.315   7.180   3.672
44957W        W17305  34.081  12.717  10.991
44958W        W17306  41.928  28.174   2.367
44959W        W17307  27.151  12.160   1.245
44960W        W17308  27.552  23.135   2.313
44961W        W17309   7.883  43.514   3.193
44962W        W17310  16.212  34.595  11.059
44963W        W17311   5.885  17.214   2.261
44964W        W17312  28.170  11.167  12.062
44965W        W17313  43.310  42.317   2.179
44966W        W17314  18.156  42.441   3.735
44967W        W17315   3.888  34.602  11.557
44968W        W17316  37.874   6.847  11.527
44969W        W17317  20.123  26.574  14.990
44970W        W17318  28.439  28.617   4.311
44971W        W17319  29.636   3.923   3.221
44972W        W17320  30.122  28.011   1.361
44973W        W17321  25.610  32.123  11.871
44974W        W17322  16.654  36.889  10.518
44975W        W17323  34.926  22.022   2.683
44976W        W17324   1.778  28.106  11.549
44977W        W17325   9.797  35.469  13.002
44978W        W17326  33.396   4.289  10.589
44979W        W17327  28.047  29.053  12.394
44980W        W17328  10.832  35.470   4.302
44981W        W17329  25.701  39.327  13.859
44982W        W17330  28.654  14.674   0.272
44983W        W17331  34.891  40.904   4.650
44984W        W17332  11.664  40.499  11.597
44985W        W17333  20.274  20.173   3.286
44986W        W17334  20.727   8.319  14.296
44987W        W17335  23.684  25.027  14.856
44988W        W17336  15.582  13.169  10.535
44989W        W17337   3.956  43.444  14.834
44990W        W17338  33.467  38.884  12.439
44991W        W17339  36.505  34.000   4.163
44992W        W17340  11.220  23.576  11.043
44993W        W17341  28.057  35.409   0.446
44994W        W17342   7.380   6.864  11.489
44995W        W17343  42.938  21.597   1.866
44996W        W17344  40.902  27.105   1.386
44997W        W17345   1.438   3.361  13.910
44998W        W17346  42.917   1.395  12.538
44999W        W17347  25.165   1.352   1.395
45000W        W17348  39.813  15.199  12.059
45001W        W17349   5.821  26.497  12.358
45002W        W17350  31.572  25.177  12.431
45003W        W17351  26.075  36.843   4.756
45004W        W17352  10.299   6.813   1.697
45005W        W17353  26.541  36.452  11.601
45006W        W17354  39.066  20.094  14.409
45007W        W17355   1.871  15.181  12.480
45008W        W17356   5.849   1.858  12.505
45009W        W17357   3.313  24.146   2.759
45010W        W17358  43.511  43.826   2.333
45011W        W17359  19.074  15.603   1.293
45012W        W17360  35.568  10.663  11.557
45013W        W17361  32.583  19.774  14.498
45014W        W17362  11.693   2.429   0.362
45015W        W17363   3.434   9.785   4.197
45016W        W17364   2.802   6.822   4.350
45017W        W17365  18.571  27.657  13.844
45018W        W17366  42.777  41.335  14.343
45019W        W17367  24.020  25.003   3.862
45020W        W17368  21.242  28.034  13.796
45021W        W17369  18.136  11.838   4.605
45022W        W17370  10.160   3.880  12.077
45023W        W17371  19.215  34.007   2.224
45024W        W17372   4.229  43.511  13.876
45025W        W17373  30.418  34.589   3.315
45026W        W17374  38.545   0.783  11.926
45027W        W17375   6.358  15.173  13.317
45028W        W17376   4.338  19.585  14.027
45029W        W17377   6.373   6.874  11.420
45030W        W17378  12.762  29.071   2.309
45031W        W17379  39.964   5.858   2.841
45032W        W17380  42.357  32.029   0.954
45033W        W17381  41.917  14.311  12.954
45034W        W17382  19.220  27.526   3.233
45035W        W17383  36.577   8.814   2.212
45036W        W17384  14.124  25.542   2.725
45037W        W17385  18.771  14.305  13.535
45038W        W17386  43.876  17.207   3.630
45039W        W17387  28.096   6.883  10.543
45040W        W17388  15.774   8.805   4.718
45041W        W17389  12.687  34.913   4.231
45042W        W17390  29.918  27.092  10.470
45043W        W17391  19.739  17.711  10.976
45044W        W17392  42.959  37.340  12.439
45045W        W17393  35.959  19.534   2.320
45046W        W17394  31.974  42.005  14.334
45047W        W17395   4.323  26.048  14.793
45048W        W17396  33.480  24.089   1.718
45049W        W17397   2.261   9.225   2.818
45050W        W17398  21.130  27.454   3.726
45051W        W17399  13.606  28.116  11.886
45052W        W17400   6.715  12.156   3.757
45053W        W17401  44.997  28.172   1.779
45054W        W17402  32.902  39.431  12.869
45055W        W17403  27.001   6.738   4.735
45056W        W17404  15.751  26.490  13.841
45057W        W17405  32.623  22.643  14.446
45058W        W17406  31.117  18.108  11.501
45059W        W17407   7.675  13.777  11.867
45060W        W17408  37.949   2.798  14.824
45061W        W17409   0.254   9.167  10.957
45062W        W17410  38.021  15.117   0.286
45063W        W17411  21.220  42.809  12.078
45064W        W17412  37.016   5.246   0.312
45065W        W17413  25.037  37.046   4.274
45066W        W17414  33.980  23.991   1.808
45067W        W17415  39.544  25.677   2.361
45068W        W17416  42.799  44.300  14.024
45069W        W17417  26.681  26.193  12.929
45070W        W17418  21.092  20.557   4.780
45071W        W17419  10.788  34.583   4.299
45072W        W17420  38.005  24.669   4.729
45073W        W17421  11.856  23.049  11.861
45074W        W17422  39.512  43.924   3.634
45075W        W17423  24.498  22.165  12.411
45076W        W17424  34.922  37.478  10.629
45077W        W17425  43.288   8.881  12.858
45078W        W17426  11.621  39.373  11.894
45079W        W17427  40.358  31.129  13.423
45080W        W17428  10.340  28.485  12.377
45081W        W17429   7.238  27.106   3.747
45082W        W17430  22.721  12.355   0.925
45083W        W17431  20.611   2.414   4.237
45084W        W17432   8.833  13.761  14.510
45085W        W17433   2.421  26.669  13.853
45086W        W17434   6.879   0.282  14.985
45087W        W17435  26.201  32.396   0.949
45088W        W17436  18.074  38.388   4.752
45089W        W17437  44.875  12.753   1.295
45090W        W17438  19.734  31.406   3.228
45091W        W17439  15.255  43.348   0.451
45092W        W17440  25.543   6.203  10.443
45093W        W17441  39.340  17.627   3.675
45094W        W17442  30.083  12.794  12.577
45095W        W17443  44.474  25.002  13.523
45096W        W17444  25.219  39.988  13.470
45097W        W17445  27.068  16.266   1.898
45098W        W17446  21.259  27.155   3.174
45099W        W17447  29.004  36.462  11.453
45100W        W17448  40.410   9.855   0.312
45101W        W17449  19.097  29.936  14.769
45102W        W17450  19.194   6.202  14.480
45103W        W17451  15.783  18.085   1.445
45104W        W17452  43.286  17.257  14.399
45105W        W17453   4.388  27.605  11.500
45106W        W17454  39.934  18.230  10.539
45107W        W17455  34.926  35.558   1.932
45108W        W17456  11.182  22.536   2.899
45109W        W17457  20.233  20.117  12.917
45110W        W17458  37.005  44.849  10.959
45111W        W17459  23.690   6.687   5.246
45112W        W17460   1.936  39.372  14.846
45113W        W17461   3.327  24.647  11.960
45114W        W17462  39.377   1.291   2.249
45115W        W17463   7.786  33.878   4.731
45116W        W17464  11.686  15.758   3.818
45117W        W17465  41.840  26.200   3.671
45118W        W17466  23.666  10.206   4.646
45119W        W17467  26.527  14.727   0.305
45120W        W17468  37.059  13.755  13.793
45121W        W17469  22.588  41.907   4.254
45122W        W17470  22.591  11.827   4.662
45123W        W17471  19.188   1.830   0.826
45124W        W17472   6.683  20.599  14.758
45125W        W17473  44.859  33.100  11.483
45126W        W17474  19.564  18.229  13.389
45127W        W17475  16.686   1.812   2.238
45128W        W17476   6.908  15.222  10.993
45129W        W17477   4.300   4.301   0.387
45130W        W17478  13.109   8.708  12.866
45131W        W17479   3.879  22.144  10.454
45132W        W17480  14.776  10.793  13.350
45133W        W17481  29.472   8.286  12.053
45134W        W17482   2.762   0.301   0.803
45135W        W17483   1.258   4.861   0.885
45136W        W17484   1.731  29.972   0.778
45137W        W17485  20.221  11.280  12.390
45138W        W17486  40.407  33.932   3.266
45139W        W17487  16.620  33.494   0.957
45140W        W17488  23.725  13.216   4.271
45141W        W17489  33.101  37.917  10.021
45142W        W17490  34.065  13.134  12.555
45143W        W17491  39.051   7.184   5.321
45144W        W17492  26.027  21.049   4.135
45145W        W17493  42.957  31.502  14.514
45146W        W17494  32.124  18.177   1.844
45147W        W17495  43.931  33.941  13.394
45148W        W17496  34.472   9.701   4.134
45149W        W17497  25.478  35.090   1.760
45150W        W17498  22.726  12.616  11.603
45151W        W17499  29.147  26.533  12.515
45152W        W17500  32.970  39.860   3.291
45153W        W17501  36.974   0.755  11.463
45154W        W17502  34.526  20.206  13.474
45155W        W17503  42.471  15.270  14.404
45156W        W17504  24.005  41.951  12.847
45157W        W17505  14.240  22.069   4.232
45158W        W17506  29.071  41.429  10.491
45159W        W17507  41.795  22.551  12.837
45160W        W17508  41.006  18.190   3.825
45161W        W17509  26.016  39.362  12.835
45162W        W17510  11.206  34.000   0.859
45163W        W17511  17.211  37.534   0.450
45164W        W17512  34.069  20.228  13.872
45165W        W17513   2.296  33.506   0.791
45166W        W17514  14.266  15.595   4.211
45167W        W17515  32.888   2.734   1.448
45168W        W17516  41.886   9.881   1.302
45169W        W17517   7.762  34.029  12.908
45170W        W17518  25.670  38.337   0.405
45171W        W17519  32.030  34.575   0.329
45172W        W17520  14.638  40.319  11.525
45173W        W17521  41.480  19.703   0.859
45174W        W17522  18.242   1.395  12.434
45175W        W17523  17.063  29.006  11.106
45176W        W17524  37.878  20.612  12.982
45177W        W17525  16.157  41.350  12.853
45178W        W17526  23.639   1.912  14.868
45179W        W17527  16.744  15.315  13.055
45180W        W17528  25.499  25.581  14.367
45181W        W17529  20.676  41.479   0.419
45182W        W17530  43.337  26.027  12.889
45183W        W17531  37.025  18.238   4.835
45184W        W17532  19.623  26.528   2.188
45185W        W17533  28.638   7.273   1.907
45186W        W17534  31.494  11.351  12.454
45187W        W17535  10.861  21.536  12.444
45188W        W17536  28.022  26.540  13.399
45189W        W17537  44.504  23.543   9.998
45190W        W17538  44.772  26.015  11.520
45191W        W17539  30.974  32.889  11.092
45192W        W17540   4.730  19.077  12.992
45193W        W17541  11.708  16.262   0.315
45194W        W17542  10.857   5.756   3.226
45195W        W17543  21.549  34.390  13.054
45196W        W17544  20.199  19.242  14.278
45197W        W17545   0.261  44.965   0.747
45198W        W17546  41.840  13.241  14.766
45199W        W17547  26.655  36.362  14.421
45200W        W17548  40.957   6.684   2.901
45201W        W17549  33.425  12.231  13.824
45202W        W17550  38.006  29.574  14.321
45203W        W17551  30.037  10.346   9.961
45204W        W17552  36.378   5.822  11.448
45205W        W17553  18.071  29.050  12.461
45206W        W17554  28.036  29.113   1.865
45207W        W17555   2.925  37.512  10.469
45208W        W17556  19.596  19.054   0.860
45209W        W17557  10.177  35.419   3.219
45210W        W17558  44.986  19.694  10.920
45211W        W17559  37.913  11.666   0.366
45212W        W17560  35.595  24.214   2.257
45213W        W17561  37.879  44.441  12.051
45214W        W17562   4.417   5.871   3.235
45215W        W17563  14.593  24.583  12.481
45216W        W17564   9.796  24.073  10.921
45217W        W17565  16.751   9.261   3.311
45218W        W17566  41.833  11.191  10.924
45219W        W17567  44.356  32.534   4.650
45220W        W17568  24.204  31.435   3.365
45221W        W17569   7.394  39.893  12.421
45222W        W17570   3.913  34.922   2.186
45223W        W17571  32.467  27.467  11.461
45224W        W17572  24.660  41.997   3.148
45225W        W17573  40.973  28.088   0.735
45226W        W17574  21.519   7.390  10.612
45227W        W17575  38.348  19.208  13.822
45228W        W17576   1.855   0.933   0.938
45229W        W17577  22.530  24.994   3.635
45230W        W17578   7.201  33.513   2.208
45231W        W17579  26.628  20.156   3.775
45232W        W17580  36.979   6.771   2.312
45233W        W17581  24.172  44.983   3.768
45234W        W17582  36.089  10.382   0.329
45235W        W17583  11.821  37.536   4.175
45236W        W17584   6.877  44.468   4.624
45237W        W17585   1.412  23.735   1.764
45238W        W17586  22.032  26.629   1.320
45239W        W17587  14.746  17.763   4.158
45240W        W17588  28.969  34.044   4.775
45241W        W17589  34.557  16.205   4.749
45242W        W17590  26.965   4.269   3.368
45243W        W17591  40.906  35.534   1.230
45244W        W17592   7.378  16.579   2.733
45245W        W17593   4.857  34.615  11.959
45246W        W17594  37.558  14.676  12.530
45247W        W17595  28.439  24.172  12.073
45248W        W17596  12.677  20.640   0.295
45249W        W17597   2.335  11.841   2.734
45250W        W17598   7.792  44.344  10.101
45251W        W17599  14.101  25.004  11.987
45252W        W17600   7.256   4.329  10.954
45253W        W17601  35.023  35.951  12.510
45254W        W17602  25.055   2.876   0.408
45255W        W17603   0.484  13.747   0.385
45256W        W17604  26.034   8.675   3.170
45257W        W17605   4.734  25.648  10.514
45258W        W17606  26.458  28.159   0.923
45259W        W17607  18.672  43.337  12.952
45260W        W17608  21.638  11.127  13.984
45261W        W17609  12.788   1.406  10.488
45262W        W17610  29.173  38.840   2.261
45263W        W17611  14.659   1.401   4.806
45264W        W17612  41.937   8.215   3.158
45265W        W17613  18.610  42.830  11.440
45266W        W17614  40.526   2.799  14.495
45267W        W17615   6.386  35.005  10.544
45268W        W17616  13.171  36.844  10.600
45269W        W17617   1.884   5.225  11.452
45270W        W17618   2.382  42.296  13.040
45271W        W17619  17.703  41.839   3.730
45272W        W17620   3.893  43.974  13.357
45273W        W17621   0.836  24.080   0.930
45274W        W17622  16.779  42.361   4.664
45275W        W17623  33.476   7.417  14.392
45276W        W17624   7.888  12.344   4.652
45277W        W17625  19.066  44.368  13.061
45278W        W17626  15.295  34.600   4.668
45279W        W17627   7.372   7.234  13.508
45280W        W17628  37.974  40.922  11.438
45281W        W17629  13.333  39.428  14.860
45282W        W17630  30.546  20.704   2.822
45283W        W17631   7.188  42.378  11.960
45284W        W17632  16.727   0.761   0.456
45285W        W17633   5.773  11.262   3.748
45286W        W17634  12.791  10.325   4.239
45287W        W17635  23.234   4.343  12.341
45288W        W17636  26.952   8.787  11.976
45289W        W17637   3.231  34.580   0.944
45290W        W17638  15.808  14.689  11.405
45291W        W17639  15.790  32.122   3.679
45292W        W17640  20.528  25.605   2.371
45293W        W17641  42.952  12.768   2.330
45294W        W17642  23.581  32.133   2.845
45295W        W17643  38.910  43.791  11.878
45296W        W17644  29.494  26.586   3.377
45297W        W17645  43.276  19.730  11.582
45298W        W17646  12.245  36.362  14.290
45299W        W17647  24.654   4.939  14.374
45300W        W17648  21.173  39.824  11.905
45301W        W17649  29.656  21.179  12.463
45302W        W17650  20.523  40.952   2.875
45303W        W17651  37.861   1.301  11.064
45304W        W17652  30.017  32.482  12.474
45305W        W17653  41.405  10.274  10.463
45306W        W17654   9.872   3.384   1.929
45307W        W17655  38.861  37.414  10.510
45308W        W17656  31.905   8.194  14.875
45309W        W17657  31.914   7.890   1.417
45310W        W17658  34.110  10.799   4.168
45311W        W17659  21.136  29.574   4.188
45312W        W17660   3.366  29.468   4.752
45313W        W17661  29.926   7.319   2.400
45314W        W17662  23.532  12.697   2.390
45315W        W17663  30.455  25.714  11.394
45316W        W17664  24.225  25.095  10.617
45317W        W17665  16.140   7.711   4.682
45318W        W17666   8.805  13.242  13.460
45319W        W17667  30.634  12.150  11.106
45320W        W17668  40.822  36.938  12.550
45321W        W17669  34.462  40.431   3.754
45322W        W17670  32.599  21.655  12.930
45323W        W17671   7.281  36.499  12.412
45324W        W17672  17.119  33.441  12.410
45325W        W17673  26.564   6.917  12.367
45326W        W17674  34.917  11.656  10.948
45327W        W17675  13.220  18.707   1.821
45328W        W17676   2.763  34.979  13.932
45329W        W17677  28.169   5.267  13.872
45330W        W17678  33.530  23.996  14.515
45331W        W17679  15.727  30.423  10.957
45332W        W17680  10.230  33.451   2.363
45333W        W17681  44.911  36.587   4.652
45334W        W17682  11.791  12.686  12.489
45335W        W17683  11.683  37.461  12.340
45336W        W17684  22.230   8.656   1.902
45337W        W17685  41.817   3.375  11.434
45338W        W17686  23.019   6.369   4.242
45339W        W17687   8.372   1.412   3.298
45340W        W17688  22.658   9.765  11.047
45341W        W17689  25.013  28.122  11.416
45342W        W17690  18.602   9.839  14.304
45343W        W17691  19.677  38.507  10.486
45344W        W17692  27.029  19.739   1.360
45345W        W17693  30.659   1.260   2.389
45346W        W17694  26.093   6.876   0.961
45347W        W17695  20.680   0.300  12.945
45348W        W17696  38.895  36.044   0.455
45349W        W17697  15.599   0.985   2.837
45350W        W17698   9.807  40.463  14.949
45351W        W17699  23.495  41.896  12.058
45352W        W17700  13.678  40.935  14.418
45353W        W17701   6.387   6.780   4.143
45354W        W17702  13.317  10.361  14.789
45355W        W17703  12.627  12.780  13.060
45356W        W17704   8.853  24.612  13.315
45357W        W17705  34.445  21.039   2.367
45358W        W17706  19.750   9.259  11.600
45359W        W17707  17.755  16.222  12.396
45360W        W17708  33.108   8.318   4.316
45361W        W17709  27.135  20.120   1.361
45362W        W17710   1.380  25.474  12.428
45363W        W17711   2.424  39.879   2.200
45364W        W17712  21.541   0.846  12.056
45365W        W17713   6.778  37.076   3.275
45366W        W17714  15.714  37.921  13.340
45367W        W17715  12.151  11.294  12.947
45368W        W17716  32.091  23.199  11.000
45369W        W17717  25.000  28.536   2.741
45370W        W17718  29.936  19.593  11.530
45371W        W17719   9.659  34.455   1.243
45372W        W17720  10.644  40.013   2.361
45373W        W17721  23.733  44.781  13.965
45374W        W17722  20.569  42.380  11.888
45375W        W17723  27.150  19.678   5.105
45376W        W17724  36.037  20.234  14.807
45377W        W17725  23.531  14.182   2.744
45378W        W17726  15.267  37.884   1.825
45379W        W17727  43.884  24.694   2.355
45380W        W17728  35.031  22.727   9.936
45381W        W17729  15.241  22.723  14.786
45382W        W17730  10.876  20.676  13.538
45383W        W17731  29.501  32.993   0.439
45384W        W17732  23.166  19.652   3.190
45385W        W17733   9.318  19.764   4.608
45386W        W17734  11.284   1.243   1.773
45387W        W17735  24.601  37.882  13.798
45388W        W17736  18.065  12.228  11.979
45389W        W17737  28.993   7.257  13.944
45390W        W17738  24.647   8.798   2.815
45391W        W17739  19.664  13.171  13.904
45392W        W17740   5.932  14.245  12.452
45393W        W17741  15.221  13.607   1.297
45394W        W17742  41.533  27.689   0.442
45395W        W17743  12.222  23.089   2.789
45396W        W17744  39.387  40.412  10.499
45397W        W17745  40.018   2.786   4.823
45398W        W17746   2.736   4.788   0.471
45399W        W17747  41.345   9.180  10.587
45400W        W17748  21.549  32.540  14.984
45401W        W17749  21.255  17.587  14.375
45402W        W17750  43.329  36.880   4.769
45403W        W17751  32.472  18.295   9.974
45404W        W17752  42.481  13.802  14.315
45405W        W17753  12.165   1.280  13.898
45406W        W17754  41.365  41.297   3.853
45407W        W17755  44.286   6.875   0.755
45408W        W17756  17.786  33.882   2.248
45409W        W17757  39.406  43.901  12.514
45410W        W17758  15.654   9.871  12.823
45411W        W17759   9.224  30.546  14.848
45412W        W17760  23.633  42.021   3.827
45413W        W17761  29.034  38.339   4.630
45414W        W17762  29.577  21.546  12.057
45415W        W17763  27.611  15.749   0.964
45416W        W17764  22.531  39.443   0.483
45417W        W17765  11.625   5.215   1.364
45418W        W17766  13.270  11.161  12.428
45419W        W17767   3.908   7.702  14.480
45420W        W17768  39.912   9.372   2.332
45421W        W17769  40.519  21.062  12.353
45422W        W17770  43.389  42.832   1.271
45423W        W17771  41.476  13.643   4.114
45424W        W17772  30.142  34.436  12.938
45425W        W17773   0.939  31.962  11.443
45426W        W17774  43.295   4.224  11.079
45427W        W17775   3.732  24.713  14.275
45428W        W17776  25.565  10.763  12.939
45429W        W17777  15.726  31.949  12.344
45430W        W17778   6.757  16.290  13.801
45431W        W17779  19.747  36.367  11.425
45432W        W17780  24.506  10.850  12.015
45433W        W17781  17.775   2.429   4.254
45434W        W17782   1.372  38.994  14.394
45435W        W17783  25.662  42.812   4.186
45436W        W17784  40.022  12.820   1.806
45437W        W17785  43.940  43.018   1.231
45438W        W17786  26.469   6.737  13.858
45439W        W17787  29.454   6.368  10.097
45440W        W17788  37.396  44.835   4.254
45441W        W17789  44.405  39.389  13.325
45442W        W17790   2.808  24.575  14.806
45443W        W17791  36.938   7.376  12.490
45444W        W17792  35.950   8.850  13.368
45445W        W17793  13.659  34.559   3.324
45446W        W17794   9.761  44.005   3.156
45447W        W17795  29.531   8.749  14.354
45448W        W17796  19.618   7.749   2.415
45449W        W17797  16.215  25.576   0.251
45450W        W17798  36.854  15.329  14.486
45451W        W17799  16.773  43.338   0.249
45452W        W17800  11.286  44.424  10.443
45453W        W17801  16.729  12.252   1.265
45454W        W17802   8.208  30.554  10.096
45455W        W17803  22.508   4.375  12.016
45456W        W17804  21.634   8.813   0.894
45457W        W17805  24.096   0.260  12.384
45458W        W17806   1.462  35.921   3.376
45459W        W17807   6.368  12.650   2.313
45460W        W17808  40.879  19.741   1.757
45461W        W17809  27.510   1.859   3.700
45462W        W17810  34.952  30.625   0.964
45463W        W17811   0.782  11.307   3.695
45464W        W17812  37.845  10.240   4.253
45465W        W17813  18.249  38.959   1.898
45466W        W17814   8.881  21.252  12.526
45467W        W17815  31.570   6.367  11.575
45468W        W17816   5.352  25.655   4.683
45469W        W17817  27.620  27.655   1.826
45470W        W17818  36.968  20.219   0.357
45471W        W17819  37.470  44.504  10.069
45472W        W17820  21.729  20.686  14.922
45473W        W17821  32.076   3.853  10.491
45474W        W17822   5.304  11.798   2.271
45475W        W17823  32.008   0.277   3.240
45476W        W17824  22.178   4.723  13.460
45477W        W17825  37.084   7.754  11.440
45478W        W17826  37.005  41.380   4.135
45479W        W17827  40.811  22.668  10.981
45480W        W17828  11.243  35.942  13.899
45481W        W17829  42.814   0.850  10.573
45482W        W17830  31.439  40.350   4.256
45483W        W17831  38.986  13.731  11.434
45484W        W17832   6.198  40.326  11.514
45485W        W17833  25.711   5.713  12.438
45486W        W17834  25.528   7.814   0.472
45487W        W17835  29.532  28.119   3.153
45488W        W17836   5.235  35.448  12.070
45489W        W17837   5.716   0.399   4.790
45490W        W17838  22.069  32.414   3.155
45491W        W17839   9.701  41.829   4.813
45492W        W17840  29.168  31.500   3.354
45493W        W17841  19.535   0.983   3.276
45494W        W17842  14.721   0.916   1.273
45495W        W17843  35.547  43.812   3.223
45496W        W17844  20.159  43.011  10.965
45497W        W17845  24.218  31.576   0.882
45498W        W17846  19.257  30.512   3.331
45499W        W17847  29.030   3.933  14.508
45500W        W17848  40.847   3.821   4.684
45501W        W17849  31.147  38.538   0.406
45502W        W17850  10.831   4.231   5.784
45503W        W17851  33.509  27.528  11.895
45504W        W17852   7.829  21.511   3.297
45505W        W17853  44.903  42.457  13.849
45506W        W17854   1.432  37.553  11.455
45507W        W17855  40.475   6.830   3.709
45508W        W17856  22.656  44.465  14.304
45509W        W17857   2.859  21.650   0.775
45510W        W17858  31.898  22.134  13.044
45511W        W17859  41.515   8.306  11.373
45512W        W17860  22.731  40.033  14.856
45513W        W17861  39.065  19.766  11.545
45514W        W17862  24.041   3.379   1.884
45515W        W17863  26.671   5.751   4.125
45516W        W17864  25.208  20.574  12.078
45517W        W17865  11.748  29.483   5.192
45518W        W17866   2.830  39.846  12.008
45519W        W17867  15.172   7.838   4.705
45520W        W17868  18.592   1.251  13.487
45521W        W17869  10.306  27.182   1.703
45522W        W17870  37.358   0.349  14.462
45523W        W17871  40.892  15.770   3.357
45524W        W17872  22.082  13.764   1.285
45525W        W17873  21.513  14.259  14.982
45526W        W17874  41.796  15.186   2.886
45527W        W17875  33.983  44.492  12.425
45528W        W17876  29.477   6.699  12.877
45529W        W17877   6.272  41.533   2.303
45530W        W17878  42.983  27.571   4.834
45531W        W17879  35.999  13.809  12.965
45532W        W17880   6.309  13.720  13.999
45533W        W17881  13.649  22.576  12.371
45534W        W17882  30.522   8.327  12.522
45535W        W17883  28.940  31.983  14.365
45536W        W17884  41.394  40.312  14.901
45537W        W17885  24.015  43.282   0.787
45538W        W17886  17.167   5.326  13.440
45539W        W17887   9.825  16.668   0.820
45540W        W17888  13.731   4.380   1.851
45541W        W17889  13.137  34.050   1.749
45542W        W17890  42.836  24.553  13.967
45543W        W17891  29.969   9.875  13.021
45544W        W17892   5.307  40.955  14.863
45545W        W17893  13.622  36.856   1.837
45546W        W17894   1.316  27.600  10.630
45547W        W17895  21.165  15.824   0.283
45548W        W17896  24.662  20.229   2.411
45549W        W17897  21.155  19.544   1.700
45550W        W17898  21.167   5.798  13.863
45551W        W17899  14.638  18.635  12.051
45552W        W17900  35.503  13.202  11.608
45553W        W17901  31.545   7.681   3.715
45554W        W17902   9.259  37.489   3.225
45555W        W17903  29.562  22.087  13.052
45556W        W17904  35.006  29.441  14.296
45557W        W17905   4.800  28.021  13.009
45558W        W17906  35.088  40.495   5.135
45559W        W17907  16.601  33.981   2.328
45560W        W17908   8.869   7.403   2.253
45561W        W17909  19.049  20.090  11.398
45562W        W17910  40.404  11.344  11.077
45563W        W17911  15.682  28.993   3.369
45564W        W17912   6.689   4.217  13.410
45565W        W17913  17.622   1.305  14.459
45566W        W17914  22.567  40.902   0.418
45567W        W17915   6.797  37.471   0.822
45568W        W17916   9.382  41.519   2.816
45569W        W17917  23.519  10.828   9.652
45570W        W17918  27.167  15.700   3.842
45571W        W17919   5.874   0.963   0.329
45572W        W17920  35.422  44.413   4.315
45573W        W17921   8.299  41.030  11.479
45574W        W17922   7.346  31.563   1.360
45575W        W17923  44.777  10.743   3.324
45576W        W17924  33.128  41.810   2.691
45577W        W17925  19.169  30.120  13.826
45578W        W17926  23.627   6.794   4.241
45579W        W17927   2.861  28.016  13.503
45580W        W17928  20.627  32.557  11.398
45581W        W17929  14.805  26.060   3.679
45582W        W17930   2.415   6.209   0.307
45583W        W17931   1.465  12.656  11.090
45584W        W17932  19.589   4.393   2.771
45585W        W17933  36.395  35.993  11.565
45586W        W17934  16.632  17.697  13.455
45587W        W17935  16.701  29.590  12.880
45588W        W17936  28.467  23.711   3.323
45589W        W17937   4.886  20.271  11.953
45590W        W17938  37.999  16.678  12.359
45591W        W17939  18.626  11.191  13.947
45592W        W17940  14.659  30.583   1.369
45593W        W17941  17.711  13.692  12.551
45594W        W17942  38.028   3.247   1.740
45595W        W17943   4.391  29.031   1.264
45596W        W17944  34.956  43.007   1.246
45597W        W17945  38.959   3.933  14.900
45598W        W17946   1.835  10.764  12.917
45599W        W17947  24.115   1.408  10.454
45600W        W17948  10.340  24.642  12.051
45601W        W17949  20.116  34.045  10.640
45602W        W17950   7.203  30.559   0.931
45603W        W17951  27.602  16.662   2.179
45604W        W17952  30.150  43.926  12.978
45605W        W17953  18.078  36.966  11.896
45606W        W17954   0.976   2.275   0.378
45607W        W17955   4.434  30.604  13.320
45608W        W17956   3.314  37.942  11.444
45609W        W17957  36.964   4.708   4.724
45610W        W17958  43.792  29.599  12.965
45611W        W17959  42.890  34.909   0.741
45612W        W17960  29.147  21.041   3.277
45613W        W17961  24.172  26.520  11.923
45614W        W17962  16.115  11.252  14.505
45615W        W17963  21.059  33.385  12.974
45616W        W17964  23.155  25.213   4.302
45617W        W17965   8.702  44.844  10.455
45618W        W17966  39.812  23.179   1.295
45619W        W17967  21.121  44.358  12.003
45620W        W17968  23.169  42.422  12.879
45621W        W17969   4.291  36.038  10.605
45622W        W17970  39.963   6.804  14.499
45623W        W17971  31.986   2.806   0.939
45624W        W17972  29.932  42.489  11.057
45625W        W17973  21.584  34.042   3.646
45626W        W17974  28.988  23.612  12.078
45627W        W17975   0.470  16.100  13.484
45628W        W17976  14.713  26.138   2.264
45629W        W17977  16.092  40.855  11.882
45630W        W17978  41.515  33.624  11.909
45631W        W17979  13.785  39.541  11.461
45632W        W17980  17.160  14.789  10.058
45633W        W17981  22.643   7.296   0.852
45634W        W17982   2.745  23.504  11.402
45635W        W17983  32.064   8.895   5.213
45636W        W17984  14.318  24.594  11.873
45637W        W17985   9.703   1.452   2.330
45638W        W17986  29.424  19.049   1.332
45639W        W17987   0.746  34.371   3.834
45640W        W17988  10.274   6.352  13.895
45641W        W17989  13.733  13.305  11.600
45642W        W17990  10.287   3.866  13.534
45643W        W17991  14.600   3.763  11.948
45644W        W17992  28.149   5.199   4.340
45645W        W17993  35.505  19.777  13.387
45646W        W17994  18.052  34.083   0.815
45647W        W17995  33.910  14.173   2.345
45648W        W17996  38.976  34.009   1.879
45649W        W17997  15.147  32.982  12.010
45650W        W17998  18.761  31.565  10.482
45651W        W17999  33.043  28.559   4.130
45652W        W18000  32.431  42.428   2.264
45653W        W18001  31.634  29.106   3.151
45654W        W18002  21.228  22.181   2.182
45655W        W18003  34.417  43.425   2.338
45656W        W18004  31.119   9.190   3.701
45657W        W18005  10.861  15.778  10.482
45658W        W18006   8.828   1.362   1.347
45659W        W18007   9.166   8.683  11.005
45660W        W18008  18.598  33.907  14.819
45661W        W18009  22.031  29.171   1.373
45662W        W18010  41.914  37.956   2.260
45663W        W18011  40.926  11.350  13.014
45664W        W18012   8.259  28.623   4.181
45665W        W18013  23.703  34.051   0.748
45666W        W18014   1.283  21.709  11.002
45667W        W18015  12.254  15.084   4.232
45668W        W18016   9.217   7.767   0.835
45669W        W18017  10.679   2.283  13.810
45670W        W18018  14.151   0.780   0.931
45671W        W18019  23.593  39.930  10.442
45672W        W18020  23.168  21.133   0.262
45673W        W18021  30.136  42.807   3.334
45674W        W18022  28.171  29.426   1.721
45675W        W18023  22.576  15.297  14.918
45676W        W18024  33.380  37.572   2.345
45677W        W18025  20.268  19.227   2.795
45678W        W18026  33.053   0.878  11.537
45679W        W18027  17.256  22.593   1.401
45680W        W18028  29.098  19.643   2.855
45681W        W18029  39.344  36.560  11.055
45682W        W18030  31.475  39.943  10.573
45683W        W18031  40.888   3.242  12.441
45684W        W18032  31.478  36.054   0.442
45685W        W18033  15.296  17.619  11.603
45686W        W18034   8.849  21.030  14.928
45687W        W18035  10.839   2.308  10.941
45688W        W18036   1.825  16.605   0.788
45689W        W18037  10.340  38.040  14.436
45690W        W18038  19.745  40.905   3.294
45691W        W18039  25.126  33.894  13.926
45692W        W18040  25.987   5.912  11.043
45693W        W18041  24.095  39.554  12.985
45694W        W18042  25.079  13.148   5.296
45695W        W18043  41.925  20.247   0.773
45696W        W18044  37.070  44.325  12.518
45697W        W18045   2.316  27.525   3.157
45698W        W18046   2.724  33.023  13.362
45699W        W18047   8.283  25.034  14.341
45700W        W18048  14.654   4.402   1.860
45701W        W18049  18.159  43.796   4.727
45702W        W18050  41.815   9.856   1.699
45703W        W18051  30.554  24.106   1.279
45704W        W18052   8.387  33.978  11.382
45705W        W18053  24.208  28.488  12.017
45706W        W18054  38.506  35.978  14.283
45707W        W18055  43.322   8.399   1.416
45708W        W18056  24.548   2.924  14.370
45709W        W18057  29.600  18.258   5.108
45710W        W18058   0.755   0.326   4.838
45711W        W18059  11.852  15.283  13.388
45712W        W18060  34.898  26.147   1.240
45713W        W18061  22.720  15.250  12.045
45714W        W18062   3.381  25.147  12.532
45715W        W18063   3.427  39.345   3.157
45716W        W18064  32.438  20.042  10.942
45717W        W18065  15.084  30.946  11.573
45718W        W18066  35.915  36.883  13.545
45719W        W18067  34.912  43.794   3.635
45720W        W18068  36.854  18.077   0.850
45721W        W18069   5.805  24.200   1.836
45722W        W18070   0.879  37.353  13.014
45723W        W18071  28.618  36.061   2.308
45724W        W18072  30.949  27.541  14.905
45725W        W18073   2.439  37.059  13.399
45726W        W18074  11.133   7.800  11.596
45727W        W18075   4.890   7.348   3.710
45728W        W18076  23.108  22.694  12.902
45729W        W18077  25.614  22.586  11.993
45730W        W18078  26.693  26.512   1.351
45731W        W18079   0.787  17.144  13.316
45732W        W18080  35.916  25.074  10.478
45733W        W18081   0.939  41.335  11.991
45734W        W18082  24.559   7.206  10.632
45735W        W18083   5.930  34.036  11.865
45736W        W18084  34.543  13.616  11.893
45737W        W18085  25.628  36.958   3.155
45738W        W18086  14.735  19.077   3.792
45739W        W18087  11.136  13.745   0.806
45740W        W18088  38.906  21.063  10.049
45741W        W18089  19.276  21.262   1.872
45742W        W18090  15.753  42.491   2.350
45743W        W18091   6.862  16.629  10.971
45744W        W18092  41.855  33.978  12.500
45745W        W18093  16.206  12.826  13.836
45746W        W18094  41.849  22.126  14.759
45747W        W18095  29.039  30.473  13.809
45748W        W18096  31.507  37.494   2.723
45749W        W18097  29.614  37.992   2.385
45750W        W18098   5.698  24.534  14.367
45751W        W18099  23.687  15.205   2.687
45752W        W18100  30.950   5.791  10.606
45753W        W18101  41.850  41.968   3.262
45754W        W18102  35.499  19.114   1.902
45755W        W18103  12.169   9.348   4.282
45756W        W18104   9.178  40.967  14.806
45757W        W18105  16.763  12.351   2.351
45758W        W18106  34.882   5.204  13.389
45759W        W18107  14.249  31.559   2.777
45760W        W18108   1.752  25.565   0.797
45761W        W18109  43.814  44.885   1.252
45762W        W18110  30.161   6.750  13.319
45763W        W18111  24.138  34.572  14.894
45764W        W18112  43.302  44.874  14.795
45765W        W18113  19.653  32.994   3.715
45766W        W18114  44.406  22.597  12.477
45767W        W18115  27.598  36.559   0.921
45768W        W18116   6.677  15.685   1.372
45769W        W18117  12.828   2.966   3.358
45770W        W18118  40.818  35.987  11.963
45771W        W18119  21.234  34.387   4.794
45772W        W18120  38.935   1.326  11.109
45773W        W18121  33.492  31.497  13.939
45774W        W18122   2.835  37.349   5.218
45775W        W18123   2.382  36.556  10.637
45776W        W18124  22.611  10.247  11.434
45777W        W18125  43.940  27.130   2.209
45778W        W18126  38.539  39.507   3.871
45779W        W18127  36.446  28.084  10.928
45780W        W18128  37.041  36.878   1.270
45781W        W18129  12.281  25.205  14.827
45782W        W18130  36.067  30.447   1.826
45783W        W18131  17.638  12.291   0.369
45784W        W18132  10.204  43.427   2.275
45785W        W18133  18.676  40.422  14.905
45786W        W18134   2.242   2.817  11.019
45787W        W18135   5.209  18.637   1.727
45788W        W18136  13.782   2.240  11.482
45789W        W18137  21.244  13.676   4.297
45790W        W18138  23.060  29.448   1.368
45791W        W18139  40.411  18.560  14.339
45792W        W18140   5.837  14.653  10.987
45793W        W18141  21.186   2.410   2.367
45794W        W18142  39.954   5.862  12.024
45795W        W18143  24.168  27.961  14.942
45796W        W18144  38.066  33.469   3.839
45797W        W18145  38.331  44.395  13.367
45798W        W18146   7.909  28.490   3.658
45799W        W18147   8.208   6.827  14.770
45800W        W18148  35.087   9.306   1.436
45801W        W18149  10.846  18.117  14.319
45802W        W18150  39.823  35.890  13.955
45803W        W18151   7.275   7.194  10.541
45804W        W18152  31.965  44.888  11.107
45805W        W18153  25.540  33.405   3.383
45806W        W18154  14.100  29.482  14.955
45807W        W18155  33.422   7.784   5.294
45808W        W18156  28.161  21.630   0.473
45809W        W18157  32.088   0.957  14.477
45810W        W18158  28.592   3.796  13.486
45811W        W18159  14.244  14.122  13.946
45812W        W18160  44.892  41.459   1.445
45813W        W18161  37.837  34.106  10.927
45814W        W18162  30.648  29.512   3.838
45815W        W18163   5.308  13.751  13.372
45816W        W18164  20.028  22.126   2.672
45817W        W18165  39.385  41.451   3.660
45818W        W18166   3.215   7.791   1.391
45819W        W18167   6.808  26.698   2.839
45820W        W18168   4.835  19.105  11.020
45821W        W18169  19.598   6.734  13.321
45822W        W18170  34.910  34.978   2.875
45823W        W18171  31.077  43.976   3.717
45824W        W18172  21.205  36.367  13.866
45825W        W18173  34.496  15.619   1.836
45826W        W18174   0.856  13.617  12.571
45827W        W18175  27.981  19.201   4.773
45828W        W18176   2.725  31.512   0.383
45829W        W18177  44.265  29.015   2.802
45830W        W18178  34.434  22.581   0.927
45831W        W18179  38.547   4.828   1.249
45832W        W18180  14.187  25.644   3.192
45833W        W18181  42.832  21.219   1.842
45834W        W18182   4.838  28.552  11.033
45835W        W18183  36.925  27.075   2.853
45836W        W18184   8.689  43.452   4.696
45837W        W18185  34.925  42.012   4.341
45838W        W18186  30.516  11.840  11.432
45839W        W18187  15.608  27.192   3.337
45840W        W18188  29.105  32.620   1.924
45841W        W18189  22.121  31.973  11.045
45842W        W18190   2.280   9.823   2.201
45843W        W18191  12.135  34.964   2.274
45844W        W18192  37.045  20.152   3.822
45845W        W18193  21.061   2.323  11.079
45846W        W18194   8.758  26.122  13.415
45847W        W18195  13.263  18.290   0.245
45848W        W18196  37.029  16.220  14.302
45849W        W18197  36.353  10.856   1.270
45850W        W18198   7.803  20.035   4.736
45851W        W18199  32.557  32.568   1.300
45852W        W18200   9.187   5.833  12.439
45853W        W18201  13.247   3.224   2.205
45854W        W18202  34.063  34.376  11.913
45855W        W18203  33.942  24.529   0.461
45856W        W18204  40.929  17.703  13.463
45857W        W18205  21.222  20.192  11.507
45858W        W18206  33.434  31.539  12.423
45859W        W18207  27.469  38.933  14.808
45860W        W18208  36.935  15.175  12.978
45861W        W18209  36.079  25.192   3.197
45862W        W18210  16.135  34.949  14.967
45863W        W18211  35.371  23.169   0.246
45864W        W18212  17.641  12.349   0.732
45865W        W18213  35.888  20.608   5.172
45866W        W18214   4.932   9.783  14.913
45867W        W18215  26.154  16.229  12.877
45868W        W18216  40.969  30.069   0.367
45869W        W18217  36.016  21.123  11.515
45870W        W18218  25.705  22.204   3.786
45871W        W18219  11.311   7.191  11.403
45872W        W18220  24.011  41.848   3.638
45873W        W18221  27.535   1.244  14.783
45874W        W18222  36.977  32.630  12.033
45875W        W18223  43.983  21.089  13.502
45876W        W18224  35.962   2.287  13.844
45877W        W18225  24.685   8.889  13.443
45878W        W18226  30.657  32.972  13.423
45879W        W18227  17.293  31.083  11.031
45880W        W18228  41.434   7.193   3.794
45881W        W18229  43.843  35.036  10.533
45882W        W18230   9.819   4.882   5.791
45883W        W18231  17.720  27.005  13.889
45884W        W18232  16.075   7.805   2.304
45885W        W18233  25.040   7.381   0.907
45886W        W18234  31.927  24.019   3.674
45887W        W18235  12.665  41.375  13.866
45888W        W18236  22.146  17.283  13.038
45889W        W18237  16.161   6.418  10.078
45890W        W18238  23.541   7.391  10.908
45891W        W18239  15.107  11.320  13.508
45892W        W18240   2.231  18.686   2.322
45893W        W18241  13.116  12.314   1.291
45894W        W18242  10.719  43.904   2.328
45895W        W18243   5.859  41.303  11.425
45896W        W18244   6.895   3.829  11.980
45897W        W18245  18.605   6.310  14.785
45898W        W18246  28.113  40.902   1.381
45899W        W18247  37.353  42.801  11.097
45900W        W18248   3.275  24.998   3.166
45901W        W18249  13.200  27.659   0.316
45902W        W18250  31.608  34.871  13.043
45903W        W18251   7.364  10.708   4.639
45904W        W18252  16.192   5.735   4.682
45905W        W18253  28.959  35.936   3.820
45906W        W18254   4.329  28.944   3.803
45907W        W18255   3.794   3.949  12.492
45908W        W18256  41.892  27.567   4.650
45909W        W18257  31.114  32.560  10.910
45910W        W18258  32.079  14.589  12.571
45911W        W18259  12.186  34.570  13.930
45912W        W18260  30.091  15.239  14.464
45913W        W18261  10.328  15.170  11.537
45914W        W18262  31.431   2.432  14.935
45915W        W18263  12.704  26.614   0.352
45916W        W18264  39.316  38.963  10.600
45917W        W18265   9.879  33.997   1.894
45918W        W18266  44.264  23.221   1.853
45919W        W18267  21.110  22.018  13.444
45920W        W18268  32.522  13.184   1.832
45921W        W18269  43.991  10.344  10.964
45922W        W18270  30.939  30.413   3.793
45923W        W18271   5.869  10.345   3.867
45924W        W18272   9.219  12.320  13.375
45925W        W18273  17.254   5.238   0.458
45926W        W18274  44.843  21.215   2.804
45927W        W18275  15.224  43.853  13.998
45928W        W18276  25.485   8.748   9.677
45929W        W18277   2.798   6.830   0.280
45930W        W18278   2.297  34.867  10.481
45931W        W18279  30.513   0.336   3.821
45932W        W18280  16.133  22.062  10.456
45933W        W18281  22.584  25.619  11.955
45934W        W18282   6.272  25.107   5.321
45935W        W18283  20.692  36.463   3.156
45936W        W18284  35.925  29.584   2.246
45937W        W18285  42.499  35.409   2.369
45938W        W18286  11.149  23.130  10.999
45939W        W18287  34.612  15.319   0.832
45940W        W18288   3.759  39.525   3.213
45941W        W18289  31.073  27.160  10.446
45942W        W18290  38.461  33.062   0.743
45943W        W18291   1.922  40.920  10.582
45944W        W18292  16.094  33.906   1.307
45945W        W18293   2.864  30.452   3.186
45946W        W18294  41.443  32.064   3.346
45947W        W18295  27.585  25.973  12.479
45948W        W18296  23.612  15.102  12.364
45949W        W18297  38.978  33.058  10.528
45950W        W18298   3.947  23.209  13.791
45951W        W18299  19.145  43.422  13.842
45952W        W18300  29.039  39.440   4.266
45953W        W18301   2.421  40.990  10.411
45954W        W18302  43.942  44.809   0.818
45955W        W18303  27.104   6.922   0.916
45956W        W18304  38.940   6.310   3.634
45957W        W18305  39.554  33.415   3.330
45958W        W18306  11.144   6.353   9.564
45959W        W18307  23.600  20.691  11.103
45960W        W18308  34.411  34.882  10.977
45961W        W18309  12.725  34.597  12.940
45962W        W18310  30.455   6.224  12.568
45963W        W18311   3.725   3.345  13.951
45964W        W18312  15.101  37.544  11.073
45965W        W18313  26.681  41.974  13.339
45966W        W18314  17.139  29.459   2.201
45967W        W18315  21.167   6.853  13.525
45968W        W18316  10.660  17.190   2.773
45969W        W18317   9.847  37.930   2.740
45970W        W18318  15.287  28.978   4.740
45971W        W18319  35.975  23.211  14.872
45972W        W18320  26.508  26.136   0.459
45973W        W18321   2.743  17.085  12.989
45974W        W18322  32.944  44.982   4.614
45975W        W18323  18.783  29.065   1.425
45976W        W18324   4.307  36.382  14.392
45977W        W18325   0.809  44.414  14.429
45978W        W18326  40.493  17.686  11.108
45979W        W18327  19.050  21.532  12.833
45980W        W18328  26.560   2.235   1.780
45981W        W18329   0.381  17.096   1.392
45982W        W18330   6.395   7.782  13.507
45983W        W18331  17.682  14.228  12.919
45984W        W18332   9.280  36.990  14.881
45985W        W18333  20.675  36.400  12.457
45986W        W18334  31.917  38.919  13.906
45987W        W18335  40.891  23.151  13.808
45988W        W18336  31.502  26.577  10.507
45989W        W18337  10.809  23.021  10.427
45990W        W18338  11.192   0.807  13.436
45991W        W18339   6.253  26.069  10.618
45992W        W18340   6.187  35.412   2.804
45993W        W18341  26.554  18.570  13.457
45994W        W18342   7.184  20.040  13.883
45995W        W18343  34.049  14.245  11.858
45996W        W18344  43.405  32.538  11.445
45997W        W18345  17.237  16.665   9.971
45998W        W18346  28.129   0.304   3.197
45999W        W18347   6.389  14.651   4.606
46000W        W18348  31.152  38.336  14.409
46001W        W18349   4.210   7.226  12.527
46002W        W18350  37.468  31.566  14.985
46003W        W18351  36.583   6.756  14.861
46004W        W18352   2.454   1.938   0.404
46005W        W18353  39.889  38.976   3.209
46006W        W18354  21.241  38.493  12.427
46007W        W18355  24.155  24.645  13.996
46008W        W18356  17.239  12.685   3.224
46009W        W18357  19.636   6.855  14.423
46010W        W18358  31.441  23.025   3.801
46011W        W18359   2.311  24.482   2.358
46012W        W18360   0.487  15.215  13.493
46013W        W18361  26.043  29.983  12.021
46014W        W18362  29.040  18.149  14.365
46015W        W18363   6.710  43.886   1.444
46016W        W18364  10.823  30.054   3.213
46017W        W18365  21.617  43.972   0.285
46018W        W18366  42.924  20.041   2.350
46019W        W18367  26.952  36.029   3.285
46020W        W18368  24.001  41.495   2.892
46021W        W18369  21.101  32.935  13.312
46022W        W18370  23.499  36.387   4.816
46023W        W18371  41.299  35.091  10.965
46024W        W18372  25.650  18.580   3.217
46025W        W18373  43.422  44.848  13.542
46026W        W18374  23.175   0.433  13.002
46027W        W18375  20.050   4.887   0.935
46028W        W18376  11.304  38.052  10.557
46029W        W18377  11.154  26.598   0.825
46030W        W18378  29.523  22.061  14.473
46031W        W18379   5.302  30.493  11.496
46032W        W18380   9.671  34.404  14.962
46033W        W18381  30.453  13.713   0.330
46034W        W18382  23.139  17.302   3.356
46035W        W18383   8.333   8.324   0.435
46036W        W18384  21.146  14.758  10.556
46037W        W18385  38.935  36.434   0.386
46038W        W18386  16.185   4.763  13.805
46039W        W18387  44.877  40.031  11.114
46040W        W18388   2.249   4.285   2.895
46041W        W18389  27.546  30.072  13.039
46042W        W18390   6.789   3.316   0.848
46043W        W18391  18.285  17.673   4.285
46044W        W18392  13.281  35.569  13.312
46045W        W18393  44.431  12.738  14.996
46046W        W18394   8.184   1.467  10.892
46047W        W18395  17.088  44.757  10.988
46048W        W18396   6.215   3.816  14.289
46049W        W18397  11.845   5.751  11.603
46050W        W18398   4.905  39.884   2.783
46051W        W18399  20.633  23.610   3.218
46052W        W18400   5.804  33.055   0.833
46053W        W18401   0.400  18.209  10.585
46054W        W18402   0.766  41.522   3.711
46055W        W18403   5.303  32.547   3.328
46056W        W18404  44.462   4.275  11.424
46057W        W18405  18.180  23.658   4.702
46058W        W18406  41.307   5.706  14.911
46059W        W18407  38.395  28.574  11.061
46060W        W18408  21.648  25.168   0.331
46061W        W18409  13.798   6.416  13.317
46062W        W18410  20.209  18.239   2.787
46063W        W18411   2.240  37.961  13.820
46064W        W18412  12.209  29.086   4.279
46065W        W18413  29.169  20.639   4.170
46066W        W18414  11.706  35.096   4.217
46067W        W18415  25.644  42.384   0.403
46068W        W18416  27.673  23.507   1.356
46069W        W18417  14.753  19.243  14.510
46070W        W18418  22.703   8.792  14.001
46071W        W18419  43.286  23.626  10.425
46072W        W18420  41.799  31.944  14.930
46073W        W18421  38.877  15.626   1.413
46074W        W18422  32.071  29.462  12.388
46075W        W18423  44.485  30.142   9.995
46076W        W18424   0.333  23.035   1.215
46077W        W18425   3.272  40.364   3.247
46078W        W18426  23.078   1.426   0.424
46079W        W18427  19.237  34.523   4.114
46080W        W18428  11.694   4.849   2.678
46081W        W18429  28.069  17.165   3.741
46082W        W18430  43.977  14.153  12.443
46083W        W18431  21.523  43.324   1.212
46084W        W18432   8.286  12.753  11.384
46085W        W18433  20.768   0.254  11.931
46086W        W18434  16.191  26.473   1.788
46087W        W18435  30.587  29.048   4.757
46088W        W18436  34.990  11.748   0.287
46089W        W18437   9.755  44.433   1.291
46090W        W18438  42.318  37.879  12.841
46091W        W18439   7.872  24.665   4.242
46092W        W18440   0.490  24.080   3.840
46093W        W18441  16.225  25.184   1.908
46094W        W18442  12.653  15.254   2.235
46095W        W18443  23.072   9.270  11.405
46096W        W18444  12.348  14.322   0.858
46097W        W18445  26.630  21.200   1.741
46098W        W18446  14.281  37.905  13.412
46099W        W18447  12.828   6.707   1.295
46100W        W18448  19.728   0.798  12.864
46101W        W18449  38.056  33.391   4.737
46102W        W18450  36.375  19.168   1.831
46103W        W18451   6.731  28.164  12.504
46104W        W18452  12.814  27.971  11.892
46105W        W18453   3.403   8.748   0.421
46106W        W18454   0.851  30.595   0.883
46107W        W18455  12.216  30.932  13.976
46108W        W18456  40.341  37.910   4.174
46109W        W18457  21.548   8.205  14.758
46110W        W18458  24.567  15.792  13.488
46111W        W18459   1.974  24.210   2.841
46112W        W18460  39.985  12.280   1.266
46113W        W18461   7.335   7.857  14.794
46114W        W18462  10.727  10.340   3.799
46115W        W18463  25.051   7.314   2.782
46116W        W18464  26.521  30.076  13.876
46117W        W18465  42.004  32.111  13.791
46118W        W18466   1.331  24.050   2.665
46119W        W18467  43.371  36.411   3.777
46120W        W18468  32.630  43.887   0.478
46121W        W18469  23.716   5.268   1.816
46122W        W18470  43.975   9.722  12.015
46123W        W18471  19.244  42.001   0.861
46124W        W18472  32.952  31.901   4.728
46125W        W18473   7.815  18.666   3.244
46126W        W18474  42.517  19.703   1.812
46127W        W18475  12.328  41.444  12.048
46128W        W18476   8.815  27.574   4.275
46129W        W18477  37.949  12.686  14.972
46130W        W18478  42.432  19.777  12.087
46131W        W18479  17.715  12.612  12.401
46132W        W18480  34.884  35.092  10.525
46133W        W18481  40.389  27.515   3.330
46134W        W18482  25.642  28.485  11.035
46135W        W18483  19.682  21.189  12.533
46136W        W18484   1.746  16.158   4.198
46137W        W18485  16.764  11.667   1.434
46138W        W18486  21.245  34.068  13.913
46139W        W18487  40.963  28.650  13.896
46140W        W18488  22.136  35.854   4.130
46141W        W18489  30.521   4.943  14.832
46142W        W18490  23.038  29.997   0.930
46143W        W18491  30.643  12.670   3.176
46144W        W18492   8.798  20.210   2.215
46145W        W18493  39.420  32.103  12.885
46146W        W18494   9.357  23.180   2.848
46147W        W18495   4.302  13.333  13.401
46148W        W18496  37.925  12.245   2.768
46149W        W18497   9.684  16.082   3.791
46150W        W18498  19.048   0.919   4.711
46151W        W18499   2.290  41.361   2.775
46152W        W18500   5.313  34.443  13.451
46153W        W18501  39.980   9.345  13.003
46154W        W18502  16.312  15.247   4.700
46155W        W18503   4.851  32.631   2.283
46156W        W18504  13.159  37.510   3.336
46157W        W18505  23.229  41.372  12.510
46158W        W18506  36.588  20.703   3.652
46159W        W18507  13.148  42.394   3.849
46160W        W18508   3.317   6.809  12.482
46161W        W18509  43.279  39.989  10.481
46162W        W18510   7.817  43.956   2.270
46163W        W18511   2.948  11.238  12.945
46164W        W18512  17.702  27.986   1.735
46165W        W18513   8.252  42.931  13.905
46166W        W18514  22.540  11.308  13.430
46167W        W18515   5.709  40.422  13.373
46168W        W18516  10.327  31.473   4.113
46169W        W18517  23.567  37.915   1.436
46170W        W18518   1.245  21.245   1.924
46171W        W18519  31.609   5.415  14.959
46172W        W18520  36.381  29.990  14.800
46173W        W18521  42.425  42.787   3.183
46174W        W18522  14.290  37.433   0.470
46175W        W18523   7.732  19.619   2.331
46176W        W18524  39.977   6.422   0.805
46177W        W18525  16.587  27.146   1.319
46178W        W18526  25.587  30.126  12.867
46179W        W18527   2.871  11.283   1.888
46180W        W18528  34.381  18.645   4.625
46181W        W18529  40.439   7.841  14.298
46182W        W18530   3.262  26.118   1.844
46183W        W18531  27.596  18.267  11.991
46184W        W18532  38.437  28.448  13.508
46185W        W18533  20.609  41.040  12.370
46186W        W18534  12.752   6.911  11.556
46187W        W18535  20.205   2.804   1.839
46188W        W18536   3.289  19.533  13.849
46189W        W18537  14.652  21.085   4.623
46190W        W18538  11.210  16.146  13.417
46191W        W18539   4.328  38.559  14.334
46192W        W18540   5.417  38.872  13.008
46193W        W18541  31.618  42.921  11.932
46194W        W18542  16.083  16.075  14.916
46195W        W18543  38.366  14.749  13.886
46196W        W18544  33.098   6.248  14.499
46197W        W18545   1.269  16.777  10.591
46198W        W18546  37.389  17.609  10.889
46199W        W18547  18.578   2.890  10.480
46200W        W18548  16.785  29.924   3.148
46201W        W18549   9.683  16.680  12.361
46202W        W18550   0.298  22.701   0.430
46203W        W18551  20.072   4.413   0.770
46204W        W18552  11.725   8.285  12.372
46205W        W18553  22.209   4.400   4.185
46206W        W18554  31.989  43.901  10.948
46207W        W18555   9.327  18.232  13.951
46208W        W18556   1.475  37.562   4.788
46209W        W18557  20.047  15.687   4.232
46210W        W18558   4.729  15.207   3.661
46211W        W18559  38.058  38.922   2.279
46212W        W18560  14.772  31.476   2.233
46213W        W18561  25.196  24.557  14.322
46214W        W18562  39.874  20.644   2.757
46215W        W18563  20.766  37.924  13.827
46216W        W18564  32.096  18.087  13.995
46217W        W18565  43.947  18.553  10.606
46218W        W18566   1.278  43.425   3.260
46219W        W18567  29.066  42.990  12.992
46220W        W18568   1.917  43.935  11.030
46221W        W18569  17.610  23.183  11.553
46222W        W18570  23.185  13.106  13.384
46223W        W18571  12.699   1.966   2.392
46224W        W18572  27.450   5.738  13.442
46225W        W18573  32.028  39.877   4.758
46226W        W18574  28.005  13.345   3.345
46227W        W18575  37.379  10.208   1.402
46228W        W18576  18.202  17.659   3.837
46229W        W18577  44.847  41.516  12.554
46230W        W18578  12.783  30.646   2.308
46231W        W18579  28.112  32.482  11.903
46232W        W18580   2.453  25.495   0.430
46233W        W18581  17.253   7.226  12.030
46234W        W18582  28.140  22.610   4.711
46235W        W18583  14.663  39.344   1.447
46236W        W18584  12.310   3.241  11.904
46237W        W18585  27.956  22.241   3.357
46238W        W18586  12.725  10.251   2.877
46239W        W18587  26.115   2.433  12.548
46240W        W18588  30.153  34.025  10.475
46241W        W18589  26.078  34.043   2.393
46242W        W18590  12.640   3.895  13.403
46243W        W18591   0.311   0.758  11.483
46244W        W18592   1.754  18.588  14.302
46245W        W18593   7.230  26.973  10.606
46246W        W18594   8.332  29.644  13.449
46247W        W18595  16.720   4.208  10.547
46248W        W18596  14.726  33.437  10.025
46249W        W18597  26.527  16.603   1.391
46250W        W18598  12.837  24.675   0.390
46251W        W18599  37.364  25.158  13.410
46252W        W18600  26.669  12.340  14.384
46253W        W18601  31.616  11.215   2.215
46254W        W18602  13.707  26.183   3.315
46255W        W18603  34.436  40.340  10.440
46256W        W18604   2.450  14.831   2.829
46257W        W18605  32.607  30.161  14.829
46258W        W18606  12.699   7.233   3.218
46259W        W18607  35.894  44.440  10.890
46260W        W18608  14.186  44.777   2.880
46261W        W18609  25.102  16.675  11.477
46262W        W18610  17.684  10.825  11.595
46263W        W18611  38.461  17.733  14.769
46264W        W18612  26.555   6.696  12.987
46265W        W18613  36.392  29.585   3.663
46266W        W18614  25.013   9.287   4.245
46267W        W18615  22.623  25.149  12.003
46268W        W18616   2.829  35.403  12.062
46269W        W18617  40.917  25.025  14.902
46270W        W18618   3.307  33.131  12.983
46271W        W18619   3.852   4.725   2.205
46272W        W18620  17.294  10.801  10.577
46273W        W18621  27.657  27.540   0.362
46274W        W18622  18.547  25.069   0.242
46275W        W18623   7.353  14.101   3.797
46276W        W18624  26.685   1.794   3.251
46277W        W18625  19.182   9.887   2.291
46278W        W18626  32.125   2.776  13.451
46279W        W18627   9.700  10.763   0.890
46280W        W18628  15.768  35.474  13.386
46281W        W18629   9.300  34.460  10.973
46282W        W18630  11.622  10.333  14.965
46283W        W18631  35.511  25.657  11.583
46284W        W18632   9.222  39.523  11.114
46285W        W18633  44.009   6.748   1.311
46286W        W18634  43.808  39.538  10.479
46287W        W18635   3.250  44.277   2.685
46288W        W18636   6.200  29.092   4.328
46289W        W18637   2.354  25.077   5.258
46290W        W18638  13.748  43.916  10.898
46291W        W18639  21.546  11.202   1.387
46292W        W18640  40.385  25.534   3.856
46293W        W18641  40.453  12.715  14.905
46294W        W18642  23.221   9.780   0.475
46295W        W18643  14.756  13.350   1.850
46296W        W18644  16.131  21.084  13.547
46297W        W18645  36.423  11.133  10.435
46298W        W18646   5.847  25.588   2.704
46299W        W18647  38.424  27.120  14.388
46300W        W18648   4.856   5.764  14.767
46301W        W18649  39.467  32.897  11.459
46302W        W18650  16.610   4.773   0.838
46303W        W18651  11.860  16.312  11.559
46304W        W18652   3.881  15.745  10.448
46305W        W18653  44.421   0.429   2.894
46306W        W18654  15.717  38.431   0.293
46307W        W18655  17.795  20.110   4.747
46308W        W18656  19.660  34.534  13.518
46309W        W18657  17.061  28.475  10.482
46310W        W18658  23.572  29.932  13.416
46311W        W18659  27.657  13.643  13.380
46312W        W18660  24.605  13.795  11.460
46313W        W18661   6.680   4.391   4.292
46314W        W18662   3.818  41.464   2.234
46315W        W18663  17.597   4.744   1.311
46316W        W18664  33.912  40.983  14.383
46317W        W18665   4.204  19.760  10.959
46318W        W18666  35.943   8.871   2.801
46319W        W18667  33.385  17.244  12.840
46320W        W18668  20.113  20.101   2.391
46321W        W18669  10.837  16.293   2.320
46322W        W18670   5.813  41.927   4.192
46323W        W18671  22.056  29.504  13.314
46324W        W18672   0.952  10.372  12.362
46325W        W18673  10.366   9.161   0.778
46326W        W18674   5.876  23.729   1.433
46327W        W18675   2.311  31.527  14.952
46328W        W18676  10.259  38.023   3.651
46329W        W18677  33.982  39.008   2.888
46330W        W18678   4.930   2.271   3.801
46331W        W18679  39.869  33.932   3.686
46332W        W18680  36.966  39.448  12.409
46333W        W18681  30.594   5.201  13.407
46334W        W18682  19.697   6.287   0.746
46335W        W18683  21.699  26.476   1.217
46336W        W18684   5.379  41.393  14.366
46337W        W18685  15.640  32.894   0.957
46338W        W18686  24.006   4.362   4.704
46339W        W18687  44.980  37.865  11.918
46340W        W18688  10.646  19.254  14.927
46341W        W18689  33.982  20.258  12.545
46342W        W18690  19.249  44.004  12.415
46343W        W18691  28.606  20.644   4.793
46344W        W18692  12.168  31.589  12.552
46345W        W18693  19.083  22.121  14.852
46346W        W18694  24.141   9.233  12.548
46347W        W18695   5.316   9.308  10.475
46348W        W18696  31.521  35.563  10.109
46349W        W18697  43.353  10.239  12.382
46350W        W18698  38.846  37.909  13.414
46351W        W18699  13.796  38.547   4.819
46352W        W18700   0.926  34.500   0.425
46353W        W18701  13.347   6.731  14.462
46354W        W18702  21.142   2.870   3.652
46355W        W18703  17.106  25.483  12.369
46356W        W18704  15.586  43.801  11.506
46357W        W18705  13.693  31.897  12.527
46358W        W18706   0.282   6.301  11.599
46359W        W18707  15.178   6.295  13.889
46360W        W18708  26.085  35.884  11.433
46361W        W18709  10.776  21.203  14.915
46362W        W18710   2.250   7.840   4.167
46363W        W18711   5.752  35.010  12.948
46364W        W18712   5.760  29.615   1.760
46365W        W18713  18.772  15.765   3.690
46366W        W18714  37.520  13.838   4.258
46367W        W18715  18.165   7.724  11.477
46368W        W18716  30.078  42.498   3.774
46369W        W18717   9.766  20.692  13.797
46370W        W18718  13.336  10.312  13.439
46371W        W18719  21.548  13.142   0.463
46372W        W18720  26.658  41.861  12.868
46373W        W18721  27.619  17.706  11.031
46374W        W18722  14.167  12.663  11.027
46375W        W18723  36.976  37.867  14.362
46376W        W18724  30.501  28.510  11.389
46377W        W18725   5.411  44.854   1.837
46378W        W18726   1.777  42.002  12.573
46379W        W18727  27.596   0.274  12.501
46380W        W18728  39.325  27.501   4.153
46381W        W18729   8.370  16.271  11.944
46382W        W18730   7.399  30.141   3.241
46383W        W18731  44.290   3.857   1.934
46384W        W18732   9.220  24.673   0.807
46385W        W18733  33.445  14.214  12.438
46386W        W18734  24.145   4.416  10.512
46387W        W18735  33.897  14.656  10.488
46388W        W18736  44.897  42.309   3.661
46389W        W18737   3.422  28.102   4.317
46390W        W18738  37.933  35.585  10.436
46391W        W18739   5.285   6.796  12.858
46392W        W18740  21.162   7.838   3.172
46393W        W18741  33.025  21.149   0.838
46394W        W18742  19.534  26.108   1.715
46395W        W18743  13.109   9.298  13.871
46396W        W18744  32.422  36.468   4.213
46397W        W18745  38.379  18.558  11.591
46398W        W18746  41.843  10.188   4.267
46399W        W18747   9.748  26.631  12.470
46400W        W18748   5.752   5.901  11.463
46401W        W18749  35.544   6.186   4.698
46402W        W18750  31.458  22.028  10.606
46403W        W18751  20.631  30.623  14.284
46404W        W18752  35.062  19.607  13.800
46405W        W18753  26.958  38.447  13.344
46406W        W18754  21.049   5.433  10.548
46407W        W18755   1.927  17.196   5.195
46408W        W18756  16.654   8.315   0.408
46409W        W18757  17.209  11.853   0.921
46410W        W18758  44.388  15.814  13.052
46411W        W18759  15.673   4.241  11.374
46412W        W18760  36.526  34.516   3.236
46413W        W18761  33.968  41.892   3.823
46414W        W18762   7.336  16.176   0.892
46415W        W18763  43.311  31.428   1.232
46416W        W18764  19.245  29.485  13.961
46417W        W18765   9.806   6.750  11.443
46418W        W18766  32.495  34.101  10.153
46419W        W18767  11.630  31.142  12.448
46420W        W18768   6.418  35.916   3.216
46421W        W18769  12.253  33.532  10.981
46422W        W18770  12.630  38.432   3.285
46423W        W18771  39.558   9.233  12.381
46424W        W18772  34.016  39.515   0.452
46425W        W18773  18.573  26.115  10.604
46426W        W18774  36.922  17.204   3.713
46427W        W18775  43.305  42.943  14.330
46428W        W18776  29.038  15.729   2.312
46429W        W18777   1.938  42.482  11.065
46430W        W18778  15.261  33.604   1.236
46431W        W18779  28.076   3.728   1.806
46432W        W18780  27.955  14.233  13.828
46433W        W18781  20.193  20.268  13.849
46434W        W18782   6.283  32.901   2.323
46435W        W18783  33.009  21.171  11.444
46436W        W18784  17.078  15.116   4.702
46437W        W18785   9.335   3.871   2.224
46438W        W18786  10.371  23.100  12.068
46439W        W18787  18.710  22.132   4.728
46440W        W18788   8.758   3.831   3.697
46441W        W18789   4.782  19.538   4.237
46442W        W18790  24.498   9.789  13.796
46443W        W18791  42.956  17.073   1.867
46444W        W18792  12.175   5.859  13.529
46445W        W18793   8.835  34.464  13.458
46446W        W18794  14.648  35.000  12.569
46447W        W18795  30.426  32.450   2.398
46448W        W18796  18.053  44.769   1.722
46449W        W18797  43.874  22.510  13.877
46450W        W18798  38.480  17.724   1.402
46451W        W18799   4.362   5.839  13.965
46452W        W18800  39.861  26.564  14.016
46453W        W18801  21.744  10.324   1.326
46454W        W18802  39.541  30.020   4.639
46455W        W18803  16.290   6.817  10.422
46456W        W18804  32.404  31.560  10.491
46457W        W18805  37.050  11.342  13.471
46458W        W18806  10.778  35.024  11.409
46459W        W18807  33.937   8.281   2.219
46460W        W18808  11.667  44.772   1.700
46461W        W18809  28.540   8.187  12.926
46462W        W18810  41.943  35.087   0.457
46463W        W18811  44.438  44.845  13.415
46464W        W18812  27.940  19.068  13.900
46465W        W18813  21.173  31.610   2.766
46466W        W18814  15.787  28.439   4.147
46467W        W18815  10.302   7.299  10.154
46468W        W18816  24.227  14.688   1.281
46469W        W18817   6.347  15.230  11.863
46470W        W18818  17.609   7.327  10.919
46471W        W18819   6.868  31.026  12.542
46472W        W18820  29.666  28.500  11.455
46473W        W18821  27.042  30.943  10.606
46474W        W18822  26.003  37.912   0.943
46475W        W18823   3.714  25.474  10.986
46476W        W18824  33.541  42.871  11.462
46477W        W18825  18.152  14.595   2.804
46478W        W18826  42.778  35.537   0.735
46479W        W18827  29.970  15.692   2.753
46480W        W18828  17.074  35.019  10.523
46481W        W18829   2.890  44.414   4.665
46482W        W18830   4.822  36.875   2.384
46483W        W18831  28.534  27.116  11.609
46484W        W18832  40.451   4.922   3.824
46485W        W18833  13.134  20.762   2.383
46486W        W18834  42.484  36.864   2.207
46487W        W18835   9.877   2.929   2.329
46488W        W18836  26.108  14.690   4.629
46489W        W18837  16.202  14.599   9.673
46490W        W18838  18.687  31.538   1.811
46491W        W18839  25.137  37.442   2.796
46492W        W18840  23.135  18.723   0.881
46493W        W18841  35.916  33.460   1.242
46494W        W18842  38.393  42.404   0.468
46495W        W18843  43.417  10.848  13.409
46496W        W18844  33.520   2.277   3.678
46497W        W18845  24.609  18.755  14.783
46498W        W18846  19.226  12.310   4.764
46499W        W18847  11.848  39.921  11.918
46500W        W18848  28.600  32.130   1.823
46501W        W18849   8.174   7.726  10.933
46502W        W18850  11.705  41.976   4.217
46503W        W18851   5.863  24.715  11.936
46504W        W18852   0.301   1.412   1.274
46505W        W18853  41.981   2.731   3.788
46506W        W18854  10.336  16.568  13.544
46507W        W18855  27.647  28.486  11.117
46508W        W18856  28.182  22.730   2.188
46509W        W18857  32.952  18.631  14.980
46510W        W18858  19.742  35.428  13.008
46511W        W18859  23.509  14.692  13.397
46512W        W18860  29.520  41.309   3.704
46513W        W18861  44.951   7.884  10.510
46514W        W18862  13.264  30.955  10.931
46515W        W18863  13.812  21.731  13.542
46516W        W18864  40.545  40.818  12.016
46517W        W18865  23.562   2.779   4.647
46518W        W18866   7.851  34.371  14.964
46519W        W18867  27.587  23.640  11.897
46520W        W18868  13.335   3.799  14.834
46521W        W18869  29.496   1.783   5.172
46522W        W18870  35.431  15.791  14.277
46523W        W18871  29.429   0.867   1.893
46524W        W18872  34.915   5.838  14.975
46525W        W18873  40.398  13.762   4.191
46526W        W18874  22.643  38.457  11.059
46527W        W18875  12.672   1.362  12.011
46528W        W18876  43.782  42.475  11.943
46529W        W18877  33.064  37.920   3.789
46530W        W18878  10.712  42.415   4.836
46531W        W18879   3.732   0.475   1.929
46532W        W18880  12.805  22.542  14.927
46533W        W18881  41.852  23.590   0.437
46534W        W18882   7.270   9.371  12.853
46535W        W18883  35.025  22.126   4.186
46536W        W18884  24.642   3.454  11.505
46537W        W18885  21.190  18.166  14.379
46538W        W18886  43.853  41.893   2.273
46539W        W18887  34.969  37.512   0.453
46540W        W18888  25.081   7.687   9.438
46541W        W18889  43.351  35.357   3.679
46542W        W18890  23.996   8.364   3.213
46543W        W18891  11.727  12.807  12.858
46544W        W18892  18.057  41.519  11.504
46545W        W18893   1.291  40.990   2.765
46546W        W18894  42.291  19.209   4.232
46547W        W18895  10.669  34.106   1.889
46548W        W18896  33.902  33.524   3.370
46549W        W18897  30.596   0.419   2.787
46550W        W18898   9.366  24.086  11.531
46551W        W18899   2.756   5.895  13.391
46552W        W18900  16.229   5.759   0.871
46553W        W18901  14.772  10.639   0.773
46554W        W18902  44.462  18.248   4.185
46555W        W18903  39.837  35.888  12.842
46556W        W18904  43.945  39.007  11.946
46557W        W18905  11.793   3.283   3.167
46558W        W18906  35.960  19.128  12.953
46559W        W18907  14.143  15.819  12.363
46560W        W18908   0.466  11.659  13.348
46561W        W18909  42.341  15.242  13.028
46562W        W18910  36.035  36.462  10.994
46563W        W18911   8.376  12.160   1.242
46564W        W18912  33.924  32.544   0.351
46565W        W18913  21.691  26.503  11.431
46566W        W18914  21.560  25.512  14.943
46567W        W18915  38.514  28.174   2.692
46568W        W18916  10.267  43.361   4.810
46569W        W18917  13.175  40.361  11.874
46570W        W18918  30.082   8.749  12.093
46571W        W18919  30.977  16.697   0.905
46572W        W18920  39.538  18.546  10.024
46573W        W18921  16.780  43.343  13.869
46574W        W18922  11.850  21.082  10.141
46575W        W18923  21.230  26.591  11.992
46576W        W18924  38.328  14.339   2.820
46577W        W18925  32.598  41.006   2.890
46578W        W18926   5.351  27.186   0.325
46579W        W18927  13.609  36.967   3.286
46580W        W18928   6.248   4.924  12.404
46581W        W18929  24.982  43.991   3.697
46582W        W18930  19.726  11.802  11.419
46583W        W18931   0.367   0.826   1.429
46584W        W18932  42.789  14.633  12.416
46585W        W18933  24.058  25.594  13.819
46586W        W18934  35.453  19.181   2.769
46587W        W18935   2.750  40.313  10.419
46588W        W18936   2.437  18.142  12.010
46589W        W18937  18.744   6.822  13.811
46590W        W18938  13.704  33.103  14.485
46591W        W18939  23.113  34.589   2.351
46592W        W18940  20.197  21.033  12.052
46593W        W18941  19.762   8.330   2.308
46594W        W18942   9.872   4.265   0.875
46595W        W18943  20.184  15.683   4.833
46596W        W18944  42.795  14.801   1.860
46597W        W18945  27.138  16.658  11.531
46598W        W18946  42.296  16.220   2.887
46599W        W18947   3.713   3.379   4.169
46600W        W18948  29.466  22.644   2.233
46601W        W18949   6.340  41.514  12.486
46602W        W18950  33.535   1.405   2.752
46603W        W18951  40.466  10.667   4.196
46604W        W18952   0.809  36.565   3.807
46605W        W18953   7.816   4.405   1.724
46606W        W18954  18.268  34.892   0.284
46607W        W18955   0.352   2.243   4.725
46608W        W18956   5.833  10.323  14.927
46609W        W18957  35.471   5.252  10.931
46610W        W18958  24.996  23.543   2.875
46611W        W18959  28.155  23.658  11.018
46612W        W18960  10.359  43.986   0.833
46613W        W18961  17.641  39.040   4.798
46614W        W18962  37.976  14.601   4.234
46615W        W18963   3.247  10.730   3.635
46616W        W18964   5.778  37.043   0.348
46617W        W18965  14.318  30.938  13.433
46618W        W18966  20.270  35.359  13.932
46619W        W18967  18.760  19.684  11.497
46620W        W18968  19.741  41.934  12.343
46621W        W18969  22.047  39.446  10.455
46622W        W18970  39.818  28.494   1.758
46623W        W18971   1.331  27.467  14.928
46624W        W18972  11.258  30.524  12.034
46625W        W18973  43.311  16.245   1.775
46626W        W18974  21.230  37.387   1.284
46627W        W18975  23.138  21.567   1.902
46628W        W18976  19.124  20.558  14.412
46629W        W18977  13.170   2.234  11.986
46630W        W18978   5.338  30.129  12.472
46631W        W18979  36.855  25.150   4.187
46632W        W18980   3.235  29.123   4.804
46633W        W18981   2.772   9.352   0.812
46634W        W18982  13.326   4.363  11.390
46635W        W18983   7.779   7.320   4.770
46636W        W18984  40.977  19.284  13.009
46637W        W18985  21.134  36.394   4.811
46638W        W18986  25.144  26.034   3.722
46639W        W18987  43.967  30.429   3.150
46640W        W18988  41.986  18.169   3.173
46641W        W18989  43.917   1.798   3.253
46642W        W18990  36.539  11.840   1.411
46643W        W18991  24.031  15.151  12.909
46644W        W18992  40.542  11.836  12.862
46645W        W18993  13.600  31.953  14.914
46646W        W18994  13.313  32.393  13.436
46647W        W18995  14.790  25.160  11.898
46648W        W18996  43.279   6.267  11.896
46649W        W18997   4.945   6.408  12.422
46650W        W18998  15.219  14.616   5.596
46651W        W18999  28.590  27.589  11.387
46652W        W19000  15.719  19.761   4.722
46653W        W19001  18.054   2.408   1.897
46654W        W19002  40.844   7.399   1.343
46655W        W19003   0.335  36.457   1.926
46656W        W19004  17.109  20.754  14.794
46657W        W19005  27.064  40.309   4.671
46658W        W19006  21.538  16.810   2.878
46659W        W19007   3.379  16.629   4.229
46660W        W19008  43.341  42.291  13.923
46661W        W19009  30.616  43.412  11.128
46662W        W19010   7.181  20.766   4.241
46663W        W19011  36.543  23.081  13.849
46664W        W19012  35.985  13.329   0.463
46665W        W19013  12.269  27.547   0.791
46666W        W19014  14.257  42.497   1.285
46667W        W19015   4.275  28.624  13.961
46668W        W19016  13.815  39.004   3.382
46669W        W19017  28.656  13.775  10.929
46670W        W19018  24.094  17.800   2.188
46671W        W19019   3.340  37.569  10.541
46672W        W19020  20.579  21.108  14.299
46673W        W19021  25.122   6.741  11.916
46674W        W19022  25.665  41.420  10.914
46675W        W19023  36.378   4.857  14.805
46676W        W19024  34.032  26.025  12.526
46677W        W19025  28.930  36.396   0.954
46678W        W19026  29.512  21.673   1.283
46679W        W19027  27.638   9.152   3.320
46680W        W19028   6.299  20.176  10.432
46681W        W19029  44.474   7.293  14.823
46682W        W19030  19.043   8.779   4.776
46683W        W19031   8.372  36.570  12.017
46684W        W19032  10.188  33.875  14.785
46685W        W19033  11.760  22.618   1.739
46686W        W19034  24.534  43.920   1.451
46687W        W19035  42.964  13.319  14.874
46688W        W19036  27.988  20.717   1.721
46689W        W19037  34.589  21.698   4.323
46690W        W19038  13.614   2.747   1.736
46691W        W19039  10.650  16.186  11.063
46692W        W19040   8.899   8.799   4.783
46693W        W19041  22.174   1.732  11.469
46694W        W19042  27.186  16.745  11.865
46695W        W19043  22.508  26.498   4.831
46696W        W19044  40.386  21.587   0.259
46697W        W19045  38.928  12.695  13.012
46698W        W19046   3.733  17.084  11.529
46699W        W19047   6.817  30.127  12.451
46700W        W19048   0.845  39.014  11.413
46701W        W19049  43.936  37.418   0.385
46702W        W19050  37.882  29.074   1.706
46703W        W19051   6.800  44.371  14.340
46704W        W19052   2.339  30.988   1.377
46705W        W19053   1.760  38.349  11.944
46706W        W19054  29.110   9.656   4.327
46707W        W19055  15.678   7.892  14.309
46708W        W19056  27.596   4.314  11.866
46709W        W19057  11.816  19.259   4.153
46710W        W19058  12.701   6.386   0.841
46711W        W19059  20.059  34.109  13.827
46712W        W19060  21.625  23.022  11.061
46713W        W19061  11.804   0.258  12.985
46714W        W19062  11.195  15.173   3.748
46715W        W19063  22.741   4.375  13.005
46716W        W19064  15.102   8.369  12.407
46717W        W19065  44.387   4.716   4.180
46718W        W19066  32.544  30.603  14.919
46719W        W19067  19.691  35.502  11.063
46720W        W19068   1.412   9.762   1.769
46721W        W19069  37.982  17.109   1.446
46722W        W19070  33.954  29.575  12.011
46723W        W19071   0.777  11.651   3.169
46724W        W19072  25.578  12.136   3.846
46725W        W19073  21.232  43.972  11.461
46726W        W19074  17.259  28.514   2.694
46727W        W19075  23.129  29.089  11.115
46728W        W19076  33.903  17.288  13.322
46729W        W19077  32.970  36.851   2.674
46730W        W19078  29.989   2.277  12.890
46731W        W19079  29.991  39.317  14.875
46732W        W19080  22.182  43.361   4.216
46733W        W19081  38.474   4.447  11.934
46734W        W19082  10.318  21.183   4.272
46735W        W19083   2.887  24.993  12.086
46736W        W19084  22.227  30.058   2.802
46737W        W19085  17.568  21.235  13.829
46738W        W19086  17.704  40.901   1.834
46739W        W19087  32.106  14.686   4.706
46740W        W19088  19.768  10.697  14.866
46741W        W19089  41.927  37.408  13.345
46742W        W19090  15.122  28.134   1.751
46743W        W19091  20.158  10.300  14.328
46744W        W19092  25.145   7.796   4.641
46745W        W19093  15.763  26.552   0.417
46746W        W19094  43.016  24.996  14.291
46747W        W19095  36.453  26.047   0.292
46748W        W19096  35.014  42.984   4.746
46749W        W19097  38.968  36.994   4.686
46750W        W19098  22.246  19.774  12.972
46751W        W19099  22.141   1.794   3.152
46752W        W19100  16.313  30.622  11.515
46753W        W19101  42.379  10.296   3.216
46754W        W19102  24.590  21.098   2.180
46755W        W19103  14.136  36.013   0.793
46756W        W19104   8.216  30.011   2.377
46757W        W19105  14.630  13.727   2.183
46758W        W19106  21.722  22.589   0.441
46759W        W19107  32.575  39.513  10.954
46760W        W19108  37.437  39.933   3.187
46761W        W19109  28.011  40.869   3.723
46762W        W19110  40.864   7.297  11.999
46763W        W19111  35.986  16.273   1.714
46764W        W19112  15.723  12.334  13.403
46765W        W19113  24.164  43.311  14.969
46766W        W19114  39.401  26.464  11.033
46767W        W19115  27.143   0.453  10.489
46768W        W19116   0.288  13.795  12.979
46769W        W19117  34.893  23.158  12.064
46770W        W19118  18.133   8.244  13.336
46771W        W19119  28.452  14.292  14.373
46772W        W19120  38.489   3.235   2.753
46773W        W19121  15.682  30.103  12.450
46774W        W19122  17.274  35.553  13.337
46775W        W19123  22.531  15.718  11.123
46776W        W19124  13.655   1.452  12.527
46777W        W19125  22.035  30.614   0.432
46778W        W19126  23.641  29.452  10.515
46779W        W19127  44.904  27.039  10.887
46780W        W19128  40.387   4.251   0.276
46781W        W19129  44.855  31.616  10.463
46782W        W19130  39.505  15.265  13.963
46783W        W19131  18.690  36.900  11.386
46784W        W19132   6.258   0.328  12.428
46785W        W19133  15.319  24.091   3.325
46786W        W19134   4.392  38.906   1.873
46787W        W19135  41.915  17.611  12.957
46788W        W19136   5.275  41.450   1.231
46789W        W19137  43.987   4.749  11.484
46790W        W19138  43.484  39.887   1.859
46791W        W19139  14.634   2.252   4.265
46792W        W19140  25.138  19.167  10.935
46793W        W19141   8.736  12.666  12.063
46794W        W19142  34.942  38.366  14.510
46795W        W19143  19.657  26.581   0.843
46796W        W19144  19.709   0.311   1.760
46797W        W19145  16.736   2.791  14.792
46798W        W19146  18.656  16.108   4.226
46799W        W19147  39.842  41.014   2.392
46800W        W19148   2.458  38.939  13.829
46801W        W19149  37.462  32.394  12.537
46802W        W19150  31.593  44.261   4.126
46803W        W19151  29.173   3.721  11.456
46804W        W19152  27.989   3.422  14.488
46805W        W19153   7.375   3.248  13.799
46806W        W19154  32.601  20.614   2.672
46807W        W19155  30.575  34.418   3.766
46808W        W19156  14.820  44.326  12.408
46809W        W19157  44.900  44.401   4.306
46810W        W19158  12.809  18.069  14.012
46811W        W19159  33.954  41.304   0.771
46812W        W19160  14.688  32.042   4.750
46813W        W19161  14.327  10.356  11.481
46814W        W19162  31.953  35.960   4.698
46815W        W19163  33.895  23.599   2.340
46816W        W19164   9.837  28.085   3.365
46817W        W19165  27.678  12.202   3.850
46818W        W19166   3.786  10.181  10.019
46819W        W19167  43.965  40.364   1.312
46820W        W19168   4.867  16.579   4.248
46821W        W19169  38.474  40.932  12.094
46822W        W19170  29.021  13.673  13.832
46823W        W19171  33.558  27.190   4.698
46824W        W19172  33.516  35.409   2.329
46825W        W19173   5.358  26.959  14.961
46826W        W19174  38.958   3.918  14.349
46827W        W19175  28.600   8.702  14.512
46828W        W19176   3.882  30.415   2.763
46829W        W19177  35.983  44.505  14.403
46830W        W19178  28.556  14.282  11.589
46831W        W19179  37.446  20.734  10.992
46832W        W19180  42.293   6.844  13.451
46833W        W19181  39.062  33.128  14.314
46834W        W19182  26.005  25.074   3.864
46835W        W19183  30.604  34.898  13.959
46836W        W19184  44.793  19.040  10.993
46837W        W19185   4.763  36.548   0.894
46838W        W19186  35.883   6.274  14.007
46839W        W19187  34.477  17.117  14.896
46840W        W19188  31.083   4.420   0.308
46841W        W19189  12.271   8.665  12.376
46842W        W19190   5.334  15.649  12.491
46843W        W19191  11.277   6.269   2.268
46844W        W19192  35.516  24.038   1.734
46845W        W19193  30.476  36.546   9.958
46846W        W19194  11.635   9.728  12.891
46847W        W19195  23.046  23.621  14.919
46848W        W19196  11.184  42.470  12.875
46849W        W19197   6.211  39.324  14.846
46850W        W19198  19.689  38.859  10.954
46851W        W19199  39.933  10.197   1.291
46852W        W19200   4.425  18.659  12.946
46853W        W19201  17.703  27.994  14.024
46854W        W19202  28.623  42.463  14.765
46855W        W19203  42.806  15.669  14.826
46856W        W19204   9.275   5.823  11.530
46857W        W19205  23.533  27.618   3.346
46858W        W19206  26.553  22.033  13.545
46859W        W19207   1.929  41.826   0.744
46860W        W19208  16.162   7.724  13.344
46861W        W19209  36.923  24.196  14.829
46862W        W19210  16.573  40.432  12.524
46863W        W19211  38.996  19.077  14.828
46864W        W19212   0.437  22.560   4.209
46865W        W19213   4.306  35.940  12.922
46866W        W19214  40.392  25.479  12.047
46867W        W19215  17.754  10.287  13.430
46868W        W19216  26.459   6.370   3.274
46869W        W19217  31.988  35.401  14.831
46870W        W19218   0.412   4.391  10.933
46871W        W19219  43.791  10.243  14.327
46872W        W19220  27.513  43.349  12.921
46873W        W19221   9.209  40.987   2.814
46874W        W19222  34.398   3.724  14.865
46875W        W19223  38.010  14.270   5.307
46876W        W19224  14.107  23.603   4.116
46877W        W19225  37.015   7.209  11.902
46878W        W19226  11.226  14.618  12.094
46879W        W19227   7.327  16.655  13.940
46880W        W19228  10.677  30.072  12.956
46881W        W19229  19.767  14.278   0.878
46882W        W19230  43.425  28.440  14.029
46883W        W19231  24.610  17.684  11.502
46884W        W19232  33.885  22.544   2.717
46885W        W19233  26.116  14.210   1.851
46886W        W19234  38.875  36.537  11.403
46887W        W19235   6.863  20.086   3.733
46888W        W19236  42.909  22.681   4.669
46889W        W19237  20.724  30.999   1.307
46890W        W19238  24.204  23.594   2.842
46891W        W19239  37.349  19.162  14.376
46892W        W19240   9.756  25.087   4.326
46893W        W19241  40.348   3.796  10.930
46894W        W19242  22.675  19.617   3.303
46895W        W19243   0.921  43.284  11.080
46896W        W19244  23.594   3.281  13.010
46897W        W19245   2.457   4.703   5.159
46898W        W19246   8.870  31.000   0.245
46899W        W19247  33.989  18.050   4.615
46900W        W19248  29.958   3.310  14.993
46901W        W19249  14.297  18.604  14.875
46902W        W19250   5.334   6.306  11.495
46903W        W19251  33.965  32.956   3.189
46904W        W19252   0.379   3.769  12.544
46905W        W19253  22.201  24.197   4.286
46906W        W19254  30.954  32.458  12.491
46907W        W19255  21.598  40.022  10.535
46908W        W19256  41.964  25.570   3.218
46909W        W19257  20.087  35.463   2.273
46910W        W19258  33.509  42.320  13.801
46911W        W19259  18.746  41.343   1.857
46912W        W19260   2.307  11.836  11.127
46913W        W19261  32.408   1.392   1.219
46914W        W19262  25.047   0.375   1.429
46915W        W19263  13.220  32.490   4.666
46916W        W19264  16.161  23.191  13.997
46917W        W19265  41.923  23.015  13.510
46918W        W19266  28.958  18.780   0.450
46919W        W19267  39.968  40.329   2.409
46920W        W19268   8.365  33.508  11.571
46921W        W19269  27.565  29.054  12.047
46922W        W19270  32.999  22.657   4.732
46923W        W19271  41.397  41.018  14.406
46924W        W19272  14.156  16.253   1.788
46925W        W19273  40.833  33.877   4.307
46926W        W19274  15.766  30.931  11.962
46927W        W19275   0.764   6.376   0.437
46928W        W19276  44.867  38.472  12.994
46929W        W19277  31.063  19.750  13.546
46930W        W19278  31.902  15.286  10.538
46931W        W19279  32.474  15.220   3.733
46932W        W19280  29.994  34.943  13.337
46933W        W19281  19.679  38.993  12.461
46934W        W19282   7.802  29.467  11.993
46935W        W19283   8.201  19.546  12.492
46936W        W19284   1.807  33.028   3.374
46937W        W19285  42.828  18.602   1.849
46938W        W19286  39.007  36.375  12.568
46939W        W19287  11.285  25.140   0.787
46940W        W19288  27.126  37.832   2.208
46941W        W19289  14.739  43.765  11.908
46942W        W19290  35.400   6.841   4.654
46943W        W19291   0.335  32.628   3.269
46944W        W19292  26.545  12.120   1.832
46945W        W19293   6.335  29.026  13.322
46946W        W19294   5.286  28.006  13.462
46947W        W19295  15.711  19.737   3.648
46948W        W19296  20.203  35.893   2.413
46949W        W19297  39.902  39.324  12.468
46950W        W19298   5.699  31.644  14.307
46951W        W19299  31.581  36.583  11.116
46952W        W19300  34.917  40.504  11.379
46953W        W19301  31.512  43.963  14.770
46954W        W19302  36.486  33.092   1.283
46955W        W19303  25.608  27.000  13.965
46956W        W19304  10.147  21.161  13.500
46957W        W19305  16.122  31.446  11.431
46958W        W19306  20.574  36.538  14.500
46959W        W19307   4.833  22.566  13.040
46960W        W19308  44.763  36.878   1.771
46961W        W19309  23.168  25.017  13.414
46962W        W19310  13.618  16.144  12.053
46963W        W19311  26.682  23.020   0.809
46964W        W19312  15.815  26.069  12.508
46965W        W19313  29.065  24.090  12.910
46966W        W19314  41.409  39.482   4.326
46967W        W19315  12.142  17.166  12.947
46968W        W19316  24.985   0.753   2.792
46969W        W19317   6.856  38.566   2.715
46970W        W19318  19.192  22.025   4.226
46971W        W19319  16.706  32.456  12.873
46972W        W19320  42.897  22.615  10.521
46973W        W19321  29.469  16.128   0.367
46974W        W19322  25.494  27.666   3.236
46975W        W19323  23.139  43.848  13.457
46976W        W19324  15.598  11.323   4.725
46977W        W19325  22.156  34.030  13.814
46978W        W19326  43.811  18.599   1.934
46979W        W19327  15.254  29.628   1.932
46980W        W19328  14.785  22.116   2.203
46981W        W19329  30.621  43.513  13.524
46982W        W19330  21.062   8.222   3.852
46983W        W19331   4.390   0.973  14.437
46984W        W19332  19.120  16.594   2.226
46985W        W19333  16.211  26.058  14.368
46986W        W19334   0.928  39.455   0.284
46987W        W19335  43.907  42.389   2.393
46988W        W19336  24.231  24.064  12.870
46989W        W19337   3.786  12.645   0.767
46990W        W19338  22.747  12.344   0.271
46991W        W19339  36.546   8.719   5.241
46992W        W19340   0.307  11.285   3.208
46993W        W19341  10.636  44.266   3.305
46994W        W19342  15.620  31.608  13.354
46995W        W19343  32.422  24.651  12.422
46996W        W19344  14.797  11.799  13.531
46997W        W19345  13.725  32.977  11.024
46998W        W19346   4.791  29.628  14.964
46999W        W19347  15.673  41.934   4.778
47000W        W19348  39.923  38.550   4.213
47001W        W19349  30.456   0.837   4.697
47002W        W19350  43.806  17.244  13.951
47003W        W19351  34.000  16.161   0.334
47004W        W19352  33.581  25.063  12.963
47005W        W19353  33.463  44.468  11.571
47006W        W19354  21.663  20.629  12.953
47007W        W19355   3.761   3.950  14.321
47008W        W19356  28.072   1.914  10.503
47009W        W19357  30.513  16.285   4.350
47010W        W19358  39.396   9.350  11.526
47011W        W19359   0.843   1.829   5.262
47012W        W19360  44.291  22.229  12.859
47013W        W19361  26.559  38.871  12.056
47014W        W19362  37.397  38.005   4.186
47015W        W19363  14.819  11.171  12.008
47016W        W19364   9.354  29.959   3.693
47017W        W19365   0.839  24.008   2.827
47018W        W19366   9.673  36.529  13.053
47019W        W19367  17.191  36.951   2.799
47020W        W19368  42.000  33.461  13.464
47021W        W19369  44.824  35.435   0.951
47022W        W19370  28.494  33.575  12.027
47023W        W19371   1.881  26.467   0.384
47024W        W19372  36.993  43.959  10.566
47025W        W19373  30.999  40.984   1.808
47026W        W19374  23.496  12.299   1.748
47027W        W19375  23.572  33.509   4.303
47028W        W19376  15.146   9.390   0.739
47029W        W19377  12.335   8.264   3.672
47030W        W19378  29.019   8.699   2.854
47031W        W19379  16.129  32.903  11.564
47032W        W19380  14.158  15.823   1.265
47033W        W19381  31.562  37.359   0.741
47034W        W19382  18.625   2.767   0.838
47035W        W19383  14.648  43.898  14.981
47036W        W19384  19.057  36.977  12.844
47037W        W19385  34.887   9.352  14.279
47038W        W19386  42.783  34.087  11.064
47039W        W19387   5.893  29.629   2.796
47040W        W19388   2.431  34.393  12.908
47041W        W19389   8.866  19.272  12.511
47042W        W19390  29.555  43.340   2.729
47043W        W19391  24.517  13.793  11.876
47044W        W19392  15.226   7.805  12.955
47045W        W19393   3.352  10.384  11.897
47046W        W19394  39.985  34.908   4.714
47047W        W19395   8.866  38.821   3.346
47048W        W19396  41.013  21.722   4.173
47049W        W19397  26.672   3.447  11.512
47050W        W19398  41.512  30.003   2.689
47051W        W19399   3.930  22.094  12.088
47052W        W19400  41.299  44.337  11.494
47053W        W19401  25.035  43.881  10.501
47054W        W19402  36.462  29.921  11.994
47055W        W19403  39.994  21.706  14.516
47056W        W19404  22.158  21.246   4.144
47057W        W19405  17.274  37.545   5.129
47058W        W19406  38.443  33.060  11.564
47059W        W19407  42.938  34.588  11.549
47060W        W19408  42.953   1.751   1.236
47061W        W19409   8.170   3.234   0.831
47062W        W19410   2.841  15.088  13.053
47063W        W19411  35.919  19.651  14.364
47064W        W19412  33.614  21.724  14.372
47065W        W19413  10.688  33.930  11.505
47066W        W19414  39.906  31.509  11.512
47067W        W19415  38.978   7.304  10.019
47068W        W19416  35.084  32.001  14.327
47069W        W19417  21.670   1.734   0.464
47070W        W19418  30.010  18.665   0.311
47071W        W19419   2.732  16.567   2.284
47072W        W19420  17.187   6.421  13.491
47073W        W19421   1.404   5.709  11.378
47074W        W19422   1.841   6.740  11.922
47075W        W19423  30.557  15.217   0.840
47076W        W19424  40.956  43.368  13.043
47077W        W19425   8.785   4.441  14.492
47078W        W19426  28.578  29.470   1.348
47079W        W19427  29.432   1.793  14.435
47080W        W19428  43.816  25.511   1.846
47081W        W19429  34.596  14.820  14.792
47082W        W19430  43.271  38.024  12.372
47083W        W19431  10.798  11.680   1.901
47084W        W19432   8.862  25.612   1.883
47085W        W19433  20.030   2.338  12.346
47086W        W19434  33.901  29.152  12.540
47087W        W19435  37.462  10.653   3.166
47088W        W19436  43.768  42.283   0.449
47089W        W19437  35.436  28.165  11.459
47090W        W19438  44.989   8.805   3.243
47091W        W19439  35.946  27.171   3.287
47092W        W19440  34.095  32.051  13.510
47093W        W19441   4.230  26.530   4.738
47094W        W19442   1.906   7.705  12.391
47095W        W19443  39.338  29.938  11.005
47096W        W19444  41.345   3.768  12.467
47097W        W19445  29.508   3.786  11.496
47098W        W19446  20.271  14.266  13.892
47099W        W19447   1.350  39.362   3.629
47100W        W19448  43.943  30.946   3.206
47101W        W19449  33.612  29.125  11.098
47102W        W19450  31.574  21.553  13.503
47103W        W19451  38.502  14.793   0.480
47104W        W19452  30.537  37.948   2.764
47105W        W19453  39.949   7.330   0.388
47106W        W19454  27.074  36.944  13.454
47107W        W19455   6.699  41.907  12.042
47108W        W19456   7.189   1.368  11.864
47109W        W19457  18.262   7.337  12.433
47110W        W19458  16.156  18.689  11.484
47111W        W19459  32.953   9.184   1.849
47112W        W19460  21.218   5.376  11.979
47113W        W19461   2.921   6.697   4.771
47114W        W19462  18.597  39.427  13.473
47115W        W19463  23.154  44.487  13.527
47116W        W19464  14.203   6.847  13.333
47117W        W19465  29.930  16.666  12.824
47118W        W19466  16.081  41.844  11.534
47119W        W19467  12.625  35.591  11.084
47120W        W19468   8.389  33.480  11.890
47121W        W19469  40.919   3.773   1.317
47122W        W19470  21.262   9.663   0.250
47123W        W19471  38.424   6.397  13.314
47124W        W19472  40.839  19.713  12.979
47125W        W19473  14.131   7.236  12.008
47126W        W19474   7.172  19.171  10.464
47127W        W19475  27.106  13.732  14.462
47128W        W19476  10.190   8.882  12.925
47129W        W19477  24.627  41.449  10.892
47130W        W19478  13.838  29.561   1.790
47131W        W19479  27.940  17.762   4.666
47132W        W19480  42.835   5.822   3.172
47133W        W19481  24.223  20.759  11.558
47134W        W19482   1.388  10.316  14.001
47135W        W19483   1.878   9.392   1.885
47136W        W19484  32.108  23.564  10.471
47137W        W19485  43.382  35.976   3.673
47138W        W19486   5.299   1.375   2.241
47139W        W19487   7.831  22.641   4.661
47140W        W19488  13.276   1.811  11.087
47141W        W19489  18.145  25.542   3.750
47142W        W19490   1.465  36.895   3.218
47143W        W19491  25.471   5.803  10.595
47144W        W19492   2.892  38.930   4.179
47145W        W19493  42.031   7.739  11.540
47146W        W19494  41.835  22.692   0.749
47147W        W19495  31.078  32.027  12.946
47148W        W19496  29.935  21.248  14.981
47149W        W19497  39.409  12.784   2.379
47150W        W19498  24.523  32.937   2.399
47151W        W19499  30.068  29.583  14.909
47152W        W19500  27.686  27.479   4.653
47153W        W19501   3.268  14.743   2.833
47154W        W19502  15.187   7.252  13.372
47155W        W19503   9.368  25.969   2.331
47156W        W19504  21.531  11.812   0.879
47157W        W19505  44.999   6.258   0.447
47158W        W19506   3.739  30.935   0.246
47159W        W19507  31.582  27.662  12.999
47160W        W19508  31.025  24.663   3.752
47161W        W19509  14.731  21.102  12.848
47162W        W19510  15.154  19.661   1.443
47163W        W19511   1.965  20.682  14.411
47164W        W19512  42.366  44.868  11.553
47165W        W19513  42.285  21.130   1.416
47166W        W19514  24.682  42.866   0.950
47167W        W19515  34.977  30.137   2.369
47168W        W19516  38.343  35.503   2.878
47169W        W19517  10.168   4.806  14.496
47170W        W19518  44.418  41.947  14.825
47171W        W19519   7.839  15.680   1.342
47172W        W19520  17.268  14.635   2.389
47173W        W19521  42.023   1.341  11.951
47174W        W19522  35.991  31.998  12.059
47175W        W19523  38.435   5.257   4.775
47176W        W19524  33.926  15.200  10.627
47177W        W19525  24.628  26.113  11.444
47178W        W19526  13.732  34.482  13.377
47179W        W19527  25.525  39.011  11.609
47180W        W19528  34.611  34.394   2.348
47181W        W19529  23.180  29.164   3.312
47182W        W19530  15.691  11.769  11.875
47183W        W19531  38.338  40.314  12.846
47184W        W19532  25.983  20.768  14.378
47185W        W19533   2.272   6.319  10.540
47186W        W19534  36.535   4.397   2.719
47187W        W19535  18.092  21.245   0.901
47188W        W19536   4.312  21.649  11.438
47189W        W19537  17.087  41.899  12.038
47190W        W19538  33.502  11.349  13.339
47191W        W19539  43.297  41.947  13.960
47192W        W19540  42.483  41.846   4.739
47193W        W19541  42.435  28.528  12.396
47194W        W19542   8.778  41.442   2.761
47195W        W19543  32.610  32.550   3.325
47196W        W19544  31.414   2.391  10.976
47197W        W19545   2.744  31.981   3.803
47198W        W19546  24.028  25.197  13.863
47199W        W19547  28.525  29.971  12.443
47200W        W19548  32.626  33.950  10.623
47201W        W19549   0.900  23.043  14.948
47202W        W19550  10.196  29.510   4.169
47203W        W19551   3.764  19.236  13.532
47204W        W19552  25.985  38.340   0.764
47205W        W19553  30.981  25.140  11.021
47206W        W19554  25.216  15.662   0.899
47207W        W19555   6.400  11.770   2.793
47208W        W19556   9.337   9.235   4.786
47209W        W19557  13.156  38.845   4.836
47210W        W19558   0.896  24.552  14.282
47211W        W19559   1.436  34.610  11.002
47212W        W19560   0.336  13.198  12.975
47213W        W19561   2.316  32.455   3.684
47214W        W19562  38.009  19.182   0.446
47215W        W19563  44.308   6.918  12.350
47216W        W19564   3.406  37.473  12.007
47217W        W19565  25.073  27.148   3.795
47218W        W19566  31.026  24.637  13.956
47219W        W19567  22.527  35.455  10.449
47220W        W19568  34.557  12.286  11.004
47221W        W19569  34.095   1.249  12.970
47222W        W19570  14.629   7.225   0.473
47223W        W19571   9.718  14.108  10.407
47224W        W19572  13.669  31.987   0.956
47225W        W19573  12.166  30.915  11.439
47226W        W19574  20.580  28.987  13.375
47227W        W19575   1.852   9.179  10.456
47228W        W19576  42.477  17.613   3.344
47229W        W19577   2.803  12.657  14.447
47230W        W19578   4.360  15.112  14.960
47231W        W19579  16.801  28.108  14.321
47232W        W19580  14.637  41.416  14.983
47233W        W19581  17.665  10.270  10.558
47234W        W19582  18.062  38.953  13.414
47235W        W19583  10.190   9.751  12.019
47236W        W19584  24.990  28.949  10.430
47237W        W19585  12.336   8.730  14.890
47238W        W19586  12.796  37.494  14.319
47239W        W19587  12.712   1.780   1.252
47240W        W19588  17.640  11.864  11.543
47241W        W19589  26.206  43.780  11.922
47242W        W19590   0.958  17.801   1.905
47243W        W19591  28.461  11.825  12.856
47244W        W19592  22.553   1.415  12.404
47245W        W19593  11.361  16.249   2.376
47246W        W19594  19.646  26.485   4.625
47247W        W19595  31.640  44.837   4.635
47248W        W19596  35.421  17.300  14.906
47249W        W19597  24.145  31.968   0.454
47250W        W19598   9.659  37.869  11.592
47251W        W19599   4.779   6.185   5.320
47252W        W19600   9.387  30.997   4.316
47253W        W19601  40.884  23.723  14.014
47254W        W19602  40.401  36.542   1.262
47255W        W19603  21.643  10.761   0.745
47256W        W19604  42.929   9.807   2.307
47257W        W19605  34.040   2.391  11.577
47258W        W19606  31.528  33.489   0.913
47259W        W19607  38.508  17.101   1.395
47260W        W19608  43.314  21.104  14.463
47261W        W19609  41.359   7.747  12.504
47262W        W19610  12.360   6.412   2.720
47263W        W19611  36.442  11.646   2.703
47264W        W19612   5.194  41.392   1.712
47265W        W19613  29.022   9.276  11.390
47266W        W19614  31.105  33.942   4.118
47267W        W19615  11.761  21.097   1.336
47268W        W19616  27.665  28.092   1.400
47269W        W19617  21.679  14.701  14.417
47270W        W19618  44.841  15.281   3.164
47271W        W19619  30.650  29.645   0.734
47272W        W19620  23.218  28.484   3.748
47273W        W19621   4.291  27.690   0.913
47274W        W19622  26.103  13.650  11.007
47275W        W19623  20.525  37.037   1.746
47276W        W19624  41.533  44.323  11.955
47277W        W19625   5.714  36.058  10.545
47278W        W19626  40.851  27.045  11.585
47279W        W19627  43.273  31.979  11.961
47280W        W19628  25.150  15.269   1.336
47281W        W19629   4.919  40.008   2.257
47282W        W19630   7.834  44.920  13.419
47283W        W19631   7.317  28.942   2.883
47284W        W19632   0.345  43.376   2.773
47285W        W19633  10.145  32.588   5.311
47286W        W19634  39.428  23.493   2.842
47287W        W19635  24.015  37.028  13.946
47288W        W19636  37.551  24.720  14.495
47289W        W19637  22.093   8.745   2.815
47290W        W19638  13.250  43.874   1.866
47291W        W19639  38.500  20.735   4.287
47292W        W19640   5.898   8.872   3.229
47293W        W19641   4.795  11.767  13.862
47294W        W19642  31.149  39.363  12.970
47295W        W19643  17.141  38.876   1.704
47296W        W19644  44.317  17.220   3.659
47297W        W19645  23.598  14.671  10.468
47298W        W19646  27.555  20.737   0.933
47299W        W19647  39.854  38.026  11.404
47300W        W19648  27.532  43.807   3.241
47301W        W19649  38.901  33.994   1.389
47302W        W19650  41.394  15.294   3.302
47303W        W19651  12.746  43.008  14.291
47304W        W19652  36.537  16.719   0.271
47305W        W19653  31.904   2.331  12.526
47306W        W19654  13.242  41.949  12.434
47307W        W19655  20.043  44.269  11.089
47308W        W19656  12.639  28.170  14.480
47309W        W19657   6.758  38.904  14.314
47310W        W19658  34.582   3.759   3.763
47311W        W19659  39.840  25.628  13.932
47312W        W19660  22.618  27.654   1.228
47313W        W19661   3.323  35.392   3.331
47314W        W19662   1.933  42.361   0.435
47315W        W19663   2.929   2.240  14.440
47316W        W19664  44.426  14.738   4.341
47317W        W19665  44.285  17.738   1.810
47318W        W19666   8.348  16.270  13.820
47319W        W19667   6.798  40.389  12.996
47320W        W19668   3.416  18.686  11.511
47321W        W19669   3.300   1.833  14.941
47322W        W19670  23.106  20.639  10.537
47323W        W19671  11.732  16.156  14.474
47324W        W19672  18.201  43.490   0.739
47325W        W19673  18.689  40.343   5.107
47326W        W19674  29.668  12.767   2.347
47327W        W19675  35.858  14.728   3.222
47328W        W19676  27.061   7.413  11.959
47329W        W19677  29.451  37.533  13.352
47330W        W19678  38.524  27.609  12.349
47331W        W19679  35.920  10.224   1.433
47332W        W19680  43.933  21.131   3.844
47333W        W19681  43.999  43.270   1.914
47334W        W19682   8.375  36.960   0.375
47335W        W19683  10.787  34.607   1.699
47336W        W19684  33.072  28.127  11.447
47337W        W19685  29.958  18.551  13.325
47338W        W19686  10.314  13.298   5.282
47339W        W19687   0.256  21.026   3.377
47340W        W19688  20.737  26.636  11.982
47341W        W19689   1.928  11.704   4.304
47342W        W19690  36.033  10.357  14.335
47343W        W19691   8.873  15.155   1.695
47344W        W19692  12.188  44.902   2.737
47345W        W19693  30.941  43.800  13.374
47346W        W19694   8.722  21.524   0.964
47347W        W19695  43.388  24.703   4.168
47348W        W19696  31.632  30.952   4.742
47349W        W19697  11.661  26.974   1.836
47350W        W19698  38.829  30.486  10.936
47351W        W19699  44.872   4.904  14.994
47352W        W19700  23.537  22.745  14.318
47353W        W19701  23.170  14.269   1.358
47354W        W19702  37.917  12.144   2.368
47355W        W19703  32.889  40.854  13.888
47356W        W19704  17.146  21.581   1.231
47357W        W19705   3.871   0.863  10.152
47358W        W19706  25.496   3.333   3.701
47359W        W19707  29.080  30.104   3.752
47360W        W19708  25.010  40.943   2.419
47361W        W19709  34.539  40.499   1.923
47362W        W19710  39.415   1.316   0.359
47363W        W19711  14.834  18.752  12.549
47364W        W19712  37.426  34.990  13.998
47365W        W19713  43.346  35.972   4.673
47366W        W19714  28.983  39.865   0.350
47367W        W19715  27.951  42.471   1.878
47368W        W19716   2.466  42.025   1.699
47369W        W19717  21.681  22.019   2.259
47370W        W19718  41.967  43.930   0.360
47371W        W19719   8.174  24.052  13.964
47372W        W19720  22.127   7.805   2.732
47373W        W19721  22.147  30.658  13.539
47374W        W19722  11.863  43.418  12.543
47375W        W19723  17.197   7.790  10.891
47376W        W19724  14.293   3.263  13.965
47377W        W19725  27.549  26.010  10.450
47378W        W19726  42.888  14.718  11.424
47379W        W19727   8.381   0.456  14.497
47380W        W19728   8.818  23.600  12.849
47381W        W19729  28.107   7.256  10.936
47382W        W19730  34.607  38.069  13.048
47383W        W19731  25.985  13.621  10.490
47384W        W19732  31.112   8.740   3.735
47385W        W19733  20.055  27.499  12.447
47386W        W19734  21.665   1.426   3.220
47387W        W19735  18.745  33.525   3.771
47388W        W19736  44.363  35.392   2.887
47389W        W19737   2.310  37.949   3.188
47390W        W19738   8.689   9.744  11.034
47391W        W19739  33.922  31.567   2.410
47392W        W19740  21.021  38.870  11.081
47393W        W19741  43.931   8.773  11.608
47394W        W19742  33.008   7.845   0.377
47395W        W19743  31.148  39.346   2.302
47396W        W19744   9.243  40.351   3.237
47397W        W19745  42.901  32.514  11.942
47398W        W19746   7.700   7.351  13.975
47399W        W19747  27.507   0.931  13.805
47400W        W19748  10.799  17.797   0.930
47401W        W19749  16.751   7.860   0.905
47402W        W19750  19.151  35.021  11.904
47403W        W19751  37.519  35.589   3.386
47404W        W19752  11.712  31.644   3.806
47405W        W19753  26.172  37.385   3.365
47406W        W19754  18.110  31.587   1.861
47407W        W19755  23.125  20.125   3.770
47408W        W19756  26.506   1.246  11.018
47409W        W19757  42.409  35.934  12.058
47410W        W19758  34.012  36.045  11.958
47411W        W19759  32.054  33.889  11.125
47412W        W19760  29.056  11.651   1.926
47413W        W19761  31.149  11.645  12.918
47414W        W19762   3.802   9.853  11.886
47415W        W19763  36.952  29.127  14.796
47416W        W19764  13.772  25.178   1.798
47417W        W19765  10.229  41.504   0.884
47418W        W19766   3.271   6.310   5.244
47419W        W19767   6.203   0.866  13.520
47420W        W19768  31.559   1.879  10.544
47421W        W19769  21.730   2.435  12.090
47422W        W19770  16.097  36.558  12.347
47423W        W19771  24.600  23.993   2.256
47424W        W19772  19.713   8.799   1.792
47425W        W19773   4.418  20.559  13.049
47426W        W19774  25.039  31.149   3.282
47427W        W19775  36.518  16.253   4.728
47428W        W19776  36.061  21.727  10.536
47429W        W19777  16.802  13.126  12.985
47430W        W19778  42.339  39.878  12.426
47431W        W19779  24.978  28.058   2.728
47432W        W19780  25.698  30.051   1.829
47433W        W19781  32.126  38.489   4.677
47434W        W19782  17.590  14.180   0.392
47435W        W19783   4.209  36.472  11.388
47436W        W19784   4.716  13.782  13.978
47437W        W19785  17.731  18.296   2.801
47438W        W19786  17.710  22.028   4.199
47439W        W19787  15.193  32.555  10.547
47440W        W19788  14.173   7.908   0.261
47441W        W19789  25.971  43.342  12.093
47442W        W19790  34.907  24.693   3.339
47443W        W19791  13.127  22.627   0.815
47444W        W19792  35.938  13.268  14.946
47445W        W19793  21.517  28.551   1.258
47446W        W19794  15.190  32.014  10.413
47447W        W19795  35.082   0.440  11.548
47448W        W19796  23.097  42.509   0.870
47449W        W19797  23.215   9.264   5.247
47450W        W19798  22.648  35.040   2.758
47451W        W19799  12.209  13.814   0.360
47452W        W19800  11.696  22.528  13.307
47453W        W19801  22.230   2.942  13.480
47454W        W19802  23.171  32.981  13.351
47455W        W19803  12.816  38.463   0.243
47456W        W19804  10.708  18.640  11.886
47457W        W19805  18.265  28.974   1.390
47458W        W19806  42.867  11.711   4.700
47459W        W19807   0.378  36.954  12.350
47460W        W19808   5.233  44.927  10.924
47461W        W19809  31.510   2.414   3.317
47462W        W19810  15.648  39.420  10.510
47463W        W19811  24.705  13.603   4.155
47464W        W19812  19.733   7.304  11.952
47465W        W19813   0.426  17.149   0.291
47466W        W19814   2.905  20.077   4.640
47467W        W19815  44.462  29.569  12.501
47468W        W19816  29.028  30.573   2.194
47469W        W19817  34.070  32.394   4.768
47470W        W19818  25.153  34.607  12.083
47471W        W19819  34.865  23.000  13.008
47472W        W19820   4.843   9.733   0.956
47473W        W19821  11.272  19.158  11.014
47474W        W19822  38.837  38.412   2.412
47475W        W19823   0.797  34.543   0.822
47476W        W19824  42.843   2.933   3.280
47477W        W19825   7.906   2.819   4.625
47478W        W19826  40.485  15.150  10.483
47479W        W19827  24.995  35.879   0.735
47480W        W19828  20.136  12.253  14.986
47481W        W19829  22.630  26.565  13.408
47482W        W19830  43.009  43.336  10.898
47483W        W19831  20.158  27.015   2.281
47484W        W19832  36.546   4.705   1.331
47485W        W19833  17.774   5.878   0.753
47486W        W19834  26.129  16.151   0.905
47487W        W19835  13.171   3.806   1.357
47488W        W19836   9.153  10.151  14.843
47489W        W19837  37.866  12.134  13.889
47490W        W19838   2.803  44.781   0.244
47491W        W19839  43.422  31.551  13.313
47492W        W19840  10.798  14.154  13.314
47493W        W19841  28.471  11.860   0.243
47494W        W19842   3.848  35.064  13.445
47495W        W19843  26.518   8.813  14.822
47496W        W19844  19.646  43.444  13.858
47497W        W19845  16.671  33.888  14.425
47498W        W19846  40.834  16.738  12.486
47499W        W19847  20.116  32.063  10.968
47500W        W19848  34.934  37.490   3.767
47501W        W19849  33.969  34.013   5.692
47502W        W19850   2.445  27.550   0.779
47503W        W19851  28.571  30.928  13.869
47504W        W19852  41.512  12.118  10.985
47505W        W19853  14.296   9.718  13.858
47506W        W19854  28.623  24.716  13.380
47507W        W19855  29.059  10.797  11.589
47508W        W19856  12.702  16.727   0.893
47509W        W19857  31.920  44.397   3.271
47510W        W19858  44.757  12.728   4.635
47511W        W19859   0.290  30.972  12.868
47512W        W19860  10.160  28.453   4.604
47513W        W19861  29.164   1.411   2.875
47514W        W19862  39.423  40.332   3.747
47515W        W19863  37.888   5.732   4.257
47516W        W19864  22.567  33.495  14.968
47517W        W19865  35.037  13.121   4.168
47518W        W19866  31.019  20.063   3.270
47519W        W19867  13.720  14.094  14.405
47520W        W19868  42.960  22.683   1.931
47521W        W19869  14.715   7.896   1.765
47522W        W19870  36.539  29.957  10.933
47523W        W19871  29.530   0.346  13.868
47524W        W19872  39.352  32.414  12.419
47525W        W19873   6.242  36.449   0.383
47526W        W19874   1.934  25.970  13.488
47527W        W19875  10.871  20.587  13.916
47528W        W19876   9.202  15.223  13.958
47529W        W19877  29.516  15.215   2.357
47530W        W19878  15.212  24.999   1.406
47531W        W19879  11.174  27.640   2.320
47532W        W19880  37.836  32.400  10.927
47533W        W19881  42.004  39.981   4.817
47534W        W19882   6.196  32.041   2.326
47535W        W19883  34.582  44.326   0.262
47536W        W19884  35.907  29.464  12.065
47537W        W19885  33.548  29.508   2.205
47538W        W19886  37.957  38.013  13.807
47539W        W19887  22.726  38.911   3.345
47540W        W19888  21.134  25.504  10.490
47541W        W19889  28.962  24.977  14.789
47542W        W19890  35.857  35.556  13.526
47543W        W19891  24.210  37.433   5.320
47544W        W19892  38.569   5.726  13.445
47545W        W19893   9.788   3.226  12.418
47546W        W19894  24.163   6.263  13.529
47547W        W19895   1.267  23.200   4.161
47548W        W19896  37.044  39.858   3.649
47549W        W19897   6.684  37.552   5.225
47550W        W19898  13.240  34.052   2.810
47551W        W19899  33.581  36.455  11.855
47552W        W19900  37.994  15.777   4.710
47553W        W19901  19.539  26.101   4.131
47554W        W19902   7.221  32.478   4.812
47555W        W19903   1.418  28.166   1.222
47556W        W19904  31.482   3.766   2.728
47557W        W19905  39.513  43.334  10.969
47558W        W19906  43.788  28.116   2.390
47559W        W19907   9.241  21.088   3.298
47560W        W19908  24.613  23.518   4.121
47561W        W19909   6.208  35.984   4.793
47562W        W19910  10.233  24.152   1.292
47563W        W19911  12.182  18.681   1.827
47564W        W19912  40.534   9.789  13.368
47565W        W19913  26.528  28.520  10.902
47566W        W19914  43.341  44.851   0.426
47567W        W19915  39.429  21.726  14.457
47568W        W19916  14.312  33.383  13.542
47569W        W19917  26.150  44.842  10.913
47570W        W19918  40.866  15.755   4.132
47571W        W19919  38.434  26.610   4.348
47572W        W19920   6.687  12.360  12.370
47573W        W19921  17.783  27.069   4.838
47574W        W19922  32.910   1.421  14.503
47575W        W19923  28.439  38.355   4.698
47576W        W19924   3.257   3.416   5.238
47577W        W19925   7.816  30.965   5.299
47578W        W19926  38.479  24.104   2.747
47579W        W19927  42.966  21.105   3.797
47580W        W19928  20.210  28.999   2.278
47581W        W19929  20.704   2.932   1.866
47582W        W19930   6.207  40.311   0.783
47583W        W19931  23.662  20.719   2.820
47584W        W19932  44.816  13.760   1.869
47585W        W19933  30.498  23.130  13.916
47586W        W19934   2.956  42.012   1.375
47587W        W19935  42.874  38.556   2.253
47588W        W19936   5.435  17.195  13.481
47589W        W19937  36.871   5.285   1.857
47590W        W19938   9.200  12.720  11.460
47591W        W19939  39.386  41.454  12.070
47592W        W19940  38.480  18.686   0.292
47593W        W19941  36.940  14.719   3.325
47594W        W19942   2.331   6.738   0.254
47595W        W19943   0.923  13.185  14.984
47596W        W19944  16.658  34.051  13.987
47597W        W19945  36.898  33.907   0.478
47598W        W19946  40.489  28.994   0.827
47599W        W19947  15.255  42.468  11.558
47600W        W19948   1.764  19.647   0.859
47601W        W19949  11.364  41.792  13.360
47602W        W19950   5.354  22.678  10.086
47603W        W19951  11.139  11.260   1.286
47604W        W19952   6.188  28.079   5.281
47605W        W19953  12.253  13.336  12.902
47606W        W19954  35.566  22.696   3.670
47607W        W19955  32.591   5.328   2.250
47608W        W19956  31.615   8.350   4.166
47609W        W19957  15.620   1.934   2.850
47610W        W19958  33.006  39.964  13.875
47611W        W19959  44.967  33.875  12.086
47612W        W19960  32.421  33.039  11.987
47613W        W19961  23.103  20.768   4.662
47614W        W19962  25.968  39.366  13.992
47615W        W19963   3.810   8.187   3.702
47616W        W19964  16.273  28.497   2.275
47617W        W19965  21.757  22.713   4.688
47618W        W19966  15.706  16.264   1.389
47619W        W19967  42.458  41.503  11.457
47620W        W19968   7.732  33.415  14.501
47621W        W19969   5.224   2.310   2.673
47622W        W19970   2.314  32.000  11.946
47623W        W19971   8.187  39.469  14.920
47624W        W19972  27.612   1.248  12.457
47625W        W19973  41.908   4.800   4.726
47626W        W19974  41.451  34.908   5.214
47627W        W19975  35.358  36.007   0.292
47628W        W19976   3.910  34.009  10.556
47629W        W19977   4.227   0.337  13.895
47630W        W19978  30.468   7.352  11.949
47631W        W19979  24.571  37.863  11.112
47632W        W19980   7.399  14.800  11.970
47633W        W19981   1.425  11.771  12.540
47634W        W19982  15.126  12.712  12.981
47635W        W19983  40.417  11.358  13.952
47636W        W19984  35.486  18.150  12.093
47637W        W19985  11.650   0.282  14.369
47638W        W19986   4.216  40.895   3.224
47639W        W19987  19.098  42.984  11.127
47640W        W19988  36.934  22.718   4.618
47641W        W19989  43.374  33.038  14.294
47642W        W19990   2.349  28.997   3.264
47643W        W19991  43.815   4.743  14.972
47644W        W19992  34.066  34.102   3.157
47645W        W19993  25.192  25.680  13.457
47646W        W19994  44.339  18.093   5.135
47647W        W19995  11.306  11.729  11.020
47648W        W19996   4.259   0.290   3.324
47649W        W19997  22.120   5.229  12.855
47650W        W19998  32.015   2.358   1.331
47651W        W19999  27.996  12.625  10.615
47652W        W20000  28.509  43.503  10.579
47653W        W20001   6.320  38.013  14.450
47654W        W20002  35.918   4.799   4.730
47655W        W20003  14.694  19.054   2.773
47656W        W20004  17.103   6.815   2.219
47657W        W20005   6.829  15.302  14.868
47658W        W20006  34.406   8.319  14.290
47659W        W20007  43.370  30.163  12.425
47660W        W20008  29.920  19.618   2.191
47661W        W20009  14.095  11.241  13.942
47662W        W20010  25.150  41.791  12.384
47663W        W20011   5.730  29.124   2.207
47664W        W20012   6.758   5.863  11.523
47665W        W20013  18.643  43.302   4.273
47666W        W20014  32.992  16.640   0.927
47667W        W20015   9.781   4.287  14.985
47668W        W20016  10.814  36.451  11.913
47669W        W20017  14.235  21.209   0.783
47670W        W20018  41.536  26.694   0.838
47671W        W20019  31.423  40.993  11.055
47672W        W20020  38.043   2.464  14.335
47673W        W20021  27.183  43.889  12.454
47674W        W20022   4.945  25.494  11.061
47675W        W20023  16.762  22.508  14.008
47676W        W20024  23.230   8.258  14.945
47677W        W20025  31.925  27.463  13.311
47678W        W20026  25.468   0.875   1.876
47679W        W20027  10.723  31.081   1.810
47680W        W20028  26.978  30.943   1.220
47681W        W20029  10.719  20.605  12.563
47682W        W20030  11.675  23.985   4.742
47683W        W20031  19.214  26.672  11.005
47684W        W20032  25.024  18.718   3.282
47685W        W20033   9.731  28.168  14.332
47686W        W20034   3.357   3.741  13.444
47687W        W20035  28.084   7.751   3.241
47688W        W20036  31.919  37.057  11.025
47689W        W20037  21.580  23.637   1.415
47690W        W20038  28.184  34.481  11.994
47691W        W20039  10.699  33.416  11.560
47692W        W20040  14.175  32.002   4.631
47693W        W20041  33.122  36.535  11.045
47694W        W20042  12.255   4.699  12.370
47695W        W20043  19.763  24.049  12.897
47696W        W20044  43.390  35.453   0.786
47697W        W20045  43.415   9.349  14.846
47698W        W20046  16.642  38.978  11.943
47699W        W20047  31.590  19.204  10.603
47700W        W20048  10.695  38.473  13.442
47701W        W20049  18.213  39.469  11.022
47702W        W20050  35.488  32.057   4.170
47703W        W20051  14.210  31.575   3.857
47704W        W20052  35.590   9.677  13.838
47705W        W20053   6.259   3.910   1.244
47706W        W20054  34.489  35.592   3.692
47707W        W20055  26.133   3.899   1.383
47708W        W20056   3.319  20.029  13.909
47709W        W20057   9.273  27.104   4.242
47710W        W20058   5.765  38.019  11.590
47711W        W20059   9.729  20.527   3.817
47712W        W20060  14.186  33.007  13.350
47713W        W20061  33.127   6.680   0.482
47714W        W20062  19.706  24.566  14.400
47715W        W20063  23.084  32.443  14.409
47716W        W20064  11.231  20.044  11.435
47717W        W20065  22.734  20.195   3.745
47718W        W20066  40.004  14.613   3.686
47719W        W20067   6.264  43.495  11.502
47720W        W20068  42.422  13.727  12.933
47721W        W20069   1.475  23.035   2.858
47722W        W20070  33.935   7.376   1.714
47723W        W20071  26.484  24.543  13.906
47724W        W20072   8.839  32.543  13.800
47725W        W20073  41.416  39.911   2.729
47726W        W20074   5.290  36.023  13.858
47727W        W20075  21.163  42.781   4.603
47728W        W20076  18.185  19.147   2.208
47729W        W20077   9.330  25.024  13.842
47730W        W20078  31.483  28.047   1.221
47731W        W20079  31.437  23.677  13.470
47732W        W20080  35.963  32.391  13.417
47733W        W20081  36.416   5.345   9.936
47734W        W20082  26.037   2.249  14.856
47735W        W20083  18.681  18.639   3.709
47736W        W20084  43.303   5.774   3.239
47737W        W20085  15.172  11.711   9.518
47738W        W20086  20.265  30.924  13.035
47739W        W20087  39.989   9.806   2.327
47740W        W20088  27.579   7.409  12.980
47741W        W20089  26.702   4.714   5.209
47742W        W20090  32.133  18.128  12.571
47743W        W20091  28.125  26.039  13.856
47744W        W20092  32.516  22.150   4.179
47745W        W20093   1.418  15.213  10.427
47746W        W20094  37.851  21.719   1.845
47747W        W20095   1.925  21.577   2.780
47748W        W20096   4.404  16.740   2.813
47749W        W20097  10.711  12.346   2.209
47750W        W20098  42.285  39.358   0.880
47751W        W20099   3.387  22.589   3.217
47752W        W20100  10.720  27.018  12.372
47753W        W20101  27.097  18.164   3.194
47754W        W20102  22.631  20.064  12.428
47755W        W20103  22.218  28.151   1.224
47756W        W20104   1.734   9.317   3.774
47757W        W20105  29.099  16.746   0.311
47758W        W20106   2.780  28.648   0.292
47759W        W20107  35.544  20.159   1.307
47760W        W20108  28.643  23.528  11.528
47761W        W20109  21.157  24.719   0.378
47762W        W20110   8.343  41.892  13.830
47763W        W20111  16.586  22.671   0.279
47764W        W20112  37.547  43.451  12.072
47765W        W20113  29.633  36.562   4.250
47766W        W20114  38.920  44.893   3.706
47767W        W20115  28.096  37.518  13.892
47768W        W20116  17.305  16.680  13.321
47769W        W20117  35.424  10.154  12.833
47770W        W20118  25.557  35.371   3.355
47771W        W20119  21.598  31.502   1.213
47772W        W20120   7.349  30.925   1.810
47773W        W20121   8.367  32.994   9.525
47774W        W20122  19.545   2.252  12.029
47775W        W20123  11.231   2.320  11.592
47776W        W20124  35.946  15.619  14.872
47777W        W20125  31.402  38.927   4.756
47778W        W20126  12.289  20.569   4.292
47779W        W20127   9.674   5.772  14.802
47780W        W20128  43.279   0.458   0.438
47781W        W20129  40.054  30.951  11.385
47782W        W20130  33.619   9.389  10.100
47783W        W20131  41.931  15.722  10.517
47784W        W20132  19.129  36.429   1.344
47785W        W20133   4.373  38.902   2.892
47786W        W20134  40.962  42.826   5.166
47787W        W20135   6.312   6.230  14.501
47788W        W20136  18.573  42.343   0.404
47789W        W20137  42.347  38.463  14.334
47790W        W20138  44.892  28.078  13.445
47791W        W20139  42.397   5.364  14.513
47792W        W20140   6.765   2.437  13.525
47793W        W20141   8.195  32.465  11.906
47794W        W20142  12.259  13.794   3.732
47795W        W20143   3.816   7.370   1.425
47796W        W20144  26.639  30.947  13.437
47797W        W20145  41.981  38.568   3.630
47798W        W20146  16.243  42.919   2.665
47799W        W20147  24.019  39.967  14.283
47800W        W20148  28.106   4.206  14.301
47801W        W20149   2.789   6.329  10.895
47802W        W20150  10.357  36.068   4.749
47803W        W20151  38.908  12.144  12.832
47804W        W20152  19.552   1.801  10.939
47805W        W20153  21.758   9.285  13.435
47806W        W20154  34.417  42.826  12.038
47807W        W20155   5.740  27.979   3.722
47808W        W20156  19.183  15.670   3.866
47809W        W20157  12.206  44.784   4.205
47810W        W20158  42.910  13.846  13.989
47811W        W20159  43.285   5.281  12.992
47812W        W20160  27.069  14.333   5.097
47813W        W20161  39.916  40.944  11.042
47814W        W20162  40.823  38.063  11.520
47815W        W20163   6.820  13.260   2.879
47816W        W20164  41.335  13.253   2.245
47817W        W20165  39.933  33.539  12.835
47818W        W20166  15.691   9.696   4.287
47819W        W20167   7.759  42.973  14.455
47820W        W20168  34.448  27.943  12.095
47821W        W20169  12.666  27.524  12.870
47822W        W20170  22.735  13.264   2.280
47823W        W20171  32.488  21.610  14.370
47824W        W20172  39.035  20.222   1.756
47825W        W20173   1.909   8.212  14.769
47826W        W20174  24.547  26.202  14.908
47827W        W20175  29.425  18.168   3.774
47828W        W20176  14.163  20.050   0.798
47829W        W20177  38.962  15.245  14.786
47830W        W20178   8.675   8.733   0.412
47831W        W20179  20.263  34.113  13.419
47832W        W20180  18.280  31.096  14.892
47833W        W20181  15.270  24.974   1.931
47834W        W20182   0.937  16.727   1.759
47835W        W20183  43.785  34.077  12.927
47836W        W20184   4.311  14.340  11.060
47837W        W20185  33.383  14.599  13.462
47838W        W20186  22.126  23.068  13.440
47839W        W20187   7.217  11.864  14.302
47840W        W20188  44.289   1.792   2.835
47841W        W20189  42.985  38.529  12.421
47842W        W20190  39.451   6.815  12.945
47843W        W20191   4.290  16.704  11.931
47844W        W20192  19.093  12.651   0.264
47845W        W20193   3.943  32.583  13.310
47846W        W20194  25.567  12.727  13.325
47847W        W20195  41.310  41.508   2.208
47848W        W20196  30.068  30.484  11.410
47849W        W20197  33.431  26.102   0.951
47850W        W20198  31.076  36.429  14.878
47851W        W20199  32.422  10.268   0.891
47852W        W20200  18.591  19.207  13.498
47853W        W20201  32.554  23.079  11.100
47854W        W20202  28.172  13.806  14.806
47855W        W20203  31.590   2.839  10.642
47856W        W20204   3.713  33.538   3.287
47857W        W20205  32.115  21.055  14.948
47858W        W20206  19.562  15.230   0.318
47859W        W20207  10.211  27.528   1.244
47860W        W20208  13.801  39.348   4.697
47861W        W20209  11.838  26.647  14.500
47862W        W20210  16.622  11.262  11.897
47863W        W20211   5.717  38.000  14.344
47864W        W20212  23.094  21.599  12.957
47865W        W20213   1.913   4.392   0.865
47866W        W20214  10.354  19.055   3.263
47867W        W20215  34.551  17.199   0.852
47868W        W20216  43.859  40.359  11.075
47869W        W20217   4.739   5.828  12.075
47870W        W20218  43.944  33.953   4.300
47871W        W20219   6.319  18.226   3.364
47872W        W20220  23.551   6.728   0.375
47873W        W20221   1.444  14.183   1.702
47874W        W20222   1.876   5.205   3.670
47875W        W20223  38.894  16.231   1.270
47876W        W20224  26.120  21.677   2.359
47877W        W20225  10.246  25.577   1.862
47878W        W20226  22.560  24.099   1.749
47879W        W20227  36.060   9.849   3.694
47880W        W20228  43.945  41.879  13.511
47881W        W20229  40.963  28.501  11.602
47882W        W20230   1.381  16.796   1.331
47883W        W20231  32.141  12.122  10.952
47884W        W20232  31.995   7.852  10.463
47885W        W20233  32.626  25.141   4.835
47886W        W20234   3.346  27.517   4.626
47887W        W20235  16.685  10.329   0.745
47888W        W20236  19.636   1.776   0.907
47889W        W20237  11.800  44.958  11.590
47890W        W20238  31.085  15.135  14.922
47891W        W20239  15.777  26.660   1.383
47892W        W20240  40.006  16.297   1.833
47893W        W20241  18.639  15.189  10.545
47894W        W20242  37.834   0.877  10.408
47895W        W20243  21.229   4.737   0.350
47896W        W20244  19.239  14.248   0.872
47897W        W20245  40.502  42.323   4.133
47898W        W20246  36.067  34.494   0.438
47899W        W20247  32.540  44.400   0.311
47900W        W20248  28.012   2.335  12.547
47901W        W20249  38.992  35.452   0.252
47902W        W20250  43.777  32.034   1.747
47903W        W20251  11.687  21.019  11.002
47904W        W20252  40.340  31.988  10.077
47905W        W20253  27.102  14.095   3.865
47906W        W20254  38.910   9.747  10.517
47907W        W20255  29.534  16.613   1.374
47908W        W20256   1.329  40.386  13.421
47909W        W20257   0.815  43.497   4.708
47910W        W20258  35.597  22.183  12.062
47911W        W20259  33.969  43.344   2.391
47912W        W20260  24.117  10.839   2.179
47913W        W20261  33.498  35.449  13.480
47914W        W20262  20.116  33.085   0.315
47915W        W20263  41.988   7.845  13.893
47916W        W20264  18.747  28.046   1.241
47917W        W20265  16.695   9.804   2.761
47918W        W20266   8.820  22.677   9.459
47919W        W20267   2.437  13.700   0.949
47920W        W20268  25.699  41.809   2.278
47921W        W20269   4.821  44.905   0.738
47922W        W20270  39.033  38.973  12.033
47923W        W20271   9.804  20.044  11.110
47924W        W20272  18.752  13.722  11.114
47925W        W20273   1.338  23.058   1.231
47926W        W20274  37.076  43.904   4.781
47927W        W20275  40.548  38.434   4.629
47928W        W20276  39.396  15.580  12.342
47929W        W20277  39.005  15.709   4.823
47930W        W20278  18.776  35.952   1.245
47931W        W20279   5.750   1.739  13.811
47932W        W20280  39.523  19.188  14.941
47933W        W20281  41.437  22.036  10.499
47934W        W20282  11.758  12.680   2.200
47935W        W20283  19.582  34.424   4.207
47936W        W20284  21.708  10.380   3.721
47937W        W20285  37.464  23.693  13.795
47938W        W20286  25.638   8.831  13.881
47939W        W20287  36.540  39.408  10.488
47940W        W20288  15.723  13.779  11.074
47941W        W20289  40.310  40.007  10.458
47942W        W20290   4.306  26.081   3.668
47943W        W20291  40.476  43.805  11.418
47944W        W20292  21.517  44.774   1.821
47945W        W20293  40.406   7.825   1.402
47946W        W20294  42.476  16.640  11.000
47947W        W20295   6.744  25.626  11.098
47948W        W20296  43.957   6.877   0.868
47949W        W20297  14.312  10.155   4.667
47950W        W20298   4.393  43.004  13.043
47951W        W20299   1.757   5.331   0.915
47952W        W20300  19.669  29.669  14.316
47953W        W20301  21.648  26.017  11.026
47954W        W20302  43.948  10.284  11.959
47955W        W20303   0.867   1.891  11.010
47956W        W20304  29.449   9.393   1.373
47957W        W20305  26.529  20.207   3.255
47958W        W20306  41.822  14.597  13.479
47959W        W20307  27.527  22.220  14.395
47960W        W20308  22.666  14.114  13.467
47961W        W20309   6.346  26.697  14.803
47962W        W20310  41.903   9.217  13.524
47963W        W20311  44.937   9.257  12.980
47964W        W20312  29.040  35.472   0.258
47965W        W20313  41.828  39.866   0.409
47966W        W20314  23.203  39.985  11.374
47967W        W20315  18.273   3.306   3.380
47968W        W20316  15.676   5.908  10.587
47969W        W20317  36.549  34.381   3.727
47970W        W20318   1.878  30.995  11.067
47971W        W20319   8.843  39.374   4.320
47972W        W20320  29.635  21.041   3.837
47973W        W20321  30.510  23.241  10.908
47974W        W20322   4.766  11.644  12.447
47975W        W20323   2.286   5.296   4.310
47976W        W20324  40.017  38.472  12.355
47977W        W20325   9.295  36.421   3.747
47978W        W20326  40.981  31.562   4.671
47979W        W20327  33.572   1.388   2.411
47980W        W20328   7.244  14.660   2.829
47981W        W20329  28.106  18.756  14.032
47982W        W20330  16.092  17.249  12.524
47983W        W20331   8.370  11.132   1.211
47984W        W20332  16.145  36.902  13.967
47985W        W20333  12.699  14.721   0.439
47986W        W20334   7.713  18.131  12.981
47987W        W20335  31.023  43.868  12.422
47988W        W20336   5.268  40.436  14.894
47989W        W20337  22.100   2.354   2.375
47990W        W20338  13.209  23.718  13.506
47991W        W20339  37.337   6.838  14.353
47992W        W20340  33.099  42.452  13.939
47993W        W20341  25.147   8.375  11.896
47994W        W20342  41.800  32.592  11.930
47995W        W20343  31.060  28.609   0.754
47996W        W20344  34.467  22.626  11.985
47997W        W20345   4.394   9.391  11.070
47998W        W20346   2.873  27.132  13.314
47999W        W20347  11.760   7.886  13.881
48000W        W20348   0.816  24.218   2.208
48001W        W20349  36.070   3.316   0.382
48002W        W20350   5.241   3.453   5.321
48003W        W20351  14.326   0.868   2.737
48004W        W20352  15.789  16.651  14.500
48005W        W20353  18.157  11.166  14.882
48006W        W20354  21.082  38.431  11.972
48007W        W20355   6.203  31.598   3.210
48008W        W20356  42.010  11.806   0.401
48009W        W20357  19.684  37.540   1.215
48010W        W20358  41.359  20.208   1.771
48011W        W20359   9.651  24.721  14.354
48012W        W20360   3.785  15.226   0.816
48013W        W20361   4.221  29.574   1.384
48014W        W20362   9.848  27.034  13.845
48015W        W20363  17.244  15.758   5.223
48016W        W20364  30.636  39.478   0.783
48017W        W20365  38.501  15.811  13.528
48018W        W20366  41.485   1.779   4.239
48019W        W20367  41.336  12.649  10.551
48020W        W20368  41.933  11.255   3.636
48021W        W20369  12.853  30.933  12.937
48022W        W20370  41.449  17.614   4.126
48023W        W20371   3.942  29.542  11.087
48024W        W20372   4.831  38.508  13.816
48025W        W20373  22.638  24.000  10.639
48026W        W20374  23.726  21.024   4.175
48027W        W20375  23.024   5.439  13.351
48028W        W20376  19.119  36.049  12.426
48029W        W20377   6.291  22.187  11.052
48030W        W20378  35.490  28.105  10.984
48031W        W20379  39.954   9.750   0.961
48032W        W20380  15.616  33.885  13.428
48033W        W20381  28.095   8.282   1.443
48034W        W20382  26.602  16.196   0.272
48035W        W20383   0.291  41.355   0.388
48036W        W20384  33.528   9.166   1.703
48037W        W20385  34.917  32.443  10.897
48038W        W20386   0.421  15.272  12.533
48039W        W20387  19.629  27.542  14.356
48040W        W20388  26.651  17.633   0.951
48041W        W20389  22.517  38.890   4.762
48042W        W20390   2.736  13.188  10.597
48043W        W20391   3.281  12.623   0.829
48044W        W20392  32.582  37.506   5.762
48045W        W20393   4.707  19.599  13.339
48046W        W20394  42.022  24.176  14.992
48047W        W20395  23.044  10.298   0.759
48048W        W20396   6.276  26.697   5.310
48049W        W20397   5.911  37.347   0.755
48050W        W20398  36.570  13.759   1.370
48051W        W20399  36.096  30.454   4.796
48052W        W20400   2.240  17.167   4.797
48053W        W20401   6.327  21.630  11.409
48054W        W20402  36.915   9.253  11.047
48055W        W20403   0.329  30.554  10.530
48056W        W20404  32.416  28.982  11.104
48057W        W20405  28.983  21.219   4.601
48058W        W20406  29.076  30.417   4.125
48059W        W20407   8.329  27.493  12.514
48060W        W20408   6.310  42.833  12.884
48061W        W20409  21.026  14.601   1.921
48062W        W20410  12.277   9.857   0.837
48063W        W20411  27.568  40.390  13.367
48064W        W20412  38.857  39.986  12.960
48065W        W20413   9.721  42.437  13.853
48066W        W20414  33.580   4.818  14.473
48067W        W20415  31.602  44.448   4.682
48068W        W20416   8.240   9.172   2.382
48069W        W20417   7.378  15.299   3.741
48070W        W20418  35.371   6.808   5.317
48071W        W20419  10.252  24.505   5.089
48072W        W20420  30.442   5.206   5.131
48073W        W20421  27.527   1.357  10.421
48074W        W20422  24.069  20.165   0.768
48075W        W20423   8.192   5.926  14.964
48076W        W20424  39.539  39.522   4.834
48077W        W20425  37.489  43.461   5.250
48078W        W20426  41.983   7.894  12.939
48079W        W20427  23.666  20.676  14.360
48080W        W20428  26.486  26.483  12.844
48081W        W20429  30.160  30.539  11.874
48082W        W20430  29.561  33.433   5.246
48083W        W20431  10.264  31.001  13.518
48084W        W20432  40.432  16.129   3.735
48085W        W20433  14.236  34.997   4.746
48086W        W20434  21.152  44.833  11.609
48087W        W20435   4.718  34.063   3.856
48088W        W20436  42.429  33.060   1.357
48089W        W20437  29.150  32.621   3.313
48090W        W20438  17.241  34.986   4.791
48091W        W20439  23.721  24.650   3.718
48092W        W20440  43.868   8.802   0.877
48093W        W20441  28.520  43.919  14.505
48094W        W20442  15.663   4.873   0.419
48095W        W20443   3.829  30.424  12.050
48096W        W20444   7.270  37.081  11.482
48097W        W20445  17.725  29.466   1.928
48098W        W20446  17.753  11.785   1.717
48099W        W20447  44.357  34.469   4.641
48100W        W20448  42.498  31.147  12.354
48101W        W20449   6.890  15.190   1.268
48102W        W20450  33.407  45.000   1.349
48103W        W20451  26.126  34.575   0.416
48104W        W20452  39.430  43.995   0.731
48105W        W20453  10.227   2.844   3.156
48106W        W20454  12.134  36.009  13.025
48107W        W20455  29.918  10.358  13.960
48108W        W20456  31.007  25.181   4.726
48109W        W20457  30.483  13.678  12.379
48110W        W20458  32.482  29.992  11.871
48111W        W20459  22.157  29.105   2.377
48112W        W20460  16.689  38.473   3.256
48113W        W20461   3.348  30.143  12.080
48114W        W20462  28.940  31.936  10.640
48115W        W20463  19.055   5.392   1.817
48116W        W20464   4.362  29.655   2.232
48117W        W20465  23.171  37.555   0.316
48118W        W20466  34.517  28.602  12.379
48119W        W20467  21.655  34.047   0.778
48120W        W20468  19.263   7.286   3.313
48121W        W20469  12.202  16.719   3.377
48122W        W20470  25.050   5.752  11.436
48123W        W20471  21.152  11.130  14.499
48124W        W20472  12.782  28.963  12.422
48125W        W20473  26.113  24.054   4.162
48126W        W20474  26.509   3.865  13.491
48127W        W20475  22.064  20.663  13.493
48128W        W20476   3.921  19.618  10.640
48129W        W20477  39.880  44.435  12.913
48130W        W20478  38.828  22.068  14.870
48131W        W20479  24.646   2.265   1.895
48132W        W20480  15.668  23.066  14.345
48133W        W20481  42.436  27.457  14.958
48134W        W20482  23.534  36.038  13.812
48135W        W20483  44.422   6.357  14.985
48136W        W20484  40.342  12.815   3.776
48137W        W20485   8.692  33.123  11.547
48138W        W20486  43.283  43.411  12.433
48139W        W20487  44.970  24.643  12.533
48140W        W20488   6.788  36.524   1.808
48141W        W20489  38.066  15.119  12.835
48142W        W20490  33.048  19.109  13.383
48143W        W20491  22.642  27.612   0.360
48144W        W20492  26.647  23.563   4.349
48145W        W20493  18.289  27.055  12.451
48146W        W20494  31.486  23.683   2.247
48147W        W20495  24.574  41.891  14.026
48148W        W20496   4.254  42.954   4.693
48149W        W20497  44.347  19.138  10.996
48150W        W20498  30.493  17.683   0.411
48151W        W20499  34.876  37.840  14.782
48152W        W20500  12.736  40.963  12.539
48153W        W20501  22.996  44.971   3.691
48154W        W20502   8.658   1.427  12.850
48155W        W20503  23.108   7.678   0.428
48156W        W20504   1.919  26.539  14.383
48157W        W20505  33.093   4.380  13.820
48158W        W20506  22.532   2.413  11.889
48159W        W20507  17.623   6.845   2.238
48160W        W20508  40.838  44.962   4.734
48161W        W20509  24.640  20.591  11.087
48162W        W20510   0.824  11.183  11.447
48163W        W20511  30.028  26.177  10.564
48164W        W20512  20.148  29.615   0.276
48165W        W20513  43.315  17.079   0.323
48166W        W20514  39.816  41.803   0.341
48167W        W20515  40.357  35.454   4.345
48168W        W20516  30.026  15.317  11.886
48169W        W20517   6.694  29.429  14.761
48170W        W20518  29.454  32.996   4.278
48171W        W20519  32.079  21.690  12.522
48172W        W20520   6.693  36.427  13.038
48173W        W20521  14.226  39.995  14.442
48174W        W20522   6.895   4.396  11.069
48175W        W20523  11.332  35.039  13.964
48176W        W20524  43.913  43.806   1.251
48177W        W20525  30.501  40.504  12.844
48178W        W20526  20.142   8.691   2.184
48179W        W20527  39.911  27.446  11.574
48180W        W20528   7.182  44.307  11.022
48181W        W20529  17.185  36.977  11.377
48182W        W20530   3.883  38.571   2.402
48183W        W20531  14.282  14.678  11.491
48184W        W20532  14.681  17.252   1.894
48185W        W20533   1.441  32.604   2.390
48186W        W20534   3.230  19.040   4.821
48187W        W20535  15.116  19.050   3.691
48188W        W20536  36.925  17.606  12.538
48189W        W20537  43.838  18.668  11.602
48190W        W20538  12.848  37.552   2.761
48191W        W20539  33.119  12.806   4.625
48192W        W20540  16.792  39.399   2.865
48193W        W20541  34.006  13.634  13.377
48194W        W20542  40.836   8.798   0.954
48195W        W20543  10.788   1.767   5.263
48196W        W20544  43.411  21.626  14.772
48197W        W20545   5.847  44.824   3.339
48198W        W20546  28.030  30.141   2.246
48199W        W20547  43.380  29.586  12.491
48200W        W20548  37.460  19.768   3.319
48201W        W20549  22.159  10.860  11.889
48202W        W20550  41.374  25.535  13.385
48203W        W20551  40.014  17.140  13.044
48204W        W20552  14.258  11.770   2.301
48205W        W20553  44.302   7.688   1.737
48206W        W20554   0.954  41.861  13.988
48207W        W20555   2.917  28.102   3.828
48208W        W20556  16.310  12.319   0.849
48209W        W20557   3.242  17.258  13.956
48210W        W20558  25.063  33.405  14.312
48211W        W20559   7.839   4.274  14.779
48212W        W20560  13.144  44.834  14.293
48213W        W20561  30.561  27.634   4.201
48214W        W20562  27.675  18.118  14.819
48215W        W20563  36.915  10.648  13.996
48216W        W20564  39.326  40.020   1.724
48217W        W20565  42.301  23.536  13.418
48218W        W20566  27.186  41.480   5.320
48219W        W20567   5.314  22.119  13.997
48220W        W20568  20.166   6.845  11.019
48221W        W20569  23.550  32.458  13.327
48222W        W20570  35.398  10.230  14.387
48223W        W20571   3.804   7.766  14.003
48224W        W20572  25.698  21.148  13.044
48225W        W20573   0.393  31.958   1.749
48226W        W20574  43.880   0.824  10.463
48227W        W20575  38.850  20.105  13.815
48228W        W20576  14.740  30.550   3.691
48229W        W20577  16.129  26.122   2.691
48230W        W20578  18.121   8.301   3.214
48231W        W20579  40.802  11.781  14.773
48232W        W20580  42.821  19.712   1.821
48233W        W20581  34.971  25.624  13.941
48234W        W20582  15.173  10.215  12.097
48235W        W20583  29.023  35.394   0.794
48236W        W20584  38.874  44.382  10.555
48237W        W20585  24.209   6.714   4.233
48238W        W20586  26.577  24.077   0.269
48239W        W20587   0.969  28.010  14.404
48240W        W20588   3.393  15.695  14.956
48241W        W20589  36.095  40.993   4.730
48242W        W20590  44.974   9.191  11.506
48243W        W20591   5.374  17.582  13.027
48244W        W20592   3.251  39.536  11.440
48245W        W20593  39.447  23.236   1.361
48246W        W20594   7.666  10.327  14.781
48247W        W20595  39.922  13.330  13.951
48248W        W20596  44.362  42.794   3.848
48249W        W20597  26.048  42.342  13.930
48250W        W20598   2.782   2.869   3.866
48251W        W20599  16.153  41.909  14.440
48252W        W20600  42.385  43.508  10.901
48253W        W20601   3.299   3.832  11.999
48254W        W20602  25.539  37.426   0.368
48255W        W20603  31.069  12.307  14.832
48256W        W20604  32.115  13.213  12.527
48257W        W20605  33.425   7.346  10.495
48258W        W20606  39.450  20.644   4.261
48259W        W20607  15.651  31.968  10.072
48260W        W20608   3.371   7.280   2.829
48261W        W20609  10.762  25.170   2.726
48262W        W20610  43.780  19.105  11.549
48263W        W20611  37.569   3.425   0.433
48264W        W20612  12.793  34.389  14.400
48265W        W20613  13.709  23.693  13.997
48266W        W20614  17.683  38.836  12.015
48267W        W20615   0.859  30.143   0.272
48268W        W20616   3.796  34.019   0.782
48269W        W20617  30.971  42.874  11.953
48270W        W20618  38.880  11.366  10.136
48271W        W20619  20.704  36.883  12.845
48272W        W20620  34.923   4.293  11.095
48273W        W20621   1.252  35.070  13.833
48274W        W20622   8.341  39.473  13.834
48275W        W20623  27.085  31.578  10.973
48276W        W20624  13.258  38.360   2.810
48277W        W20625  14.682  35.044   0.450
48278W        W20626  28.943  41.319   4.296
48279W        W20627  25.062  38.004  13.468
48280W        W20628  26.518  26.637  13.429
48281W        W20629  44.494   9.253  14.298
48282W        W20630  18.242  25.112   2.336
48283W        W20631  39.006  44.757   4.619
48284W        W20632  14.313  23.515  13.901
48285W        W20633  27.944   0.392  13.034
48286W        W20634  43.308  11.625  13.464
48287W        W20635  30.029   5.783   0.274
48288W        W20636  35.926  39.017   2.361
48289W        W20637  40.006  18.694  12.424
48290W        W20638  44.454  44.450  12.415
48291W        W20639  16.262  31.111   4.708
48292W        W20640  27.461  43.814  13.493
48293W        W20641   7.200  17.773  11.989
48294W        W20642  12.288  43.377  12.360
48295W        W20643  20.716  35.013   2.272
48296W        W20644  10.872  17.248   0.319
48297W        W20645  44.926  16.609  12.553
48298W        W20646  25.108  38.508   2.793
48299W        W20647  32.568   5.877  12.381
48300W        W20648  31.406  36.971  14.013
48301W        W20649  14.222  17.141  14.481
48302W        W20650  31.525  27.626  11.055
48303W        W20651  14.271  18.175  11.535
48304W        W20652   2.852  20.761   0.339
48305W        W20653  28.945  38.463  12.931
48306W        W20654  31.475  43.948   1.392
48307W        W20655  28.454  40.495  10.966
48308W        W20656   4.763  14.288   0.342
48309W        W20657  20.067  33.014  11.878
48310W        W20658  18.198  40.947   2.233
48311W        W20659  23.227  28.447  14.000
48312W        W20660  42.818  18.250   1.862
48313W        W20661   4.216  36.918  13.348
48314W        W20662  38.925  11.160  10.633
48315W        W20663  17.133   1.801   2.710
48316W        W20664   8.258  17.254  12.416
48317W        W20665  15.312  24.175   0.919
48318W        W20666  21.684  25.218   3.241
48319W        W20667  35.430  27.162   0.273
48320W        W20668  23.525  12.145  11.992
48321W        W20669  44.973  42.378  12.887
48322W        W20670  14.129  37.444  13.838
48323W        W20671  14.304  14.231  10.550
48324W        W20672   6.245  31.917   9.590
48325W        W20673  30.116   7.754  13.934
48326W        W20674  14.272  14.659   1.837
48327W        W20675  16.803  37.477  11.390
48328W        W20676  10.372   3.866  14.451
48329W        W20677   5.717  21.686   1.890
48330W        W20678   2.255  43.802   4.763
48331W        W20679  33.542   5.393  13.806
48332W        W20680   1.910  28.150  12.441
48333W        W20681  24.681   5.215  11.419
48334W        W20682   2.770  36.081  13.917
48335W        W20683  31.647   0.492   4.651
48336W        W20684  12.183  20.602   1.807
48337W        W20685  23.237  20.144   0.937
48338W        W20686   6.854   5.266  13.877
48339W        W20687  13.693  13.285   2.854
48340W        W20688  31.485   1.424   4.627
48341W        W20689  19.649  18.060   0.451
48342W        W20690   5.359  38.551   4.340
48343W        W20691  10.325   8.759   1.773
48344W        W20692  24.720  41.416  14.383
48345W        W20693  42.480   3.376  13.536
48346W        W20694  25.113  15.581   1.805
48347W        W20695  44.894  13.247  13.480
48348W        W20696   4.815  17.641   4.791
48349W        W20697  41.824  35.871  11.958
48350W        W20698  24.638  39.454  11.433
48351W        W20699  23.124  14.128  11.510
48352W        W20700   6.331  29.639   3.747
48353W        W20701  26.977  18.791  14.385
48354W        W20702  29.494  14.642   2.779
48355W        W20703  26.563  17.066  12.823
48356W        W20704  32.039  36.061  14.993
48357W        W20705   0.309   9.803  10.594
48358W        W20706  34.937  43.301   4.199
48359W        W20707  30.073  21.535  11.384
48360W        W20708  35.388   4.377  11.066
48361W        W20709   0.758  19.568   5.183
48362W        W20710   7.856  39.361   1.825
48363W        W20711   3.409  11.162  11.542
48364W        W20712  34.872   9.185  13.368
48365W        W20713  30.433  42.793   4.260
48366W        W20714  41.505   1.790   1.912
48367W        W20715  19.152  25.479  10.426
48368W        W20716  36.510  37.505  12.880
48369W        W20717  12.137  33.508  14.002
48370W        W20718  31.069  42.795  14.292
48371W        W20719   1.882  39.432  12.449
48372W        W20720  28.116   9.205   0.442
48373W        W20721  14.170   1.311  14.435
48374W        W20722   4.216  21.627   2.266
48375W        W20723  36.867  12.132  12.513
48376W        W20724   8.791  39.935  10.573
48377W        W20725  37.933  16.147  13.467
48378W        W20726  11.765   6.700   1.442
48379W        W20727  32.027   5.897  12.859
48380W        W20728  11.797  33.947  14.828
48381W        W20729  21.686  24.176  11.012
48382W        W20730  30.002  28.978  13.456
48383W        W20731  13.658  15.711  13.483
48384W        W20732   7.806  26.572   1.367
48385W        W20733   9.804   9.779  12.570
48386W        W20734  13.728  38.381  11.581
48387W        W20735  28.064  33.383  12.422
48388W        W20736  42.816  18.275  14.761
48389W        W20737  26.156  27.619  12.927
48390W        W20738   9.163   0.299   0.420
48391W        W20739   2.881  30.082   4.172
48392W        W20740  25.594  21.048  13.459
48393W        W20741  32.981  33.111  12.873
48394W        W20742  25.639  29.098  14.925
48395W        W20743  40.364  35.564  12.514
48396W        W20744  34.404  37.535  11.001
48397W        W20745   1.302  39.536   2.878
48398W        W20746  27.145  42.448  13.952
48399W        W20747   0.800  31.511   0.846
48400W        W20748  25.140  13.801   0.772
48401W        W20749  15.584   7.224   1.882
48402W        W20750  20.144   2.274   0.820
48403W        W20751  17.211  35.060  13.920
48404W        W20752   4.920  30.081  12.027
48405W        W20753  11.346  35.963  11.383
48406W        W20754  13.785  32.121  11.425
48407W        W20755   6.776  24.635   0.963
48408W        W20756  37.499  30.073   3.265
48409W        W20757  38.934  17.742  11.125
48410W        W20758  40.810  30.511  13.444
48411W        W20759   8.892   5.796  11.952
48412W        W20760   2.945  15.805   0.811
48413W        W20761  18.714  22.128   0.917
48414W        W20762  19.224   7.671  10.581
48415W        W20763  35.081   8.326  13.894
48416W        W20764   1.291  28.944  14.329
48417W        W20765  38.438  11.710   0.752
48418W        W20766  39.922  19.125  13.426
48419W        W20767   0.343  21.166  14.808
48420W        W20768  40.042  24.076  14.290
48421W        W20769   5.724  21.628   1.367
48422W        W20770  29.118  10.248   1.286
48423W        W20771  18.273  27.686   2.218
48424W        W20772  13.296  22.168   3.693
48425W        W20773  38.866   4.778  10.434
48426W        W20774  17.214   8.782  13.421
48427W        W20775  12.213  23.188   4.678
48428W        W20776  40.812  41.853   1.792
48429W        W20777   7.210   7.727   1.290
48430W        W20778  28.003   9.753   1.287
48431W        W20779   9.311  40.445   0.286
48432W        W20780  15.097  16.196  12.049
48433W        W20781  13.111   2.416   3.639
48434W        W20782  40.858   8.725   2.225
48435W        W20783  39.826  29.993   0.856
48436W        W20784  24.124  19.706  10.532
48437W        W20785  10.301  44.909   1.870
48438W        W20786  29.503  18.664   3.658
48439W        W20787  11.155  21.215  10.617
48440W        W20788  23.067  33.964  13.546
48441W        W20789  43.815  36.007  13.529
48442W        W20790  28.620   3.852   4.283
48443W        W20791  16.262   4.297   3.290
48444W        W20792  44.925  19.183   2.843
48445W        W20793  37.513  23.996   0.848
48446W        W20794  32.425   7.878  14.294
48447W        W20795  13.622  34.067   1.235
48448W        W20796  11.313   2.340  11.882
48449W        W20797  37.903  29.119   3.305
48450W        W20798  23.608   1.843  12.032
48451W        W20799   6.815  20.260  12.830
48452W        W20800  39.915  13.725  13.003
48453W        W20801  21.657  40.335   1.736
48454W        W20802  16.230  38.076  11.381
48455W        W20803  39.371  43.379  11.408
48456W        W20804   0.297  19.573  11.524
48457W        W20805   6.782  34.609  12.424
48458W        W20806  16.723  27.524  10.613
48459W        W20807   7.782  14.171   1.858
48460W        W20808  21.673  12.201  14.970
48461W        W20809  42.790  30.598   3.275
48462W        W20810  42.959   7.698   2.820
48463W        W20811  23.126  33.488   4.314
48464W        W20812  28.129   8.815   1.442
48465W        W20813  32.624  27.998  10.635
48466W        W20814  37.447  37.857  13.350
48467W        W20815  26.498  43.890  12.352
48468W        W20816  25.517   7.820  10.930
48469W        W20817  19.674  14.149  13.957
48470W        W20818   3.711  25.173   1.342
48471W        W20819  33.964  33.960  12.838
48472W        W20820  29.431  36.050   5.107
48473W        W20821  33.382  28.552  13.828
48474W        W20822  26.168  36.450   3.146
48475W        W20823  31.122  37.036   4.642
48476W        W20824  21.720   4.879   1.721
48477W        W20825  18.243  11.323   1.890
48478W        W20826  27.024  14.305   1.878
48479W        W20827  23.610  37.390   0.443
48480W        W20828  11.232   9.203  14.017
48481W        W20829   2.728  29.429  11.016
48482W        W20830   6.873  34.049   0.772
48483W        W20831  29.108  40.317   4.610
48484W        W20832  15.165  14.285   4.791
48485W        W20833  25.492   4.217   0.377
48486W        W20834  23.725  30.521  12.865
48487W        W20835  28.631  21.578   2.883
48488W        W20836   5.324  24.556  11.405
48489W        W20837  31.545  14.725   3.666
48490W        W20838  23.512  39.410  11.013
48491W        W20839   5.917   8.308  10.511
48492W        W20840  33.909  26.027  11.901
48493W        W20841   2.955  15.736   4.599
48494W        W20842  12.634  29.999   0.906
48495W        W20843  30.580  31.108   0.324
48496W        W20844  22.135  13.817   3.842
48497W        W20845  36.937  27.562  11.548
48498W        W20846  29.042  21.145  12.092
48499W        W20847  39.432  23.610   0.765
48500W        W20848  19.537  20.740  14.759
48501W        W20849  29.431  17.284   1.234
48502W        W20850  43.921  31.555  13.454
48503W        W20851   5.710  10.334   4.179
48504W        W20852   9.817   8.667  14.925
48505W        W20853  37.081   4.315   3.632
48506W        W20854  11.329  43.786  14.326
48507W        W20855  38.370  35.578   3.306
48508W        W20856  37.872  11.671   1.342
48509W        W20857   6.859   8.784   2.825
48510W        W20858  12.339  32.105  14.308
48511W        W20859  38.386  43.938  12.384
48512W        W20860   2.792  32.009   2.365
48513W        W20861  19.162  18.714  13.463
48514W        W20862   0.822  25.163  11.496
48515W        W20863  18.180  22.517  13.824
48516W        W20864  13.159  24.108  14.503
48517W        W20865  41.961  40.387  14.425
48518W        W20866  10.336   9.677   0.822
48519W        W20867  19.596  27.947  12.892
48520W        W20868  24.575  11.225   4.695
48521W        W20869  31.589  16.077   4.280
48522W        W20870  38.920   7.180   4.634
48523W        W20871   6.687  33.036   2.289
48524W        W20872   3.373  44.476   0.934
48525W        W20873  31.443  12.268  13.395
48526W        W20874   2.930  33.621  12.021
48527W        W20875  11.211  16.175  14.763
48528W        W20876   2.468  19.652   3.174
48529W        W20877  23.603  32.409  10.475
48530W        W20878  34.392  14.158  13.820
48531W        W20879  41.373  36.512   2.891
48532W        W20880  26.653  16.081  12.036
48533W        W20881  36.588  35.493  10.418
48534W        W20882   2.305   8.725   4.611
48535W        W20883  44.448  16.627   3.829
48536W        W20884  23.600   3.862  14.347
48537W        W20885  17.568  39.338   4.600
48538W        W20886  11.841  25.014   2.766
48539W        W20887   4.257  16.185   2.793
48540W        W20888  19.712  11.257   4.208
48541W        W20889  19.094  38.429  10.591
48542W        W20890  35.403  38.064  11.551
48543W        W20891  40.944  37.493  14.878
48544W        W20892  26.529  18.156  11.490
48545W        W20893  11.852  30.505  13.901
48546W        W20894   2.236   0.466   2.206
48547W        W20895  26.954  25.972   3.791
48548W        W20896   1.412  28.519   0.328
48549W        W20897  25.010  30.430  13.838
48550W        W20898   0.975  16.237  13.362
48551W        W20899  11.771   0.804   1.431
48552W        W20900  17.142  29.051  14.887
48553W        W20901  35.940  29.646   5.161
48554W        W20902  35.868   0.364  14.840
48555W        W20903  29.438  30.118   4.637
48556W        W20904  40.469  42.501  13.035
48557W        W20905  12.321  26.645  12.889
48558W        W20906   5.211  24.010  10.502
48559W        W20907   5.412  34.544   1.888
48560W        W20908  35.965  25.112  13.529
48561W        W20909  30.524  32.500   0.281
48562W        W20910  23.538  24.703  12.827
48563W        W20911  28.983  12.308   3.384
48564W        W20912   0.776   3.403  11.873
48565W        W20913  17.770   9.679   2.840
48566W        W20914   1.261  38.440   2.217
48567W        W20915  27.131   1.351  13.527
48568W        W20916  38.824  12.154   2.354
48569W        W20917  20.272  30.074   3.676
48570W        W20918  11.340  34.608  14.891
48571W        W20919  15.311  16.294   0.942
48572W        W20920  14.788  22.221  10.422
48573W        W20921  32.444  24.655   2.775
48574W        W20922  33.395  41.792  14.478
48575W        W20923  14.288  33.479   2.786
48576W        W20924  43.467  12.318  13.963
48577W        W20925   5.865  31.010   0.896
48578W        W20926  21.081  27.995   0.890
48579W        W20927  30.566  29.505   3.376
48580W        W20928   2.825  29.024  13.515
48581W        W20929  28.069  27.009  14.321
48582W        W20930   3.319  24.633  12.531
48583W        W20931  36.004  31.634  10.986
48584W        W20932  37.487  35.374   0.867
48585W        W20933   0.793  34.920   1.358
48586W        W20934   4.819  30.969  14.308
48587W        W20935  38.859   4.845   0.429
48588W        W20936  14.237  44.782  11.419
48589W        W20937  17.639  28.958  11.012
48590W        W20938  35.527   5.797  14.493
48591W        W20939  44.821  14.127   4.647
48592W        W20940  27.493  43.345   0.431
48593W        W20941  39.840   6.848  12.093
48594W        W20942   3.915  25.123   0.270
48595W        W20943  11.642  42.906   5.160
48596W        W20944   4.270   5.341  14.396
48597W        W20945  40.950   5.214  11.936
48598W        W20946   7.367  44.401  13.436
48599W        W20947  25.670  21.224  14.457
48600W        W20948  37.450  39.898  10.014
48601W        W20949  13.315   9.195  11.975
48602W        W20950  40.984  31.914   1.275
48603W        W20951  21.568  10.315  11.014
48604W        W20952  36.504  37.959   4.311
48605W        W20953   0.747  26.492   3.769
48606W        W20954  27.069  37.905   4.662
48607W        W20955   5.207  44.928  11.953
48608W        W20956  34.605  10.282  11.882
48609W        W20957   6.295  10.314   5.169
48610W        W20958   6.768   4.901  13.319
48611W        W20959   6.702  26.172   1.857
48612W        W20960  31.141  11.371  12.506
48613W        W20961   2.956   3.373  11.960
48614W        W20962  40.411  38.980  13.918
48615W        W20963  43.989  13.273   0.314
48616W        W20964  22.187   3.813  11.096
48617W        W20965   6.400   8.737   3.283
48618W        W20966   9.869  29.430   0.257
48619W        W20967  26.097  36.989  10.613
48620W        W20968  36.538  36.023   3.775
48621W        W20969  39.364  13.832   0.353
48622W        W20970  39.500  30.049   1.238
48623W        W20971  18.130  16.744   3.340
48624W        W20972  31.632  21.101   5.171
48625W        W20973   7.198  34.936  13.521
48626W        W20974   5.840   5.876   3.331
48627W        W20975  37.434  33.456  12.066
48628W        W20976  18.745   2.237   1.871
48629W        W20977   3.953   5.762  11.969
48630W        W20978  25.061  30.917   4.665
48631W        W20979  27.982  24.479   4.246
48632W        W20980  18.134   4.921   1.934
48633W        W20981   5.198  10.341  11.611
48634W        W20982   9.795  23.071   1.901
48635W        W20983  30.559  19.614  13.484
48636W        W20984  36.525  25.006  14.831
48637W        W20985   7.713  25.530  14.334
48638W        W20986  21.592  16.632   4.693
48639W        W20987  28.620   8.847  12.405
48640W        W20988  12.686  13.332   2.845
48641W        W20989  18.282  27.990   4.764
48642W        W20990  11.658  39.872   0.294
48643W        W20991  32.054  24.681   1.704
48644W        W20992  33.611  12.197   4.128
48645W        W20993   7.349  15.638  12.428
48646W        W20994  12.340  25.191  13.999
48647W        W20995  44.399  40.889  13.421
48648W        W20996  11.830   3.807   1.347
48649W        W20997   5.307  40.443   1.878
48650W        W20998  11.857   3.380  13.397
48651W        W20999  16.622  20.081   2.232
48652W        W21000  12.840  10.162   4.829
48653W        W21001  17.625  11.142   3.146
48654W        W21002   0.462  31.033  12.041
48655W        W21003   1.439  21.206   2.349
48656W        W21004  32.026  14.120   5.178
48657W        W21005  15.667  24.523  14.397
48658W        W21006  41.336   7.407  10.556
48659W        W21007  32.507  27.948  11.892
48660W        W21008   7.344  34.408   2.291
48661W        W21009  13.792  41.422  11.033
48662W        W21010  16.196  24.570  10.536
48663W        W21011  37.963  42.428   4.261
48664W        W21012  27.012  41.320  12.023
48665W        W21013  41.998  40.540  13.309
48666W        W21014   6.309  40.461   3.636
48667W        W21015  27.555  20.059  11.439
48668W        W21016  27.131  11.640  14.791
48669W        W21017  24.038  11.256   0.880
48670W        W21018  27.128  10.357  14.983
48671W        W21019  10.781  25.537   3.744
48672W        W21020  31.477  44.939   0.888
48673W        W21021   0.420  37.050   1.902
48674W        W21022  32.492  34.020  12.839
48675W        W21023  19.099  13.131  10.437
48676W        W21024  40.485  35.910  12.369
48677W        W21025   6.291   5.425  13.990
48678W        W21026  17.082  28.564   2.395
48679W        W21027  34.449  17.101   3.225
48680W        W21028  28.955  13.656   3.178
48681W        W21029   5.300  32.566   0.798
48682W        W21030  31.041  12.331  11.548
48683W        W21031  22.607  32.540   0.281
48684W        W21032  36.572  25.474  10.450
48685W        W21033  29.663  14.144   0.838
48686W        W21034  18.673  10.679  14.452
48687W        W21035  37.360  13.778  14.821
48688W        W21036   1.899   4.907   1.786
48689W        W21037  10.744   1.246   4.158
48690W        W21038  33.460  30.574   3.709
48691W        W21039  43.927  40.971   1.431
48692W        W21040  26.050  11.688   1.858
48693W        W21041   7.288   8.167  10.995
48694W        W21042  17.754  26.557   2.829
48695W        W21043   1.481  11.837  14.006
48696W        W21044   1.318  41.498   4.644
48697W        W21045  37.476  41.003  12.907
48698W        W21046  18.596   1.885  11.396
48699W        W21047  15.643  13.343  11.528
48700W        W21048  25.116  31.971  11.948
48701W        W21049  25.188  35.959  13.949
48702W        W21050  34.077  11.370  11.473
48703W        W21051   2.926  44.781  13.943
48704W        W21052   2.959  27.592   2.734
48705W        W21053  32.559  34.582  12.078
48706W        W21054  21.700  35.093  10.541
48707W        W21055  21.215  18.122   5.105
48708W        W21056  26.203  40.307  10.989
48709W        W21057   2.821  15.758   4.323
48710W        W21058  31.990   6.415   3.863
48711W        W21059  24.185  10.200   3.685
48712W        W21060  25.607  26.205   1.233
48713W        W21061  28.009  25.652   3.677
48714W        W21062  18.659  38.328   4.618
48715W        W21063  43.424  40.412  12.091
48716W        W21064  30.151  18.715  12.545
48717W        W21065   1.822   5.264   1.300
48718W        W21066  24.175  37.974   0.359
48719W        W21067  43.417  12.182  11.420
48720W        W21068  23.998  43.360  14.356
48721W        W21069  26.558  43.771   0.851
48722W        W21070  19.602   5.799   2.718
48723W        W21071  16.665  14.793   1.834
48724W        W21072   4.878  16.676  12.360
48725W        W21073  36.436  35.868   4.264
48726W        W21074  19.191  23.732   2.212
48727W        W21075  39.886   8.769  13.430
48728W        W21076  17.113  21.746  14.938
48729W        W21077   8.341  28.661  12.832
48730W        W21078  31.434   0.347   3.300
48731W        W21079   8.163  41.459  10.639
48732W        W21080  18.146   5.329   4.206
48733W        W21081  22.509  16.264  11.968
48734W        W21082  15.613   8.238   5.295
48735W        W21083   9.196  31.415   0.894
48736W        W21084  16.155  35.894  11.529
48737W        W21085  34.117   7.326   3.373
48738W        W21086  20.228   9.361  10.597
48739W        W21087   4.870  22.025   2.832
48740W        W21088  10.229  15.750   2.396
48741W        W21089  29.603  31.135  11.935
48742W        W21090  37.579  36.952  13.502
48743W        W21091   4.385  39.050  11.027
48744W        W21092  10.873   0.890  12.491
48745W        W21093  25.119  25.112  10.515
48746W        W21094  41.368  25.509  10.888
48747W        W21095   6.286  30.077  12.948
48748W        W21096   0.816  19.049   1.895
48749W        W21097  13.129   3.235   2.723
48750W        W21098  42.322   2.432   3.763
48751W        W21099  12.722  21.236   4.284
48752W        W21100  33.579  35.043   0.434
48753W        W21101  39.494  21.574   1.234
48754W        W21102  11.673  20.578   4.222
48755W        W21103  11.792  39.912   0.855
48756W        W21104  27.616  44.338   2.788
48757W        W21105  31.075   1.269  13.043
48758W        W21106   6.686  43.309  13.034
48759W        W21107  23.563  10.654   2.196
48760W        W21108  29.090  34.558  12.895
48761W        W21109  31.633  25.488  10.964
48762W        W21110  27.115  40.913  10.967
48763W        W21111  42.510  13.813  12.043
48764W        W21112  32.559   2.767  14.495
48765W        W21113  25.139   3.235  13.964
48766W        W21114  24.710  27.478   4.258
48767W        W21115  29.519  24.171  12.993
48768W        W21116  35.898   7.373   2.321
48769W        W21117  24.584  26.615  11.872
48770W        W21118  15.278  18.128   3.676
48771W        W21119  41.321  39.961   4.621
48772W        W21120  19.080  33.553  13.537
48773W        W21121  39.553  29.476  12.460
48774W        W21122   7.326   8.893   3.832
48775W        W21123  38.351  33.119  13.545
48776W        W21124  39.455  35.453  12.478
48777W        W21125   8.293  39.412  10.889
48778W        W21126   7.259  31.565  10.488
48779W        W21127  15.746  22.525  12.001
48780W        W21128  18.593  17.572   3.322
48781W        W21129  10.857  20.546   5.202
48782W        W21130  30.073   1.313  14.323
48783W        W21131  10.233  34.090  13.494
48784W        W21132   3.857  11.649   4.210
48785W        W21133  15.647  16.702  12.855
48786W        W21134  26.970  36.002  14.850
48787W        W21135  26.974  21.262  13.918
48788W        W21136  23.683  43.270  10.510
48789W        W21137  16.095  14.123  11.075
48790W        W21138  31.416  35.980   4.288
48791W        W21139  38.487  37.895  14.790
48792W        W21140   3.767  10.739   4.683
48793W        W21141  10.835  28.970   5.295
48794W        W21142  32.916  22.599  12.869
48795W        W21143   4.265  28.662   4.228
48796W        W21144   7.732  10.138  11.432
48797W        W21145  37.982  20.565   9.445
48798W        W21146  25.075  36.408  12.385
48799W        W21147   0.891  27.107  14.840
48800W        W21148  23.028  13.714   4.234
48801W        W21149  11.717  26.581  13.974
48802W        W21150  18.163   8.196   3.736
48803W        W21151  31.997  22.996   4.632
48804W        W21152   8.829  22.029   0.785
48805W        W21153  13.107  10.377   0.454
48806W        W21154  20.110  30.938   0.841
48807W        W21155   0.407   9.320  12.857
48808W        W21156  38.375  41.991  11.049
48809W        W21157   7.393  33.971  13.332
48810W        W21158  16.691  23.518   1.894
48811W        W21159  19.258  14.198  12.069
48812W        W21160  10.380  32.429   1.318
48813W        W21161  14.716  35.993   1.918
48814W        W21162   2.439  34.887   9.929
48815W        W21163  20.696  20.703  13.952
48816W        W21164  36.485  22.551  13.458
48817W        W21165  40.022  37.344  12.061
48818W        W21166  24.621   5.784  14.775
48819W        W21167   9.238  23.687   4.791
48820W        W21168   9.386  20.176   5.184
48821W        W21169  25.972  42.909  12.031
48822W        W21170  17.178  28.174   4.220
48823W        W21171  14.139  31.462  10.469
48824W        W21172  41.447  39.920   0.410
48825W        W21173  27.966  26.544   0.468
48826W        W21174  17.602   8.286  10.601
48827W        W21175  42.845  39.331  14.763
48828W        W21176  15.303   4.870   3.771
48829W        W21177   8.311   3.784  11.920
48830W        W21178   1.800  38.550   3.784
48831W        W21179  33.546  27.620  14.850
48832W        W21180  40.367  23.095   3.637
48833W        W21181   6.883  26.963  12.852
48834W        W21182  17.263  33.881   4.113
48835W        W21183  11.150   9.391   4.263
48836W        W21184  15.104  15.761  11.484
48837W        W21185  27.493  25.495  11.424
48838W        W21186   5.807  14.710   2.352
48839W        W21187   4.444  19.181  13.403
48840W        W21188  33.098  11.714  13.011
48841W        W21189  24.159  34.606  12.854
48842W        W21190  16.245  11.821   4.195
48843W        W21191  17.627  16.150  13.509
48844W        W21192  22.583  38.430   0.854
48845W        W21193   7.231   8.349  10.411
48846W        W21194  17.219  44.503  14.948
48847W        W21195  37.479   3.881   3.744
48848W        W21196  24.573   7.762   2.306
48849W        W21197  37.443  11.676   5.248
48850W        W21198  43.837  34.459  10.628
48851W        W21199  24.676  16.687  14.799
48852W        W21200  33.515   3.269  12.556
48853W        W21201  24.533  29.920  13.867
48854W        W21202  27.194   4.882   2.698
48855W        W21203  11.290   3.354   0.440
48856W        W21204  10.260   2.278  12.990
48857W        W21205  17.578  43.869  13.043
48858W        W21206  36.096  36.489  13.404
48859W        W21207  44.909   4.740  14.320
48860W        W21208  30.445  40.345  10.898
48861W        W21209  15.629  23.544   4.169
48862W        W21210  29.052  14.757  13.923
48863W        W21211  18.599  20.635   2.415
48864W        W21212  22.600  15.816   1.244
48865W        W21213   7.727  35.500  11.562
48866W        W21214  26.072   4.840  12.034
48867W        W21215  16.714  18.732   3.184
48868W        W21216  19.239  33.517   4.299
48869W        W21217  12.140  14.240   3.384
48870W        W21218  17.229  43.814   3.858
48871W        W21219  15.818  44.976  10.916
48872W        W21220  36.862   4.362   3.358
48873W        W21221  19.712   7.362  14.333
48874W        W21222  18.118  37.948  11.096
48875W        W21223  22.506  31.452  11.468
48876W        W21224   2.763   5.412  10.451
48877W        W21225  41.944  16.128  11.447
48878W        W21226  26.957  16.138   3.380
48879W        W21227  20.684  26.973  14.793
48880W        W21228  43.340  17.119  13.445
48881W        W21229  42.017  19.077   3.254
48882W        W21230  18.230  37.417   4.270
48883W        W21231  19.559  42.297   4.201
48884W        W21232  22.577   9.885  13.961
48885W        W21233  16.713  27.033  11.407
48886W        W21234   8.725  13.289   0.904
48887W        W21235  16.291  11.203  12.519
48888W        W21236   3.721  21.671  12.089
48889W        W21237  42.523   7.778  12.882
48890W        W21238  26.187  29.171  12.954
48891W        W21239  12.327  22.036   0.763
48892W        W21240  43.480  31.997  13.543
48893W        W21241  25.142   4.719   2.309
48894W        W21242   7.176  20.580  13.926
48895W        W21243  12.790  27.133   1.902
48896W        W21244  21.099  16.161  12.049
48897W        W21245   6.920  27.023  11.901
48898W        W21246   4.709  16.198   5.163
48899W        W21247  23.047  29.976   0.350
48900W        W21248   8.837  35.577   4.150
48901W        W21249  43.917  14.118  14.285
48902W        W21250  10.303  39.817  11.511
48903W        W21251  41.042  25.002  13.953
48904W        W21252   4.379  39.019  13.464
48905W        W21253  37.919   8.767   9.950
48906W        W21254  16.662  13.167   2.786
48907W        W21255  17.621   1.842  11.953
48908W        W21256  11.827  37.918  14.432
48909W        W21257  38.930  37.830   3.777
48910W        W21258  28.631   2.931   0.306
48911W        W21259  13.674  44.944  14.892
48912W        W21260  22.607  35.071  12.373
48913W        W21261  36.956   4.273   0.737
48914W        W21262   9.821   3.285  13.471
48915W        W21263  32.120  33.384  12.943
48916W        W21264  38.925   7.231  13.054
48917W        W21265  36.590  24.486  13.372
48918W        W21266  36.361   4.364   1.257
48919W        W21267   7.873   9.860  14.431
48920W        W21268  26.475  18.235  10.918
48921W        W21269  41.956  25.097  13.053
48922W        W21270  38.356  36.970   2.292
48923W        W21271  36.961  22.735   5.109
48924W        W21272  44.442  41.927   4.697
48925W        W21273  19.135  42.506   4.170
48926W        W21274  17.076  37.419   3.382
48927W        W21275  41.522   5.708  11.996
48928W        W21276  40.962  31.463   0.835
48929W        W21277  32.014  15.698   5.126
48930W        W21278  33.445   5.822   4.668
48931W        W21279  13.254  38.571   2.324
48932W        W21280  27.661  16.217  10.572
48933W        W21281  29.992  32.605   0.894
48934W        W21282  32.430  35.073   4.217
48935W        W21283   4.842  27.480  11.967
48936W        W21284  21.077  20.561  10.947
48937W        W21285  25.055  19.756  11.008
48938W        W21286  21.577  38.516   4.307
48939W        W21287   3.792  25.114   4.834
48940W        W21288  13.262  17.682  13.834
48941W        W21289   3.447  38.483   2.326
48942W        W21290  16.646  36.896   0.938
48943W        W21291  40.047   4.724  14.032
48944W        W21292  33.015  41.343  14.451
48945W        W21293   2.252   1.352  11.983
48946W        W21294  24.224  43.018   2.783
48947W        W21295  18.208  27.047   1.841
48948W        W21296  30.963  28.501  12.411
48949W        W21297  40.450  33.088   2.180
48950W        W21298  10.279  23.648   3.221
48951W        W21299  23.164  37.062   2.252
48952W        W21300  27.156  18.774  13.845
48953W        W21301  26.548  44.483   5.130
48954W        W21302  41.040   7.903   1.379
48955W        W21303   3.715  26.642   3.860
48956W        W21304  36.925   2.750  10.424
48957W        W21305   8.253  22.016   1.242
48958W        W21306  14.665  38.366  11.971
48959W        W21307  27.099  23.084   3.698
48960W        W21308  43.869  40.895  11.889
48961W        W21309  27.083  42.807   4.206
48962W        W21310  11.345  35.052   0.945
48963W        W21311  18.296   9.750   4.746
48964W        W21312  23.685   7.247   5.786
48965W        W21313  11.330  44.401  11.076
48966W        W21314  16.101  39.505  14.494
48967W        W21315  26.160   7.333  13.363
48968W        W21316  19.583  36.432  14.831
48969W        W21317  15.296  41.436  12.448
48970W        W21318  39.472  20.076   0.863
48971W        W21319   3.216  21.057   3.320
48972W        W21320  43.434  24.125  14.446
48973W        W21321  24.090  22.108   4.319
48974W        W21322  13.264  22.600  12.473
48975W        W21323  15.734   1.367   4.724
48976W        W21324  21.158   8.662   3.706
48977W        W21325  33.461  26.018  12.911
48978W        W21326  37.942  19.776   0.266
48979W        W21327   0.925  18.139   3.181
48980W        W21328  33.092  13.168  11.053
48981W        W21329  42.285  22.596   0.798
48982W        W21330  17.592  44.754  13.347
48983W        W21331  33.130  30.089  10.994
48984W        W21332   5.781  23.615   4.603
48985W        W21333   8.318  35.404   1.231
48986W        W21334  20.241  22.523   0.749
48987W        W21335  10.202  39.901   2.791
48988W        W21336  20.196  10.162  14.960
48989W        W21337  30.987   9.726   1.926
48990W        W21338  38.023  22.649   1.400
48991W        W21339  38.992  41.495  11.536
48992W        W21340  26.669   9.680   3.210
48993W        W21341  40.039  23.679  14.437
48994W        W21342  29.028   1.269  10.420
48995W        W21343   5.869  21.518  14.339
48996W        W21344  12.283  22.195   1.293
48997W        W21345   4.843  28.183   3.689
48998W        W21346  27.000  15.747  11.596
48999W        W21347  13.630   7.355  13.854
49000W        W21348  21.537  17.195  13.030
49001W        W21349  41.884  37.394  10.973
49002W        W21350  19.765  21.652  11.605
49003W        W21351  14.134  40.824   4.142
49004W        W21352   1.772  19.158  12.925
49005W        W21353  30.122  13.127  13.857
49006W        W21354  21.189  39.451   3.639
49007W        W21355  40.992  20.243   1.914
49008W        W21356  33.477  29.166  13.876
49009W        W21357  40.043  38.881   2.768
49010W        W21358  41.504   0.316  11.945
49011W        W21359  25.569  23.216  12.553
49012W        W21360  16.761  17.154  12.929
49013W        W21361  18.764  40.881  14.312
49014W        W21362  37.532  38.025   3.272
49015W        W21363  34.114   0.463  11.423
49016W        W21364  26.966  44.287  13.375
49017W        W21365  27.602  36.974  14.332
49018W        W21366  34.488  29.996  11.468
49019W        W21367  17.745   6.763   4.830
49020W        W21368  44.327  39.322  14.930
49021W        W21369   1.737  44.437  14.901
49022W        W21370   1.453  24.991   2.332
49023W        W21371  15.593  26.139  12.954
49024W        W21372  41.034  14.725   2.787
49025W        W21373  15.752   6.421   5.089
49026W        W21374   7.346  25.100   1.925
49027W        W21375  23.605  28.067   3.738
49028W        W21376   5.222  40.021   4.787
49029W        W21377  24.168  18.257  14.815
49030W        W21378   3.914  23.071  11.914
49031W        W21379  41.498  21.236   0.806
49032W        W21380  17.622  27.161  14.885
49033W        W21381  25.683  11.863  14.349
49034W        W21382  17.191  31.987   0.843
49035W        W21383  32.444  36.362  10.625
49036W        W21384  19.626  38.063  10.570
49037W        W21385  12.623  31.109  10.533
49038W        W21386  20.604  34.608   2.810
49039W        W21387   0.473  36.062   3.787
49040W        W21388  25.614  36.922  13.972
49041W        W21389  44.789  16.706   0.316
49042W        W21390  11.860   7.737   4.211
49043W        W21391  42.402  30.122   0.285
49044W        W21392  29.921  17.656   1.383
49045W        W21393  10.667  29.094  13.935
49046W        W21394  11.684  22.011   2.314
49047W        W21395  24.591  21.114  13.920
49048W        W21396  30.605  39.363   1.932
49049W        W21397  16.131   3.750  14.340
49050W        W21398   9.765  18.153   0.870
49051W        W21399  24.684  33.090  13.913
49052W        W21400  33.607  24.580  11.126
49053W        W21401  30.617  27.453  14.792
49054W        W21402  16.722  11.795   0.822
49055W        W21403  31.416  35.410   2.766
49056W        W21404   8.683  39.914  12.885
49057W        W21405  31.612  31.594  11.496
49058W        W21406   2.305  12.199   1.370
49059W        W21407   5.418  24.120   3.270
49060W        W21408  20.170  44.503   0.304
49061W        W21409   1.356   1.256  10.520
49062W        W21410  42.883   7.345   0.258
49063W        W21411  15.811   2.761  14.377
49064W        W21412  26.677  29.496  10.971
49065W        W21413   2.409  10.842  13.415
49066W        W21414  33.459   6.910   1.434
49067W        W21415  26.565   1.919   2.180
49068W        W21416  25.657  41.474   1.267
49069W        W21417  23.521  33.895   2.233
49070W        W21418  28.934  29.467   3.221
49071W        W21419  22.121   5.921   1.933
49072W        W21420  16.646   4.443  13.459
49073W        W21421  43.850  40.414   0.830
49074W        W21422  14.110  12.120   9.947
49075W        W21423  17.081  39.527  10.099
49076W        W21424   3.751   3.866  11.952
49077W        W21425  11.731   7.280  11.977
49078W        W21426   3.941  44.260  13.943
49079W        W21427  37.889  32.460  11.909
49080W        W21428   5.246  26.171  10.463
49081W        W21429  30.057  13.211  14.922
49082W        W21430   9.675  38.032  12.458
49083W        W21431   5.865   5.411   0.336
49084W        W21432  15.223  37.076  13.063
49085W        W21433  36.483   5.894   3.183
49086W        W21434  13.709   5.229  14.888
49087W        W21435  21.189  29.503   1.278
49088W        W21436  44.806   6.276  10.484
49089W        W21437  36.942  44.875   2.386
49090W        W21438  43.897   6.253   0.893
49091W        W21439  31.616  25.538   1.321
49092W        W21440   1.781  38.003  11.416
49093W        W21441  14.100  34.907   5.314
49094W        W21442  19.085  15.227   1.231
49095W        W21443  20.725  33.447  14.356
49096W        W21444  33.443  13.636  12.483
49097W        W21445  37.892  42.935   2.868
49098W        W21446  38.571  16.592   1.303
49099W        W21447  32.977  22.656  11.038
49100W        W21448  12.651  15.164   2.702
49101W        W21449  43.976  32.586  12.468
49102W        W21450   1.241  19.734   0.351
49103W        W21451  40.511   3.790  12.365
49104W        W21452  39.429  39.435  12.034
49105W        W21453  34.535  18.226  13.545
49106W        W21454  11.833  31.985  12.557
49107W        W21455  19.077   4.241   3.231
49108W        W21456   4.846  30.457  11.584
49109W        W21457  28.501  19.149   2.301
49110W        W21458  40.832  11.767   4.796
49111W        W21459  42.458  27.945   0.290
49112W        W21460  11.180  38.061   1.792
49113W        W21461   0.837  15.639   2.771
49114W        W21462  11.782  15.755  13.517
49115W        W21463  43.316  12.650  10.471
49116W        W21464  41.952  32.085   4.158
49117W        W21465  35.561  42.871  10.457
49118W        W21466  20.121  31.475   3.663
49119W        W21467  12.185  37.853   1.397
49120W        W21468  27.533  12.846   2.674
49121W        W21469  11.333  29.160  11.412
49122W        W21470  18.271  12.204   4.280
49123W        W21471   8.827  36.075  11.908
49124W        W21472   5.332  34.462  13.026
49125W        W21473  29.450  27.192  12.555
49126W        W21474   5.360  40.420  11.064
49127W        W21475  17.726  14.667   9.459
49128W        W21476  10.749  11.171  13.339
49129W        W21477  43.309  25.555  11.474
49130W        W21478   3.267  42.007   0.262
49131W        W21479   6.824  26.589  12.339
49132W        W21480   4.420  29.573   0.365
49133W        W21481  24.062   0.368  13.365
49134W        W21482  40.038  26.057  10.526
49135W        W21483  31.058  44.401  11.917
49136W        W21484  11.848  31.112  13.361
49137W        W21485  35.032  44.896  14.507
49138W        W21486   9.883  30.533   3.337
49139W        W21487  33.532  39.050  12.078
49140W        W21488   9.890  44.430  10.525
49141W        W21489  35.087  21.245  11.508
49142W        W21490  22.152  31.491  11.521
49143W        W21491  15.270  26.647   4.257
49144W        W21492  24.544   5.358  11.045
49145W        W21493  14.321  26.579   1.387
49146W        W21494  15.710  22.198  10.469
49147W        W21495  30.488  21.018   1.445
49148W        W21496   0.467  40.018  14.304
49149W        W21497   5.201  33.422   2.705
49150W        W21498  22.636  33.965  10.557
49151W        W21499  21.028  27.591  10.496
49152W        W21500   8.384  40.944  13.041
49153W        W21501  11.662  23.557  13.545
49154W        W21502   6.863  14.603   1.429
49155W        W21503  36.908  33.066  11.895
49156W        W21504  39.409  40.910   1.230
49157W        W21505  37.371  17.270  13.362
49158W        W21506   8.406  24.989   4.787
49159W        W21507  13.220  11.634   3.812
49160W        W21508  37.366   3.297  10.456
49161W        W21509  33.416  11.860  14.508
49162W        W21510  13.827  15.754   2.304
49163W        W21511  12.233  16.781   0.412
49164W        W21512   8.172  24.626   4.162
49165W        W21513   5.196  20.171   4.647
49166W        W21514  41.326  18.647   3.633
49167W        W21515   0.405   4.869  14.432
49168W        W21516  30.511  41.324  14.788
49169W        W21517   1.478  31.043  13.503
49170W        W21518  10.138  19.728  12.921
49171W        W21519  13.803  41.520   1.706
49172W        W21520  38.532  13.818  10.987
49173W        W21521  11.343  15.190   4.122
49174W        W21522  39.538  29.099  11.526
49175W        W21523  27.094  38.054   0.400
49176W        W21524   2.796  27.678  12.860
49177W        W21525   9.832  30.605  14.302
49178W        W21526   2.952   9.363  12.425
49179W        W21527  28.033  10.852   2.818
49180W        W21528  35.467   0.263   3.806
49181W        W21529  37.426   1.806  11.046
49182W        W21530  14.748  30.907  11.932
49183W        W21531  24.062  28.524  14.295
49184W        W21532  40.043  17.303   4.180
49185W        W21533   9.822  29.934   1.850
49186W        W21534  17.290  27.945   3.809
49187W        W21535   0.771  25.493   3.256
49188W        W21536   8.731  27.962   4.174
49189W        W21537   7.684  20.732  13.541
49190W        W21538  32.424   5.371  13.945
49191W        W21539  15.801  35.952   2.900
49192W        W21540  31.481   2.289   1.871
49193W        W21541  14.827  22.700  14.929
49194W        W21542  39.006  38.069   1.781
49195W        W21543  26.461   7.334  13.000
49196W        W21544  27.505  17.741  13.522
49197W        W21545  16.094  24.518   0.737
49198W        W21546  44.495  23.181   2.856
49199W        W21547  23.555  42.886   2.263
49200W        W21548   5.227  12.298   1.450
49201W        W21549   2.842  39.494   2.389
49202W        W21550  44.472  12.167  12.531
49203W        W21551  31.528  15.813   3.646
49204W        W21552  29.429  40.029  11.014
49205W        W21553  37.492  36.899   2.671
49206W        W21554  40.823  13.768   3.786
49207W        W21555  15.260  39.856   2.870
49208W        W21556  19.584  28.623   0.396
49209W        W21557  36.408  29.637   0.922
49210W        W21558  19.575  38.865   0.859
49211W        W21559  29.428  10.233   3.334
49212W        W21560  37.496  43.322  13.884
49213W        W21561   0.447  34.555   3.722
49214W        W21562   2.314  22.016   0.355
49215W        W21563   9.232  31.416   1.299
49216W        W21564  24.488  10.807   3.262
49217W        W21565   9.658  10.802  14.366
49218W        W21566   3.268  24.102  12.008
49219W        W21567  36.383  13.607  13.993
49220W        W21568  17.632  13.689   3.313
49221W        W21569  11.329  39.533  11.574
49222W        W21570  22.644  14.618  12.394
49223W        W21571  25.646  36.959   4.333
49224W        W21572   5.713  26.016  13.451
49225W        W21573  38.071  14.172  13.492
49226W        W21574  16.308  28.113  12.503
49227W        W21575  22.088   1.249   0.249
49228W        W21576   2.367  19.060   0.930
49229W        W21577  24.716   3.295   4.662
49230W        W21578  39.015   9.770  11.036
49231W        W21579   2.870  41.962   4.637
49232W        W21580   4.761  29.952   5.115
49233W        W21581  10.700  18.105  10.975
49234W        W21582   1.795  43.960   0.810
49235W        W21583  43.464  42.856  13.540
49236W        W21584  24.134  31.900   4.699
49237W        W21585   7.706  16.105  10.980
49238W        W21586  23.721  14.647  13.868
49239W        W21587  17.778  16.120  13.941
49240W        W21588   3.349  14.139  12.360
49241W        W21589  42.902  34.925  11.449
49242W        W21590   6.848  36.854  12.959
49243W        W21591  27.585  42.482  14.778
49244W        W21592   9.819  31.414   4.744
49245W        W21593  42.370   8.208  14.955
49246W        W21594  36.457  28.515  13.976
49247W        W21595  17.258   6.193  13.793
49248W        W21596  33.578  40.365   4.141
49249W        W21597  31.462  18.100  13.547
49250W        W21598  13.608  21.584  11.956
49251W        W21599  18.777   9.792   1.348
49252W        W21600   2.259  10.296   0.246
49253W        W21601  41.921  39.396  12.417
49254W        W21602   5.801  28.548   1.239
49255W        W21603  36.011  40.010   2.209
49256W        W21604  12.333  35.600  12.527
49257W        W21605  23.105  10.857   1.820
49258W        W21606  13.298   5.857   4.690
49259W        W21607  32.581  35.464   4.173
49260W        W21608  37.864  31.586   2.385
49261W        W21609  16.758  25.530   4.693
49262W        W21610   2.947   2.340   3.640
49263W        W21611   8.323  19.759   3.736
49264W        W21612   5.228  18.281  11.454
49265W        W21613  10.790  11.699   2.216
49266W        W21614   3.362  43.904  12.906
49267W        W21615  42.467  25.987  11.946
49268W        W21616   1.450  32.485  12.883
49269W        W21617  21.242  13.245   4.295
49270W        W21618   0.418  28.608  14.879
49271W        W21619   7.733   2.927  13.060
49272W        W21620  35.449  21.174  10.441
49273W        W21621  18.677  42.025   0.896
49274W        W21622   2.791  40.851   4.785
49275W        W21623  32.942  27.123   4.831
49276W        W21624   4.308  17.765  13.464
49277W        W21625  38.348  18.255   0.438
49278W        W21626  42.958  37.567   0.398
49279W        W21627  40.930  32.982   2.849
49280W        W21628   5.768  28.021   4.614
49281W        W21629   2.786  21.693   3.871
49282W        W21630  20.764  34.067  11.409
49283W        W21631  28.170  30.533  13.526
49284W        W21632  38.943  12.684   0.884
49285W        W21633  33.976  35.365   2.847
49286W        W21634  43.419   1.827   4.258
49287W        W21635  39.338   5.423  10.129
49288W        W21636  44.376  40.437   2.663
49289W        W21637  17.638   3.882  11.435
49290W        W21638  43.404  38.338   4.720
49291W        W21639  23.625  11.332   1.768
49292W        W21640  21.722   9.260   9.649
49293W        W21641  12.260  14.741   2.404
49294W        W21642  35.979  39.347   2.873
49295W        W21643  17.773  23.652  11.456
49296W        W21644  25.575  41.919   1.763
49297W        W21645  38.327  38.453  12.080
49298W        W21646  31.087  18.563  12.539
49299W        W21647   7.399  11.624  13.805
49300W        W21648  42.890  35.530   2.385
49301W        W21649  14.312  40.942  13.349
49302W        W21650   0.770  17.657  11.019
49303W        W21651  39.342  20.531  13.960
49304W        W21652  26.184  17.678  11.867
49305W        W21653  11.187  24.025  13.352
49306W        W21654   5.425   2.375   3.295
49307W        W21655   8.375   3.271  12.949
49308W        W21656  14.774  25.198   4.172
49309W        W21657  43.314  37.461  11.938
49310W        W21658   3.461  36.487   3.270
49311W        W21659  31.065  23.725   1.277
49312W        W21660  11.160  38.450  14.490
49313W        W21661  34.998  11.764   9.958
49314W        W21662  13.237  12.325   2.363
49315W        W21663  12.635  34.117  13.009
49316W        W21664  20.730  29.665  14.970
49317W        W21665  37.995  42.459  11.071
49318W        W21666  15.639  20.712   1.334
49319W        W21667  30.504  29.993  13.957
49320W        W21668   6.327  17.780   4.332
49321W        W21669   0.883  11.656  11.582
49322W        W21670  34.499  32.941  13.052
49323W        W21671  40.323  24.725   3.187
49324W        W21672   9.834  30.425  13.375
49325W        W21673  20.628   6.295  13.835
49326W        W21674  29.156  29.012   3.338
49327W        W21675  34.864  24.147   1.708
49328W        W21676  35.381  36.578  14.947
49329W        W21677  26.666  12.717   4.692
49330W        W21678   9.793  14.269   4.326
49331W        W21679  10.833  44.978  12.851
49332W        W21680  22.148  22.521  13.891
49333W        W21681   2.232  26.976   3.244
49334W        W21682  40.836  26.197  14.502
49335W        W21683  35.091  18.675   2.671
49336W        W21684  35.553  27.683   2.772
49337W        W21685   6.757   1.783  12.018
49338W        W21686  30.931  19.139   0.439
49339W        W21687   0.440  38.048   0.763
49340W        W21688  16.760  23.557   3.253
49341W        W21689  35.594  20.142   0.249
49342W        W21690   3.897   9.331   4.143
49343W        W21691  39.324  30.646   0.401
49344W        W21692  30.045  42.784  14.345
49345W        W21693   0.888  20.564   1.780
49346W        W21694  33.471  36.541  14.384
49347W        W21695  34.943  13.255   4.791
49348W        W21696  37.040   5.772   3.799
49349W        W21697  22.046  17.253  11.973
49350W        W21698  25.185  12.613  12.370
49351W        W21699  24.208  13.709  12.978
49352W        W21700   8.221  40.510   4.597
49353W        W21701  28.646  35.946  13.985
49354W        W21702  40.540   9.888   3.854
49355W        W21703   5.427   9.757   0.366
49356W        W21704  14.706   6.833  11.423
49357W        W21705  28.013  43.769   2.258
49358W        W21706  44.986  43.351   0.941
49359W        W21707   5.789  14.279  13.027
49360W        W21708  41.502  43.349  10.565
49361W        W21709   7.861  16.723   0.747
49362W        W21710  42.975  16.135  12.426
49363W        W21711  17.581  17.770  10.583
49364W        W21712   1.857  37.893   2.893
49365W        W21713  17.077  21.548   2.339
49366W        W21714   9.805  33.962  11.876
49367W        W21715  35.503  17.204  11.990
49368W        W21716  36.390  43.365  12.080
49369W        W21717  18.737  39.856  11.855
49370W        W21718  41.416  16.135  11.495
49371W        W21719  20.199  12.647  14.342
49372W        W21720  26.161  15.143   2.379
49373W        W21721  32.909  42.881   0.890
49374W        W21722  17.700   1.775   3.238
49375W        W21723  24.045  32.088  11.530
49376W        W21724  27.163  12.749  11.532
49377W        W21725  43.820  43.426  12.853
49378W        W21726  31.975   7.707   0.273
49379W        W21727  22.082  41.310  11.950
49380W        W21728  13.822   9.689   1.711
49381W        W21729  34.446   9.181   1.866
49382W        W21730  34.937  37.351   0.964
49383W        W21731  10.814  14.245   4.192
49384W        W21732  38.856  12.739   2.892
49385W        W21733  15.710   2.905   4.311
49386W        W21734   4.318  43.821  12.456
49387W        W21735  37.389  17.066  14.766
49388W        W21736  26.513   9.845  10.921
49389W        W21737   2.452  28.484  10.644
49390W        W21738  16.152  26.668  14.375
49391W        W21739  43.934  38.038   3.208
49392W        W21740  19.088  21.082  13.899
49393W        W21741  14.165  30.162  14.846
49394W        W21742  14.318  37.372  14.804
49395W        W21743  37.975  22.034   2.338
49396W        W21744  19.710  19.178  13.544
49397W        W21745  32.112  37.856  10.631
49398W        W21746  44.874  35.465  11.457
49399W        W21747  26.063  39.921   0.877
49400W        W21748   0.447  39.435  14.914
49401W        W21749  35.071  25.207  10.448
49402W        W21750  41.470  19.623   2.379
49403W        W21751   7.697  18.077  11.961
49404W        W21752   5.317  23.161  11.466
49405W        W21753   6.264  19.091   2.826
49406W        W21754  42.513   1.763  10.999
49407W        W21755   0.939  31.935   4.781
49408W        W21756  28.515  30.935   4.708
49409W        W21757  22.077  21.689  14.906
49410W        W21758  41.880  29.424  10.513
49411W        W21759  20.712  23.586   1.273
49412W        W21760   0.481  38.000   3.759
49413W        W21761  29.458   7.840   2.896
49414W        W21762   9.686  28.459  10.625
49415W        W21763   5.897  18.726   2.719
49416W        W21764  32.542  27.119  11.930
49417W        W21765   7.884   3.954   4.349
49418W        W21766  28.445  22.657  13.472
49419W        W21767  42.027  43.867  13.412
49420W        W21768  28.551  36.517   3.254
49421W        W21769  25.135  40.316   2.796
49422W        W21770   9.360   6.234   0.790
49423W        W21771  23.723  20.035   1.446
49424W        W21772  26.605  36.860   3.668
49425W        W21773  35.455   0.761   2.246
49426W        W21774  20.174  43.385   4.766
49427W        W21775  40.841  43.914   1.906
49428W        W21776  11.849  20.755  13.943
49429W        W21777  33.574  26.995  13.329
49430W        W21778  19.245  42.912  10.559
49431W        W21779  17.653  32.402  12.358
49432W        W21780   4.759  44.767  13.512
49433W        W21781  29.518   6.276   4.124
49434W        W21782  10.322  44.759   3.695
49435W        W21783  29.111  23.703  13.384
49436W        W21784  29.008   8.319  13.366
49437W        W21785  32.471  11.269  14.791
49438W        W21786  19.103  21.145   2.730
49439W        W21787  36.537  10.290   4.618
49440W        W21788  17.143  10.363  12.900
49441W        W21789  25.516   3.359   0.764
49442W        W21790  29.492  35.535   2.270
49443W        W21791  39.416  26.110   0.776
49444W        W21792  25.089   3.805  13.870
49445W        W21793  12.284  33.028  13.899
49446W        W21794  32.018  12.326   2.663
49447W        W21795  14.759  24.977  11.482
49448W        W21796  42.341  36.998  12.374
49449W        W21797  34.020   0.846   2.663
49450W        W21798   3.434  42.416  12.976
49451W        W21799   5.318  33.073   3.255
49452W        W21800  22.672   1.912   1.930
49453W        W21801  33.959  36.363   0.264
49454W        W21802  30.935  24.636   4.706
49455W        W21803  44.337  23.191   1.273
49456W        W21804  40.988  17.159  10.495
49457W        W21805  42.971  26.184  13.488
49458W        W21806   9.814  23.050   1.433
49459W        W21807  15.313  39.902   1.763
49460W        W21808  18.601  37.988  14.325
49461W        W21809   9.195  13.334  14.294
49462W        W21810  36.931  26.489   0.867
49463W        W21811   2.405   0.787   1.913
49464W        W21812  23.213  39.388   0.748
49465W        W21813  25.144   3.718  13.328
49466W        W21814  39.994   4.835  10.988
49467W        W21815  41.985   9.835   2.238
49468W        W21816  24.145   9.846   0.827
49469W        W21817  31.051  17.190   0.290
49470W        W21818   4.792  30.087   0.378
49471W        W21819   7.323  30.164   0.801
49472W        W21820  38.928  31.965   5.123
49473W        W21821  32.412  30.483   1.299
49474W        W21822   3.408  32.054   0.344
49475W        W21823  11.643  10.379   0.243
49476W        W21824  11.758  41.792   3.346
49477W        W21825   5.930  31.569   9.508
49478W        W21826  26.977  23.065   1.415
49479W        W21827  40.313  41.881  10.527
49480W        W21828  32.471   8.889  12.379
49481W        W21829   1.942  43.375   1.365
49482W        W21830  14.683   1.275  14.375
49483W        W21831  11.865  39.927  14.920
49484W        W21832  42.429  17.244   2.194
49485W        W21833   4.366  17.108   4.807
49486W        W21834   0.289   5.781   3.362
49487W        W21835  28.615  32.101  11.093
49488W        W21836  10.751  37.484   3.313
49489W        W21837  22.195  26.168  10.946
49490W        W21838  40.326  21.639   3.724
49491W        W21839  32.599  36.897  11.415
49492W        W21840  30.450   5.757   1.886
49493W        W21841  32.112   6.313   4.326
49494W        W21842  37.464  14.194  11.592
49495W        W21843  19.691  17.178  12.856
49496W        W21844  35.040   0.896   5.254
49497W        W21845  22.081   2.878  11.884
49498W        W21846  27.586  30.453   0.737
49499W        W21847  29.060  31.932   2.868
49500W        W21848  19.135  25.619   0.467
49501W        W21849  16.101  21.715   2.279
49502W        W21850  39.062  11.727   4.149
49503W        W21851   3.842  18.610   2.289
49504W        W21852  30.488  22.536  13.362
49505W        W21853  31.538  27.052  14.276
49506W        W21854  38.333  43.957   4.265
49507W        W21855  27.176  39.363   1.703
49508W        W21856  28.481  26.536   2.320
49509W        W21857  35.472  19.128   0.245
49510W        W21858  18.244  27.658  14.984
49511W        W21859  12.780  14.800  14.369
49512W        W21860   8.398  19.273   0.735
49513W        W21861   7.706   8.307   2.759
49514W        W21862  25.665  35.532  11.863
49515W        W21863  28.567  20.082  13.370
49516W        W21864  10.759  12.294   0.948
49517W        W21865   7.172  38.548   1.851
49518W        W21866   0.862  43.460  12.874
49519W        W21867  44.374  16.723   1.432
49520W        W21868  37.539   0.483   1.921
49521W        W21869  19.165  38.376  12.015
49522W        W21870  28.659  33.118  13.802
49523W        W21871  44.443  13.304   5.242
49524W        W21872  39.551  33.062   0.890
49525W        W21873  36.531  31.581   0.963
49526W        W21874  21.035  33.549  13.490
49527W        W21875  11.162  37.537   3.793
49528W        W21876   4.804  23.729   3.672
49529W        W21877  14.176  18.151   1.730
49530W        W21878  42.812  35.880  13.996
49531W        W21879  25.107  10.161   2.840
49532W        W21880  18.777  33.113   3.831
49533W        W21881  32.925   7.895  13.037
49534W        W21882   0.959  23.149   3.207
49535W        W21883   1.858  28.089   3.190
49536W        W21884  40.358   9.240  11.120
49537W        W21885  12.744   4.254  13.895
49538W        W21886  42.944   1.931   4.143
49539W        W21887  39.976  15.098  11.372
49540W        W21888  23.664  30.915  12.916
49541W        W21889  19.098  25.542   1.926
49542W        W21890  20.622  40.523   0.379
49543W        W21891   4.359  21.672   0.794
49544W        W21892   4.425   5.330  13.824
49545W        W21893  22.531  17.061   0.760
49546W        W21894  39.823  23.984   3.713
49547W        W21895  36.950  20.572  12.556
49548W        W21896  24.627  35.378  10.461
49549W        W21897   6.427  35.383  13.814
49550W        W21898  40.863  22.051  11.994
49551W        W21899  25.578  17.747  12.978
49552W        W21900  21.732  37.433  11.543
49553W        W21901  28.493  24.103  10.615
49554W        W21902  33.440  38.404   9.970
49555W        W21903   4.403  26.052  10.484
49556W        W21904  17.754  15.188   2.871
49557W        W21905  27.007  44.983  14.931
49558W        W21906   3.337  42.283   4.174
49559W        W21907  44.444  24.666  12.952
49560W        W21908  33.397  12.327  12.024
49561W        W21909  20.259  35.430   1.369
49562W        W21910   5.298  24.087  12.540
49563W        W21911   8.828  29.043   4.314
49564W        W21912  29.151  11.736  11.583
49565W        W21913  41.512  32.573   2.727
49566W        W21914  40.370  31.454   3.273
49567W        W21915  39.398  44.385   3.831
49568W        W21916  20.544  22.081  13.984
49569W        W21917  13.711  40.478  13.317
49570W        W21918  37.999  10.824   2.357
49571W        W21919  41.817   4.440  14.903
49572W        W21920  35.082  20.566  13.404
49573W        W21921   2.285  44.327   0.280
49574W        W21922  38.383  42.923   0.381
49575W        W21923  39.387  31.013  12.081
49576W        W21924  40.804  33.438  11.396
49577W        W21925  16.789  36.432   4.123
49578W        W21926   4.761  17.171  14.952
49579W        W21927  14.182  29.078  14.778
49580W        W21928  20.615  14.156   2.288
49581W        W21929  35.871  35.518  10.904
49582W        W21930  39.469  18.139   1.850
49583W        W21931  26.015  24.563  12.393
49584W        W21932   0.370  25.481   4.149
49585W        W21933   7.288  20.236   3.350
49586W        W21934  33.586  37.864  13.847
49587W        W21935   9.660  25.178   3.744
49588W        W21936  31.076  33.077   4.674
49589W        W21937  17.745  30.613  10.066
49590W        W21938  18.624  40.837  13.040
49591W        W21939  40.445  40.972  10.934
49592W        W21940  20.643  14.731   4.299
49593W        W21941   3.338  27.625  12.089
49594W        W21942  29.103  21.736  13.367
49595W        W21943  15.201   8.342   2.195
49596W        W21944  15.173  33.963  11.097
49597W        W21945   0.931  31.927   3.740
49598W        W21946  16.572  23.583  11.937
49599W        W21947  37.554  20.531   1.700
49600W        W21948  37.958  35.528  13.487
49601W        W21949  24.668  21.645   2.222
49602W        W21950   5.707  44.826   1.346
49603W        W21951  35.584  43.435  13.503
49604W        W21952   9.740  14.315   1.824
49605W        W21953  12.649  22.527   4.191
49606W        W21954  20.118  27.946  11.521
49607W        W21955   0.750  12.147  11.081
49608W        W21956  31.485   1.940  13.391
49609W        W21957  33.433   9.713   4.597
49610W        W21958  43.929   5.397  12.935
49611W        W21959   2.456  20.678  14.336
49612W        W21960   9.741  25.515  12.018
49613W        W21961  26.094   7.244   1.255
49614W        W21962  12.851  29.449   2.309
49615W        W21963  25.180   5.694  10.970
49616W        W21964   6.741  25.184  13.330
49617W        W21965  40.397   4.285  14.300
49618W        W21966  33.389  19.228  11.388
49619W        W21967   5.884  31.514   4.160
49620W        W21968  27.077   0.455   2.235
49621W        W21969  36.484  20.134   2.392
49622W        W21970  32.531  44.357  14.510
49623W        W21971  34.931  23.669   2.418
49624W        W21972  19.577  21.066   2.344
49625W        W21973   4.763  23.025  10.431
49626W        W21974  24.494   2.427   2.683
49627W        W21975  15.803  35.373  14.308
49628W        W21976  44.482   1.302  13.973
49629W        W21977  27.185  30.015  11.479
49630W        W21978  11.186  30.658  14.766
49631W        W21979  27.575  23.736  10.939
49632W        W21980  11.743  34.521  11.448
49633W        W21981  26.151  37.830  12.942
49634W        W21982   6.337   7.889  14.863
49635W        W21983  10.654  14.337   0.918
49636W        W21984   6.888   6.812   3.377
49637W        W21985  41.869  18.733   0.943
49638W        W21986  22.557  40.340  13.841
49639W        W21987  31.965  44.893   4.143
49640W        W21988   7.910  11.182   3.660
49641W        W21989  28.559  28.585   0.750
49642W        W21990  18.672  39.939  10.010
49643W        W21991  15.613  39.488  13.310
49644W        W21992  27.056  12.632  12.034
49645W        W21993  11.794   3.270   4.711
49646W        W21994  36.036  33.049  13.344
49647W        W21995  28.532  38.854   2.676
49648W        W21996  18.131  13.299   0.736
49649W        W21997   2.275  24.099   1.444
49650W        W21998  43.852  30.627  10.984
49651W        W21999  30.056  16.161  11.937
49652W        W22000   2.747  34.913  11.558
49653W        W22001  15.147  23.056  13.350
49654W        W22002   0.450  40.488  14.004
49655W        W22003  37.491  17.687   0.471
49656W        W22004  34.436  15.185   4.332
49657W        W22005  39.981  40.357   3.325
49658W        W22006  29.043   9.737  14.506
49659W        W22007  24.997  34.004  12.018
49660W        W22008  43.809  16.261  13.539
49661W        W22009  10.299  20.176  14.858
49662W        W22010  42.803  42.338   4.342
49663W        W22011   2.806  32.588   3.259
49664W        W22012  25.506   9.214   5.095
49665W        W22013  14.122  12.220   3.176
49666W        W22014  41.806   4.442  10.486
49667W        W22015  39.339   3.889   3.717
49668W        W22016  38.844  44.270  12.046
49669W        W22017  37.527  37.938   2.359
49670W        W22018  35.484   9.275  14.834
49671W        W22019   1.863  11.710   1.737
49672W        W22020  16.748   2.854   1.312
49673W        W22021   6.800  21.136  12.922
49674W        W22022  31.914  22.680  14.380
49675W        W22023  24.091   0.865  13.953
49676W        W22024  31.051  44.862   1.381
49677W        W22025   1.968   2.341   2.821
49678W        W22026  21.584  38.571  14.775
49679W        W22027  18.200  19.721   4.660
49680W        W22028  44.871  12.706  13.436
49681W        W22029  35.454  38.518  11.123
49682W        W22030  10.655  38.432   3.742
49683W        W22031   3.930  43.457   3.820
49684W        W22032  22.217  37.967  10.445
49685W        W22033   9.279  21.553  14.466
49686W        W22034  30.926  41.396   4.606
49687W        W22035  33.006  23.630   1.728
49688W        W22036  11.339  18.708   0.927
49689W        W22037  33.914   1.968  10.901
49690W        W22038  18.582  17.763  12.546
49691W        W22039   0.930   8.209  13.830
49692W        W22040  19.069  29.172  12.025
49693W        W22041  40.334  19.168  14.903
49694W        W22042  20.098  19.759   1.382
49695W        W22043  31.899  22.230   1.912
49696W        W22044   9.714  44.850  12.575
49697W        W22045   3.737  35.430   4.692
49698W        W22046  27.073  29.437   0.884
49699W        W22047  40.370  41.862   4.117
49700W        W22048  18.124   3.920   1.725
49701W        W22049  11.201  44.913  12.973
49702W        W22050  24.217  33.126  12.483
49703W        W22051  27.002   3.380  11.382
49704W        W22052  27.153  43.767   3.242
49705W        W22053  17.252  40.871   0.885
49706W        W22054   0.849   4.383  14.939
49707W        W22055  39.951  37.393  11.501
49708W        W22056  37.885  10.178   2.227
49709W        W22057  17.124  31.951   4.771
49710W        W22058  23.994  19.627  11.870
49711W        W22059  43.497  25.995  14.408
49712W        W22060   9.384  39.429   4.599
49713W        W22061   6.400  21.721   0.757
49714W        W22062  35.446  29.974  14.799
49715W        W22063  43.322   0.812  13.350
49716W        W22064   2.774  29.636  12.868
49717W        W22065   8.272  11.307   4.144
49718W        W22066   0.353  43.310  12.977
49719W        W22067  36.540  27.964   2.389
49720W        W22068  28.531  35.598  14.025
49721W        W22069   4.331  40.547   0.425
49722W        W22070  32.512  34.941   0.293
49723W        W22071  35.455  25.130  10.487
49724W        W22072   8.336   1.268   2.793
49725W        W22073  12.259  33.492   0.871
49726W        W22074   2.740  44.423  13.543
49727W        W22075  23.726  28.480   3.336
49728W        W22076  38.490   7.213   0.313
49729W        W22077   0.746  15.217   2.888
49730W        W22078  20.524  41.846   0.895
49731W        W22079  37.958  24.140   4.204
49732W        W22080  24.156  13.775  11.058
49733W        W22081  12.815  36.363  13.812
49734W        W22082  18.270  39.899   0.443
49735W        W22083  13.110   5.273   2.369
49736W        W22084  10.182  43.297   2.688
49737W        W22085  10.178  29.087  12.847
49738W        W22086  15.674  43.771   2.248
49739W        W22087   6.714  40.044  12.007
49740W        W22088  17.086  15.292  11.547
49741W        W22089   8.809  36.459  12.484
49742W        W22090  33.874  40.314  13.966
49743W        W22091  26.519  37.918  13.461
49744W        W22092   8.900  23.052   4.145
49745W        W22093   8.179   1.868   0.448
49746W        W22094  16.247  16.189   0.448
49747W        W22095  38.352   7.252   2.339
49748W        W22096  16.133  24.053   2.821
49749W        W22097  19.545  13.618   0.454
49750W        W22098  43.889  40.871   0.253
49751W        W22099  19.143  20.583  14.973
49752W        W22100   3.420  44.408   1.412
49753W        W22101  16.103  18.784   1.924
49754W        W22102   7.197  15.231  14.979
49755W        W22103  30.476   1.238  12.531
49756W        W22104  14.742  30.993   3.845
49757W        W22105  32.141  29.517  10.948
49758W        W22106  37.871  19.041  13.483
49759W        W22107  22.058  32.904  14.342
49760W        W22108   3.810  41.473  12.053
49761W        W22109  44.946  44.480  12.569
49762W        W22110  12.139  42.347   1.800
49763W        W22111  25.574  21.141  14.889
49764W        W22112  11.851  10.799   3.854
49765W        W22113   0.879   3.915   2.209
49766W        W22114  25.646  22.051  13.808
49767W        W22115  11.826  18.119   3.690
49768W        W22116  34.085  26.641   4.679
49769W        W22117  17.793  18.591   3.835
49770W        W22118  10.871  25.204  14.894
49771W        W22119   0.890   2.343   3.855
49772W        W22120  26.099  11.780   3.176
49773W        W22121  39.332  37.379   2.305
49774W        W22122   4.902  19.223  14.381
49775W        W22123  29.929  42.493   1.797
49776W        W22124  34.901  32.543   4.678
49777W        W22125   1.739  42.892   2.273
49778W        W22126  33.025   1.310  14.883
49779W        W22127  31.138  27.943   1.448
49780W        W22128  31.115  11.665  12.533
49781W        W22129   4.827   6.911  10.890
49782W        W22130  34.432  29.139   1.820
49783W        W22131  30.017   0.854  13.542
49784W        W22132  10.373  24.092   3.849
49785W        W22133  39.315   5.292  11.929
49786W        W22134   3.829  12.677  10.005
49787W        W22135  10.161  34.954  11.380
49788W        W22136  41.000  28.646   4.157
49789W        W22137  12.738  10.662  10.525
49790W        W22138   5.844  44.809  13.533
49791W        W22139  29.116  38.454  11.895
49792W        W22140  30.149   7.195  11.927
49793W        W22141  26.642  29.634   3.759
49794W        W22142   5.864  28.630  12.851
49795W        W22143  28.525   6.804   3.636
49796W        W22144  10.244   0.797  12.934
49797W        W22145  44.878  33.006   2.196
49798W        W22146  38.913  20.536   4.339
49799W        W22147  31.613   6.335   4.762
49800W        W22148  27.580  10.860  11.922
49801W        W22149  40.827  16.283  11.000
49802W        W22150  29.506  20.652   4.154
49803W        W22151  39.417  10.684  12.937
49804W        W22152  40.491  27.120   2.376
49805W        W22153   6.886  37.065  13.825
49806W        W22154  34.592  42.374  12.402
49807W        W22155  12.250  35.918   1.799
49808W        W22156  20.592  34.917   0.447
49809W        W22157  19.227   1.410   0.921
49810W        W22158  43.807  18.196  14.403
49811W        W22159  10.781  44.003  12.957
49812W        W22160  37.035  33.588   2.288
49813W        W22161  12.637  28.125   1.928
49814W        W22162  17.745   3.435  13.027
49815W        W22163  44.856  23.513  13.965
49816W        W22164   3.314  41.794   2.199
49817W        W22165  26.205  19.140  11.473
49818W        W22166  12.755  37.363   3.383
49819W        W22167  15.675  34.094  14.816
49820W        W22168  23.640   9.270  13.319
49821W        W22169  27.565   1.478  14.341
49822W        W22170  20.666  38.903  14.306
49823W        W22171  10.711   6.746   9.945
49824W        W22172  39.498   4.427  11.944
49825W        W22173   7.184  43.270  14.407
49826W        W22174  17.617  28.453   1.699
49827W        W22175  14.095  31.901  11.600
49828W        W22176  22.128  34.401   4.186
49829W        W22177   0.278   6.185   0.256
49830W        W22178  16.582   4.942  14.431
49831W        W22179  26.496  41.032  11.430
49832W        W22180  23.132  39.032   4.154
49833W        W22181  10.173  21.141  14.351
49834W        W22182  37.382  42.800   3.845
49835W        W22183  30.078  19.560  14.950
49836W        W22184   2.839  12.160  11.884
49837W        W22185   1.863  19.053  14.925
49838W        W22186   1.799  13.200   0.250
49839W        W22187   5.834  36.879   4.347
49840W        W22188   9.352  41.988   1.930
49841W        W22189  40.435  13.607  14.363
49842W        W22190  12.810   9.201   4.821
49843W        W22191  18.208   5.895  14.766
49844W        W22192  13.153  33.072   2.863
49845W        W22193  31.140  31.521  12.910
49846W        W22194  41.917  17.735  11.396
49847W        W22195  17.249  27.152   3.738
49848W        W22196  24.122  27.692   4.155
49849W        W22197  17.176  30.457   4.718
49850W        W22198  11.276  42.901   1.211
49851W        W22199  30.470  13.142   5.186
49852W        W22200  10.225  19.672  11.535
49853W        W22201  16.762   9.365  13.504
49854W        W22202  24.089  35.980  14.948
49855W        W22203   8.656  40.448  10.471
49856W        W22204  32.131  28.124  12.029
49857W        W22205  38.342  34.394   0.273
49858W        W22206   7.246   0.373  14.290
49859W        W22207  24.024   2.812  14.409
49860W        W22208  17.097  14.667  14.863
49861W        W22209   3.832  39.461  13.475
49862W        W22210  30.000  27.107  14.290
49863W        W22211  40.313  14.812  13.327
49864W        W22212  30.064  13.617  12.941
49865W        W22213  31.956   7.735   9.437
49866W        W22214  27.075  27.661  13.535
49867W        W22215   0.408  29.568  11.457
49868W        W22216  24.115  14.240   4.741
49869W        W22217  28.446  15.183  14.922
49870W        W22218  28.033  16.696  14.281
49871W        W22219  38.055  39.816  14.345
49872W        W22220  27.094  42.372  12.844
49873W        W22221  21.588   8.279   5.115
49874W        W22222   4.859  30.603  13.855
49875W        W22223  18.060  17.682   4.832
49876W        W22224  21.147  14.149  14.825
49877W        W22225  16.291  42.788   4.354
49878W        W22226   4.366  44.367  13.442
49879W        W22227  33.608  41.393   2.329
49880W        W22228  35.050  44.851   3.275
49881W        W22229  43.296  33.580   1.730
49882W        W22230   4.841  40.342  11.129
49883W        W22231  13.661  32.628   3.695
49884W        W22232  31.002  34.448   3.637
49885W        W22233  33.502  29.644   2.696
49886W        W22234  35.994   6.347   1.791
49887W        W22235  41.835  36.487  14.374
49888W        W22236   2.345  30.535  12.869
49889W        W22237   9.878  25.590   0.929
49890W        W22238  14.731  13.336  14.287
49891W        W22239  15.725   7.739   3.305
49892W        W22240  21.652  16.784   0.935
49893W        W22241  35.077  35.891  10.153
49894W        W22242  22.043  43.875   3.707
49895W        W22243  24.087  20.623   3.800
49896W        W22244   4.265  23.150  11.079
49897W        W22245  13.765  21.603  14.513
49898W        W22246  41.469  38.392  14.808
49899W        W22247   5.851  41.975   3.212
49900W        W22248  33.571  19.071   3.761
49901W        W22249   9.794  25.179  13.902
49902W        W22250  21.033  25.971   4.689
49903W        W22251   8.756   1.941  12.873
49904W        W22252  11.803  13.265   2.675
49905W        W22253  22.680  31.639  13.428
49906W        W22254  12.119  22.661   0.464
49907W        W22255   7.351   4.879  14.321
49908W        W22256   1.829   4.429   4.829
49909W        W22257  35.558   7.210  14.819
49910W        W22258  23.702  18.751   3.197
49911W        W22259  31.087  27.619   4.137
49912W        W22260  25.183  14.736   0.830
49913W        W22261   7.864  36.350  14.767
49914W        W22262   3.814   1.903   0.818
49915W        W22263   4.717   7.742   0.308
49916W        W22264   4.223  36.563   0.951
49917W        W22265  28.459   3.353  13.023
49918W        W22266   3.744  24.175   0.934
49919W        W22267  40.049  35.521  12.395
49920W        W22268   3.454   2.304   0.804
49921W        W22269  40.536   4.862  13.831
49922W        W22270  41.469  23.552   1.426
49923W        W22271  22.211  16.813  11.982
49924W        W22272  19.152  28.532  11.545
49925W        W22273   9.650  20.197  11.971
49926W        W22274  22.113   7.829  13.052
49927W        W22275  27.138   7.720  12.568
49928W        W22276   6.845  30.993   9.654
49929W        W22277  21.543  32.517   2.239
49930W        W22278  28.160  37.004  13.530
49931W        W22279  12.181   2.952   3.681
49932W        W22280  11.325   1.252  13.384
49933W        W22281  29.633   8.657   3.177
49934W        W22282   5.729  13.651  13.927
49935W        W22283   1.914  28.043   2.200
49936W        W22284  43.431  30.507   3.682
49937W        W22285  31.573  15.240   0.832
49938W        W22286  17.574  28.184  14.987
49939W        W22287  16.688  14.249  14.961
49940W        W22288  24.115  42.361  11.993
49941W        W22289  20.158  43.991   4.160
49942W        W22290  24.058  11.210   1.843
49943W        W22291  39.488   2.938   1.839
49944W        W22292  28.654  23.656   4.297
49945W        W22293  27.961  37.927   4.649
49946W        W22294  16.079  18.207  10.641
49947W        W22295   9.812  22.574  10.475
49948W        W22296  42.899  29.649   5.106
49949W        W22297   8.884  38.986   2.749
49950W        W22298  32.004  17.758   0.335
49951W        W22299  32.589  44.414   2.294
49952W        W22300   1.832  10.834   2.200
49953W        W22301  17.165   0.292  10.925
49954W        W22302  24.010  11.845   2.408
49955W        W22303  25.599  32.056   2.374
49956W        W22304  44.800  12.211  13.908
49957W        W22305  40.390   9.828   2.718
49958W        W22306  19.640  23.237  10.530
49959W        W22307   8.688  18.256  14.452
49960W        W22308   6.851   3.798  11.574
49961W        W22309  16.145   9.727   4.231
49962W        W22310  18.169  17.235  13.457
49963W        W22311   7.248  36.445  11.875
49964W        W22312  38.948  41.390  10.631
49965W        W22313  36.885   4.833  14.014
49966W        W22314  44.804   7.362  11.120
49967W        W22315  41.946  28.947   2.742
49968W        W22316  23.592  12.628   1.699
49969W        W22317   5.906  44.472   0.471
49970W        W22318  18.155  31.064  13.308
49971W        W22319  23.081  41.900   1.295
49972W        W22320  20.685  26.621   2.750
49973W        W22321  24.994  11.361   2.274
49974W        W22322  29.542  27.604   1.396
49975W        W22323  31.483  44.836  14.875
49976W        W22324  14.610   5.894   0.895
49977W        W22325  19.620   5.707  11.036
49978W        W22326  29.080  40.967   4.663
49979W        W22327   3.745   2.287  14.446
49980W        W22328   2.446  37.044   1.336
49981W        W22329  10.217  24.676   2.404
49982W        W22330  21.174  39.065  14.957
49983W        W22331  35.095   3.392   1.862
49984W        W22332  31.101   3.835  14.279
49985W        W22333  24.119  15.143  13.902
49986W        W22334  29.471   0.386   2.874
49987W        W22335  25.170  28.666  12.836
49988W        W22336  35.008  39.337   4.779
49989W        W22337  29.135  33.071   4.628
49990W        W22338  29.983  19.174   2.294
49991W        W22339  27.986  14.808   4.198
49992W        W22340   1.756  43.403  13.442
49993W        W22341  28.002  31.506  11.598
49994W        W22342   0.379  41.980   1.894
49995W        W22343  33.911   6.815  11.523
49996W        W22344  32.011  18.068  13.539
49997W        W22345  22.720  19.049  13.518
49998W        W22346   7.335  10.373  12.097
49999W        W22347  43.385  15.213  13.872
50000W        W22348  28.164  18.655   0.876
50001W        W22349   7.822  37.010   4.610
50002W        W22350   8.661  21.189   0.402
50003W        W22351  43.471   0.367  13.490
50004W        W22352  16.610   0.882  10.451
50005W        W22353  44.791  36.393   4.294
50006W        W22354  29.932   0.953  12.084
50007W        W22355   4.205  23.196   0.336
50008W        W22356  31.950  20.121  13.365
50009W        W22357   0.361  37.931  13.356
50010W        W22358   0.789  24.516  11.390
50011W        W22359  12.189   1.876   1.724
50012W        W22360  37.347  25.197   2.345
50013W        W22361  18.622  10.288  14.348
50014W        W22362  42.419  41.871   1.437
50015W        W22363  44.794  10.207  11.019
50016W        W22364  18.204   0.315   1.263
50017W        W22365  19.215  18.773   4.131
50018W        W22366   1.792  20.252   0.897
50019W        W22367  26.540   3.438   1.888
50020W        W22368  21.047  18.583   5.116
50021W        W22369  16.804  19.138   2.750
50022W        W22370   4.698  10.670  13.441
50023W        W22371   7.804   9.660  12.536
50024W        W22372  42.923  10.704  14.359
50025W        W22373  42.443   7.186   3.811
50026W        W22374  44.447  43.849  14.877
50027W        W22375  21.698  24.010   2.391
50028W        W22376  12.261   6.840   1.391
50029W        W22377  39.548   7.376   0.741
50030W        W22378   9.227   0.932   2.887
50031W        W22379  33.509   7.893   4.125
50032W        W22380  24.675  36.365  14.425
50033W        W22381  42.926   1.428  12.967
50034W        W22382   8.304  10.309   3.771
50035W        W22383  12.263   1.413  13.385
50036W        W22384  44.311  39.004   4.195
50037W        W22385  36.843  12.264  12.855
50038W        W22386  28.447  28.674   3.729
50039W        W22387  42.019   7.690  13.374
50040W        W22388  44.500  42.831   5.298
50041W        W22389  11.171  23.018   1.930
50042W        W22390  20.257  40.025  12.033
50043W        W22391  20.049  39.431   3.262
50044W        W22392  26.987  31.947  14.904
50045W        W22393  33.071  34.599   2.846
50046W        W22394  18.552   3.713  14.815
50047W        W22395  37.951  21.179  11.608
50048W        W22396  39.415  43.837  13.493
50049W        W22397  40.484  13.821  13.043
50050W        W22398  26.137  14.665  10.995
50051W        W22399  13.180  24.149  11.533
50052W        W22400   2.243  40.353  11.889
50053W        W22401  26.155   2.851  12.836
50054W        W22402  36.566  26.518  11.460
50055W        W22403  22.703  37.410  12.451
50056W        W22404  37.941  12.191  11.541
50057W        W22405  35.074  35.422  13.992
50058W        W22406  11.240  31.623  13.471
50059W        W22407  19.658  34.517  10.958
50060W        W22408  44.317  40.411   1.706
50061W        W22409  34.420  25.704  14.404
50062W        W22410  30.414  40.508   0.367
50063W        W22411  34.567  27.610  10.465
50064W        W22412  38.398  21.611  10.606
50065W        W22413  15.784  44.289   0.816
50066W        W22414  21.222   4.217  12.488
50067W        W22415  23.015  30.946   1.348
50068W        W22416  37.369  14.719   4.126
50069W        W22417  37.859  26.155  14.895
50070W        W22418   8.163  31.023  14.346
50071W        W22419  29.088  23.143   0.303
50072W        W22420  25.986  35.588  10.894
50073W        W22421  14.098  32.027   0.946
50074W        W22422  39.366  24.538   0.288
50075W        W22423  12.193  33.049   3.797
50076W        W22424   3.350  37.451  13.909
50077W        W22425  19.744  43.934  13.854
50078W        W22426  44.334   9.845  12.933
50079W        W22427  15.239   3.382  10.539
50080W        W22428  43.413  42.371   4.679
50081W        W22429  34.611  31.054  11.379
50082W        W22430  33.543  24.702  14.409
50083W        W22431   5.740  29.561   1.407
50084W        W22432  33.893  34.586   5.157
50085W        W22433  31.963   1.399   5.303
50086W        W22434  39.427  23.593   1.335
50087W        W22435  36.535  32.553  14.278
50088W        W22436  39.358  30.947  14.814
50089W        W22437  18.631  21.756  11.070
50090W        W22438  21.647  37.015   1.751
50091W        W22439  38.876  27.137   4.653
50092W        W22440   1.289   2.331  10.972
50093W        W22441   0.417  41.401   1.263
50094W        W22442  18.633   3.946   3.230
50095W        W22443  22.639  23.034   1.438
50096W        W22444  38.848  13.648   0.275
50097W        W22445   5.915  31.535   5.102
50098W        W22446   0.916  36.400   2.790
50099W        W22447  42.359  12.711  13.887
50100W        W22448  37.405  39.456   0.856
50101W        W22449  21.757  24.609   0.959
50102W        W22450  44.896  15.780   0.358
50103W        W22451  26.657  11.863   1.858
50104W        W22452  29.613   1.357   0.409
50105W        W22453   0.360  31.102   3.651
50106W        W22454  31.532  19.661   0.772
50107W        W22455  24.679  15.243  13.429
50108W        W22456  37.481  28.065   0.387
50109W        W22457  42.338  36.041  11.508
50110W        W22458  19.080   0.779  13.360
50111W        W22459  42.850  11.301   0.771
50112W        W22460  26.046  37.923  14.513
50113W        W22461  19.077  31.116   3.742
50114W        W22462  33.968   2.400  11.113
50115W        W22463  21.643  41.530  13.520
50116W        W22464   5.289   1.272   4.345
50117W        W22465  40.545   8.242   2.886
50118W        W22466  31.606   2.369   2.858
50119W        W22467   7.373  18.061  12.922
50120W        W22468  28.492   5.214  10.620
50121W        W22469  26.065   3.710  12.886
50122W        W22470  13.728   6.825  11.076
50123W        W22471  40.376  16.218  12.560
50124W        W22472  24.660  37.962   4.149
50125W        W22473   2.300   1.304  11.517
50126W        W22474  16.294  18.269   4.309
50127W        W22475  29.040  27.137  14.018
50128W        W22476  15.197  29.055   2.323
50129W        W22477  13.825  36.046  10.430
50130W        W22478  18.158  37.893  12.010
50131W        W22479  37.504  35.087  11.411
50132W        W22480   4.235  35.006  10.529
50133W        W22481  29.514  26.521  11.553
50134W        W22482  15.320  36.450  12.020
50135W        W22483  28.031  28.615   0.404
50136W        W22484   1.841  44.437  11.608
50137W        W22485  19.730  39.495  13.512
50138W        W22486  38.371  40.798   2.256
50139W        W22487   8.171   3.403   0.408
50140W        W22488  39.392  22.582   2.868
50141W        W22489  25.100  42.826   2.897
50142W        W22490  43.991  36.907   4.658
50143W        W22491  18.120   9.300  11.549
50144W        W22492  37.363  35.864  13.029
50145W        W22493  33.969  42.453  11.906
50146W        W22494  12.782  13.303  14.977
50147W        W22495  41.373  30.134  14.013
50148W        W22496  29.490   1.482   4.711
50149W        W22497  37.448  30.582   4.633
50150W        W22498  10.877   1.323   3.214
50151W        W22499  29.607  23.152  10.465
50152W        W22500  23.657  44.867   0.460
50153W        W22501  41.809  23.207   1.411
50154W        W22502  10.221   9.863   2.340
50155W        W22503  15.701  20.550  13.539
50156W        W22504   3.419  34.920  14.837
50157W        W22505  32.942  21.132  13.354
50158W        W22506  36.057   9.855  13.411
50159W        W22507  25.057   4.394   0.788
50160W        W22508  32.475  23.165   1.888
50161W        W22509  23.018  33.091   0.945
50162W        W22510   4.859  29.447   5.259
50163W        W22511   7.417  18.658  11.413
50164W        W22512   8.877  19.570  13.009
50165W        W22513  32.001  15.112   0.741
50166W        W22514  20.042  17.597  12.527
50167W        W22515  39.032  30.615  12.451
50168W        W22516   6.686  23.179   4.646
50169W        W22517  20.048   4.866   3.681
50170W        W22518  29.594  27.167  10.542
50171W        W22519  26.642   2.239   5.218
50172W        W22520  17.679  19.270  11.904
50173W        W22521  19.243  44.471  13.925
50174W        W22522  27.188  22.054  12.475
50175W        W22523  15.579  10.705   1.911
50176W        W22524  13.677  41.299   1.309
50177W        W22525  19.698  42.408  13.973
50178W        W22526  42.373  38.386   2.372
50179W        W22527  40.054  11.670   1.236
50180W        W22528  31.103  10.823  13.378
50181W        W22529  34.994   6.741   0.434
50182W        W22530  31.484  18.139   4.693
50183W        W22531  12.266  32.094   4.617
50184W        W22532  32.983  17.559   3.814
50185W        W22533   7.739  41.446   2.389
50186W        W22534  23.694  30.556  13.895
50187W        W22535  34.034   2.429  13.062
50188W        W22536  30.551  17.279   2.897
50189W        W22537   0.290   5.367   4.236
50190W        W22538   4.898  27.101  14.348
50191W        W22539  32.061  25.046   1.748
50192W        W22540  30.502   5.779  12.091
50193W        W22541  30.983  20.724   2.803
50194W        W22542  42.964  10.225   2.749
50195W        W22543  11.142   5.254  13.804
50196W        W22544  15.759  24.974  11.083
50197W        W22545  44.334   5.385  12.842
50198W        W22546  20.621  12.734   3.276
50199W        W22547  31.547   6.912   3.251
50200W        W22548  15.326   5.439  14.799
50201W        W22549  40.824  32.552   1.902
50202W        W22550   2.277  43.275   3.191
50203W        W22551   1.894  22.182  13.369
50204W        W22552  37.472  17.301  12.537
50205W        W22553  18.716  22.239  13.037
50206W        W22554  25.107  22.555   0.349
50207W        W22555  23.518   0.334   4.691
50208W        W22556  37.051  30.109  13.461
50209W        W22557  44.809  39.970   1.906
50210W        W22558  37.361  13.830   3.387
50211W        W22559  41.824  21.613  12.924
50212W        W22560   5.816  30.984  11.924
50213W        W22561  26.522  39.471   1.211
50214W        W22562  11.334  18.286  12.862
50215W        W22563  18.785   3.866   2.706
50216W        W22564  12.742  41.963   3.357
50217W        W22565  32.950  27.508   0.292
50218W        W22566   2.269  16.220   1.416
50219W        W22567   8.786  27.950  12.339
50220W        W22568  16.210  16.143   2.673
50221W        W22569  13.684  15.107   4.188
50222W        W22570  13.164  28.087  13.425
50223W        W22571  25.137  36.571   1.873
50224W        W22572   1.738  42.385  11.877
50225W        W22573   5.813  37.501   2.790
50226W        W22574  27.078  19.769   1.748
50227W        W22575  16.700   4.287   1.920
50228W        W22576  10.809  19.186   4.708
50229W        W22577   7.779  27.990  11.942
50230W        W22578  22.057  11.213   2.241
50231W        W22579   8.377   6.829   1.862
50232W        W22580   2.900  23.183  10.583
50233W        W22581  38.888  20.140   2.771
50234W        W22582  11.317  31.040  14.021
50235W        W22583  14.690   7.693   2.698
50236W        W22584  25.970  34.919  12.963
50237W        W22585  26.634   7.817  11.856
50238W        W22586  16.703   5.260   1.878
50239W        W22587  27.540   6.322  11.903
50240W        W22588  34.427  28.622   0.869
50241W        W22589  15.732   7.803   0.391
50242W        W22590  40.469  20.762  12.968
50243W        W22591  42.281  34.866  13.973
50244W        W22592  12.330  30.569  13.450
50245W        W22593  22.594  19.644   2.747
50246W        W22594   3.713   0.374   5.224
50247W        W22595  28.944  29.168   3.746
50248W        W22596  12.707  17.788  12.973
50249W        W22597  25.528   7.333   4.143
50250W        W22598  38.441  17.195  13.793
50251W        W22599  35.090  15.703  12.481
50252W        W22600  21.256  36.953   0.479
50253W        W22601  20.132  31.519  10.486
50254W        W22602   2.897  34.915   4.332
50255W        W22603   5.746   9.840  11.030
50256W        W22604  34.579  40.504  10.964
50257W        W22605  38.497   3.433   4.218
50258W        W22606  27.506  13.346   0.410
50259W        W22607  33.513  15.184   2.316
50260W        W22608  18.750  34.437   2.359
50261W        W22609  25.672   4.843  12.855
50262W        W22610  17.770  19.283   4.727
50263W        W22611  22.192  40.869  10.641
50264W        W22612  14.684  34.408   4.680
50265W        W22613  32.110  18.601   4.245
50266W        W22614  24.610  34.025   4.137
50267W        W22615  35.416   3.413  14.319
50268W        W22616  38.343  25.563   1.305
50269W        W22617   6.244  24.635   2.313
50270W        W22618  34.449  42.983   0.749
50271W        W22619   2.919  34.400   3.357
50272W        W22620   4.829  26.643  13.351
50273W        W22621  39.817  13.198   4.278
50274W        W22622  37.357   3.820  14.390
50275W        W22623  30.012  18.547   2.248
50276W        W22624  13.310   5.409   3.779
50277W        W22625  27.550  10.326   0.881
50278W        W22626  40.405  33.093  10.428
50279W        W22627   2.859  17.220   2.398
50280W        W22628  24.098  37.980  12.545
50281W        W22629  27.041  32.075  10.570
50282W        W22630  26.487   4.864   3.798
50283W        W22631   1.342  29.993  13.039
50284W        W22632  24.070  26.954  13.449
50285W        W22633  33.126  28.991   0.910
50286W        W22634  31.102   3.798   2.280
50287W        W22635  35.991  42.849  10.427
50288W        W22636  33.120  43.917   0.330
50289W        W22637  44.868  41.533  14.435
50290W        W22638  33.054  29.171   3.677
50291W        W22639  28.930  10.193  13.342
50292W        W22640  42.300  15.132   3.771
50293W        W22641  25.053   6.679  14.493
50294W        W22642   4.368  41.355  11.439
50295W        W22643  11.187  36.368  12.567
50296W        W22644   4.222   8.313  13.431
50297W        W22645  33.586  39.003  13.895
50298W        W22646  31.085  33.011  14.975
50299W        W22647  39.841  44.332   1.922
50300W        W22648  21.026  42.367  14.945
50301W        W22649  38.568   5.344   2.188
50302W        W22650  34.370  41.873  13.833
50303W        W22651  28.488  32.436  10.583
50304W        W22652  32.112  15.794   3.652
50305W        W22653  31.615  22.149  12.441
50306W        W22654  44.297  21.140   0.793
50307W        W22655  36.354  33.001  10.950
50308W        W22656  15.256  42.017   3.736
50309W        W22657  34.962  31.508  14.361
50310W        W22658  43.307  16.092  10.938
50311W        W22659  28.660  22.149  11.898
50312W        W22660   5.434  13.214  11.486
50313W        W22661   3.253  42.333  14.437
50314W        W22662  14.596  12.800  12.964
50315W        W22663  26.077  30.918   1.339
50316W        W22664  20.537  31.990   5.303
50317W        W22665  10.284  12.131   4.131
50318W        W22666  42.366  14.649  14.366
50319W        W22667  12.745   5.715  11.125
50320W        W22668  42.293  24.622  13.310
50321W        W22669  27.622  10.176   1.421
50322W        W22670   2.310  16.107   4.165
50323W        W22671  35.390   2.934   1.822
50324W        W22672  12.165  24.620  11.524
50325W        W22673  42.526  10.878  13.919
50326W        W22674  16.294   6.847  11.388
50327W        W22675  18.619  37.985   3.171
50328W        W22676  43.905   6.268   2.358
50329W        W22677  26.018   4.898   3.640
50330W        W22678  31.444  37.059  10.547
50331W        W22679   4.312  37.508  14.840
50332W        W22680  36.859  33.455  11.947
50333W        W22681  16.236  25.011  13.955
50334W        W22682  13.220  28.991   1.749
50335W        W22683  14.610  28.615   1.328
50336W        W22684  13.658  22.735   0.807
50337W        W22685  32.068  16.176  11.398
50338W        W22686  35.931  36.469   4.720
50339W        W22687   4.233   0.395   0.348
50340W        W22688  26.129  18.544   3.739
50341W        W22689  11.323  33.544  12.452
50342W        W22690   9.170  32.026   4.115
50343W        W22691  44.835   1.435   1.346
50344W        W22692  16.583  26.688  12.540
50345W        W22693   1.300   1.822   1.773
50346W        W22694   0.392  24.566   4.819
50347W        W22695  23.213   2.885  10.616
50348W        W22696  37.831  22.585  12.954
50349W        W22697  18.091  43.398  13.046
50350W        W22698  25.673  20.728  13.424
50351W        W22699  39.855   3.727   4.796
50352W        W22700  36.919  37.068  10.409
50353W        W22701  28.636   0.857   0.955
50354W        W22702  28.639  43.395  11.521
50355W        W22703  23.038  36.019  13.462
50356W        W22704  34.999  41.878   0.425
50357W        W22705  33.039   0.337  10.621
50358W        W22706  19.214  20.147   1.267
50359W        W22707  23.104   6.808  14.315
50360W        W22708  33.110  33.602   1.239
50361W        W22709  31.024   4.436  13.481
50362W        W22710  16.611  32.902   2.667
50363W        W22711  11.153   6.229   2.711
50364W        W22712  27.072  16.240  13.338
50365W        W22713  23.113  18.622  14.921
50366W        W22714  41.036  41.864   1.446
50367W        W22715  12.835  24.984   3.759
50368W        W22716  39.483  37.927  12.838
50369W        W22717  19.054   3.372  10.495
50370W        W22718  34.606  37.547  10.558
50371W        W22719  33.534  27.993  10.104
50372W        W22720   7.827  17.297  10.066
50373W        W22721  16.794   3.747   0.473
50374W        W22722  14.648  16.810   4.340
50375W        W22723  20.766  38.050   3.197
50376W        W22724  37.969  20.038  13.823
50377W        W22725  33.976   4.371  11.453
50378W        W22726  12.174   4.218   0.272
50379W        W22727   6.817  25.073   3.384
50380W        W22728  33.953   1.919  12.558
50381W        W22729   2.875  22.010  11.933
50382W        W22730  22.547   2.347  12.414
50383W        W22731   3.736  25.469   3.191
50384W        W22732   4.835  18.189  13.890
50385W        W22733  16.627  24.217   3.760
50386W        W22734  28.951   8.266  10.495
50387W        W22735  20.246  21.688   3.772
50388W        W22736  25.601   2.919   0.291
50389W        W22737  42.893  11.320  14.865
50390W        W22738  12.361   3.756  12.421
50391W        W22739   5.372  13.118   1.764
50392W        W22740  28.955  44.395   4.233
50393W        W22741  12.736   6.325  14.368
50394W        W22742  40.990   5.689   2.791
50395W        W22743  37.565  26.103   2.848
50396W        W22744   2.364  22.718   2.791
50397W        W22745  38.542  38.997   3.241
50398W        W22746  19.709   4.907   1.829
50399W        W22747   3.248  40.824   0.958
50400W        W22748  32.069   5.195   1.305
50401W        W22749  28.938  18.791   3.659
50402W        W22750  13.696   6.381  14.800
50403W        W22751   4.395  40.326  11.119
50404W        W22752  32.889  42.343  14.899
50405W        W22753   4.243  41.483  13.403
50406W        W22754  43.486  10.170   4.138
50407W        W22755  19.779   6.256  13.537
50408W        W22756  19.773  23.027  11.930
50409W        W22757  22.706  32.631   2.711
50410W        W22758  17.261  30.656   2.753
50411W        W22759   2.959  24.128  11.013
50412W        W22760  11.714  12.328   2.301
50413W        W22761  18.138  20.040   2.311
50414W        W22762  24.196  22.144  10.551
50415W        W22763  42.961  16.240  11.095
50416W        W22764   9.741  32.995   3.844
50417W        W22765   7.815  28.442  12.980
50418W        W22766   9.391  18.291   2.662
50419W        W22767  32.119   6.830   0.782
50420W        W22768  42.404  20.092  12.824
50421W        W22769  22.548  41.425  11.585
50422W        W22770  18.675  10.760  14.862
50423W        W22771  29.107  31.003   4.167
50424W        W22772  13.260  41.524  14.761
50425W        W22773  16.182  28.552   2.854
50426W        W22774  24.537   7.752  13.421
50427W        W22775  18.091  35.054  14.449
50428W        W22776  38.969  37.943   1.342
50429W        W22777  35.013  44.951   3.798
50430W        W22778   1.811  15.270  14.489
50431W        W22779  39.923   0.788  13.800
50432W        W22780  13.705  38.042  11.077
50433W        W22781  37.841  33.103  13.005
50434W        W22782  33.430  27.968   5.168
50435W        W22783  43.938  24.094   0.360
50436W        W22784  36.895  42.924  14.973
50437W        W22785  36.503  23.581   4.707
50438W        W22786  34.026  39.819  14.389
50439W        W22787   5.755  25.110  14.377
50440W        W22788  13.264   3.360   1.343
50441W        W22789  38.399  25.494  10.504
50442W        W22790  19.576  27.072  13.370
50443W        W22791  14.706   7.279   1.853
50444W        W22792  42.827  34.382   2.735
50445W        W22793  22.215  24.626  14.380
50446W        W22794  33.914   2.854   1.925
50447W        W22795  30.918  26.559  11.612
50448W        W22796   3.367  32.521  13.870
50449W        W22797  19.280  18.720   1.284
50450W        W22798  37.880  35.501   1.287
50451W        W22799  17.719  19.178  14.894
50452W        W22800   3.380  20.098  10.595
50453W        W22801   1.817  14.304   4.826
50454W        W22802  17.683  37.390  11.947
50455W        W22803  11.260  27.042  10.565
50456W        W22804  11.347  36.556  11.034
50457W        W22805  10.701   9.300  11.997
50458W        W22806  11.735  19.111   9.955
50459W        W22807  25.162  34.964  13.386
50460W        W22808  39.315  29.953   3.302
50461W        W22809  40.477  27.948   1.436
50462W        W22810  28.175   0.380  10.483
50463W        W22811  28.444  34.532  11.526
50464W        W22812  22.745  35.950  14.511
50465W        W22813  26.135  17.759  10.486
50466W        W22814  16.179  29.165  11.051
50467W        W22815  39.425  11.370   0.450
50468W        W22816   9.714  15.708  12.896
50469W        W22817  38.910  33.437   3.339
50470W        W22818  44.314  25.058   0.332
50471W        W22819  23.236  23.200  13.035
50472W        W22820  34.418  22.174  14.367
50473W        W22821  29.052   0.958  10.489
50474W        W22822   6.222   4.936  11.114
50475W        W22823   6.822   4.294   3.852
50476W        W22824  14.604  14.234   5.600
50477W        W22825  23.507  14.210  14.769
50478W        W22826  38.986  34.527  14.390
50479W        W22827  14.284  29.152   4.328
50480W        W22828  24.617  13.227  12.543
50481W        W22829  34.952   0.951  13.471
50482W        W22830  35.885   8.262  11.963
50483W        W22831  27.599   1.334   3.366
50484W        W22832  18.582  43.848   3.677
50485W        W22833  22.998  24.668  14.902
50486W        W22834  35.374  12.720  14.002
50487W        W22835  12.300  12.267  13.984
50488W        W22836  43.447  11.333  13.862
50489W        W22837   0.920  30.500   0.304
50490W        W22838   5.295  13.698  11.029
50491W        W22839  23.526  39.520  13.487
50492W        W22840  37.972  27.971  14.396
50493W        W22841  37.369  30.482   0.367
50494W        W22842  14.638   0.816   0.396
50495W        W22843  41.824  41.883  10.441
50496W        W22844   1.239  17.093   2.710
50497W        W22845  25.565   0.932   1.345
50498W        W22846  12.127  43.384   1.236
50499W        W22847   8.342  17.589   4.259
50500W        W22848   8.385   5.717  13.325
50501W        W22849  32.510  43.913  10.943
50502W        W22850  24.047  36.972   0.798
50503W        W22851  44.281   4.381   0.786
50504W        W22852  12.804  21.177   5.164
50505W        W22853  21.641  32.488   4.309
50506W        W22854   7.214  29.641   3.717
50507W        W22855   6.798  41.820  14.471
50508W        W22856  23.507   1.373  13.048
50509W        W22857  25.682  16.101  13.319
50510W        W22858  11.697  33.620   3.168
50511W        W22859  25.509  23.688  12.011
50512W        W22860  25.612  34.989   4.189
50513W        W22861  29.517  35.988   0.469
50514W        W22862  32.477  33.602   0.471
50515W        W22863  33.485   2.778  12.579
50516W        W22864  11.833  28.659   0.903
50517W        W22865   4.260   8.674   0.807
50518W        W22866  34.614  17.604   0.891
50519W        W22867  41.349  44.410  12.889
50520W        W22868  29.580  14.337  13.959
50521W        W22869   3.407   8.660   4.164
50522W        W22870   7.738   4.774   2.292
50523W        W22871  37.862  32.127  10.638
50524W        W22872  19.591  41.483   2.809
50525W        W22873  12.154   0.475   0.811
50526W        W22874  30.130  40.800  12.438
50527W        W22875  35.527   8.402  10.524
50528W        W22876  25.045  16.290   3.678
50529W        W22877  44.465  10.187  14.975
50530W        W22878  14.729  42.426  10.922
50531W        W22879  30.959  33.437   2.359
50532W        W22880  33.879  14.786  13.379
50533W        W22881  39.911  28.169   1.308
50534W        W22882  26.516  19.064  10.938
50535W        W22883  37.004   6.369  11.434
50536W        W22884   9.313  32.627  13.809
50537W        W22885  16.807  19.774  12.072
50538W        W22886   7.219  44.433  13.016
50539W        W22887  26.668  14.705  12.536
50540W        W22888  36.558  16.204  11.905
50541W        W22889  38.859  23.574  12.096
50542W        W22890  36.513  18.556   3.846
50543W        W22891  31.121   8.160  10.951
50544W        W22892  27.554  42.289   0.850
50545W        W22893  27.577  35.891  11.371
50546W        W22894  41.988  36.093  10.635
50547W        W22895  40.857  24.172  10.583
50548W        W22896  39.986  18.733   3.747
50549W        W22897  39.430  20.177   1.287
50550W        W22898   6.346  27.181  12.414
50551W        W22899  39.981   5.438   4.813
50552W        W22900  39.372  14.666   4.195
50553W        W22901  44.780  10.707   1.899
50554W        W22902  36.892  37.952  13.976
50555W        W22903   4.437  12.255  13.529
50556W        W22904  23.659   1.469  12.517
50557W        W22905  10.781  32.046   0.766
50558W        W22906   0.860  11.318   1.830
50559W        W22907   7.798  20.034  11.991
50560W        W22908  31.105   1.769   0.434
50561W        W22909  40.455  30.130   1.335
50562W        W22910  14.226  33.481  14.767
50563W        W22911  31.610  16.642   2.240
50564W        W22912  19.593   3.239   3.723
50565W        W22913  32.586   4.932  14.408
50566W        W22914  26.107  18.734  12.393
50567W        W22915  10.785  29.527   0.319
50568W        W22916   4.282  35.078  11.913
50569W        W22917  17.785  14.309   1.925
50570W        W22918   2.469  18.209  11.449
50571W        W22919  44.452  25.112   4.648
50572W        W22920  18.654  20.703  13.324
50573W        W22921  35.973  30.125  13.055
50574W        W22922   3.874  28.005   9.944
50575W        W22923  13.250  14.300   4.262
50576W        W22924  44.426   8.794  11.869
50577W        W22925  21.611  43.903   4.659
50578W        W22926  38.049   0.814  13.938
50579W        W22927  17.107  13.669  14.340
50580W        W22928   0.414  41.532  11.463
50581W        W22929  33.584  32.016  10.965
50582W        W22930   1.969  13.607   1.317
50583W        W22931   8.757  26.020  14.862
50584W        W22932  27.123  20.759   4.617
50585W        W22933  23.031   0.742  12.054
50586W        W22934   7.778  31.426   3.158
50587W        W22935  28.103  41.467  10.041
50588W        W22936   8.823  10.222   4.822
50589W        W22937  35.419  35.529   3.783
50590W        W22938  25.216   3.261   3.154
50591W        W22939  41.387  38.956   3.239
50592W        W22940  25.549   2.900  13.952
50593W        W22941  14.321   4.281   1.442
50594W        W22942  40.897   3.852  14.361
50595W        W22943  34.894   9.391  13.991
50596W        W22944  40.819  44.952   0.286
50597W        W22945  17.781  18.063   0.368
50598W        W22946  37.405  28.608  14.934
50599W        W22947   2.822  23.050   0.842
50600W        W22948   1.838   8.267   0.896
50601W        W22949  34.590   3.782   2.377
50602W        W22950  21.193  40.358  10.415
50603W        W22951   9.315  35.978   4.150
50604W        W22952  23.697  40.917   2.304
50605W        W22953  34.563  20.086  12.400
50606W        W22954  38.043  10.774  12.544
50607W        W22955   4.332  12.678  10.907
50608W        W22956  38.396   9.313  14.836
50609W        W22957  17.649  21.610  11.534
50610W        W22958  25.090   6.741  14.772
50611W        W22959  38.062  42.377  13.839
50612W        W22960   9.335  25.016  14.774
50613W        W22961  12.295   0.364   3.688
50614W        W22962   1.758  33.075   0.343
50615W        W22963  20.752   4.413   2.812
50616W        W22964   3.217  30.069   3.353
50617W        W22965   3.721  44.436  13.060
50618W        W22966  11.803   5.712  14.985
50619W        W22967   7.690  21.207  14.893
50620W        W22968  24.022   8.324  12.918
50621W        W22969  42.402  28.534   1.921
50622W        W22970  10.819  21.130   4.227
50623W        W22971  23.170  15.235  13.957
50624W        W22972  10.717  41.374   3.335
50625W        W22973  38.018  43.318  12.079
50626W        W22974  41.028  43.794  13.479
50627W        W22975  30.519   3.255  13.013
50628W        W22976   8.660  17.157   1.771
50629W        W22977  38.045  39.031  12.087
50630W        W22978  14.717  17.164  14.978
50631W        W22979  25.591  41.380  11.935
50632W        W22980   3.855  26.684  12.926
50633W        W22981  36.391  31.470   0.361
50634W        W22982  27.515  20.706  11.574
50635W        W22983  40.407  18.137  11.522
50636W        W22984  29.153   6.849  10.572
50637W        W22985  25.084  42.336   4.716
50638W        W22986  39.433   5.306   5.147
50639W        W22987  11.745  28.087  10.551
50640W        W22988  26.041  20.094   0.325
50641W        W22989  17.563  21.107  10.935
50642W        W22990   3.319   3.349  13.515
50643W        W22991  33.403  37.924  14.958
50644W        W22992   2.794  17.178   1.410
50645W        W22993  16.796  25.203   0.957
50646W        W22994  21.551  13.733  13.488
50647W        W22995  38.362  38.931   0.749
50648W        W22996  31.027  19.062   3.227
50649W        W22997  13.207   0.786   3.723
50650W        W22998  21.666  15.097  12.341
50651W        W22999  37.913  14.133  10.978
50652W        W23000  23.728  41.868   4.827
50653W        W23001  11.778  12.309   2.851
50654W        W23002   4.431  14.823   0.883
50655W        W23003  16.262  15.818  14.415
50656W        W23004   6.834  34.492   0.882
50657W        W23005  31.014  23.149  11.078
50658W        W23006  27.596  39.809  11.382
50659W        W23007   5.892   0.490   4.290
50660W        W23008   4.408  40.911   1.314
50661W        W23009  16.595  25.096  14.315
50662W        W23010  24.996  35.051   4.778
50663W        W23011  16.108  29.072  12.926
50664W        W23012  24.045  36.918   4.230
50665W        W23013   3.248  42.482   0.907
50666W        W23014  26.042  25.668   3.833
50667W        W23015  35.876  21.145   2.404
50668W        W23016  44.925  23.678   0.873
50669W        W23017  32.614  44.772   3.232
50670W        W23018   7.839  15.244   2.315
50671W        W23019  18.079  15.136   4.326
50672W        W23020  17.773  44.996   4.611
50673W        W23021  19.716  32.510  13.044
50674W        W23022  28.150  38.335   3.173
50675W        W23023   7.387  22.585  10.899
50676W        W23024  19.219  23.688  14.399
50677W        W23025  23.044  33.427  13.521
50678W        W23026  25.152   1.951   2.682
50679W        W23027  12.830   4.789   2.687
50680W        W23028  34.520  15.230   1.931
50681W        W23029  39.055   0.792  10.901
50682W        W23030  24.099  33.944   1.257
50683W        W23031  32.044  44.421   2.803
50684W        W23032  21.690  42.411   3.780
50685W        W23033  37.849  44.464  13.814
50686W        W23034  44.844   3.340   3.248
50687W        W23035   2.458  39.908  11.042
50688W        W23036  24.705   0.813  14.345
50689W        W23037   9.670  24.086  13.349
50690W        W23038  10.647   2.893   1.268
50691W        W23039   8.735   7.786  11.373
50692W        W23040  14.733  19.182   4.174
50693W        W23041  32.052  13.609   3.260
50694W        W23042  33.069   9.825   3.661
50695W        W23043  12.814  22.569   1.437
50696W        W23044   3.240  31.632  11.901
50697W        W23045  30.598  40.927   3.264
50698W        W23046  35.042  29.654  12.441
50699W        W23047  15.609   8.703  11.582
50700W        W23048  25.519  43.909  14.462
50701W        W23049   4.747  33.407   3.731
50702W        W23050  21.657  43.997   1.444
50703W        W23051   1.338  29.031  13.896
50704W        W23052  21.605  30.021   4.324
50705W        W23053   1.472  41.393  12.390
50706W        W23054  11.260  13.142  12.005
50707W        W23055  40.502  30.599  11.444
50708W        W23056  12.672  41.934   2.760
50709W        W23057   5.720   5.758  10.534
50710W        W23058  36.902  31.477   0.799
50711W        W23059   8.687  10.738  12.403
50712W        W23060  25.504  35.508  14.299
50713W        W23061  19.649  12.120   4.641
50714W        W23062  30.149   7.712   3.217
50715W        W23063  31.999  17.558   0.779
50716W        W23064  11.308  30.948   1.407
50717W        W23065   3.847  36.590   0.370
50718W        W23066  23.638  20.700   4.795
50719W        W23067  25.184  12.254   4.286
50720W        W23068  38.064  16.642   0.391
50721W        W23069  16.206  25.180  11.071
50722W        W23070   4.273  33.414  10.929
50723W        W23071  37.540   3.331   3.255
50724W        W23072  35.392  22.620   5.782
50725W        W23073   9.293   9.161   2.291
50726W        W23074  44.367  32.899   1.316
50727W        W23075  12.787  14.190  13.876
50728W        W23076  36.911  36.543  12.342
50729W        W23077  41.467   7.670  12.992
50730W        W23078  42.990  15.191  12.050
50731W        W23079  43.999  43.414   4.316
50732W        W23080   8.210   1.262   1.263
50733W        W23081  44.329   9.785  13.498
50734W        W23082  23.172  32.513  10.635
50735W        W23083  19.600   3.873   2.215
50736W        W23084  25.974  44.429   2.855
50737W        W23085  17.139  13.189  11.940
50738W        W23086  13.202  35.396  14.794
50739W        W23087  11.349   5.778   4.698
50740W        W23088  32.020  44.351   3.631
50741W        W23089   2.446  15.088  11.054
50742W        W23090  21.607   8.258   0.311
50743W        W23091  44.302  43.325  10.609
50744W        W23092   8.713  12.153  12.080
50745W        W23093  13.344  29.611   4.658
50746W        W23094  44.949   1.829   1.907
50747W        W23095   7.799  27.541   3.711
50748W        W23096   1.947  36.039   1.789
50749W        W23097   7.796  41.351   5.130
50750W        W23098  26.615  39.343   0.322
50751W        W23099  27.949  15.126  11.022
50752W        W23100  10.329   5.406  12.089
50753W        W23101  44.828  35.429  10.519
50754W        W23102  16.178  27.537  12.037
50755W        W23103  43.389  32.942   3.362
50756W        W23104   2.451  10.339  11.609
50757W        W23105  24.612  40.435   4.351
50758W        W23106  19.090   3.939   2.355
50759W        W23107  41.908  33.906   1.348
50760W        W23108   2.797  13.796  12.849
50761W        W23109  26.639  38.869  14.951
50762W        W23110  20.205  25.142  10.049
50763W        W23111  13.164  43.770  12.371
50764W        W23112  40.534  37.445   0.244
50765W        W23113   8.336  20.652   3.862
50766W        W23114  24.144  27.625   0.398
50767W        W23115  39.936  24.577   3.183
50768W        W23116  35.581   5.700  13.861
50769W        W23117  11.157  21.563  10.518
50770W        W23118  43.414  18.168  12.013
50771W        W23119  28.930  17.064   0.780
50772W        W23120  24.112  12.819   1.297
50773W        W23121   2.961  13.792  11.096
50774W        W23122  10.695   5.427  11.976
50775W        W23123  21.184  21.175   2.224
50776W        W23124  30.030  12.178   3.216
50777W        W23125   5.240  30.930   3.698
50778W        W23126  34.603  44.812  11.395
50779W        W23127   9.686  31.578   0.400
50780W        W23128  16.250   0.904  12.478
50781W        W23129  40.475  32.442   0.746
50782W        W23130  26.483   2.920  12.950
50783W        W23131   0.985  44.302   5.240
50784W        W23132  31.019  18.088  11.887
50785W        W23133  40.465  12.335   0.322
50786W        W23134   1.741  27.473   1.800
50787W        W23135  24.594   3.886  14.787
50788W        W23136  41.398  29.145   0.841
50789W        W23137  34.959  15.189   2.222
50790W        W23138  38.384  23.668  12.890
50791W        W23139  27.511  35.437   1.848
50792W        W23140  25.711  39.956   3.179
50793W        W23141  14.101  42.465  12.571
50794W        W23142   2.432   3.223  12.916
50795W        W23143  18.690  28.561   1.792
50796W        W23144  28.050  10.643   0.763
50797W        W23145   9.863   5.807  11.051
50798W        W23146  22.581  21.194  14.441
50799W        W23147  22.605  41.806  12.409
50800W        W23148  11.248  41.870  14.839
50801W        W23149  19.063  30.155  11.463
50802W        W23150   4.262  20.745  11.115
50803W        W23151  29.492  35.868  13.536
50804W        W23152  14.294  22.156   1.724
50805W        W23153  16.305  34.528  13.484
50806W        W23154  35.096  41.912  12.883
50807W        W23155  23.723   0.416   2.342
50808W        W23156   0.394   2.325  10.622
50809W        W23157  14.182  18.715   2.777
50810W        W23158  18.723  16.289  13.330
50811W        W23159  17.779   8.794  12.829
50812W        W23160   2.818   7.173  14.762
50813W        W23161  21.662  42.298  12.849
50814W        W23162  16.656  29.525  11.383
50815W        W23163  34.896  28.554  11.877
50816W        W23164  36.849  34.427   4.116
50817W        W23165  29.424  31.141  11.414
50818W        W23166  15.216  33.913  14.797
50819W        W23167  34.866  14.238   3.236
50820W        W23168   8.167   2.371  12.985
50821W        W23169   2.799  34.491   4.190
50822W        W23170   1.325  12.756   2.872
50823W        W23171  16.134   2.928  11.924
50824W        W23172  11.203  10.276   0.935
50825W        W23173  29.967  14.216  13.007
50826W        W23174  36.553  15.616  12.571
50827W        W23175   7.417  34.510  12.873
50828W        W23176  13.140   1.864  13.854
50829W        W23177   5.267   8.744   4.142
50830W        W23178  25.043  20.597   3.766
50831W        W23179  22.687  39.029  10.581
50832W        W23180  15.252  39.497  12.868
50833W        W23181  29.455  18.763   2.878
50834W        W23182  13.624  14.240  13.985
50835W        W23183  24.637  15.786  11.485
50836W        W23184  41.958  32.054   1.417
50837W        W23185  18.734   4.426   1.837
50838W        W23186  32.044   5.256  12.878
50839W        W23187  20.668  29.449   4.300
50840W        W23188  38.960  44.370  11.420
50841W        W23189   0.912  39.831  14.836
50842W        W23190   8.744  25.648  11.571
50843W        W23191   1.369   9.289   0.450
50844W        W23192  20.228   7.825  11.591
50845W        W23193   3.827   1.342  14.888
50846W        W23194  35.403   4.883   1.747
50847W        W23195  27.108  22.209   2.306
50848W        W23196  30.437  38.007  11.970
50849W        W23197   8.244  31.409  13.930
50850W        W23198  26.689  23.212  13.450
50851W        W23199  41.033  25.199  10.493
50852W        W23200  23.042   9.240  10.531
50853W        W23201  34.401  26.205  14.827
50854W        W23202  18.789  43.895   1.392
50855W        W23203  10.298   4.442  13.359
50856W        W23204  23.999  12.789   0.356
50857W        W23205   4.378  44.965   1.738
50858W        W23206   3.835  13.821   4.641
50859W        W23207   4.434   3.259  12.461
50860W        W23208  25.497  23.504  14.512
50861W        W23209   2.836  28.611  14.381
50862W        W23210  19.124  36.020   1.376
50863W        W23211  19.779   5.825  10.499
50864W        W23212   4.855   0.426   2.354
50865W        W23213  41.976  29.003  13.463
50866W        W23214  23.240   3.944  14.288
50867W        W23215  16.696   0.893  12.882
50868W        W23216  43.443  34.508   2.886
50869W        W23217  37.863  17.267   4.354
50870W        W23218   4.783  14.612   4.640
50871W        W23219  25.514  39.930  12.962
50872W        W23220  41.404  13.256  14.027
50873W        W23221  25.171  10.146   1.781
50874W        W23222  24.650  43.896  11.537
50875W        W23223  22.235  14.183  11.462
50876W        W23224  40.474   4.938   5.265
50877W        W23225   2.465  41.495   5.156
50878W        W23226  17.589   8.888   2.308
50879W        W23227  20.665  40.484   4.286
50880W        W23228   0.744  23.229  14.379
50881W        W23229  28.658   0.444  14.802
50882W        W23230  18.063  36.546  10.949
50883W        W23231  26.080  33.987  13.414
50884W        W23232  27.974  26.614   1.745
50885W        W23233   5.852  18.638   1.875
50886W        W23234  14.286  16.255  11.486
50887W        W23235  13.117  15.711   1.280
50888W        W23236  10.709  25.215   1.271
50889W        W23237   0.257  42.906  12.453
50890W        W23238  24.047   5.371  13.898
50891W        W23239  34.103  44.318   0.378
50892W        W23240  36.453  44.313   0.400
50893W        W23241   5.384  16.722  11.887
50894W        W23242  28.681  32.039  12.045
50895W        W23243  23.087  27.126  14.884
50896W        W23244   3.771  43.005  13.335
50897W        W23245  19.712  11.344  10.991
50898W        W23246  33.531  14.698   4.241
50899W        W23247   9.679  16.808  13.988
50900W        W23248  12.172  28.008  12.481
50901W        W23249  41.954  31.438   3.170
50902W        W23250  44.830   8.781   1.872
50903W        W23251  19.611  44.442   1.259
50904W        W23252  13.222  27.471   1.795
50905W        W23253  18.279  30.601   4.186
50906W        W23254  35.595  16.206   0.454
50907W        W23255  28.165  39.841  10.521
50908W        W23256  43.413   8.890   5.186
50909W        W23257  16.212  31.941  11.467
50910W        W23258  33.587  33.085   0.849
50911W        W23259  29.985  29.611   4.209
50912W        W23260  14.694  22.594  13.499
50913W        W23261  27.154  15.302   2.774
50914W        W23262  39.552  42.316  12.837
50915W        W23263  22.080  28.166   2.867
50916W        W23264  34.078  34.370  14.868
50917W        W23265  17.577  25.669   0.909
50918W        W23266  17.605   0.487  10.535
50919W        W23267  37.398   9.653  13.064
50920W        W23268  13.635  39.043   4.338
50921W        W23269  16.668  28.607   1.357
50922W        W23270  27.516   9.275   2.291
50923W        W23271  14.830  37.467  11.443
50924W        W23272  38.874   7.385  11.586
50925W        W23273  29.615  44.781   1.831
50926W        W23274  23.056  23.622  13.040
50927W        W23275  42.815  35.105   1.805
50928W        W23276  28.507   9.366  14.764
50929W        W23277  11.216  17.106   1.439
50930W        W23278   3.740  13.235   4.618
50931W        W23279  23.223  42.983  14.820
50932W        W23280  42.354  12.789  13.408
50933W        W23281  33.009  17.100   2.327
50934W        W23282  40.445  30.153  11.412
50935W        W23283  20.736  32.916  12.474
50936W        W23284  26.596  23.036   0.393
50937W        W23285  19.737  18.695  12.005
50938W        W23286  21.668   3.749   3.271
50939W        W23287  43.913  43.933  12.845
50940W        W23288  41.935  13.308   4.123
50941W        W23289  39.362   0.363   3.709
50942W        W23290  22.686  12.764   4.201
50943W        W23291  23.197  19.222   4.205
50944W        W23292  40.972   9.386   3.694
50945W        W23293  43.430  40.478   4.618
50946W        W23294  40.841  17.184   4.641
50947W        W23295  15.799  24.525   1.372
50948W        W23296   0.419  23.565  10.539
50949W        W23297  27.166  36.073   3.782
50950W        W23298  30.608  21.733   0.899
50951W        W23299  10.842   4.302   2.399
50952W        W23300  21.604   1.424   3.763
50953W        W23301  27.056  21.157  12.445
50954W        W23302  27.001  10.359   3.321
50955W        W23303  18.747   3.868  10.559
50956W        W23304   3.297  13.314   3.371
50957W        W23305   3.293  26.668   0.294
50958W        W23306   3.784  40.822   4.832
50959W        W23307  32.017   8.774   3.263
50960W        W23308  15.742  23.589  14.388
50961W        W23309  43.973   0.805  14.417
50962W        W23310  28.171   3.896  12.876
50963W        W23311  23.710   3.917   1.215
50964W        W23312  42.316  31.548   2.709
50965W        W23313  38.419  16.173  10.567
50966W        W23314  22.200   0.250  13.871
50967W        W23315   7.813  37.919  14.910
50968W        W23316  18.259  43.397   2.891
50969W        W23317  20.678  31.085   0.259
50970W        W23318  43.395  35.495   1.386
50971W        W23319  12.850  32.485   1.755
50972W        W23320   5.391  19.751  13.025
50973W        W23321  29.925   5.297  10.992
50974W        W23322   4.922  33.525   2.414
50975W        W23323  29.134  37.446   4.355
50976W        W23324  27.993  10.715   4.266
50977W        W23325  33.604   3.924  12.999
50978W        W23326  41.451   0.806  10.994
50979W        W23327   3.802  25.592   1.282
50980W        W23328   7.299  10.662   1.909
50981W        W23329  40.855  32.960   3.688
50982W        W23330  25.652  43.798   1.233
50983W        W23331  33.523  25.053   3.351
50984W        W23332   9.304   5.285  14.981
50985W        W23333  36.080   1.374  12.532
50986W        W23334  17.096  18.655   3.759
50987W        W23335  21.181  15.278  10.971
50988W        W23336  10.189  36.927  11.588
50989W        W23337  33.387   5.932  13.861
50990W        W23338  40.422  14.095   3.190
50991W        W23339   3.942  39.869   2.401
50992W        W23340   4.377  40.496   1.248
50993W        W23341  16.312  27.004   4.336
50994W        W23342  11.316  15.231   1.249
50995W        W23343  12.758  22.587   1.873
50996W        W23344   7.845  24.495  14.844
50997W        W23345   7.857  40.904  10.993
50998W        W23346  44.333   1.928   3.815
50999W        W23347  42.851  12.813  11.044
51000W        W23348  40.968   1.824  14.772
51001W        W23349  16.100  29.072  14.798
51002W        W23350  19.733  29.985   2.834
51003W        W23351  31.992   3.924   3.855
51004W        W23352  33.091   7.736   4.299
51005W        W23353  22.528  33.600   1.310
51006W        W23354  33.052  22.160  14.424
51007W        W23355  16.571  39.842   2.257
51008W        W23356  38.342  32.519   4.738
51009W        W23357  44.342   2.901   0.765
51010W        W23358  20.168  34.560   9.939
51011W        W23359  32.609  32.919  14.488
51012W        W23360  15.666  10.257  10.160
51013W        W23361   2.820   2.392   0.426
51014W        W23362  41.001  25.072   0.869
51015W        W23363  20.252  17.595  10.992
51016W        W23364  34.958  39.936  14.400
51017W        W23365  38.963  43.846  13.309
51018W        W23366  15.756  18.710  12.909
51019W        W23367  33.607  36.853   5.205
51020W        W23368  32.493   6.738  10.602
51021W        W23369  22.027  32.532   1.880
51022W        W23370  28.676  27.030   4.123
51023W        W23371  33.947  14.248  12.394
51024W        W23372  41.878  30.989   1.894
51025W        W23373   4.897  26.175   0.774
51026W        W23374  35.459  40.334   3.325
51027W        W23375  10.878  20.085   0.278
51028W        W23376  12.283   6.853  12.872
51029W        W23377  34.021  38.950  12.053
51030W        W23378  29.621  16.615  11.929
51031W        W23379  15.172   4.797   3.345
51032W        W23380   0.843  14.829   3.341
51033W        W23381  31.571  15.218  14.459
51034W        W23382  41.933  35.409  11.590
51035W        W23383  33.397  22.244  10.480
51036W        W23384  30.945  31.948   0.900
51037W        W23385  35.976   6.706   2.821
51038W        W23386   8.275  22.229  12.439
51039W        W23387  41.456   9.656   2.374
51040W        W23388  29.575  20.596  11.125
51041W        W23389  35.024  10.146  14.457
51042W        W23390  17.692   6.408  11.399
51043W        W23391  32.616  23.218   2.802
51044W        W23392  30.061  26.052   0.347
51045W        W23393   9.149  23.163   4.335
51046W        W23394  15.742   9.747  14.830
51047W        W23395  41.426  27.450   4.211
51048W        W23396  24.609  35.526   4.149
51049W        W23397  41.291  36.938  14.003
51050W        W23398  19.081  38.380  12.912
51051W        W23399  30.074   9.163  13.841
51052W        W23400   7.323  19.607  13.351
51053W        W23401   1.335  43.361   1.432
51054W        W23402  40.054  24.221   3.271
51055W        W23403   2.931  34.115   0.478
51056W        W23404  31.422  17.687   0.885
51057W        W23405  21.234   7.875   0.871
51058W        W23406  29.476   3.287   3.212
51059W        W23407  28.945  31.518  12.385
51060W        W23408  22.184  27.976  13.006
51061W        W23409  22.152  25.217   4.799
51062W        W23410  23.677  27.092  10.895
51063W        W23411  14.628  38.837  10.053
51064W        W23412  38.829  30.123  12.052
51065W        W23413  32.473  24.679  13.397
51066W        W23414  41.796   0.412  13.846
51067W        W23415  24.988  31.647   0.447
51068W        W23416  44.260   5.385   1.394
51069W        W23417  11.864   4.427   1.305
51070W        W23418  32.018  17.779   1.907
51071W        W23419  16.576  42.399  11.927
51072W        W23420  26.979   8.168  13.907
51073W        W23421  22.205  20.172  12.978
51074W        W23422  20.175   3.416   0.329
51075W        W23423  32.900  14.313   3.194
51076W        W23424   3.741  22.744  12.366
51077W        W23425  19.703  33.543   4.311
51078W        W23426   9.817  38.989  14.861
51079W        W23427  30.632  44.435  13.989
51080W        W23428   1.357  19.110   4.346
51081W        W23429   7.356  32.136   0.265
51082W        W23430   8.169  18.643  12.457
51083W        W23431  39.055  40.393  12.366
51084W        W23432  38.064  35.907   1.229
51085W        W23433  12.693  21.544  14.463
51086W        W23434  12.163  25.181   3.645
51087W        W23435  11.176  30.019  12.873
51088W        W23436  28.983  44.868   0.914
51089W        W23437   0.454  31.439  11.904
51090W        W23438  38.898   8.681   4.699
51091W        W23439   7.380  31.539   4.705
51092W        W23440  42.848   1.346   4.765
51093W        W23441  32.035  43.848   0.334
51094W        W23442  20.756  43.973  10.574
51095W        W23443  33.924  21.139  10.630
51096W        W23444  37.528  20.552  11.584
51097W        W23445  10.138   3.444  10.140
51098W        W23446  19.093  29.124  10.965
51099W        W23447  33.598  21.736  13.905
51100W        W23448  37.941   1.916  10.532
51101W        W23449   8.211  12.643  12.951
51102W        W23450  12.154  36.528  11.403
51103W        W23451  19.704   3.762   2.786
51104W        W23452  18.655  33.607  10.558
51105W        W23453  17.688  38.907   0.840
51106W        W23454   4.347  23.667   4.149
51107W        W23455  10.709  11.372   1.799
51108W        W23456  36.095   5.435   4.232
51109W        W23457  13.227   7.870   1.399
51110W        W23458  18.263  19.210  14.903
51111W        W23459  36.030  12.678  11.573
51112W        W23460  31.100  28.117  11.590
51113W        W23461  31.593   6.749   0.471
51114W        W23462  26.585  25.971  12.531
51115W        W23463   2.451   0.274  11.942
51116W        W23464  30.574   9.288  12.917
51117W        W23465   3.719  27.492  13.807
51118W        W23466   7.240  33.061  12.410
51119W        W23467   6.219   8.876   0.728
51120W        W23468  28.999  42.023   1.860
51121W        W23469  22.572   7.249   4.623
51122W        W23470  32.538  43.824   1.390
51123W        W23471  10.675   3.849   1.829
51124W        W23472   4.230  24.583   4.194
51125W        W23473  37.470  32.565  13.811
51126W        W23474  28.677  10.813   1.819
51127W        W23475   8.371  34.106   3.241
51128W        W23476  26.971  18.290   0.727
51129W        W23477  17.156   0.817  10.441
51130W        W23478  29.629  16.639  13.964
51131W        W23479   6.274  41.348  14.893
51132W        W23480   3.271  33.385   1.875
51133W        W23481  39.350  24.072  13.317
51134W        W23482  30.473  41.898  14.904
51135W        W23483   4.363  23.164  13.384
51136W        W23484  43.439  40.404  14.984
51137W        W23485   8.799  35.569   2.276
51138W        W23486  13.727  28.122  14.890
51139W        W23487  23.176  39.455   4.700
51140W        W23488   7.802  25.138  12.915
51141W        W23489   2.952   5.361  12.060
51142W        W23490   0.945  16.294   4.649
51143W        W23491  13.341  20.115   3.740
51144W        W23492  19.168  40.486  12.939
51145W        W23493  24.563  40.995   2.688
51146W        W23494  35.936  18.715  13.464
51147W        W23495  37.832   3.726   3.199
51148W        W23496   9.197  21.137  14.772
51149W        W23497  25.184  13.799   2.845
51150W        W23498   2.850   5.699   4.836
51151W        W23499  37.552  31.962  10.514
51152W        W23500   7.768  15.608   5.140
51153W        W23501  17.218   8.221   2.206
51154W        W23502  28.566  29.481  10.627
51155W        W23503  36.065  18.678  10.930
51156W        W23504   5.193  40.326   4.631
51157W        W23505   6.350  14.255   3.195
51158W        W23506  30.460  18.200   0.284
51159W        W23507  18.094  44.830   1.214
51160W        W23508  34.612  44.858  13.404
51161W        W23509  27.656  23.642  12.984
51162W        W23510  37.949  43.971  12.430
51163W        W23511  42.002  21.727  11.532
51164W        W23512  40.390   7.353   0.337
51165W        W23513  35.880   3.921  12.009
51166W        W23514  38.416   5.215   0.267
51167W        W23515  38.505  23.182  11.876
51168W        W23516  22.729  28.506  12.386
51169W        W23517  10.723  18.223   2.664
51170W        W23518  11.807   0.938  13.406
51171W        W23519  21.216  40.876  10.938
51172W        W23520  11.228  10.871   3.637
51173W        W23521  34.993  15.691   3.632
51174W        W23522  16.314  43.448  14.463
51175W        W23523   0.473  24.667   1.813
51176W        W23524   0.779  36.543  11.560
51177W        W23525  41.858   2.233  12.052
51178W        W23526  14.336  29.176  10.890
51179W        W23527  18.608  40.969  13.469
51180W        W23528  23.228  42.412   2.276
51181W        W23529  32.953  39.369   3.756
51182W        W23530  29.647  12.664   5.102
51183W        W23531  41.520  16.694   4.628
51184W        W23532  39.053  15.727   2.686
51185W        W23533  15.580  27.655  10.973
51186W        W23534   2.745   3.846   4.171
51187W        W23535  23.721  44.283  14.447
51188W        W23536  21.644  28.536  14.466
51189W        W23537  21.217  32.405   3.762
51190W        W23538   0.342  38.950   0.373
51191W        W23539  32.514  21.156   0.811
51192W        W23540  22.650  32.971   0.749
51193W        W23541  32.076  34.554   3.376
51194W        W23542  36.455  16.593  13.370
51195W        W23543   8.663  44.390   1.305
51196W        W23544  31.630  38.072   2.296
51197W        W23545  21.029  10.825  11.424
51198W        W23546  40.397   7.384  13.380
51199W        W23547  34.920  29.544  11.860
51200W        W23548  20.684  16.764  12.554
51201W        W23549   3.337  33.984  12.088
51202W        W23550   6.890   8.860   4.292
51203W        W23551   5.799   4.867   3.800
51204W        W23552  40.537  42.979  12.398
51205W        W23553  15.241  44.389  13.045
51206W        W23554  19.164  18.164  14.000
51207W        W23555   4.331  32.969  14.311
51208W        W23556  41.517  13.290  10.469
51209W        W23557  40.002  35.051  13.326
51210W        W23558  26.119  33.042   0.272
51211W        W23559  16.692   1.403  12.476
51212W        W23560   6.203   9.178   3.850
51213W        W23561  22.526  20.087   0.756
51214W        W23562  28.517  35.028   1.410
51215W        W23563  10.208  18.111  10.892
51216W        W23564  21.221   3.874  12.542
51217W        W23565  17.784  11.706  14.775
51218W        W23566  43.384  12.740  13.890
51219W        W23567  34.423  41.934  14.786
51220W        W23568  11.763   3.863   3.654
51221W        W23569  44.389  37.969   4.761
51222W        W23570  43.979   5.822   1.433
51223W        W23571  37.360  25.054   0.332
51224W        W23572  13.721  10.218   1.348
51225W        W23573  11.258  14.164   0.359
51226W        W23574  32.037  24.089  14.386
51227W        W23575  17.702   0.763  12.073
51228W        W23576  29.134  12.644  12.886
51229W        W23577  28.559  14.640  10.896
51230W        W23578   7.319  23.054  11.604
51231W        W23579  43.000  39.900   4.628
51232W        W23580   8.308  27.965  13.846
51233W        W23581  44.454  22.121   3.177
51234W        W23582  27.623  44.817  12.530
51235W        W23583  20.204  34.545  11.086
51236W        W23584  38.025   3.826  13.053
51237W        W23585  16.302  16.590  12.498
51238W        W23586  21.707  15.160  11.426
51239W        W23587  34.572  21.208   1.265
51240W        W23588   0.935  35.068   0.933
51241W        W23589  19.557   1.308  12.957
51242W        W23590  15.675  20.595   0.930
51243W        W23591  12.637   0.391  14.485
51244W        W23592  32.585  15.204  11.597
51245W        W23593   2.915  33.128  14.782
51246W        W23594  15.105  35.895  11.421
51247W        W23595  27.553  37.538  12.896
51248W        W23596  38.464  11.797  12.986
51249W        W23597  40.881  30.105  10.475
51250W        W23598   8.899  19.192  14.291
51251W        W23599   6.910  35.368  14.994
51252W        W23600  33.468  24.988   3.705
51253W        W23601  29.582  37.440   4.273
51254W        W23602   5.333  13.315  14.305
51255W        W23603  21.257  14.194  13.508
51256W        W23604  19.751   3.454   3.247
51257W        W23605   6.909  17.091   1.367
51258W        W23606  17.677  25.103  10.424
51259W        W23607  19.723  32.435  11.101
51260W        W23608  11.342  12.312   0.844
51261W        W23609  34.445  11.190  12.551
51262W        W23610  26.697  12.822  12.451
51263W        W23611  29.424  31.119   1.373
51264W        W23612   9.230  30.518  12.888
51265W        W23613  20.556   9.198  14.495
51266W        W23614  39.901  27.940   2.752
51267W        W23615  18.099  18.613   0.243
51268W        W23616   5.688  38.366   2.843
51269W        W23617  26.046  26.980   4.828
51270W        W23618  38.480   7.743  13.327
51271W        W23619  41.968  28.063  11.493
51272W        W23620  31.572  38.515   2.885
51273W        W23621   9.684  10.377   1.740
51274W        W23622  16.150  11.861  10.527
51275W        W23623  33.536   2.722   0.286
51276W        W23624  28.668  20.149  14.489
51277W        W23625  23.558   9.777  11.490
51278W        W23626   5.918  27.569   3.370
51279W        W23627  33.878  39.473   0.860
51280W        W23628  19.694   1.271   2.830
51281W        W23629  26.989  33.510   0.955
51282W        W23630  23.647  41.360   3.361
51283W        W23631  22.723  31.625   1.724
51284W        W23632   6.824   5.305   0.755
51285W        W23633  44.869  39.517  14.294
51286W        W23634   2.762  25.582  11.610
51287W        W23635   1.774  19.564  14.331
51288W        W23636  20.176   2.226   1.282
51289W        W23637  18.135  30.658   0.848
51290W        W23638   3.943   3.912   1.824
51291W        W23639  12.191  18.159   3.650
51292W        W23640   8.300  30.078  10.944
51293W        W23641   5.392  16.803   3.664
51294W        W23642   1.919  21.579  14.846
51295W        W23643  33.029  13.744   4.833
51296W        W23644  34.556  12.168   0.284
51297W        W23645  16.748  39.379  12.015
51298W        W23646  39.985  43.856  11.901
51299W        W23647  33.056  10.751   3.797
51300W        W23648   5.691  37.956  13.880
51301W        W23649  14.153  24.114  11.501
51302W        W23650  31.100  33.983  13.931
51303W        W23651  31.404  44.455   1.921
51304W        W23652  20.633  10.225  13.390
51305W        W23653  24.678   4.240   3.310
51306W        W23654  26.530  32.616   4.266
51307W        W23655  25.046  17.758  11.575
51308W        W23656  20.709  24.020   3.698
51309W        W23657  10.374  28.185  12.949
51310W        W23658  40.309  41.475   4.316
51311W        W23659  15.189   6.842  14.938
51312W        W23660   3.892   0.985   4.790
51313W        W23661  19.703  31.506   0.910
51314W        W23662  26.102  20.550   2.378
51315W        W23663  23.721  42.444   1.274
51316W        W23664   1.355  29.479   1.781
51317W        W23665  41.292  35.399   3.736
51318W        W23666  31.486  24.157   3.791
51319W        W23667  25.060  35.376  14.905
51320W        W23668  14.808  16.699   2.370
51321W        W23669  12.181  35.567   0.961
51322W        W23670   1.298  25.101  14.423
51323W        W23671   8.306   2.272   4.805
51324W        W23672  44.771  15.660   4.827
51325W        W23673  11.665  11.756  12.024
51326W        W23674  29.099  10.226   1.736
51327W        W23675  32.535   8.727  11.088
51328W        W23676  43.497  30.914  10.980
51329W        W23677  14.723  37.998  13.989
51330W        W23678  40.473   0.837   3.791
51331W        W23679  24.535  16.732  12.050
51332W        W23680  40.541   2.365   3.236
51333W        W23681  19.657  14.614  14.438
51334W        W23682  10.795  14.629   0.255
51335W        W23683   1.331  17.217   2.292
51336W        W23684   6.776  37.365  10.891
51337W        W23685   3.897  21.531  14.787
51338W        W23686  10.348  44.884   2.244
51339W        W23687  11.761  25.579  14.379
51340W        W23688  26.001  23.713  13.396
51341W        W23689   6.215  13.296  13.418
51342W        W23690   0.491  25.204   0.936
51343W        W23691  14.176   2.767  14.884
51344W        W23692   6.813   1.248  10.464
51345W        W23693   3.226  44.808  12.858
51346W        W23694  13.767  16.201   3.150
51347W        W23695  10.146  16.606  11.996
51348W        W23696  17.635  44.493   3.184
51349W        W23697  29.656  29.026   4.760
51350W        W23698  35.078   9.857   4.234
51351W        W23699  24.157   8.775  12.965
51352W        W23700  10.316  13.339  14.910
51353W        W23701   8.876  44.359  11.091
51354W        W23702  12.809  22.156  12.425
51355W        W23703  21.687  23.615  13.479
51356W        W23704  37.530  13.828  13.799
51357W        W23705   9.245  39.862  13.943
51358W        W23706  24.686  12.657  14.978
51359W        W23707  14.113  29.526   0.406
51360W        W23708  31.145  11.154  14.472
51361W        W23709   4.323   6.869  14.430
51362W        W23710   1.467  22.559   4.661
51363W        W23711  31.063   2.870   1.763
51364W        W23712  12.362  29.582   4.727
51365W        W23713  18.548  37.924   1.360
51366W        W23714  18.560   4.350  13.337
51367W        W23715  35.939  23.118   5.195
51368W        W23716  39.336   6.346   5.759
51369W        W23717  34.996  15.237  13.800
51370W        W23718  22.587  39.361   2.823
51371W        W23719  16.616  15.136   3.340
51372W        W23720   8.388  22.104   2.874
51373W        W23721  44.820  37.487   4.309
51374W        W23722  11.227  37.417  12.934
51375W        W23723   7.825  21.679   1.722
51376W        W23724  36.873   7.231  13.527
51377W        W23725  23.054  27.652  14.759
51378W        W23726  28.950  41.301  13.418
51379W        W23727  17.262   5.257  14.417
51380W        W23728  33.591  21.604  12.543
51381W        W23729  24.501   9.857   0.876
51382W        W23730  12.793  25.692   0.794
51383W        W23731   3.931   8.214  11.035
51384W        W23732  24.226  32.134   4.305
51385W        W23733  33.915  31.499   0.420
51386W        W23734  14.189  40.969   0.925
51387W        W23735   3.434   4.343  13.446
51388W        W23736   6.741  13.346  14.319
51389W        W23737  35.870  12.182  12.557
51390W        W23738  23.225  13.215  12.943
51391W        W23739  44.436  40.856  12.440
51392W        W23740   9.732   6.376  11.519
51393W        W23741  31.013  11.149   1.735
51394W        W23742   2.850  10.701  12.487
51395W        W23743  29.541  16.633   2.880
51396W        W23744  13.342   4.899   0.409
51397W        W23745  16.631  29.169   3.333
51398W        W23746  29.013  27.646   2.211
51399W        W23747  11.706  27.681  12.533
51400W        W23748  14.664  29.997   2.223
51401W        W23749  33.925  14.679   1.291
51402W        W23750  42.434  41.405   3.287
51403W        W23751  43.337   6.746  13.418
51404W        W23752  43.818  29.066  12.438
51405W        W23753   8.827  31.055  12.381
51406W        W23754  22.656   4.898  10.112
51407W        W23755  12.246  44.956   1.899
51408W        W23756  40.409  31.042   1.711
51409W        W23757  35.890  38.852   5.115
51410W        W23758  42.419   5.424  12.015
51411W        W23759  28.610   4.444  12.027
51412W        W23760  32.546  33.416  12.029
51413W        W23761  18.667  40.503   0.879
51414W        W23762  38.884  11.172  10.943
51415W        W23763   3.398  16.767   3.635
51416W        W23764   6.428  19.747  10.619
51417W        W23765  21.555  25.051  13.855
51418W        W23766   8.764  14.616  14.827
51419W        W23767  21.675  16.753   4.175
51420W        W23768  25.621  14.806   1.758
51421W        W23769  31.118  38.414  12.405
51422W        W23770  22.087  35.953   0.270
51423W        W23771  28.098  41.937   4.126
51424W        W23772  24.098   0.483  10.938
51425W        W23773  11.665  19.105  11.922
51426W        W23774  17.240   0.429   3.345
51427W        W23775   4.371  37.446   4.250
51428W        W23776  24.173  40.996  14.389
51429W        W23777  32.607   9.203  12.048
51430W        W23778  40.805  17.284   0.767
51431W        W23779  10.372   8.172   2.206
51432W        W23780  29.063   7.880   0.870
51433W        W23781  41.851  37.859   0.774
51434W        W23782  28.541  23.144   3.656
51435W        W23783  10.868  10.313   2.764
51436W        W23784   3.816  40.048   1.211
51437W        W23785  42.326  16.075   1.372
51438W        W23786  31.633  24.229   3.341
51439W        W23787   2.807  21.041   4.649
51440W        W23788  11.717   0.451  14.998
51441W        W23789  11.653  42.481   1.306
51442W        W23790  21.546  44.406   2.209
51443W        W23791  33.078  38.503   1.700
51444W        W23792  21.087  32.394   3.317
51445W        W23793  39.061  12.197  14.990
51446W        W23794  30.656  24.525  13.798
51447W        W23795   9.705   7.695  14.981
51448W        W23796  25.124  28.506  11.426
51449W        W23797  11.846  22.135  13.432
51450W        W23798  24.219  32.500   2.191
51451W        W23799  32.102   5.770  11.097
51452W        W23800  17.645  14.629  13.355
51453W        W23801   2.754  19.557  14.022
51454W        W23802  13.203   5.410   9.963
51455W        W23803  17.289  18.654   3.316
51456W        W23804  20.615  37.020   0.441
51457W        W23805   7.367  40.972   3.236
51458W        W23806  25.195  38.926   1.793
51459W        W23807  14.117  34.109   4.176
51460W        W23808   2.362   0.953  10.046
51461W        W23809  32.511  18.751   3.353
51462W        W23810  40.986  14.761  14.394
51463W        W23811  16.218  44.801   0.382
51464W        W23812  37.868  39.447   2.224
51465W        W23813  38.901   9.178   4.118
51466W        W23814  36.497  21.545   3.864
51467W        W23815  10.349   7.741   0.378
51468W        W23816  37.577  22.707  10.161
51469W        W23817  36.421  36.379  11.573
51470W        W23818  35.950  25.962   1.702
51471W        W23819  26.985   6.376  10.919
51472W        W23820  29.019  31.487   4.670
51473W        W23821  29.933  34.024   0.448
51474W        W23822  30.956  33.457  10.062
51475W        W23823  32.538  43.387   3.715
51476W        W23824   3.864  32.921   0.417
51477W        W23825  13.263  19.693   3.696
51478W        W23826  42.928  20.657   2.743
51479W        W23827  41.896  40.006  14.772
51480W        W23828  27.974  27.474  12.520
51481W        W23829   7.733  38.495  12.378
51482W        W23830  38.374  24.501   3.345
51483W        W23831  37.837  25.609  13.324
51484W        W23832  23.712   0.315  12.037
51485W        W23833  35.888  18.127   0.440
51486W        W23834  35.531  34.914   2.206
51487W        W23835  27.451  22.729  12.577
51488W        W23836  37.944  15.767   5.278
51489W        W23837   7.734  37.903   3.645
51490W        W23838  36.525  44.419  13.409
51491W        W23839  30.495  41.325   1.418
51492W        W23840  29.453  25.116  13.382
51493W        W23841  18.141  12.719   4.717
51494W        W23842   9.820  42.000   0.927
51495W        W23843  28.441   1.927  14.388
51496W        W23844  38.068  17.126   2.757
51497W        W23845  16.167  16.235  10.539
51498W        W23846   5.772  40.310   3.351
51499W        W23847  17.663  33.445   3.275
51500W        W23848  34.502  24.029  13.798
51501W        W23849   1.883  10.220   1.764
51502W        W23850   1.784  13.669   2.731
51503W        W23851  15.721   0.442  11.402
51504W        W23852   9.764   3.246   2.246
51505W        W23853  26.617  38.976   3.849
51506W        W23854   5.739  35.482  13.882
51507W        W23855  44.854  36.447   2.202
51508W        W23856   2.927  35.505  13.431
51509W        W23857  16.750  22.587  14.761
51510W        W23858  42.522  32.614  11.049
51511W        W23859  21.047   9.183   1.397
51512W        W23860  32.132  40.968   3.305
51513W        W23861  26.064  11.631  10.520
51514W        W23862  21.683  42.504  10.983
51515W        W23863   3.434  30.969   2.295
51516W        W23864  28.026  16.099  10.404
51517W        W23865   1.829  31.485  14.383
51518W        W23866  29.454  24.645   4.335
51519W        W23867   7.379  21.637   5.131
51520W        W23868  44.004  21.094   0.464
51521W        W23869  34.536  21.178   0.305
51522W        W23870  13.655   7.739  13.027
51523W        W23871  30.549  42.978  12.468
51524W        W23872  20.615  15.752   0.834
51525W        W23873  17.728  16.748   1.451
51526W        W23874  42.928   8.839  13.405
51527W        W23875   6.717  11.769  10.412
51528W        W23876  25.517  11.303  14.973
51529W        W23877  43.377   8.220  14.318
51530W        W23878  41.940   5.434   0.788
51531W        W23879  39.536   3.885   3.158
51532W        W23880  33.545   7.709  14.838
51533W        W23881   3.283  17.735  10.543
51534W        W23882  17.787   7.865  10.542
51535W        W23883   3.309  42.986  10.051
51536W        W23884   6.254  38.402  10.439
51537W        W23885  20.669  11.769  11.078
51538W        W23886   0.938  33.040  11.561
51539W        W23887  17.602   2.873  13.047
51540W        W23888   4.339  30.124  14.843
51541W        W23889   8.267  21.157   2.314
51542W        W23890   2.247   2.239   4.260
51543W        W23891  36.004  19.219   1.706
51544W        W23892  27.672  28.164  13.510
51545W        W23893  24.498  36.961  12.385
51546W        W23894  42.351  26.660  13.457
51547W        W23895  20.578   1.476   4.656
51548W        W23896  24.183   6.419  13.899
51549W        W23897  27.043  33.101   4.671
51550W        W23898  25.530  38.488  13.004
51551W        W23899  16.298   4.895  11.908
51552W        W23900   5.719  31.936   2.848
51553W        W23901  19.074  29.448  14.342
51554W        W23902  23.735  21.540  11.447
51555W        W23903  24.663  21.030   5.128
51556W        W23904  15.587  27.111  10.641
51557W        W23905  22.636  42.408  11.103
51558W        W23906   6.699  35.480  11.434
51559W        W23907  36.843  43.466  14.815
51560W        W23908  19.761  23.613   4.837
51561W        W23909   8.800  24.488  12.009
51562W        W23910   2.918   2.463  12.451
51563W        W23911  22.199  18.737  12.017
51564W        W23912  20.184  21.710  10.591
51565W        W23913  15.308  23.703   2.280
51566W        W23914  19.206  23.117   2.896
51567W        W23915  20.217  19.208   0.944
51568W        W23916  39.324  16.693  11.380
51569W        W23917  28.640  24.084  12.848
51570W        W23918   8.343  13.607  14.869
51571W        W23919   2.266  21.756  13.988
51572W        W23920  17.241   2.356  12.464
51573W        W23921   4.868   2.350  10.421
51574W        W23922   0.971  32.998   4.749
51575W        W23923  27.650  18.662   0.304
51576W        W23924  29.064  12.717  14.402
51577W        W23925  35.601  13.113  11.069
51578W        W23926  10.312  40.830  11.125
51579W        W23927  20.088  30.100  14.896
51580W        W23928  18.088  44.410   1.786
51581W        W23929   2.361  21.099   0.350
51582W        W23930  42.893  44.953  10.508
51583W        W23931  37.981  34.432   2.697
51584W        W23932  16.279  10.681   2.722
51585W        W23933   9.790  18.296  14.510
51586W        W23934   7.782  11.347  14.287
51587W        W23935  28.011  35.483   2.730
51588W        W23936  22.213  39.508   0.248
51589W        W23937  13.622   9.888   0.323
51590W        W23938   5.758  31.473   3.720
51591W        W23939  43.280  33.603   3.801
51592W        W23940  22.703  12.267  11.380
51593W        W23941  24.169  12.836  10.514
51594W        W23942  16.633  18.059   2.873
51595W        W23943   0.411  25.666  11.987
51596W        W23944  31.568  42.471  11.988
51597W        W23945  24.542  13.820  14.357
51598W        W23946  35.017  34.039   4.835
51599W        W23947  30.533  23.024   2.865
51600W        W23948  11.254  35.500   3.281
51601W        W23949   2.275  17.746   2.812
51602W        W23950   8.894  31.938   5.281
51603W        W23951  10.144  43.883   2.250
51604W        W23952  39.927  37.063   3.259
51605W        W23953  17.751  38.496  13.992
51606W        W23954  12.615  21.032  14.857
51607W        W23955   5.886  35.518  14.348
51608W        W23956  35.426  17.097   4.310
51609W        W23957   8.182  23.082  11.372
51610W        W23958  17.581  43.393  14.390
51611W        W23959  38.353  42.395  14.861
51612W        W23960  12.659  23.065   3.334
51613W        W23961  44.819  14.334  11.912
51614W        W23962  34.047  13.235  11.960
51615W        W23963  42.461  35.933   0.912
51616W        W23964  33.019  33.906   2.791
51617W        W23965   7.273  14.244  12.860
51618W        W23966  15.194   0.776  13.514
51619W        W23967  24.541  29.444  13.830
51620W        W23968  34.412  36.426   0.796
51621W        W23969  32.901  32.575   3.351
51622W        W23970  10.180  42.354   4.753
51623W        W23971  12.139  25.690   3.794
51624W        W23972   8.882   9.845  14.429
51625W        W23973   7.191   9.270   2.861
51626W        W23974  18.256  19.608   2.901
51627W        W23975  21.546  21.260  13.807
51628W        W23976   4.803  12.362  13.484
51629W        W23977   7.236  36.979   3.669
51630W        W23978  28.972  25.704  12.575
51631W        W23979  43.835  17.224   2.878
51632W        W23980   4.789  29.601  11.918
51633W        W23981   7.366  36.861   4.222
51634W        W23982  41.415  38.426  13.035
51635W        W23983   3.740  42.374  10.601
51636W        W23984  28.562   1.731   0.901
51637W        W23985  23.070  37.368   3.711
51638W        W23986  12.270   4.934   0.258
51639W        W23987   5.349   9.712   1.886
51640W        W23988  21.575  31.598  12.898
51641W        W23989  42.501  41.033  12.862
51642W        W23990   6.264   6.857   1.311
51643W        W23991  14.194  36.476   3.344
51644W        W23992  13.261   8.655  13.990
51645W        W23993   7.766  35.036  12.939
51646W        W23994  22.012  10.856  10.888
51647W        W23995   4.869  17.243   1.216
51648W        W23996   3.316   6.245   3.165
51649W        W23997   5.771  32.087  12.071
51650W        W23998  40.979  16.287   2.366
51651W        W23999   4.757  15.591  12.454
51652W        W24000   1.843  36.496   0.797
51653W        W24001  42.997  25.629  14.776
51654W        W24002   0.467  41.964   3.319
51655W        W24003  25.078  14.322   4.128
51656W        W24004   5.929  40.310   4.783
51657W        W24005  37.844  44.805   3.742
51658W        W24006  17.066  23.697   0.345
51659W        W24007  38.355  27.687  11.025
51660W        W24008   0.357   0.906   2.772
51661W        W24009  30.009  30.030  11.456
51662W        W24010  39.338  37.852  11.875
51663W        W24011  12.785  38.460   1.367
51664W        W24012  25.115  33.474   2.387
51665W        W24013  18.582  30.080   3.696
51666W        W24014  17.231  44.393  12.900
51667W        W24015   2.248  11.369   4.314
51668W        W24016   6.829  17.697   2.264
51669W        W24017  37.952  34.107  11.926
51670W        W24018   5.893  44.378   1.809
51671W        W24019  29.490  40.425   0.482
51672W        W24020  22.644   7.807  10.037
51673W        W24021   6.195  41.907   4.158
51674W        W24022   0.760   7.252   1.433
51675W        W24023  37.404  22.247   1.842
51676W        W24024   3.810   0.902  12.389
51677W        W24025  12.696   6.892  13.394
51678W        W24026   9.738   1.321   3.723
51679W        W24027  23.540   6.268  11.926
51680W        W24028  40.902  44.879  14.928
51681W        W24029   4.762  39.555  11.517
51682W        W24030  31.945  23.085   0.387
51683W        W24031   0.787  16.082  12.402
51684W        W24032   3.796   4.812   3.328
51685W        W24033  22.168   7.263  13.506
51686W        W24034  33.880  43.909   0.272
51687W        W24035  40.977   3.751  13.404
51688W        W24036  31.913  14.632  14.392
51689W        W24037   0.343  18.697   0.744
51690W        W24038  38.985  37.511   1.393
51691W        W24039  18.242  24.229   2.274
51692W        W24040  38.488  19.132   3.293
51693W        W24041  13.612   5.835   0.932
51694W        W24042   7.771  22.110   2.863
51695W        W24043   1.963  37.042   4.275
51696W        W24044  34.490  17.269  13.515
51697W        W24045  39.042  19.227  12.910
51698W        W24046   3.230  40.957  13.401
51699W        W24047  36.470  29.164  11.907
51700W        W24048  28.056  17.093   5.282
51701W        W24049  43.858   5.916  12.455
51702W        W24050  13.106  28.115  14.278
51703W        W24051  16.148  18.783  14.389
51704W        W24052  13.686  18.105  14.322
51705W        W24053  22.556  27.049  14.780
51706W        W24054  41.866  12.235  11.073
51707W        W24055  44.359  23.116   0.884
51708W        W24056  40.313  19.106   4.702
51709W        W24057  40.903  10.139   3.761
51710W        W24058  43.411   6.834  14.303
51711W        W24059  20.619  27.110  10.436
51712W        W24060  19.243  28.954  10.144
51713W        W24061   6.830  20.737  10.535
51714W        W24062  37.468  26.164   4.180
51715W        W24063  11.758   5.314  10.574
51716W        W24064  37.481  10.833   4.719
51717W        W24065   7.815  10.369   4.656
51718W        W24066  42.509   6.213  10.466
51719W        W24067  10.361  31.088  12.923
51720W        W24068  33.427  35.934  11.928
51721W        W24069  10.784  31.021  13.539
51722W        W24070   2.929  13.804  12.007
51723W        W24071  27.122  37.019  13.945
51724W        W24072  30.560  36.564   3.198
51725W        W24073   6.791  20.245   0.442
51726W        W24074  42.474  15.291   3.231
51727W        W24075  30.101   3.440  11.382
51728W        W24076  32.442  36.006   4.299
51729W        W24077  38.506  29.569   0.905
51730W        W24078  19.174  10.877   0.258
51731W        W24079  39.953   5.790  10.639
51732W        W24080  39.890  29.496  14.300
51733W        W24081  18.167  30.996  14.380
51734W        W24082  40.475  31.991   1.814
51735W        W24083  28.116  37.435   3.321
51736W        W24084  23.986  15.263   3.787
51737W        W24085  13.724  11.309   2.894
51738W        W24086  17.690  16.235   0.428
51739W        W24087  21.720   5.882  14.023
51740W        W24088   3.220  28.938  13.517
51741W        W24089  20.740  22.674   0.900
51742W        W24090  28.104  44.363   4.138
51743W        W24091  36.486  44.394  12.853
51744W        W24092  34.047  43.510   4.163
51745W        W24093  16.577  37.544  12.376
51746W        W24094   7.800  18.229   0.311
51747W        W24095  27.447   5.925   4.127
51748W        W24096   2.779  42.321   2.735
51749W        W24097  31.586   5.221   0.381
51750W        W24098  33.496  23.554   3.373
51751W        W24099  16.156   0.747  14.404
51752W        W24100   5.847  28.944  13.988
51753W        W24101  24.641  30.024  12.445
51754W        W24102  11.281   4.261   0.396
51755W        W24103   0.876  39.931   3.281
51756W        W24104  15.325  20.219   1.403
51757W        W24105  27.112   6.791  14.009
51758W        W24106   5.339  23.576  13.445
51759W        W24107  18.609   4.396   2.853
51760W        W24108  12.632  35.942   4.743
51761W        W24109  19.692  30.646  14.008
51762W        W24110  41.856  24.596   0.768
51763W        W24111   9.792  12.783  13.795
51764W        W24112  22.696  10.361   4.692
51765W        W24113   0.420  38.505  11.956
51766W        W24114  44.325  23.585   4.798
51767W        W24115  12.118  24.723   1.820
51768W        W24116  19.568   7.720  13.544
51769W        W24117  27.498  36.581  12.553
51770W        W24118  31.104   2.891  11.061
51771W        W24119   6.249   2.854  13.969
51772W        W24120  34.370  31.973   1.842
51773W        W24121  41.512  13.732   4.650
51774W        W24122  33.405   2.279  12.022
51775W        W24123   6.800  19.736  10.989
51776W        W24124   6.700  30.004   0.251
51777W        W24125   8.290  43.427   4.775
51778W        W24126  37.071  17.150  11.929
51779W        W24127  15.234  15.194   3.818
51780W        W24128  32.541  41.453   3.695
51781W        W24129  42.373  30.569   3.356
51782W        W24130   7.340  39.547   4.337
51783W        W24131  35.398   3.843  14.790
51784W        W24132  13.784  36.572   1.245
51785W        W24133  15.696  18.557   1.837
51786W        W24134  40.992  15.114   1.714
51787W        W24135  36.530  30.056   1.327
51788W        W24136  42.906  15.306   3.211
51789W        W24137  31.625  30.032  14.936
51790W        W24138  43.342  41.912   1.435
51791W        W24139  44.808   2.260   1.347
51792W        W24140   0.466  14.656   4.634
51793W        W24141  20.746  17.203   2.820
51794W        W24142  16.699   2.848   0.729
51795W        W24143  34.872   1.755   2.819
51796W        W24144  16.619  23.998  14.419
51797W        W24145  38.348  31.095   3.269
51798W        W24146  29.171  17.687  13.049
51799W        W24147  17.215  10.823   0.457
51800W        W24148   5.704  23.204  14.019
51801W        W24149  27.590   5.917   3.359
51802W        W24150  28.124   0.262  12.030
51803W        W24151   1.895  41.002   2.886
51804W        W24152  18.145   6.904  14.420
51805W        W24153  36.958  24.163  13.421
51806W        W24154   0.862  16.101   3.225
51807W        W24155  17.758  31.911  13.937
51808W        W24156  24.490   6.757   4.302
51809W        W24157  40.824  29.633   0.385
51810W        W24158   8.293   0.893   3.813
51811W        W24159  20.179  35.556   4.324
51812W        W24160  17.124  16.658   0.444
51813W        W24161  21.036  41.507  12.837
51814W        W24162  14.263  20.099  13.056
51815W        W24163  26.137  38.076  11.470
51816W        W24164  23.090  25.494  10.436
51817W        W24165   7.674  31.074   4.241
51818W        W24166  21.562  25.638   2.770
51819W        W24167  19.560  16.192   4.790
51820W        W24168  21.542  22.193  12.947
51821W        W24169  27.193   6.726   3.864
51822W        W24170  32.470  34.901   3.323
51823W        W24171  30.055  17.239  11.559
51824W        W24172   4.384  20.527   0.819
51825W        W24173  29.938   2.773   1.889
51826W        W24174   3.399  35.967  13.796
51827W        W24175  34.431   0.768   0.876
51828W        W24176  16.744  14.716  11.940
51829W        W24177   3.383  23.700   2.687
51830W        W24178  14.647  22.181   3.376
51831W        W24179   2.245  12.232  14.409
51832W        W24180  15.242  16.196  14.400
51833W        W24181   4.354   0.313  14.329
51834W        W24182  35.871  28.450   0.305
51835W        W24183  13.692  44.828   1.338
51836W        W24184  21.094   0.915  12.914
51837W        W24185  21.513   1.462  11.442
51838W        W24186   7.795  20.038  12.498
51839W        W24187  32.080  31.064   1.890
51840W        W24188  34.926  35.560   0.785
51841W        W24189  40.850  14.247  14.970
51842W        W24190  17.556   3.882  14.954
51843W        W24191  43.462  18.137  14.981
51844W        W24192   9.859  18.163  13.807
51845W        W24193   6.361   3.883   0.753
51846W        W24194   7.206  28.021   3.287
51847W        W24195  21.658  29.941   3.330
51848W        W24196  16.588  27.659  13.064
51849W        W24197  31.897  15.757  13.316
51850W        W24198  43.853  21.712  14.398
51851W        W24199  10.862  35.565  13.426
51852W        W24200  35.518   7.225  13.844
51853W        W24201  13.286   4.893   4.730
51854W        W24202  33.059  10.784   2.838
51855W        W24203  19.273  25.473   1.325
51856W        W24204  38.860   3.370  12.453
51857W        W24205  13.782  34.883   0.823
51858W        W24206  14.694  42.309   0.744
51859W        W24207   6.282  36.508  12.369
51860W        W24208  23.990   0.968   4.279
51861W        W24209  23.706  17.191  12.489
51862W        W24210   2.380  14.258  12.869
51863W        W24211   2.316  41.876  13.463
51864W        W24212   1.427   1.410   4.674
51865W        W24213  19.649  39.408   4.341
51866W        W24214  44.762  12.787  14.970
51867W        W24215  23.733  44.986   3.696
51868W        W24216  38.342   1.293  13.454
51869W        W24217  22.158  36.592   2.399
51870W        W24218  40.517   3.796  13.482
51871W        W24219  12.763  20.696   2.880
51872W        W24220  38.464  25.121   2.417
51873W        W24221  24.032  42.443   3.254
51874W        W24222   3.908   1.864  13.376
51875W        W24223  37.570  16.790  10.121
51876W        W24224   8.722  21.735   3.362
51877W        W24225  33.591  44.968   1.832
51878W        W24226  33.617  16.279  11.857
51879W        W24227  15.821   1.254  12.453
51880W        W24228  23.218  43.484  13.387
51881W        W24229   1.472  23.702   4.207
51882W        W24230   6.335  30.977   4.804
51883W        W24231  20.055  28.151  12.943
51884W        W24232  38.465  25.605  11.875
51885W        W24233   8.282   4.846   3.224
51886W        W24234   6.759  24.668  13.822
51887W        W24235  16.614  11.662   3.738
51888W        W24236  42.503  33.901  13.990
51889W        W24237  10.777  26.526   4.273
51890W        W24238  23.206  14.329  14.819
51891W        W24239  34.410  22.128  12.409
51892W        W24240  44.957   6.348   3.363
51893W        W24241  38.911  23.040  11.479
51894W        W24242  41.968  33.903   2.220
51895W        W24243  32.580   1.869   1.234
51896W        W24244   8.364   6.845  11.592
51897W        W24245  30.501  21.201  11.381
51898W        W24246   4.722  39.447   3.273
51899W        W24247   3.764  42.487  12.893
51900W        W24248  15.717  44.810  14.971
51901W        W24249   5.834  22.549  14.900
51902W        W24250  41.967  41.391   2.357
51903W        W24251  14.160  28.991  12.988
51904W        W24252  13.185   9.302   4.630
51905W        W24253  43.903  44.840   2.352
51906W        W24254  13.216   0.280  11.528
51907W        W24255  37.464  23.183  14.812
51908W        W24256  28.094  26.961   2.236
51909W        W24257  41.353   7.370   1.331
51910W        W24258  25.659  30.003   4.785
51911W        W24259   4.756  37.046  13.313
51912W        W24260  23.594  24.609  14.468
51913W        W24261  31.092   1.963   4.236
51914W        W24262  25.062  26.119   2.780
51915W        W24263  25.046  42.011  11.065
51916W        W24264  39.530  25.568  11.977
51917W        W24265   7.671  24.210   2.750
51918W        W24266   2.298  35.028   4.614
51919W        W24267  20.045  23.239   1.762
51920W        W24268  21.723   7.413  13.436
51921W        W24269  12.133  32.099  11.973
51922W        W24270  36.959  44.995  14.920
51923W        W24271  21.193   5.226  14.297
51924W        W24272  36.866  41.989   4.786
51925W        W24273   1.880  11.197   3.736
51926W        W24274  30.608  21.676  10.588
51927W        W24275  16.098  24.492  13.013
51928W        W24276  25.099   2.392   1.838
51929W        W24277  22.648  16.766  12.973
51930W        W24278   6.289  29.018   2.215
51931W        W24279  26.635  17.306  12.378
51932W        W24280  41.871  35.074   3.340
51933W        W24281  21.018  14.204   2.267
51934W        W24282  29.054   9.727  11.479
51935W        W24283   4.856   9.357   2.676
51936W        W24284  27.136   9.775   2.186
51937W        W24285  19.657  19.587   2.362
51938W        W24286  25.983  22.121  13.822
51939W        W24287  36.513  14.618   0.807
51940W        W24288   4.307  13.286  12.890
51941W        W24289  30.063  42.850  11.096
51942W        W24290  36.900  40.334  11.456
51943W        W24291  44.787  24.227   2.406
51944W        W24292  40.309  14.099   4.772
51945W        W24293  39.918  30.628   2.817
51946W        W24294   6.702  37.027   2.369
51947W        W24295   1.326   3.361   0.470
51948W        W24296  12.780  18.573   1.414
51949W        W24297  19.199  14.683  14.398
51950W        W24298   9.218  21.689   2.808
51951W        W24299  38.512  27.971   1.410
51952W        W24300  14.635   6.776  10.612
51953W        W24301  42.367   0.823  14.407
51954W        W24302  39.329  19.171  11.124
51955W        W24303  41.466  17.119   3.277
51956W        W24304  41.499   5.821  14.394
51957W        W24305  27.640  29.071   4.702
51958W        W24306   1.429  17.660  13.808
51959W        W24307  33.537  22.102  13.497
51960W        W24308  34.876  29.429  11.444
51961W        W24309  23.169  43.516   2.778
51962W        W24310  38.481  44.340   3.773
51963W        W24311  17.651  22.227  12.374
51964W        W24312  17.264  39.959  10.487
51965W        W24313  37.391   7.731   0.847
51966W        W24314  35.107  12.815   0.770
51967W        W24315  18.129  31.528   4.798
51968W        W24316  28.630  12.843  12.412
51969W        W24317   9.249  10.647  13.924
51970W        W24318   0.325  27.594  13.878
51971W        W24319   0.742  27.583  13.411
51972W        W24320  13.152  35.968   4.754
51973W        W24321  14.327  11.838  10.428
51974W        W24322  36.390  29.599  13.878
51975W        W24323   9.719  23.494   2.389
51976W        W24324  16.089   7.773   1.912
51977W        W24325  34.021  24.045  13.434
51978W        W24326  27.585  34.990  13.463
51979W        W24327  15.224   9.762   2.672
51980W        W24328  42.400  10.689   3.323
51981W        W24329  25.099  27.071   3.268
51982W        W24330  29.983  27.577   1.254
51983W        W24331  17.249  12.129   3.165
51984W        W24332   8.682  19.543  10.106
51985W        W24333  27.082  13.770   2.181
51986W        W24334  15.692   1.455   1.932
51987W        W24335  34.493   9.704  14.305
51988W        W24336  41.952  36.365  12.507
51989W        W24337  24.595  35.497   0.751
51990W        W24338  26.006  13.763  14.008
51991W        W24339  20.542  26.479  13.487
51992W        W24340  13.204  26.999   1.256
51993W        W24341  25.995  41.419   4.229
51994W        W24342  37.990  39.015  11.114
51995W        W24343  20.737  23.649  13.805
51996W        W24344  19.696  42.302   3.749
51997W        W24345  34.901  25.469  12.355
51998W        W24346   9.362   2.393   4.229
51999W        W24347  14.629  12.254   2.749
52000W        W24348  33.599  12.199  11.596
52001W        W24349   5.194  19.641   5.276
52002W        W24350   7.716  33.105   3.857
52003W        W24351  15.237   5.902   3.821
52004W        W24352  44.326   3.715   4.604
52005W        W24353  29.110  15.144   4.720
52006W        W24354  29.650  38.432  14.381
52007W        W24355  16.169  29.581  13.402
52008W        W24356  20.147  36.844   0.864
52009W        W24357   0.958   1.966   0.372
52010W        W24358  11.209  17.256  12.856
52011W        W24359  25.003  14.833   2.309
52012W        W24360  43.446  40.837  12.398
52013W        W24361  28.184  28.563  13.435
52014W        W24362  43.401  13.302   1.306
52015W        W24363  10.825  19.695  12.550
52016W        W24364  18.594  27.629   4.812
52017W        W24365   5.826  31.588   1.889
52018W        W24366  28.661  15.789   4.600
52019W        W24367  43.971  15.702  14.497
52020W        W24368  21.128  39.826   2.256
52021W        W24369  17.639  14.101  13.476
52022W        W24370   3.747  10.152  10.575
52023W        W24371  41.330   4.295   3.741
52024W        W24372  30.422   1.940   3.868
52025W        W24373   0.481  12.268   3.630
52026W        W24374   4.732   0.874  11.506
52027W        W24375   0.978  23.153  13.362
52028W        W24376  10.321  20.068  12.092
52029W        W24377  14.168  37.578   2.740
52030W        W24378  34.891  42.914  13.481
52031W        W24379   1.846  21.117  12.361
52032W        W24380  15.198  19.078   1.733
52033W        W24381   3.955  19.196   1.897
52034W        W24382  14.616  28.577   0.782
52035W        W24383  43.810   3.899   4.660
52036W        W24384  26.583  12.659  11.066
52037W        W24385   6.712  17.117   0.431
52038W        W24386  24.203  39.852   2.755
52039W        W24387  28.652  10.704  11.555
52040W        W24388  43.893   3.775  12.850
52041W        W24389  41.949   6.399   1.862
52042W        W24390  17.656  41.918   4.699
52043W        W24391  31.469   4.374  13.436
52044W        W24392   9.790   6.188  12.515
52045W        W24393  24.572  41.850   4.834
52046W        W24394  38.060  10.855   4.168
52047W        W24395  27.957   9.348   4.190
52048W        W24396  38.819  14.310   0.739
52049W        W24397  20.750   8.378  12.850
52050W        W24398  28.158  14.769  11.039
52051W        W24399  32.995  38.827   2.752
52052W        W24400  18.709  37.574   0.371
52053W        W24401  36.381  23.106   9.602
52054W        W24402  42.411  32.986   4.328
52055W        W24403  29.065   0.290   3.386
52056W        W24404  29.038   5.857  11.022
52057W        W24405  32.517  11.126   3.196
52058W        W24406   7.368  31.082  13.393
52059W        W24407  13.350  23.613   0.274
52060W        W24408  23.079  41.528   3.769
52061W        W24409  24.983  44.983   4.296
52062W        W24410  30.987  39.524  13.985
52063W        W24411  22.610  14.638   3.176
52064W        W24412   1.940  38.852   4.170
52065W        W24413  30.652   1.844   3.182
52066W        W24414   2.286  33.570  13.527
52067W        W24415  10.214   4.244   0.449
52068W        W24416  40.322   5.214  14.847
52069W        W24417  31.636  37.083   2.687
52070W        W24418  27.561   1.787  13.540
52071W        W24419  19.076  43.444   2.380
52072W        W24420  38.330  34.030   0.780
52073W        W24421  20.561  15.091  11.457
52074W        W24422   6.705  25.165  11.902
52075W        W24423   6.249  34.028   1.289
52076W        W24424  14.771  21.531  11.439
52077W        W24425  22.146  14.744  11.101
52078W        W24426  19.076   4.265  12.918
52079W        W24427   4.847  19.620  10.541
52080W        W24428  22.144  14.224  10.470
52081W        W24429   3.775  38.560  14.964
52082W        W24430  26.162  29.569   2.252
52083W        W24431   4.843  31.941   1.396
52084W        W24432  43.897  42.837  12.383
52085W        W24433   5.414   6.357   2.348
52086W        W24434  21.231  20.223  13.330
52087W        W24435  10.190   2.269  14.920
52088W        W24436  10.752  40.443   0.820
52089W        W24437  22.646  33.988  11.561
52090W        W24438  16.097   1.360  10.562
52091W        W24439  28.516  24.001   2.870
52092W        W24440  17.747   0.332  12.474
52093W        W24441  43.356   1.857  12.022
52094W        W24442  29.463  26.460  11.015
52095W        W24443  36.905  17.631   3.378
52096W        W24444   0.980  25.646  12.508
52097W        W24445  37.939  32.623   1.924
52098W        W24446  42.497  37.004  12.947
52099W        W24447  26.124  42.005   3.799
52100W        W24448  28.971  41.364  10.988
52101W        W24449  26.687  15.192   4.277
52102W        W24450   3.347  24.487  11.073
52103W        W24451  31.498  36.371   2.770
52104W        W24452  34.952  28.107  13.026
52105W        W24453  17.210  31.459   3.643
52106W        W24454  16.691  21.695   1.442
52107W        W24455  17.264  24.015   5.239
52108W        W24456  42.280   6.225   0.775
52109W        W24457  26.464  41.483   1.250
52110W        W24458  17.688  43.977   1.373
52111W        W24459  32.524  39.948   4.280
52112W        W24460  14.310  16.208   0.349
52113W        W24461  30.537  40.979   2.313
52114W        W24462  38.481   0.387  13.952
52115W        W24463  28.934   4.228  12.997
52116W        W24464  39.480   7.263   1.255
52117W        W24465  38.547  23.525  10.999
52118W        W24466  42.339  25.045   4.703
52119W        W24467  34.550  39.388  13.021
52120W        W24468  29.570  19.090  13.061
52121W        W24469  29.561  44.770  10.894
52122W        W24470  29.978  19.169   4.276
52123W        W24471   6.328  12.348  11.076
52124W        W24472  27.008  37.498  10.113
52125W        W24473  16.645  13.734   4.196
52126W        W24474  42.823   3.437  10.427
52127W        W24475  25.000  15.195   0.784
52128W        W24476   5.208  22.562   4.811
52129W        W24477   0.361  41.896   3.857
52130W        W24478   2.419  15.706   2.219
52131W        W24479  21.707  33.876  14.389
52132W        W24480   3.873  41.969  11.382
52133W        W24481  23.734  30.505   0.295
52134W        W24482   0.431   6.733  11.021
52135W        W24483  12.236  44.464   4.252
52136W        W24484  30.124  11.830   0.312
52137W        W24485  43.008  24.137   3.797
52138W        W24486   4.296   0.337   4.310
52139W        W24487  40.399  10.148   2.179
52140W        W24488  28.969  30.583  14.472
52141W        W24489  26.182   1.345   0.421
52142W        W24490  10.191  25.618   4.818
52143W        W24491  36.540  39.888  13.547
52144W        W24492   0.330  32.099  14.353
52145W        W24493  33.468   2.468  10.977
52146W        W24494  30.951  23.054   2.675
52147W        W24495  42.818  26.078  11.451
52148W        W24496  30.157  18.067   0.291
52149W        W24497  33.033  24.653  12.403
52150W        W24498  12.719  14.144  10.927
52151W        W24499  41.820  35.024  14.442
52152W        W24500   7.313  12.306  14.340
52153W        W24501  38.866  37.340   3.192
52154W        W24502  22.052   9.660   5.136
52155W        W24503   0.308  41.499   2.350
52156W        W24504  37.391  12.174   1.369
52157W        W24505   3.243   1.812   4.180
52158W        W24506  33.954  33.004   3.830
52159W        W24507  10.240  24.995  14.454
52160W        W24508  41.296  17.722   0.916
52161W        W24509  38.063  14.805   4.714
52162W        W24510  19.560  25.475   4.140
52163W        W24511  12.761   9.748  14.339
52164W        W24512  33.418  23.075   2.738
52165W        W24513  23.580  15.706   3.660
52166W        W24514  20.083  38.360   2.833
52167W        W24515  17.678  34.921  13.981
52168W        W24516  30.631  18.597  13.498
52169W        W24517  36.451  27.570  14.848
52170W        W24518  36.471  10.705  11.860
52171W        W24519  13.176   1.819  14.285
52172W        W24520  21.578  36.961   3.347
52173W        W24521  18.552  23.137   0.808
52174W        W24522  16.114  10.713   4.315
52175W        W24523   3.358  41.026  11.534
52176W        W24524   9.155  21.737   4.667
52177W        W24525  32.493  28.675   4.603
52178W        W24526  11.268  34.049   3.849
52179W        W24527  26.666  30.503  14.759
52180W        W24528   3.737  41.331   0.884
52181W        W24529  34.451   0.914  12.442
52182W        W24530  33.586  20.714  12.877
52183W        W24531  33.465   0.956   0.445
52184W        W24532  25.613  20.078   2.184
52185W        W24533   1.956  24.536   1.840
52186W        W24534  42.891  30.578   2.419
52187W        W24535  39.979  35.871  14.358
52188W        W24536  34.552   6.214   4.720
52189W        W24537  13.342  11.212   1.730
52190W        W24538   3.409   6.787   0.882
52191W        W24539  15.118  32.472  13.877
52192W        W24540  24.974  29.517   0.792
52193W        W24541   1.466  18.701   1.293
52194W        W24542  43.481  11.629   2.805
52195W        W24543  21.028  42.800   2.685
52196W        W24544  37.559   3.900  14.761
52197W        W24545   2.890   8.782   0.922
52198W        W24546  34.987  41.518   3.868
52199W        W24547  11.237  26.195   1.807
52200W        W24548  10.639  13.329   0.308
52201W        W24549  17.564  12.340   3.237
52202W        W24550   9.221  42.509   1.715
52203W        W24551   8.233  19.570  10.482
52204W        W24552   8.389  12.753  13.937
52205W        W24553  10.654   9.881  13.360
52206W        W24554  20.727  17.669   0.738
52207W        W24555   0.944  19.155   2.329
52208W        W24556  25.012  25.993   1.840
52209W        W24557   2.834  15.278   1.382
52210W        W24558  33.509   2.406   4.297
52211W        W24559  11.651   0.472   0.931
52212W        W24560  34.565  29.491  14.329
52213W        W24561  12.671  17.154   1.897
52214W        W24562   0.448  21.027  12.445
52215W        W24563  17.558   9.160   0.350
52216W        W24564  28.508  34.891   0.441
52217W        W24565  26.578  28.999  10.023
52218W        W24566  26.555  29.013   3.182
52219W        W24567   1.369  44.311  13.887
52220W        W24568  11.854  18.724  10.454
52221W        W24569  18.762  25.637  14.908
52222W        W24570   4.823  27.643  13.357
52223W        W24571  13.671  25.100   1.382
52224W        W24572   2.937  23.551  10.938
52225W        W24573  41.803  13.737   4.186
52226W        W24574  19.579   6.268   2.412
52227W        W24575  30.649   3.876   2.270
52228W        W24576  34.538  27.668  13.874
52229W        W24577  28.138  17.218  13.336
52230W        W24578  42.343  39.887   3.373
52231W        W24579  17.665  30.115  12.041
52232W        W24580  26.512  19.750   4.662
52233W        W24581   2.242  40.007   0.330
52234W        W24582  30.490  39.881   2.834
52235W        W24583   0.971   1.832  13.910
52236W        W24584   0.292   1.959  14.433
52237W        W24585  38.872  10.701   0.350
52238W        W24586   6.325  40.524  10.482
52239W        W24587  24.689  27.554  11.443
52240W        W24588  18.744  40.874   1.805
52241W        W24589  33.467  22.120   1.318
52242W        W24590   7.723  41.926   4.669
52243W        W24591  18.180  16.158   4.303
52244W        W24592  16.226   2.892   0.329
52245W        W24593  30.145  19.146   0.921
52246W        W24594  25.108  42.880   4.121
52247W        W24595  12.810  19.533  10.523
52248W        W24596  28.464  26.066   0.255
52249W        W24597  40.514  23.094   1.306
52250W        W24598  33.020  15.167   1.776
52251W        W24599  13.651  21.731  10.645
52252W        W24600   9.166  38.927   1.723
52253W        W24601  42.912  40.356  14.910
52254W        W24602  44.861  34.529  14.340
52255W        W24603  23.046   8.861  12.354
52256W        W24604  33.510  31.098   4.333
52257W        W24605  10.835  30.966   4.731
52258W        W24606   7.227  33.950   4.758
52259W        W24607  35.385  36.882  12.454
52260W        W24608  23.073   2.847   0.770
52261W        W24609  15.175  31.052   3.727
52262W        W24610  25.124  14.332  14.895
52263W        W24611  35.972  40.433   2.852
52264W        W24612  13.759  30.069   4.609
52265W        W24613  42.453  39.319   3.274
52266W        W24614   7.886  36.909  11.019
52267W        W24615   9.677   2.269   4.266
52268W        W24616  22.557  22.743   0.371
52269W        W24617  43.001  28.577  13.430
52270W        W24618  27.448  36.551   1.698
52271W        W24619  12.857  34.993   2.290
52272W        W24620  15.204  18.182   2.729
52273W        W24621   1.746   3.358   2.816
52274W        W24622  36.561  42.507  14.347
52275W        W24623  20.227  41.811  14.008
52276W        W24624  44.876  30.149  13.514
52277W        W24625   8.344   8.240   3.778
52278W        W24626  29.647  34.868  12.357
52279W        W24627  30.013  10.816   1.911
52280W        W24628  39.969   8.260   3.714
52281W        W24629   9.750  35.516   1.794
52282W        W24630  18.288  28.106   2.785
52283W        W24631  32.890  21.064   1.224
52284W        W24632  24.014   4.402  11.884
52285W        W24633  19.221  18.589   2.350
52286W        W24634  39.925  20.657  10.601
52287W        W24635  11.799   7.309   1.777
52288W        W24636  12.666  32.017  12.090
52289W        W24637  19.779   8.808   3.740
52290W        W24638  37.946  13.631  12.022
52291W        W24639   4.813  44.913   1.338
52292W        W24640  17.164  16.668  11.531
52293W        W24641  32.030   0.835   4.276
52294W        W24642  42.845  41.533  12.377
52295W        W24643  11.797  12.789   4.191
52296W        W24644  27.979  26.481   4.681
52297W        W24645   7.326   9.832   2.798
52298W        W24646  16.675  34.483   0.389
52299W        W24647  21.120  27.946   4.169
52300W        W24648  25.521  29.659   3.761
52301W        W24649  27.664   0.958   1.767
52302W        W24650  23.524  19.253   4.641
52303W        W24651  19.663  15.641  14.352
52304W        W24652   7.196  28.522   3.160
52305W        W24653  32.625   5.254  12.342
52306W        W24654  21.019  38.387  11.529
52307W        W24655   4.293  33.479  10.475
52308W        W24656  21.715  44.408   2.865
52309W        W24657   8.278  21.154  13.384
52310W        W24658  34.922   7.739  11.437
52311W        W24659   0.786  12.267  12.057
52312W        W24660  16.657  40.873  14.012
52313W        W24661   4.270  14.185  14.369
52314W        W24662  21.146   8.329   1.811
52315W        W24663  28.623  29.507   3.283
52316W        W24664   6.241  11.633  14.323
52317W        W24665  41.527  39.978   2.270
52318W        W24666  19.746  20.053   1.822
52319W        W24667  39.461  44.267   2.228
52320W        W24668   4.294  14.295  10.415
52321W        W24669  22.235   8.676  12.968
52322W        W24670  36.479  35.401   2.804
52323W        W24671  12.739  25.539   1.354
52324W        W24672  15.282  38.326   3.196
52325W        W24673  39.470  17.566  10.539
52326W        W24674   1.362  33.406  14.959
52327W        W24675  24.582   5.320  12.498
52328W        W24676   8.700   8.764   0.788
52329W        W24677   6.264  41.414  12.915
52330W        W24678   1.967  40.966  12.451
52331W        W24679  35.888  30.587   2.343
52332W        W24680  38.935  14.216   4.118
52333W        W24681  39.008  10.297   1.311
52334W        W24682  38.944  38.007  10.438
52335W        W24683  22.663  25.544   2.358
52336W        W24684  29.568  39.381   0.302
52337W        W24685  27.504   8.784  13.819
52338W        W24686   5.825  16.096  13.051
52339W        W24687  20.725  36.879  12.045
52340W        W24688  38.037  11.692  12.935
52341W        W24689  23.068  24.121  13.382
52342W        W24690  43.292  33.008   3.632
52343W        W24691   4.830   3.926   5.288
52344W        W24692  43.419   4.851   3.306
52345W        W24693  30.441  39.833   1.228
52346W        W24694  40.848  18.772   4.749
52347W        W24695  25.118   9.224   4.748
52348W        W24696   1.393   1.740   0.426
52349W        W24697   3.711   1.450   0.415
52350W        W24698  26.481  36.470   1.316
52351W        W24699  23.589  38.995  10.957
52352W        W24700  19.149  38.398  11.496
52353W        W24701  41.810   7.910   4.672
52354W        W24702  28.672  40.037  13.379
52355W        W24703   0.344  25.183   4.748
52356W        W24704  15.815  41.930  12.543
52357W        W24705  13.693  32.031  10.529
52358W        W24706  44.774  37.019   4.291
52359W        W24707  43.766  21.084  11.880
52360W        W24708  24.057  22.724   0.767
52361W        W24709  19.263  39.835  14.886
52362W        W24710   1.298  10.297  14.507
52363W        W24711   0.364  37.472  12.006
52364W        W24712   7.857   2.455  12.034
52365W        W24713  12.229  32.048   3.246
52366W        W24714  13.123  44.468  11.066
52367W        W24715   3.431  19.137   4.297
52368W        W24716   4.836  30.446   2.689
52369W        W24717  41.336  12.173   0.356
52370W        W24718  19.187  27.496   0.942
52371W        W24719  36.899  16.175  10.430
52372W        W24720  35.881   9.278   4.676
52373W        W24721  10.864  37.993   2.337
52374W        W24722  15.819  25.518   0.482
52375W        W24723  37.417  36.084  14.798
52376W        W24724  35.048  17.289  14.985
52377W        W24725   1.430  12.158   3.288
52378W        W24726   7.402  29.438   4.833
52379W        W24727  40.810  21.114  11.561
52380W        W24728  44.851  30.131  13.012
52381W        W24729   0.358  41.482  14.955
52382W        W24730  14.729  15.109   0.478
52383W        W24731  13.295  39.016  10.604
52384W        W24732  38.011  31.068   2.765
52385W        W24733  27.053  18.176   0.255
52386W        W24734   0.866  33.958  14.890
52387W        W24735   5.718  42.900   4.176
52388W        W24736  41.006   3.790   3.681
52389W        W24737  26.680   9.648   1.800
52390W        W24738  24.133   1.322   0.305
52391W        W24739  21.239  38.351  10.522
52392W        W24740  19.094  43.330  14.441
52393W        W24741  26.671  36.977  13.859
52394W        W24742  13.337   3.450  10.113
52395W        W24743  44.310  25.697  13.895
52396W        W24744  24.133  18.755   1.375
52397W        W24745  25.194  38.356   0.943
52398W        W24746   7.865  29.066  10.552
52399W        W24747  39.040  11.813   5.166
52400W        W24748  41.837  27.575   4.187
52401W        W24749  26.029  22.544   4.718
52402W        W24750  42.294  39.315  13.822
52403W        W24751  28.024  39.816  13.411
52404W        W24752  36.368  24.138  12.968
52405W        W24753  44.760  21.061  14.001
52406W        W24754  16.684   6.405  13.382
52407W        W24755  31.153  27.649  14.312
52408W        W24756  27.507  21.029  14.482
52409W        W24757  30.147  26.675   3.183
52410W        W24758  22.550  34.049  14.378
52411W        W24759  36.501  39.472  13.454
52412W        W24760  16.672  17.290   1.389
52413W        W24761  21.081  26.086   1.318
52414W        W24762  38.829  40.960  10.112
52415W        W24763  44.826  41.405  11.946
52416W        W24764   5.319  24.047   4.152
52417W        W24765  17.174  26.089   1.408
52418W        W24766  25.478  14.259  12.362
52419W        W24767  34.045  29.620   3.203
52420W        W24768   9.276   9.839  13.852
52421W        W24769   9.815   3.777   3.346
52422W        W24770  12.758  17.644   1.789
52423W        W24771  24.013  11.277  11.389
52424W        W24772  25.584  19.629   3.371
52425W        W24773   0.253  37.478   1.311
52426W        W24774  42.344  24.723   4.676
52427W        W24775  11.660   4.396   1.828
52428W        W24776  19.741  43.456  12.538
52429W        W24777  16.196  19.621  11.609
52430W        W24778  32.888  18.119   0.880
52431W        W24779  39.547  10.836  11.578
52432W        W24780  22.689  32.932   2.394
52433W        W24781   6.418  10.189   1.889
52434W        W24782  25.649  32.968  12.494
52435W        W24783  43.972  34.500   2.801
52436W        W24784  18.169  43.296   3.146
52437W        W24785  17.769  30.630  12.413
52438W        W24786   8.841   9.372   4.726
52439W        W24787  36.948  31.436   3.147
52440W        W24788  41.880  32.602  14.506
52441W        W24789  12.613  33.989   2.329
52442W        W24790   9.712  36.475   1.769
52443W        W24791  11.369  35.859   0.403
52444W        W24792  22.163  27.109   3.300
52445W        W24793   9.329   8.326  13.926
52446W        W24794  30.490  26.096  10.638
52447W        W24795  41.825  40.526   4.777
52448W        W24796  23.697  40.468  14.020
52449W        W24797  13.277  16.179   1.694
52450W        W24798  39.393  11.713   4.141
52451W        W24799  44.970  25.650   1.825
52452W        W24800  38.426  40.482  12.460
52453W        W24801  10.822  42.986  10.942
52454W        W24802  12.269  33.079   2.718
52455W        W24803   4.871   8.347   0.864
52456W        W24804  20.597  13.175   3.374
52457W        W24805  38.038  37.403   3.782
52458W        W24806  43.488  19.762   1.382
52459W        W24807  41.911  35.591  14.330
52460W        W24808  42.344   6.741   2.833
52461W        W24809  28.149   7.275   3.229
52462W        W24810  14.214  17.273   1.242
52463W        W24811   9.736  14.247   4.835
52464W        W24812  19.597  16.755   3.187
52465W        W24813   1.907  39.400   1.362
52466W        W24814  19.663   5.728  12.942
52467W        W24815  32.432  18.578  14.929
52468W        W24816  42.482   4.255  13.494
52469W        W24817  17.107  28.503  12.382
52470W        W24818  14.769  10.342  13.958
52471W        W24819  18.769  32.023   0.855
52472W        W24820  41.027  15.793  14.927
52473W        W24821   5.702  42.429   0.446
52474W        W24822   0.374  10.158  10.567
52475W        W24823  37.493  32.489  14.902
52476W        W24824  13.732  39.018  14.869
52477W        W24825  19.627  21.591   0.447
52478W        W24826  40.027  18.266  14.300
52479W        W24827  39.344  17.094  13.527
52480W        W24828  16.676  26.982   4.682
52481W        W24829  32.461   3.856  11.487
52482W        W24830  38.414   6.868   1.791
52483W        W24831  40.006  14.281   4.775
52484W        W24832  16.682   2.958   0.476
52485W        W24833  36.483  22.034  14.878
52486W        W24834  17.772  25.195  11.593
52487W        W24835  37.360  14.111  13.855
52488W        W24836  40.547   3.831   0.865
52489W        W24837  23.208  28.005   4.626
52490W        W24838  12.312  10.771  12.990
52491W        W24839  25.208  14.287  13.488
52492W        W24840   7.831  44.505   0.465
52493W        W24841  31.501   7.789  14.014
52494W        W24842   0.278  13.247   1.251
52495W        W24843  27.966  16.248   1.271
52496W        W24844  41.929  21.213   4.814
52497W        W24845   5.918  23.702  12.895
52498W        W24846   3.330  41.806  14.433
52499W        W24847   7.691  22.121   0.838
52500W        W24848  40.408   4.270  14.839
52501W        W24849  41.507  30.543   2.870
52502W        W24850  24.012  40.311  13.871
52503W        W24851  22.139  13.331   4.670
52504W        W24852  35.601  16.738   1.775
52505W        W24853   8.336  43.933   4.675
52506W        W24854  27.951  32.106  13.995
52507W        W24855  29.587  13.634   1.708
52508W        W24856  23.097  37.380   0.961
52509W        W24857  31.562  16.247   3.810
52510W        W24858  39.480  39.943  10.611
52511W        W24859  15.705  39.893  13.834
52512W        W24860  13.826   1.353   4.760
52513W        W24861  14.118  25.497   2.385
52514W        W24862  27.127  39.502  12.477
52515W        W24863  33.543  24.674   3.758
52516W        W24864  10.316  15.763   0.394
52517W        W24865   5.401  41.829   1.724
52518W        W24866  37.435   2.871   4.612
52519W        W24867  15.704  31.084  14.309
52520W        W24868  20.028  34.487   4.207
52521W        W24869   0.932  30.528  11.858
52522W        W24870  37.484  22.244   1.421
52523W        W24871  19.567   7.760   0.888
52524W        W24872  20.646  13.727   2.390
52525W        W24873  16.239  42.381   3.202
52526W        W24874  38.911  24.672  11.895
52527W        W24875  13.841  20.602   2.665
52528W        W24876  20.165  14.744  13.060
52529W        W24877  14.608   8.873  10.041
52530W        W24878  37.028  10.768  14.399
52531W        W24879  34.916   2.352  12.941
52532W        W24880  39.858  40.046   4.195
52533W        W24881  36.475  18.128   4.329
52534W        W24882   1.872   3.918  14.456
52535W        W24883  26.169  30.491  12.411
52536W        W24884  26.092   4.283   3.742
52537W        W24885   8.846  14.275  10.555
52538W        W24886   9.304  33.105  10.957
52539W        W24887  44.342  29.932   3.663
52540W        W24888  44.485  29.648  13.506
52541W        W24889  19.170  14.297  14.861
52542W        W24890  15.725  30.514  11.927
52543W        W24891   9.243  30.557  12.431
52544W        W24892  25.062  38.426   3.238
52545W        W24893  27.968  44.382  13.331
52546W        W24894  41.456  11.645   1.346
52547W        W24895  35.360  20.063  14.419
52548W        W24896   7.707   6.846  13.487
52549W        W24897  13.252   6.265   2.374
52550W        W24898   1.332  27.023   1.866
52551W        W24899  21.592  31.608   2.823
52552W        W24900  35.576  39.017   4.287
52553W        W24901  17.150  40.331   1.916
52554W        W24902  19.696  34.585  12.957
52555W        W24903  33.023   7.280  11.120
52556W        W24904  44.770  12.167  11.572
52557W        W24905  35.359  36.449   0.843
52558W        W24906   3.779  20.626   4.208
52559W        W24907  22.657  37.457   5.227
52560W        W24908  31.593  25.180  12.927
52561W        W24909   5.916  22.073  12.354
52562W        W24910  18.179   6.285  10.944
52563W        W24911  20.062  15.299  10.553
52564W        W24912  16.696  25.152   4.330
52565W        W24913  40.998  40.862   3.749
52566W        W24914  16.312  44.864  12.922
52567W        W24915  24.543  15.586   4.336
52568W        W24916   7.386  43.492  12.911
52569W        W24917  42.829   4.852  13.485
52570W        W24918  34.447  20.700   9.954
52571W        W24919  38.513  16.300  13.498
52572W        W24920  14.100  41.808   5.152
52573W        W24921  31.568  22.131   4.210
52574W        W24922  25.154  10.741   4.687
52575W        W24923  41.927  14.133   0.345
52576W        W24924  36.954   8.380  12.989
52577W        W24925   8.269  27.997  13.532
52578W        W24926   4.744  10.666   2.216
52579W        W24927  42.492  22.228  11.015
52580W        W24928  42.281  12.730  10.458
52581W        W24929   6.704  17.190  13.017
52582W        W24930  35.988  29.149   4.351
52583W        W24931  25.171  32.939  13.938
52584W        W24932  12.638   2.453   3.380
52585W        W24933  18.136   1.785  13.868
52586W        W24934   5.388  32.521  12.431
52587W        W24935  23.044  44.904  10.937
52588W        W24936  24.518  33.073   1.259
52589W        W24937  26.144  40.840   0.327
52590W        W24938   5.282   8.319   0.337
52591W        W24939  21.715  37.497  10.456
52592W        W24940  42.376  13.757   0.458
52593W        W24941  17.743  24.024   0.315
52594W        W24942  17.246  26.526   4.616
52595W        W24943  22.083  35.882  12.558
52596W        W24944  33.115  32.008   1.898
52597W        W24945  21.592  17.118  10.461
52598W        W24946  44.286   5.934   2.896
52599W        W24947  37.520  23.529   2.784
52600W        W24948  42.470  32.636   4.700
52601W        W24949  21.263  29.067   9.996
52602W        W24950  18.591  10.818   3.347
52603W        W24951  24.656  29.615   4.779
52604W        W24952  28.137   2.419  14.861
52605W        W24953  13.251  22.644  11.956
52606W        W24954  26.067  22.588   1.283
52607W        W24955  44.499   7.278   1.753
52608W        W24956  41.952  16.079  12.441
52609W        W24957  38.389   7.751   1.353
52610W        W24958  22.567   6.715  12.513
52611W        W24959  21.130  26.534  13.331
52612W        W24960  25.164  20.687   3.336
52613W        W24961  34.560  37.859   0.384
52614W        W24962  41.006  19.175   2.337
52615W        W24963  11.856  16.701  12.499
52616W        W24964  44.457  28.016  14.498
52617W        W24965   1.793  28.105   0.259
52618W        W24966   6.813  17.299   2.212
52619W        W24967   7.712  38.478  12.030
52620W        W24968  40.460   8.771  14.906
52621W        W24969  38.922  38.377  10.589
52622W        W24970  16.224   9.271   2.402
52623W        W24971  10.753   4.748   0.481
52624W        W24972  39.943  33.014  13.541
52625W        W24973  23.532  10.346   2.207
52626W        W24974  26.526  14.745   3.330
52627W        W24975   1.414   9.828   2.339
52628W        W24976  20.721  22.641  13.791
52629W        W24977  34.025   6.701  14.792
52630W        W24978  33.518  14.327  14.913
52631W        W24979  18.185   2.267   0.411
52632W        W24980  10.868   5.263  10.133
52633W        W24981  27.527  34.471   2.750
52634W        W24982  34.544   6.922  13.349
52635W        W24983   2.957   9.161   3.302
52636W        W24984  39.433  40.526  11.921
52637W        W24985  34.962   4.254  13.961
52638W        W24986  18.743  38.010   3.819
52639W        W24987  28.151   0.838  14.811
52640W        W24988  20.738  13.144  11.507
52641W        W24989  13.293  38.964   4.244
52642W        W24990  20.264  31.074  13.487
52643W        W24991  16.174  41.403  14.976
52644W        W24992  14.595   7.375   3.165
52645W        W24993  12.327  17.286   0.942
52646W        W24994   6.323  31.898   4.161
52647W        W24995  26.659  13.614  14.835
52648W        W24996  21.721  30.559   4.713
52649W        W24997   8.765  24.528  10.983
52650W        W24998   2.231   6.875   3.324
52651W        W24999  31.046  10.263  10.439
52652W        W25000  34.614  18.241   4.255
52653W        W25001  44.793  13.233  11.916
52654W        W25002  29.458  11.273   3.632
52655W        W25003   1.963  36.042  14.300
52656W        W25004   0.338  23.162   1.823
52657W        W25005  17.592  27.594   3.814
52658W        W25006  19.619   7.223   2.770
52659W        W25007   2.233  29.125   2.756
52660W        W25008  34.884  30.597   4.263
52661W        W25009  14.787   2.381   3.813
52662W        W25010  21.179   3.722   3.158
52663W        W25011  11.283   4.248   4.709
52664W        W25012  28.678   0.775   1.422
52665W        W25013  30.455   5.856   0.326
52666W        W25014  27.515   2.449   1.388
52667W        W25015  39.437  11.266   0.734
52668W        W25016   3.900  19.247   3.278
52669W        W25017   6.852  33.437   0.480
52670W        W25018  22.519  14.339  14.822
52671W        W25019  21.736  16.252  10.980
52672W        W25020   3.889  43.327  11.925
52673W        W25021  33.554  35.054  10.898
52674W        W25022  28.966   0.780   4.267
52675W        W25023  44.964  44.277   1.775
52676W        W25024  20.100  13.228   2.196
52677W        W25025  40.901  31.625   1.840
52678W        W25026  29.100   0.782   0.396
52679W        W25027  22.070  43.305   4.811
52680W        W25028   8.165  20.214  10.063
52681W        W25029  25.027  41.485   2.695
52682W        W25030  10.787  29.115  14.329
52683W        W25031   4.831  31.952  10.639
52684W        W25032  28.610   3.422   0.407
52685W        W25033  17.300  37.353  14.956
52686W        W25034   1.843   0.373   2.764
52687W        W25035  23.003  15.154   2.280
52688W        W25036  12.816   2.799   3.674
52689W        W25037  23.524  26.060  13.929
52690W        W25038  28.539  17.076   1.262
52691W        W25039   6.421   9.869  14.481
52692W        W25040  20.681  36.580  11.602
52693W        W25041  31.575  28.564  13.520
52694W        W25042  42.910   1.940   0.477
52695W        W25043  43.323   8.742   4.181
52696W        W25044  23.706  30.924   4.330
52697W        W25045  31.104  13.768   1.425
52698W        W25046   3.876  43.920   1.449
52699W        W25047  41.827  21.742  14.465
52700W        W25048  38.879  24.148   0.816
52701W        W25049  22.138  42.858   2.819
52702W        W25050   0.859  34.370  12.020
52703W        W25051  38.034   9.385   3.866
52704W        W25052  40.947  36.358  10.547
52705W        W25053  14.729   5.423  14.442
52706W        W25054   6.299  15.252  11.527
52707W        W25055  23.193   2.792  13.497
52708W        W25056  24.518  41.830   4.249
52709W        W25057  33.989  44.960   2.880
52710W        W25058  20.729  33.520   3.805
52711W        W25059  41.459  34.926   0.896
52712W        W25060  12.784  30.133   4.204
52713W        W25061  15.194  18.115  12.964
52714W        W25062  17.276  17.660   4.300
52715W        W25063  43.502  43.428  13.530
52716W        W25064   2.803  38.943   0.435
52717W        W25065  20.028  27.115   1.243
52718W        W25066  26.634   6.243  12.351
52719W        W25067  27.176  32.590   2.396
52720W        W25068  17.694   9.221   1.781
52721W        W25069  15.704  10.340   2.181
52722W        W25070  43.405   5.869   1.822
52723W        W25071   1.783   9.249  12.474
52724W        W25072  34.602   1.821   1.731
52725W        W25073  25.509  31.917   0.769
52726W        W25074  44.369  18.619   2.718
52727W        W25075   2.293  29.050   0.862
52728W        W25076  22.665  10.160  13.873
52729W        W25077  18.178  29.103  11.406
52730W        W25078  38.545  40.917  11.516
52731W        W25079  16.174  19.716   4.722
52732W        W25080  38.565   3.811   1.316
52733W        W25081  29.519  28.961  14.866
52734W        W25082  29.465   8.715  11.103
52735W        W25083  18.593  19.068   0.333
52736W        W25084   9.283  16.184   1.376
52737W        W25085   7.322  35.461  14.932
52738W        W25086   7.194  43.321  13.336
52739W        W25087   9.198  14.173  13.504
52740W        W25088  25.502  28.122  12.955
52741W        W25089   8.208  10.783   1.219
52742W        W25090  27.461  18.282   1.392
52743W        W25091  10.266   5.703   3.754
52744W        W25092  40.359   9.764   1.299
52745W        W25093  27.534  39.932  13.384
52746W        W25094  38.425   2.829   4.229
52747W        W25095  27.142  29.446  13.052
52748W        W25096  20.613   1.462  10.592
52749W        W25097   3.348  11.749   4.198
52750W        W25098  22.701  30.112   4.294
52751W        W25099  19.091  35.946  10.549
52752W        W25100   3.364  21.131  13.813
52753W        W25101  17.216  42.424  10.581
52754W        W25102   0.745  38.937   3.771
52755W        W25103   3.415  27.197  13.966
52756W        W25104  22.709  28.540   1.437
52757W        W25105  21.019  23.543   3.711
52758W        W25106  26.513  14.109   0.362
52759W        W25107  11.763  32.394   0.815
52760W        W25108  12.816  32.392  12.003
52761W        W25109  18.584   2.423   3.814
52762W        W25110  15.652  25.057  14.514
52763W        W25111   5.894  17.090  14.365
52764W        W25112  23.020  27.570   1.364
52765W        W25113  36.447   5.408   1.444
52766W        W25114  42.998  34.932   3.170
52767W        W25115  44.361  36.940   4.745
52768W        W25116   0.302  15.753  14.806
52769W        W25117  23.139  16.650  10.527
52770W        W25118  28.071   1.454   4.703
52771W        W25119  22.628  40.828   1.296
52772W        W25120  19.215  15.301  13.969
52773W        W25121  32.132   0.255   4.767
52774W        W25122  37.901   4.884   4.778
52775W        W25123  24.703  29.162   1.284
52776W        W25124  31.073  13.243   2.678
52777W        W25125  25.676  28.582  14.935
52778W        W25126  43.933  13.639  12.552
52779W        W25127   5.853  16.177  12.480
52780W        W25128  31.936  20.760  12.885
52781W        W25129  24.584  26.651   4.647
52782W        W25130  22.529   1.847   4.739
52783W        W25131  20.553  24.013   0.279
52784W        W25132  40.347  12.614  11.419
52785W        W25133  21.034  26.651  11.381
52786W        W25134  41.450  22.744   1.329
52787W        W25135  28.640   1.977   1.429
52788W        W25136   5.868  10.194  12.980
52789W        W25137  35.072  29.629   5.315
52790W        W25138   6.265  37.362  12.386
52791W        W25139   9.714   7.310  12.532
52792W        W25140   9.765  43.802  14.875
52793W        W25141  39.485   1.747  13.905
52794W        W25142  15.762  14.234   3.658
52795W        W25143  36.066   7.852  12.971
52796W        W25144  26.694  11.235  12.987
52797W        W25145  36.497   4.350   0.944
52798W        W25146  20.103  11.810   3.701
52799W        W25147  32.984  30.124  12.087
52800W        W25148  37.976  38.395  12.976
52801W        W25149   7.731  42.798   1.322
52802W        W25150  18.606  26.113   2.813
52803W        W25151  20.191   6.197  13.405
52804W        W25152  16.807  18.582  12.969
52805W        W25153  33.410  26.650   0.916
52806W        W25154  35.058  18.241  11.013
52807W        W25155  24.594   9.181   2.729
52808W        W25156   3.243  17.754   4.281
52809W        W25157  23.576  35.050   1.235
52810W        W25158  15.748  33.560   9.999
52811W        W25159   9.318  14.631  12.517
52812W        W25160  39.006  25.191   1.219
52813W        W25161  18.182  14.226   0.448
52814W        W25162  44.849  28.933   1.774
52815W        W25163   3.384   6.821   4.221
52816W        W25164  36.523   0.352   0.931
52817W        W25165   3.716   8.367   4.659
52818W        W25166  35.373  35.469   3.286
52819W        W25167   5.323  34.993   0.843
52820W        W25168  11.258  28.563   2.352
52821W        W25169   6.821  14.213   4.257
52822W        W25170   5.436  17.705   0.901
52823W        W25171  12.342  36.879   4.626
52824W        W25172  15.667  22.085   2.346
52825W        W25173  42.011  19.124  13.063
52826W        W25174  11.264  16.802  11.045
52827W        W25175  34.907  18.694  10.481
52828W        W25176   6.791  23.636  12.941
52829W        W25177  39.981   6.364   1.370
52830W        W25178  26.059  34.066   1.417
52831W        W25179  22.101  15.718   3.299
52832W        W25180  15.642  38.004  14.891
52833W        W25181  12.628  30.572   0.276
52834W        W25182   8.699  16.174   3.848
52835W        W25183  17.268  36.081  12.029
52836W        W25184  29.082  22.707  14.810
52837W        W25185  39.849   9.205  11.512
52838W        W25186  24.510  31.534   0.758
52839W        W25187  35.013  17.224  11.934
52840W        W25188  27.040  18.280  12.385
52841W        W25189  42.497   9.828   3.381
52842W        W25190   2.278  30.088  13.898
52843W        W25191  14.133  20.745  10.906
52844W        W25192   1.768  36.982  13.842
52845W        W25193  22.193  29.922  12.003
52846W        W25194   0.810   8.696   0.375
52847W        W25195  32.523   0.461  12.457
52848W        W25196  32.502  18.723  13.373
52849W        W25197  39.967  24.564   2.264
52850W        W25198   4.344  30.517   1.731
52851W        W25199   8.668  35.433  12.378
52852W        W25200  22.163  30.546   2.787
52853W        W25201  18.577  39.521  10.490
52854W        W25202  25.971   1.752  14.873
52855W        W25203  39.408  33.112  14.812
52856W        W25204  34.024  25.035   3.255
52857W        W25205  16.597  29.043   4.674
52858W        W25206  19.747  20.681   4.141
52859W        W25207   7.706   6.203   2.372
52860W        W25208  42.282  11.834   4.150
52861W        W25209  32.892   7.831   2.389
52862W        W25210  26.600  29.063   3.846
52863W        W25211  24.211  14.162  12.480
52864W        W25212  18.723  34.867   0.354
52865W        W25213  19.663   9.367   1.769
52866W        W25214  34.553  44.332  10.532
52867W        W25215  19.277   5.198  11.083
52868W        W25216  18.643  32.892   2.855
52869W        W25217  33.408  20.705  10.506
52870W        W25218  27.029  17.590  11.045
52871W        W25219  32.126  13.123   2.267
52872W        W25220   0.769  34.564   9.990
52873W        W25221  24.478  14.699   0.935
52874W        W25222   3.887  21.017   2.901
52875W        W25223  40.011  10.702  12.353
52876W        W25224  32.948  23.228   0.796
52877W        W25225  22.610  31.990  11.450
52878W        W25226  13.640  38.038  14.994
52879W        W25227  34.938   3.365   0.278
52880W        W25228  17.572  11.271   4.287
52881W        W25229  40.829  21.260   1.739
52882W        W25230  28.568  12.314   0.756
52883W        W25231  14.328  27.085   2.669
52884W        W25232  15.296  32.410  13.506
52885W        W25233   7.677  22.142   2.407
52886W        W25234  31.427   7.716   5.614
52887W        W25235   4.325  35.557  13.478
52888W        W25236   1.851   4.398  14.279
52889W        W25237  30.570  44.859   1.897
52890W        W25238  11.252  31.609  14.834
52891W        W25239  28.142  23.139  12.546
52892W        W25240  11.628  31.634  10.437
52893W        W25241  18.068   3.391   4.768
52894W        W25242  27.462  17.744  11.981
52895W        W25243   3.284  21.173   5.311
52896W        W25244  26.002  12.756   1.395
52897W        W25245  38.909   3.387   4.353
52898W        W25246   3.319  10.667  12.416
52899W        W25247   2.444  11.200   3.274
52900W        W25248   4.330  44.340  12.864
52901W        W25249  23.665  25.123  11.080
52902W        W25250  10.761  11.778   4.266
52903W        W25251  15.114   3.791  14.772
52904W        W25252  11.334  34.004  13.022
52905W        W25253  15.718  16.099  14.868
52906W        W25254  36.585  20.272   0.470
52907W        W25255  23.609  28.009  10.967
52908W        W25256  10.210  31.404   4.647
52909W        W25257   7.867  29.026   1.849
52910W        W25258   3.866  20.177  10.894
52911W        W25259   6.773  38.854  10.467
52912W        W25260  19.159  22.636   0.247
52913W        W25261  23.205  26.605  12.363
52914W        W25262   1.405  20.650  10.915
52915W        W25263  15.675  16.209   3.319
52916W        W25264  42.509  24.671  13.794
52917W        W25265  14.724   6.895   0.919
52918W        W25266  12.340  27.105  10.922
52919W        W25267  34.070  12.331  13.010
52920W        W25268  43.969  10.734  11.594
52921W        W25269  36.435  40.546   4.245
52922W        W25270  35.578  43.298   3.732
52923W        W25271  12.116   8.363   4.628
52924W        W25272  10.819   0.410  11.556
52925W        W25273  38.060  36.530   0.959
52926W        W25274  24.499  38.846   0.879
52927W        W25275  28.120  15.232  14.389
52928W        W25276  17.077  25.080  13.319
52929W        W25277  14.155  39.367  13.443
52930W        W25278  10.333  32.941   0.416
52931W        W25279  38.899  18.588   2.276
52932W        W25280   0.250   7.355   2.183
52933W        W25281  33.982   7.742  14.293
52934W        W25282  32.082  36.517   3.374
52935W        W25283  43.819  29.613  14.985
52936W        W25284  30.120  35.981  13.348
52937W        W25285  32.602  38.952  10.991
52938W        W25286  11.635  17.709   1.259
52939W        W25287  13.310  24.150   3.848
52940W        W25288  23.073  10.274  14.420
52941W        W25289  37.556  42.410  13.345
52942W        W25290  17.070  14.602   4.640
52943W        W25291  11.731  20.110   2.251
52944W        W25292   8.813  21.529   1.922
52945W        W25293   7.711  12.141  12.037
52946W        W25294  29.462  44.958   3.300
52947W        W25295  13.335  13.146   0.794
52948W        W25296   3.858   8.818   0.388
52949W        W25297  34.880  17.065  14.430
52950W        W25298  11.852  12.282   4.774
52951W        W25299   7.332  19.687   3.660
52952W        W25300  39.498  17.188   1.223
52953W        W25301  40.347  29.141   1.373
52954W        W25302   8.165  14.805   3.205
52955W        W25303   5.700  35.015   0.261
52956W        W25304  25.613   9.791   2.330
52957W        W25305  16.200  31.626  13.482
52958W        W25306  20.117   8.210  13.531
52959W        W25307  10.831  28.965  10.414
52960W        W25308   1.830  37.339  12.888
52961W        W25309  24.565  31.494  14.931
52962W        W25310  36.007  13.702   3.637
52963W        W25311  43.005  31.463  11.074
52964W        W25312  33.384  16.237  13.065
52965W        W25313   2.242  43.021  12.505
52966W        W25314  26.457  21.188  12.487
52967W        W25315  41.348  18.704   1.326
52968W        W25316  30.934  33.486   0.812
52969W        W25317  28.008  40.380   1.842
52970W        W25318  30.959  41.834   1.356
52971W        W25319  16.147   5.828  12.015
52972W        W25320  37.047  33.444  14.479
52973W        W25321  41.964   3.381   2.387
52974W        W25322  25.095  29.426  12.848
52975W        W25323  18.742  17.231   0.819
52976W        W25324  20.156   8.760  13.820
52977W        W25325  36.492  23.145  12.465
52978W        W25326  15.126   6.203  11.583
52979W        W25327  22.138  29.981  13.978
52980W        W25328  42.486  40.859   4.220
52981W        W25329  34.108  23.643  11.985
52982W        W25330  21.605   1.898   4.772
52983W        W25331  15.606   9.290  11.055
52984W        W25332  14.293  39.878   3.866
52985W        W25333  40.008   6.747   4.170
52986W        W25334  40.508  22.641   4.810
52987W        W25335   6.408  38.440   3.278
52988W        W25336  39.024  43.925  10.099
52989W        W25337  30.456  12.210   0.425
52990W        W25338  22.119  37.559  14.883
52991W        W25339  39.429  36.528   4.249
52992W        W25340   4.777  19.268   2.238
52993W        W25341  35.957  23.490  11.405
52994W        W25342  16.312  30.098  10.946
52995W        W25343  30.477  13.778   1.430
52996W        W25344  36.590  15.143  11.427
52997W        W25345  17.137   8.741   2.758
52998W        W25346  29.494  44.858   0.305
52999W        W25347  14.697   8.349  10.417
53000W        W25348  29.632  13.192  13.487
53001W        W25349  19.177   9.644  12.051
53002W        W25350  36.404  19.205  12.074
53003W        W25351  14.159  16.680  13.899
53004W        W25352  31.494  25.490   4.180
53005W        W25353  43.800  20.174   2.899
53006W        W25354  26.092  35.592  12.420
53007W        W25355  16.779  37.040   2.244
53008W        W25356   5.206  27.528  14.850
53009W        W25357  13.842  15.114   2.689
53010W        W25358  22.012  28.080  13.798
53011W        W25359  33.542   1.237   1.766
53012W        W25360  17.714   2.463   1.250
53013W        W25361  15.108  12.649   4.269
53014W        W25362  26.176   0.879   1.707
53015W        W25363  40.507  31.547   0.836
53016W        W25364  15.735  22.156  13.418
53017W        W25365  34.114   6.232  10.928
53018W        W25366  43.865  42.454  11.589
53019W        W25367   6.335  19.052  12.994
53020W        W25368  31.601  37.983   4.149
53021W        W25369  22.089   3.334   1.391
53022W        W25370  22.224   0.813  11.893
53023W        W25371  30.038   1.942  12.509
53024W        W25372  36.389  17.111   5.094
53025W        W25373  20.747  14.333  11.451
53026W        W25374  35.933  43.453  14.016
53027W        W25375  21.662  24.196   2.744
53028W        W25376  43.768   1.886   0.925
53029W        W25377  18.177  21.247  12.851
53030W        W25378   7.398  16.648   4.795
53031W        W25379  10.877  10.301   4.314
53032W        W25380  27.557  20.268  14.920
53033W        W25381  17.235  28.150   2.840
53034W        W25382   2.349  25.018   3.371
53035W        W25383  42.825  20.629  12.462
53036W        W25384   4.728  23.002  14.283
53037W        W25385  21.077  35.919  13.855
53038W        W25386   0.401  19.547   4.279
53039W        W25387  30.598  16.716  11.456
53040W        W25388  32.431  24.128  12.997
53041W        W25389  40.424  26.170  10.991
53042W        W25390  27.068  30.431   4.165
53043W        W25391  21.521  26.646  13.492
53044W        W25392  44.878  36.096   3.387
53045W        W25393  12.227  21.020   1.847
53046W        W25394  12.631  15.631   3.798
53047W        W25395  20.715  35.875  13.384
53048W        W25396  37.869  16.598   0.798
53049W        W25397  16.107  23.618  12.894
53050W        W25398  28.634  30.122  14.443
53051W        W25399   5.752  12.853   1.376
53052W        W25400  25.478  30.955  14.418
53053W        W25401  32.525   5.247  11.942
53054W        W25402   0.453   2.278  13.020
53055W        W25403  10.846  34.465   0.737
53056W        W25404  43.332  29.978  10.947
53057W        W25405   8.270  12.163   3.295
53058W        W25406  18.160  29.547  10.447
53059W        W25407  27.968   2.964   4.786
53060W        W25408   3.405   8.817  10.901
53061W        W25409  12.344  31.482  12.829
53062W        W25410   5.914  19.076  13.540
53063W        W25411  15.813  42.989   4.809
53064W        W25412   8.827   0.258  14.487
53065W        W25413   1.946  35.917   1.325
53066W        W25414  21.636  29.960   0.836
53067W        W25415  14.294  36.065  12.879
53068W        W25416  27.671  26.154  13.525
53069W        W25417  36.381   4.307   4.724
53070W        W25418  42.490  29.626  13.064
53071W        W25419  34.030  28.138   4.263
53072W        W25420   7.875  26.493   2.788
53073W        W25421  42.496  18.638  13.006
53074W        W25422   5.710   8.887  14.964
53075W        W25423  37.505   5.863   3.685
53076W        W25424  33.590   7.345   3.703
53077W        W25425  26.585  33.524  11.433
53078W        W25426  21.065  43.789  12.415
53079W        W25427  31.635  36.085  11.549
53080W        W25428   1.753  31.627  13.929
53081W        W25429  32.908  40.950   3.756
53082W        W25430  38.972  37.084  14.012
53083W        W25431  28.514  10.651  12.465
53084W        W25432  21.148  22.522   5.103
53085W        W25433   1.261  20.669  11.446
53086W        W25434  13.238  12.848   3.650
53087W        W25435  32.134  22.667   2.257
53088W        W25436  38.948  12.742  12.543
53089W        W25437   2.821  40.978  12.914
53090W        W25438  30.455  26.458   3.278
53091W        W25439  32.139  17.704  12.827
53092W        W25440  12.842  40.852   4.702
53093W        W25441   8.801   4.903  13.993
53094W        W25442  22.680  27.654  10.446
53095W        W25443  19.141  22.041   0.826
53096W        W25444  26.497  24.214   5.113
53097W        W25445  15.620  15.788  13.935
53098W        W25446   1.834  17.148  11.424
53099W        W25447  34.040  33.961  14.426
53100W        W25448  11.784  36.448  12.446
53101W        W25449  21.662  16.697   3.344
53102W        W25450  12.642  23.533   3.344
53103W        W25451  16.178  19.678   2.890
53104W        W25452  40.931  26.060  13.426
53105W        W25453  11.773  41.796  13.479
53106W        W25454   9.314   6.679   2.879
53107W        W25455  36.518   0.273  11.101
53108W        W25456   4.243  31.626   3.744
53109W        W25457  27.052  38.350   3.285
53110W        W25458  22.574  29.580   4.756
53111W        W25459  24.499  35.935   4.697
53112W        W25460  25.119   3.375   4.743
53113W        W25461  34.962  34.369  10.108
53114W        W25462  14.673   7.778  12.074
53115W        W25463  31.546  10.318   4.193
53116W        W25464  32.576  24.545  11.991
53117W        W25465  26.579  33.047   0.863
53118W        W25466  36.568  10.293   3.292
53119W        W25467   0.456  10.227   0.363
53120W        W25468   8.214  21.604  13.007
53121W        W25469  18.783  24.184   5.231
53122W        W25470  27.451  22.243   4.125
53123W        W25471  25.060  31.136  12.043
53124W        W25472  19.063   2.422   2.186
53125W        W25473  40.858  23.998   4.731
53126W        W25474  16.224  43.932  11.983
53127W        W25475  30.090  11.653  11.502
53128W        W25476  29.486   3.321  14.280
53129W        W25477  11.330  43.484  10.551
53130W        W25478  10.286  20.199   2.341
53131W        W25479   7.171  30.559  12.090
53132W        W25480  34.880  35.922   2.213
53133W        W25481   4.783  38.461   4.300
53134W        W25482  39.325  42.810  13.381
53135W        W25483  19.187  27.976   0.882
53136W        W25484   2.942   0.923  12.485
53137W        W25485  33.117  31.606   3.337
53138W        W25486  32.056  25.016   2.763
53139W        W25487  14.169  19.737  11.073
53140W        W25488   5.754   0.374   1.902
53141W        W25489  37.843  29.977  10.578
53142W        W25490  18.622  11.304   4.724
53143W        W25491  32.618  30.069   2.731
53144W        W25492  30.909  36.854  10.457
53145W        W25493  21.234  21.148  14.502
53146W        W25494  43.490   9.301   0.367
53147W        W25495  36.019  17.764   1.890
53148W        W25496  44.806  37.057   0.854
53149W        W25497  39.526  25.980   2.861
53150W        W25498  10.761  37.085   2.781
53151W        W25499  12.833  12.236  12.473
53152W        W25500  32.955   3.948  14.994
53153W        W25501  24.680  13.119  13.475
53154W        W25502  13.685  35.975  14.410
53155W        W25503  16.257  28.068  11.111
53156W        W25504  20.077   7.842  11.993
53157W        W25505  34.595  10.199   0.891
53158W        W25506  19.546  25.504   4.684
53159W        W25507   8.690  23.985  11.018
53160W        W25508  30.419   7.253   0.295
53161W        W25509   9.390  40.899   3.383
53162W        W25510  28.456  18.284   4.113
53163W        W25511  44.434  35.443  13.427
53164W        W25512  27.103   9.264   2.234
53165W        W25513  33.117  36.567  14.446
53166W        W25514  13.714  36.576   0.441
53167W        W25515  18.579  33.436  10.160
53168W        W25516   8.823   9.361  14.516
53169W        W25517  37.526  43.436   0.855
53170W        W25518  33.514  40.921  14.804
53171W        W25519  16.172  39.384   3.243
53172W        W25520  22.136  31.510  14.769
53173W        W25521  37.020   6.881   3.206
53174W        W25522  36.972  26.113  11.603
53175W        W25523  15.159  44.338   0.883
53176W        W25524   9.250  44.001  12.855
53177W        W25525  37.906  25.663   2.376
53178W        W25526  34.978  24.052  11.956
53179W        W25527  22.731   3.832  14.812
53180W        W25528   6.333  41.366   0.334
53181W        W25529   7.748  32.519   5.272
53182W        W25530   2.225  15.285   3.285
53183W        W25531   8.709   1.435   3.634
53184W        W25532  10.284  37.063  14.444
53185W        W25533  10.176  19.056   4.611
53186W        W25534  22.018  17.111   3.862
53187W        W25535  18.234  14.767   0.890
53188W        W25536  24.164  43.856  14.322
53189W        W25537  38.365  43.426   0.331
53190W        W25538  30.504  11.286  12.486
53191W        W25539  22.603  31.985   1.423
53192W        W25540   9.384  18.141  12.921
53193W        W25541  39.384   5.319  14.983
53194W        W25542  33.943   4.337   4.616
53195W        W25543   9.776  31.133   9.601
53196W        W25544   0.842  28.461   3.232
53197W        W25545   0.811  20.192   4.758
53198W        W25546  32.631  40.549   1.352
53199W        W25547   2.789  38.384   0.365
53200W        W25548  42.412   8.725   3.318
53201W        W25549  14.207  15.164   3.322
53202W        W25550   3.344   6.852  10.466
53203W        W25551   2.448  26.492  12.359
53204W        W25552  36.476  41.940   2.228
53205W        W25553  21.671  21.207   4.206
53206W        W25554  41.295  24.033   3.854
53207W        W25555  23.118  38.498   1.779
53208W        W25556   9.757  25.562   0.323
53209W        W25557   7.841  21.064   1.445
53210W        W25558  34.103   3.364   3.641
53211W        W25559  24.157  25.505  11.903
53212W        W25560   2.270  26.187  12.412
53213W        W25561  14.761  40.851   2.806
53214W        W25562   0.470   7.842   1.836
53215W        W25563  19.138  36.989   2.342
53216W        W25564   6.300  20.736  12.365
53217W        W25565   0.951  13.251  12.558
53218W        W25566  10.290  42.501  14.885
53219W        W25567   9.822  43.957  11.968
53220W        W25568  21.528  18.739   2.863
53221W        W25569  15.751   0.925   1.806
53222W        W25570   0.373  20.612  11.602
53223W        W25571  19.173  40.875   2.259
53224W        W25572   2.244  36.015   4.240
53225W        W25573  27.155  15.251   1.907
53226W        W25574  19.703  18.730   3.357
53227W        W25575  40.910  43.902   0.328
53228W        W25576  44.493  22.662  14.802
53229W        W25577  26.467  37.524  14.453
53230W        W25578   1.972   2.857  12.059
53231W        W25579  17.155   6.833   0.963
53232W        W25580  14.244   8.812  12.511
53233W        W25581  38.475  14.688   3.856
53234W        W25582   3.924  37.893   4.802
53235W        W25583  43.003  29.610   0.938
53236W        W25584  20.076  20.716   2.261
53237W        W25585  17.569  13.211   9.582
53238W        W25586  22.135  44.811   2.197
53239W        W25587  28.668   8.803  14.897
53240W        W25588   7.827  19.133  12.985
53241W        W25589  26.512  14.312   4.294
53242W        W25590  36.071   4.390   0.818
53243W        W25591  34.035   8.384  14.436
53244W        W25592   9.828  26.464   3.246
53245W        W25593  15.173   0.795   4.186
53246W        W25594   9.810  41.010  13.876
53247W        W25595  28.058  13.600   2.771
53248W        W25596  27.498  34.440   3.702
53249W        W25597  31.923  34.502   3.796
53250W        W25598  43.775  14.623   1.331
53251W        W25599  28.500  30.549  10.618
53252W        W25600  42.993   2.240   3.149
53253W        W25601   4.748   7.777  11.527
53254W        W25602   7.695  21.675   0.322
53255W        W25603   9.154   8.706  14.958
53256W        W25604  23.043  25.586  11.084
53257W        W25605  44.878  19.727   2.273
53258W        W25606  19.573  40.827  13.345
53259W        W25607  34.060   3.742  13.545
53260W        W25608  22.205  40.913   4.624
53261W        W25609  15.236  12.660  12.450
53262W        W25610  17.593  19.216   1.213
53263W        W25611  31.502  34.927   5.225
53264W        W25612  24.163  44.484  13.012
53265W        W25613  27.956  39.933  10.127
53266W        W25614  22.560   9.790  12.574
53267W        W25615  29.088  38.570  10.550
53268W        W25616  44.978  13.613  12.883
53269W        W25617  29.668  38.018   3.200
53270W        W25618  14.153  22.095   2.413
53271W        W25619  12.636  31.583   2.268
53272W        W25620  40.858   1.811   4.720
53273W        W25621  42.845  22.720  11.503
53274W        W25622  16.757   6.312   2.891
53275W        W25623  28.571   4.877  12.580
53276W        W25624  22.083  15.266  10.925
53277W        W25625  44.912  35.386  11.888
53278W        W25626  15.212  34.378  11.999
53279W        W25627  31.898  30.530  13.470
53280W        W25628  16.713  31.981   3.187
53281W        W25629  44.847  44.264   2.712
53282W        W25630  18.063   5.924   0.787
53283W        W25631  31.896  26.029   2.275
53284W        W25632   5.731  23.555   0.286
53285W        W25633   1.422  24.647   1.261
53286W        W25634  23.585  37.832  13.026
53287W        W25635  31.927   4.427  13.943
53288W        W25636   8.282  23.494   2.271
53289W        W25637   4.433   7.345   4.746
53290W        W25638   5.811  35.430   2.809
53291W        W25639  34.109  15.603  11.393
53292W        W25640  38.552  19.124  10.527
53293W        W25641   2.281   0.405   4.711
53294W        W25642  35.068  11.330   1.299
53295W        W25643  43.956  25.165   0.833
53296W        W25644   5.325   5.862  12.893
53297W        W25645   8.364  25.032   0.369
53298W        W25646  18.053  17.660   3.378
53299W        W25647   0.809  28.120   1.435
53300W        W25648  19.710   8.316   3.181
53301W        W25649   4.804  43.447   2.753
53302W        W25650  28.054  40.414  12.528
53303W        W25651  30.433  40.027  11.527
53304W        W25652  24.614  34.882  14.968
53305W        W25653  32.545  41.995   1.386
53306W        W25654  26.547   7.675   2.207
53307W        W25655  20.265  11.164   2.892
53308W        W25656  28.187  18.077  14.512
53309W        W25657  11.794   4.340   4.280
53310W        W25658  31.589   3.795   3.148
53311W        W25659  40.532  43.019  10.441
53312W        W25660  22.665  18.711   0.405
53313W        W25661  27.647  28.496   2.227
53314W        W25662   6.376  34.592  10.431
53315W        W25663  10.757  40.042   3.280
53316W        W25664  43.322  26.207  12.468
53317W        W25665  16.775  10.693   3.703
53318W        W25666  33.028  44.909   3.197
53319W        W25667  41.534   4.360  12.339
53320W        W25668  12.727  12.659  14.959
53321W        W25669  33.088  34.983   4.354
53322W        W25670  43.834  33.594   4.701
53323W        W25671  27.049   4.366  13.867
53324W        W25672  21.737   2.816  12.559
53325W        W25673  28.140  21.053  10.633
53326W        W25674  37.029  20.108   2.273
53327W        W25675  11.233  24.624   4.605
53328W        W25676  17.751  28.995  10.112
53329W        W25677  13.645  35.480   3.833
53330W        W25678  44.284   9.327   3.855
53331W        W25679  30.502  18.690  12.905
53332W        W25680  29.117   7.789  14.500
53333W        W25681  17.230  25.681   4.263
53334W        W25682  43.870  32.033   2.341
53335W        W25683  10.200  10.360   4.738
53336W        W25684   6.906  11.284  11.125
53337W        W25685  14.619  25.475  14.798
53338W        W25686   0.418  33.121   4.671
53339W        W25687  41.859  10.163  14.993
53340W        W25688  10.204   5.307   2.269
53341W        W25689  34.883   3.728  13.543
53342W        W25690   0.402   8.335   4.254
53343W        W25691  28.167  35.971  12.517
53344W        W25692   7.344  39.532  13.510
53345W        W25693  21.735  31.040   0.789
53346W        W25694  27.513  35.514  12.859
53347W        W25695  44.430  10.308   5.193
53348W        W25696   8.285  44.799  14.861
53349W        W25697  22.612  27.053  12.369
53350W        W25698   6.249  42.947  10.492
53351W        W25699   2.470  34.526   4.129
53352W        W25700  19.625  39.343   1.227
53353W        W25701  32.058  11.708   5.122
53354W        W25702   1.339   3.820   4.662
53355W        W25703  11.262  38.563   0.907
53356W        W25704  17.129  22.565   2.277
53357W        W25705   0.862  14.634   0.284
53358W        W25706  33.612   7.317   4.148
53359W        W25707  32.635   5.809   0.824
53360W        W25708  34.543  38.989  14.003
53361W        W25709   5.305  23.119   2.732
53362W        W25710   5.212  17.720   1.404
53363W        W25711  37.578  37.937  10.446
53364W        W25712  31.899  20.638   0.860
53365W        W25713  10.179  35.041  13.400
53366W        W25714  38.384  32.522  10.527
53367W        W25715  38.076  29.564   1.868
53368W        W25716   2.798  13.620  14.300
53369W        W25717   3.840  44.889   0.938
53370W        W25718  38.503  24.102   0.466
53371W        W25719  11.362  34.967  12.926
53372W        W25720  42.907  40.442  12.060
53373W        W25721  24.724  38.858  10.638
53374W        W25722  31.469  26.503   2.181
53375W        W25723   7.756  11.762   0.278
53376W        W25724  29.556   1.895  14.024
53377W        W25725   2.367  17.621  10.412
53378W        W25726  26.166  31.610   0.830
53379W        W25727  21.091  23.626  10.014
53380W        W25728  20.186   2.953  12.456
53381W        W25729  20.546  29.522  13.956
53382W        W25730   5.883  25.532   4.236
53383W        W25731  23.134  21.523  10.895
53384W        W25732   4.209  18.791  14.425
53385W        W25733  21.522  28.008   1.737
53386W        W25734  44.499  23.097  10.888
53387W        W25735   4.290  23.123   4.316
53388W        W25736  21.047  18.638  12.522
53389W        W25737  22.671  41.978  14.933
53390W        W25738  28.097   2.418   4.598
53391W        W25739  33.543  24.574  13.357
53392W        W25740  17.594  39.910   3.255
53393W        W25741  12.631  27.972   2.818
53394W        W25742  32.892  25.486  13.893
53395W        W25743  27.681  18.679   1.330
53396W        W25744  27.988  27.610  11.029
53397W        W25745  33.055  10.244   3.833
53398W        W25746  15.809  28.968   4.146
53399W        W25747  24.044  25.102  13.308
53400W        W25748  14.726  34.580  12.374
53401W        W25749  29.013  38.917   3.248
53402W        W25750  43.273  25.036   0.800
53403W        W25751  34.035  25.637  13.370
53404W        W25752  11.639   6.302   5.144
53405W        W25753  16.229  38.944  14.386
53406W        W25754  42.016  41.940   0.453
53407W        W25755  12.823  25.619   3.753
53408W        W25756   9.731  29.011  13.940
53409W        W25757  22.562  18.134  12.885
53410W        W25758   7.680  42.390   2.388
53411W        W25759  40.817  39.953  13.472
53412W        W25760  25.526  12.697  14.935
53413W        W25761  35.949  32.469  14.293
53414W        W25762  16.224  44.928   2.183
53415W        W25763  32.014  31.531   1.869
53416W        W25764   8.355  41.511   2.744
53417W        W25765  18.238  33.516  14.925
53418W        W25766  27.974  30.412   3.847
53419W        W25767  27.003  33.108  14.330
53420W        W25768  39.354  23.597   0.320
53421W        W25769   8.167   1.758  10.951
53422W        W25770  30.548  25.027   4.165
53423W        W25771  23.110  22.738   0.935
53424W        W25772  21.150  11.647  14.514
53425W        W25773  17.151  10.286   0.925
53426W        W25774  44.958  26.201   2.216
53427W        W25775  42.326  27.016  12.950
53428W        W25776   8.897  14.588  13.025
53429W        W25777  29.057  28.539   2.756
53430W        W25778  16.274  22.537  14.864
53431W        W25779  14.274  26.680   5.178
53432W        W25780  13.785  17.268  10.906
53433W        W25781  15.592  35.368   0.315
53434W        W25782   1.878  14.202  14.903
53435W        W25783  41.848  10.314  11.015
53436W        W25784  28.547  21.547  10.443
53437W        W25785  12.760   0.406  12.892
53438W        W25786  34.562  25.594  13.966
53439W        W25787  24.984  24.638  13.911
53440W        W25788  37.981  27.098   2.191
53441W        W25789  23.152   2.839   3.811
53442W        W25790  39.442  26.142  14.399
53443W        W25791  16.292   9.724   3.638
53444W        W25792  11.288  21.151   5.655
53445W        W25793  44.843  22.580   4.115
53446W        W25794   7.887  19.560   5.287
53447W        W25795  41.370   2.843   1.221
53448W        W25796   8.193  26.081   4.328
53449W        W25797   0.830  13.750   4.723
53450W        W25798  18.676  32.029  12.932
53451W        W25799  28.052  20.217  10.959
53452W        W25800  25.664  18.669   2.677
53453W        W25801  37.995  41.403   0.900
53454W        W25802  21.708  40.491   0.827
53455W        W25803  17.159  34.436  12.955
53456W        W25804  35.533  44.922   1.214
53457W        W25805  35.416  19.091  11.962
53458W        W25806  27.143  26.466  13.533
53459W        W25807  16.636   2.376  12.440
53460W        W25808   5.802  42.415   2.363
53461W        W25809   5.867  20.209   3.182
53462W        W25810  34.901  14.635   2.184
53463W        W25811  35.967  29.431   0.280
53464W        W25812   7.723  22.011   4.620
53465W        W25813  14.724  13.687   0.324
53466W        W25814  31.435  44.910   3.216
53467W        W25815  31.043  12.362  10.589
53468W        W25816  30.961  31.530  11.968
53469W        W25817  16.683  22.160  13.396
53470W        W25818  18.248  22.613   1.341
53471W        W25819   5.275   6.682   0.736
53472W        W25820  16.158  41.839  11.025
53473W        W25821  15.596  27.964   0.743
53474W        W25822  25.627  12.843   0.758
53475W        W25823  11.293  13.119   2.887
53476W        W25824  40.506  37.430  14.346
53477W        W25825  38.526  38.926  12.408
53478W        W25826  27.473  16.073   3.222
53479W        W25827  40.971  32.583   2.882
53480W        W25828  23.563  27.624   0.390
53481W        W25829   0.297  40.877   3.178
53482W        W25830   3.305   2.925   3.633
53483W        W25831  19.110   3.272   0.948
53484W        W25832  32.636  17.077  10.919
53485W        W25833  19.735  12.346   2.888
53486W        W25834  41.015  14.742  10.962
53487W        W25835  22.072  17.742   2.222
53488W        W25836   4.751   1.237  11.447
53489W        W25837  26.997  29.601  14.959
53490W        W25838  16.694  21.056   3.761
53491W        W25839  18.290  27.944   1.738
53492W        W25840  16.281  15.127  10.023
53493W        W25841  13.340  24.710   1.718
53494W        W25842  15.223   8.658   5.307
53495W        W25843   7.681  11.288  11.425
53496W        W25844  38.553  21.527   2.226
53497W        W25845   5.836  17.159   3.793
53498W        W25846   8.255   8.279   1.804
53499W        W25847  23.094  30.607  14.942
53500W        W25848  12.776  26.485   2.778
53501W        W25849  41.014   7.697   0.465
53502W        W25850  14.663  20.176  12.918
53503W        W25851   2.434  17.262   9.946
53504W        W25852   5.934  14.695   3.280
53505W        W25853  31.066  41.305  11.039
53506W        W25854  17.159  34.968  14.910
53507W        W25855   6.724  29.593  10.913
53508W        W25856  23.204  32.047  11.378
53509W        W25857  29.479  28.174  11.595
53510W        W25858  43.467  12.821   4.236
53511W        W25859   2.457  17.076   2.323
53512W        W25860   6.277  24.202   4.670
53513W        W25861  28.474  17.119   4.631
53514W        W25862  38.349  16.801   1.744
53515W        W25863  21.076   6.347   2.819
53516W        W25864  37.891  35.590   3.658
53517W        W25865   6.259  30.954  12.945
53518W        W25866  20.539  40.394  12.539
53519W        W25867  19.146  17.104  13.818
53520W        W25868  22.527  25.135   5.301
53521W        W25869  25.046  43.021   4.676
53522W        W25870  29.136  31.490  11.897
53523W        W25871  37.436   3.887  12.494
53524W        W25872  30.150  39.509  12.839
53525W        W25873  12.689  18.679   3.851
53526W        W25874  17.241  35.017  10.890
53527W        W25875  31.988  26.513  12.449
53528W        W25876  12.653   2.455  13.002
53529W        W25877  27.076   8.733   1.323
53530W        W25878  36.053  43.481  13.039
53531W        W25879  24.721  23.513  11.593
53532W        W25880   7.283   6.910   2.742
53533W        W25881  34.105  20.745  10.626
53534W        W25882  27.518  16.194   4.829
53535W        W25883   5.772  22.674   4.779
53536W        W25884  19.106   7.871   4.830
53537W        W25885  11.165  41.926   1.351
53538W        W25886  12.774  11.807  14.323
53539W        W25887   8.690  24.088   3.805
53540W        W25888  25.031  14.596  13.921
53541W        W25889  39.875  37.055   0.917
53542W        W25890  11.818  34.902  13.964
53543W        W25891  31.957   0.333   4.306
53544W        W25892  37.359  15.700   0.305
53545W        W25893  38.388  42.835   1.362
53546W        W25894  20.047  29.481   1.376
53547W        W25895   0.464  42.016  12.934
53548W        W25896  35.455  22.509  10.564
53549W        W25897  14.198  35.601  14.987
53550W        W25898   4.358  34.485   0.807
53551W        W25899  31.148  38.486  10.478
53552W        W25900   0.270  25.028  11.999
53553W        W25901   8.353   3.279  10.536
53554W        W25902  36.502  19.726  13.900
53555W        W25903  36.046  30.958   4.309
53556W        W25904  20.037  28.112   3.657
53557W        W25905  21.159   4.236  14.428
53558W        W25906  28.485  22.664   2.831
53559W        W25907  22.223  25.020  11.496
53560W        W25908  28.185  41.817   2.228
53561W        W25909   2.760   3.749  13.846
53562W        W25910  18.113  43.305  11.399
53563W        W25911   5.864  27.968   3.280
53564W        W25912  21.705  17.092  12.498
53565W        W25913  44.298   0.294  10.540
53566W        W25914  30.916  26.546  13.320
53567W        W25915  20.544   7.776   0.317
53568W        W25916   1.270  11.707   4.653
53569W        W25917  35.592   1.245   0.847
53570W        W25918   5.752  40.933   2.361
53571W        W25919  17.274  44.785  12.464
53572W        W25920  18.753   6.835  14.505
53573W        W25921  21.115  36.918   2.736
53574W        W25922  25.136  39.408   2.893
53575W        W25923   8.290   6.364   0.758
53576W        W25924  33.407  10.651  11.492
53577W        W25925  27.050  34.472   4.781
53578W        W25926   1.386  24.190   0.366
53579W        W25927   9.861  32.417  12.934
53580W        W25928  20.584   0.804   0.900
53581W        W25929  13.818   6.909  12.059
53582W        W25930  18.217  43.806  12.048
53583W        W25931  37.494   7.184  13.985
53584W        W25932  29.579  24.111   2.287
53585W        W25933   1.355  41.443  11.395
53586W        W25934  20.184  23.165   3.155
53587W        W25935  38.919   1.945   0.351
53588W        W25936  18.585   3.825  11.867
53589W        W25937   4.241   2.736   4.613
53590W        W25938  21.126  28.662   2.825
53591W        W25939   0.799   9.719  11.942
53592W        W25940  12.797  13.663   0.483
53593W        W25941   7.286  42.875   2.802
53594W        W25942  16.128  32.552  14.375
53595W        W25943   2.450  14.626  11.391
53596W        W25944   4.915  10.323  12.827
53597W        W25945  38.839  11.203   3.787
53598W        W25946   9.704  36.078   2.209
53599W        W25947  10.815  25.650  13.922
53600W        W25948   7.193  34.581  12.500
53601W        W25949  37.581  39.526  12.510
53602W        W25950  23.648  24.055  10.609
53603W        W25951  27.070  44.263   2.215
53604W        W25952  29.011  15.772   3.777
53605W        W25953  23.605  20.072   3.723
53606W        W25954  16.767  16.262   0.871
53607W        W25955  34.371   6.870  14.515
53608W        W25956  12.754  31.083  13.841
53609W        W25957  34.869  16.714  10.425
53610W        W25958   9.260   3.367  12.515
53611W        W25959  42.285  34.948  12.443
53612W        W25960  42.481  41.479  14.971
53613W        W25961   0.466  38.934   1.910
53614W        W25962   4.344  10.732  11.383
53615W        W25963   7.351  25.204   2.735
53616W        W25964  31.930   6.895   2.353
53617W        W25965  38.449  16.736   0.342
53618W        W25966  43.347  12.625   9.995
53619W        W25967  13.222  43.293  13.908
53620W        W25968  39.426  27.573  10.491
53621W        W25969  40.023  13.265  11.505
53622W        W25970  19.112  30.159   2.735
53623W        W25971  37.920  33.599   1.902
53624W        W25972  26.587  33.104  11.104
53625W        W25973  40.855  35.861  13.496
53626W        W25974   9.748  40.446   4.161
53627W        W25975  11.862  30.021   0.868
53628W        W25976  27.145  23.092  10.534
53629W        W25977   9.388  20.053   3.262
53630W        W25978  44.809  35.888  12.863
53631W        W25979  19.726   5.314   4.714
53632W        W25980  35.997  33.895  14.352
53633W        W25981   5.776  11.164   1.721
53634W        W25982   2.285  36.080  12.561
53635W        W25983  38.919  19.536  10.076
53636W        W25984  33.942   1.425   1.427
53637W        W25985  18.058   2.366  11.894
53638W        W25986   9.872  40.549   1.316
53639W        W25987  16.282  42.384  14.770
53640W        W25988  38.029   8.178   2.713
53641W        W25989  32.583   1.291  11.928
53642W        W25990  27.445  36.556  13.467
53643W        W25991  11.308  33.089  12.936
53644W        W25992  43.280  13.185  14.886
53645W        W25993  18.558   3.353   0.320
53646W        W25994  41.935  28.527  14.804
53647W        W25995  10.833  23.509   1.736
53648W        W25996  28.593  15.254  12.961
53649W        W25997   9.745  33.974  11.609
53650W        W25998  11.240  25.165  13.427
53651W        W25999  36.877  22.115   2.185
53652W        W26000  27.998  27.042   1.793
53653W        W26001  13.607  29.932  10.608
53654W        W26002  37.504   5.762   4.164
53655W        W26003   8.699  31.557   4.206
53656W        W26004   0.253  13.276  14.862
53657W        W26005  30.060  25.066   0.797
53658W        W26006  28.531  26.600  14.988
53659W        W26007  33.023  40.980  13.327
53660W        W26008  22.038  16.173   4.627
53661W        W26009  22.074  42.343  14.024
53662W        W26010  12.337  15.172   1.925
53663W        W26011  13.199  28.124   9.947
53664W        W26012  38.570   4.271   2.341
53665W        W26013  43.783   9.669   0.967
53666W        W26014  10.255  38.363   0.347
53667W        W26015   2.952  28.589  12.440
53668W        W26016  43.825  15.810   4.177
53669W        W26017  32.075  41.032  12.876
53670W        W26018  25.219  43.271  12.837
53671W        W26019  21.149  31.497   1.400
53672W        W26020  23.052   3.417  10.948
53673W        W26021  32.895  23.118   1.887
53674W        W26022  26.671  26.055  10.643
53675W        W26023   8.791  19.129   1.331
53676W        W26024   7.700  42.464   1.427
53677W        W26025  25.102  43.835   1.789
53678W        W26026  11.293   7.280  12.860
53679W        W26027  12.625  37.578   3.801
53680W        W26028   7.792  24.064   2.339
53681W        W26029  14.289   1.315  12.455
53682W        W26030  25.562   9.825  10.986
53683W        W26031  36.522  26.032   1.321
53684W        W26032  39.538  14.153   0.877
53685W        W26033  20.539  30.567  12.983
53686W        W26034  34.570  12.843   4.285
53687W        W26035   8.784  44.803  14.275
53688W        W26036  38.464  16.312  14.800
53689W        W26037  22.729  18.599   3.298
53690W        W26038  12.764   9.301   3.361
53691W        W26039  38.485  27.084  13.052
53692W        W26040  41.833  36.401   3.370
53693W        W26041  19.071  22.653  11.421
53694W        W26042  17.616  13.666  13.452
53695W        W26043  12.758  42.513  11.051
53696W        W26044   4.935   5.407  11.074
53697W        W26045  22.177   6.364   1.303
53698W        W26046  16.277  22.064  14.450
53699W        W26047  12.760  12.840   2.282
53700W        W26048  10.692  29.157   0.285
53701W        W26049  20.759   8.680  14.513
53702W        W26050  30.593  43.875   1.837
53703W        W26051  26.679  40.544   1.294
53704W        W26052   7.791  44.862   0.897
53705W        W26053   5.881  19.224  14.801
53706W        W26054  17.557  44.938   1.713
53707W        W26055  10.782  27.457   2.865
53708W        W26056  28.568  41.860   2.411
53709W        W26057  10.771  43.987   1.362
53710W        W26058  28.094   5.824   3.300
53711W        W26059  32.409  39.449   3.276
53712W        W26060  43.318   4.928  12.939
53713W        W26061  31.040  42.338  12.937
53714W        W26062  16.172   9.692  14.309
53715W        W26063   6.878  38.470   3.180
53716W        W26064  27.099   8.706   5.223
53717W        W26065  11.342  37.556   1.408
53718W        W26066  25.561  28.478  13.051
53719W        W26067  42.373  34.017   2.229
53720W        W26068  16.309   8.775  14.296
53721W        W26069  38.486  33.102   2.340
53722W        W26070  39.524  34.028   3.274
53723W        W26071   5.329  27.625   1.758
53724W        W26072  17.107   6.292   3.337
53725W        W26073  16.570  15.602   2.790
53726W        W26074  34.013  32.997   4.652
53727W        W26075  31.479  30.977  14.373
53728W        W26076  41.428  32.507  11.074
53729W        W26077  20.114   7.841   0.860
53730W        W26078  42.991  20.073   5.161
53731W        W26079  35.985  43.997   1.796
53732W        W26080  37.531  36.875   3.295
53733W        W26081  27.564  23.006  11.102
53734W        W26082   9.381  37.516  13.903
53735W        W26083   8.787  29.424   3.771
53736W        W26084  35.507  38.070   1.737
53737W        W26085   9.200  24.695  12.474
53738W        W26086  36.458  20.260  10.539
53739W        W26087  19.671  39.919  14.924
53740W        W26088  24.613  38.493   2.687
53741W        W26089  44.987  39.555   3.855
53742W        W26090  10.271   8.234   3.343
53743W        W26091  25.177  13.334  11.451
53744W        W26092   7.240  39.355  12.875
53745W        W26093  31.511  16.611  13.947
53746W        W26094  29.062  27.152   2.274
53747W        W26095  25.687  19.702  10.133
53748W        W26096  30.469   3.899  10.921
53749W        W26097  11.368  39.895  12.065
53750W        W26098  21.145  26.573  12.479
53751W        W26099   3.810  35.496  10.516
53752W        W26100  17.290  17.699   1.250
53753W        W26101  27.092  42.829   4.754
53754W        W26102  10.673  13.775   2.865
53755W        W26103  16.640  43.916   3.697
53756W        W26104  42.020  24.074  11.580
53757W        W26105  30.939   8.378   0.311
53758W        W26106  13.205  32.463  10.941
53759W        W26107  41.406  43.804  12.401
53760W        W26108  30.613   3.848   1.328
53761W        W26109  41.821  26.085  14.943
53762W        W26110  36.581  44.816   4.198
53763W        W26111  26.151   2.911  12.045
53764W        W26112  37.475  10.869   0.440
53765W        W26113  44.340  22.601   5.284
53766W        W26114  40.877  39.823   4.211
53767W        W26115  39.988  24.616  14.774
53768W        W26116   3.845  32.015  14.512
53769W        W26117  28.578   7.673  11.124
53770W        W26118   2.463   3.262  12.409
53771W        W26119  11.145  10.703  14.990
53772W        W26120  41.346  42.280   4.708
53773W        W26121  24.094  14.785  13.392
53774W        W26122   9.216  10.726   1.318
53775W        W26123  17.635  18.683  14.317
53776W        W26124  31.560  29.643  13.413
53777W        W26125  30.654   7.255  14.313
53778W        W26126   2.469  19.674   4.773
53779W        W26127  12.344  35.522   0.259
53780W        W26128  22.606   9.221   0.777
53781W        W26129  37.401   6.332  10.128
53782W        W26130  23.005   6.189   1.820
53783W        W26131  34.982  19.780   3.199
53784W        W26132   6.296  43.275   1.708
53785W        W26133  22.035  38.034   3.199
53786W        W26134  12.277  22.567   3.690
53787W        W26135  43.449  29.431  13.897
53788W        W26136  17.714  35.404  12.076
53789W        W26137   9.385  11.656  10.941
53790W        W26138  24.654  35.559  12.431
53791W        W26139   6.706  23.042  11.506
53792W        W26140  18.237   1.469   1.353
53793W        W26141  32.126  31.981   1.421
53794W        W26142  32.984  30.128  14.922
53795W        W26143   3.780   7.263  12.493
53796W        W26144  13.202  29.029  14.901
53797W        W26145  11.312   7.368  13.387
53798W        W26146  18.748   1.847   2.326
53799W        W26147  38.489  35.523   3.736
53800W        W26148   6.265  42.876   0.954
53801W        W26149  37.995  21.617   4.601
53802W        W26150  28.442  37.015  14.800
53803W        W26151   6.192  39.030   0.834
53804W        W26152   3.300  19.199   3.631
53805W        W26153  40.503  17.761   1.294
53806W        W26154  22.715  35.498  14.942
53807W        W26155  13.282  23.088   1.837
53808W        W26156  42.012   3.422  14.437
53809W        W26157  39.455  30.554  13.861
53810W        W26158   7.740   7.256  14.313
53811W        W26159   5.892   1.461   1.778
53812W        W26160  33.914  19.536   4.683
53813W        W26161  35.372   1.867   2.285
53814W        W26162  13.776  22.102  13.359
53815W        W26163  29.069   4.305   0.837
53816W        W26164  22.137  32.062   0.282
53817W        W26165  40.517  32.117   1.386
53818W        W26166  30.062   5.244   0.853
53819W        W26167  36.385  32.135  10.893
53820W        W26168  35.556  41.435   2.829
53821W        W26169  34.927   2.425  11.459
53822W        W26170  44.317  30.935  13.536
53823W        W26171  40.895  13.644  10.600
53824W        W26172  35.966  32.989   2.869
53825W        W26173  37.954  44.865   4.786
53826W        W26174  11.790  33.458   4.800
53827W        W26175  29.130  43.386   3.362
53828W        W26176  41.907  35.947   0.339
53829W        W26177  30.119  36.490   2.815
53830W        W26178  11.792  41.825  10.932
53831W        W26179  37.015   4.728  13.353
53832W        W26180  27.182  27.995  12.001
53833W        W26181  25.184  26.688   2.301
53834W        W26182  29.588  35.009  10.974
53835W        W26183  18.713  12.655   1.933
53836W        W26184  37.996  17.164  12.400
53837W        W26185  11.258  27.652  14.502
53838W        W26186  23.549  27.084  13.993
53839W        W26187  19.721  20.079  13.033
53840W        W26188   3.953   1.417   2.710
53841W        W26189  22.050  19.128  13.042
53842W        W26190  27.560   4.234  11.419
53843W        W26191  15.122  41.904  14.024
53844W        W26192  11.759  34.069   3.224
53845W        W26193  36.894  11.154  14.423
53846W        W26194  11.653   0.481   1.895
53847W        W26195   1.971   3.905   2.380
53848W        W26196  24.690  18.131  10.553
53849W        W26197   0.876  40.926   4.331
53850W        W26198  36.981  21.098   0.776
53851W        W26199   4.327  31.147  13.532
53852W        W26200   9.153  22.640  10.935
53853W        W26201  11.173   2.793  10.900
53854W        W26202  26.457   0.260  10.619
53855W        W26203   9.299  21.143   0.897
53856W        W26204  27.193  31.059   2.251
53857W        W26205  17.307   9.378  12.567
53858W        W26206  19.692   6.779  11.889
53859W        W26207  10.831  13.262  12.538
53860W        W26208  41.507  26.642  14.913
53861W        W26209  40.454  31.514   1.841
53862W        W26210  44.496  42.431  12.371
53863W        W26211   0.743  12.274  12.947
53864W        W26212  16.661  12.203   4.171
53865W        W26213  34.058  20.245   4.667
53866W        W26214  42.012  33.554   0.252
53867W        W26215  17.171   0.425   3.640
53868W        W26216   3.788   7.404   2.830
53869W        W26217  36.871  11.325  12.891
53870W        W26218  27.125  19.127  11.970
53871W        W26219  17.102  28.084  12.902
53872W        W26220   1.262   6.840  10.498
53873W        W26221   4.253   7.881  13.810
53874W        W26222   4.803  22.596   1.915
53875W        W26223  13.112   0.901  11.405
53876W        W26224  30.026  10.653  10.481
53877W        W26225  23.025  16.641  13.039
53878W        W26226  13.727  10.167  12.956
53879W        W26227   1.344  24.050   1.411
53880W        W26228  43.939   7.243   3.713
53881W        W26229  14.684  24.653  10.435
53882W        W26230  21.058  14.125  12.398
53883W        W26231  41.518  20.562   1.841
53884W        W26232  18.757  38.938   0.789
53885W        W26233  30.123  38.842   4.694
53886W        W26234  20.061   6.909  13.991
53887W        W26235  38.015  33.910  10.408
53888W        W26236   8.743  43.796  14.988
53889W        W26237  15.761  14.226   0.269
53890W        W26238  43.355  24.549  14.852
53891W        W26239   2.282  41.452  14.785
53892W        W26240  31.922  38.465  11.077
53893W        W26241  28.118  18.193  13.849
53894W        W26242  12.846  12.202  14.916
53895W        W26243  37.567  19.580   2.679
53896W        W26244  44.474  11.710  12.051
53897W        W26245  23.006  11.776  13.355
53898W        W26246  16.212  37.567  14.819
53899W        W26247  18.612  10.642   2.190
53900W        W26248  40.944  25.006   3.729
53901W        W26249   6.773  33.461  14.022
53902W        W26250  23.494   1.264   1.340
53903W        W26251  40.309  13.715   4.646
53904W        W26252  31.454  10.233  11.017
53905W        W26253  43.479  38.436  13.826
53906W        W26254   6.832  43.911  11.598
53907W        W26255  38.449  32.001  12.945
53908W        W26256  31.942  40.988   5.291
53909W        W26257  26.023  25.156   3.254
53910W        W26258  29.033  41.505   3.865
53911W        W26259  16.148  14.134   4.179
53912W        W26260   8.682  35.035   1.390
53913W        W26261  31.984  25.169  12.366
53914W        W26262   6.266  35.867   3.861
53915W        W26263  44.882  12.664  10.510
53916W        W26264  22.021  39.526  12.977
53917W        W26265  31.557  43.380   4.205
53918W        W26266  43.786  20.560  14.404
53919W        W26267  27.655   0.904   4.307
53920W        W26268  10.803  17.567  11.076
53921W        W26269  23.987   1.329   0.821
53922W        W26270  28.137   6.225  14.312
53923W        W26271  19.748  39.924  13.501
53924W        W26272  14.709  14.179   0.804
53925W        W26273  35.375  33.575   2.831
53926W        W26274  37.467  44.452  13.516
53927W        W26275  11.137  26.531   3.290
53928W        W26276  44.843  10.211   2.280
53929W        W26277   2.943  42.024   4.138
53930W        W26278  17.730   2.909   1.746
53931W        W26279   8.785   1.458   4.673
53932W        W26280  36.384  42.829   1.764
53933W        W26281  15.738  14.614  12.546
53934W        W26282  32.132  42.525   0.307
53935W        W26283  44.758  33.592  11.059
53936W        W26284   3.929   7.867  13.016
53937W        W26285  44.944  13.318  10.899
53938W        W26286  19.095  23.536   3.854
53939W        W26287  20.748  16.255   0.403
53940W        W26288  34.982  20.752  10.103
53941W        W26289  41.532  26.155  11.552
53942W        W26290  20.239   7.849  14.460
53943W        W26291   3.814  13.284  11.908
53944W        W26292  29.467  26.684  14.847
53945W        W26293  20.553   6.898  14.827
53946W        W26294   6.254  32.923   0.464
53947W        W26295   5.426  15.668  15.000
53948W        W26296  43.011  24.640  14.845
53949W        W26297  27.529  28.984  14.827
53950W        W26298  21.086  43.462  11.897
53951W        W26299  13.126   2.836  10.994
53952W        W26300  15.309   8.880  13.495
53953W        W26301  27.997  37.561  14.449
53954W        W26302  29.175  13.313  12.453
53955W        W26303  22.584  34.431   3.733
53956W        W26304  19.748  32.101   1.808
53957W        W26305   3.223  17.065  12.086
53958W        W26306  38.449  16.101  12.878
53959W        W26307  23.606  36.982   1.293
53960W        W26308  15.183   0.876  11.036
53961W        W26309  31.005  39.315   4.153
53962W        W26310   4.433  31.617  13.016
53963W        W26311  23.217   0.888  12.899
53964W        W26312  31.455  14.810  13.369
53965W        W26313  26.075  34.074  10.931
53966W        W26314  18.217  39.882   4.754
53967W        W26315  30.516   8.388   1.835
53968W        W26316  41.433  30.419   4.349
53969W        W26317   1.466  15.638  12.405
53970W        W26318  33.969  39.472  14.380
53971W        W26319  44.443  29.078   9.954
53972W        W26320  38.842  27.944   2.242
53973W        W26321   6.766  30.419   3.760
53974W        W26322  24.497  11.138  14.777
53975W        W26323   5.847  40.439   1.925
53976W        W26324  35.556  35.552   4.200
53977W        W26325  41.927  15.695   1.283
53978W        W26326   7.377  10.731   2.299
53979W        W26327  26.632   6.241   0.914
53980W        W26328  24.582   7.353   4.693
53981W        W26329  23.081  41.332  11.930
53982W        W26330  10.138  29.165  11.395
53983W        W26331   8.799  41.944   0.952
53984W        W26332  36.081  37.524   4.689
53985W        W26333   5.254  20.038  13.887
53986W        W26334  24.131  13.693   1.450
53987W        W26335  13.109  24.579   0.837
53988W        W26336  43.474  34.043  14.511
53989W        W26337  43.875  11.712  14.015
53990W        W26338  19.750  34.109  11.542
53991W        W26339   8.820  17.203   0.338
53992W        W26340   0.323   4.227   4.700
53993W        W26341   1.312  39.995   2.406
53994W        W26342  34.925  20.668  12.907
53995W        W26343  25.514  28.588  12.027
53996W        W26344  44.439  43.934  12.886
53997W        W26345  32.974  37.445   3.775
53998W        W26346  13.792   0.743  12.077
53999W        W26347  38.822  40.820  11.121
54000W        W26348  41.937   4.229  12.029
54001W        W26349  23.608  40.031   1.242
54002W        W26350  25.499  19.044   2.286
54003W        W26351  18.068  29.516   0.480
54004W        W26352  15.812  17.774   1.443
54005W        W26353  25.108  39.861   1.321
54006W        W26354   0.763  30.489  10.022
54007W        W26355   4.906  30.097  12.870
54008W        W26356  14.614  24.675   1.276
54009W        W26357  21.581  25.637   0.245
54010W        W26358  10.867   3.322  12.069
54011W        W26359  39.497  12.316   4.136
54012W        W26360  16.576  24.666   4.718
54013W        W26361  15.804   3.457   2.751
54014W        W26362  38.002  10.245  10.130
54015W        W26363  27.574  33.434  12.365
54016W        W26364  37.085  38.401   0.252
54017W        W26365  11.638  25.047   3.789
54018W        W26366  23.128  37.570   2.825
54019W        W26367  12.253   8.821   0.341
54020W        W26368  25.613  39.522   4.167
54021W        W26369  35.070  33.430   0.825
54022W        W26370  15.230  12.345  13.965
54023W        W26371  24.163  21.190  11.014
54024W        W26372  16.590  36.090   3.797
54025W        W26373  11.306  26.087  12.994
54026W        W26374  40.054  43.448  13.447
54027W        W26375  11.205  10.780  11.408
54028W        W26376   6.284   5.408   4.182
54029W        W26377  37.959  17.660   2.809
54030W        W26378  10.152   8.254   4.671
54031W        W26379  30.038  32.391   4.634
54032W        W26380  43.474  30.950   0.748
54033W        W26381   7.279  36.079  13.969
54034W        W26382   6.792  39.886   2.194
54035W        W26383  38.547  28.954   4.295
54036W        W26384   4.401  11.796  14.306
54037W        W26385  27.077  36.944  12.553
54038W        W26386  14.616   5.373   2.354
54039W        W26387  21.140   1.975  10.408
54040W        W26388  21.193  35.967   2.340
54041W        W26389  40.994  24.075  11.960
54042W        W26390  27.601  20.264  10.905
54043W        W26391   7.723   9.832   2.260
54044W        W26392   0.317  36.565  12.019
54045W        W26393  12.227  23.517  11.439
54046W        W26394  36.455  29.081  12.567
54047W        W26395  35.076  43.961  13.990
54048W        W26396   9.735  34.551   2.814
54049W        W26397  44.318  15.700   1.211
54050W        W26398  18.635  11.337   4.311
54051W        W26399   3.786  19.169  12.532
54052W        W26400  15.288  24.552  14.480
54053W        W26401   4.775  28.582   1.870
54054W        W26402   1.366   3.945  14.278
54055W        W26403   7.370  32.605   3.798
54056W        W26404  17.193  35.892   0.450
54057W        W26405  19.139  33.403   3.158
54058W        W26406  40.818  30.947   1.904
54059W        W26407  25.984  30.005   2.885
54060W        W26408  18.586  30.937   0.943
54061W        W26409  20.710   6.416   4.769
54062W        W26410  12.353  32.467   0.399
54063W        W26411   2.261  10.855   4.796
54064W        W26412   9.868  38.498  14.404
54065W        W26413   0.268  44.504   2.221
54066W        W26414  40.348  29.576  10.967
54067W        W26415  34.064  33.082  13.853
54068W        W26416   4.226  33.438  12.489
54069W        W26417   3.456  22.732  11.083
54070W        W26418  33.467  38.368  13.979
54071W        W26419  17.192  33.392   2.356
54072W        W26420  15.608  11.342  11.385
54073W        W26421  24.645   9.711  12.382
54074W        W26422  28.068  14.302  10.551
54075W        W26423  19.704   2.887   4.167
54076W        W26424  34.102   8.663   3.196
54077W        W26425  40.325  22.555  10.050
54078W        W26426   0.985  27.157   1.887
54079W        W26427   8.693  32.523   4.322
54080W        W26428   2.796  17.693  13.830
54081W        W26429  41.002  15.220  10.524
54082W        W26430  43.325   8.320  10.498
54083W        W26431  25.533  41.491   3.631
54084W        W26432  13.700   0.931   3.341
54085W        W26433   8.824   0.943   4.814
54086W        W26434  40.959   4.404  10.951
54087W        W26435  24.019  29.169  14.305
54088W        W26436  21.193  21.021  11.561
54089W        W26437  32.422   6.212   2.263
54090W        W26438  42.026   6.200   3.866
54091W        W26439  42.928  27.975  14.877
54092W        W26440   9.247  24.229   0.356
54093W        W26441  30.075   3.920  12.376
54094W        W26442   6.413   3.825  11.127
54095W        W26443  41.453  15.187  11.962
54096W        W26444  11.177  17.799  11.509
54097W        W26445  27.010  44.374  11.938
54098W        W26446  37.464  35.497   1.239
54099W        W26447  24.194   1.295  12.037
54100W        W26448  25.129  24.005   1.843
54101W        W26449  10.288  16.705  14.444
54102W        W26450  30.506  44.002   1.396
54103W        W26451  21.679  35.097   4.209
54104W        W26452  40.377  21.106  13.386
54105W        W26453   2.788  13.219   4.244
54106W        W26454  21.624  17.090  11.972
54107W        W26455   8.376  37.043   2.251
54108W        W26456  18.627  21.691   4.675
54109W        W26457   5.901  43.816  12.468
54110W        W26458   7.761  10.251   0.343
54111W        W26459  11.706  17.252  14.498
54112W        W26460  28.091   4.718   1.733
54113W        W26461  11.307  20.150   1.847
54114W        W26462  26.643  21.651   3.356
54115W        W26463  14.618  43.775   2.294
54116W        W26464   2.267   2.791  13.403
54117W        W26465  38.063  36.085   3.759
54118W        W26466   9.375  12.823   0.765
54119W        W26467   0.310  21.169   1.431
54120W        W26468  18.215   8.704   1.339
54121W        W26469  24.684  11.651   2.356
54122W        W26470  35.921   1.739   2.690
54123W        W26471  39.452  43.516   2.854
54124W        W26472  40.933  11.843  13.043
54125W        W26473  12.808   4.389  11.018
54126W        W26474  35.588  15.174  13.862
54127W        W26475   6.204  32.526   4.753
54128W        W26476  34.007  35.581  10.498
54129W        W26477  32.495  16.186   3.818
54130W        W26478  29.999  14.121  12.561
54131W        W26479  21.710  27.131  11.888
54132W        W26480  38.012  11.792   2.266
54133W        W26481  17.159  40.905   2.407
54134W        W26482  35.371  32.503  11.869
54135W        W26483  16.315   5.428  13.439
54136W        W26484  19.191  15.632   2.835
54137W        W26485  32.102  21.589   1.724
54138W        W26486  10.854   9.305  11.048
54139W        W26487   7.278   5.723  12.433
54140W        W26488  26.171   7.667  10.411
54141W        W26489   4.770  22.712   1.379
54142W        W26490  42.935  18.191  13.010
54143W        W26491  21.517  44.349  13.020
54144W        W26492  11.169  15.254  13.349
54145W        W26493  30.611  16.666  14.022
54146W        W26494  40.417  17.115   2.391
54147W        W26495   7.714  35.491  13.424
54148W        W26496  25.102  23.165  13.445
54149W        W26497  20.074  35.539  14.349
54150W        W26498   3.955   4.933  13.877
54151W        W26499  16.752  39.484  14.349
54152W        W26500  40.483  18.679  11.008
54153W        W26501   1.446  22.016   4.709
54154W        W26502  29.654  16.174  14.901
54155W        W26503  37.927  10.229   1.339
54156W        W26504  31.617   7.366  13.007
54157W        W26505  34.477  33.489   3.384
54158W        W26506  16.248  24.092  12.035
54159W        W26507  30.623  13.666  14.496
54160W        W26508  12.831  13.341   0.796
54161W        W26509  43.829  30.516  14.918
54162W        W26510  15.656  36.957   4.613
54163W        W26511  24.030  43.968  13.482
54164W        W26512  25.510  15.680  13.978
54165W        W26513  29.470  32.527  14.352
54166W        W26514  43.809  20.551   3.746
54167W        W26515   4.815  36.421  11.056
54168W        W26516  15.188  11.150   3.777
54169W        W26517   7.779  15.202  14.009
54170W        W26518  20.619  42.970  14.394
54171W        W26519  43.873  27.449  11.041
54172W        W26520  38.423  17.729   3.855
54173W        W26521  18.186   6.689   1.418
54174W        W26522   6.276  29.056   4.612
54175W        W26523  35.986  31.929   0.324
54176W        W26524  31.128  40.823   3.641
54177W        W26525   2.906  26.042   0.878
54178W        W26526  30.511   3.272  11.490
54179W        W26527  35.002   0.947  14.968
54180W        W26528  24.504  41.490  12.449
54181W        W26529  34.993  31.602  12.095
54182W        W26530  22.203   1.854   4.198
54183W        W26531  32.436  40.024   0.445
54184W        W26532  13.166  28.014  10.939
54185W        W26533   1.268  15.219  11.050
54186W        W26534   4.724  38.972   0.851
54187W        W26535  17.637  37.088   0.742
54188W        W26536  13.216  22.600   3.277
54189W        W26537  12.342  11.719  13.355
54190W        W26538  20.605  30.988   4.640
54191W        W26539  25.615   0.317  12.388
54192W        W26540   1.906   5.772   1.257
54193W        W26541  42.993  20.685  14.923
54194W        W26542  44.303   4.212   1.442
54195W        W26543  20.671  34.992  14.931
54196W        W26544   9.854  36.029  11.562
54197W        W26545   2.332  34.082   0.909
54198W        W26546  39.510  28.539   3.693
54199W        W26547  33.612   7.777   3.790
54200W        W26548  35.502   2.255  12.360
54201W        W26549   1.753  18.756  11.962
54202W        W26550  29.638  34.107   4.157
54203W        W26551  20.632  37.877   3.761
54204W        W26552  36.884  34.113  13.999
54205W        W26553  33.404  20.176   1.836
54206W        W26554  21.216   5.324   4.281
54207W        W26555  44.364  26.595   2.721
54208W        W26556   6.859  44.827  13.539
54209W        W26557  14.191  23.682  10.966
54210W        W26558  24.707  32.583   0.426
54211W        W26559  19.769   2.227  11.596
54212W        W26560  33.472  22.710   3.709
54213W        W26561  28.104  44.889  14.926
54214W        W26562  33.425  38.027   4.210
54215W        W26563   2.925   9.339  11.874
54216W        W26564   1.250  29.556  14.772
54217W        W26565  29.486  24.630  10.933
54218W        W26566  40.491   5.793  10.507
54219W        W26567   9.171   9.205   4.279
54220W        W26568  11.252  19.246   1.362
54221W        W26569  14.698  24.087  13.982
54222W        W26570   4.842  23.117  13.953
54223W        W26571  10.377  17.087   0.245
54224W        W26572  29.046   8.757  13.916
54225W        W26573  21.746  13.281  11.470
54226W        W26574  23.618  33.515  14.949
54227W        W26575  11.283   3.225  10.486
54228W        W26576  13.792  11.766  10.889
54229W        W26577  24.082  28.000   3.841
54230W        W26578  27.524  42.908   2.719
54231W        W26579  32.538  32.002   3.738
54232W        W26580  17.081   5.691  12.370
54233W        W26581  38.569  36.953  11.056
54234W        W26582  42.290  18.716  14.926
54235W        W26583  24.035  23.237  14.345
54236W        W26584  16.251  33.388   3.705
54237W        W26585  29.644  24.604  11.915
54238W        W26586  41.032   0.898   0.423
54239W        W26587  36.847  42.474  13.411
54240W        W26588  27.469  11.662  10.627
54241W        W26589  39.318  27.967  13.548
54242W        W26590  39.003  14.636   4.684
54243W        W26591  41.355   2.449   2.668
54244W        W26592  12.189   4.264  10.944
54245W        W26593  22.025  31.533   2.353
54246W        W26594  31.445  11.763  11.475
54247W        W26595  30.006  21.617   4.670
54248W        W26596  37.366   4.773   3.704
54249W        W26597   5.233  13.306   3.839
54250W        W26598  38.852  21.251   2.778
54251W        W26599  22.052   7.412  13.873
54252W        W26600  43.923  19.699   3.192
54253W        W26601  12.841  41.991  11.920
54254W        W26602   4.241  38.877  14.023
54255W        W26603  34.472  17.284   4.814
54256W        W26604  24.173  24.595   0.813
54257W        W26605  34.430   3.384  11.465
54258W        W26606  44.797  36.522   0.799
54259W        W26607  35.045  39.464  12.918
54260W        W26608  34.038  30.506  11.883
54261W        W26609   5.719  43.416   0.479
54262W        W26610  13.669  24.151   0.919
54263W        W26611  11.654  41.436   0.897
54264W        W26612  44.803  20.681  14.993
54265W        W26613   9.279  43.908  12.030
54266W        W26614   7.232  30.540   3.728
54267W        W26615   1.752   0.310  11.904
54268W        W26616  10.746  39.342   2.391
54269W        W26617   0.471  10.180   4.798
54270W        W26618  30.548  14.227   0.476
54271W        W26619   0.827  39.896  12.855
54272W        W26620  42.809  41.463   4.283
54273W        W26621  21.756  21.545   3.868
54274W        W26622   6.842  33.054  11.878
54275W        W26623  18.288  16.119  12.389
54276W        W26624   1.243  12.197   4.185
54277W        W26625  40.390  36.485  13.447
54278W        W26626  26.550  22.211   3.305
54279W        W26627  40.804  18.153   0.825
54280W        W26628  23.526  29.059   1.724
54281W        W26629  39.995  11.671  14.494
54282W        W26630  27.063  30.010  14.427
54283W        W26631   8.798  39.963  11.024
54284W        W26632   7.367  12.691  10.574
54285W        W26633  37.369  43.390  11.128
54286W        W26634  26.076   1.895   2.265
54287W        W26635  30.514  40.397  13.432
54288W        W26636  36.087  24.102   3.673
54289W        W26637  14.100   1.753  12.925
54290W        W26638   7.889  19.078   4.677
54291W        W26639  28.949   6.330  11.958
54292W        W26640   3.425  31.088   2.751
54293W        W26641  27.570  14.236  10.627
54294W        W26642  41.831   8.781  13.496
54295W        W26643  21.545  33.902   1.293
54296W        W26644  18.691  38.465  11.019
54297W        W26645  20.255  44.880   3.183
54298W        W26646  36.490  28.528   3.738
54299W        W26647  20.061   8.235   2.849
54300W        W26648   2.407  31.621   3.771
54301W        W26649  18.646   2.864  13.934
54302W        W26650   8.332  17.154   3.147
54303W        W26651  28.573  24.191  10.908
54304W        W26652  28.929   6.817  10.972
54305W        W26653  20.709  15.171  12.439
54306W        W26654  44.991   8.268   0.458
54307W        W26655  17.605  26.642   1.771
54308W        W26656  32.544  30.002  11.383
54309W        W26657  10.681   4.306   9.582
54310W        W26658  25.578  38.880   9.940
54311W        W26659  32.137   0.430   3.870
54312W        W26660  27.673  13.796  12.060
54313W        W26661  23.147  19.196  13.891
54314W        W26662  43.389  42.845  12.870
54315W        W26663  42.425  14.764   4.305
54316W        W26664  34.119  29.046   3.632
54317W        W26665  14.772   0.259   3.773
54318W        W26666  38.870  15.648   0.334
54319W        W26667  27.523  34.562  10.997
54320W        W26668  40.813  37.554   1.804
54321W        W26669  14.629  37.021  12.536
54322W        W26670  35.105  25.023   4.791
54323W        W26671  20.143  43.972   3.329
54324W        W26672  24.143  13.714   4.610
54325W        W26673   9.775  31.464  11.508
54326W        W26674  12.674  27.165  13.920
54327W        W26675   7.748   0.795   3.211
54328W        W26676   0.469  21.096   4.670
54329W        W26677  28.555  39.912  11.978
54330W        W26678  12.760   1.428   1.449
54331W        W26679   4.372  31.455   3.163
54332W        W26680  42.468  15.145  12.047
54333W        W26681  23.569  31.438   0.338
54334W        W26682  36.565  15.786  10.112
54335W        W26683   5.346  34.086  12.883
54336W        W26684  17.138  34.967  13.385
54337W        W26685  15.742  14.276  14.437
54338W        W26686   1.314  14.592   1.880
54339W        W26687  44.967   1.819   2.676
54340W        W26688  16.081  25.708   2.217
54341W        W26689  12.701   8.850  10.919
54342W        W26690  36.020  31.916   1.442
54343W        W26691  40.436  40.393  11.015
54344W        W26692  44.321  28.533   1.809
54345W        W26693  31.426  16.640  11.554
54346W        W26694  19.189  41.482  11.959
54347W        W26695  29.150  30.019  10.951
54348W        W26696  23.533  12.689  10.418
54349W        W26697  42.969  30.954  12.924
54350W        W26698   4.395  12.117   3.178
54351W        W26699  30.416  37.021   0.259
54352W        W26700  32.479   5.828  10.461
54353W        W26701  36.431  41.524  13.946
54354W        W26702   1.245  30.093   4.333
54355W        W26703  14.780  27.580   3.158
54356W        W26704  11.261  34.087   4.198
54357W        W26705   1.975  38.960   2.751
54358W        W26706   5.775   5.228   1.219
54359W        W26707   6.873   0.442  13.051
54360W        W26708  22.029  28.648   2.292
54361W        W26709  26.671  39.457  11.856
54362W        W26710   2.391  32.421   3.254
54363W        W26711  21.262   7.186  13.841
54364W        W26712  26.497  25.495  10.406
54365W        W26713  37.073   2.388  13.948
54366W        W26714  23.091  33.545   0.433
54367W        W26715   7.281  24.648   4.264
54368W        W26716  19.549  10.380  13.324
54369W        W26717   4.409  34.608   1.241
54370W        W26718  35.566   1.813  12.520
54371W        W26719   4.942  29.925  10.438
54372W        W26720  23.625  43.787  11.038
54373W        W26721   4.868  40.858  11.125
54374W        W26722   6.199  14.816   3.267
54375W        W26723  36.402  35.028   5.216
54376W        W26724  24.021  31.151   0.877
54377W        W26725  36.924  31.500   4.248
54378W        W26726   9.225  43.394   2.733
54379W        W26727  24.217  37.558  12.405
54380W        W26728  40.456  22.166   3.766
54381W        W26729  35.407  13.601  13.489
54382W        W26730  34.952  18.296  12.456
54383W        W26731  35.971  22.530  11.524
54384W        W26732   2.345  24.593  11.439
54385W        W26733  25.550  39.367   0.934
54386W        W26734  40.881  44.432   2.411
54387W        W26735  27.667  38.924  14.455
54388W        W26736  18.135  16.810   0.911
54389W        W26737  23.236   8.382  13.400
54390W        W26738  39.935   1.747  12.508
54391W        W26739   2.363  11.271  11.095
54392W        W26740  17.144  11.306   4.234
54393W        W26741  18.570  15.647  10.150
54394W        W26742  28.173  13.214  11.980
54395W        W26743   9.889  17.185   4.721
54396W        W26744  36.069  31.561   4.823
54397W        W26745  40.053   8.879   3.162
54398W        W26746   1.854   2.957  11.417
54399W        W26747  15.177  42.793   3.197
54400W        W26748  26.092  41.945   1.706
54401W        W26749  15.247  10.272   0.763
54402W        W26750  44.834   3.730  11.111
54403W        W26751  11.282  40.523   1.246
54404W        W26752  21.244  23.001   3.180
54405W        W26753   9.362  25.207   3.337
54406W        W26754   6.690  23.605   4.808
54407W        W26755  24.628  27.611   1.387
54408W        W26756  27.019  33.962   3.685
54409W        W26757   5.311  20.709   0.892
54410W        W26758  30.139  24.108   3.358
54411W        W26759   9.155  32.509   5.143
54412W        W26760  44.811  42.484  12.009
54413W        W26761  17.078  32.504   2.806
54414W        W26762  20.156  30.528   1.745
54415W        W26763  32.406  25.592   1.243
54416W        W26764  16.744  33.597  14.807
54417W        W26765  20.256   5.748  14.385
54418W        W26766  41.962   7.382   4.725
54419W        W26767   4.415  29.043  13.858
54420W        W26768  38.571  13.780  12.420
54421W        W26769   6.814  41.915   1.368
54422W        W26770  23.205  11.317   3.364
54423W        W26771   8.721  27.985  14.976
54424W        W26772  11.650   5.735   0.729
54425W        W26773  10.654  24.481  10.972
54426W        W26774  16.783   1.429  13.809
54427W        W26775  35.073  28.633  13.968
54428W        W26776   9.315  32.633  11.053
54429W        W26777  20.610  40.012   2.662
54430W        W26778  25.712  33.918  14.420
54431W        W26779   8.668  28.938   1.741
54432W        W26780  30.541  28.669   2.383
54433W        W26781   2.877  40.409   4.177
54434W        W26782  41.860   9.874  12.442
54435W        W26783  16.602  44.001   3.147
54436W        W26784  24.072  36.513  13.427
54437W        W26785  31.627   6.843   2.860
54438W        W26786  42.328  38.895  11.524
54439W        W26787  11.309  17.745   3.232
54440W        W26788  19.772  38.482  14.498
54441W        W26789   5.706  28.462   0.779
54442W        W26790  41.007  31.988   4.263
54443W        W26791  42.814  16.569   2.835
54444W        W26792  22.711  36.064  12.409
54445W        W26793   5.325  10.778  12.430
54446W        W26794  39.390  25.976  13.498
54447W        W26795   5.746  11.802  10.645
54448W        W26796  15.259  19.200   2.742
54449W        W26797  30.024  28.125   2.742
54450W        W26798  43.516   2.812   0.838
54451W        W26799  34.055  24.594   2.732
54452W        W26800  11.678  35.977   0.786
54453W        W26801  11.718  23.530   2.730
54454W        W26802  13.700  25.144   2.269
54455W        W26803  41.357   1.373   1.409
54456W        W26804   3.283  29.498   2.710
54457W        W26805  20.215  36.539  11.562
54458W        W26806  14.600   3.729   2.354
54459W        W26807  31.626  24.163   0.868
54460W        W26808  30.459  14.753   4.737
54461W        W26809  23.092  15.669   3.249
54462W        W26810  26.209  11.282  13.878
54463W        W26811  32.562   6.274  12.941
54464W        W26812  22.630  35.899   0.252
54465W        W26813  35.579  22.701   1.803
54466W        W26814  27.171  30.061   2.336
54467W        W26815  35.439  41.520   2.216
54468W        W26816   1.436   1.807  12.850
54469W        W26817  43.368  25.482   1.380
54470W        W26818  41.506  37.414  10.012
54471W        W26819   6.759   5.694  13.390
54472W        W26820  25.072  38.076  12.843
54473W        W26821  24.589  41.902  11.584
54474W        W26822   1.307   8.656   4.243
54475W        W26823  22.104  35.908  10.998
54476W        W26824  26.528  20.552  13.939
54477W        W26825  21.034  26.152   3.777
54478W        W26826  30.629   5.370  12.016
54479W        W26827  12.194   9.325   2.402
54480W        W26828  20.554  23.688   2.714
54481W        W26829  18.694  28.123   4.338
54482W        W26830   0.409  29.437   0.328
54483W        W26831  19.559  32.025   2.342
54484W        W26832  33.044  17.161   4.248
54485W        W26833   3.268  33.038   1.696
54486W        W26834  43.005  17.662  13.462
54487W        W26835  29.056   0.964   1.924
54488W        W26836   0.356  35.557   1.863
54489W        W26837  27.958  16.710   3.179
54490W        W26838  30.564  11.735  14.817
54491W        W26839  39.913   7.801  11.434
54492W        W26840  32.013  17.197  13.844
54493W        W26841  12.745  40.053   1.871
54494W        W26842  29.492   6.346  11.069
54495W        W26843  10.680  15.313   0.925
54496W        W26844  30.971   4.858   4.602
54497W        W26845  19.169  18.194   1.806
54498W        W26846  11.734   2.297  12.086
54499W        W26847  15.236  16.752   3.800
54500W        W26848   5.409  32.090   4.299
54501W        W26849  27.523   4.432  13.815
54502W        W26850  15.656   4.825   4.141
54503W        W26851  29.514   3.296  10.463
54504W        W26852  27.652   9.860   3.242
54505W        W26853  23.058  21.180   2.339
54506W        W26854  29.088  44.009   0.296
54507W        W26855   9.367  23.991  11.977
54508W        W26856  33.414  35.430  14.404
54509W        W26857  32.001  22.217   0.821
54510W        W26858  23.657   0.303   0.336
54511W        W26859  19.727  17.677   0.454
54512W        W26860  30.959   9.339   1.924
54513W        W26861  44.369  42.880  14.838
54514W        W26862   1.237   8.264   3.706
54515W        W26863   0.390  30.553   0.941
54516W        W26864   8.323  14.330  11.926
54517W        W26865  21.028  39.920  11.058
54518W        W26866  12.279  13.262  10.536
54519W        W26867   6.691  41.468   0.826
54520W        W26868  19.538   2.912   3.315
54521W        W26869   0.918  27.505   4.739
54522W        W26870  30.026  41.309  10.509
54523W        W26871  34.569  32.971  10.441
54524W        W26872  17.275  43.280  10.445
54525W        W26873  10.856  25.182   5.226
54526W        W26874   5.320  29.463  13.488
54527W        W26875  27.062  23.120   2.863
54528W        W26876  17.071   8.290   3.842
54529W        W26877  36.085   7.775   4.354
54530W        W26878   3.909  15.180   1.867
54531W        W26879  13.809   5.880   0.380
54532W        W26880  27.956  17.745  11.090
54533W        W26881  28.000  38.948   4.307
54534W        W26882  36.579  26.189  12.378
54535W        W26883  21.568  29.584   2.342
54536W        W26884   8.312  18.128  13.903
54537W        W26885   3.824  19.657   2.712
54538W        W26886  29.160   4.715  11.997
54539W        W26887  41.423  31.523  12.920
54540W        W26888  20.587  17.149  11.081
54541W        W26889  42.339   0.895  12.478
54542W        W26890  16.084  10.149   0.844
54543W        W26891  29.555   0.883   2.188
54544W        W26892   7.347   9.885  14.881
54545W        W26893  17.724   1.964   0.957
54546W        W26894  37.350  34.611  14.275
54547W        W26895  13.774  34.501   2.397
54548W        W26896  25.007  44.381   1.762
54549W        W26897  35.366  17.564  12.035
54550W        W26898   5.785  20.225   1.728
54551W        W26899  28.673  19.203  13.519
54552W        W26900   9.346   8.754   2.419
54553W        W26901   4.893  36.096   2.328
54554W        W26902   6.872  35.021   2.364
54555W        W26903  21.680  42.448  10.437
54556W        W26904   1.413  12.352   3.854
54557W        W26905   5.335   3.926  14.904
54558W        W26906  31.542   5.209   3.269
54559W        W26907  27.624  19.698   3.309
54560W        W26908  18.124   4.256  10.409
54561W        W26909  13.340  28.989   0.815
54562W        W26910  41.314  28.071   0.367
54563W        W26911   3.854  30.600  14.446
54564W        W26912  39.028  18.264   4.322
54565W        W26913  19.635  28.474  14.901
54566W        W26914  41.455   2.739  11.892
54567W        W26915  13.767  31.629   4.655
54568W        W26916   6.396  26.038   2.804
54569W        W26917  30.479  38.977   3.211
54570W        W26918   4.377  13.707   1.791
54571W        W26919  31.582  39.842  11.913
54572W        W26920  34.535  35.017  11.525
54573W        W26921   3.373  41.994   1.446
54574W        W26922   5.234  38.515  10.953
54575W        W26923  36.055   3.239   4.285
54576W        W26924  28.049  22.047  13.367
54577W        W26925  17.134  22.708   4.790
54578W        W26926  10.257  22.085   1.407
54579W        W26927  34.517  33.532  14.440
54580W        W26928   4.265  11.218   2.207
54581W        W26929  35.977  17.745   3.246
54582W        W26930   4.426  17.232  13.364
54583W        W26931  26.007   1.734   1.347
54584W        W26932  14.790  42.802  10.616
54585W        W26933  15.268  24.013   1.889
54586W        W26934  41.979   0.359   0.800
54587W        W26935  37.471  10.853  12.381
54588W        W26936  42.952  38.052  10.490
54589W        W26937  33.431  37.946   4.803
54590W        W26938   0.860   7.677  14.500
54591W        W26939   4.712  13.195  13.370
54592W        W26940  27.519  20.743  12.552
54593W        W26941   3.353   6.332  12.570
54594W        W26942  13.662  10.138   4.160
54595W        W26943   7.899  40.521   0.282
54596W        W26944  18.703   3.774  13.797
54597W        W26945  41.407  36.053   0.385
54598W        W26946  32.979  25.066  12.342
54599W        W26947  40.814  28.519  10.570
54600W        W26948  39.974  14.255  12.551
54601W        W26949  22.573   5.206   4.767
54602W        W26950  24.015  10.363   0.878
54603W        W26951  34.982   7.723  10.485
54604W        W26952  40.534  37.351   0.744
54605W        W26953  11.347  37.467   1.779
54606W        W26954  37.908  12.361   3.275
54607W        W26955  28.513   1.921   4.612
54608W        W26956   3.347  32.987   0.906
54609W        W26957  11.701  36.033  14.988
54610W        W26958   5.275   4.397   0.336
54611W        W26959   2.830  25.000   1.932
54612W        W26960  29.034  13.640   1.848
54613W        W26961   9.329  16.690  11.474
54614W        W26962  12.297  24.107   4.712
54615W        W26963  27.508   7.837   2.416
54616W        W26964   8.358  30.069  12.354
54617W        W26965  31.583  25.138  14.404
54618W        W26966  22.526  10.754  12.891
54619W        W26967  25.120  39.518  12.468
54620W        W26968  31.525  31.948   2.883
54621W        W26969  24.015  10.343   4.247
54622W        W26970  26.960   3.817  11.571
54623W        W26971   3.422  33.114  11.955
54624W        W26972  43.274  10.267   0.938
54625W        W26973  37.843   8.880   5.298
54626W        W26974  13.838   6.193   5.160
54627W        W26975  26.050  32.570   3.314
54628W        W26976   1.971  18.578  13.928
54629W        W26977  30.496  32.523  11.499
54630W        W26978  16.665   7.415   3.775
54631W        W26979  15.232  11.285  10.458
54632W        W26980   4.940  21.599  10.532
54633W        W26981  20.571   7.703   2.204
54634W        W26982  16.616  29.962   2.671
54635W        W26983  31.466  27.487   4.688
54636W        W26984  27.975  19.052   2.768
54637W        W26985  44.957  14.136   2.196
54638W        W26986  33.496   5.235   1.712
54639W        W26987   4.420  40.869   1.831
54640W        W26988  37.896  34.945   3.821
54641W        W26989  20.036  10.275  12.394
54642W        W26990  17.687  29.480   9.459
54643W        W26991  44.764  37.842   2.260
54644W        W26992  31.461   1.382   0.423
54645W        W26993  10.303  24.613  14.778
54646W        W26994  29.470  27.021   1.346
54647W        W26995  13.844  25.101   0.844
54648W        W26996  25.038  41.357  12.995
54649W        W26997   4.312  31.619   0.948
54650W        W26998  27.572  11.764  14.796
54651W        W26999  31.464  15.711   4.310
54652W        W27000   4.941  38.478  11.542
54653W        W27001  14.176  43.510   1.769
54654W        W27002  18.112  43.374  13.360
54655W        W27003  25.113  32.575   3.724
54656W        W27004  14.738  19.610   4.833
54657W        W27005  28.117  35.010  14.983
54658W        W27006   6.218  22.671  10.611
54659W        W27007   7.668  15.808  11.494
54660W        W27008  17.305  33.915  12.014
54661W        W27009  21.513   1.801   2.414
54662W        W27010  32.927  10.866  14.465
54663W        W27011  38.565   5.205  14.390
54664W        W27012  36.942  10.269  10.603
54665W        W27013  35.981  21.106  13.011
54666W        W27014  40.849   2.459   0.921
54667W        W27015  31.067   7.280   2.310
54668W        W27016  11.227   5.847   3.850
54669W        W27017  37.444  17.685  11.947
54670W        W27018  13.204  20.202   4.114
54671W        W27019  31.565  28.645   1.273
54672W        W27020  26.565   7.353  14.855
54673W        W27021   1.804  12.281  10.459
54674W        W27022  35.415  41.974  12.861
54675W        W27023  15.764  15.807  10.147
54676W        W27024  31.043  25.676  11.040
54677W        W27025   2.955  11.682  14.401
54678W        W27026  41.359  27.121  14.841
54679W        W27027  34.461  39.877  13.341
54680W        W27028  42.027  43.426  11.908
54681W        W27029  41.882  28.071   4.354
54682W        W27030  17.775   2.789  11.004
54683W        W27031  44.976   3.722  12.527
54684W        W27032  13.701  38.527  14.437
54685W        W27033   2.744   1.764  14.843
54686W        W27034  23.062  44.884   4.645
54687W        W27035  20.726  34.879   2.869
54688W        W27036  37.432  12.710   0.379
54689W        W27037  12.342   7.302   1.920
54690W        W27038  11.225   6.323   4.726
54691W        W27039  44.446  25.668   1.800
54692W        W27040  37.419  16.210  11.390
54693W        W27041   5.913  17.258  11.445
54694W        W27042  12.118   0.878   4.660
54695W        W27043  14.321   3.259   4.814
54696W        W27044  42.454  22.735  14.334
54697W        W27045  36.347   2.393  13.472
54698W        W27046   7.799  33.529   0.811
54699W        W27047  21.569   0.344   4.819
54700W        W27048  15.115  16.671   4.762
54701W        W27049  12.297  29.656  14.391
54702W        W27050  36.464  35.427  12.448
54703W        W27051   4.251  27.609   4.142
54704W        W27052  30.624  25.068   0.927
54705W        W27053  37.017  43.332   2.682
54706W        W27054  18.636  21.527   1.259
54707W        W27055  35.454  35.357   2.320
54708W        W27056  40.444  11.366   3.634
54709W        W27057   6.687  26.653   9.953
54710W        W27058  33.569  17.134   4.271
54711W        W27059   3.723   9.342  12.840
54712W        W27060  34.084   2.840   4.292
54713W        W27061  22.107   7.404   3.764
54714W        W27062  20.146   0.817   1.360
54715W        W27063  39.441  16.728   4.280
54716W        W27064   6.342  10.641  13.042
54717W        W27065   1.744  37.480   2.760
54718W        W27066  12.811  23.188  11.461
54719W        W27067  11.809  17.174  12.478
54720W        W27068  25.580  10.372  12.856
54721W        W27069  11.205  39.994  10.542
54722W        W27070  20.257  38.901  11.983
54723W        W27071  42.345   9.649  14.827
54724W        W27072  13.802  15.733  12.944
54725W        W27073  36.049  22.162   3.724
54726W        W27074  32.125  24.230  11.128
54727W        W27075  31.132  15.233   0.358
54728W        W27076  11.358  18.629  13.025
54729W        W27077  21.629  22.573  11.607
54730W        W27078   9.292   6.690  13.956
54731W        W27079   5.413   1.833  14.378
54732W        W27080  40.512  14.181   2.198
54733W        W27081   4.823  19.629   2.193
54734W        W27082  40.874  43.394  10.458
54735W        W27083  27.957   2.331  11.454
54736W        W27084   4.451   0.389   1.243
54737W        W27085  35.096   3.848   4.626
54738W        W27086  20.191   9.362  13.832
54739W        W27087  30.655  23.991   0.392
54740W        W27088  32.405  40.893  14.352
54741W        W27089  12.355  18.202  13.360
54742W        W27090  26.493  21.255  10.463
54743W        W27091  19.685  17.128  10.990
54744W        W27092  31.057  27.131  12.032
54745W        W27093   3.716  13.295   3.747
54746W        W27094  30.127  34.599  10.638
54747W        W27095  41.483  14.825  11.470
54748W        W27096  44.876   1.320   2.293
54749W        W27097   1.273  20.058  11.512
54750W        W27098  21.038   5.921   0.413
54751W        W27099  17.600  30.000  13.509
54752W        W27100  41.967  34.984  12.519
54753W        W27101  37.965   7.323   5.322
54754W        W27102  38.392  15.201  12.914
54755W        W27103  38.819  37.509  13.817
54756W        W27104  36.080  36.899   1.299
54757W        W27105  27.609  13.211   3.817
54758W        W27106  44.378  17.698   4.646
54759W        W27107  43.004   9.264   0.246
54760W        W27108   4.894  11.692  11.389
54761W        W27109  31.044  26.204  11.875
54762W        W27110  40.341  21.702   2.704
54763W        W27111  40.053  36.578   3.736
54764W        W27112  18.267  37.067   4.806
54765W        W27113  15.670  43.883  14.848
54766W        W27114  11.651   7.251  12.380
54767W        W27115  18.684  11.735   4.602
54768W        W27116  28.675  21.644   1.409
54769W        W27117  17.135  38.439  12.823
54770W        W27118  25.133   9.160  12.342
54771W        W27119   6.847  14.174   2.217
54772W        W27120  12.826  18.777  11.113
54773W        W27121  12.136  43.914   0.483
54774W        W27122  28.676  31.646  13.457
54775W        W27123   6.817  11.166   1.736
54776W        W27124   2.724  32.977  10.459
54777W        W27125  11.286   3.901   0.343
54778W        W27126   7.199  12.325  11.062
54779W        W27127  17.625   6.182  13.425
54780W        W27128   6.290  21.712  11.011
54781W        W27129  17.244   3.711  14.824
54782W        W27130  23.024  13.329   3.641
54783W        W27131  35.455  31.636   3.731
54784W        W27132  38.044  38.446  14.764
54785W        W27133  10.212  15.822   4.119
54786W        W27134   3.749   6.680   1.710
54787W        W27135  20.244  32.070  13.050
54788W        W27136  36.498   4.293  12.905
54789W        W27137  12.672  15.295   1.852
54790W        W27138  20.237  44.990   2.208
54791W        W27139  36.431  15.789   0.887
54792W        W27140   4.880  36.073   1.910
54793W        W27141  22.710  21.228   0.749
54794W        W27142  16.719  40.401  10.471
54795W        W27143  38.387  25.504   0.781
54796W        W27144   4.733  30.595  11.119
54797W        W27145  43.369   1.742  11.606
54798W        W27146  38.520  12.641   0.809
54799W        W27147  11.137  30.634  12.565
54800W        W27148   6.827  17.113   4.344
54801W        W27149   1.807  27.675  12.481
54802W        W27150  22.140  12.239  11.020
54803W        W27151   8.655  23.028   0.427
54804W        W27152  26.029  16.098  13.525
54805W        W27153   3.252  16.304   3.228
54806W        W27154   3.919  14.703  11.401
54807W        W27155  39.412  14.766  13.043
54808W        W27156   9.885  32.522   2.725
54809W        W27157  31.986   1.897  13.483
54810W        W27158  35.584  27.151   1.871
54811W        W27159  11.631  32.893   0.798
54812W        W27160  12.682  16.096  10.891
54813W        W27161   0.831  44.352  13.509
54814W        W27162  42.016   1.752  11.518
54815W        W27163  14.804   9.813   1.845
54816W        W27164  30.112  25.170   3.656
54817W        W27165  19.267   1.810   2.825
54818W        W27166   6.695  13.304   1.736
54819W        W27167  28.677  40.338  13.873
54820W        W27168  33.483  12.839   3.690
54821W        W27169  21.558   5.828   2.240
54822W        W27170  10.794  31.970   3.788
54823W        W27171  35.594   7.267  11.081
54824W        W27172  28.607  39.329  14.911
54825W        W27173  31.140  36.011  11.525
54826W        W27174  29.478   7.676   1.447
54827W        W27175  35.861  26.963   4.748
54828W        W27176  43.484  16.749   3.640
54829W        W27177  40.434  34.967   2.180
54830W        W27178  37.549  37.465  10.566
54831W        W27179  30.421  24.979  14.383
54832W        W27180  22.109  33.996   0.875
54833W        W27181  44.856   8.197   4.232
54834W        W27182  31.013   5.769   3.260
54835W        W27183  35.560  14.622  11.027
54836W        W27184  16.189  39.061  12.559
54837W        W27185   0.930  18.112   1.696
54838W        W27186  31.025  26.539   4.772
54839W        W27187  15.139   4.431  10.981
54840W        W27188  18.601   8.689  14.330
54841W        W27189  22.158  28.955   4.645
54842W        W27190  28.566  36.875   2.406
54843W        W27191  30.550  35.927   2.849
54844W        W27192  16.301  36.081   4.115
54845W        W27193  29.920   6.733   0.254
54846W        W27194  17.617  36.904   4.670
54847W        W27195  25.484   8.187  13.503
54848W        W27196  34.026  22.624   1.371
54849W        W27197   1.943  21.559   2.248
54850W        W27198   6.808  23.670  11.595
54851W        W27199  41.858  12.756   2.360
54852W        W27200   1.750  34.916  14.448
54853W        W27201  30.508   5.931  13.874
54854W        W27202   9.762  28.527   2.321
54855W        W27203  14.096  32.009  11.894
54856W        W27204  13.669  29.640  10.467
54857W        W27205  21.146  19.687   1.326
54858W        W27206  33.119  23.630   0.818
54859W        W27207   4.335  21.055   3.232
54860W        W27208  19.156  30.949  13.994
54861W        W27209  27.089  40.033   4.609
54862W        W27210  38.072   6.291   4.170
54863W        W27211  16.169  31.637  12.352
54864W        W27212  16.575  30.947   2.419
54865W        W27213  24.647  41.451  11.599
54866W        W27214   0.922   5.689  12.425
54867W        W27215   8.235  42.799  10.947
54868W        W27216  34.415  38.927  10.492
54869W        W27217  27.645   1.258   4.347
54870W        W27218  12.210  10.294  13.471
54871W        W27219   3.378  23.506  13.542
54872W        W27220  32.405  31.445   4.139
54873W        W27221   4.832  40.803  11.404
54874W        W27222   9.187  12.823   0.298
54875W        W27223  33.108   5.385   3.837
54876W        W27224  37.490   3.349   2.824
54877W        W27225   9.165  16.176  14.923
54878W        W27226  30.044   5.845   0.806
54879W        W27227  28.637   5.334  11.396
54880W        W27228  34.058  38.864  13.813
54881W        W27229  20.568  25.974   0.927
54882W        W27230   2.289   8.245   3.362
54883W        W27231  14.118  23.489  12.978
54884W        W27232   8.754  35.960  10.545
54885W        W27233  18.656   8.291  14.276
54886W        W27234  10.340  25.527  11.566
54887W        W27235  11.775  10.729   1.837
54888W        W27236  40.952  20.044   4.669
54889W        W27237   0.841  21.169   3.832
54890W        W27238  28.589   1.333  12.907
54891W        W27239  12.131   7.724  14.362
54892W        W27240  34.887  36.397   4.346
54893W        W27241  31.020  41.788   0.271
54894W        W27242  16.731  42.809   3.150
54895W        W27243  33.538  27.473   2.696
54896W        W27244   5.299  38.482   0.393
54897W        W27245  40.324   5.851   2.841
54898W        W27246   8.360   3.449  13.987
54899W        W27247  15.170  19.604   2.783
54900W        W27248   7.784  20.121   0.461
54901W        W27249  38.030  22.139   2.881
54902W        W27250  31.570  25.681  10.469
54903W        W27251  31.503   2.410  13.019
54904W        W27252  34.441  13.614  11.125
54905W        W27253  42.999  21.731   4.678
54906W        W27254  25.528  11.243  12.867
54907W        W27255  10.800  24.031   3.326
54908W        W27256  35.879  10.823  12.904
54909W        W27257  20.631  25.477  12.455
54910W        W27258  20.758  33.410   2.392
54911W        W27259  24.523  12.697   3.311
54912W        W27260  26.162  33.003  14.028
54913W        W27261   6.332  39.977  14.446
54914W        W27262  16.176   8.175  11.551
54915W        W27263   1.945  18.103  11.580
54916W        W27264   2.904  33.058  12.495
54917W        W27265  28.964   0.832   0.937
54918W        W27266  44.342  27.096   4.814
54919W        W27267  35.488  35.970   3.871
54920W        W27268  44.769  19.141  13.310
54921W        W27269  18.713  38.411   1.787
54922W        W27270  39.022  24.190  13.382
54923W        W27271  15.796  30.101  10.934
54924W        W27272  32.056  31.969   4.797
54925W        W27273  18.764  36.485   3.810
54926W        W27274  10.211   4.389  12.466
54927W        W27275  15.706  38.531  10.116
54928W        W27276  17.745  24.537  14.842
54929W        W27277  22.710   1.319   1.724
54930W        W27278  19.211   0.974   0.449
54931W        W27279  44.904  19.137   2.368
54932W        W27280  41.936  38.828   2.393
54933W        W27281  10.316  10.371  10.154
54934W        W27282  27.451   0.446  14.814
54935W        W27283  32.019  19.662   1.708
54936W        W27284   4.401  34.576  11.921
54937W        W27285  32.918  28.673   0.418
54938W        W27286  43.012  14.601   0.821
54939W        W27287   8.874  32.541  12.861
54940W        W27288  31.135  20.704   3.727
54941W        W27289  12.252   7.172  11.555
54942W        W27290   6.222  23.649  10.968
54943W        W27291   2.851  40.880   2.734
54944W        W27292   7.365   6.719   0.257
54945W        W27293  36.528   3.445  13.875
54946W        W27294  41.371  16.172  10.895
54947W        W27295   9.297  44.868   1.439
54948W        W27296   7.328  21.217   1.730
54949W        W27297  18.147  22.573   1.874
54950W        W27298  22.624   5.753   0.338
54951W        W27299  30.064   1.240   2.733
54952W        W27300   8.209  14.590  10.996
54953W        W27301  27.094  15.160  14.990
54954W        W27302  21.655   2.314  13.868
54955W        W27303  20.202  10.208   3.151
54956W        W27304  31.125  24.671   0.927
54957W        W27305  10.277  14.171  14.400
54958W        W27306   0.934  34.502   1.849
54959W        W27307  24.691  35.385   3.754
54960W        W27308  24.053  29.474  10.945
54961W        W27309  19.658  22.225   1.795
54962W        W27310  11.686  13.287  14.481
54963W        W27311   5.818  39.967  13.353
54964W        W27312  19.074  31.951  13.415
54965W        W27313  10.870   4.893  11.567
54966W        W27314   2.738  10.789  11.529
54967W        W27315  29.989   7.314   4.675
54968W        W27316  40.973  29.944   3.633
54969W        W27317  33.081   3.727   2.312
54970W        W27318  34.600   2.796  12.907
54971W        W27319   3.806  20.135   4.300
54972W        W27320  24.652  32.546  11.609
54973W        W27321  14.739   0.844  14.984
54974W        W27322  29.009  38.916  12.826
54975W        W27323  19.557  28.059   1.740
54976W        W27324  28.141  18.117   2.187
54977W        W27325  42.018  29.951   2.207
54978W        W27326   0.463  42.028   4.838
54979W        W27327  44.301  18.777  14.852
54980W        W27328   7.716  12.693   3.701
54981W        W27329  35.870   2.251   4.284
54982W        W27330  12.352  28.105   1.217
54983W        W27331  33.963   2.781   4.741
54984W        W27332  33.620  38.867   4.660
54985W        W27333  44.421  43.931  12.447
54986W        W27334  14.145  22.741   2.244
54987W        W27335  12.769  39.059   0.471
54988W        W27336  28.523  10.709  13.508
54989W        W27337   9.718  10.776   2.316
54990W        W27338  11.331   1.863  11.539
54991W        W27339  22.533  13.737  14.947
54992W        W27340  41.002   2.735   4.609
54993W        W27341  41.881   1.788   1.886
54994W        W27342  11.689  29.041  14.481
54995W        W27343   5.406   4.789   3.765
54996W        W27344  19.246  30.956  10.960
54997W        W27345  11.675  26.971   3.809
54998W        W27346  13.184  33.883   4.610
54999W        W27347  36.503  10.145   1.713
55000W        W27348  30.553  43.338   1.281
55001W        W27349  28.973  22.519  11.960
55002W        W27350  10.262   6.387  12.419
55003W        W27351  31.623   2.436  13.378
55004W        W27352  22.599  30.465   0.741
55005W        W27353  33.886   7.763  12.869
55006W        W27354   2.930  18.088   2.410
55007W        W27355  43.469  15.784  11.046
55008W        W27356  38.989  12.169   3.311
55009W        W27357  18.740  19.663   1.331
55010W        W27358  41.879  14.656  14.511
55011W        W27359  43.514  36.486  11.575
55012W        W27360  31.968  19.075  10.921
55013W        W27361  35.972  19.626   0.769
55014W        W27362   2.965  33.546  12.451
55015W        W27363  11.159  38.345  13.528
55016W        W27364  35.490  23.643  11.953
55017W        W27365  35.587  26.042  11.583
55018W        W27366  22.120  44.296   1.383
55019W        W27367  26.975  16.119   0.823
55020W        W27368  36.903  32.607  10.918
55021W        W27369  20.626  16.190   4.788
55022W        W27370   2.766  44.271  14.855
55023W        W27371  31.564  31.915  13.950
55024W        W27372  18.196   8.262  12.523
55025W        W27373   3.458   2.913  13.364
55026W        W27374  36.906   8.247  12.554
55027W        W27375  25.978  38.372  11.936
55028W        W27376   3.851   9.851  14.993
55029W        W27377  34.889  22.186   3.240
55030W        W27378  24.022  36.075  10.466
55031W        W27379   4.807  17.756  12.525
55032W        W27380   1.245  26.603   0.329
55033W        W27381  25.964  37.573   9.965
55034W        W27382   1.302   4.788  10.635
55035W        W27383  22.690  20.255  13.484
55036W        W27384  43.787  43.846  14.946
55037W        W27385  20.038  38.827  10.965
55038W        W27386  44.887  28.009  12.031
55039W        W27387  14.110  43.273   4.802
55040W        W27388  28.041  42.828  13.879
55041W        W27389  30.944   2.252   4.681
55042W        W27390  11.743  16.072   2.843
55043W        W27391  17.629  16.306   4.184
55044W        W27392   9.731   7.361  14.465
55045W        W27393  13.166  17.101  14.893
55046W        W27394  13.342  15.211  12.377
55047W        W27395  34.545  35.008   2.720
55048W        W27396  40.442  36.401   3.674
55049W        W27397  35.957   6.297   4.267
55050W        W27398  30.633  38.964  10.497
55051W        W27399   3.780  34.107   1.798
55052W        W27400   7.788  19.080   3.354
55053W        W27401   0.408  43.906  11.439
55054W        W27402  23.636  19.578   1.326
55055W        W27403  10.339  31.626   2.245
55056W        W27404  27.084   3.381   3.354
55057W        W27405  28.098  39.510   1.365
55058W        W27406  27.610  27.065  13.987
55059W        W27407   6.706  20.623   4.702
55060W        W27408  33.901   3.389  10.624
55061W        W27409   4.364  10.846   3.676
55062W        W27410  38.537  35.434  10.891
55063W        W27411  43.867   3.386  14.970
55064W        W27412  43.825  37.025  11.384
55065W        W27413  33.095  21.110   0.450
55066W        W27414   4.783  20.082   3.710
55067W        W27415  20.567  21.542   3.318
55068W        W27416  10.798  32.562   4.740
55069W        W27417  36.453  43.418  11.595
55070W        W27418  36.977  43.413   2.349
55071W        W27419  20.642  33.953  14.492
55072W        W27420  16.160   1.352  14.421
55073W        W27421   1.819  20.525  12.534
55074W        W27422  26.464  43.882   3.303
55075W        W27423  40.494  22.068  12.509
55076W        W27424  27.502   7.357  14.944
55077W        W27425   0.465  39.527  13.502
55078W        W27426   7.749  38.488  10.889
55079W        W27427  10.849   6.720  10.530
55080W        W27428  16.265  36.939  14.327
55081W        W27429   6.795  31.530   1.822
55082W        W27430  16.150  20.261  12.846
55083W        W27431  42.304  11.223   0.253
55084W        W27432   6.279  44.840  13.395
55085W        W27433  25.499  11.756   1.253
55086W        W27434  36.916  28.623   4.178
55087W        W27435  31.417  32.414   0.827
55088W        W27436  29.945  34.880   4.685
55089W        W27437   0.482   1.393   2.297
55090W        W27438  26.639  16.146  13.454
55091W        W27439  40.527   9.848   1.784
55092W        W27440  34.401  14.801  12.999
55093W        W27441  21.625  34.105   0.462
55094W        W27442  36.084  31.036   2.271
55095W        W27443  36.964  23.591   3.805
55096W        W27444  32.030  29.168   2.412
55097W        W27445  24.510  35.994   0.429
55098W        W27446  21.056   8.783   2.730
55099W        W27447  41.345   0.962  12.031
55100W        W27448  19.597  16.669  10.966
55101W        W27449   8.191  40.439  11.985
55102W        W27450   5.415  14.141   4.343
55103W        W27451  15.604  17.645  14.893
55104W        W27452  42.443  32.890  13.482
55105W        W27453  43.989  27.447   3.335
55106W        W27454  17.722   1.975   1.727
55107W        W27455  28.949  32.557  12.499
55108W        W27456  33.059  26.620   2.375
55109W        W27457   7.198  11.303   3.216
55110W        W27458  39.430  33.012   4.337
55111W        W27459   9.645  24.042   4.724
55112W        W27460  34.994  39.500  13.863
55113W        W27461  39.970  31.151   3.184
55114W        W27462  38.516  13.831   0.459
55115W        W27463  23.222  22.532  13.532
55116W        W27464  15.293  27.477  13.402
55117W        W27465  15.283   2.285   1.432
55118W        W27466  21.261  35.526   3.698
55119W        W27467  26.995  27.173  13.797
55120W        W27468  25.071  16.115   3.166
55121W        W27469  26.523  34.614   1.777
55122W        W27470  32.491  36.970  13.351
55123W        W27471   6.833   8.170  12.341
55124W        W27472  40.509  36.872  10.546
55125W        W27473  43.868  38.876   2.736
55126W        W27474  29.175  33.402   0.959
55127W        W27475  33.945  16.738  11.971
55128W        W27476  30.975  25.610   0.933
55129W        W27477  26.078  35.421  14.832
55130W        W27478   0.441  30.112  11.527
55131W        W27479  37.493  37.889   0.360
55132W        W27480   9.830  35.369   0.822
55133W        W27481   6.195   2.956  14.367
55134W        W27482  25.652  37.371   1.794
55135W        W27483  29.455  42.527   4.309
55136W        W27484   5.435  22.076   0.343
55137W        W27485   7.205  44.304   2.180
55138W        W27486  37.439  11.314  13.308
55139W        W27487  27.016  31.953   1.840
55140W        W27488  35.963  40.800   2.694
55141W        W27489  10.871  17.290  11.093
55142W        W27490  11.728  31.946   4.604
55143W        W27491   0.827  10.847   3.856
55144W        W27492  16.639  31.931  13.828
55145W        W27493  41.370  11.361  13.429
55146W        W27494  29.958  28.588   1.265
55147W        W27495  29.169  21.589  12.924
55148W        W27496  44.449   8.800   4.719
55149W        W27497  43.294  17.730  12.457
55150W        W27498   3.315   0.325  10.632
55151W        W27499  42.513  21.218   2.258
55152W        W27500  11.723  11.790  13.389
55153W        W27501  42.473  22.644   4.761
55154W        W27502  41.523  43.889   0.449
55155W        W27503  29.942  42.890  12.359
55156W        W27504  18.216   9.331   0.474
55157W        W27505  21.594  31.461  10.496
55158W        W27506  25.208  44.297   4.681
55159W        W27507  41.944  38.442  14.879
55160W        W27508  44.981  32.438  10.968
55161W        W27509   6.261  11.294  11.971
55162W        W27510  24.676  25.077  11.939
55163W        W27511   4.391  26.205   1.247
55164W        W27512  41.982   5.789   3.805
55165W        W27513   3.737  18.184   3.737
55166W        W27514  16.624   1.438   4.724
55167W        W27515  37.007  42.352  13.821
55168W        W27516  44.348  11.188  12.542
55169W        W27517  44.962  31.121  14.886
55170W        W27518  21.511  27.125   0.743
55171W        W27519  33.900   3.348  12.009
55172W        W27520  39.478   1.472   0.881
55173W        W27521  39.379   4.737   9.623
55174W        W27522  36.078  35.993   3.186
55175W        W27523  22.716   8.384   1.910
55176W        W27524   2.247  27.164   0.401
55177W        W27525  42.322  43.969  13.454
55178W        W27526  36.357  25.590   3.631
55179W        W27527  38.389  14.134   3.824
55180W        W27528  23.506   9.256  12.853
55181W        W27529  20.121  26.076   3.350
55182W        W27530  19.043  35.073  13.811
55183W        W27531   5.317  17.293   9.922
55184W        W27532  23.060  24.719  13.864
55185W        W27533  14.306  21.535   2.258
55186W        W27534  18.051  28.446  12.415
55187W        W27535  23.640  30.627   4.220
55188W        W27536   6.867  22.225   1.445
55189W        W27537  36.591  41.799  14.943
55190W        W27538   1.775  36.940  11.877
55191W        W27539  44.432  33.547  10.926
55192W        W27540  39.402  26.507  12.007
55193W        W27541  14.245  38.544  10.587
55194W        W27542  34.437  23.706   1.887
55195W        W27543  27.486  26.002  11.017
55196W        W27544  30.550   4.713  14.354
55197W        W27545  23.143  17.654  11.063
55198W        W27546  27.994  27.662   0.857
55199W        W27547  22.505  31.526   3.817
55200W        W27548  35.443  29.995   4.742
55201W        W27549   2.786   9.770   1.910
55202W        W27550  36.457  32.565  11.910
55203W        W27551  21.050   1.771  14.421
55204W        W27552  40.843   7.330  10.544
55205W        W27553  39.370  24.725  11.537
55206W        W27554  39.404  15.123  12.998
55207W        W27555  13.325  35.931   2.345
55208W        W27556  19.070   8.777  11.938
55209W        W27557   8.719  25.977   2.717
55210W        W27558  14.594  12.683   5.101
55211W        W27559  37.408  28.043  14.017
55212W        W27560   5.243  43.932   0.253
55213W        W27561   6.199  19.725  11.939
55214W        W27562  26.615  25.190  10.464
55215W        W27563   2.472   7.291   0.789
55216W        W27564  30.415   8.710   2.735
55217W        W27565   3.457   6.874   3.358
55218W        W27566   4.878  38.074   4.121
55219W        W27567  18.124  41.528  14.311
55220W        W27568  20.699  26.181  14.481
55221W        W27569  18.178   7.299  14.814
55222W        W27570  11.847   6.329  14.961
55223W        W27571  12.710  34.044   3.768
55224W        W27572  31.150  23.642   3.215
55225W        W27573  24.689  10.650  12.900
55226W        W27574  33.579  25.982  14.786
55227W        W27575  17.589  24.651   3.296
55228W        W27576  20.117  22.145  11.088
55229W        W27577   4.337  13.207  10.517
55230W        W27578   3.307  27.523  14.318
55231W        W27579  38.020   7.385   1.303
55232W        W27580  34.069  24.722  12.832
55233W        W27581  43.463  31.101   4.610
55234W        W27582  37.897  30.937   0.249
55235W        W27583  10.309  14.652   0.367
55236W        W27584  24.229  30.052  11.396
55237W        W27585   0.762  27.010  10.581
55238W        W27586  30.933  44.336  14.964
55239W        W27587   6.750  38.025   1.774
55240W        W27588  38.862  25.560  14.342
55241W        W27589  39.520  37.459  14.819
55242W        W27590   7.699  18.251   2.210
55243W        W27591   9.864   8.247   4.662
55244W        W27592  33.419  42.484  14.486
55245W        W27593  20.725  14.626   3.351
55246W        W27594  32.460   1.846  14.025
55247W        W27595  18.088  36.055  13.328
55248W        W27596  37.552  39.040   1.420
55249W        W27597  44.456  24.723  13.454
55250W        W27598   4.278  10.271  12.360
55251W        W27599  18.557  42.987   3.717
55252W        W27600  24.652  19.637  13.016
55253W        W27601  26.063  24.135   2.181
55254W        W27602  22.031  13.283  10.974
55255W        W27603  13.603  29.539   3.717
55256W        W27604  34.865   5.407   2.321
55257W        W27605  10.243  43.484  13.490
55258W        W27606  23.213  18.271  12.484
55259W        W27607  20.722   6.861   0.967
55260W        W27608  28.078   2.808   3.180
55261W        W27609  32.093  37.854  14.964
55262W        W27610  25.995  25.970  11.013
55263W        W27611  33.449  26.580   0.282
55264W        W27612  22.547  29.664   2.334
55265W        W27613  14.712  28.021   2.789
55266W        W27614   0.432  44.913   1.432
55267W        W27615  25.974  34.476   2.816
55268W        W27616  22.998  41.483   1.264
55269W        W27617  38.890   5.360  12.379
55270W        W27618  23.202  28.129   2.243
55271W        W27619  10.769  42.995  12.977
55272W        W27620   0.328   3.426  11.054
55273W        W27621  17.237   4.308  12.932
55274W        W27622  40.530   1.865   3.745
55275W        W27623  37.984   9.173  10.643
55276W        W27624  42.802  18.594  11.585
55277W        W27625  33.976  15.329   2.295
55278W        W27626  17.214  12.790  10.096
55279W        W27627  12.316  26.627  11.448
55280W        W27628   8.277  19.119   2.271
55281W        W27629  15.310   5.428   2.840
55282W        W27630  41.035  27.014   2.793
55283W        W27631  24.706  21.046   0.392
55284W        W27632  21.604  44.768   3.757
55285W        W27633   6.763  12.805   3.184
55286W        W27634  32.923   0.476  11.116
55287W        W27635  31.993   3.768  12.045
55288W        W27636  35.522  13.711   3.840
55289W        W27637  14.810  19.089  13.452
55290W        W27638  42.346  35.017   3.675
55291W        W27639   0.387  40.810  13.977
55292W        W27640  20.715  28.597  12.901
55293W        W27641  17.117  25.518  10.953
55294W        W27642  26.059  21.733   1.353
55295W        W27643   5.336   1.935  10.542
55296W        W27644  11.320  41.444  10.538
55297W        W27645  15.146  42.871  13.431
55298W        W27646  33.986  32.056  11.014
55299W        W27647  34.964  15.186  11.383
55300W        W27648   3.760  11.158  11.439
55301W        W27649   2.332  32.094   1.389
55302W        W27650   7.839  39.040  13.445
55303W        W27651  21.729  19.210   2.266
55304W        W27652  21.260  39.556  10.888
55305W        W27653  37.994   9.812  13.847
55306W        W27654  27.113  37.837  12.000
55307W        W27655  35.544   0.797   0.956
55308W        W27656  34.943  39.010   5.202
55309W        W27657  28.576  44.472  11.039
55310W        W27658  16.139  23.033   4.289
55311W        W27659   7.904   6.219  14.912
55312W        W27660  10.361  39.065   3.231
55313W        W27661  33.545  19.107  13.490
55314W        W27662   0.945  44.848   0.303
55315W        W27663  18.105   0.382   4.637
55316W        W27664  19.077  33.043   3.853
55317W        W27665  12.655  13.151   2.279
55318W        W27666  41.966  20.699  13.851
55319W        W27667  29.624   8.171   0.398
55320W        W27668  30.043   2.472   4.634
55321W        W27669  18.110   1.939   3.163
55322W        W27670  14.717  16.080   1.844
55323W        W27671  25.492  27.467  14.810
55324W        W27672  16.689   4.809   2.214
55325W        W27673  44.430  15.211   3.688
55326W        W27674  44.385  43.836   1.263
55327W        W27675  43.376  43.311  11.877
55328W        W27676  21.157  28.599   1.401
55329W        W27677  35.983  17.642   3.656
55330W        W27678  24.198  40.371   5.088
55331W        W27679  11.675  39.057   4.183
55332W        W27680  16.291  21.143  12.947
55333W        W27681   1.893  13.204  12.471
55334W        W27682  20.047  16.677   3.237
55335W        W27683   1.257   0.786  14.510
55336W        W27684  38.412  10.867  12.535
55337W        W27685   5.885  32.491   9.658
55338W        W27686  25.548  36.419   1.844
55339W        W27687  44.934   5.436   4.712
55340W        W27688  26.624   5.799   3.211
55341W        W27689  36.850  22.723   0.794
55342W        W27690  42.310   4.916   3.345
55343W        W27691  36.081  16.081  12.356
55344W        W27692  38.851  39.540  10.916
55345W        W27693  19.138   1.782  14.961
55346W        W27694   9.384  36.056   5.113
55347W        W27695  28.543   2.369   4.264
55348W        W27696  33.930  11.145   4.640
55349W        W27697  34.873  32.101   2.281
55350W        W27698  11.320  24.676   3.339
55351W        W27699   0.963  36.018  12.993
55352W        W27700  10.141  12.634  13.509
55353W        W27701  13.208  19.085   3.739
55354W        W27702  36.039  22.618   2.389
55355W        W27703   2.768  12.735  11.549
55356W        W27704  31.564  27.632  11.435
55357W        W27705   9.801  20.219  13.922
55358W        W27706  42.396  33.394   1.272
55359W        W27707  34.116   8.750   3.651
55360W        W27708  25.106  25.213   3.784
55361W        W27709  35.395  17.159   1.753
55362W        W27710  26.100  27.498   1.346
55363W        W27711   3.265   5.815  10.520
55364W        W27712  26.703   4.880  14.810
55365W        W27713  12.782  13.838   0.787
55366W        W27714  21.130  43.994   4.263
55367W        W27715  31.119  41.796   0.914
55368W        W27716  30.143  35.904  14.835
55369W        W27717   8.824  21.550  13.888
55370W        W27718   8.394  19.594  12.053
55371W        W27719   5.355  19.154   0.433
55372W        W27720  43.788  21.194   4.185
55373W        W27721  19.052  19.132   3.159
55374W        W27722   8.746  34.915  10.582
55375W        W27723  34.955   7.382  12.368
55376W        W27724  28.589  25.023   4.342
55377W        W27725  35.997  33.075  14.812
55378W        W27726  33.469  21.741   1.732
55379W        W27727  22.024  43.893  14.856
55380W        W27728  18.701   0.333   1.784
55381W        W27729  21.097   3.434   0.776
55382W        W27730  35.860  36.500   3.730
55383W        W27731  37.863  30.562   1.788
55384W        W27732   3.381  10.317   3.663
55385W        W27733  22.105  19.213   0.308
55386W        W27734  25.557   9.388   1.347
55387W        W27735   8.855  11.263  13.938
55388W        W27736  14.254  25.176   2.283
55389W        W27737  36.092   5.321   3.634
55390W        W27738  39.986   3.229   4.789
55391W        W27739   7.718  12.223   3.380
55392W        W27740  26.500   4.856   0.434
55393W        W27741  40.462  20.098  14.310
55394W        W27742  39.443  37.376  12.373
55395W        W27743  12.337  12.688  11.050
55396W        W27744  24.096  30.929   2.366
55397W        W27745  35.004   1.752   0.289
55398W        W27746  26.501  22.043  13.856
55399W        W27747  36.860  42.964  11.418
55400W        W27748  21.058  26.515   5.227
55401W        W27749  22.681  10.875  11.087
55402W        W27750   4.711  37.954  13.344
55403W        W27751  30.580   8.774   3.296
55404W        W27752   3.404   9.783  10.581
55405W        W27753  29.070  39.558   3.862
55406W        W27754  12.629   6.741   3.762
55407W        W27755   9.771  22.182   2.749
55408W        W27756  37.936  44.342  11.103
55409W        W27757  14.134  21.019   1.757
55410W        W27758  39.866  39.386   4.681
55411W        W27759  35.093  22.117   1.694
55412W        W27760  32.138  23.685   4.809
55413W        W27761   7.768  43.327   0.362
55414W        W27762  38.058  21.660   2.885
55415W        W27763  32.532  38.852   1.362
55416W        W27764  25.047  39.878  14.929
55417W        W27765  30.945  21.162   1.770
55418W        W27766  43.818  10.308  13.465
55419W        W27767   5.890  37.883  12.010
55420W        W27768  10.813   4.919   9.987
55421W        W27769   8.759  33.606  13.862
55422W        W27770  11.319   0.312   0.815
55423W        W27771  43.899  35.599  12.375
55424W        W27772  36.371  36.955  11.003
55425W        W27773  38.885   6.775   1.702
55426W        W27774  21.218   7.807   4.285
55427W        W27775  11.761  27.607  14.464
55428W        W27776   6.395  21.565   0.317
55429W        W27777  20.594  16.779   0.842
55430W        W27778  26.955  20.575  13.545
55431W        W27779  25.048  17.222   0.872
55432W        W27780  38.032  35.079   0.432
55433W        W27781   5.304  23.069  13.988
55434W        W27782  17.202   7.372   5.199
55435W        W27783  33.954   2.444   0.353
55436W        W27784  40.445  15.691  14.805
55437W        W27785   8.316  25.007   4.307
55438W        W27786  42.452  42.318   4.623
55439W        W27787  15.318  24.142   4.645
55440W        W27788  30.998  35.025   4.681
55441W        W27789  17.273   2.863   0.285
55442W        W27790  20.718   8.301  12.550
55443W        W27791  19.180  39.002  11.961
55444W        W27792  39.023   6.307  12.390
55445W        W27793  38.433  30.040   1.731
55446W        W27794  31.596   1.428   2.790
55447W        W27795  19.773   0.947   4.334
55448W        W27796  38.447  19.193   2.713
55449W        W27797   8.234  39.880   2.387
55450W        W27798  20.224  10.381  11.120
55451W        W27799  33.435  29.952  11.557
55452W        W27800  43.807  42.336   0.774
55453W        W27801  15.594  17.687   4.837
55454W        W27802  20.740  25.106  12.002
55455W        W27803  30.455   8.779  11.100
55456W        W27804  15.596  16.760   1.909
55457W        W27805  37.915  40.359   4.754
55458W        W27806  17.062  36.445   2.848
55459W        W27807  19.611  24.516   2.743
55460W        W27808  44.863  23.125   0.334
55461W        W27809  24.187  17.271   4.156
55462W        W27810   1.465   8.309   4.762
55463W        W27811  37.385  28.543  13.982
55464W        W27812  23.129  34.516   0.866
55465W        W27813  29.118  25.576   4.823
55466W        W27814  18.281  37.035   4.322
55467W        W27815  32.577   9.868   2.415
55468W        W27816  42.936   6.749   0.938
55469W        W27817  38.553   3.270  10.526
55470W        W27818   4.447  22.552  13.532
55471W        W27819  28.659  22.096  10.942
55472W        W27820  26.966  25.597  13.840
55473W        W27821   6.384  32.060  10.903
55474W        W27822  13.160  11.160   3.214
55475W        W27823  13.735  13.322   4.185
55476W        W27824  25.588  33.053  13.325
55477W        W27825  30.647  16.623   1.335
55478W        W27826  41.818  11.373   0.882
55479W        W27827  17.305  18.597   2.791
55480W        W27828  39.510  43.352   4.707
55481W        W27829  27.063  12.283  12.076
55482W        W27830  32.589  19.094   1.315
55483W        W27831  32.437   1.421   2.220
55484W        W27832  14.810  15.233  12.982
55485W        W27833  39.448  42.956  11.104
55486W        W27834  36.902  27.635   1.356
55487W        W27835   2.804  23.492  13.492
55488W        W27836  27.452  33.470   0.259
55489W        W27837  43.773  20.581   1.883
55490W        W27838  30.638   8.761  13.439
55491W        W27839  23.494  27.551   0.901
55492W        W27840   3.450  41.311   1.339
55493W        W27841  20.673   2.232  11.035
55494W        W27842  35.592  25.150   4.239
55495W        W27843  11.261   0.438  12.576
55496W        W27844   5.225  17.782   2.854
55497W        W27845  10.878  25.085  12.919
55498W        W27846  44.917  27.446   4.323
55499W        W27847  13.260  36.935   0.408
55500W        W27848  11.837  31.067  14.018
55501W        W27849  27.521  32.596  14.821
55502W        W27850  39.390  44.879  13.376
55503W        W27851  36.002  25.649   4.670
55504W        W27852  31.604   6.335  13.467
55505W        W27853   8.212  35.947  12.856
55506W        W27854   6.391  31.924   0.808
55507W        W27855  23.660  26.539   3.757
55508W        W27856   2.793  30.120  10.947
55509W        W27857  15.642  43.771  10.465
55510W        W27858  37.025   7.695   0.369
55511W        W27859  14.338  28.082  11.431
55512W        W27860  15.807  16.215  10.588
55513W        W27861  44.397  13.132   3.333
55514W        W27862   9.155  20.719   4.195
55515W        W27863  23.090   8.802  11.531
55516W        W27864  17.228  13.759  11.009
55517W        W27865   4.842  42.901  10.091
55518W        W27866  12.275   9.241   4.766
55519W        W27867  18.100   9.764  13.439
55520W        W27868  44.415   7.384   4.131
55521W        W27869  44.443  36.443   5.161
55522W        W27870   0.308  36.057   0.847
55523W        W27871  42.427  16.084  12.051
55524W        W27872  31.519  21.127  14.889
55525W        W27873  27.668  29.579   0.780
55526W        W27874  41.420  39.319  11.413
55527W        W27875  13.313  21.689  13.820
55528W        W27876  14.159  33.577   3.258
55529W        W27877  14.170  24.685   4.164
55530W        W27878  22.241  24.978  13.397
55531W        W27879  15.733   1.875   3.843
55532W        W27880  40.329  24.655  14.410
55533W        W27881  25.683  38.037   2.770
55534W        W27882   1.947  15.209  11.989
55535W        W27883  26.069  37.967  10.990
55536W        W27884  22.233   8.818   4.741
55537W        W27885   8.248   0.829  12.973
55538W        W27886  21.634  14.825   0.819
55539W        W27887  18.692   0.802   4.702
55540W        W27888  19.057  33.055   0.290
55541W        W27889  43.936  29.601   0.468
55542W        W27890  19.194   4.818  12.050
55543W        W27891  39.366  21.264   4.311
55544W        W27892  28.559  19.216   1.325
55545W        W27893  17.127  13.137   1.340
55546W        W27894   3.396  41.379   4.267
55547W        W27895  28.580  21.243  10.073
55548W        W27896   4.911   4.416  11.506
55549W        W27897  40.837   2.843   1.784
55550W        W27898  28.648  21.235   1.289
55551W        W27899  23.132  44.414   4.795
55552W        W27900   9.820  42.404  13.508
55553W        W27901  22.124   5.700   0.394
55554W        W27902  30.131   5.195  12.984
55555W        W27903   9.233  30.982  10.991
55556W        W27904  25.132  25.471  11.542
55557W        W27905  22.560  39.998   4.835
55558W        W27906  14.709  16.635   2.767
55559W        W27907  29.467  39.459  10.436
55560W        W27908   3.356  11.789   3.300
55561W        W27909  20.673   3.767  12.456
55562W        W27910   8.688  33.936   1.717
55563W        W27911  23.990  42.438   2.774
55564W        W27912  13.712  42.837   1.314
55565W        W27913  25.079  43.014   1.388
55566W        W27914  26.589  15.103   2.340
55567W        W27915  19.108  27.076  13.399
55568W        W27916  36.914  43.460   0.870
55569W        W27917  11.142  21.257  10.009
55570W        W27918  39.016  36.512  10.431
55571W        W27919   8.352  42.357   4.244
55572W        W27920  26.147  13.747   4.248
55573W        W27921  32.529  29.081  13.946
55574W        W27922  36.578  44.457   2.337
55575W        W27923  33.880  43.826   2.781
55576W        W27924   8.169  34.475   0.353
55577W        W27925   1.456  11.661  11.375
55578W        W27926   6.902  18.118   2.849
55579W        W27927  20.650  38.535   0.756
55580W        W27928   9.796  38.950  12.941
55581W        W27929  13.614  22.109  14.994
55582W        W27930  14.340   9.199  13.038
55583W        W27931   3.340  40.040  13.465
55584W        W27932   1.479   7.414  14.789
55585W        W27933  37.490  34.984  11.933
55586W        W27934  19.231   2.882   2.852
55587W        W27935  32.903  42.296  11.541
55588W        W27936  37.354  33.033   2.372
55589W        W27937  35.540  34.538   1.242
55590W        W27938  20.191   2.882   4.316
55591W        W27939  16.607  21.715   3.808
55592W        W27940  28.543  20.272  11.543
55593W        W27941  27.958  41.834   4.727
55594W        W27942  16.602  33.496  13.989
55595W        W27943  19.173  20.731  13.516
55596W        W27944  22.999   4.303  14.405
55597W        W27945  30.578  33.592  13.955
55598W        W27946  16.687  14.625  10.624
55599W        W27947  25.962  35.424  13.314
55600W        W27948   3.355   8.874  14.898
55601W        W27949  25.145   4.439   0.397
55602W        W27950  40.396  12.201  14.833
55603W        W27951  44.301  41.893   3.761
55604W        W27952   0.795  29.533  13.834
55605W        W27953  33.406  30.015  11.114
55606W        W27954  40.971  42.873   1.860
55607W        W27955   9.285   5.316   4.241
55608W        W27956  17.587  23.241  11.070
55609W        W27957  33.495  32.067  13.930
55610W        W27958   1.734  27.990  11.920
55611W        W27959  25.094  44.380   2.799
55612W        W27960   6.365  44.998   4.285
55613W        W27961  21.659  38.487   2.679
55614W        W27962  21.546  23.581  12.449
55615W        W27963  42.371  44.819   2.394
55616W        W27964  38.472  42.990   1.924
55617W        W27965  19.222  19.046   0.432
55618W        W27966  21.139   3.897  14.472
55619W        W27967   2.783   0.346  13.541
55620W        W27968  19.727  41.015  12.404
55621W        W27969  21.528  18.705   1.923
55622W        W27970  41.798  32.628   0.343
55623W        W27971  30.953  44.755   0.905
55624W        W27972  15.213   7.234  11.100
55625W        W27973  18.113  37.493   4.744
55626W        W27974  22.130   8.177   4.759
55627W        W27975  17.601  21.747  10.440
55628W        W27976  34.067  31.569  11.388
55629W        W27977   5.309  35.470   0.950
55630W        W27978  39.824  14.711  12.453
55631W        W27979   9.199  13.693  12.426
55632W        W27980   9.707  41.458  12.560
55633W        W27981  10.272  25.207   0.347
55634W        W27982  43.439  32.069   0.476
55635W        W27983  29.652  20.527   4.807
55636W        W27984  20.066  39.959   0.303
55637W        W27985  40.323  16.149   2.362
55638W        W27986  23.725   5.409  12.526
55639W        W27987  33.109  27.529  11.922
55640W        W27988  33.026   6.241  10.586
55641W        W27989  31.646  19.078  13.981
55642W        W27990  24.118  18.225   3.247
55643W        W27991  43.922  25.092   2.724
55644W        W27992   7.717  41.376   1.778
55645W        W27993  39.529  26.999  11.418
55646W        W27994  15.141   1.879  13.366
55647W        W27995   1.304  13.300   4.811
55648W        W27996   9.867  24.579   4.199
55649W        W27997  29.126  37.384  13.951
55650W        W27998  40.003  30.450  14.278
55651W        W27999  30.960  19.579  12.862
55652W        W28000  27.588  43.494   2.376
55653W        W28001   9.889  31.011  13.326
55654W        W28002  34.492  20.043  14.957
55655W        W28003  38.494   3.721  13.481
55656W        W28004  19.224  36.976   0.451
55657W        W28005  11.265   2.306  13.855
55658W        W28006  18.570  36.512  14.839
55659W        W28007  33.546  33.595   5.292
55660W        W28008  30.028  27.690   4.668
55661W        W28009  12.850  12.739   0.313
55662W        W28010  30.491  34.877   5.254
55663W        W28011  38.827  30.476   5.272
55664W        W28012   8.783  23.225   3.296
55665W        W28013  43.967  16.072   0.353
55666W        W28014  26.132   9.664   4.795
55667W        W28015  41.877  41.983  10.957
55668W        W28016  15.250   9.710  13.475
55669W        W28017  36.091  38.910  10.558
55670W        W28018  40.316  11.147  11.904
55671W        W28019  35.078  20.602   1.436
55672W        W28020  21.684  18.087  12.883
55673W        W28021  23.101  43.339  13.927
55674W        W28022  41.043  39.017   3.162
55675W        W28023   8.857  26.484  14.798
55676W        W28024  33.403  11.670   2.731
55677W        W28025  31.063  33.889  12.967
55678W        W28026   2.909  26.207  10.608
55679W        W28027   3.303   9.171  13.895
55680W        W28028  13.618   6.682  10.404
55681W        W28029  29.135  11.360   4.267
55682W        W28030   2.291  20.749   0.877
55683W        W28031  36.497  18.706  12.576
55684W        W28032   0.970  28.512   4.192
55685W        W28033  33.400  25.990   1.877
55686W        W28034   7.276   6.710   3.704
55687W        W28035  37.573   6.842   9.489
55688W        W28036  19.759  37.379   5.217
55689W        W28037  21.749  11.688  10.509
55690W        W28038  14.745   5.812   1.931
55691W        W28039   8.706  22.234  14.779
55692W        W28040  42.335  41.524  14.515
55693W        W28041  11.814  20.204  11.071
55694W        W28042  28.459   5.379   0.253
55695W        W28043   7.209  34.483  10.472
55696W        W28044   8.362  40.044  13.364
55697W        W28045  11.163  27.454   4.683
55698W        W28046  22.171   7.198  10.012
55699W        W28047  40.027   1.907  10.432
55700W        W28048  39.319  40.522  10.977
55701W        W28049  42.921  27.649  11.018
55702W        W28050  39.887  25.704   1.910
55703W        W28051   9.313  26.996  13.347
55704W        W28052  15.584  36.582  13.892
55705W        W28053  44.757  44.480   0.886
55706W        W28054  13.335   9.862  12.083
55707W        W28055  18.086  38.898  12.531
55708W        W28056   1.354   7.774  12.457
55709W        W28057  14.204   9.842   2.225
55710W        W28058  40.855  17.742  12.404
55711W        W28059   3.227   9.764   0.900
55712W        W28060  15.131  37.551  13.989
55713W        W28061   3.794  21.519  10.607
55714W        W28062  31.990   0.744  10.531
55715W        W28063  20.085   1.809  10.575
55716W        W28064  29.597  39.423   1.424
55717W        W28065  38.909   9.702  12.056
55718W        W28066  32.098  28.608  13.884
55719W        W28067  43.986  31.506   3.653
55720W        W28068  44.399  21.232   2.227
55721W        W28069   0.362  44.322   0.353
55722W        W28070  16.756  13.162   1.265
55723W        W28071  20.150  37.427   4.342
55724W        W28072  34.963  20.126  10.629
55725W        W28073  29.168  11.701  14.762
55726W        W28074   1.320  13.687   4.620
55727W        W28075  14.650   3.327   4.140
55728W        W28076  14.203  29.152  14.410
55729W        W28077  10.673  43.343   3.153
55730W        W28078  25.541  33.441  11.901
55731W        W28079  24.985  13.306   1.917
55732W        W28080  10.171  32.129   0.461
55733W        W28081  41.004  19.201  12.029
55734W        W28082  44.802  16.306  12.896
55735W        W28083  44.267  24.549   0.480
55736W        W28084  26.547  33.957   3.793
55737W        W28085  22.567  38.007  11.935
55738W        W28086  23.047  31.994   0.746
55739W        W28087  35.906  21.530   2.764
55740W        W28088   4.846  12.619  12.545
55741W        W28089  33.434  43.905  14.352
55742W        W28090  14.643  39.343  12.000
55743W        W28091  37.923   5.308   2.315
55744W        W28092  30.132   0.352   0.869
55745W        W28093  35.869  34.117   0.850
55746W        W28094  17.667  10.349   2.667
55747W        W28095  20.646  44.836   1.250
55748W        W28096  39.476   7.765  10.644
55749W        W28097  12.819   5.884  13.511
55750W        W28098  27.656  40.862   0.247
55751W        W28099  21.575  19.605  11.601
55752W        W28100  29.137  37.877  10.451
55753W        W28101  37.886  20.239   3.174
55754W        W28102  40.883   5.408  13.869
55755W        W28103  33.539  42.909   1.437
55756W        W28104  28.938   6.807  13.856
55757W        W28105   4.264  36.928   2.259
55758W        W28106  37.537  15.166  13.468
55759W        W28107   5.909  21.192  11.427
55760W        W28108   3.948  22.046  12.838
55761W        W28109  17.287  18.709   0.902
55762W        W28110  35.891   5.915   4.290
55763W        W28111  20.716  22.025  12.413
55764W        W28112  30.092   6.262  12.366
55765W        W28113  28.474  13.814   3.675
55766W        W28114  18.213  36.491  13.833
55767W        W28115  31.483  23.171  13.892
55768W        W28116  25.489  10.727   4.169
55769W        W28117  44.758  17.187   2.717
55770W        W28118  26.665  24.603  10.942
55771W        W28119  30.584  12.709   4.205
55772W        W28120  21.052  16.092  10.427
55773W        W28121   0.365  39.030   3.384
55774W        W28122  29.983   6.362   2.267
55775W        W28123  39.526  30.084   0.371
55776W        W28124  44.929  22.573  10.496
55777W        W28125  41.920  43.312   3.846
55778W        W28126  27.163   3.848  14.391
55779W        W28127  13.207  20.163   4.799
55780W        W28128   6.788  12.124   0.293
55781W        W28129  26.655  30.534  11.899
55782W        W28130  41.523  43.315  13.969
55783W        W28131  40.895  21.241  11.913
55784W        W28132  31.497  15.608  11.050
55785W        W28133  13.827   1.267   2.770
55786W        W28134  25.141  31.557  11.909
55787W        W28135  12.355  20.050  11.543
55788W        W28136  29.600  35.961  14.325
55789W        W28137   5.322  29.946  11.470
55790W        W28138  17.605  39.055  11.564
55791W        W28139  33.083  14.265  14.797
55792W        W28140   9.365  22.195  14.370
55793W        W28141  36.451  40.968   2.693
55794W        W28142  21.041  19.233  10.414
55795W        W28143   8.213  41.514  12.861
55796W        W28144  42.391  23.675   3.697
55797W        W28145  44.404   4.810   2.846
55798W        W28146  15.276  14.612   1.283
55799W        W28147  26.601  26.690   1.826
55800W        W28148  44.364  22.135  13.492
55801W        W28149  29.644   9.256  13.916
55802W        W28150  30.950  40.879  11.914
55803W        W28151  31.592  26.182  11.115
55804W        W28152   8.777   2.226  14.786
55805W        W28153   6.402   6.816  13.939
55806W        W28154  27.516  30.634   3.768
55807W        W28155  14.749  32.045   3.715
55808W        W28156  22.049  11.803  14.513
55809W        W28157  31.114  42.506   1.750
55810W        W28158  39.914  17.201  14.860
55811W        W28159  24.976  38.994  10.987
55812W        W28160   1.951   5.401   2.751
55813W        W28161  22.170  13.335   2.375
55814W        W28162   6.265  20.683  10.484
55815W        W28163  21.661  36.406  14.912
55816W        W28164   5.701  40.824   3.175
55817W        W28165  13.789  35.094  10.628
55818W        W28166   3.872  39.013   4.599
55819W        W28167   4.728  10.798  12.378
55820W        W28168   1.938   6.399   5.226
55821W        W28169  10.677  37.386  11.453
55822W        W28170  21.616  21.731   3.295
55823W        W28171  28.648  44.414  11.585
55824W        W28172  44.303  31.560  11.402
55825W        W28173  36.983  43.325   1.372
55826W        W28174   6.245   1.459   2.711
55827W        W28175  36.352  42.432   0.254
55828W        W28176  21.213   4.898   3.256
55829W        W28177  25.518  25.476   3.736
55830W        W28178  34.088  15.705   3.704
55831W        W28179  33.933  10.721   4.620
55832W        W28180  39.867  10.328   2.735
55833W        W28181   0.858  37.408   4.826
55834W        W28182   2.288  43.864   1.859
55835W        W28183  36.907  22.721  10.995
55836W        W28184  11.731  10.228   2.841
55837W        W28185   3.751   6.732   0.266
55838W        W28186  11.865  31.593   4.155
55839W        W28187  10.258   6.803   2.848
55840W        W28188  37.543  29.989  13.411
55841W        W28189  24.000   4.766  14.302
55842W        W28190  35.459  41.988   1.405
55843W        W28191   1.764   8.675  12.572
55844W        W28192   3.277  15.811   3.253
55845W        W28193  13.600  34.898   4.748
55846W        W28194  24.098  34.900  11.401
55847W        W28195  21.603  38.359   0.863
55848W        W28196  36.551  34.069  11.892
55849W        W28197   7.215  39.877  10.434
55850W        W28198  26.620  31.069   0.735
55851W        W28199  36.456  18.079  14.342
55852W        W28200   1.287   5.858   0.353
55853W        W28201  13.668  25.985  10.624
55854W        W28202  23.993  41.966  14.306
55855W        W28203  12.166  25.632   0.380
55856W        W28204  22.622  21.173  14.866
55857W        W28205  27.062  10.182  14.298
55858W        W28206  30.537   7.699   2.805
55859W        W28207  14.640  30.970  11.371
55860W        W28208  12.720  20.613  10.447
55861W        W28209  12.616  28.590  12.923
55862W        W28210  32.045  12.139  10.551
55863W        W28211  18.673  23.557  11.067
55864W        W28212  10.337   3.402   0.292
55865W        W28213  40.978  35.082  11.911
55866W        W28214  11.695  10.230  14.483
55867W        W28215  40.537  18.101   3.243
55868W        W28216  25.990   8.182   3.736
55869W        W28217   7.730  24.636   2.759
55870W        W28218  25.653   2.431  14.780
55871W        W28219  20.655  23.083  12.923
55872W        W28220  30.088  22.203  11.111
55873W        W28221   8.170   7.210  13.005
55874W        W28222  24.163   7.332  11.087
55875W        W28223  11.846  20.221  10.410
55876W        W28224   4.878  19.552  12.902
55877W        W28225   6.819  21.226   1.924
55878W        W28226   0.421  18.076  12.091
55879W        W28227  21.200  18.706   3.740
55880W        W28228  43.993  17.681  13.353
55881W        W28229   4.833   0.314  11.873
55882W        W28230  32.549  21.642  14.027
55883W        W28231  18.602   9.170  12.028
55884W        W28232  37.014   5.884   0.481
55885W        W28233  39.013  15.586   0.798
55886W        W28234  43.886  13.291   2.778
55887W        W28235  10.644  24.608   0.343
55888W        W28236   1.746  31.960  14.795
55889W        W28237  21.192  31.957   2.857
55890W        W28238  30.506  12.679   4.809
55891W        W28239  32.000  25.689  11.986
55892W        W28240  15.226  11.855   3.234
55893W        W28241   7.743  11.198  11.057
55894W        W28242  38.561  35.399   0.817
55895W        W28243   0.367  24.713  12.900
55896W        W28244  34.545  35.020  13.354
55897W        W28245  29.511  44.494  12.892
55898W        W28246   3.323  43.357   4.738
55899W        W28247  34.970   8.719   0.941
55900W        W28248  23.647  16.686  12.464
55901W        W28249  31.532   2.857   4.705
55902W        W28250  44.432  11.255   0.785
55903W        W28251  27.585  25.693   3.246
55904W        W28252   5.337  43.401   0.921
55905W        W28253  30.516  23.661   4.207
55906W        W28254  43.986   1.766   4.206
55907W        W28255  29.566  39.042  12.397
55908W        W28256   4.758  18.775   4.651
55909W        W28257  17.719  35.013  14.321
55910W        W28258  41.492  20.602   0.916
55911W        W28259  23.086   2.381   4.826
55912W        W28260  23.986   5.839  12.058
55913W        W28261  31.430  19.263   1.432
55914W        W28262  43.927   1.764  12.559
55915W        W28263  41.960  28.522   2.768
55916W        W28264  42.797  38.989   0.439
55917W        W28265  37.987  18.782   2.868
55918W        W28266   6.720  14.137  14.921
55919W        W28267  37.412  36.550  11.891
55920W        W28268  28.538  43.799   1.252
55921W        W28269  10.300   0.387  14.474
55922W        W28270  28.116  34.572  13.403
55923W        W28271  23.191  23.193   3.769
55924W        W28272  21.230  13.614   2.322
55925W        W28273   1.773  17.209   3.251
55926W        W28274  36.381  37.077   3.670
55927W        W28275  12.815  21.241   2.307
55928W        W28276  34.060   4.857  12.580
55929W        W28277  25.989  24.722  10.593
55930W        W28278  31.594   2.295  12.488
55931W        W28279  36.532  30.521  11.105
55932W        W28280   8.240   9.166  12.349
55933W        W28281   0.977  28.955   3.300
55934W        W28282  31.634  40.543  11.867
55935W        W28283  15.744  36.407   2.221
55936W        W28284  43.329  34.437  11.022
55937W        W28285   0.881  33.892   0.394
55938W        W28286  18.246  16.631  14.790
55939W        W28287  38.550  34.592   3.272
55940W        W28288  32.949   5.398   1.928
55941W        W28289   2.878  28.478  10.644
55942W        W28290  17.183  18.129  13.844
55943W        W28291  22.665   6.875  10.948
55944W        W28292  27.155  10.848   2.300
55945W        W28293  16.676  29.564  14.946
55946W        W28294  35.019  43.494  14.989
55947W        W28295  12.359  11.178   1.324
55948W        W28296   1.750  26.463  10.015
55949W        W28297  38.340   6.826  12.543
55950W        W28298  37.003   6.305   1.780
55951W        W28299   7.217  27.658  12.387
55952W        W28300   8.255  39.964  10.939
55953W        W28301  33.597  27.472   4.816
55954W        W28302  14.335  11.663  13.527
55955W        W28303  17.267  31.948   5.315
55956W        W28304  17.608  38.964   4.217
55957W        W28305  39.059   1.872   3.716
55958W        W28306  13.825  24.095   3.731
55959W        W28307   9.854   0.889  14.816
55960W        W28308  24.516  20.067  11.574
55961W        W28309  26.671   3.931  14.480
55962W        W28310  28.631  10.684  14.477
55963W        W28311  42.378   2.753  13.307
55964W        W28312  12.208   6.254   5.201
55965W        W28313  11.636   3.319   2.324
55966W        W28314  19.227  22.737   3.267
55967W        W28315  26.685  25.469   4.126
55968W        W28316   7.677  13.616   4.121
55969W        W28317  28.122  12.234  12.064
55970W        W28318  29.457  24.101  13.464
55971W        W28319  18.184  16.665  11.043
55972W        W28320  29.458  11.738   0.369
55973W        W28321  14.673  30.529   2.888
55974W        W28322  10.677  39.877  10.622
55975W        W28323   9.686  22.017   0.403
55976W        W28324   2.956  37.578   0.947
55977W        W28325  12.736  27.512  13.418
55978W        W28326   0.801  17.700   3.706
55979W        W28327  32.453  31.130  14.858
55980W        W28328   6.277  21.616  10.604
55981W        W28329  36.954   2.757   3.794
55982W        W28330  40.827  37.492   2.367
55983W        W28331  26.470  20.207  14.905
55984W        W28332   5.192  25.028   0.361
55985W        W28333   3.938  22.550  13.036
55986W        W28334  17.285  13.157  14.502
55987W        W28335  14.685   1.372  12.426
55988W        W28336  26.679  34.514   0.792
55989W        W28337  25.677  29.017   5.316
55990W        W28338  36.086   9.354  13.420
55991W        W28339  37.455  36.511  13.361
55992W        W28340   0.761  11.257  11.900
55993W        W28341  26.631  21.693  10.486
55994W        W28342  34.422  12.226   1.425
55995W        W28343  18.079  38.899   2.689
55996W        W28344  22.100  35.950   3.258
55997W        W28345  25.582  17.693  11.473
55998W        W28346  19.588  28.629   0.919
55999W        W28347  39.892   9.720  14.021
56000W        W28348  10.797  17.162   1.925
56001W        W28349   9.745   6.802  14.509
56002W        W28350  40.885  20.262  12.376
56003W        W28351   6.232  25.528   0.420
56004W        W28352   6.397   4.721   3.641
56005W        W28353  18.081  19.601  12.550
56006W        W28354   3.866  21.059  13.985
56007W        W28355  11.258  23.533  14.878
56008W        W28356  22.630  31.908   3.260
56009W        W28357  28.976  21.562   4.134
56010W        W28358  18.283  24.229   4.129
56011W        W28359  28.586  38.359   1.804
56012W        W28360  26.466  31.916   4.240
56013W        W28361   8.376  10.213   4.824
56014W        W28362  28.454  15.161   1.216
56015W        W28363  43.882  28.664  11.096
56016W        W28364   1.470  38.558  10.420
56017W        W28365  31.432  14.217  13.042
56018W        W28366   6.323  41.531  13.867
56019W        W28367   1.866  26.565   1.341
56020W        W28368  43.303  43.938  11.995
56021W        W28369  39.337  19.245  12.529
56022W        W28370   1.731  13.809  11.056
56023W        W28371  26.606  41.401  13.799
56024W        W28372   3.721  25.968   1.304
56025W        W28373   6.852  15.294  13.799
56026W        W28374   4.906  32.993   9.927
56027W        W28375   0.762  40.393  13.974
56028W        W28376  18.224  32.891   3.829
56029W        W28377  41.995  10.368   1.222
56030W        W28378  34.997  29.423   2.787
56031W        W28379   5.340  33.014  11.379
56032W        W28380   5.196  40.054  12.528
56033W        W28381  26.599  15.715  10.644
56034W        W28382  14.597  33.029   0.898
56035W        W28383   3.224   0.368   1.735
56036W        W28384  39.904   1.909  11.924
56037W        W28385  35.423  30.987   4.341
56038W        W28386  34.410  24.176  10.594
56039W        W28387  25.057  15.256   3.216
56040W        W28388  10.346  16.244   4.738
56041W        W28389  25.015  12.284  11.054
56042W        W28390  39.436   5.917  10.408
56043W        W28391   1.731  31.962  14.293
56044W        W28392  21.637  16.754  14.863
56045W        W28393  33.909  31.433  14.781
56046W        W28394  10.265  26.993   0.276
56047W        W28395   7.823  10.335   3.744
56048W        W28396  14.712  30.597  12.998
56049W        W28397  40.457  10.205   1.784
56050W        W28398  28.112  36.927  10.980
56051W        W28399  44.787  26.653   4.710
56052W        W28400  20.705  26.697  11.381
56053W        W28401  28.068   1.335  12.477
56054W        W28402  27.138  34.465  14.763
56055W        W28403   4.241   0.277  11.475
56056W        W28404  21.245  31.537   4.675
56057W        W28405  36.086   3.388   0.839
56058W        W28406  13.803  35.954  13.399
56059W        W28407  15.753   8.805  14.947
56060W        W28408   6.204   2.906  10.643
56061W        W28409  15.216   0.287   4.722
56062W        W28410  32.461  40.333   1.934
56063W        W28411  33.088  26.972  14.456
56064W        W28412  16.569   6.239   2.369
56065W        W28413  16.274   6.702  11.944
56066W        W28414  21.087  14.210   2.722
56067W        W28415  39.008  44.478   0.452
56068W        W28416  34.496  20.626   2.751
56069W        W28417  20.749  21.081  11.452
56070W        W28418  42.481  21.119  14.400
56071W        W28419  42.391  42.006  11.919
56072W        W28420  32.966   0.344   4.125
56073W        W28421  29.091   7.746  11.419
56074W        W28422  38.510   7.341  13.013
56075W        W28423  33.406  16.197  10.931
56076W        W28424  33.607  14.634   0.914
56077W        W28425  34.884  29.926   3.206
56078W        W28426  40.425  39.877   5.173
56079W        W28427  25.000  23.567   1.239
56080W        W28428  32.631   0.310   4.740
56081W        W28429  26.134  32.452  13.852
56082W        W28430  22.710  33.577  10.987
56083W        W28431  22.998  20.029  11.451
56084W        W28432   8.740  34.012  13.389
56085W        W28433  31.942   8.799   3.768
56086W        W28434  30.439   1.324   3.706
56087W        W28435  17.593   3.286   4.814
56088W        W28436   5.395   0.877  14.275
56089W        W28437  25.538  18.273  11.410
56090W        W28438  24.225   2.246   1.364
56091W        W28439   1.480  41.847  11.371
56092W        W28440  41.038  26.664   4.171
56093W        W28441  17.770  43.983   0.242
56094W        W28442  16.264   1.862  11.610
56095W        W28443   1.896   6.848   3.854
56096W        W28444  18.735  23.582  14.938
56097W        W28445  23.048  34.026  14.289
56098W        W28446  41.906   2.293  13.002
56099W        W28447  41.003  35.482   4.131
56100W        W28448  24.986   6.291   0.761
56101W        W28449   7.821  21.050  11.508
56102W        W28450  32.466  34.610   9.965
56103W        W28451  43.912  28.465   4.816
56104W        W28452  12.680  29.937  14.009
56105W        W28453  38.908  11.334   1.920
56106W        W28454  40.871  32.133   1.794
56107W        W28455  38.475   1.968   4.286
56108W        W28456  37.926   2.864  11.404
56109W        W28457  17.208   2.952  11.937
56110W        W28458   4.801   1.854   5.263
56111W        W28459  38.967   8.742  13.485
56112W        W28460  36.992  40.423   4.689
56113W        W28461   8.740  17.169   3.781
56114W        W28462  42.308   1.977   1.868
56115W        W28463  42.809   4.788  10.628
56116W        W28464  32.409  13.150  14.973
56117W        W28465   2.813   7.291  11.127
56118W        W28466  35.991  23.201  11.073
56119W        W28467   4.836  40.973   4.206
56120W        W28468   6.891  33.457  12.903
56121W        W28469  23.234  34.100   3.697
56122W        W28470  13.696  23.628  14.289
56123W        W28471  24.172  14.239  10.891
56124W        W28472  24.092  43.428   1.705
56125W        W28473  10.242  29.490  11.493
56126W        W28474  31.910  26.003   0.732
56127W        W28475  33.934  12.262  14.409
56128W        W28476  23.238   3.255  14.484
56129W        W28477  11.303  13.782   0.310
56130W        W28478  16.732  39.065  10.519
56131W        W28479  17.774  31.515   0.262
56132W        W28480  10.279  22.155  14.928
56133W        W28481  35.499  18.679  12.455
56134W        W28482  36.989  30.158  10.952
56135W        W28483  19.085  33.475  12.996
56136W        W28484  28.463  11.849   2.378
56137W        W28485  15.325   1.757   1.834
56138W        W28486  35.505  23.614   3.658
56139W        W28487  25.522  29.564   2.187
56140W        W28488  40.046  38.440  13.057
56141W        W28489  21.136  31.963   3.846
56142W        W28490  15.196   4.389  11.386
56143W        W28491  17.650  39.427   4.178
56144W        W28492  37.947  27.621  12.826
56145W        W28493  36.895  24.987   2.898
56146W        W28494   5.252   5.213   4.352
56147W        W28495  23.663   8.687  13.376
56148W        W28496   9.236   1.766   0.789
56149W        W28497  13.256   1.748   1.913
56150W        W28498   0.325  29.173   2.311
56151W        W28499  28.031  27.680  14.349
56152W        W28500   2.837   1.760  14.496
56153W        W28501  27.180  44.313   9.992
56154W        W28502  43.442  42.006  13.314
56155W        W28503  26.179  33.967  10.630
56156W        W28504  31.941  21.263   0.913
56157W        W28505  30.514   5.746   5.633
56158W        W28506  26.022  28.097  13.841
56159W        W28507   2.966   5.779  12.411
56160W        W28508  36.060  38.022  11.445
56161W        W28509  22.738  38.824  12.836
56162W        W28510  34.953  16.315   1.829
56163W        W28511  14.282  41.433  14.351
56164W        W28512   1.763  26.969   0.921
56165W        W28513   8.223  18.630  13.419
56166W        W28514  43.328  15.617  13.358
56167W        W28515  25.666  22.178  12.416
56168W        W28516  26.957  17.754  11.539
56169W        W28517  43.311   1.404  12.565
56170W        W28518   7.372   6.405  10.514
56171W        W28519  21.095   4.262   4.248
56172W        W28520  41.958  36.540   3.765
56173W        W28521  30.955   5.774   0.795
56174W        W28522   2.932  14.604   0.434
56175W        W28523  10.232  16.727   0.385
56176W        W28524  34.097   0.408  11.939
56177W        W28525  25.065  41.482  12.067
56178W        W28526  32.490  12.755   1.719
56179W        W28527  28.650   9.645  13.390
56180W        W28528  31.142  35.008   5.108
56181W        W28529  25.047  13.169  12.527
56182W        W28530  31.010  12.181  10.946
56183W        W28531  39.819  40.514   3.759
56184W        W28532  12.181  19.586  14.372
56185W        W28533  41.786  11.278   1.827
56186W        W28534  23.103  27.005  13.349
56187W        W28535  26.591  40.857  14.925
56188W        W28536  11.634  35.595   1.902
56189W        W28537  33.577   6.277  13.029
56190W        W28538  20.206  12.237  11.108
56191W        W28539   7.710  10.142  13.311
56192W        W28540   6.314   1.344   0.766
56193W        W28541  37.021  34.405  10.986
56194W        W28542  20.169   9.320   2.691
56195W        W28543  15.744  33.075  10.429
56196W        W28544   9.223  25.179  11.055
56197W        W28545  13.330  18.643   1.399
56198W        W28546   9.812  15.179   4.671
56199W        W28547  10.813   2.360   0.439
56200W        W28548  15.806  28.973  12.056
56201W        W28549   6.271  33.947   0.316
56202W        W28550  17.788   9.663   1.919
56203W        W28551  13.819  24.598   2.854
56204W        W28552   0.411  23.167  12.407
56205W        W28553   5.333   7.195   0.449
56206W        W28554  32.474   1.784  10.583
56207W        W28555  28.942  16.677   1.701
56208W        W28556  18.126   7.325   2.707
56209W        W28557  11.632   6.726   3.275
56210W        W28558   0.884  15.784   3.816
56211W        W28559  39.345  41.817   0.332
56212W        W28560  27.150   2.346  11.425
56213W        W28561  20.130  29.516   9.674
56214W        W28562  36.462   7.823  12.455
56215W        W28563   4.812   6.790   1.369
56216W        W28564   9.662  44.349   4.755
56217W        W28565  12.643  39.497  13.998
56218W        W28566  36.489  14.298   5.192
56219W        W28567   7.722  28.006   3.226
56220W        W28568  26.558  10.334  10.607
56221W        W28569   5.194  19.148  11.921
56222W        W28570  13.800  17.610  14.028
56223W        W28571  27.681  14.295   1.306
56224W        W28572   3.927  24.525   1.872
56225W        W28573  36.446  26.651   1.314
56226W        W28574   1.435  37.437  13.454
56227W        W28575  24.558  29.454  11.921
56228W        W28576   1.833  19.165   3.676
56229W        W28577   3.741  16.622   4.284
56230W        W28578   2.795  17.618   0.902
56231W        W28579  29.090  42.803  13.356
56232W        W28580  22.737  25.647   1.762
56233W        W28581  21.581  28.639  12.566
56234W        W28582   8.822  23.203  10.619
56235W        W28583   5.270  39.380   0.478
56236W        W28584  32.469  37.528  12.508
56237W        W28585  24.983  11.628  12.346
56238W        W28586   0.437  22.181   0.954
56239W        W28587  23.159  21.716   0.359
56240W        W28588  25.146  21.694  11.012
56241W        W28589  30.908  43.835   2.261
56242W        W28590  13.159  43.993  13.797
56243W        W28591  25.089  32.948  13.060
56244W        W28592   8.373  20.053   2.268
56245W        W28593  24.212   6.921   3.325
56246W        W28594  34.983  41.828   1.857
56247W        W28595   5.748  22.542   1.747
56248W        W28596  22.102   3.850   3.657
56249W        W28597  37.486   2.961  13.352
56250W        W28598  12.832  25.186  13.419
56251W        W28599   4.361  14.236  14.953
56252W        W28600  21.590   8.213  12.473
56253W        W28601  22.069  41.938  12.369
56254W        W28602  39.849  14.799   0.877
56255W        W28603  41.941   7.194   2.289
56256W        W28604   2.372  22.070  10.635
56257W        W28605  40.857   6.762  12.896
56258W        W28606  27.195   8.162   3.167
56259W        W28607   6.305  37.401   9.951
56260W        W28608  38.983  32.526  10.561
56261W        W28609  35.938   4.261  12.878
56262W        W28610  43.345  26.191   4.636
56263W        W28611   1.468  35.904  14.381
56264W        W28612  22.627  14.233  14.395
56265W        W28613  38.324  44.342  10.479
56266W        W28614  42.428   1.416  12.402
56267W        W28615  10.645   6.237  13.384
56268W        W28616  29.125  21.138  13.477
56269W        W28617  20.610  39.895   4.682
56270W        W28618  35.991  11.830   1.726
56271W        W28619  19.240  32.494  10.137
56272W        W28620  34.041  21.683  12.357
56273W        W28621  17.799  44.791  10.488
56274W        W28622  24.227  12.191  14.981
56275W        W28623   6.319  38.014  13.826
56276W        W28624   4.347  41.912   0.286
56277W        W28625   5.254  13.324  13.323
56278W        W28626  38.074   8.379   4.329
56279W        W28627  29.015   1.842  12.531
56280W        W28628  35.036   1.762   4.300
56281W        W28629  18.079   3.899  10.596
56282W        W28630  31.945  26.630   3.820
56283W        W28631  10.337  38.491  11.859
56284W        W28632  35.889  17.143  13.360
56285W        W28633  29.024  38.062  10.987
56286W        W28634  29.039  13.791  14.871
56287W        W28635  15.154  29.570  14.820
56288W        W28636  16.700  33.876  12.032
56289W        W28637   9.341   2.322   1.694
56290W        W28638  34.434  22.006  13.377
56291W        W28639  27.072  10.729  10.526
56292W        W28640  36.089   8.270  13.017
56293W        W28641   6.204  13.711   3.783
56294W        W28642   1.263  17.578  14.826
56295W        W28643   9.391  42.520   0.962
56296W        W28644  16.122  12.205  12.536
56297W        W28645  15.648  28.646   3.796
56298W        W28646  18.622  39.023  14.760
56299W        W28647  18.628  12.792   4.303
56300W        W28648  41.468  41.381  14.992
56301W        W28649   3.939  18.661   1.930
56302W        W28650  17.665  40.026  14.502
56303W        W28651  31.493  41.327  10.462
56304W        W28652   9.670  16.224  10.472
56305W        W28653  38.359  34.544   3.795
56306W        W28654  34.909  12.281  10.548
56307W        W28655  36.892  36.921  12.445
56308W        W28656   8.778  28.052  10.474
56309W        W28657  10.321   7.371   2.779
56310W        W28658   3.794  40.905  14.397
56311W        W28659  24.622  42.349  14.509
56312W        W28660  31.444  21.627   0.754
56313W        W28661  38.404  12.160  12.840
56314W        W28662  29.491  35.931  13.000
56315W        W28663  44.784  28.177   4.331
56316W        W28664  19.280   6.418  11.397
56317W        W28665  14.212  42.891   1.808
56318W        W28666  35.006  28.051   3.168
56319W        W28667   9.320  25.006  12.853
56320W        W28668   0.299   5.250  11.058
56321W        W28669  32.544  34.867   1.761
56322W        W28670   7.398  28.097  13.837
56323W        W28671  25.571  18.167  12.390
56324W        W28672   2.310  43.806   0.948
56325W        W28673   3.789  41.020  12.546
56326W        W28674  29.174  36.902   2.760
56327W        W28675  16.704  24.096  13.940
56328W        W28676  23.079  36.085  11.038
56329W        W28677   8.685  34.578  10.469
56330W        W28678  12.632  10.816  10.913
56331W        W28679  18.210  15.293  11.592
56332W        W28680   0.270   2.345   2.806
56333W        W28681  30.101  19.557   1.217
56334W        W28682   9.853   5.236  10.634
56335W        W28683  27.168  40.446   3.197
56336W        W28684  30.972   8.261  13.501
56337W        W28685   3.797  13.706  14.372
56338W        W28686  14.207  33.124   2.801
56339W        W28687   4.285   4.807  10.467
56340W        W28688  18.060  35.440   0.845
56341W        W28689  29.079  16.647   0.922
56342W        W28690  32.412  21.687   3.182
56343W        W28691  35.383  23.691  12.470
56344W        W28692  27.543   8.217   2.256
56345W        W28693  38.976  42.957   2.225
56346W        W28694   1.362  15.602  14.287
56347W        W28695  24.136   8.812  13.539
56348W        W28696  33.576   8.214  10.488
56349W        W28697  17.590   2.363   2.217
56350W        W28698  39.495   3.315  14.950
56351W        W28699  33.571  23.181   4.793
56352W        W28700   1.470   7.869  10.903
56353W        W28701  25.185  10.309   5.281
56354W        W28702  32.588   8.199   1.322
56355W        W28703  10.796  34.978  14.957
56356W        W28704   8.180   5.711  12.826
56357W        W28705  28.057  25.210   0.820
56358W        W28706  20.580  30.067  10.017
56359W        W28707   8.772   1.909   4.830
56360W        W28708   4.938   0.871   5.226
56361W        W28709  14.221  35.023   1.260
56362W        W28710   9.728  29.081  10.467
56363W        W28711  43.373  36.425   2.668
56364W        W28712  36.593  35.440   0.295
56365W        W28713  13.755   5.857  12.443
56366W        W28714  37.045  18.183   1.701
56367W        W28715  41.453  10.789   1.925
56368W        W28716   5.784   9.218   3.680
56369W        W28717  36.852  42.402  12.429
56370W        W28718  39.450  34.097   0.418
56371W        W28719  27.021   4.837   2.371
56372W        W28720  31.448   3.398   4.782
56373W        W28721  23.690  24.507  11.070
56374W        W28722  33.016   1.418  10.508
56375W        W28723   8.314   7.186   1.864
56376W        W28724  31.581  20.696  14.841
56377W        W28725  16.783  25.144  14.822
56378W        W28726  12.620   6.880   4.331
56379W        W28727   3.809   1.877  13.000
56380W        W28728  16.720  17.196   2.219
56381W        W28729  38.348  14.297  14.961
56382W        W28730   5.761   1.294   3.203
56383W        W28731   0.354  28.515   4.195
56384W        W28732   6.326  44.830   2.352
56385W        W28733  38.049  26.654  14.837
56386W        W28734  39.023  30.144   0.920
56387W        W28735  27.624  39.891  13.865
56388W        W28736  16.207   1.438   1.711
56389W        W28737   0.939  27.004   4.680
56390W        W28738  15.666  22.605   5.087
56391W        W28739   3.304  13.739   4.221
56392W        W28740   5.922  28.115   0.799
56393W        W28741  25.114   5.359   1.313
56394W        W28742  23.607  21.745   2.366
56395W        W28743  39.882   6.323  10.952
56396W        W28744  13.677  19.230  11.885
56397W        W28745  34.051  13.273   2.264
56398W        W28746   5.235  22.652  14.417
56399W        W28747   9.712  21.200  10.494
56400W        W28748   1.787  41.514  14.801
56401W        W28749  29.580  30.053   3.638
56402W        W28750  15.160  21.687  14.460
56403W        W28751  36.521   1.340  12.361
56404W        W28752  18.645  22.705  11.547
56405W        W28753  27.030   2.842   4.811
56406W        W28754   5.888   5.930   2.358
56407W        W28755  11.762  36.075   1.372
56408W        W28756  36.409  11.140  10.912
56409W        W28757   9.364   1.353  11.398
56410W        W28758  42.307  31.981  12.400
56411W        W28759  31.907  20.740   4.751
56412W        W28760  38.833   8.186  12.528
56413W        W28761   8.203  17.187   2.900
56414W        W28762  13.190  39.855   0.290
56415W        W28763  15.660  34.955  14.826
56416W        W28764  14.122  36.494   4.149
56417W        W28765   3.868   3.714   2.872
56418W        W28766  12.856  16.165   3.209
56419W        W28767   6.411  15.254  13.972
56420W        W28768  15.098  40.036   1.306
56421W        W28769  24.978  21.074  10.558
56422W        W28770  36.585  17.588   0.386
56423W        W28771  32.572   7.832   1.342
56424W        W28772  40.503   7.219  10.087
56425W        W28773   4.798   1.317  13.841
56426W        W28774  22.027  32.408  12.348
56427W        W28775  28.642  41.524   1.441
56428W        W28776  25.714  11.859  10.989
56429W        W28777  29.944  13.123   1.714
56430W        W28778  36.071  16.645  13.019
56431W        W28779  36.586  19.739   5.131
56432W        W28780  34.453  32.140  12.575
56433W        W28781  29.921   7.744   0.273
56434W        W28782  10.690  33.023   3.662
56435W        W28783  43.365  27.061  13.519
56436W        W28784  19.698  38.039  12.400
56437W        W28785   6.229  22.216   2.210
56438W        W28786   1.294  30.640   3.311
56439W        W28787  43.843  18.150  12.529
56440W        W28788   3.442   8.334  10.635
56441W        W28789  19.777  43.487   0.408
56442W        W28790  35.455  22.664  11.891
56443W        W28791  16.589  23.037   4.801
56444W        W28792  19.778  41.445  10.413
56445W        W28793   3.874  29.568  11.517
56446W        W28794  29.012  21.250  10.071
56447W        W28795  25.212   1.963   0.923
56448W        W28796  17.607  10.356  11.520
56449W        W28797  42.376   2.357  11.403
56450W        W28798   6.342  10.294   2.197
56451W        W28799   4.815  35.502  13.532
56452W        W28800  21.689   6.341   3.644
56453W        W28801  18.765  21.615  10.534
56454W        W28802  23.071  33.406  12.943
56455W        W28803  12.123  31.087   1.418
56456W        W28804  24.519  11.128   3.805
56457W        W28805  30.493  16.573  12.927
56458W        W28806   1.765  42.466   0.934
56459W        W28807  30.936  14.161   4.703
56460W        W28808  38.839  17.765   0.445
56461W        W28809  40.355   4.423  12.842
56462W        W28810  19.236  20.086   2.729
56463W        W28811  16.767  18.656   0.807
56464W        W28812  11.181  29.991  12.484
56465W        W28813  39.452  34.980   3.162
56466W        W28814  38.019  29.022  13.930
56467W        W28815  23.494  13.147   2.283
56468W        W28816   1.261  11.357   1.820
56469W        W28817  26.977  17.685  14.864
56470W        W28818  29.613  39.413  11.379
56471W        W28819  43.351  10.216   1.763
56472W        W28820  38.491  31.098  12.035
56473W        W28821  27.458  27.188  11.560
56474W        W28822  29.077   1.754   3.288
56475W        W28823  25.626   6.348  11.921
56476W        W28824  37.960  36.010  13.325
56477W        W28825  41.506  39.481  12.038
56478W        W28826  28.020   1.912   5.190
56479W        W28827  15.593   6.787  13.005
56480W        W28828  33.876  15.160   4.131
56481W        W28829  25.016   5.425   2.876
56482W        W28830  43.828  27.466   4.186
56483W        W28831  32.494  32.425  10.476
56484W        W28832  25.518  39.953   2.304
56485W        W28833   2.394  37.044  14.951
56486W        W28834  37.874  30.018  14.911
56487W        W28835  34.081   9.249  10.993
56488W        W28836  12.715  27.577   2.183
56489W        W28837  14.216  37.421   3.293
56490W        W28838  22.152   3.775  13.798
56491W        W28839  11.681   5.359   3.734
56492W        W28840  24.201  34.519  11.579
56493W        W28841  13.146   5.900  11.873
56494W        W28842  11.623  18.104   5.123
56495W        W28843  34.582  20.055   3.290
56496W        W28844  27.068  28.140   3.300
56497W        W28845   6.278  13.738   4.242
56498W        W28846  37.473  27.046  11.048
56499W        W28847  11.697  26.982  14.816
56500W        W28848  14.750  23.517  10.898
56501W        W28849  43.356  31.068  13.408
56502W        W28850  41.500  36.019   3.634
56503W        W28851   9.202  11.754   3.205
56504W        W28852  28.052  26.685   4.163
56505W        W28853  34.453  22.528   2.872
56506W        W28854  20.229  21.684   1.705
56507W        W28855  26.669  15.654  12.044
56508W        W28856  36.486  13.251  11.553
56509W        W28857  37.450  20.567   2.666
56510W        W28858  16.806  41.860  12.530
56511W        W28859  28.668  38.861   0.727
56512W        W28860  45.000   2.897  11.885
56513W        W28861  14.183  44.453  11.039
56514W        W28862   4.799  10.869   1.824
56515W        W28863   4.884  35.044  13.359
56516W        W28864   8.890   4.759   1.713
56517W        W28865  11.306  40.011  12.531
56518W        W28866   1.738  22.124   3.216
56519W        W28867  37.457   4.836   0.289
56520W        W28868  20.271  11.760  13.442
56521W        W28869  32.402   5.241   0.339
56522W        W28870  23.713  32.097   2.214
56523W        W28871  30.484  18.145  14.292
56524W        W28872  30.440  32.481  10.539
56525W        W28873  13.119   2.767   4.690
56526W        W28874  40.512  15.123  11.933
56527W        W28875   3.260   8.777  12.576
56528W        W28876  14.217  25.548  14.348
56529W        W28877  42.919  14.784  13.835
56530W        W28878   6.315  24.994  10.912
56531W        W28879   1.394  17.788   4.114
56532W        W28880  18.593  36.420  13.537
56533W        W28881  29.927  27.564   3.215
56534W        W28882  43.850  40.379  11.543
56535W        W28883  29.110  37.857  14.281
56536W        W28884  32.525  35.414   1.343
56537W        W28885  41.840  11.350   4.717
56538W        W28886  30.641  13.282   1.418
56539W        W28887  25.201   4.871   3.182
56540W        W28888  32.572  19.668  12.877
56541W        W28889  21.605   4.802  11.040
56542W        W28890  42.332  31.603  11.405
56543W        W28891  44.422   0.849   5.177
56544W        W28892  22.536  33.393  11.467
56545W        W28893  16.188   8.855   0.309
56546W        W28894  40.481  43.823   0.249
56547W        W28895  31.000  34.889  13.882
56548W        W28896   4.903  31.428  12.974
56549W        W28897   8.310  14.323  12.829
56550W        W28898  30.962  20.187   1.821
56551W        W28899  42.289  18.129   2.712
56552W        W28900  41.489   4.884  14.307
56553W        W28901   3.391  41.470   3.821
56554W        W28902  33.070  42.369  14.358
56555W        W28903  34.938   4.380   2.665
56556W        W28904  18.667  37.557  14.933
56557W        W28905  41.021  43.471  11.380
56558W        W28906  31.511  15.247   3.631
56559W        W28907  10.794  30.157   4.691
56560W        W28908   4.408   5.426  12.488
56561W        W28909  44.843  36.563  12.017
56562W        W28910  40.935  27.585   1.720
56563W        W28911   7.797  32.474  12.497
56564W        W28912   0.358   8.404  13.846
56565W        W28913  21.213  27.560  10.918
56566W        W28914   6.918   7.785  13.893
56567W        W28915  34.517  16.087  13.514
56568W        W28916  38.423  26.668   3.325
56569W        W28917  21.541  34.943   2.669
56570W        W28918  21.718  27.020  10.444
56571W        W28919  43.479   7.308  11.428
56572W        W28920   3.726   1.920  10.553
56573W        W28921   4.922  24.522  13.908
56574W        W28922  40.487  29.165   3.300
56575W        W28923  32.606   8.261  13.817
56576W        W28924   5.921   3.729   0.751
56577W        W28925   5.764   9.348   4.169
56578W        W28926   0.429  22.622   0.858
56579W        W28927  39.475   1.768  10.573
56580W        W28928  22.091  14.300   3.717
56581W        W28929  30.610  42.281  14.897
56582W        W28930  28.437  35.568   3.817
56583W        W28931   2.374  15.768  13.407
56584W        W28932  27.945   1.911  14.992
56585W        W28933  19.685  18.567   0.787
56586W        W28934  19.158  10.714   3.703
56587W        W28935  27.026  26.552   3.321
56588W        W28936  27.051  19.696  13.325
56589W        W28937  30.917  29.119  10.491
56590W        W28938   5.911   1.277   3.642
56591W        W28939  11.146  22.707  12.978
56592W        W28940  38.341  26.586   1.700
56593W        W28941   6.247   7.177   1.778
56594W        W28942  40.480  26.171  13.880
56595W        W28943  39.935   2.872  11.533
56596W        W28944  26.047   4.316  13.004
56597W        W28945  26.200  38.503   4.775
56598W        W28946   3.400  33.448  11.034
56599W        W28947  16.573  15.824  10.480
56600W        W28948  33.532  31.926  11.907
56601W        W28949  40.919  42.785  13.396
56602W        W28950  38.919   1.947   1.775
56603W        W28951  37.363  13.280   1.728
56604W        W28952  44.394   0.986   1.847
56605W        W28953   9.799  32.420  10.573
56606W        W28954  25.514  20.692   1.259
56607W        W28955  20.252  14.269   0.459
56608W        W28956  12.198  10.300  14.815
56609W        W28957  17.248  14.185  12.948
56610W        W28958  24.529  33.961  13.878
56611W        W28959   6.880  24.584   2.823
56612W        W28960  42.327  19.184  13.811
56613W        W28961  17.236  11.734   4.200
56614W        W28962  36.841  14.764  10.905
56615W        W28963  25.571  17.670  12.049
56616W        W28964  16.120  10.758  13.374
56617W        W28965   2.226  26.167   3.176
56618W        W28966   7.814   0.952   4.178
56619W        W28967  12.338   0.290  13.489
56620W        W28968   3.389  24.502   0.410
56621W        W28969  15.283  15.174   2.852
56622W        W28970  12.804  18.646   4.740
56623W        W28971  26.064   9.349  13.543
56624W        W28972   3.711  25.215   3.294
56625W        W28973  42.407  11.248   1.853
56626W        W28974  42.461  39.050   3.811
56627W        W28975   2.335   6.683   1.718
56628W        W28976   5.922  13.345   1.771
56629W        W28977  27.540  19.700  11.001
56630W        W28978  13.827  27.131   0.742
56631W        W28979  18.624  15.693  13.974
56632W        W28980  22.705  26.634   0.331
56633W        W28981  17.076  30.086   3.315
56634W        W28982   3.758   0.453  10.434
56635W        W28983  40.463   7.204   4.284
56636W        W28984  43.391  43.895  14.773
56637W        W28985  21.606  40.483  10.500
56638W        W28986  41.851  33.610   3.649
56639W        W28987  11.130   3.357  14.360
56640W        W28988  30.921  18.674  13.937
56641W        W28989  14.617  12.805   2.308
56642W        W28990  44.953   2.736  13.462
56643W        W28991  39.560  41.388  14.441
56644W        W28992  15.262  22.717   1.335
56645W        W28993  33.113  22.217   0.846
56646W        W28994  21.625  33.109   4.196
56647W        W28995  15.181  35.093   0.356
56648W        W28996  19.751  12.284  11.084
56649W        W28997  21.096  30.603   4.677
56650W        W28998  36.081   3.760  10.980
56651W        W28999  38.362  16.111   2.698
56652W        W29000   3.327  31.093  10.412
56653W        W29001  11.220  38.424   3.869
56654W        W29002  24.631  10.306   3.310
56655W        W29003  25.713  18.111   9.978
56656W        W29004   6.751  34.480   4.126
56657W        W29005   2.964  21.642   4.741
56658W        W29006  39.522   5.773   0.772
56659W        W29007  36.072  18.240   1.360
56660W        W29008  16.263   2.253  13.444
56661W        W29009  41.970  40.913  11.908
56662W        W29010  27.616  23.715   0.252
56663W        W29011   1.350  10.249  10.941
56664W        W29012  26.170  26.183  13.373
56665W        W29013  24.508   7.334  14.874
56666W        W29014   1.867  23.642  12.411
56667W        W29015   5.299  38.894   1.903
56668W        W29016  18.732  24.139   4.269
56669W        W29017  28.634  16.625   4.283
56670W        W29018  44.503  37.910  11.946
56671W        W29019  42.312  38.857   4.773
56672W        W29020  33.581  35.495   4.115
56673W        W29021  23.068   9.309  13.494
56674W        W29022   3.239   1.902  11.998
56675W        W29023  33.389  26.992   0.294
56676W        W29024  28.563  25.970  13.317
56677W        W29025   2.472  13.121  11.891
56678W        W29026  35.424  20.210  11.042
56679W        W29027  19.637  21.102  10.139
56680W        W29028  20.714  27.476  14.027
56681W        W29029  14.657  21.652  13.452
56682W        W29030  27.680  13.198  12.909
56683W        W29031  22.019  34.567   0.728
56684W        W29032  29.434  38.873   1.346
56685W        W29033  19.585   7.759   4.210
56686W        W29034  32.111   3.456  14.311
56687W        W29035  24.082  38.901   1.230
56688W        W29036  38.556  34.458  11.596
56689W        W29037  24.685   7.198   3.371
56690W        W29038   6.227  33.511   1.371
56691W        W29039  15.187  16.663  12.000
56692W        W29040  18.704  12.708   3.752
56693W        W29041  15.313  13.221  11.075
56694W        W29042  11.856  43.403   4.701
56695W        W29043  27.507   6.729  14.010
56696W        W29044  11.656  23.067   2.408
56697W        W29045  22.056  16.800   0.436
56698W        W29046  26.080  43.006  11.048
56699W        W29047  33.465  20.180  13.361
56700W        W29048  41.836  25.682   1.794
56701W        W29049   7.873  11.797   3.328
56702W        W29050  29.567  25.968   0.830
56703W        W29051   0.960  17.299  14.829
56704W        W29052  31.025  33.537   0.387
56705W        W29053   0.964  12.698  10.430
56706W        W29054   5.934  21.633  11.873
56707W        W29055  16.257   4.910   2.214
56708W        W29056  21.526   0.988  14.870
56709W        W29057  14.298  36.366   0.732
56710W        W29058  13.283  25.600  13.934
56711W        W29059  10.215   4.427   2.301
56712W        W29060  29.479   0.828   4.182
56713W        W29061  14.097  18.781   1.237
56714W        W29062  30.078  31.916  13.413
56715W        W29063  33.994   4.238   0.745
56716W        W29064   0.933   6.869  11.403
56717W        W29065   3.411   6.737   0.345
56718W        W29066  40.362  14.652  14.768
56719W        W29067  14.211  41.889   4.183
56720W        W29068   5.253  38.399   1.358
56721W        W29069   3.437  16.601   3.278
56722W        W29070  26.058  21.060   1.427
56723W        W29071  13.241  34.941  11.538
56724W        W29072  15.611   3.257   4.320
56725W        W29073   7.378  33.545   4.738
56726W        W29074  17.792   9.770  12.995
56727W        W29075  16.582  26.584   4.315
56728W        W29076  18.111  35.877   1.763
56729W        W29077   5.718  41.032  10.954
56730W        W29078  39.379  20.253  12.825
56731W        W29079  22.079  13.342  12.023
56732W        W29080  29.117  11.266  11.383
56733W        W29081  11.765  33.014  11.033
56734W        W29082  13.289  26.514  12.022
56735W        W29083  41.019  11.317  13.389
56736W        W29084  19.680  42.374  14.390
56737W        W29085  29.951  29.982   0.284
56738W        W29086  14.298  25.034   1.447
56739W        W29087  37.498  25.018   4.187
56740W        W29088  16.293  22.648  12.863
56741W        W29089  38.459   4.911  14.899
56742W        W29090  38.563   7.342   1.917
56743W        W29091   4.783  29.021  11.982
56744W        W29092  36.997  18.575  13.963
56745W        W29093  38.555   2.787  13.935
56746W        W29094  19.071  34.018   3.161
56747W        W29095  43.431  34.568  11.523
56748W        W29096   0.480   8.291   0.831
56749W        W29097  30.641  31.552  10.471
56750W        W29098  32.478  41.791   0.788
56751W        W29099   5.797  39.815  14.931
56752W        W29100  15.218  39.897   4.752
56753W        W29101   6.196   7.175  12.950
56754W        W29102  19.264  15.086  10.892
56755W        W29103  11.811  41.397   2.799
56756W        W29104  17.147  41.409   2.234
56757W        W29105  18.232  30.929  13.052
56758W        W29106  38.045   9.158  12.051
56759W        W29107  29.964  37.055   0.389
56760W        W29108  22.633  43.933   3.320
56761W        W29109  21.573   2.859   2.817
56762W        W29110  30.076  16.812   4.280
56763W        W29111  42.986   9.199  13.982
56764W        W29112  42.820  44.956   3.780
56765W        W29113  23.105  38.980  14.318
56766W        W29114  39.884  13.689  14.477
56767W        W29115  15.232  32.415   4.807
56768W        W29116  39.049   0.972  13.974
56769W        W29117  42.021  14.629   4.209
56770W        W29118  33.095  17.193   0.426
56771W        W29119  39.449  16.159  10.969
56772W        W29120  20.101  35.101   3.811
56773W        W29121  37.526  39.510  12.086
56774W        W29122  15.798  15.289  14.441
56775W        W29123   8.901  24.090   0.918
56776W        W29124  18.095  28.069  12.463
56777W        W29125  22.688  21.686   0.329
56778W        W29126  26.051  32.966   0.955
56779W        W29127   3.912  29.075   2.405
56780W        W29128   1.930  14.742   0.809
56781W        W29129  25.490  14.143  14.482
56782W        W29130  23.235  29.957   1.433
56783W        W29131  18.154   4.341  13.415
56784W        W29132  24.187  44.836  11.889
56785W        W29133  25.023  32.092   0.787
56786W        W29134  40.386  36.555  11.968
56787W        W29135   1.755   0.818  11.024
56788W        W29136   8.203   7.248   2.409
56789W        W29137  23.723  15.726   3.289
56790W        W29138  21.130  25.583   0.365
56791W        W29139  43.825  16.277  10.622
56792W        W29140  10.746   5.202   4.744
56793W        W29141  35.522   6.307  10.556
56794W        W29142   4.718  40.973   1.717
56795W        W29143  17.623  21.032   0.380
56796W        W29144  35.366   3.709  12.013
56797W        W29145  30.510  32.999  11.560
56798W        W29146  22.088  17.674  10.626
56799W        W29147  10.634   4.271   1.697
56800W        W29148  27.955   2.953   2.251
56801W        W29149  37.498   3.250  13.367
56802W        W29150  20.729  29.110   4.278
56803W        W29151   4.259  15.205   0.438
56804W        W29152  27.613  44.359  12.928
56805W        W29153  36.922   6.713  10.950
56806W        W29154  25.106  35.378   0.957
56807W        W29155  41.405  39.871  12.060
56808W        W29156   7.748  41.811   1.925
56809W        W29157  14.620  20.220  10.408
56810W        W29158  42.443  39.960   1.773
56811W        W29159  17.143   6.689  14.842
56812W        W29160  40.448  31.530   0.346
56813W        W29161  34.046  10.705   0.807
56814W        W29162   9.883  18.091   0.463
56815W        W29163  15.128  20.036   1.732
56816W        W29164  14.656   5.885  12.895
56817W        W29165  13.600   5.717   2.251
56818W        W29166  38.488  21.635   1.269
56819W        W29167  20.687   3.709  14.021
56820W        W29168  39.319   3.907   4.668
56821W        W29169  23.624  43.510  12.888
56822W        W29170  30.415  24.149  10.996
56823W        W29171  34.921  17.185   1.352
56824W        W29172  35.871   7.399   3.356
56825W        W29173  21.680   9.823  10.969
56826W        W29174   2.783  27.559  13.993
56827W        W29175  44.859  42.909  13.912
56828W        W29176  21.533   8.698  12.932
56829W        W29177  37.528  34.070  13.847
56830W        W29178  36.984  35.543   3.320
56831W        W29179   8.366   6.693   4.663
56832W        W29180   6.817  25.977   3.155
56833W        W29181  24.488   2.950  10.503
56834W        W29182  30.503  18.132   4.766
56835W        W29183  38.970  18.587  11.946
56836W        W29184  39.041  42.027  11.867
56837W        W29185  17.130  32.138  11.592
56838W        W29186  23.066  37.977  13.325
56839W        W29187  39.970  16.709  11.954
56840W        W29188  38.386  29.057  12.928
56841W        W29189  12.256  43.301   4.191
56842W        W29190  20.170  40.038   4.787
56843W        W29191  17.612  39.375  11.595
56844W        W29192  36.406  17.071   4.144
56845W        W29193  29.461   6.720   3.204
56846W        W29194  32.460  19.051  12.531
56847W        W29195  15.329  37.975   4.658
56848W        W29196  23.082  38.861   2.736
56849W        W29197  38.022  10.702  13.859
56850W        W29198  37.580  30.945   2.858
56851W        W29199  11.794  28.003  12.538
56852W        W29200  16.711  44.972   1.765
56853W        W29201  40.798  11.289  11.987
56854W        W29202  21.098  41.417  14.927
56855W        W29203  17.110  13.264   4.314
56856W        W29204  20.185  18.272   3.153
56857W        W29205   0.775  39.004  14.887
56858W        W29206  39.934   5.220  13.434
56859W        W29207   3.906  37.498  14.762
56860W        W29208   0.452  12.763   0.483
56861W        W29209  43.313  36.088  13.380
56862W        W29210  31.024  44.883  13.918
56863W        W29211  18.555  29.083  11.983
56864W        W29212   0.929  37.384  14.016
56865W        W29213  22.560  22.129   1.442
56866W        W29214  37.852  31.143  11.459
56867W        W29215  24.627  16.721   1.758
56868W        W29216  26.698  16.263  13.871
56869W        W29217  42.797  41.303   9.953
56870W        W29218  33.976   0.280  13.422
56871W        W29219  30.993  11.841   0.739
56872W        W29220   7.794   7.199  11.943
56873W        W29221  16.617   3.457   3.863
56874W        W29222  19.559  21.743  10.508
56875W        W29223  25.110  22.680   3.778
56876W        W29224  17.154   2.918  13.348
56877W        W29225  11.634  40.965   3.371
56878W        W29226  42.387  29.955  12.339
56879W        W29227  36.424   0.778   4.315
56880W        W29228  34.601  18.223   1.295
56881W        W29229  20.584  17.116   2.288
56882W        W29230   1.813  27.067   1.764
56883W        W29231  35.592   9.178   4.662
56884W        W29232   6.377  31.023   0.879
56885W        W29233   5.292  28.619   4.146
56886W        W29234   4.888  30.650  10.634
56887W        W29235  23.651  23.091  13.037
56888W        W29236  37.442   3.310   2.209
56889W        W29237   0.331  38.942  13.364
56890W        W29238  30.116   3.766  11.529
56891W        W29239   0.911  19.654   9.964
56892W        W29240  44.819  28.056   3.300
56893W        W29241  12.639   8.742   0.256
56894W        W29242  26.972  39.023  11.891
56895W        W29243  32.566   0.858  13.852
56896W        W29244   2.265  34.558   2.811
56897W        W29245   2.277  38.922   3.687
56898W        W29246  14.140  42.016  12.563
56899W        W29247  25.563  26.598   4.660
56900W        W29248  27.476  25.572   0.463
56901W        W29249  33.905  41.313  14.767
56902W        W29250  34.097  21.197  13.351
56903W        W29251  26.562   6.380  10.545
56904W        W29252  40.860  34.546  12.344
56905W        W29253  40.015  35.029  14.321
56906W        W29254  34.443  30.458   4.302
56907W        W29255  41.797   2.237  14.788
56908W        W29256  43.993  41.364   1.861
56909W        W29257   6.751  22.226  11.567
56910W        W29258  13.339   2.757  13.423
56911W        W29259   1.464  17.069  14.767
56912W        W29260  36.893  21.529   3.828
56913W        W29261  14.122  35.410  12.904
56914W        W29262   6.306  11.748   4.775
56915W        W29263  37.057  20.638  11.922
56916W        W29264  19.707  33.571   0.281
56917W        W29265   9.663  22.542   4.270
56918W        W29266  33.047  30.008   3.230
56919W        W29267   0.783  19.162   3.357
56920W        W29268  44.874   9.712   4.298
56921W        W29269  26.637  32.495  11.101
56922W        W29270   5.811  20.151  11.071
56923W        W29271   3.849  10.773   2.243
56924W        W29272  39.843  25.163  12.096
56925W        W29273  37.373  16.253  13.913
56926W        W29274  36.523  21.738   9.929
56927W        W29275  23.594  21.210  11.989
56928W        W29276  26.642  10.734  12.080
56929W        W29277  36.379  44.919  12.472
56930W        W29278  37.375  26.082  14.303
56931W        W29279  10.372  37.493   0.278
56932W        W29280  26.531  38.965  10.541
56933W        W29281  17.159  22.247   1.420
56934W        W29282  25.974   9.766   4.229
56935W        W29283  30.955  35.574  14.852
56936W        W29284  15.740  13.146  13.826
56937W        W29285   0.898  25.984  11.563
56938W        W29286  44.764  23.632   3.338
56939W        W29287   4.930   0.420  10.457
56940W        W29288  36.462  38.823  14.779
56941W        W29289  24.124  24.656   2.392
56942W        W29290  15.779  43.985  12.448
56943W        W29291  30.937  15.086   2.680
56944W        W29292  44.915  24.136  12.388
56945W        W29293  11.231  29.104  10.922
56946W        W29294  42.398  28.026   1.748
56947W        W29295  30.450  35.358  10.027
56948W        W29296   2.300   6.273   1.852
56949W        W29297  29.056   5.847   3.648
56950W        W29298   6.741  18.659   1.406
56951W        W29299  44.301  20.060  12.525
56952W        W29300   4.828  28.075  11.499
56953W        W29301  21.550  27.028  13.817
56954W        W29302   8.896   6.267  10.970
56955W        W29303  30.503  28.566   3.273
56956W        W29304  15.675  23.123  13.358
56957W        W29305  44.857   4.880   4.779
56958W        W29306  42.438  42.914   0.883
56959W        W29307  16.224  16.183   2.396
56960W        W29308   9.192  27.981   0.802
56961W        W29309  31.611  32.508   3.296
56962W        W29310   0.316  28.981   4.130
56963W        W29311  44.296  10.749  12.877
56964W        W29312  37.574  22.526   1.408
56965W        W29313  32.569  26.179  14.492
56966W        W29314  27.979  35.037   3.761
56967W        W29315   2.383  28.486   2.315
56968W        W29316  41.977  18.635  10.949
56969W        W29317  19.749  30.439  14.968
56970W        W29318  32.117  32.476   2.902
56971W        W29319  43.423  29.963   2.678
56972W        W29320  43.904  36.437  11.051
56973W        W29321  13.661   0.964  10.521
56974W        W29322  33.560   7.896  10.598
56975W        W29323  10.806  30.083   4.309
56976W        W29324  20.067  22.707  11.479
56977W        W29325   1.921  27.677  14.918
56978W        W29326  27.523  28.162   3.712
56979W        W29327  39.323   2.820   2.756
56980W        W29328  10.765  35.852   2.694
56981W        W29329   8.895  44.372   0.430
56982W        W29330  30.634  39.062   4.815
56983W        W29331  16.259  34.982   4.179
56984W        W29332  26.995   0.773   0.292
56985W        W29333   1.781   9.819  10.528
56986W        W29334  36.017   8.858  14.763
56987W        W29335  29.939  32.031   0.441
56988W        W29336  33.469  15.810   2.750
56989W        W29337  41.516  44.971  10.583
56990W        W29338  27.970  14.775  14.909
56991W        W29339   7.870  25.114   0.919
56992W        W29340  37.504  34.419  10.040
56993W        W29341  12.131   5.828   1.802
56994W        W29342  14.828  13.655  13.516
56995W        W29343  34.383  13.137   2.787
56996W        W29344  33.431  42.500   3.714
56997W        W29345  39.000   4.722   4.253
56998W        W29346  36.930  14.620   4.820
56999W        W29347  38.472  39.052   4.314
57000W        W29348  42.302  44.372  14.872
57001W        W29349   3.839  17.659  14.299
57002W        W29350  27.475  38.342  11.107
57003W        W29351  21.577  28.993   0.454
57004W        W29352   4.843  18.611  11.553
57005W        W29353  40.511  44.996  10.547
57006W        W29354  21.253  24.229   0.757
57007W        W29355   1.389  43.861   1.446
57008W        W29356  14.781  15.798   5.241
57009W        W29357  13.314  33.011   2.183
57010W        W29358  40.000  32.969  11.549
57011W        W29359   2.747   6.405  13.496
57012W        W29360   3.939   0.292  12.066
57013W        W29361   1.473  19.744  13.993
57014W        W29362   1.775  24.993  13.794
57015W        W29363  34.062   6.427  13.348
57016W        W29364  41.802   0.938  13.536
57017W        W29365   1.483  38.388   3.725
57018W        W29366   2.891  16.085  13.828
57019W        W29367  42.854  40.844  12.341
57020W        W29368   1.451  30.958   1.828
57021W        W29369  25.597   1.965   1.776
57022W        W29370  30.628   4.798  11.437
57023W        W29371  18.714  40.926   0.738
57024W        W29372  34.075  18.669   2.821
57025W        W29373  31.505  39.995   4.803
57026W        W29374   6.381  30.458  10.498
57027W        W29375  20.156  40.919  13.999
57028W        W29376  14.203  18.263  10.544
57029W        W29377  38.897  30.143   3.303
57030W        W29378  21.116  41.933   0.777
57031W        W29379  25.089  26.003   4.173
57032W        W29380   6.886  28.022  14.462
57033W        W29381   3.880  40.909   1.299
57034W        W29382  35.014  12.341  12.875
57035W        W29383  18.646  23.522  10.540
57036W        W29384  38.520  32.415   0.388
57037W        W29385   0.771  30.116  12.430
57038W        W29386  28.174  39.315  14.918
57039W        W29387   3.342  10.792  10.633
57040W        W29388  33.002  25.012   2.709
57041W        W29389  26.006  14.225   3.341
57042W        W29390  10.740  12.323  12.876
57043W        W29391  42.989  32.120  13.931
57044W        W29392  29.053  16.583  12.457
57045W        W29393  20.172  33.620  10.134
57046W        W29394  35.951  20.116  10.418
57047W        W29395  32.603  41.434  12.420
57048W        W29396  33.949   3.883   3.780
57049W        W29397  24.655   2.391  14.898
57050W        W29398  11.245   1.479  10.892
57051W        W29399  15.802  16.776  10.919
57052W        W29400  29.025  31.644   2.372
57053W        W29401  20.058  11.772   3.350
57054W        W29402  20.198  20.671  14.339
57055W        W29403  27.579   6.362   0.434
57056W        W29404  12.120  25.059   2.881
57057W        W29405  40.814   3.837   1.703
57058W        W29406  13.180  10.247  11.434
57059W        W29407  27.009  14.153   1.262
57060W        W29408  38.346  41.464  14.321
57061W        W29409  31.450  36.440   5.694
57062W        W29410  15.745  29.591   3.281
57063W        W29411  44.352   3.382   2.387
57064W        W29412  27.058  18.663   3.377
57065W        W29413  19.652   6.396  11.086
57066W        W29414  21.602   0.351   3.369
57067W        W29415  40.914  16.160  11.424
57068W        W29416  22.585   6.188   3.351
57069W        W29417  32.085  35.548   2.870
57070W        W29418   1.856  11.315  11.908
57071W        W29419  13.705   9.660   2.901
57072W        W29420  18.177  16.753  12.961
57073W        W29421  24.997   2.240  11.602
57074W        W29422  17.726  10.271   3.166
57075W        W29423  15.307  36.075   0.951
57076W        W29424  11.863   9.859   0.250
57077W        W29425  30.080  44.267  11.118
57078W        W29426  16.665  20.709   0.946
57079W        W29427   4.729  18.163  14.277
57080W        W29428   7.849  19.571   0.854
57081W        W29429   8.863  37.500  13.008
57082W        W29430  23.171  38.005  13.030
57083W        W29431  26.101  23.119   2.742
57084W        W29432  41.403   5.775   2.883
57085W        W29433  19.225  22.502   2.389
57086W        W29434  26.656  27.944   1.311
57087W        W29435  11.273  26.632  11.058
57088W        W29436  19.161  18.126   2.902
57089W        W29437  31.566  40.403  14.030
57090W        W29438  19.552  35.562  11.386
57091W        W29439  34.028  28.646  10.889
57092W        W29440  40.978  34.441   4.267
57093W        W29441   7.204  31.112  14.841
57094W        W29442  13.836   2.744  12.005
57095W        W29443  39.888  24.057   2.328
57096W        W29444  38.558  25.029   0.924
57097W        W29445  27.104  31.575  13.901
57098W        W29446   6.782  10.354  12.833
57099W        W29447  25.155   3.324   0.286
57100W        W29448  41.885  44.496  10.964
57101W        W29449  11.147  41.018   0.769
57102W        W29450  31.627  12.322   2.248
57103W        W29451  28.024  37.880  12.544
57104W        W29452  32.535  23.626  11.092
57105W        W29453  22.213  10.777  14.894
57106W        W29454  29.074  21.159   1.927
57107W        W29455   7.224  37.544   4.181
57108W        W29456  38.872  17.800  11.600
57109W        W29457  18.594  20.769  10.516
57110W        W29458  39.906  37.553   2.325
57111W        W29459  20.769  42.282   3.367
57112W        W29460  29.589  15.122  11.610
57113W        W29461  13.667  19.661  11.489
57114W        W29462  36.964  42.295  11.078
57115W        W29463   2.285  14.766   3.316
57116W        W29464  14.307  31.068  10.494
57117W        W29465  36.589  25.480   0.809
57118W        W29466  14.174   3.337  11.578
57119W        W29467  36.922  16.318  12.347
57120W        W29468  40.424  25.479   2.861
57121W        W29469  26.202  33.531  10.406
57122W        W29470   6.290   5.872  14.805
57123W        W29471  32.502   6.318   2.662
57124W        W29472  28.178  28.183   4.329
57125W        W29473  41.322   3.925   0.362
57126W        W29474  27.991  38.910  12.043
57127W        W29475  33.918  18.691  12.486
57128W        W29476   3.954   0.366   3.712
57129W        W29477  28.450  44.946  12.396
57130W        W29478  33.492   1.746   0.434
57131W        W29479  35.110   3.870  12.502
57132W        W29480  32.921  32.558  14.029
57133W        W29481  28.995  16.264  14.888
57134W        W29482  23.164  37.057  10.482
57135W        W29483  16.718   1.270  13.380
57136W        W29484  36.993  16.709  13.472
57137W        W29485  39.900  33.393   3.340
57138W        W29486  18.159  23.495  10.496
57139W        W29487  39.885  11.312  11.447
57140W        W29488  19.059  29.559   1.304
57141W        W29489  21.163   6.335  11.891
57142W        W29490   6.715   0.777   2.862
57143W        W29491  30.045   7.896  12.923
57144W        W29492  12.353  15.114  13.329
57145W        W29493   8.722   5.694   4.295
57146W        W29494  43.333   2.893  11.985
57147W        W29495  28.186  30.026   4.827
57148W        W29496  12.339  41.329  11.374
57149W        W29497  43.992  23.121   4.179
57150W        W29498  21.116  11.323  10.507
57151W        W29499   2.250  36.880  12.856
57152W        W29500  13.785  35.874   0.894
57153W        W29501   4.310  42.864  12.537
57154W        W29502  33.397  34.059  10.959
57155W        W29503   1.974  39.357   0.904
57156W        W29504  25.138   1.462  13.454
57157W        W29505  39.923  18.174  10.926
57158W        W29506  25.525  43.777  11.079
57159W        W29507  10.196  32.105  10.944
57160W        W29508  36.901  31.560  14.459
57161W        W29509  13.314   9.860   1.863
57162W        W29510  22.637   1.410   1.237
57163W        W29511  21.192  37.559   0.764
57164W        W29512  16.651  33.120  11.008
57165W        W29513  25.043  32.577  12.901
57166W        W29514  41.330  37.498   0.803
57167W        W29515  11.184  41.509   4.817
57168W        W29516  17.123  24.005  10.982
57169W        W29517   4.222   5.440  12.993
57170W        W29518  42.806  37.063  11.872
57171W        W29519  24.983  38.531  12.831
57172W        W29520  23.600   7.819   0.259
57173W        W29521  23.154  21.612  14.503
57174W        W29522  35.446   9.209   4.180
57175W        W29523  18.241   5.429  13.919
57176W        W29524  13.674  32.607  12.402
57177W        W29525  17.639  24.565  12.093
57178W        W29526   7.863  16.085   0.457
57179W        W29527   9.763  15.735   0.746
57180W        W29528  24.066   7.697  13.833
57181W        W29529  25.031  14.616  11.579
57182W        W29530  16.088  39.554   3.861
57183W        W29531  42.415  13.779  13.391
57184W        W29532  24.494  25.044  13.409
57185W        W29533   7.363  29.603   1.378
57186W        W29534  22.540  26.565   4.352
57187W        W29535   2.754  22.012  11.070
57188W        W29536  33.621  11.234   2.255
57189W        W29537  18.287  10.269   2.195
57190W        W29538  21.243  34.421   0.775
57191W        W29539  13.198  19.753  13.859
57192W        W29540  32.467  43.413  10.899
57193W        W29541   2.883   4.413  14.830
57194W        W29542  23.998   3.312   5.191
57195W        W29543  11.227   1.843  10.522
57196W        W29544  28.128  42.315   1.232
57197W        W29545  15.595  34.879  14.472
57198W        W29546  39.550   9.794  13.025
57199W        W29547  37.952  23.617  14.855
57200W        W29548  11.315  18.054  14.437
57201W        W29549   2.322  27.624   0.481
57202W        W29550   1.884  33.572   1.790
57203W        W29551  42.776  10.766   1.706
57204W        W29552  26.145  44.932  14.946
57205W        W29553  32.066  22.670  11.943
57206W        W29554  32.110  16.084   3.283
57207W        W29555   5.427  10.320   2.217
57208W        W29556   2.365  20.039   3.755
57209W        W29557  14.109  15.245  13.986
57210W        W29558  15.712  26.476   0.829
57211W        W29559   7.740   0.750  11.858
57212W        W29560  41.934  28.609   4.312
57213W        W29561  26.077  15.172  10.544
57214W        W29562  30.575  14.742  11.595
57215W        W29563  40.439  28.063   3.329
57216W        W29564  31.103   3.380  12.825
57217W        W29565   2.403   0.418  11.011
57218W        W29566   3.867  30.079   1.302
57219W        W29567  38.844  35.563  13.000
57220W        W29568  30.475  39.526  13.981
57221W        W29569  24.574   4.888   3.839
57222W        W29570   7.333   3.439   0.288
57223W        W29571   2.949  38.075  12.507
57224W        W29572  41.868   1.750  13.356
57225W        W29573  11.754  23.697   0.377
57226W        W29574  19.575  17.208   0.253
57227W        W29575  42.387   7.209   4.238
57228W        W29576  10.178  32.465   0.293
57229W        W29577  42.399  11.151   2.708
57230W        W29578  42.839  22.659  11.970
57231W        W29579  28.552  35.507   4.220
57232W        W29580  42.876   7.204  12.443
57233W        W29581   0.970  26.012   4.320
57234W        W29582  22.707  23.505   1.267
57235W        W29583   8.205  22.186  14.275
57236W        W29584  34.415  29.995  13.441
57237W        W29585   7.329  19.780  14.787
57238W        W29586  24.641   3.233   2.876
57239W        W29587  42.887  18.629  11.050
57240W        W29588  20.068  14.682   0.856
57241W        W29589  29.463  35.507   3.822
57242W        W29590  41.956   7.829  10.586
57243W        W29591  31.098   2.828  13.337
57244W        W29592  30.009   4.767  13.464
57245W        W29593   1.328  20.257  12.547
57246W        W29594   0.808  13.214  10.610
57247W        W29595  20.539   2.829   0.298
57248W        W29596  29.431  38.920   3.383
57249W        W29597  40.910   7.392   1.819
57250W        W29598  32.123  42.873  10.924
57251W        W29599  34.469   2.363   2.399
57252W        W29600  12.777  44.930  14.997
57253W        W29601  39.867  25.070   1.258
57254W        W29602  16.676  18.592  14.983
57255W        W29603  23.058  40.321   3.665
57256W        W29604   0.835  11.672   1.255
57257W        W29605  40.479  20.673   4.325
57258W        W29606  38.890  22.229   3.706
57259W        W29607  19.279  21.167   0.481
57260W        W29608  35.434  25.637  13.888
57261W        W29609   1.966   9.175   5.096
57262W        W29610   4.389  24.044  14.024
57263W        W29611  44.772   8.832  12.897
57264W        W29612  25.616  44.881   1.789
57265W        W29613  36.454  33.025  12.490
57266W        W29614   8.349   9.838   1.710
57267W        W29615  21.559  31.014  12.092
57268W        W29616  11.159   7.881   3.149
57269W        W29617   1.859   7.796  13.995
57270W        W29618  41.418  33.039  14.939
57271W        W29619  18.087  31.998  12.016
57272W        W29620  21.536  43.374  11.379
57273W        W29621  37.565  41.825  12.043
57274W        W29622  18.243  34.967   2.810
57275W        W29623   0.471  39.493   1.248
57276W        W29624  12.823   7.373  14.813
57277W        W29625  26.037  13.736   4.809
57278W        W29626  41.397  43.905   2.895
57279W        W29627  42.822   6.748   2.265
57280W        W29628  13.187  14.188   0.389
57281W        W29629  40.029   7.780   2.338
57282W        W29630   7.684   6.266  13.806
57283W        W29631   6.827  42.800  14.901
57284W        W29632  22.635  37.571   2.256
57285W        W29633   0.331  13.785  12.402
57286W        W29634  15.129  29.468  13.383
57287W        W29635  25.982  28.565   2.350
57288W        W29636  39.542  14.109   2.723
57289W        W29637  19.235  30.649   4.701
57290W        W29638  29.591  12.650   0.277
57291W        W29639  29.487   2.814  13.513
57292W        W29640  18.266   9.394  12.032
57293W        W29641  23.655  22.604   2.372
57294W        W29642  31.436  31.931   2.240
57295W        W29643  44.498  19.133   3.868
57296W        W29644  20.250  41.329   4.751
57297W        W29645  34.414  12.123   2.698
57298W        W29646  14.742  33.115   3.774
57299W        W29647   1.327  20.081  10.540
57300W        W29648  21.029  27.446   3.338
57301W        W29649  20.217  19.169   1.884
57302W        W29650  11.858  19.658  13.837
57303W        W29651  15.729   7.859  13.022
57304W        W29652  13.259  31.003   3.760
57305W        W29653   8.165  16.227   2.254
57306W        W29654  20.059  17.560  13.956
57307W        W29655  11.142   6.221  14.783
57308W        W29656  23.032  25.489  11.559
57309W        W29657  16.633  43.980   2.774
57310W        W29658  37.865  11.337  14.943
57311W        W29659   2.393  19.732   2.808
57312W        W29660  32.984   5.300   0.753
57313W        W29661   6.285  33.108   4.706
57314W        W29662  43.384  15.754   0.759
57315W        W29663   1.821  15.718  14.462
57316W        W29664   4.367  17.580  12.383
57317W        W29665   9.282  29.566  11.558
57318W        W29666  27.096  23.588  10.938
57319W        W29667  22.594  34.882   1.721
57320W        W29668  36.877   8.897  13.870
57321W        W29669  44.435  39.415   0.764
57322W        W29670   8.244  39.884   4.800
57323W        W29671   4.448  30.651  10.460
57324W        W29672   4.256  41.524   1.384
57325W        W29673  24.180   2.374  10.475
57326W        W29674  19.626  30.004  14.970
57327W        W29675   2.836  17.567   2.314
57328W        W29676  17.724  42.903  13.341
57329W        W29677  18.284   7.809  13.892
57330W        W29678   9.362   9.321  14.283
57331W        W29679   8.841  42.805   0.926
57332W        W29680  27.630  12.741  11.518
57333W        W29681  15.805  15.718   0.464
57334W        W29682  32.409   8.838   5.121
57335W        W29683  36.059  11.759  10.418
57336W        W29684   6.755  26.515   4.769
57337W        W29685  20.599  24.198  11.456
57338W        W29686   5.746  37.527   5.088
57339W        W29687  33.073  28.549  10.476
57340W        W29688  32.983  37.886  10.964
57341W        W29689   8.791  15.763   1.710
57342W        W29690  22.079  34.889   3.705
57343W        W29691  18.728  40.397   4.207
57344W        W29692  28.097   8.769   2.329
57345W        W29693  31.514   7.843   4.179
57346W        W29694  39.455  11.248   1.266
57347W        W29695  33.600  13.119   1.318
57348W        W29696  26.059  37.423  12.028
57349W        W29697  40.456  36.077   2.766
57350W        W29698   0.761   8.772   4.739
57351W        W29699  21.132   2.784  13.957
57352W        W29700  18.557  24.521  11.578
57353W        W29701  16.757  31.908  11.544
57354W        W29702   0.861  16.181   2.903
57355W        W29703   5.372   4.263   4.818
57356W        W29704  23.993  14.280  10.110
57357W        W29705  27.183  32.062  10.128
57358W        W29706  33.437  14.146  13.509
57359W        W29707  18.221  41.309   3.869
57360W        W29708   6.687  41.790   4.704
57361W        W29709   0.853   1.478   4.145
57362W        W29710   0.989  15.621   4.646
57363W        W29711  32.960  37.021   4.260
57364W        W29712  31.101  18.733   4.629
57365W        W29713  18.607   0.781  11.863
57366W        W29714  38.013  27.173   2.688
57367W        W29715  34.083   4.387   3.220
57368W        W29716  15.123  17.695   2.701
57369W        W29717  44.469  39.488  10.035
57370W        W29718  41.313  18.635  12.046
57371W        W29719  18.111   7.833   0.902
57372W        W29720  20.597  41.874   2.825
57373W        W29721   0.252  13.655  11.415
57374W        W29722  30.967   2.471  14.314
57375W        W29723  33.013  33.596   2.675
57376W        W29724  40.020  25.703  12.552
57377W        W29725  23.594  27.460  12.839
57378W        W29726  27.006   5.750  12.420
57379W        W29727  22.655  16.741   4.186
57380W        W29728  18.573  39.351   4.143
57381W        W29729  33.939  33.613   0.473
57382W        W29730   6.352  44.502  10.622
57383W        W29731  14.303  11.258  14.511
57384W        W29732  29.566  29.558   1.885
57385W        W29733   8.776  10.842   4.759
57386W        W29734  31.550  17.568   2.381
57387W        W29735  41.822   1.336  14.476
57388W        W29736  30.160   9.282  12.373
57389W        W29737  17.647   3.322  14.908
57390W        W29738  24.103  21.643  10.484
57391W        W29739  22.673  40.850  14.858
57392W        W29740   6.366  12.221  12.527
57393W        W29741  34.906  14.315  10.147
57394W        W29742  37.457  41.387   3.261
57395W        W29743  34.502  19.705  10.520
57396W        W29744  18.294  24.536   0.925
57397W        W29745  41.935  39.987  12.831
57398W        W29746  31.462  41.385  14.380
57399W        W29747   5.267   3.812  11.882
57400W        W29748   9.646  34.549   1.766
57401W        W29749   4.736   4.301   2.898
57402W        W29750  33.546  44.327   0.785
57403W        W29751  40.343   2.931  12.904
57404W        W29752  20.232  41.952  10.618
57405W        W29753  18.083  19.704  13.449
57406W        W29754  11.272  27.079   0.429
57407W        W29755  36.998  20.733  10.106
57408W        W29756  23.563   2.820  11.936
57409W        W29757  41.019  38.840   4.762
57410W        W29758  26.107  38.558   2.815
57411W        W29759  39.870  17.678  12.912
57412W        W29760  11.675   6.411   0.960
57413W        W29761  14.610  32.919  10.526
57414W        W29762  38.338   2.342   4.258
57415W        W29763  19.605  32.109  10.599
57416W        W29764  35.544  18.062   3.376
57417W        W29765  26.077  32.054   4.638
57418W        W29766   7.677   2.851  11.953
57419W        W29767   1.829  21.149  11.451
57420W        W29768  21.151  41.964  12.459
57421W        W29769  40.464  43.354   0.902
57422W        W29770  16.297  22.119   1.871
57423W        W29771  14.831  15.747  12.439
57424W        W29772  42.800  20.149  14.516
57425W        W29773  41.321  14.144  14.854
57426W        W29774   1.789  43.302   0.761
57427W        W29775  21.242  33.559   0.917
57428W        W29776  28.046  22.622   0.320
57429W        W29777  19.586  43.469   1.352
57430W        W29778  18.647  29.572   9.475
57431W        W29779  20.749  44.400   0.830
57432W        W29780  37.913  24.629  12.439
57433W        W29781  28.996  17.133   0.470
57434W        W29782   4.809  17.745   1.910
57435W        W29783  44.902   1.865   5.208
57436W        W29784   0.300  41.830  12.429
57437W        W29785   9.791   6.285   4.792
57438W        W29786  26.602  17.684   3.172
57439W        W29787  27.645  35.066   4.789
57440W        W29788  18.233  10.178  12.358
57441W        W29789  19.716  42.855   4.200
57442W        W29790  39.542  37.976   4.793
57443W        W29791   7.811  22.621   1.296
57444W        W29792  36.406  39.523   4.336
57445W        W29793  23.602  22.744   3.217
57446W        W29794   0.363  10.869   1.393
57447W        W29795  29.480   1.904  10.031
57448W        W29796  17.700   5.698  14.014
57449W        W29797  34.369  18.082   1.931
57450W        W29798  12.340  26.007  14.427
57451W        W29799  34.863  37.431  12.879
57452W        W29800  37.060  21.593   2.899
57453W        W29801  41.955  16.578  14.342
57454W        W29802  39.978   1.268  11.996
57455W        W29803  32.583  37.949   5.593
57456W        W29804  39.418  42.940   4.325
57457W        W29805  40.472   4.228   0.940
57458W        W29806  13.677  32.991   4.240
57459W        W29807  39.347  33.495   0.945
57460W        W29808   7.174  36.091   3.826
57461W        W29809   7.222  27.585   4.311
57462W        W29810  44.857  17.763  12.848
57463W        W29811   2.857   6.734  13.357
57464W        W29812   2.780  31.542   4.680
57465W        W29813   1.955  43.906  10.553
57466W        W29814   9.216  33.958  12.985
57467W        W29815  18.662  27.579   2.827
57468W        W29816  42.494  23.606  12.894
57469W        W29817  20.552  20.664   0.474
57470W        W29818  23.033  35.963  12.827
57471W        W29819   5.289   7.404   2.808
57472W        W29820  22.639  34.007  13.523
57473W        W29821  27.997  12.769   0.399
57474W        W29822  41.882  42.973  10.509
57475W        W29823  26.636   5.892   0.453
57476W        W29824  10.334  41.385  14.405
57477W        W29825   0.450   3.940  11.104
57478W        W29826  38.915   0.777   0.440
57479W        W29827  44.975   3.756  13.791
57480W        W29828  18.190  33.482  10.147
57481W        W29829  36.494  26.077  14.885
57482W        W29830  28.575  44.865   0.875
57483W        W29831  37.923  20.765   9.965
57484W        W29832  38.057  44.384  11.470
57485W        W29833  26.536   5.280   2.266
57486W        W29834  11.186  15.596   4.291
57487W        W29835  12.637  29.482  13.520
57488W        W29836  15.146  44.943  12.944
57489W        W29837  25.552  31.519   3.838
57490W        W29838  42.899  27.490   2.880
57491W        W29839  28.439   1.286  13.997
57492W        W29840  28.986  28.603   0.759
57493W        W29841  11.865  20.753   1.709
57494W        W29842   7.763  31.476  11.548
57495W        W29843   2.867  38.368  13.018
57496W        W29844  13.717  25.154  14.484
57497W        W29845   1.390  16.735  10.979
57498W        W29846   9.687  28.564   4.742
57499W        W29847  40.392  32.564   4.614
57500W        W29848  29.442   5.905   3.814
57501W        W29849  31.978  33.038   4.729
57502W        W29850  40.993  43.383   3.264
57503W        W29851  22.589  11.691   4.258
57504W        W29852  18.752  27.063  11.894
57505W        W29853  41.803   3.887  11.419
57506W        W29854  18.709  44.010   2.320
57507W        W29855  17.286   6.307   0.328
57508W        W29856  30.438  43.455  11.485
57509W        W29857  28.553  28.150  12.025
57510W        W29858  44.851   1.374   2.712
57511W        W29859  43.299  39.990  10.941
57512W        W29860   6.268   3.314   3.301
57513W        W29861  24.546  12.235  13.447
57514W        W29862  41.843  11.199  10.409
57515W        W29863  42.996  11.300  10.412
57516W        W29864   8.350  38.837   4.228
57517W        W29865  19.619   0.423  12.394
57518W        W29866  10.715  20.101  10.962
57519W        W29867  14.707   7.355  12.954
57520W        W29868  17.719   9.393  12.475
57521W        W29869  44.467  15.669   2.232
57522W        W29870  10.791  32.488   1.428
57523W        W29871  37.007  10.261  14.885
57524W        W29872  12.854   9.154  12.484
57525W        W29873  31.152   6.813  11.070
57526W        W29874   5.762  38.029  14.945
57527W        W29875  38.357  17.719  14.284
57528W        W29876  39.956  33.974   0.246
57529W        W29877  35.079   6.328   2.895
57530W        W29878   4.706   3.416  12.570
57531W        W29879  40.388  13.830   1.731
57532W        W29880   1.899  32.897   2.705
57533W        W29881  34.433  21.689  11.429
57534W        W29882  33.902   1.289  10.966
57535W        W29883  21.551  30.124  11.000
57536W        W29884  14.309   2.294   1.336
57537W        W29885  36.995  40.903  13.919
57538W        W29886  36.939  40.923  13.033
57539W        W29887  22.530  17.777   4.692
57540W        W29888   4.924  25.983  14.385
57541W        W29889  42.904  33.898   2.703
57542W        W29890  29.607  24.600  11.524
57543W        W29891  20.731  10.843   0.858
57544W        W29892  44.391  32.130   0.456
57545W        W29893   0.922  11.360  14.978
57546W        W29894  10.144   5.391  10.042
57547W        W29895   6.387  25.012   2.304
57548W        W29896  44.977  15.708   3.256
57549W        W29897  27.186  27.147  11.553
57550W        W29898  31.496  24.538   1.238
57551W        W29899   3.375   2.360  11.034
57552W        W29900  34.536  32.604   1.768
57553W        W29901   8.292  16.656  13.816
57554W        W29902  11.857  26.494   2.379
57555W        W29903  32.458  30.011  10.631
57556W        W29904   4.712  15.166  11.389
57557W        W29905   2.255  42.951   3.807
57558W        W29906  22.102   5.388   2.755
57559W        W29907   8.247  29.022   3.323
57560W        W29908  37.841  33.442  11.123
57561W        W29909  34.434  44.461  13.981
57562W        W29910  11.803  39.376  14.792
57563W        W29911   1.337  35.601  12.530
57564W        W29912   8.723  33.389   3.194
57565W        W29913  40.947   9.322  13.826
57566W        W29914   1.915  44.260   3.257
57567W        W29915  27.048  27.609  10.944
57568W        W29916  29.130  27.994  12.929
57569W        W29917  12.351  32.051   2.851
57570W        W29918  35.858   9.206  11.038
57571W        W29919   7.190   5.267   3.373
57572W        W29920   0.281  33.015  13.347
57573W        W29921  35.938   4.870   3.232
57574W        W29922  33.441  23.600  14.786
57575W        W29923  29.128  35.408  14.357
57576W        W29924   6.201  24.651   1.437
57577W        W29925  12.641  29.507   1.908
57578W        W29926  17.595   2.282  13.869
57579W        W29927   6.856  39.891   0.340
57580W        W29928  29.470  28.961   4.285
57581W        W29929  33.876  35.482  13.325
57582W        W29930  41.869  23.626  14.496
57583W        W29931  43.455  15.629  14.328
57584W        W29932  38.911   8.351   2.202
57585W        W29933  36.854  18.585  13.352
57586W        W29934  42.006  26.657   3.861
57587W        W29935   2.436  43.413  14.384
57588W        W29936  31.455  33.920  12.921
57589W        W29937  44.264  29.467   0.398
57590W        W29938  12.134  38.336  12.450
57591W        W29939  21.650  23.166   4.124
57592W        W29940  28.488   0.344   2.390
57593W        W29941   2.447  23.017   2.706
57594W        W29942   0.362  40.964   0.860
57595W        W29943  35.458  36.425   3.702
57596W        W29944  11.172  15.087   2.313
57597W        W29945   8.371   0.762   1.874
57598W        W29946  35.980  42.809   1.924
57599W        W29947  29.044  27.654  14.485
57600W        W29948  32.502  34.461   0.807
57601W        W29949  33.002  42.826  11.018
57602W        W29950  42.375   8.894  10.470
57603W        W29951  35.864  21.191   4.191
57604W        W29952  13.787  11.330  12.837
57605W        W29953   4.836  38.512   0.438
57606W        W29954  28.443  25.150  12.495
57607W        W29955   5.363  35.438  13.050
57608W        W29956  32.093  35.930   4.351
57609W        W29957  41.868   0.329   3.242
57610W        W29958   9.225  28.476   0.272
57611W        W29959   7.673   5.426  10.609
57612W        W29960  40.944   0.855  13.815
57613W        W29961  36.036  13.730  10.998
57614W        W29962  29.624  42.002  14.943
57615W        W29963   7.417  26.468  11.102
57616W        W29964  44.384   0.770   3.370
57617W        W29965  37.987   5.219  13.504
57618W        W29966   7.368  40.306  10.572
57619W        W29967  38.462  32.993   0.311
57620W        W29968  21.695  14.286  13.397
57621W        W29969   4.258  40.934  13.517
57622W        W29970  17.659  16.686   0.906
57623W        W29971  23.137  11.735  10.039
57624W        W29972  13.351   8.378  12.555
57625W        W29973  34.480  30.622   1.267
57626W        W29974   8.387  24.679   1.868
57627W        W29975  25.023  30.017   3.247
57628W        W29976  12.251  10.292  10.503
57629W        W29977  19.084  25.530   0.953
57630W        W29978   1.798  26.096  12.083
57631W        W29979  26.522  10.344   4.604
57632W        W29980  34.557  15.581   0.392
57633W        W29981  12.728  12.328  14.376
57634W        W29982  25.209  30.563  11.409
57635W        W29983  33.573   4.765   3.282
57636W        W29984   1.864  13.305   4.801
57637W        W29985  29.034  24.543   2.860
57638W        W29986   0.450  10.730   1.920
57639W        W29987  31.420   1.779   1.828
57640W        W29988  17.720  29.144   5.233
57641W        W29989  20.557  13.715  12.963
57642W        W29990  23.649  22.044  10.478
57643W        W29991  35.411  39.458  13.432
57644W        W29992  13.814  42.799  13.360
57645W        W29993  12.806  34.908  10.891
57646W        W29994  17.705   9.710   2.219
57647W        W29995  35.565  24.103  11.586
57648W        W29996  40.905  22.094   3.772
57649W        W29997  26.115  39.337   1.877
57650W        W29998   6.382   4.339  11.933
57651W        W29999  10.732   5.437  11.515
57652W        W30000  34.003  13.835   0.328
57653W        W30001   7.351  22.569  11.416
57654W        W30002  18.790   2.322   3.305
57655W        W30003  23.569  26.002  12.027
57656W        W30004   1.850  38.360  12.481
57657W        W30005  35.366  10.656   1.802
57658W        W30006  32.907  10.374   1.855
57659W        W30007   4.940  16.647  10.434
57660W        W30008  30.562   1.408  11.126
57661W        W30009   0.768   7.736   4.780
57662W        W30010  44.980  16.083   0.273
57663W        W30011  19.168   7.344   4.132
57664W        W30012  31.405   8.360   2.705
57665W        W30013  38.334   1.290  11.517
57666W        W30014  24.508   0.973   1.343
57667W        W30015  16.266   3.359  11.474
57668W        W30016  31.463  12.359   1.767
57669W        W30017  10.380  37.393   9.979
57670W        W30018  25.029  27.120  12.428
57671W        W30019  27.014  33.083   1.737
57672W        W30020  23.697  35.092  11.912
57673W        W30021  23.604  13.328  14.916
57674W        W30022  23.075  39.433   0.429
57675W        W30023   9.150   9.362   1.732
57676W        W30024  25.103  10.337  10.629
57677W        W30025  29.430  33.502  14.918
57678W        W30026  24.163  16.731   3.174
57679W        W30027  11.158  12.641   2.697
57680W        W30028  34.995  13.706  12.040
57681W        W30029  22.620  11.275  11.038
57682W        W30030  35.489  28.472   4.210
57683W        W30031   2.781   0.370   0.378
57684W        W30032  21.208  27.533   4.813
57685W        W30033  26.129  32.456   0.450
57686W        W30034   7.762   1.261   0.434
57687W        W30035  12.741  13.749   3.285
57688W        W30036  27.012  38.527  13.862
57689W        W30037  41.430  30.437  10.539
57690W        W30038  35.367   8.178   1.290
57691W        W30039   7.711  18.171  14.960
57692W        W30040  24.997  21.210  10.036
57693W        W30041  31.576  11.166   2.753
57694W        W30042  26.161  32.890  13.012
57695W        W30043  21.579  34.502  13.862
57696W        W30044  17.752  22.612  11.020
57697W        W30045  18.734  26.515  14.854
57698W        W30046   7.292  13.808   2.206
57699W        W30047  15.123  34.393   2.838
57700W        W30048  15.651  23.598  11.088
57701W        W30049  37.071  33.547  11.085
57702W        W30050   3.850   1.749  10.110
57703W        W30051   5.888  39.543  13.411
57704W        W30052  14.144  15.657   3.233
57705W        W30053  39.876  26.114   3.196
57706W        W30054  19.142  27.678   0.460
57707W        W30055  28.593  42.985   3.783
57708W        W30056  19.153   5.732  14.828
57709W        W30057  26.504  12.837   4.253
57710W        W30058   2.332  38.479  11.376
57711W        W30059  38.436  14.322   0.921
57712W        W30060   2.337  30.653   4.303
57713W        W30061  43.933  34.411  12.050
57714W        W30062  42.841  38.040   3.795
57715W        W30063  35.578   1.925  11.859
57716W        W30064  31.126  21.591  12.969
57717W        W30065   5.748  14.113  14.330
57718W        W30066   5.781  24.610   3.290
57719W        W30067   7.682   8.655   4.211
57720W        W30068  38.512  42.783   4.734
57721W        W30069  15.690  22.141   1.323
57722W        W30070   9.155  29.144   4.653
57723W        W30071  17.560  40.472  11.002
57724W        W30072   1.443  13.716   1.703
57725W        W30073  35.016  29.527  10.993
57726W        W30074  44.267  37.423  13.501
57727W        W30075  10.742   8.378  10.564
57728W        W30076  27.530  27.098   2.732
57729W        W30077  29.472  18.757   0.929
57730W        W30078   1.899  18.113   1.338
57731W        W30079  31.487  28.126   4.642
57732W        W30080  37.896  42.334  12.829
57733W        W30081  11.727  29.485   1.889
57734W        W30082  44.772  34.487   2.734
57735W        W30083  22.653  18.221  13.357
57736W        W30084  36.891   5.823  14.766
57737W        W30085  19.217  26.143   4.125
57738W        W30086   7.738  42.356  13.435
57739W        W30087   9.682  14.126  12.847
57740W        W30088  29.120  29.643  10.992
57741W        W30089   8.227  14.590   0.363
57742W        W30090   9.857  15.221   0.272
57743W        W30091   1.240   6.767   3.837
57744W        W30092  21.189  23.538  12.380
57745W        W30093   9.648  42.866  14.945
57746W        W30094  41.503  21.685  13.038
57747W        W30095  30.941   1.471  10.596
57748W        W30096  37.527  29.078  10.149
57749W        W30097  20.225  14.604   1.765
57750W        W30098   9.838  28.085  11.952
57751W        W30099  16.303  11.267   2.771
57752W        W30100  23.999  17.752  13.333
57753W        W30101  21.238  34.405   1.885
57754W        W30102  17.146  41.534  13.543
57755W        W30103   0.864  14.719   1.780
57756W        W30104   1.895  23.586   4.710
57757W        W30105   4.916  21.610   0.847
57758W        W30106   1.802  13.790   4.684
57759W        W30107   0.760  14.737  11.957
57760W        W30108  39.814  22.230  12.462
57761W        W30109  26.131  24.515   1.738
57762W        W30110   3.248  23.082   0.271
57763W        W30111  27.524  12.826  13.949
57764W        W30112  16.293  26.171  13.351
57765W        W30113  35.936   0.340  13.539
57766W        W30114   0.312  17.213  14.781
57767W        W30115  14.315  23.101  11.513
57768W        W30116  24.496  12.319   1.211
57769W        W30117  36.569  25.586  14.348
57770W        W30118   5.398   8.166  14.924
57771W        W30119  19.093  12.777   3.199
57772W        W30120   5.882   2.824   4.626
57773W        W30121  38.930  14.137  11.406
57774W        W30122  10.754  10.692   2.892
57775W        W30123  37.354  30.576  11.514
57776W        W30124  22.679  36.850  10.605
57777W        W30125  31.124  20.597  11.090
57778W        W30126  38.440  33.458  11.488
57779W        W30127   6.868  16.778   1.320
57780W        W30128  10.710  23.592  13.792
57781W        W30129  12.258   3.263  14.365
57782W        W30130  15.697   1.835  13.309
57783W        W30131  11.238  44.285   1.266
57784W        W30132  17.717  17.737   3.376
57785W        W30133   6.291  42.972  14.408
57786W        W30134   2.226   9.343   0.334
57787W        W30135   9.323  12.285  14.346
57788W        W30136  13.145  36.586   4.828
57789W        W30137   1.934  11.192  10.507
57790W        W30138  19.124  39.842   1.436
57791W        W30139   5.387  35.899   0.950
57792W        W30140  34.054  41.416  11.460
57793W        W30141  42.830  34.415  14.934
57794W        W30142  29.144  27.481  10.624
57795W        W30143  29.436   5.237  14.502
57796W        W30144   7.405  28.179  10.636
57797W        W30145   6.860   4.407   3.189
57798W        W30146  40.996  29.553  11.555
57799W        W30147  41.337  32.439  11.960
57800W        W30148  39.902   1.910   2.735
57801W        W30149  19.259  36.512  13.943
57802W        W30150   4.431  10.309  10.594
57803W        W30151  42.359   9.182  13.807
57804W        W30152  34.505   0.986   1.917
57805W        W30153  43.815  23.703   4.307
57806W        W30154  10.775  16.113   1.339
57807W        W30155  29.429  13.141  14.924
57808W        W30156  43.003  10.212   0.841
57809W        W30157  23.018  32.006   0.308
57810W        W30158  38.899  42.827   3.279
57811W        W30159  29.000  34.416  13.482
57812W        W30160   1.871  12.190   0.427
57813W        W30161  22.733  44.782  13.968
57814W        W30162  16.688  19.632   0.849
57815W        W30163  36.585  29.568  14.326
57816W        W30164  10.679  26.513  12.576
57817W        W30165  18.598  18.576   1.334
57818W        W30166  10.350  30.937  14.761
57819W        W30167  39.451  36.544  10.447
57820W        W30168   6.308  34.002   3.346
57821W        W30169  41.374  32.914  12.406
57822W        W30170  44.379  29.576   2.715
57823W        W30171   3.934  18.139   1.253
57824W        W30172  25.599  43.770   4.271
57825W        W30173  28.985  42.300   1.229
57826W        W30174   3.794  34.990   3.789
57827W        W30175  39.375  15.319   1.815
57828W        W30176  41.421  17.600  11.481
57829W        W30177   6.287  10.844  11.067
57830W        W30178   8.810  43.787   4.268
57831W        W30179  12.643  35.028  13.361
57832W        W30180  12.150  23.643  13.868
57833W        W30181  39.896  23.159   4.290
57834W        W30182   0.358  44.927  13.351
57835W        W30183  22.583   7.220  14.328
57836W        W30184   4.810  40.889  14.350
57837W        W30185  44.791   3.816  13.326
57838W        W30186  33.970  17.561   3.772
57839W        W30187  21.659   9.711   2.734
57840W        W30188  24.183  16.112  13.541
57841W        W30189  24.115  14.643  11.080
57842W        W30190  32.617  31.013  13.010
57843W        W30191  31.121  38.046  12.409
57844W        W30192  27.013  38.520   2.832
57845W        W30193  33.573  20.125   4.224
57846W        W30194   8.870   1.483  10.566
57847W        W30195  18.274  26.170  13.026
57848W        W30196  37.564  26.482  12.023
57849W        W30197  14.222  29.089  13.908
57850W        W30198  27.457  32.401  11.541
57851W        W30199  22.565  22.560  11.112
57852W        W30200   5.745   1.832   3.318
57853W        W30201  38.374  21.748   0.908
57854W        W30202  43.842  23.118  14.293
57855W        W30203   7.831  14.158  10.069
57856W        W30204  17.588  42.301  10.453
57857W        W30205  19.635  33.123  11.100
57858W        W30206  31.601   0.304   1.787
57859W        W30207   5.307  29.660   1.363
57860W        W30208  16.759   3.735   4.204
57861W        W30209  10.141   0.295  10.892
57862W        W30210   8.172  41.919  13.436
57863W        W30211  19.714  12.671  14.811
57864W        W30212  32.535  20.661   3.751
57865W        W30213  13.714  18.752   1.431
57866W        W30214  28.065   9.783  14.279
57867W        W30215   8.722   3.326   4.231
57868W        W30216   6.712  15.612  12.341
57869W        W30217  11.301  14.768  12.956
57870W        W30218  36.871  39.882  10.989
57871W        W30219  14.242  40.371   1.320
57872W        W30220  30.456   4.778   4.620
57873W        W30221  32.547  25.983   4.652
57874W        W30222   0.440  16.601   1.366
57875W        W30223  27.142   2.736   1.889
57876W        W30224  27.995  44.812   3.753
57877W        W30225  30.074   8.715   1.832
57878W        W30226  11.664  23.522  10.956
57879W        W30227  37.498  28.599   4.679
57880W        W30228  30.053  35.456  12.525
57881W        W30229  44.984   8.686  13.838
57882W        W30230  22.745  23.013   2.745
57883W        W30231  35.363  28.450   0.369
57884W        W30232  12.225  42.289  13.441
57885W        W30233  19.210  17.765   0.306
57886W        W30234  14.664  41.324   0.923
57887W        W30235  35.959  43.453  11.863
57888W        W30236   6.712  33.999   1.411
57889W        W30237  42.804  26.193   2.781
57890W        W30238  15.618   0.977   4.706
57891W        W30239  29.027  40.797   4.239
57892W        W30240  13.310  25.115  10.913
57893W        W30241  22.665  31.483  12.552
57894W        W30242   8.734  20.143  14.506
57895W        W30243  13.783  38.892  10.943
57896W        W30244  36.036   4.894   1.852
57897W        W30245  38.964  34.884   1.350
57898W        W30246  38.850  42.972  14.351
57899W        W30247   6.777  31.493  10.921
57900W        W30248   8.299  35.069   0.774
57901W        W30249   3.356   2.300   4.733
57902W        W30250  24.498  18.188  11.541
57903W        W30251   9.332  13.671   0.243
57904W        W30252   6.759  10.852  10.960
57905W        W30253  33.582  34.584   0.816
57906W        W30254  37.945   6.799  13.961
57907W        W30255  33.016   3.944   1.871
57908W        W30256  19.042  27.542  13.356
57909W        W30257  13.646   0.281  14.919
57910W        W30258  33.057  35.595   3.782
57911W        W30259   1.303  41.893   0.331
57912W        W30260  13.606  33.005  14.013
57913W        W30261  41.826  41.933  13.370
57914W        W30262  14.745  28.178   1.420
57915W        W30263  21.043   1.926   3.676
57916W        W30264  27.585  33.077   1.826
57917W        W30265  37.032  15.783   1.706
57918W        W30266   4.894  44.316   0.458
57919W        W30267  28.610   6.399   1.238
57920W        W30268  12.150  21.643   3.762
57921W        W30269  26.595  37.445  13.367
57922W        W30270  36.974  18.719  14.389
57923W        W30271  38.368  39.844   4.231
57924W        W30272  21.042   2.323   4.830
57925W        W30273  23.999  33.106  10.417
57926W        W30274   6.391   1.890  12.095
57927W        W30275  26.130  25.214  13.908
57928W        W30276  22.702  21.683   3.644
57929W        W30277  16.187  25.672  10.613
57930W        W30278  11.653   9.384   0.288
57931W        W30279  42.943  32.013   3.361
57932W        W30280  24.193  26.961  12.904
57933W        W30281  10.774  28.017   2.718
57934W        W30282  31.008  28.971   3.671
57935W        W30283   3.948  37.567  11.601
57936W        W30284  23.612  17.225   3.730
57937W        W30285  28.039   9.369  12.498
57938W        W30286  20.570  44.287   1.289
57939W        W30287  17.279   3.323  13.380
57940W        W30288  28.543  37.086  14.434
57941W        W30289  28.986  39.399  10.538
57942W        W30290  32.435   0.931   2.782
57943W        W30291  15.702   2.957  14.772
57944W        W30292  11.672  29.437   0.371
57945W        W30293  34.117   3.890  10.460
57946W        W30294  31.976  18.234   3.183
57947W        W30295  28.005   1.372   3.656
57948W        W30296   0.302  34.972  14.992
57949W        W30297  32.905   2.728  11.408
57950W        W30298  14.809  28.531  14.319
57951W        W30299  28.031  35.534  11.468
57952W        W30300  36.034  18.627  12.500
57953W        W30301  43.344  18.748   4.148
57954W        W30302  14.763   2.728  12.461
57955W        W30303  19.087  13.619   1.728
57956W        W30304   4.404   8.859   3.676
57957W        W30305   5.887  35.514  12.536
57958W        W30306  38.502  33.129  12.367
57959W        W30307  11.223   6.769  12.992
57960W        W30308   9.196  17.233   3.283
57961W        W30309  36.052   6.276   3.358
57962W        W30310  32.605  26.552   1.827
57963W        W30311  23.200  18.219   1.823
57964W        W30312  28.019  23.685  13.520
57965W        W30313  24.628  35.375   3.148
57966W        W30314  28.168  29.562  12.951
57967W        W30315  15.139  12.141  14.803
57968W        W30316  41.326  27.165   0.907
57969W        W30317  43.875   2.824   2.200
57970W        W30318  43.393  41.456  10.468
57971W        W30319  36.086  26.526   3.215
57972W        W30320  14.278  35.582   4.714
57973W        W30321  27.174   4.906  14.432
57974W        W30322  37.352  22.660  11.612
57975W        W30323   9.188   4.768   2.280
57976W        W30324  34.455  41.350   2.819
57977W        W30325  11.657  42.425   2.672
57978W        W30326  34.934   6.416  10.153
57979W        W30327  10.139  16.248  12.460
57980W        W30328   5.386  41.960  11.562
57981W        W30329  28.458  12.146   3.647
57982W        W30330  14.239  44.999  13.531
57983W        W30331  33.924  37.953   3.867
57984W        W30332  39.995   6.920   3.289
57985W        W30333   2.788   2.254  14.851
57986W        W30334   2.747  10.237   4.816
57987W        W30335   1.288  14.125  13.539
57988W        W30336   6.736  39.490   3.722
57989W        W30337   1.345  18.288   4.314
57990W        W30338  20.213   5.916  12.027
57991W        W30339   0.865  12.297   2.387
57992W        W30340   2.428  38.462   1.736
57993W        W30341  33.536   4.231  13.485
57994W        W30342  41.530  26.132  13.371
57995W        W30343  20.250  42.935   3.228
57996W        W30344  37.917  26.986  13.476
57997W        W30345  15.110  29.142   1.314
57998W        W30346  30.047  44.433   1.844
57999W        W30347   8.318  22.672   5.775
58000W        W30348  25.196  18.073  13.902
58001W        W30349  43.834  38.863   4.165
58002W        W30350   7.784  30.961  11.498
58003W        W30351  19.246  27.961   0.441
58004W        W30352  19.217  30.154  14.395
58005W        W30353  13.648  20.029  12.345
58006W        W30354  43.887  42.989  11.474
58007W        W30355  25.712  19.205   1.779
58008W        W30356  25.112  35.481  11.084
58009W        W30357  21.022  17.640  13.402
58010W        W30358  40.911  44.425  11.492
58011W        W30359   7.906  34.050   1.249
58012W        W30360   4.303   8.320  14.506
58013W        W30361  22.530  16.165   2.715
58014W        W30362  29.438  18.233   1.822
58015W        W30363  40.499  33.615   5.176
58016W        W30364  31.111  23.589   0.332
58017W        W30365  24.653  10.305  12.546
58018W        W30366  17.109  31.042  11.383
58019W        W30367  17.114  38.334   4.772
58020W        W30368  23.655  16.764  11.124
58021W        W30369  39.545  28.102  10.511
58022W        W30370   3.887  13.275   2.208
58023W        W30371   7.714   1.781   4.322
58024W        W30372  20.250  24.668   2.184
58025W        W30373  42.822  36.361   0.927
58026W        W30374  23.221  34.105   1.729
58027W        W30375  44.369  30.580  11.020
58028W        W30376   7.725  33.614   2.238
58029W        W30377   1.858  44.389   1.923
58030W        W30378  40.385  27.555   1.770
58031W        W30379  30.536  29.996  12.997
58032W        W30380  19.647  28.588   1.320
58033W        W30381  44.335  11.684  11.036
58034W        W30382  15.696  19.125  10.989
58035W        W30383  18.669  22.566  10.028
58036W        W30384   0.359  34.487   1.286
58037W        W30385   0.911  29.104   1.450
58038W        W30386  36.987  16.231   1.914
58039W        W30387  41.857  16.111  10.955
58040W        W30388  34.009  38.904   3.247
58041W        W30389  15.263  21.119   4.146
58042W        W30390  12.798  21.217  14.409
58043W        W30391  31.121  26.483   0.274
58044W        W30392  32.894  19.239   3.251
58045W        W30393  25.485  34.589  11.528
58046W        W30394  22.996   6.419  14.776
58047W        W30395  27.674  39.326  14.405
58048W        W30396  44.290   9.161  13.833
58049W        W30397   0.957  22.652  13.428
58050W        W30398  43.473  23.203  14.018
58051W        W30399  37.362  39.912   3.773
58052W        W30400  40.917   1.360  14.844
58053W        W30401   8.297   5.267   3.657
58054W        W30402   8.329  16.597  11.008
58055W        W30403  15.285  26.025  13.967
58056W        W30404  26.200  20.150  11.914
58057W        W30405  24.627  44.913  12.878
58058W        W30406   2.246  28.636   4.672
58059W        W30407  20.267   2.721  11.024
58060W        W30408  26.154  22.210  13.432
58061W        W30409  27.108  12.211   2.859
58062W        W30410  44.918  29.967   4.638
58063W        W30411   0.960  39.930   2.735
58064W        W30412  12.837  14.701   2.872
58065W        W30413   7.343   5.821  10.478
58066W        W30414  31.123  23.686   3.650
58067W        W30415  16.125  14.287  10.087
58068W        W30416  38.482  43.925  13.374
58069W        W30417  10.310  41.389  11.011
58070W        W30418  25.149  43.356   4.806
58071W        W30419  10.657  25.128   4.179
58072W        W30420  14.684  37.369  10.022
58073W        W30421  16.082  28.138   4.627
58074W        W30422  40.915  31.986  11.594
58075W        W30423  39.399  19.727  11.871
58076W        W30424  24.599  14.698   1.236
58077W        W30425   8.373  29.149  13.348
58078W        W30426  35.564  19.746   2.844
58079W        W30427  36.442  22.687  12.002
58080W        W30428  17.735   7.232  12.987
58081W        W30429  36.530  17.761  10.645
58082W        W30430  32.431  35.454   3.641
58083W        W30431  22.069  17.563   3.383
58084W        W30432  44.323  11.629  14.425
58085W        W30433  19.754   0.338   1.423
58086W        W30434  44.359   5.834   3.703
58087W        W30435  33.565  25.592   3.693
58088W        W30436  12.788  34.112  12.488
58089W        W30437   8.717   6.250   4.178
58090W        W30438  17.654  41.845  14.471
58091W        W30439  22.712  23.050   0.753
58092W        W30440  31.922  34.066   2.372
58093W        W30441  36.437  39.912  12.840
58094W        W30442  12.802  24.480  13.849
58095W        W30443   2.381   6.408   2.336
58096W        W30444  18.208  17.211   1.271
58097W        W30445   7.231   7.743  14.455
58098W        W30446   5.278  27.969  10.987
58099W        W30447  18.722  35.395   0.802
58100W        W30448  16.313  15.216  14.881
58101W        W30449  36.024  22.140  13.823
58102W        W30450  42.030  24.057  14.291
58103W        W30451  43.450  18.576   2.273
58104W        W30452   6.258  19.150  11.609
58105W        W30453  18.086  15.796   0.918
58106W        W30454  23.697  10.748   4.692
58107W        W30455  20.594   9.292   1.889
58108W        W30456  29.113  36.050   2.683
58109W        W30457  29.987   6.374   3.858
58110W        W30458   5.425  39.505   0.789
58111W        W30459   6.871  38.979   2.234
58112W        W30460  32.395   6.239   3.639
58113W        W30461  12.703  29.594  11.584
58114W        W30462  10.714   2.794   2.383
58115W        W30463   3.882  41.950  13.349
58116W        W30464  18.613  16.587   0.910
58117W        W30465  13.839  41.819  14.363
58118W        W30466   7.236  21.258  14.784
58119W        W30467  41.370  26.078  12.441
58120W        W30468  34.454  37.054   0.453
58121W        W30469  11.830  13.112   1.914
58122W        W30470  19.747  23.006  13.858
58123W        W30471  36.973  35.090   4.295
58124W        W30472  24.484   5.427   4.603
58125W        W30473  27.448  17.690  10.482
58126W        W30474  10.730  31.446   1.233
58127W        W30475  39.334   8.404   0.350
58128W        W30476  18.550  22.144   3.205
58129W        W30477  13.610   6.204   0.271
58130W        W30478  44.432  42.351  11.431
58131W        W30479   2.890  22.723   0.809
58132W        W30480  20.633  33.056  13.882
58133W        W30481   9.246  42.323  12.079
58134W        W30482  19.125   7.299  12.864
58135W        W30483  21.659  33.959   3.230
58136W        W30484  44.939  34.436  10.483
58137W        W30485  13.243   0.483   0.888
58138W        W30486   4.701   2.390  11.597
58139W        W30487   5.862  24.092   4.702
58140W        W30488  42.979  27.490  10.584
58141W        W30489   2.938   8.699   4.753
58142W        W30490  36.355  41.383  10.609
58143W        W30491  14.646   1.376   2.826
58144W        W30492  44.982  36.442   2.734
58145W        W30493  29.464   4.435   2.719
58146W        W30494  25.058  34.475  10.569
58147W        W30495  13.270  17.166   1.746
58148W        W30496  31.124  24.010  12.965
58149W        W30497  25.962  43.818   4.196
58150W        W30498  25.159  10.377  11.112
58151W        W30499  23.568  19.604  13.953
58152W        W30500  17.141   9.703   1.924
58153W        W30501  40.464  35.914  14.907
58154W        W30502  30.118  41.434   1.313
58155W        W30503  28.634   1.271   2.285
58156W        W30504   6.901  31.585  14.981
58157W        W30505   7.287  43.838  14.912
58158W        W30506  16.785   6.244  13.019
58159W        W30507   3.247   2.353  13.316
58160W        W30508  25.072  24.498  11.952
58161W        W30509  18.249  44.376   1.369
58162W        W30510  19.745  21.237  11.566
58163W        W30511  26.989  40.901   3.670
58164W        W30512   1.809  36.542  13.487
58165W        W30513  31.508   2.388  13.935
58166W        W30514  28.611  30.157   2.749
58167W        W30515   6.387   9.257   4.693
58168W        W30516  21.030  33.414  14.969
58169W        W30517  12.714  17.727   2.378
58170W        W30518  19.660  19.579  11.461
58171W        W30519  34.973  42.306  12.849
58172W        W30520  11.227  13.189  13.009
58173W        W30521   0.886  19.174  11.395
58174W        W30522   0.373  39.049   4.729
58175W        W30523  29.096  26.027   1.231
58176W        W30524  24.985  10.194  13.493
58177W        W30525  32.088  22.180  14.478
58178W        W30526  23.241   1.876  12.852
58179W        W30527  41.962   4.804   2.693
58180W        W30528  13.712  39.505   3.342
58181W        W30529  29.501  25.164  12.570
58182W        W30530  16.803  18.151  14.492
58183W        W30531  44.346  17.068   2.200
58184W        W30532  19.539  37.037  13.363
58185W        W30533  44.942  42.400  11.385
58186W        W30534  44.994   8.329  10.575
58187W        W30535   7.360  14.764  10.917
58188W        W30536  18.746   3.229  11.072
58189W        W30537  30.109  28.079  12.379
58190W        W30538   0.365   5.313  13.458
58191W        W30539  11.621  32.963   3.685
58192W        W30540   9.241  37.947  13.314
58193W        W30541  12.332  30.551   3.774
58194W        W30542  30.559  22.643   4.235
58195W        W30543  27.667  24.695  12.938
58196W        W30544  20.063  16.237   0.468
58197W        W30545  19.192  16.218   2.811
58198W        W30546  14.300   9.686  10.471
58199W        W30547  38.019  29.005  14.897
58200W        W30548  29.446  23.604   1.212
58201W        W30549  41.827  44.281  10.566
58202W        W30550  41.398  23.563  10.454
58203W        W30551  41.448  21.182  11.094
58204W        W30552   5.241  37.409   1.752
58205W        W30553  16.077  20.628   0.276
58206W        W30554  22.604  10.822   4.124
58207W        W30555  15.717  33.030   4.799
58208W        W30556  16.596  37.505  14.842
58209W        W30557  17.801   9.684  14.394
58210W        W30558  18.700  21.667  12.032
58211W        W30559  15.590  21.176  13.964
58212W        W30560  10.379  13.735   2.209
58213W        W30561  39.389  42.822   3.160
58214W        W30562  26.569  27.639   2.868
58215W        W30563   8.778  40.931  12.458
58216W        W30564  34.476  23.620  12.054
58217W        W30565  29.125  13.350   2.406
58218W        W30566  18.070  37.349  10.586
58219W        W30567  31.647   7.401   4.328
58220W        W30568  33.570  13.131  11.489
58221W        W30569  16.605  38.015  13.810
58222W        W30570  16.117  20.062   2.370
58223W        W30571  12.305  37.373  12.530
58224W        W30572  30.104  15.324  10.907
58225W        W30573  20.596  18.737   1.440
58226W        W30574  18.147  22.615   2.785
58227W        W30575  17.678  13.325   3.198
58228W        W30576  39.922  20.140  12.453
58229W        W30577  34.430   8.665  12.381
58230W        W30578   6.877  17.772   4.626
58231W        W30579  30.457  28.982  14.908
58232W        W30580  21.516  34.116  10.522
58233W        W30581  10.722  16.786   2.399
58234W        W30582   8.160  24.191   4.718
58235W        W30583  36.436   3.342   1.732
58236W        W30584   7.206   6.198  11.997
58237W        W30585   2.244  12.287  11.554
58238W        W30586   4.900  25.711   3.719
58239W        W30587  23.529  10.738   5.114
58240W        W30588  31.427  11.750  13.862
58241W        W30589   6.819  23.695   2.217
58242W        W30590  25.525  12.694   4.773
58243W        W30591  18.102   0.827   0.810
58244W        W30592  36.515  10.758  14.966
58245W        W30593  40.826  19.732   5.108
58246W        W30594   7.336  21.138  13.493
58247W        W30595   0.284  23.676  14.016
58248W        W30596  26.587  10.835   2.740
58249W        W30597  36.521  23.032  11.966
58250W        W30598  24.211  33.615  13.056
58251W        W30599  35.448   7.746   3.772
58252W        W30600  16.801  34.533  14.823
58253W        W30601  29.510  37.350   1.363
58254W        W30602  22.144  17.656  11.071
58255W        W30603   1.240  38.514  13.833
58256W        W30604   2.883   0.755  14.377
58257W        W30605   1.823  29.028  11.050
58258W        W30606  12.855  18.051  14.957
58259W        W30607  36.431  42.993  13.360
58260W        W30608  38.863   4.862  13.922
58261W        W30609   8.863  23.121  13.393
58262W        W30610  24.589  17.656  12.988
58263W        W30611  21.513  40.326   3.371
58264W        W30612  26.602  42.948  14.889
58265W        W30613  30.453  34.935   1.839
58266W        W30614  41.800   3.315  10.537
58267W        W30615   9.857  35.396  11.560
58268W        W30616  30.067   3.460   3.287
58269W        W30617  32.923   6.375   1.905
58270W        W30618  21.550  36.961   2.399
58271W        W30619  20.733   5.220   1.251
58272W        W30620  14.706  31.035  13.457
58273W        W30621  40.402   5.917  13.475
58274W        W30622  25.643  43.478   3.352
58275W        W30623   6.750   2.818  14.515
58276W        W30624  25.012   8.888   0.823
58277W        W30625   9.669   7.277   2.841
58278W        W30626   4.213   5.765   4.602
58279W        W30627  23.999   7.676   3.256
58280W        W30628   6.843   9.719  11.113
58281W        W30629  14.752   7.772   4.264
58282W        W30630  38.037  14.754   0.335
58283W        W30631  27.003  24.158  10.502
58284W        W30632  39.828   0.422  13.886
58285W        W30633  43.769   0.376  13.047
58286W        W30634  26.107   4.759   1.920
58287W        W30635   3.388  29.583  13.835
58288W        W30636  21.130  26.589   3.826
58289W        W30637  43.908  33.500  11.019
58290W        W30638   8.227   5.194  13.885
58291W        W30639  13.600   7.399   0.471
58292W        W30640  24.670  17.721   4.645
58293W        W30641  24.083  26.131  13.959
58294W        W30642  33.997  32.114  12.376
58295W        W30643   1.878  10.349  14.865
58296W        W30644   7.352  32.530  13.476
58297W        W30645  22.094  35.933   0.755
58298W        W30646  32.531  44.003   4.311
58299W        W30647  17.624   8.296   1.438
58300W        W30648  11.761  32.518  12.015
58301W        W30649  12.125  33.918   3.265
58302W        W30650  30.561  29.553   0.256
58303W        W30651  32.970  10.857  11.607
58304W        W30652  10.814  15.590   4.769
58305W        W30653  12.835  42.809   4.667
58306W        W30654  39.348  41.966   0.814
58307W        W30655   2.241   5.232  14.999
58308W        W30656  11.635  25.087  14.280
58309W        W30657   5.708  30.624  11.094
58310W        W30658  30.583  29.922  14.964
58311W        W30659  19.267  22.095  12.506
58312W        W30660  24.584  14.296   4.261
58313W        W30661  42.875  11.730  12.912
58314W        W30662  17.569   8.670  13.906
58315W        W30663  17.072  24.481  11.403
58316W        W30664  15.593  38.943   0.362
58317W        W30665  33.593  24.076  12.387
58318W        W30666  34.546   2.412  12.925
58319W        W30667  10.199   8.824   4.785
58320W        W30668   8.661  42.337  12.972
58321W        W30669  31.981  25.014   3.809
58322W        W30670  13.683  17.110  13.363
58323W        W30671  42.478  31.510  11.126
58324W        W30672  39.377  31.481   0.483
58325W        W30673  23.574  43.278   1.326
58326W        W30674  20.695  42.312   2.708
58327W        W30675   4.815   7.737  10.560
58328W        W30676  12.232  39.411  14.495
58329W        W30677  20.042  24.636  14.506
58330W        W30678  34.004  39.381  10.630
58331W        W30679   1.287  43.477  12.379
58332W        W30680   1.761  22.618   2.242
58333W        W30681  26.622  27.478  11.113
58334W        W30682  17.802  12.233  13.350
58335W        W30683   4.773  14.291   3.286
58336W        W30684   7.769   6.905   3.316
58337W        W30685  36.884   1.308   2.195
58338W        W30686  31.569  15.727  12.016
58339W        W30687  40.463   8.308   4.659
58340W        W30688   6.872  17.677  10.582
58341W        W30689  17.744  38.964  13.854
58342W        W30690   5.287  11.345  11.603
58343W        W30691  29.056  40.440  13.493
58344W        W30692  41.901  23.182  13.934
58345W        W30693  28.107  36.920   2.736
58346W        W30694   2.943  37.902   2.753
58347W        W30695   4.253  40.419   4.127
58348W        W30696  38.475  12.240   0.263
58349W        W30697  44.300  19.589   1.878
58350W        W30698  34.908   9.725   1.338
58351W        W30699  18.214  26.008  11.467
58352W        W30700  10.774  40.939  14.024
58353W        W30701   2.458  24.532   1.310
58354W        W30702  30.123  21.194  12.369
58355W        W30703  15.716  21.563  14.923
58356W        W30704  26.605  21.618   2.349
58357W        W30705   1.905  24.712  10.540
58358W        W30706  29.484  43.938  13.985
58359W        W30707  21.527   9.765  10.575
58360W        W30708  30.637  37.062  13.334
58361W        W30709   7.371  11.814   3.871
58362W        W30710   0.361  22.212  12.987
58363W        W30711  23.005  33.962  12.040
58364W        W30712  25.583  20.543  12.537
58365W        W30713  26.197   3.876  10.956
58366W        W30714   1.286   2.783   2.769
58367W        W30715  26.159  40.439   0.285
58368W        W30716   7.415  35.027  11.084
58369W        W30717   4.353  14.230  11.437
58370W        W30718  30.060  40.450   2.842
58371W        W30719  26.141  21.123   2.781
58372W        W30720  37.883  35.535   4.324
58373W        W30721  30.484   9.780   3.727
58374W        W30722  36.924  25.517   2.900
58375W        W30723   0.921   3.247   4.623
58376W        W30724  30.100  40.400  13.503
58377W        W30725  24.562   4.434  12.383
58378W        W30726   9.331   8.853   0.844
58379W        W30727  31.937  29.944  13.063
58380W        W30728  22.025  42.439  12.467
58381W        W30729  31.095  29.049   2.227
58382W        W30730   9.349  42.294   0.293
58383W        W30731  20.067  38.343  12.080
58384W        W30732  40.799  22.544  12.561
58385W        W30733   8.243  31.538   1.216
58386W        W30734  42.493  36.883  11.586
58387W        W30735  29.095   3.739   1.812
58388W        W30736  32.523  13.743  14.919
58389W        W30737  14.811  14.103   4.642
58390W        W30738  11.849  35.370   4.121
58391W        W30739  36.549  19.690  11.985
58392W        W30740  36.856   4.351  12.886
58393W        W30741  43.293  24.591  12.909
58394W        W30742   9.235   5.422  13.462
58395W        W30743  10.712  24.060  11.579
58396W        W30744   0.467  27.466  12.886
58397W        W30745  37.835   6.296  12.909
58398W        W30746   4.813  24.516   2.255
58399W        W30747  41.295  26.680   1.907
58400W        W30748  25.143   8.233  13.983
58401W        W30749  32.462  24.492   1.403
58402W        W30750  30.942  19.638   1.737
58403W        W30751  19.108  28.665  13.508
58404W        W30752   1.240  42.015  10.538
58405W        W30753  15.117  15.646   5.293
58406W        W30754   0.765  18.640   0.316
58407W        W30755  29.495  30.480   4.335
58408W        W30756  35.546  38.491   3.277
58409W        W30757  26.460  20.570   1.390
58410W        W30758  44.818  42.880   3.843
58411W        W30759  20.583  35.045   3.697
58412W        W30760  29.472  40.395  11.521
58413W        W30761  23.724  31.481  11.906
58414W        W30762  40.912  17.653   3.794
58415W        W30763  44.349  40.438  13.408
58416W        W30764  13.821  39.513   2.363
58417W        W30765  41.519  18.618  14.004
58418W        W30766  41.873  23.645   5.289
58419W        W30767  35.947   0.955  14.915
58420W        W30768  43.992  27.948   1.822
58421W        W30769  20.607  30.131  12.488
58422W        W30770  21.694  21.730  10.498
58423W        W30771  31.021   8.361   4.252
58424W        W30772  11.777  28.625  13.328
58425W        W30773  18.060  44.484  12.976
58426W        W30774  22.079  23.099  12.545
58427W        W30775  23.640  42.363   2.863
58428W        W30776   4.442   4.782  10.109
58429W        W30777  14.806  41.464  11.030
58430W        W30778  33.413  19.749   0.248
58431W        W30779  35.109  33.095   4.328
58432W        W30780  37.950  21.242   5.191
58433W        W30781  12.241  20.046   3.723
58434W        W30782   0.823  15.290  12.989
58435W        W30783  41.426   1.388  10.918
58436W        W30784   2.311  38.396  14.813
58437W        W30785  42.428   7.672   4.354
58438W        W30786  39.873  25.139   4.666
58439W        W30787   0.251  41.298   3.356
58440W        W30788  14.303  42.949   1.328
58441W        W30789  22.665  26.093   4.249
58442W        W30790  11.132   5.410   1.919
58443W        W30791  44.850  26.054  12.427
58444W        W30792   6.304  17.228  10.618
58445W        W30793  27.137  26.989  10.597
58446W        W30794  17.630  29.637   2.779
58447W        W30795  19.234  38.385   0.775
58448W        W30796  12.616   1.731  11.008
58449W        W30797  12.834  14.684  14.937
58450W        W30798   1.394  13.337   2.856
58451W        W30799  20.255  19.151  10.538
58452W        W30800  43.884  12.215  14.887
58453W        W30801   9.739  41.346  12.065
58454W        W30802   8.854  44.988   3.203
58455W        W30803  42.333  44.459  12.847
58456W        W30804  19.143  33.597   1.877
58457W        W30805   1.836  21.731   3.206
58458W        W30806  14.156   9.204   1.313
58459W        W30807  15.271  16.255   0.366
58460W        W30808   9.719  30.066  10.887
58461W        W30809  26.462   1.965  14.873
58462W        W30810  11.267  40.035  13.048
58463W        W30811   9.256  11.158  11.074
58464W        W30812  14.285  14.339   1.804
58465W        W30813   4.779  43.348  14.974
58466W        W30814  13.307   5.872   4.310
58467W        W30815  30.507   9.275  11.867
58468W        W30816  42.031  19.711   1.245
58469W        W30817   7.414  13.718   3.290
58470W        W30818  12.281  32.019  12.883
58471W        W30819  12.684   6.807  14.307
58472W        W30820  35.550   2.792  10.521
58473W        W30821  23.596  24.617   3.280
58474W        W30822  13.121  42.813  14.832
58475W        W30823  42.876  31.071   4.347
58476W        W30824   9.314  29.513   1.835
58477W        W30825   7.354  23.623  11.995
58478W        W30826  26.057  24.220   0.792
58479W        W30827  31.942  32.019  14.474
58480W        W30828  17.642  24.607  14.406
58481W        W30829  18.283  44.813  11.032
58482W        W30830  17.082  36.871   3.724
58483W        W30831  39.501  13.745   1.734
58484W        W30832  37.539  14.236  10.523
58485W        W30833   7.387  11.664   5.210
58486W        W30834  20.057  35.376   0.790
58487W        W30835   5.330  39.810  13.809
58488W        W30836  26.122  10.319  14.020
58489W        W30837  36.077   9.794   1.816
58490W        W30838  40.506  43.515   2.666
58491W        W30839  24.143  16.680   2.243
58492W        W30840  18.686   4.924   2.843
58493W        W30841   7.784  39.475  11.481
58494W        W30842  29.119  10.373  14.412
58495W        W30843  26.565  12.769  12.905
58496W        W30844  40.389   1.316   1.894
58497W        W30845   2.809  28.162   1.840
58498W        W30846  16.808  15.158   4.232
58499W        W30847   2.253  30.006  13.365
58500W        W30848  21.733  20.656   2.741
58501W        W30849  20.585  26.467  14.416
58502W        W30850  35.015  32.139   2.673
58503W        W30851  39.940  29.978  10.551
58504W        W30852  27.947  10.308   9.980
58505W        W30853   3.375  21.724   2.698
58506W        W30854  15.277  27.031   3.665
58507W        W30855  17.713  44.930  14.885
58508W        W30856  27.191  27.559   0.851
58509W        W30857  22.664   2.802  14.977
58510W        W30858  10.152   4.741  12.956
58511W        W30859  33.425  31.406   3.325
58512W        W30860  15.593  17.715   2.664
58513W        W30861   9.196  15.187  11.933
58514W        W30862   3.341  40.395   3.725
58515W        W30863  24.053  34.967  13.373
58516W        W30864   7.736  24.705  12.962
58517W        W30865  27.192  34.070   0.900
58518W        W30866  34.467   1.938  11.372
58519W        W30867   8.346  30.162  11.547
58520W        W30868  14.327  32.620   1.874
58521W        W30869  32.599  29.533   1.399
58522W        W30870   4.307  38.455  10.626
58523W        W30871  41.333   3.232  13.521
58524W        W30872  33.602   2.382  10.158
58525W        W30873   6.355  18.711   9.927
58526W        W30874  19.568  32.454   0.307
58527W        W30875  41.524   5.200  11.943
58528W        W30876  28.138  19.653   0.276
58529W        W30877   4.378  31.941  13.933
58530W        W30878   1.240  21.022  14.332
58531W        W30879  42.984  17.078  14.887
58532W        W30880  28.665  19.104   0.248
58533W        W30881  24.621  12.223   3.201
58534W        W30882  20.149  36.872  11.034
58535W        W30883   3.888  26.199  12.394
58536W        W30884  11.181  35.536  13.019
58537W        W30885  22.695  33.564  13.308
58538W        W30886  39.473  24.700   4.242
58539W        W30887  36.088  24.598   2.879
58540W        W30888  36.921  43.338  11.976
58541W        W30889   4.263   6.840   1.415
58542W        W30890  16.776   5.213  13.547
58543W        W30891  41.039  14.209   2.269
58544W        W30892   6.766  34.872   1.393
58545W        W30893  36.415   2.783   3.823
58546W        W30894  23.594  29.009   3.386
58547W        W30895  40.456   8.741  14.439
58548W        W30896   2.722  35.001   0.321
58549W        W30897  42.946  38.980   5.091
58550W        W30898  12.629  19.117   3.146
58551W        W30899  18.712  14.794  10.561
58552W        W30900  42.433  30.137   1.347
58553W        W30901  37.388  20.674  10.446
58554W        W30902  11.214   2.392  10.527
58555W        W30903  13.775  30.972   2.214
58556W        W30904   5.826   7.670   1.739
58557W        W30905  35.045   1.908  13.825
58558W        W30906  41.489  29.532   2.198
58559W        W30907  12.292  13.708  12.902
58560W        W30908  41.420  38.962  13.808
58561W        W30909  15.664  35.380   1.867
58562W        W30910   5.402  43.353   2.211
58563W        W30911  28.526  15.176   0.385
58564W        W30912  20.546  14.218   4.215
58565W        W30913   0.433  42.290  11.502
58566W        W30914  30.569  31.585   0.329
58567W        W30915   5.293  29.558  12.009
58568W        W30916  16.135  32.990   1.887
58569W        W30917   3.933  35.973  14.888
58570W        W30918  30.658  22.676   2.180
58571W        W30919  35.073   3.414  13.845
58572W        W30920  37.841  26.526  12.363
58573W        W30921  41.295  15.091  10.541
58574W        W30922  29.951  30.447   1.268
58575W        W30923  26.073  16.725   2.812
58576W        W30924  31.597   4.822   0.945
58577W        W30925  44.959  15.152  13.967
58578W        W30926  36.871  34.992  13.063
58579W        W30927  17.633   9.254  10.903
58580W        W30928   4.446  27.521  13.455
58581W        W30929  25.141  14.188  12.083
58582W        W30930  33.380   3.788  14.291
58583W        W30931   3.430  40.843   4.806
58584W        W30932  44.953  35.401   0.460
58585W        W30933  32.966  39.483  10.980
58586W        W30934  23.151  29.508   0.782
58587W        W30935   7.757  33.957   4.248
58588W        W30936  21.207  39.920   3.197
58589W        W30937  19.754  39.938   1.287
58590W        W30938  41.853   6.815  14.972
58591W        W30939   2.770  29.070  12.514
58592W        W30940  44.947  28.031  13.997
58593W        W30941  24.149  25.557   0.315
58594W        W30942  41.030  17.156  10.953
58595W        W30943  28.185   7.790   3.723
58596W        W30944  29.146  26.961   4.239
58597W        W30945  34.531  25.186   2.298
58598W        W30946  27.098  44.760  14.433
58599W        W30947  41.405  14.286  11.127
58600W        W30948  33.433   9.864   4.340
58601W        W30949   3.388   7.410  13.942
58602W        W30950   2.332  40.446   1.708
58603W        W30951  15.249  19.106  13.530
58604W        W30952  29.078  38.911   1.249
58605W        W30953   4.377  11.228   0.851
58606W        W30954  20.254  34.514   4.769
58607W        W30955  25.684   4.413  11.574
58608W        W30956  21.589  32.037  14.829
58609W        W30957  18.052  37.362   0.729
58610W        W30958  16.735  35.956   2.782
58611W        W30959  16.256  36.538   3.780
58612W        W30960  30.929  14.820   4.183
58613W        W30961   8.838   4.781  12.912
58614W        W30962   6.853  25.662  14.374
58615W        W30963   6.738  42.931  12.872
58616W        W30964  28.057  42.843   2.380
58617W        W30965   6.710  30.433   5.201
58618W        W30966  29.134   6.755   3.667
58619W        W30967  16.720  25.519  14.509
58620W        W30968  27.550  29.641  10.588
58621W        W30969  25.580  25.048  13.893
58622W        W30970  42.462  41.499  13.927
58623W        W30971  42.294  25.150   1.338
58624W        W30972  36.386  39.027   0.905
58625W        W30973  21.215  27.498  12.915
58626W        W30974  15.254  39.856  11.905
58627W        W30975  19.576   3.814   5.141
58628W        W30976  11.200   7.879   1.442
58629W        W30977  36.043   5.408  13.907
58630W        W30978  20.257  32.926  13.954
58631W        W30979  35.455   8.869   2.696
58632W        W30980   1.875  11.819   4.615
58633W        W30981  21.131  43.485  14.429
58634W        W30982  34.369  22.541   4.796
58635W        W30983  39.544  38.917  14.426
58636W        W30984  23.998  33.129   0.273
58637W        W30985   5.759   0.767  12.949
58638W        W30986   3.358  42.334   2.241
58639W        W30987  43.928  31.141  12.421
58640W        W30988  17.230  20.546   0.934
58641W        W30989  31.040   4.420  10.623
58642W        W30990  21.752  42.405  13.906
58643W        W30991  12.611   5.855  14.830
58644W        W30992  20.699   3.810   3.327
58645W        W30993  31.951  10.782  10.607
58646W        W30994  15.188  23.042  14.499
58647W        W30995  41.436  40.023   1.714
58648W        W30996  26.018   8.169  10.987
58649W        W30997  38.990  22.636  12.381
58650W        W30998   4.443  36.446  14.780
58651W        W30999  29.941  15.691  14.431
58652W        W31000  30.003  42.343   4.162
58653W        W31001   9.806   9.683   1.412
58654W        W31002   7.218  31.629   9.972
58655W        W31003   7.332   0.247   1.255
58656W        W31004  19.108  34.525  13.427
58657W        W31005   4.828  42.420  11.037
58658W        W31006  15.236   9.333  12.888
58659W        W31007  10.190   6.775   3.640
58660W        W31008   3.894   9.753   1.255
58661W        W31009  16.683  36.541  14.952
58662W        W31010  28.934  29.577   4.700
58663W        W31011  25.006  26.196  12.946
58664W        W31012  13.688  12.813   0.847
58665W        W31013  39.494  13.640  10.582
58666W        W31014  18.119  29.973  11.926
58667W        W31015  41.522  43.016   3.697
58668W        W31016  27.487   1.820   1.328
58669W        W31017  25.169  42.315  13.324
58670W        W31018  15.589   3.417   0.331
58671W        W31019  35.596  15.766   2.184
58672W        W31020  20.684  38.563  14.910
58673W        W31021  10.823   7.390   2.890
58674W        W31022  25.571  38.904  12.449
58675W        W31023  32.510   8.226  14.780
58676W        W31024  22.098  36.409  13.497
58677W        W31025  29.656   7.788  12.925
58678W        W31026   0.874  38.836  11.941
58679W        W31027  44.979  23.582  11.005
58680W        W31028  29.508  25.173  14.434
58681W        W31029   6.848  14.741  14.910
58682W        W31030  29.128  11.367   1.236
58683W        W31031  21.579  40.918  11.916
58684W        W31032  29.478   8.886   0.246
58685W        W31033  15.168  30.138   2.746
58686W        W31034  12.189  39.551   4.124
58687W        W31035  31.001  10.836  13.790
58688W        W31036  15.658   9.246   3.251
58689W        W31037  35.090  18.190  14.424
58690W        W31038  38.894  14.134   5.238
58691W        W31039  22.120  34.118  12.986
58692W        W31040  24.990  30.556   2.670
58693W        W31041  27.537  21.238  10.494
58694W        W31042  29.470  40.008   2.309
58695W        W31043  16.607   0.353  14.322
58696W        W31044  34.051  30.528  12.449
58697W        W31045  32.517  34.371  12.963
58698W        W31046  11.852  28.150   2.667
58699W        W31047  15.206  19.691   0.783
58700W        W31048  36.035  16.719   4.140
58701W        W31049  22.685  15.616  14.279
58702W        W31050   6.793  24.616  14.405
58703W        W31051   8.885  23.061   1.878
58704W        W31052  13.646  12.144   0.733
58705W        W31053   5.821  35.070  10.428
58706W        W31054  42.358  28.943   3.216
58707W        W31055   7.338  30.443  14.029
58708W        W31056  38.050  37.357  11.011
58709W        W31057  24.126   9.210   1.730
58710W        W31058  27.026   8.805   1.789
58711W        W31059   2.945  23.693  14.923
58712W        W31060  36.396  34.954  11.124
58713W        W31061   6.779  15.798   4.792
58714W        W31062  14.713  33.083   2.202
58715W        W31063  21.579  16.098  13.791
58716W        W31064  18.138  14.643  12.997
58717W        W31065  42.419  40.466  11.581
58718W        W31066  28.647  28.138   4.257
58719W        W31067  37.525  38.437   4.137
58720W        W31068  21.690  34.891  11.604
58721W        W31069   0.456  27.612   2.847
58722W        W31070  39.962  33.068   3.303
58723W        W31071  26.587  42.974  14.500
58724W        W31072   2.905  33.880  11.972
58725W        W31073  23.107  24.196  14.768
58726W        W31074  19.075   0.958   4.302
58727W        W31075  13.288  15.713  11.987
58728W        W31076  15.188   8.236  10.417
58729W        W31077  35.862  23.157   4.265
58730W        W31078  28.505  23.622  12.947
58731W        W31079   5.367   3.425   1.892
58732W        W31080  41.993   6.835   3.195
58733W        W31081  44.315  10.346  10.537
58734W        W31082  44.404  13.763  14.845
58735W        W31083  23.663  43.429  14.809
58736W        W31084  31.443  19.221  11.547
58737W        W31085  43.946  39.343  13.045
58738W        W31086  28.478  33.560  12.481
58739W        W31087  12.724  30.096  13.541
58740W        W31088   4.354  41.330   2.255
58741W        W31089  43.797   5.406  12.358
58742W        W31090  15.117  11.754   2.280
58743W        W31091  37.490  34.511   3.183
58744W        W31092  35.376  34.055   2.364
58745W        W31093  17.228  20.670   3.206
58746W        W31094  37.488  26.135  10.054
58747W        W31095  33.444  25.558   0.283
58748W        W31096  43.825  40.845   3.289
58749W        W31097  21.530  23.573  14.925
58750W        W31098  33.404  21.608   5.145
58751W        W31099  38.068   0.304  12.378
58752W        W31100  22.037  19.670   3.821
58753W        W31101  26.491  14.174  14.967
58754W        W31102  35.470  29.440   2.699
58755W        W31103  11.836  13.348   0.789
58756W        W31104  30.478  42.821  11.403
58757W        W31105  21.236  35.044   4.290
58758W        W31106  43.809  28.020  12.361
58759W        W31107  16.634   4.246  12.372
58760W        W31108  25.580   8.201   4.238
58761W        W31109  32.899   3.351  10.974
58762W        W31110  37.488  34.495   0.452
58763W        W31111   3.399  17.163  14.344
58764W        W31112   4.775  31.418   3.382
58765W        W31113   4.784  42.957  11.538
58766W        W31114   4.218   2.293   2.380
58767W        W31115   3.824  19.044   0.345
58768W        W31116  16.801  22.725   0.941
58769W        W31117  32.450  38.838   4.126
58770W        W31118  44.367  27.536   1.806
58771W        W31119  34.429  26.571  10.602
58772W        W31120  11.240  28.052  11.384
58773W        W31121   1.907  12.201  10.927
58774W        W31122  15.674  21.046   4.146
58775W        W31123  30.997  35.534   2.269
58776W        W31124  30.161  42.400   3.184
58777W        W31125   7.895  29.085   2.350
58778W        W31126   7.172  14.121  11.909
58779W        W31127  35.546  11.768   4.703
58780W        W31128  18.723  42.978  10.450
58781W        W31129  35.488  36.995   3.839
58782W        W31130  44.421  35.029  14.366
58783W        W31131  35.516  39.901   1.871
58784W        W31132  39.418   1.800   0.808
58785W        W31133  17.160  18.232   1.299
58786W        W31134  20.590   2.864   2.667
58787W        W31135   7.712   8.854   5.322
58788W        W31136  11.231   9.669  14.947
58789W        W31137  13.187   2.913   1.223
58790W        W31138  38.048  36.459  13.820
58791W        W31139  34.864   0.362  14.513
58792W        W31140  14.142  28.174  13.833
58793W        W31141   2.251   3.410   2.279
58794W        W31142  16.173  22.092  12.454
58795W        W31143  11.277  32.544  11.932
58796W        W31144  29.041  17.280  14.964
58797W        W31145  36.019  21.246   9.995
58798W        W31146  17.615  33.080  12.936
58799W        W31147  24.176  22.744  13.855
58800W        W31148  26.136   1.732  11.903
58801W        W31149  32.536  42.806   3.655
58802W        W31150  19.639  14.289   2.187
58803W        W31151   2.762   0.793   3.757
58804W        W31152  28.033  27.675  13.392
58805W        W31153  17.581  44.318   1.849
58806W        W31154  28.184  17.765  14.478
58807W        W31155  10.863  30.429   2.199
58808W        W31156   5.203  11.755  14.393
58809W        W31157   1.747  36.447   2.261
58810W        W31158   8.390  17.637   3.870
58811W        W31159   7.171  15.251   4.607
58812W        W31160  42.429   2.761   0.396
58813W        W31161  10.723  21.725   3.675
58814W        W31162   6.867  14.747  10.931
58815W        W31163  43.781  25.103  12.360
58816W        W31164  19.571   0.349   0.838
58817W        W31165  40.013  25.653  11.607
58818W        W31166  40.824  24.492   4.143
58819W        W31167  42.404  21.263   3.752
58820W        W31168  34.010  22.534   2.236
58821W        W31169   0.825   4.834   5.134
58822W        W31170  29.035   7.744  10.912
58823W        W31171  44.958  26.008  14.977
58824W        W31172  14.731   2.914   1.824
58825W        W31173   3.711  10.266  11.986
58826W        W31174  26.054   1.436   4.813
58827W        W31175  17.291   9.682  10.132
58828W        W31176  33.907   1.973   0.907
58829W        W31177   2.351  33.050   2.195
58830W        W31178  26.502  16.573   0.925
58831W        W31179  31.511  42.288  10.595
58832W        W31180  35.468  18.120   0.765
58833W        W31181  23.638  18.107  14.888
58834W        W31182  32.502  10.632   2.765
58835W        W31183  17.062  12.280  14.299
58836W        W31184  22.663  16.673  14.769
58837W        W31185  17.251  19.746   5.295
58838W        W31186  14.666   8.884  13.909
58839W        W31187   2.898  10.218   3.264
58840W        W31188  21.020  31.007   4.328
58841W        W31189  24.624   0.813   3.247
58842W        W31190   3.862  16.152  12.516
58843W        W31191  21.570  36.439  10.495
58844W        W31192  27.672   6.424   0.743
58845W        W31193  43.976   6.805   2.677
58846W        W31194   8.686  36.492   4.161
58847W        W31195   4.881  18.652   5.213
58848W        W31196  37.044  12.261   0.301
58849W        W31197  17.137  24.098  14.471
58850W        W31198  19.142  14.251  10.485
58851W        W31199  24.082  43.802  12.003
58852W        W31200   8.656  22.014   9.593
58853W        W31201  41.889   4.874   3.387
58854W        W31202   4.741  24.171   2.708
58855W        W31203  38.020  19.692  11.073
58856W        W31204  19.174  18.659   1.730
58857W        W31205  38.426  40.481   0.308
58858W        W31206  44.990  11.336   1.700
58859W        W31207  42.853  24.208  11.505
58860W        W31208  27.982   6.198   4.691
58861W        W31209  26.101  34.547   3.378
58862W        W31210  26.996  36.073  13.010
58863W        W31211  11.759  26.154  12.386
58864W        W31212  41.891  35.460   4.114
58865W        W31213  21.160  16.209   0.951
58866W        W31214   6.731  21.565   4.201
58867W        W31215  11.817  44.434  12.063
58868W        W31216   9.160  21.210  13.473
58869W        W31217  31.604  34.390   4.685
58870W        W31218  41.395  18.557  11.075
58871W        W31219  44.425  31.514   0.774
58872W        W31220  26.540  38.457   0.340
58873W        W31221  27.144  16.692   4.723
58874W        W31222  12.247  39.054  12.035
58875W        W31223  44.801  40.933   2.865
58876W        W31224  27.034  38.945   0.362
58877W        W31225  29.593  15.688  13.479
58878W        W31226  44.855  18.255  11.888
58879W        W31227  29.052  24.206  14.972
58880W        W31228  31.911   3.773  14.389
58881W        W31229  31.967  38.826  12.096
58882W        W31230  36.576   5.891  13.392
58883W        W31231  16.286   6.335  12.906
58884W        W31232  35.885   4.398  14.020
58885W        W31233   4.221  25.093  14.931
58886W        W31234  39.811  43.508   0.282
58887W        W31235  38.935  40.481  10.923
58888W        W31236  19.092  25.164  13.337
58889W        W31237  11.169  14.256   2.184
58890W        W31238  43.376  19.255  11.031
58891W        W31239  13.671  25.527  13.012
58892W        W31240   9.333  14.130  10.023
58893W        W31241  26.969   9.693   3.812
58894W        W31242  25.520  40.922   4.270
58895W        W31243  27.148  21.586  11.470
58896W        W31244  38.384  42.490   1.723
58897W        W31245  24.573  28.969  11.857
58898W        W31246  35.542  38.450  11.571
58899W        W31247  36.074  44.823  12.061
58900W        W31248   6.204  32.553  14.288
58901W        W31249  28.035  17.590  11.373
58902W        W31250  15.735  34.978   4.674
58903W        W31251  10.876  42.370  13.480
58904W        W31252  30.990  34.542   3.231
58905W        W31253  29.015  20.717   0.404
58906W        W31254  28.156  22.028  12.460
58907W        W31255  27.019   1.824   1.350
58908W        W31256  40.317  26.609  11.980
58909W        W31257  34.576  17.138  12.474
58910W        W31258   5.901  10.189   3.310
58911W        W31259  41.970   1.913  11.975
58912W        W31260  18.131   3.357  10.910
58913W        W31261   9.216   2.760  11.105
58914W        W31262  22.524   9.274   1.791
58915W        W31263  17.773  34.468  13.369
58916W        W31264  25.138  42.468  10.412
58917W        W31265  25.015  25.037  14.391
58918W        W31266  28.077  10.858   0.358
58919W        W31267  31.417   0.885   0.757
58920W        W31268  11.843  20.150  12.457
58921W        W31269  34.869  43.884   1.904
58922W        W31270  25.507  36.552  12.022
58923W        W31271  33.005  20.127  13.502
58924W        W31272  33.942  19.255   2.806
58925W        W31273  23.120   5.335   3.825
58926W        W31274   7.257  17.276  11.049
58927W        W31275  18.677  22.502  14.026
58928W        W31276  20.666  25.624  12.916
58929W        W31277  19.142  21.663  10.485
58930W        W31278  17.755   1.847  14.505
58931W        W31279   5.758  44.344  13.474
58932W        W31280  37.448  33.500  13.490
58933W        W31281   3.375  15.263   2.309
58934W        W31282  43.884  37.854  10.628
58935W        W31283  25.689  44.893  10.586
58936W        W31284   1.834  43.428  12.429
58937W        W31285   9.277   4.218  11.505
58938W        W31286   2.405  22.581  14.931
58939W        W31287  16.615  44.848  13.909
58940W        W31288   5.266  36.920   3.247
58941W        W31289  41.392  10.158   2.316
58942W        W31290  18.263  37.541  14.393
58943W        W31291  17.227  26.121  13.796
58944W        W31292  16.133   3.896   3.221
58945W        W31293  42.462  34.547   4.618
58946W        W31294  13.683  37.515   1.333
58947W        W31295  14.655  23.600  11.485
58948W        W31296  25.614  31.572  12.568
58949W        W31297  11.269  44.821  13.505
58950W        W31298  43.300  20.217   0.824
58951W        W31299  44.910  30.911   2.827
58952W        W31300  39.514   3.259  12.069
58953W        W31301  25.559  14.160  12.033
58954W        W31302   5.786  16.672  11.055
58955W        W31303  11.631   0.936  11.409
58956W        W31304  17.084   0.800   1.334
58957W        W31305  14.806   0.879  13.060
58958W        W31306  12.321  30.133   4.699
58959W        W31307  27.031  11.804   4.763
58960W        W31308  10.212  28.576  13.958
58961W        W31309  26.622  33.905   2.297
58962W        W31310   5.412  27.112   2.409
58963W        W31311  25.522   2.254  11.121
58964W        W31312  28.655  28.973   1.260
58965W        W31313   9.149   6.363  12.061
58966W        W31314  27.060  16.121  11.580
58967W        W31315  17.073  20.700   9.984
58968W        W31316  31.147  37.477  14.498
58969W        W31317  35.936  20.639   4.706
58970W        W31318  26.142  36.061  14.998
58971W        W31319  18.244  41.392  14.833
58972W        W31320  21.083  24.510   0.949
58973W        W31321  13.245  30.575   4.225
58974W        W31322   5.265  13.234  11.946
58975W        W31323  17.653  13.281   1.729
58976W        W31324   9.875  25.661   2.257
58977W        W31325   7.251  34.065  11.582
58978W        W31326  40.988   0.819  10.635
58979W        W31327   9.159   9.863  10.640
58980W        W31328  16.686  39.387   4.254
58981W        W31329   7.804  40.942   1.411
58982W        W31330   9.157   7.856  10.974
58983W        W31331   6.313  27.445   4.669
58984W        W31332  44.391   4.745  12.390
58985W        W31333  28.107  13.267   1.854
58986W        W31334  13.651  10.365   4.662
58987W        W31335   3.931  12.717  11.380
58988W        W31336   1.250   0.329   2.216
58989W        W31337  20.669  22.548  14.801
58990W        W31338  10.294   1.265   3.747
58991W        W31339  44.440   0.462   1.276
58992W        W31340  41.915   6.311   1.375
58993W        W31341   9.674  24.095  14.851
58994W        W31342  22.025   7.752  14.884
58995W        W31343   7.203  15.769   2.694
58996W        W31344  34.460   3.754  14.496
58997W        W31345   5.365  43.303  10.445
58998W        W31346  26.071  29.591   4.772
58999W        W31347  36.959  28.169  11.414
59000W        W31348  15.582   2.450   1.848
59001W        W31349  12.158  22.582   0.766
59002W        W31350   1.429   7.807   1.341
59003W        W31351  14.816  18.105  11.100
59004W        W31352  38.940  27.495  11.062
59005W        W31353   4.336  12.823  11.918
59006W        W31354  15.142  23.726  11.980
59007W        W31355  25.049   2.847   1.727
59008W        W31356   4.335   1.364  11.484
59009W        W31357  17.693   5.859  11.461
59010W        W31358   6.835   8.883   4.598
59011W        W31359  22.063  16.733   3.705
59012W        W31360  10.803  22.189   1.341
59013W        W31361  31.459  34.088  11.540
59014W        W31362  39.538  16.125   2.776
59015W        W31363  42.296  17.224  14.991
59016W        W31364  40.033   4.256  14.789
59017W        W31365   0.919   5.384  13.948
59018W        W31366  33.058   6.225  12.398
59019W        W31367  27.656  26.161  14.825
59020W        W31368  37.564   2.443  10.980
59021W        W31369   5.868  35.524  14.900
59022W        W31370   0.804  44.786   1.710
59023W        W31371  32.025  31.024  13.317
59024W        W31372  22.538  32.428  10.467
59025W        W31373  33.036  17.625  10.442
59026W        W31374  28.183  40.305  14.810
59027W        W31375  32.618  18.786   1.214
59028W        W31376   7.790  31.560  12.911
59029W        W31377   4.818   0.434  13.016
59030W        W31378   2.790  39.957   1.210
59031W        W31379  28.477  30.590   1.280
59032W        W31380  19.636  15.227  13.010
59033W        W31381  35.530   4.272   0.890
59034W        W31382  43.457  29.501   2.695
59035W        W31383  22.568  12.815  13.460
59036W        W31384   2.957  38.014   3.208
59037W        W31385   0.486  10.666  11.101
59038W        W31386  33.922  11.733  11.878
59039W        W31387   9.261  40.354  12.531
59040W        W31388  37.424  27.528  11.865
59041W        W31389   4.739  23.666   2.794
59042W        W31390   9.879  39.983  11.459
59043W        W31391  25.188  29.059  13.504
59044W        W31392  34.028   8.376  12.394
59045W        W31393  42.833  41.461   1.337
59046W        W31394  42.965   4.938   4.618
59047W        W31395  39.513   5.775   1.897
59048W        W31396  35.438  36.051   2.863
59049W        W31397   4.842  35.885   1.411
59050W        W31398  35.049  12.801   4.615
59051W        W31399  36.432  19.772  14.902
59052W        W31400  39.059  41.853   0.377
59053W        W31401  23.200  17.139  10.409
59054W        W31402  21.554  42.421  14.921
59055W        W31403  17.270   8.271   4.658
59056W        W31404  32.899   1.357   2.410
59057W        W31405   3.273  27.158   4.319
59058W        W31406  18.245   6.260  13.821
59059W        W31407   9.807   9.731  14.920
59060W        W31408  25.626  42.996  10.480
59061W        W31409  24.542  39.866  12.507
59062W        W31410   1.295   4.365  12.929
59063W        W31411   8.861  41.346   4.688
59064W        W31412  21.566  27.529   1.729
59065W        W31413  32.624   7.174  10.551
59066W        W31414   6.771  40.338   3.161
59067W        W31415   4.311  22.028   2.804
59068W        W31416  41.002  15.651   0.461
59069W        W31417  37.429  30.016  10.523
59070W        W31418  32.508  36.075   0.933
59071W        W31419  31.454  34.444   2.390
59072W        W31420  18.625  21.749   0.255
59073W        W31421  11.806   5.201   3.205
59074W        W31422   1.872  15.779   0.779
59075W        W31423  32.017  33.035  13.013
59076W        W31424  31.096   5.820   3.827
59077W        W31425  42.349  22.594  12.500
59078W        W31426  25.204   9.864  12.939
59079W        W31427  44.756  19.711  14.328
59080W        W31428  27.948  12.853   2.799
59081W        W31429  36.471  20.154   3.700
59082W        W31430   8.687  41.443   2.318
59083W        W31431  16.175  13.237  10.976
59084W        W31432  31.034   3.452  12.033
59085W        W31433   3.359   5.278  11.966
59086W        W31434  11.695  40.350   2.342
59087W        W31435  17.725  27.537  13.433
59088W        W31436  33.036  42.293   0.308
59089W        W31437  26.183  29.630   3.165
59090W        W31438   0.948  10.203   3.792
59091W        W31439  28.502  39.816   2.386
59092W        W31440  33.613   6.692  10.987
59093W        W31441   5.799  30.920   4.247
59094W        W31442  33.456  22.176   4.342
59095W        W31443  40.024  38.353  10.554
59096W        W31444  33.964  37.044  12.446
59097W        W31445  19.101  19.232  10.913
59098W        W31446  17.147  23.537  11.873
59099W        W31447   3.935  37.920   2.267
59100W        W31448  31.023  35.898  12.035
59101W        W31449   4.888  19.106  14.859
59102W        W31450   4.893  19.173  10.458
59103W        W31451  15.262  42.811   4.114
59104W        W31452   1.269  17.614  13.363
59105W        W31453  40.862   5.773   2.195
59106W        W31454  38.327   7.907   5.089
59107W        W31455   0.459  25.109   2.216
59108W        W31456  34.593  23.086   3.313
59109W        W31457  13.812  22.064   2.823
59110W        W31458  26.988  25.965   0.319
59111W        W31459  29.951  17.192  10.970
59112W        W31460   5.750  43.019  11.098
59113W        W31461  22.673  24.116  13.883
59114W        W31462  18.682  24.057  14.794
59115W        W31463  25.042  31.126  14.277
59116W        W31464   2.262  28.041  10.458
59117W        W31465  30.416   9.313   2.828
59118W        W31466  31.925  36.913  12.940
59119W        W31467  39.538  44.940  10.470
59120W        W31468  26.537   7.380   4.184
59121W        W31469   8.381   7.716   2.352
59122W        W31470  15.227  33.571   2.802
59123W        W31471   0.264  18.676  14.297
59124W        W31472   7.710   5.733   4.633
59125W        W31473  35.923  38.861   2.889
59126W        W31474   9.253  28.443  14.908
59127W        W31475  37.389  21.727  14.020
59128W        W31476   5.416   2.438  13.809
59129W        W31477  23.509  40.363  11.472
59130W        W31478   4.853  42.360   3.773
59131W        W31479  18.251  33.465  10.935
59132W        W31480  30.416  11.325  12.948
59133W        W31481  17.591  33.561  14.889
59134W        W31482  13.675  20.087   2.803
59135W        W31483  43.850  38.885   3.854
59136W        W31484  23.019   4.912  10.467
59137W        W31485  21.698  21.196  10.497
59138W        W31486  24.640  41.010   3.791
59139W        W31487  20.622  20.693  13.530
59140W        W31488  34.079  44.394   1.905
59141W        W31489   1.284   4.720  11.961
59142W        W31490  41.346  17.630  12.946
59143W        W31491  27.497  20.707   3.863
59144W        W31492   2.730  34.452   1.757
59145W        W31493  30.962   2.887   2.207
59146W        W31494  38.870  25.519   0.833
59147W        W31495  35.464  25.163  11.058
59148W        W31496  26.676  26.592   2.290
59149W        W31497  10.693  30.483  12.888
59150W        W31498  37.028  26.459   4.614
59151W        W31499   8.858  34.987  11.961
59152W        W31500  16.756   2.825  13.333
59153W        W31501  29.537  43.469   3.812
59154W        W31502  32.399  32.527  14.915
59155W        W31503  31.581  10.351   2.884
59156W        W31504  18.101  11.200   2.357
59157W        W31505  36.580  21.575  14.467
59158W        W31506  13.820   2.914   2.827
59159W        W31507  43.821  44.923  10.460
59160W        W31508  13.711  11.160   3.295
59161W        W31509  29.430   3.712   0.293
59162W        W31510  34.891  22.591  13.342
59163W        W31511  34.960   4.223  14.374
59164W        W31512  42.957  31.458   0.388
59165W        W31513  39.514  34.571   4.702
59166W        W31514   4.409  32.498   3.216
59167W        W31515  33.909  35.869   4.632
59168W        W31516  38.420   2.792  13.020
59169W        W31517  31.058  33.412   5.104
59170W        W31518  41.390  12.345   4.217
59171W        W31519   2.947  44.331  10.443
59172W        W31520  30.629  37.548  14.914
59173W        W31521  19.059  29.632   2.249
59174W        W31522  39.882  34.608   3.222
59175W        W31523  16.620   7.809  13.379
59176W        W31524  16.153  34.924  12.066
59177W        W31525  10.756   2.234   2.336
59178W        W31526   0.968  44.274  12.030
59179W        W31527  27.024  31.967   1.407
59180W        W31528   0.744   0.432  13.315
59181W        W31529  19.601  28.495  11.962
59182W        W31530  34.371  38.430   4.737
59183W        W31531  19.046  10.715  13.821
59184W        W31532  33.100   8.178  10.467
59185W        W31533  23.534  19.138   0.942
59186W        W31534  24.574   6.814  13.866
59187W        W31535  30.954  18.560   2.735
59188W        W31536  40.447  40.347   2.766
59189W        W31537  43.999  30.450   0.318
59190W        W31538  14.101   4.216  14.909
59191W        W31539  36.865  40.490   3.713
59192W        W31540  12.829   8.699   4.818
59193W        W31541  11.640  29.454   3.744
59194W        W31542  24.162  32.619  13.848
59195W        W31543  26.186  27.611   4.164
59196W        W31544  28.599   9.350  11.586
59197W        W31545  11.835  43.960   2.829
59198W        W31546  30.551   7.211   2.343
59199W        W31547  27.597  37.016  13.366
59200W        W31548   9.232   5.769   2.866
59201W        W31549   0.451   0.967  11.102
59202W        W31550  38.926  33.613  13.415
59203W        W31551  38.914  33.963  14.844
59204W        W31552  26.147  18.584   2.679
59205W        W31553  29.149  34.536  14.410
59206W        W31554  33.897  24.723  10.993
59207W        W31555  24.070   1.780   1.380
59208W        W31556  39.957  40.959  11.576
59209W        W31557  16.650   9.233  14.841
59210W        W31558  33.490  36.455   4.705
59211W        W31559  39.432  43.985  11.066
59212W        W31560  43.937  34.530  11.043
59213W        W31561  30.465  41.425  11.102
59214W        W31562   5.920  42.032  11.609
59215W        W31563   2.305  13.315   1.808
59216W        W31564  30.007   4.246   3.794
59217W        W31565  27.187   0.792  13.339
59218W        W31566  17.304  22.055  11.921
59219W        W31567  30.090   5.356  11.507
59220W        W31568   0.854   2.814  10.948
59221W        W31569   3.439  24.165   4.820
59222W        W31570  33.485   1.472   5.313
59223W        W31571  14.633  14.216   0.320
59224W        W31572  29.988  39.874  12.034
59225W        W31573  18.762  38.358  14.919
59226W        W31574  16.116   8.182  14.506
59227W        W31575   8.778  17.253   4.820
59228W        W31576  17.786  38.362  14.326
59229W        W31577   4.296   5.907   1.234
59230W        W31578  39.493  35.033   1.785
59231W        W31579  34.024  11.745  12.993
59232W        W31580  27.127   7.718  12.940
59233W        W31581   7.733  14.734   1.800
59234W        W31582  42.386   1.373   4.217
59235W        W31583  18.713  30.584  11.892
59236W        W31584  34.935  15.091  12.076
59237W        W31585  11.673   3.711  12.974
59238W        W31586  11.679  27.659  11.025
59239W        W31587  35.014  23.643  11.011
59240W        W31588  36.888  10.241   2.799
59241W        W31589  30.474   6.364   0.810
59242W        W31590  16.267  34.439  12.978
59243W        W31591  39.019  38.977  14.893
59244W        W31592   3.391  15.316  12.975
59245W        W31593  41.020   1.767   2.193
59246W        W31594  10.649  31.081  11.527
59247W        W31595  18.054  26.700   3.306
59248W        W31596  36.863  27.139  11.964
59249W        W31597   0.357  18.118  13.474
59250W        W31598  39.856  34.935   0.930
59251W        W31599   9.722   9.329   1.858
59252W        W31600  23.067  24.171  14.454
59253W        W31601  10.305  12.166  10.598
59254W        W31602  30.606  18.129  12.385
59255W        W31603  24.026   0.313  12.952
59256W        W31604  40.348  13.193  14.308
59257W        W31605   3.839   1.837   4.658
59258W        W31606  35.568  15.227   2.715
59259W        W31607  39.937  24.164  12.458
59260W        W31608  12.119  13.300   3.155
59261W        W31609  38.352  33.901   4.781
59262W        W31610   3.769  12.250  11.873
59263W        W31611  20.547  44.926  14.281
59264W        W31612  43.895  32.057   3.272
59265W        W31613  30.022  29.119   3.331
59266W        W31614  41.939  37.859  11.081
59267W        W31615   8.282  33.082   5.666
59268W        W31616  40.825  35.069   3.174
59269W        W31617   8.370  33.005  14.975
59270W        W31618   8.386  34.469  13.876
59271W        W31619  41.937  36.462  14.954
59272W        W31620  13.672   1.796   4.709
59273W        W31621  15.701  36.566   4.729
59274W        W31622  40.495  22.706   2.408
59275W        W31623  25.045  24.012  12.533
59276W        W31624  21.179  42.434   2.252
59277W        W31625  29.553  17.707   3.233
59278W        W31626  40.969  41.016  13.511
59279W        W31627  18.784  31.081  13.456
59280W        W31628  20.089  28.611  14.898
59281W        W31629   2.431   7.235   4.207
59282W        W31630   2.777  18.644  13.362
59283W        W31631   1.380  11.707  14.784
59284W        W31632  17.760  26.966  13.503
59285W        W31633   8.339  11.281  13.023
59286W        W31634  29.491  11.357   0.731
59287W        W31635  23.622  41.417   0.259
59288W        W31636  14.336  20.100   1.438
59289W        W31637   5.900  13.771  12.875
59290W        W31638  34.892   4.738   2.401
59291W        W31639  40.033  10.159  11.093
59292W        W31640  12.155  34.900  14.975
59293W        W31641   9.195  31.492   1.791
59294W        W31642  20.532  35.389  12.454
59295W        W31643  24.509  12.808  13.813
59296W        W31644  23.239  44.832  11.927
59297W        W31645  12.171  43.842   4.736
59298W        W31646  36.093   1.334   2.345
59299W        W31647  25.643  28.931  14.505
59300W        W31648  16.286   6.696   2.247
59301W        W31649  10.304  43.277  14.828
59302W        W31650   6.228  28.542  10.484
59303W        W31651   8.217  39.999   3.351
59304W        W31652  11.249  10.170  13.413
59305W        W31653   0.258  13.629  11.956
59306W        W31654  36.461  23.623   5.196
59307W        W31655  28.148  18.072   4.188
59308W        W31656  44.995  13.705   3.718
59309W        W31657  16.755   1.906   1.898
59310W        W31658  15.595  28.083  13.357
59311W        W31659   4.371  21.620  13.869
59312W        W31660   9.170  14.202   0.773
59313W        W31661  20.588  10.723  10.597
59314W        W31662  33.891  36.866   2.257
59315W        W31663  10.634  22.621  12.350
59316W        W31664  18.226  15.092  13.047
59317W        W31665  10.784   0.439   4.137
59318W        W31666  13.790  24.504   3.655
59319W        W31667  35.514  18.744  10.889
59320W        W31668  24.691  35.538   1.807
59321W        W31669  27.067   9.372  14.792
59322W        W31670   3.741  24.118  13.543
59323W        W31671  32.580   4.936  11.009
59324W        W31672  18.140  30.626  14.492
59325W        W31673  40.513   0.901  13.842
59326W        W31674  31.057  23.501   1.834
59327W        W31675  34.002  14.684   4.153
59328W        W31676   9.377  19.053  14.855
59329W        W31677  25.212  31.464   4.127
59330W        W31678  21.691   2.769  10.437
59331W        W31679  41.366  25.000  12.936
59332W        W31680   8.852  38.069   4.750
59333W        W31681  43.279  15.151   3.830
59334W        W31682   8.761   0.811   3.659
59335W        W31683  42.830  28.001   1.873
59336W        W31684  19.618  11.706   4.646
59337W        W31685  42.479  34.370  13.308
59338W        W31686  17.721   2.954   2.761
59339W        W31687  34.490  16.098   1.765
59340W        W31688   1.358  29.462  12.961
59341W        W31689   4.444  38.536   4.757
59342W        W31690  35.396   5.304   4.790
59343W        W31691   4.920  30.103  13.823
59344W        W31692  31.985   8.801   1.841
59345W        W31693  15.161  22.037   2.215
59346W        W31694  23.152   3.730   2.285
59347W        W31695   2.806  13.776  12.515
59348W        W31696  37.455  19.747  10.436
59349W        W31697  42.822   5.230   4.286
59350W        W31698  38.565  40.419   4.285
59351W        W31699   1.755  38.038   4.821
59352W        W31700  15.294  33.956   2.320
59353W        W31701   2.861  37.504   9.931
59354W        W31702  17.796  24.722   0.460
59355W        W31703  19.712  35.038   3.818
59356W        W31704  11.763  10.272  10.613
59357W        W31705   7.731  15.767  11.857
59358W        W31706   9.874  14.687  11.551
59359W        W31707   3.926  38.007   0.294
59360W        W31708   4.414  34.585  11.383
59361W        W31709   5.410  33.009   3.738
59362W        W31710  14.217  20.595  14.331
59363W        W31711  41.479  29.608  13.530
59364W        W31712  41.816  14.818   1.342
59365W        W31713  38.549  15.771   1.834
59366W        W31714  23.173   7.210  10.509
59367W        W31715  27.666  12.763   1.293
59368W        W31716  37.380  18.578   4.163
59369W        W31717  34.979  34.444   1.229
59370W        W31718   7.754  17.719  10.903
59371W        W31719  21.583  13.249   4.159
59372W        W31720   8.173  37.065  11.470
59373W        W31721   6.742   9.840  13.331
59374W        W31722   0.964   5.892   2.686
59375W        W31723   3.915  42.517   4.225
59376W        W31724  27.103  12.210   1.733
59377W        W31725   2.311  14.122   3.656
59378W        W31726   1.934  12.650  11.077
59379W        W31727  14.804   0.363   2.391
59380W        W31728  30.556  12.196   3.175
59381W        W31729  38.438   5.812   3.631
59382W        W31730   3.355  36.410  11.864
59383W        W31731  42.364  18.193  10.491
59384W        W31732   0.420   5.206  11.931
59385W        W31733  21.017  16.158   4.120
59386W        W31734  27.189   3.241   2.296
59387W        W31735   6.693  42.467   4.339
59388W        W31736  44.442  23.591   3.294
59389W        W31737  19.062  41.982  13.871
59390W        W31738  44.835   7.272  13.423
59391W        W31739   3.797  42.409  14.019
59392W        W31740  42.351  33.939  12.843
59393W        W31741  12.640  30.015   1.896
59394W        W31742  43.015  44.789   0.425
59395W        W31743  23.161  17.122  12.554
59396W        W31744  17.138  33.061   0.772
59397W        W31745   7.292   9.273  11.958
59398W        W31746   8.873  11.162   2.208
59399W        W31747  23.643  31.418  14.296
59400W        W31748   0.795  38.862   4.291
59401W        W31749  26.586   2.339   2.195
59402W        W31750  29.534  44.841  14.426
59403W        W31751  17.574  12.293  12.825
59404W        W31752  39.540  37.525   1.329
59405W        W31753  18.587   3.839  11.441
59406W        W31754  13.672   7.393  12.489
59407W        W31755  41.303  29.479   4.812
59408W        W31756   7.805  20.047   1.718
59409W        W31757  15.748  23.528  12.047
59410W        W31758   7.265  44.759   3.347
59411W        W31759  10.228  43.981   1.720
59412W        W31760  44.338  21.109  11.404
59413W        W31761  30.604  12.673   1.759
59414W        W31762  32.006  11.783   0.337
59415W        W31763   8.683  18.734   4.166
59416W        W31764  10.302  22.572   1.717
59417W        W31765  38.024   5.358  11.393
59418W        W31766  29.445  38.423   2.831
59419W        W31767  37.893  39.419  13.955
59420W        W31768   6.691  18.593  12.992
59421W        W31769  39.822  22.032  11.086
59422W        W31770  44.429  32.551  11.439
59423W        W31771  26.682  13.121  13.411
59424W        W31772  26.052  42.395  12.061
59425W        W31773  32.541  26.178   2.695
59426W        W31774  21.144  38.000   2.222
59427W        W31775  16.140  23.548   0.377
59428W        W31776  27.464   1.306  13.501
59429W        W31777  21.610  27.113   1.767
59430W        W31778   3.414  25.068   3.695
59431W        W31779  30.058  32.535  13.873
59432W        W31780  30.162  25.141   4.727
59433W        W31781  21.586  17.657  13.938
59434W        W31782  42.291  42.930  14.341
59435W        W31783  19.113  33.616   1.261
59436W        W31784  19.141  24.479  10.956
59437W        W31785  18.560  31.502   5.692
59438W        W31786  33.886  43.306  12.896
59439W        W31787   4.445  32.958  14.907
59440W        W31788   1.943  30.504   3.727
59441W        W31789  18.644  25.089   1.714
59442W        W31790   4.379   7.854  14.847
59443W        W31791  37.846  38.435   3.743
59444W        W31792   1.942   7.697   2.817
59445W        W31793  24.642  37.994   0.922
59446W        W31794  28.009  33.581  14.990
59447W        W31795   1.961  43.280  14.297
59448W        W31796  28.178  27.450   1.425
59449W        W31797  20.529  11.332   0.796
59450W        W31798  18.273   4.285  12.857
59451W        W31799  39.003  10.733   2.389
59452W        W31800   5.896  43.440  13.415
59453W        W31801  35.861  36.954   4.626
59454W        W31802  35.044   9.862  14.501
59455W        W31803  29.038  13.306  14.346
59456W        W31804  40.521  42.347   0.382
59457W        W31805  36.404  19.609  10.547
59458W        W31806  33.422  42.294  13.442
59459W        W31807  27.000   2.390  14.495
59460W        W31808  44.768  41.522  11.382
59461W        W31809  17.282  39.320  14.478
59462W        W31810   4.919   6.218  14.387
59463W        W31811  41.857   8.884   4.609
59464W        W31812  12.214   9.752  12.999
59465W        W31813  27.153   4.913  14.836
59466W        W31814  26.634  35.858   3.332
59467W        W31815   7.288  14.131   4.122
59468W        W31816  28.593  18.161   3.694
59469W        W31817  32.447  40.963   4.609
59470W        W31818  24.148   8.349   1.421
59471W        W31819  28.112  31.611  14.999
59472W        W31820  26.968  23.650   4.712
59473W        W31821   6.879  17.604  12.572
59474W        W31822  39.546  12.360   0.292
59475W        W31823   1.300  32.615  12.034
59476W        W31824  18.080  11.650  13.399
59477W        W31825   9.387  21.748   2.231
59478W        W31826  17.092  28.621  13.529
59479W        W31827  15.728  19.641  11.414
59480W        W31828  34.465   5.700  12.090
59481W        W31829  28.667  14.246   4.824
59482W        W31830  21.052   3.395  12.880
59483W        W31831  24.620   2.447  13.859
59484W        W31832  15.758  17.623   1.768
59485W        W31833  40.903  28.041   0.367
59486W        W31834  41.455  12.692   2.762
59487W        W31835  33.584  36.064  10.629
59488W        W31836  35.372  26.499   1.233
59489W        W31837  22.700  20.166  10.008
59490W        W31838   8.766  26.156  11.997
59491W        W31839  10.691  37.885   3.713
59492W        W31840  18.225  23.080   2.260
59493W        W31841  33.963  27.027  11.082
59494W        W31842  24.996  43.286   1.871
59495W        W31843  18.154  17.627   0.252
59496W        W31844   4.360  43.427   4.603
59497W        W31845  30.454  28.037   3.808
59498W        W31846  34.608  18.567  12.825
59499W        W31847  11.699   7.830   1.265
59500W        W31848   4.309  13.707   1.294
59501W        W31849  19.694  26.499   2.756
59502W        W31850   3.368   9.240  11.574
59503W        W31851  23.123   3.320   1.803
59504W        W31852   8.360  33.979   5.287
59505W        W31853  38.960  20.044   0.960
59506W        W31854   7.262   5.249  14.010
59507W        W31855  40.372  28.547   2.717
59508W        W31856  14.135  19.678   4.793
59509W        W31857   2.402   4.450   1.441
59510W        W31858   4.339  43.349  11.947
59511W        W31859   6.869  36.492   0.401
59512W        W31860  12.235   7.814   4.250
59513W        W31861  18.639  21.544   3.207
59514W        W31862  21.243  14.190  10.472
59515W        W31863   3.349  39.354   2.710
59516W        W31864   2.754  23.064   3.293
59517W        W31865  37.350  16.175   3.815
59518W        W31866   1.848  20.058  12.095
59519W        W31867  42.502  16.131   3.201
59520W        W31868  26.550   6.218  11.484
59521W        W31869  40.400  12.327  12.476
59522W        W31870  19.680  24.055   4.727
59523W        W31871  35.556  34.983  11.044
59524W        W31872  37.922  40.484   3.792
59525W        W31873  31.927  23.588   4.203
59526W        W31874  31.446  29.942   0.313
59527W        W31875  39.898   4.838   4.320
59528W        W31876  13.321  22.594   5.264
59529W        W31877  19.675  28.044  13.451
59530W        W31878  29.570  21.638  13.341
59531W        W31879  12.711   4.919  12.399
59532W        W31880  32.067  13.221   3.265
59533W        W31881  36.971  24.491   4.178
59534W        W31882  26.509  25.468   3.804
59535W        W31883  26.073  34.010   2.863
59536W        W31884  32.119  26.035   1.789
59537W        W31885  23.077  37.078   0.266
59538W        W31886   9.286  31.955   3.376
59539W        W31887  25.679  10.367   4.232
59540W        W31888   5.691  32.991  12.544
59541W        W31889  13.205   9.859   3.226
59542W        W31890  35.074  26.068   1.772
59543W        W31891  34.911   7.330   2.234
59544W        W31892  38.892  44.435  14.349
59545W        W31893  27.552  34.976   3.675
59546W        W31894  10.671   1.911   2.408
59547W        W31895  24.129  35.951  14.360
59548W        W31896   2.296   3.233  11.526
59549W        W31897  14.135  40.487   4.752
59550W        W31898   5.434  43.947  11.404
59551W        W31899  21.653   5.333   1.843
59552W        W31900  27.042  25.015   3.688
59553W        W31901  43.802  29.095   1.722
59554W        W31902   0.328  42.366   4.757
59555W        W31903  36.925  13.277   2.818
59556W        W31904  30.029   6.248  10.978
59557W        W31905  33.603  28.508  13.480
59558W        W31906   3.384  38.392  13.825
59559W        W31907  32.551  18.162   4.681
59560W        W31908  29.458  12.137  14.827
59561W        W31909  11.350  22.071   5.574
59562W        W31910  28.126  29.170   0.394
59563W        W31911   7.174  33.906  13.995
59564W        W31912  32.398   2.782   0.462
59565W        W31913  20.167  30.420   4.783
59566W        W31914  40.880  12.675  14.969
59567W        W31915  18.264  22.165   1.931
59568W        W31916  31.410   2.800  12.410
59569W        W31917  29.612  35.955  12.034
59570W        W31918  41.926  15.273   3.718
59571W        W31919  26.517  16.134   4.640
59572W        W31920  14.097  31.076   2.673
59573W        W31921  37.926  42.948   3.672
59574W        W31922  11.831  30.921  11.003
59575W        W31923  20.567  37.505   0.910
59576W        W31924  35.598  42.015   4.143
59577W        W31925  21.651  38.837  10.961
59578W        W31926  18.635  22.547   2.744
59579W        W31927   5.351  41.480   3.784
59580W        W31928  14.097  32.088  14.865
59581W        W31929  40.336   0.454   4.662
59582W        W31930  34.400   4.345   1.431
59583W        W31931  30.648   6.238   5.276
59584W        W31932   4.903  10.654  10.418
59585W        W31933  21.113  44.368   3.309
59586W        W31934  27.143  38.943  10.480
59587W        W31935  18.228  20.125  12.573
59588W        W31936  35.996   0.481   4.163
59589W        W31937  30.922  36.941  13.966
59590W        W31938  23.149  35.519   4.807
59591W        W31939  38.339   0.816   2.785
59592W        W31940   7.213  23.989  10.924
59593W        W31941   1.409  34.398   1.291
59594W        W31942  31.007  13.292   1.736
59595W        W31943   1.780   8.297  10.440
59596W        W31944  29.518  20.086  12.562
59597W        W31945  26.172  42.460  11.456
59598W        W31946  31.110  43.837  14.296
59599W        W31947   8.855  20.041   0.795
59600W        W31948  37.839  25.212  11.049
59601W        W31949  25.471  34.525   4.328
59602W        W31950  30.463  25.535   2.712
59603W        W31951   6.213  24.608   3.315
59604W        W31952  14.645  38.397  11.063
59605W        W31953   9.788  11.151  11.588
59606W        W31954   9.169   0.465   4.274
59607W        W31955  38.892  30.644   1.261
59608W        W31956  40.013  42.008  11.917
59609W        W31957  26.195   3.767  14.461
59610W        W31958  43.380   7.725   4.297
59611W        W31959  38.009   0.962  12.363
59612W        W31960  20.253  29.599   4.288
59613W        W31961   9.770  43.431   3.341
59614W        W31962  31.418  13.187  14.320
59615W        W31963  25.683  20.618  14.423
59616W        W31964  35.974   6.272  10.428
59617W        W31965  37.543   7.753  14.771
59618W        W31966   6.236  34.604   3.834
59619W        W31967  37.488   6.874  13.972
59620W        W31968  39.503  17.613  12.353
59621W        W31969  35.377  18.081  14.791
59622W        W31970  21.685  20.153  10.484
59623W        W31971  15.615  41.808   3.376
59624W        W31972  41.786  25.148   1.927
59625W        W31973  32.101  32.100   2.254
59626W        W31974  29.037  37.842  12.875
59627W        W31975  11.657  11.784   0.789
59628W        W31976  22.597  21.094  12.413
59629W        W31977  23.195  18.254   3.217
59630W        W31978  42.023  44.777  11.513
59631W        W31979  39.469  38.527   4.343
59632W        W31980  21.740  41.812  13.355
59633W        W31981  14.641  16.683  12.479
59634W        W31982  38.849   4.818  12.358
59635W        W31983  20.121   1.945  11.429
59636W        W31984   6.243  10.290  11.074
59637W        W31985  31.481  22.620   1.304
59638W        W31986  37.996  30.161   4.727
59639W        W31987  28.571  27.550  11.109
59640W        W31988  14.765  11.853   4.611
59641W        W31989  22.691  16.184   4.117
59642W        W31990  23.728  16.611   4.642
59643W        W31991  13.646  20.157  14.333
59644W        W31992  18.704  36.448   1.377
59645W        W31993  37.050  44.838   2.742
59646W        W31994   8.717   9.798  13.890
59647W        W31995  21.093   2.858  10.616
59648W        W31996   3.910  11.138  13.492
59649W        W31997  26.596  32.508  11.551
59650W        W31998  23.239   7.193   0.281
59651W        W31999  16.287  26.163   1.331
59652W        W32000   9.177   2.294  10.902
59653W        W32001   7.675   3.374  11.375
59654W        W32002  42.881  12.143  13.809
59655W        W32003   3.242  11.287  10.449
59656W        W32004  30.032  16.167   4.815
59657W        W32005  34.521   3.247   3.636
59658W        W32006  39.520  33.576  11.902
59659W        W32007  41.363   1.809   2.725
59660W        W32008  32.101  44.342   1.341
59661W        W32009   8.319  11.627   4.638
59662W        W32010  21.122  31.404  10.538
59663W        W32011  15.089  42.512  11.075
59664W        W32012  42.937  20.651   4.667
59665W        W32013   7.267  43.465  12.420
59666W        W32014  40.479  44.467  10.990
59667W        W32015  41.342   2.344   4.771
59668W        W32016  12.835  20.260   1.837
59669W        W32017  39.920  33.604   3.638
59670W        W32018  11.219  19.592   3.850
59671W        W32019  40.943   3.917   3.180
59672W        W32020   8.343  42.519   0.284
59673W        W32021  36.880  40.029   2.313
59674W        W32022  28.020   2.952  10.418
59675W        W32023  36.036  14.261  12.396
59676W        W32024  23.204  19.116   2.807
59677W        W32025  30.970   9.385  11.066
59678W        W32026  27.532  21.251  14.893
59679W        W32027  43.390   9.170  11.469
59680W        W32028  24.533   2.825  14.030
59681W        W32029  36.373  21.636  13.982
59682W        W32030   0.422  37.018  14.408
59683W        W32031  19.185   1.261   1.701
59684W        W32032   0.447  23.210  10.423
59685W        W32033  34.074   7.766  11.915
59686W        W32034  37.050   3.320  10.935
59687W        W32035  28.596   7.865  14.498
59688W        W32036  38.926  21.195   2.193
59689W        W32037  38.467  12.744   1.934
59690W        W32038   3.861   1.906   3.803
59691W        W32039  30.635  43.361  12.436
59692W        W32040  34.389  36.468  10.124
59693W        W32041  39.468   3.903  10.948
59694W        W32042  14.174  41.333  13.475
59695W        W32043   2.240  29.492  12.882
59696W        W32044  27.990  42.497   4.763
59697W        W32045  44.936   3.372  11.408
59698W        W32046  23.618  20.749  11.424
59699W        W32047  25.549  26.119   3.253
59700W        W32048  12.703   4.701  13.500
59701W        W32049   8.782  37.552   4.617
59702W        W32050  24.587  43.492   0.367
59703W        W32051   7.277   8.380  12.993
59704W        W32052  12.711  20.147   0.305
59705W        W32053  19.636  41.920   3.854
59706W        W32054   3.833   5.877  13.861
59707W        W32055  12.771  42.370  13.051
59708W        W32056  39.353   9.244  13.546
59709W        W32057  23.587  17.110  10.627
59710W        W32058  32.472   2.409  12.019
59711W        W32059  40.953   7.224   0.460
59712W        W32060  13.116   0.366  10.942
59713W        W32061  13.313  42.501  10.566
59714W        W32062  21.644  23.083   1.234
59715W        W32063  26.072  14.224   2.399
59716W        W32064   0.338  24.985   2.701
59717W        W32065  40.358   3.381  12.876
59718W        W32066  11.170  14.705   0.878
59719W        W32067  36.863   8.198  13.544
59720W        W32068   2.902  19.703   4.316
59721W        W32069  12.336  23.140   1.400
59722W        W32070  21.531   4.932   4.678
59723W        W32071  29.012   7.360  12.523
59724W        W32072   1.287  10.141   0.922
59725W        W32073  36.903  35.055  11.950
59726W        W32074  43.343  17.134   3.171
59727W        W32075   5.257  31.064   4.738
59728W        W32076  25.012   5.698   0.308
59729W        W32077  27.962   6.744  12.377
59730W        W32078  29.658   2.275   3.771
59731W        W32079  24.512  30.641   1.899
59732W        W32080  27.188  12.781   1.923
59733W        W32081  38.434   0.477  11.114
59734W        W32082  33.579   3.243  13.894
59735W        W32083  41.943  20.077   4.131
59736W        W32084  25.690   2.759  12.904
59737W        W32085   5.733  13.769   4.832
59738W        W32086  38.427   9.245   0.749
59739W        W32087  26.960  43.321   2.398
59740W        W32088  41.293  19.745  12.354
59741W        W32089  19.756  15.601  13.427
59742W        W32090  18.638  26.556  10.916
59743W        W32091  22.176   3.821   1.424
59744W        W32092  14.138  35.427   0.863
59745W        W32093  39.534  16.253   4.601
59746W        W32094  25.641  11.812   0.849
59747W        W32095  26.681   9.313   0.944
59748W        W32096  33.907  41.300   1.818
59749W        W32097  18.629   0.811  12.856
59750W        W32098   8.176  27.598  13.049
59751W        W32099  27.986  36.063   2.312
59752W        W32100  34.908  32.139  13.379
59753W        W32101  26.977  10.702   3.829
59754W        W32102  13.711   8.333   2.386
59755W        W32103  36.970  12.356  13.427
59756W        W32104   4.323  39.438   2.182
59757W        W32105  21.547  40.391   2.801
59758W        W32106   6.892  10.362  11.124
59759W        W32107  14.765  38.826  13.548
59760W        W32108  24.191  12.734   4.637
59761W        W32109   6.394  20.545   4.729
59762W        W32110  20.196  41.362   1.378
59763W        W32111  35.894  25.476   5.126
59764W        W32112  38.047  21.223   1.892
59765W        W32113  22.706  43.797  14.972
59766W        W32114   6.250   8.692   4.148
59767W        W32115  19.699  40.433   4.776
59768W        W32116  21.689  18.246   4.610
59769W        W32117  41.291  17.142  14.842
59770W        W32118  42.904  23.543  14.473
59771W        W32119  30.620  16.677  13.445
59772W        W32120   5.286  34.116  11.419
59773W        W32121  33.960  18.294   2.391
59774W        W32122  21.120  26.627  14.906
59775W        W32123  21.044  16.173   1.377
59776W        W32124  26.186  16.195  11.560
59777W        W32125  14.308  11.842   3.634
59778W        W32126  23.573  24.070  13.853
59779W        W32127  22.088  21.123  13.318
59780W        W32128  26.536  11.778   4.766
59781W        W32129  22.157   7.381  14.871
59782W        W32130  41.893  28.612   1.431
59783W        W32131  21.163  23.049   2.402
59784W        W32132  18.707  27.494   2.255
59785W        W32133  31.011   8.789  14.993
59786W        W32134  38.923  21.041   0.817
59787W        W32135  23.078  35.980  11.965
59788W        W32136  21.648  29.999  13.524
59789W        W32137  35.907  35.966   1.306
59790W        W32138  25.584  25.166  12.034
59791W        W32139  40.965  20.634  10.458
59792W        W32140  18.101   8.787  11.582
59793W        W32141  37.945  41.473  14.505
59794W        W32142  41.459  43.997   0.946
59795W        W32143  23.710   8.683  12.921
59796W        W32144   1.762  40.814   1.730
59797W        W32145  10.140  44.410   5.174
59798W        W32146  41.862  34.600  14.002
59799W        W32147  16.614   1.393  11.441
59800W        W32148  12.160  40.873  14.958
59801W        W32149  33.559  41.787   4.284
59802W        W32150  27.124   9.284   0.323
59803W        W32151  24.217   3.327   1.446
59804W        W32152  22.996   4.703   0.371
59805W        W32153   3.260  33.531  12.915
59806W        W32154  42.450  22.723  10.554
59807W        W32155  38.973  16.205   4.809
59808W        W32156  18.551  22.998   1.825
59809W        W32157  41.392  10.257   3.237
59810W        W32158  12.157  14.631  12.973
59811W        W32159  20.531  33.112  14.766
59812W        W32160  43.972   2.276   2.252
59813W        W32161   3.829  27.564   2.754
59814W        W32162  18.164  10.632  13.017
59815W        W32163  28.625  43.878  12.063
59816W        W32164   6.295  14.285  13.013
59817W        W32165   3.918  42.410   4.773
59818W        W32166  27.949  40.504   3.370
59819W        W32167  15.794  11.697   2.372
59820W        W32168  30.615   7.675  12.085
59821W        W32169  44.424   8.863   3.267
59822W        W32170  17.193  19.704  14.331
59823W        W32171  33.045   7.723   1.448
59824W        W32172   9.387  13.707  11.608
59825W        W32173  30.433  27.654   2.405
59826W        W32174  38.016   3.740  13.963
59827W        W32175  12.830  30.539  14.477
59828W        W32176  31.491  16.254  10.930
59829W        W32177  15.595  42.514   2.765
59830W        W32178   7.201  27.193  11.928
59831W        W32179  44.800   7.809   1.211
59832W        W32180  10.696  22.622  14.007
59833W        W32181   2.400  32.557   1.258
59834W        W32182  38.339  10.251   3.867
59835W        W32183  22.036  22.019  13.025
59836W        W32184   4.874  29.025   3.819
59837W        W32185  24.201  20.558   3.199
59838W        W32186  28.575   5.806   3.760
59839W        W32187  14.687  25.964   1.826
59840W        W32188  28.929  31.501   0.886
59841W        W32189   9.750  14.214   3.677
59842W        W32190  29.089  27.149  13.415
59843W        W32191   1.309   0.248   2.773
59844W        W32192  29.642  15.165   4.768
59845W        W32193  30.949  40.049   3.817
59846W        W32194   3.744  38.052  14.831
59847W        W32195  38.880  38.822   4.794
59848W        W32196  26.703  28.957  13.492
59849W        W32197  17.298  11.357  12.461
59850W        W32198  10.352  17.264  10.472
59851W        W32199  33.993  27.014   3.222
59852W        W32200  10.643  14.267  14.431
59853W        W32201  18.610  10.270  10.023
59854W        W32202  14.652  33.908   2.738
59855W        W32203  14.194  38.821   2.265
59856W        W32204  30.565  37.861   3.684
59857W        W32205  24.616   4.302   4.781
59858W        W32206   1.890  25.623  11.441
59859W        W32207  24.513  20.571   2.784
59860W        W32208  30.004  37.916  14.447
59861W        W32209  19.647   8.710  12.481
59862W        W32210  17.083  34.398  12.085
59863W        W32211   8.688   5.373  13.966
59864W        W32212  21.097  30.950   2.292
59865W        W32213  41.939  26.046  11.573
59866W        W32214   6.236   1.889  11.538
59867W        W32215  23.091  25.706  13.498
59868W        W32216  42.909  15.282  12.901
59869W        W32217   6.684   4.384   0.854
59870W        W32218  26.697  20.201  12.835
59871W        W32219   9.881  36.404  13.803
59872W        W32220  29.083  15.648   1.792
59873W        W32221   2.358  33.585  11.445
59874W        W32222  16.598  29.564   3.772
59875W        W32223   7.289  36.843  14.381
59876W        W32224  21.166   8.171   2.818
59877W        W32225   0.492  39.326   4.643
59878W        W32226  38.404  36.478   0.409
59879W        W32227  16.593  21.228  12.896
59880W        W32228  30.051   3.309   1.839
59881W        W32229  32.532   9.739  13.012
59882W        W32230  29.029  42.288  13.800
59883W        W32231  34.120  36.419  10.158
59884W        W32232  13.742   3.891  10.444
59885W        W32233   6.772  38.863   1.714
59886W        W32234  34.369   9.815   1.844
59887W        W32235  32.396  25.533  12.434
59888W        W32236  31.601   8.671   1.863
59889W        W32237  15.133  24.094   1.448
59890W        W32238  17.682  35.090   2.369
59891W        W32239  12.141  33.063  11.441
59892W        W32240  25.601  21.240  11.426
59893W        W32241  42.393  12.752  11.569
59894W        W32242  15.582  14.207  12.565
59895W        W32243   0.425  26.668  10.966
59896W        W32244   0.363  23.654  12.929
59897W        W32245  12.142  32.492   3.221
59898W        W32246  26.653  33.977   0.866
59899W        W32247  27.076  44.772   2.728
59900W        W32248   2.904  23.109  11.378
59901W        W32249  30.133   4.305   2.301
59902W        W32250  34.580  16.573  13.470
59903W        W32251  25.531   3.848   1.376
59904W        W32252  11.632  26.054   3.684
59905W        W32253  40.463   2.273   0.441
59906W        W32254  29.003  18.050   4.777
59907W        W32255  14.790  42.803   3.662
59908W        W32256   6.330  37.484   1.406
59909W        W32257   5.417   6.387  14.943
59910W        W32258  18.619   1.369   2.230
59911W        W32259  19.151   0.470  11.117
59912W        W32260  41.534  33.624   2.708
59913W        W32261   1.853  16.620  14.357
59914W        W32262  27.041   4.367   2.296
59915W        W32263  39.935  28.614   2.200
59916W        W32264  22.115  33.000  14.942
59917W        W32265  32.121  27.948  10.936
59918W        W32266  18.547  41.889   4.352
59919W        W32267   5.255   8.206  10.502
59920W        W32268  13.842  23.576  14.996
59921W        W32269   0.816  40.861  12.546
59922W        W32270  40.986  13.123   0.474
59923W        W32271  36.406  13.118  14.289
59924W        W32272  11.131  39.442   0.258
59925W        W32273  12.186  10.140  11.982
59926W        W32274  44.952  33.619  10.625
59927W        W32275  27.565  42.413  10.934
59928W        W32276  31.999  28.152   4.810
59929W        W32277  22.637  19.089  12.365
59930W        W32278   0.854  26.567   4.622
59931W        W32279   2.896  12.721  13.975
59932W        W32280   0.440  21.156  11.384
59933W        W32281  29.101  11.188  14.313
59934W        W32282  24.595  20.523   3.733
59935W        W32283  30.148  36.866   1.831
59936W        W32284  18.149  26.533   2.258
59937W        W32285  42.379  43.835  11.495
59938W        W32286  20.724  31.142   2.799
59939W        W32287  26.128   6.255   1.893
59940W        W32288   0.806  12.742   3.693
59941W        W32289  23.527   9.782  14.948
59942W        W32290   0.782  31.059   4.252
59943W        W32291   8.839  18.669  13.526
59944W        W32292  18.101  41.334  12.388
59945W        W32293  36.984  37.471   1.428
59946W        W32294  22.034   1.483  13.792
59947W        W32295  18.171  40.474  12.894
59948W        W32296  15.271  15.822   1.849
59949W        W32297   2.768   8.382  10.541
59950W        W32298   4.852  29.978   3.235
59951W        W32299  23.210  21.239   2.670
59952W        W32300   9.724  34.087  10.590
59953W        W32301   4.786  10.265   3.198
59954W        W32302  35.418  19.544   4.331
59955W        W32303  27.586  26.167  14.466
59956W        W32304  11.680  22.736  12.936
59957W        W32305   2.896  24.072  12.028
59958W        W32306  41.409  19.677   4.634
59959W        W32307   0.328  37.396  10.497
59960W        W32308  31.095  30.423  13.402
59961W        W32309  42.786   7.665   4.624
59962W        W32310  17.257  40.022   0.439
59963W        W32311  19.595  44.367  11.463
59964W        W32312  37.560  22.652  12.483
59965W        W32313   5.334  25.121  14.389
59966W        W32314  32.458  16.272  10.625
59967W        W32315   9.775   4.898   0.253
59968W        W32316  37.534   1.394   3.847
59969W        W32317  34.479  32.529  14.302
59970W        W32318  23.088  13.180  12.389
59971W        W32319  12.719  14.600   4.786
59972W        W32320  36.928  38.011   3.693
59973W        W32321  39.480  44.305  10.635
59974W        W32322  40.799   7.295  13.983
59975W        W32323  19.752   6.237   0.382
59976W        W32324  25.211  40.853   0.850
59977W        W32325   0.371  25.214  14.891
59978W        W32326  25.091  23.135   3.292
59979W        W32327  10.782  21.528   4.329
59980W        W32328  38.935  37.846  12.078
59981W        W32329  29.430  37.050  14.368
59982W        W32330  34.069  13.758   2.873
59983W        W32331  31.017  18.685   2.195
59984W        W32332  28.493  41.423  13.909
59985W        W32333  24.185  28.027  13.797
59986W        W32334  26.133  33.407  13.445
59987W        W32335  14.588  39.953  11.457
59988W        W32336  27.957  28.031  12.496
59989W        W32337  24.500  21.588   0.476
59990W        W32338  44.003  10.307  14.760
59991W        W32339  44.825  37.038   3.252
59992W        W32340   4.698  25.572   4.726
59993W        W32341  18.248  15.100   1.315
59994W        W32342  37.363  22.119  12.481
59995W        W32343  27.572  18.201   0.479
59996W        W32344  43.280  14.792   4.166
59997W        W32345   0.322   5.780  14.880
59998W        W32346  39.054   2.389  13.974
59999W        W32347  40.929  38.036  11.893
60000W        W32348  24.201  21.699  12.354
60001W        W32349  30.123  13.201   2.218
60002W        W32350  11.857  25.990  13.827
60003W        W32351  16.648  24.703  13.449
60004W        W32352  31.962  11.135   0.896
60005W        W32353  26.668  22.101   4.639
60006W        W32354   5.421  33.433   4.318
60007W        W32355  37.356  23.018  13.059
60008W        W32356  15.719  33.962  10.579
60009W        W32357  32.127  36.985   3.821
60010W        W32358  44.413   5.378  14.762
60011W        W32359  39.385  36.536   3.830
60012W        W32360  24.226   7.763  10.603
60013W        W32361  21.719  23.670   0.251
60014W        W32362   2.775  39.974  11.124
60015W        W32363  10.834   9.216   0.806
60016W        W32364  31.059  19.064  11.530
60017W        W32365  25.059  43.436   2.789
60018W        W32366  23.591  35.533   2.782
60019W        W32367  35.422   3.363  12.374
60020W        W32368  26.063  37.437   4.708
60021W        W32369  43.004  10.372   2.333
60022W        W32370   1.766  35.998  10.438
60023W        W32371  31.052  19.748  11.489
60024W        W32372   2.842  26.484  12.075
60025W        W32373  32.053  38.948  10.998
60026W        W32374   8.362  23.119   5.579
60027W        W32375   9.782  39.396   4.340
60028W        W32376  31.561  21.046   2.196
60029W        W32377  16.095  33.567   4.260
60030W        W32378   7.868   1.263   2.665
60031W        W32379   5.863   1.885  13.459
60032W        W32380  17.608  39.016   2.321
60033W        W32381  23.560  18.636  10.538
60034W        W32382  41.884  23.217   1.924
60035W        W32383  30.618  24.167  10.567
60036W        W32384  21.115  36.950  11.119
60037W        W32385   6.688  15.188   2.892
60038W        W32386   8.900  36.932  10.500
60039W        W32387  13.238  42.388  11.466
60040W        W32388  12.626   4.749   3.162
60041W        W32389  31.500  15.784   2.268
60042W        W32390   3.788   5.381   2.720
60043W        W32391  11.638   6.312  11.529
60044W        W32392  22.112  36.057   1.718
60045W        W32393  40.543  11.302  11.533
60046W        W32394  34.973  11.151  12.526
60047W        W32395  38.953  40.943  12.881
60048W        W32396  31.981  18.744  14.481
60049W        W32397  15.223  30.434  10.533
60050W        W32398   2.327  23.690   1.278
60051W        W32399  16.779  26.569   4.803
60052W        W32400  29.164  32.557   2.752
60053W        W32401   4.261  40.045   1.804
60054W        W32402  21.037   4.357   3.647
60055W        W32403  28.064  16.752  11.435
60056W        W32404  37.899   3.815   5.691
60057W        W32405  38.353  41.815  12.566
60058W        W32406  33.924  41.307  12.004
60059W        W32407  30.123  35.361   1.261
60060W        W32408   2.367   2.419   1.757
60061W        W32409   5.385  22.717  12.852
60062W        W32410  17.115  12.162   4.833
60063W        W32411  36.592   0.955  13.935
60064W        W32412  27.675  42.918   0.275
60065W        W32413   0.444  40.411   4.194
60066W        W32414  31.985  26.498  14.505
60067W        W32415   4.870   4.760  11.544
60068W        W32416  11.815  16.116  10.432
60069W        W32417  32.135   7.765  14.442
60070W        W32418  42.389   5.226  13.059
60071W        W32419  39.552  39.534   3.219
60072W        W32420  14.746  35.889  11.919
60073W        W32421  41.835  36.092  12.897
60074W        W32422  15.322  27.471  12.518
60075W        W32423   7.739  27.126  10.416
60076W        W32424  33.539  26.130  11.985
60077W        W32425   1.356  21.720   3.659
60078W        W32426  16.219  39.001  10.499
60079W        W32427  41.400   7.326  12.414
60080W        W32428  31.607   0.357  13.438
60081W        W32429  17.108  35.966   1.299
60082W        W32430  11.282  39.467  10.980
60083W        W32431   4.241   0.960   1.237
60084W        W32432   3.360  35.363  11.485
60085W        W32433  39.954  31.986   3.663
60086W        W32434  30.046  21.669   3.283
60087W        W32435   1.416  17.666  14.354
60088W        W32436  13.157  16.684   3.686
60089W        W32437  20.712  40.825   0.414
60090W        W32438   9.199   3.942  12.410
60091W        W32439  10.865  10.717  11.118
60092W        W32440  42.883   3.459   3.786
60093W        W32441  42.289  43.352   2.309
60094W        W32442   4.940  25.120   2.783
60095W        W32443  10.212  18.093  10.002
60096W        W32444  18.659  18.182  11.425
60097W        W32445   4.904  14.315  10.155
60098W        W32446  37.971  30.464   0.953
60099W        W32447  43.850  17.129   4.271
60100W        W32448  41.516  39.540   1.367
60101W        W32449   5.722  38.570  11.519
60102W        W32450  33.990  44.263   0.832
60103W        W32451  10.662  22.128   5.319
60104W        W32452  19.073  33.084   0.949
60105W        W32453  15.156  42.779  12.412
60106W        W32454  23.234  12.242   4.787
60107W        W32455  44.819  13.139  13.901
60108W        W32456  10.330   7.769  11.124
60109W        W32457  14.623  41.818   3.223
60110W        W32458  36.945  33.547   2.677
60111W        W32459   4.716  14.631   2.351
60112W        W32460  25.006  35.491  11.905
60113W        W32461  37.384  16.270   1.279
60114W        W32462  23.105  32.523   1.322
60115W        W32463   9.817  42.469   3.263
60116W        W32464   2.812  24.542  13.422
60117W        W32465  33.605  30.561  10.940
60118W        W32466   1.857   5.253   2.396
60119W        W32467  12.327  24.533   2.808
60120W        W32468  43.339  26.019  12.085
60121W        W32469  15.294  14.788   5.220
60122W        W32470   8.190  28.005   3.322
60123W        W32471  13.766  44.482   4.708
60124W        W32472  42.349   7.904  14.019
60125W        W32473  10.793  26.475  14.937
60126W        W32474   0.386   2.368   1.781
60127W        W32475  39.365  16.600   3.311
60128W        W32476  33.976  20.648   3.714
60129W        W32477  42.337   9.816   3.867
60130W        W32478  40.918  11.234   1.424
60131W        W32479  16.198  18.125   1.780
60132W        W32480  34.940  24.598   1.785
60133W        W32481  39.880  26.562  12.504
60134W        W32482   9.881  37.048  11.969
60135W        W32483  39.349  36.587  11.870
60136W        W32484  33.549   4.834   1.769
60137W        W32485  11.818  44.484   4.603
60138W        W32486  22.236  40.404  14.444
60139W        W32487  38.425  10.372   4.835
60140W        W32488  18.573  25.490   1.239
60141W        W32489  25.123  33.586  11.556
60142W        W32490  41.502   9.673   0.304
60143W        W32491  30.652  26.527   3.803
60144W        W32492  26.043  31.470  14.869
60145W        W32493  43.441  38.426  11.066
60146W        W32494  37.464  10.811  14.012
60147W        W32495  12.191  43.789  14.788
60148W        W32496  27.030  22.211   3.349
60149W        W32497  39.974   2.267  11.019
60150W        W32498  31.913  36.568  13.825
60151W        W32499  10.831  37.369   2.768
60152W        W32500  21.149  40.801  13.847
60153W        W32501   6.269   1.452  12.999
60154W        W32502  10.332   1.273   4.278
60155W        W32503  28.012  39.029   1.758
60156W        W32504  25.621  18.603  13.427
60157W        W32505  28.520  30.590  13.406
60158W        W32506  27.658  27.108   0.868
60159W        W32507   8.400  14.642  12.520
60160W        W32508  26.567  38.435   4.284
60161W        W32509   8.766  40.542   5.118
60162W        W32510   7.764  37.470  12.017
60163W        W32511  14.119  23.561  11.572
60164W        W32512  38.423  29.633  12.986
60165W        W32513  11.675  17.173   3.700
60166W        W32514  13.774  29.135   2.335
60167W        W32515  42.028  28.971  12.475
60168W        W32516  28.157  34.585  14.927
60169W        W32517  44.390   2.745   4.124
60170W        W32518   2.431  28.142   1.317
60171W        W32519   8.384  27.095  11.462
60172W        W32520  37.542  20.240  10.992
60173W        W32521  43.817  29.462  13.446
60174W        W32522  43.487  23.193  11.018
60175W        W32523   3.273  20.588  10.911
60176W        W32524  13.349   2.749  13.906
60177W        W32525   3.823  36.355   3.697
60178W        W32526  34.573  33.506   0.850
60179W        W32527   2.764  22.153   4.122
60180W        W32528  24.720   6.845  14.292
60181W        W32529  13.773   2.444   2.229
60182W        W32530  25.085  34.963   1.231
60183W        W32531  25.689  19.626  11.549
60184W        W32532   2.261  17.779   3.356
60185W        W32533   4.414   0.962  13.314
60186W        W32534  18.142  30.490   5.281
60187W        W32535  10.273  40.511   1.921
60188W        W32536   2.874   5.238  10.920
60189W        W32537   7.667   6.307  10.519
60190W        W32538  34.955  21.635  10.899
60191W        W32539  15.690   2.832   3.288
60192W        W32540  28.963  28.476   1.230
60193W        W32541  22.090  37.841  12.568
60194W        W32542  17.073  14.327  10.438
60195W        W32543   6.300  15.779   2.872
60196W        W32544  33.586   1.812  12.979
60197W        W32545  44.866  33.588  14.921
60198W        W32546  11.650  30.003   0.262
60199W        W32547  42.286  11.367  12.498
60200W        W32548  38.880  13.194   0.439
60201W        W32549  41.856   5.864   2.281
60202W        W32550  14.647   6.191   2.790
60203W        W32551  31.430  27.059  10.968
60204W        W32552  19.573  44.489   0.475
60205W        W32553   2.288  24.988   0.932
60206W        W32554  39.318   7.202  11.100
60207W        W32555  21.182  13.747  10.529
60208W        W32556  15.168   8.857  12.012
60209W        W32557  32.559  30.466  10.619
60210W        W32558  39.940  33.908   4.759
60211W        W32559  19.277  29.589   4.254
60212W        W32560  27.567  19.269  12.954
60213W        W32561  24.505  26.547  14.921
60214W        W32562  10.295  29.661  14.428
60215W        W32563  28.548  38.920  11.388
60216W        W32564   0.492  13.242   2.825
60217W        W32565  15.715  16.119  10.896
60218W        W32566   5.739  33.458  11.455
60219W        W32567   7.267   6.887  13.048
60220W        W32568  14.154  13.626   3.636
60221W        W32569  30.498  17.589  11.548
60222W        W32570  36.030  22.642  10.609
60223W        W32571   9.211   7.797  10.543
60224W        W32572  33.110  28.143  14.971
60225W        W32573  38.521  19.065   4.828
60226W        W32574  28.646   8.367  10.430
60227W        W32575  37.406  20.724   3.228
60228W        W32576   7.316  42.967   3.866
60229W        W32577   8.321  34.958  11.501
60230W        W32578  37.832  13.141   0.848
60231W        W32579  17.775  18.683   4.203
60232W        W32580   5.704  42.815   3.340
60233W        W32581   3.784  17.584  12.854
60234W        W32582  37.566  10.863   4.134
60235W        W32583  11.775   9.368  13.024
60236W        W32584  26.532  34.044   1.906
60237W        W32585   1.957  37.494   1.384
60238W        W32586   5.358  41.898  12.922
60239W        W32587  16.812  16.583   0.462
60240W        W32588   0.834  29.608   1.743
60241W        W32589   6.203  43.002   0.445
60242W        W32590  14.819  10.347   9.991
60243W        W32591  32.010  27.965  11.460
60244W        W32592   0.302   0.889  13.907
60245W        W32593  26.159  13.151  11.536
60246W        W32594  43.953  44.481   2.806
60247W        W32595   8.182  31.120   4.723
60248W        W32596   3.298  19.773  12.411
60249W        W32597  13.765  38.825   1.325
60250W        W32598  36.932   3.313   1.272
60251W        W32599  40.942   6.277  14.401
60252W        W32600  44.872  25.615   1.345
60253W        W32601  31.076  15.326   1.864
60254W        W32602   9.283  32.440  14.804
60255W        W32603  22.204   7.407  12.489
60256W        W32604  26.960   7.703   2.277
60257W        W32605  33.078   7.236   1.839
60258W        W32606   0.790  37.950  12.912
60259W        W32607  11.846  23.518  13.954
60260W        W32608   5.323  39.915   4.294
60261W        W32609  40.495  20.103  12.989
60262W        W32610  18.721  18.549  10.980
60263W        W32611  26.475  39.004  12.948
60264W        W32612  38.899   4.293   4.655
60265W        W32613  25.099  44.891   3.679
60266W        W32614  28.583  15.761   0.315
60267W        W32615  10.723  11.205  11.524
60268W        W32616  10.215  12.121  14.997
60269W        W32617  22.541  29.003  13.527
60270W        W32618  22.035  39.538   0.942
60271W        W32619   2.885  35.393  14.293
60272W        W32620  16.576   0.922  14.764
60273W        W32621  32.402   2.395  13.323
60274W        W32622  38.021   3.431   0.460
60275W        W32623  11.225   9.652   4.306
60276W        W32624  23.689  25.482   2.369
60277W        W32625   9.322   3.940   0.269
60278W        W32626  43.976  19.117  13.406
60279W        W32627  40.042  24.668   3.809
60280W        W32628  34.589  38.965   3.666
60281W        W32629  10.141  33.386   1.406
60282W        W32630  15.673  14.625  13.795
60283W        W32631   1.805   3.426  11.970
60284W        W32632  22.131   6.340   4.831
60285W        W32633  15.588  39.032  14.897
60286W        W32634   2.858   8.868   0.323
60287W        W32635  21.251  36.941  11.532
60288W        W32636  43.359  38.032   2.313
60289W        W32637  17.136   2.261   0.409
60290W        W32638  24.642  28.117   4.703
60291W        W32639   6.722  22.132  13.448
60292W        W32640  16.701  32.613  11.508
60293W        W32641  27.009  39.461   2.380
60294W        W32642  12.341  17.769  12.531
60295W        W32643  39.952   2.925  12.356
60296W        W32644   3.835  24.638   4.224
60297W        W32645  21.218  24.027   4.145
60298W        W32646  25.143  25.215  11.512
60299W        W32647  36.458  14.759  14.760
60300W        W32648   6.416  43.437   1.338
60301W        W32649  30.516  35.972   1.381
60302W        W32650  22.999   1.925   1.917
60303W        W32651  32.624  38.449  11.928
60304W        W32652  36.944   1.864  14.453
60305W        W32653  20.048  25.041  14.285
60306W        W32654  42.391  40.908   2.828
60307W        W32655   9.186  20.599  10.496
60308W        W32656  16.242  28.633  12.030
60309W        W32657  27.005  34.101  14.497
60310W        W32658  20.182  24.133   1.408
60311W        W32659  14.663  43.916   4.147
60312W        W32660  44.348  33.425   1.718
60313W        W32661   3.756   4.906  11.092
60314W        W32662  11.252  11.225   3.772
60315W        W32663   7.895   5.703   0.860
60316W        W32664  34.444  27.639   1.450
60317W        W32665  17.765  29.060   0.821
60318W        W32666   5.381  26.551  12.539
60319W        W32667  13.336  25.603  10.576
60320W        W32668  37.386  44.887   2.715
60321W        W32669  32.499  28.681  11.078
60322W        W32670  28.550   1.418  14.447
60323W        W32671  10.781  13.738   4.811
60324W        W32672  13.198  27.969   2.308
60325W        W32673  39.932  42.461   1.866
60326W        W32674  12.821  31.509  14.306
60327W        W32675   3.219   7.319  12.562
60328W        W32676  11.246  21.646  12.545
60329W        W32677  17.766  37.577  14.484
60330W        W32678  37.341  42.824  11.534
60331W        W32679  28.573   3.229  13.903
60332W        W32680  34.526  16.583  10.429
60333W        W32681  34.569  40.851  12.931
60334W        W32682  24.183  38.911  12.884
60335W        W32683  21.750   0.435  14.025
60336W        W32684   4.367  36.939   3.287
60337W        W32685   1.897  19.056  14.462
60338W        W32686   9.167  22.556   1.801
60339W        W32687  33.019  13.795   2.268
60340W        W32688  44.857  40.336  12.977
60341W        W32689  26.544  20.695  11.559
60342W        W32690  42.343   3.264  12.983
60343W        W32691   6.185  40.394  12.412
60344W        W32692  38.327   3.387  12.079
60345W        W32693  42.923  20.743   0.750
60346W        W32694  41.499   0.492  13.363
60347W        W32695  16.752   6.274  13.837
60348W        W32696  22.672  35.506   3.848
60349W        W32697  25.052  12.661  11.880
60350W        W32698   9.278  24.978  11.909
60351W        W32699  41.984  38.410   0.380
60352W        W32700   5.769  17.604   2.288
60353W        W32701  27.689   7.232   2.391
60354W        W32702   4.447  27.556   2.767
60355W        W32703  40.981  12.313   1.863
60356W        W32704  25.075  40.895  14.010
60357W        W32705  33.454  19.237  14.277
60358W        W32706  12.156  11.640  12.480
60359W        W32707   3.907  27.502   4.603
60360W        W32708   1.746  34.602   0.826
60361W        W32709  37.841  20.690   5.672
60362W        W32710  14.724   6.362   0.858
60363W        W32711  38.983  25.537  14.957
60364W        W32712  11.732  12.815   3.340
60365W        W32713  19.119   4.296   2.246
60366W        W32714  33.025   2.937   3.286
60367W        W32715  24.986  36.527  13.811
60368W        W32716  11.683  17.652  13.472
60369W        W32717   7.758  38.454  13.055
60370W        W32718  35.495  41.933  14.831
60371W        W32719  40.007   4.877   0.445
60372W        W32720  21.187  17.089  13.357
60373W        W32721  35.402  35.381   0.422
60374W        W32722  11.769  26.039  11.967
60375W        W32723  25.962  25.593  14.325
60376W        W32724   2.471  19.669  13.919
60377W        W32725   7.829  42.386   0.911
60378W        W32726  30.583  20.264  10.590
60379W        W32727  37.957  14.137   1.908
60380W        W32728   2.430   6.338  13.482
60381W        W32729  25.585  42.441   3.737
60382W        W32730  29.960   9.175   4.651
60383W        W32731  19.550   5.762   0.784
60384W        W32732   9.182   5.277  11.418
60385W        W32733  25.482  23.542   4.170
60386W        W32734  10.234   3.415   5.208
60387W        W32735  15.612  34.375   2.221
60388W        W32736  14.670  35.436  14.409
60389W        W32737  13.742  41.887   0.921
60390W        W32738  35.523  27.020  11.909
60391W        W32739  34.559  20.698  12.395
60392W        W32740  26.535   6.683  11.462
60393W        W32741  35.872   8.787  13.992
60394W        W32742  31.632  20.245  13.936
60395W        W32743  40.810  14.791  11.376
60396W        W32744   7.297   4.260  12.837
60397W        W32745   6.247  17.140  14.988
60398W        W32746  39.975  34.401  13.335
60399W        W32747  14.640  41.977  11.591
60400W        W32748  10.200   7.707  12.011
60401W        W32749  13.322  12.258   3.210
60402W        W32750  29.013  15.229  12.828
60403W        W32751   0.841  44.757  11.070
60404W        W32752  35.034  42.835   2.750
60405W        W32753  10.352  24.626  13.799
60406W        W32754   6.297  31.913   1.813
60407W        W32755   9.174  17.705  11.611
60408W        W32756  41.469  31.605  11.916
60409W        W32757  41.871  30.102   0.730
60410W        W32758  33.005  43.372   3.225
60411W        W32759   8.717  40.511  13.402
60412W        W32760  13.757  14.134   0.459
60413W        W32761  34.027   3.814   2.210
60414W        W32762  23.537  11.630  11.462
60415W        W32763  19.221   8.836  11.036
60416W        W32764  24.558  23.125   2.331
60417W        W32765   8.701  26.530   4.125
60418W        W32766  34.063  42.393   3.241
60419W        W32767  33.395   5.857   0.873
60420W        W32768  41.394  22.138   4.766
60421W        W32769  43.349  44.390  13.851
60422W        W32770   1.333  10.378  13.496
60423W        W32771  23.087  10.665   9.450
60424W        W32772  36.402  13.181   3.752
60425W        W32773  33.103  27.024  11.603
60426W        W32774   9.758  44.940  10.621
60427W        W32775  36.913   9.758   4.766
60428W        W32776   6.210  30.024  11.900
60429W        W32777  31.015  14.676  12.482
60430W        W32778  39.931  35.403   4.817
60431W        W32779  41.938  11.332  11.568
60432W        W32780  21.196   3.757   0.260
60433W        W32781  10.375  36.960  12.578
60434W        W32782   2.925   7.705   3.263
60435W        W32783   3.889  12.133   3.812
60436W        W32784  25.093  16.684   1.347
60437W        W32785  19.151  16.196   1.363
60438W        W32786  20.602  19.728  12.911
60439W        W32787  33.907   3.908  12.501
60440W        W32788  15.747  26.993   2.757
60441W        W32789   8.896   5.717  14.443
60442W        W32790  34.105  27.128  11.988
60443W        W32791   0.332  10.236  11.489
60444W        W32792   1.872  42.800   0.750
60445W        W32793  43.799   1.954  12.875
60446W        W32794  17.111  44.949   4.826
60447W        W32795  29.478  41.376   4.804
60448W        W32796   4.820  33.396   1.880
60449W        W32797  33.131  19.690  14.971
60450W        W32798   4.880  33.064   4.132
60451W        W32799  29.993  24.154   1.308
60452W        W32800  13.813  11.170  14.915
60453W        W32801  12.145  29.138  12.057
60454W        W32802  38.568  39.362   1.721
60455W        W32803  28.941  43.937  12.532
60456W        W32804   6.237  37.446  11.916
60457W        W32805   1.360  20.531   0.898
60458W        W32806  38.962   9.368   4.705
60459W        W32807  16.187  39.467  12.482
60460W        W32808  30.089  14.155   5.156
60461W        W32809  11.314  44.909   3.841
60462W        W32810  32.428  13.772  11.519
60463W        W32811  20.639  21.065   2.896
60464W        W32812  21.210  39.046   2.211
60465W        W32813  23.638   7.398   0.893
60466W        W32814   1.448  22.148   1.341
60467W        W32815  34.901  29.500   0.349
60468W        W32816  42.776  20.565   1.344
60469W        W32817  37.543   7.828  10.154
60470W        W32818  19.579  40.523  14.382
60471W        W32819  34.037  11.232   0.365
60472W        W32820  11.158  19.255  14.995
60473W        W32821  36.583   8.724   0.285
60474W        W32822  40.819  40.975   3.246
60475W        W32823  37.913  23.059  12.438
60476W        W32824  23.076   8.183   2.672
60477W        W32825   5.790  39.480   2.798
60478W        W32826  21.032  23.631  10.590
60479W        W32827  20.165  35.447  11.479
60480W        W32828  33.430  28.086  13.397
60481W        W32829  37.517  21.583  12.891
60482W        W32830  31.029  24.693   2.689
60483W        W32831  43.777  40.805  13.845
60484W        W32832  22.608  24.206  12.422
60485W        W32833   2.442  40.930   3.787
60486W        W32834   0.323  17.637  10.516
60487W        W32835  44.855  23.129  10.641
60488W        W32836  34.047   0.389   2.855
60489W        W32837   1.834  22.505   4.196
60490W        W32838   6.813  42.796   0.869
60491W        W32839  32.030  37.902   2.295
60492W        W32840  16.256  10.345   3.194
60493W        W32841   6.808  16.316  13.033
60494W        W32842  17.095  33.415  11.463
60495W        W32843   3.813  35.893   2.831
60496W        W32844  44.794  41.854   3.784
60497W        W32845  38.476  16.153   4.282
60498W        W32846  25.576   2.841  10.935
60499W        W32847  17.172  36.905  11.869
60500W        W32848  34.520  17.294   2.195
60501W        W32849  15.174  16.758   3.329
60502W        W32850  32.564   4.839   9.999
60503W        W32851  36.580  42.328  12.571
60504W        W32852  37.912   8.841   1.838
60505W        W32853  38.518  18.694  12.940
60506W        W32854  24.634  37.463  11.489
60507W        W32855  11.647  24.660  13.831
60508W        W32856  21.734  31.543  11.088
60509W        W32857  12.836  44.303  10.620
60510W        W32858  31.510  19.561  10.589
60511W        W32859  42.324  17.232  12.856
60512W        W32860  29.652  42.853   1.217
60513W        W32861  37.018  34.013  11.535
60514W        W32862   9.232  37.860   4.617
60515W        W32863  16.682   6.835   0.869
60516W        W32864  32.890   7.685   5.591
60517W        W32865  29.926   6.873  10.065
60518W        W32866  40.549  17.254  13.871
60519W        W32867  36.963   1.421  13.870
60520W        W32868  21.052  10.755  13.916
60521W        W32869  41.384  13.777  13.438
60522W        W32870  14.123  42.525  11.858
60523W        W32871  44.387  22.583  11.489
60524W        W32872  13.121  24.508   4.671
60525W        W32873  43.277  38.896  11.402
60526W        W32874  28.051  19.207  10.901
60527W        W32875   2.904  21.733   3.298
60528W        W32876  15.325  39.545  11.038
60529W        W32877  14.112  31.953   0.463
60530W        W32878  22.083  10.865   5.614
60531W        W32879  18.258  23.990  10.430
60532W        W32880  34.598  42.438  12.097
60533W        W32881   4.811  27.650   0.787
60534W        W32882  36.490  36.500  12.432
60535W        W32883  14.163  43.979  14.942
60536W        W32884  38.351   2.917   2.282
60537W        W32885  35.902  27.509   0.409
60538W        W32886  17.136   5.840  13.511
60539W        W32887   0.313  30.632  14.787
60540W        W32888  39.870   6.764  13.985
60541W        W32889  18.731   2.373  12.482
60542W        W32890  22.230  36.002   4.775
60543W        W32891  21.732   9.811   0.383
60544W        W32892  16.120  29.975   1.749
60545W        W32893   8.272  32.475  12.355
60546W        W32894  14.772  26.197   0.895
60547W        W32895   3.450  26.482   4.754
60548W        W32896   7.206  18.614  13.022
60549W        W32897  41.022  42.786  12.936
60550W        W32898  28.158  36.959  13.995
60551W        W32899   1.753  21.182   1.850
60552W        W32900  44.423   8.362   4.128
60553W        W32901  25.213  20.112   4.821
60554W        W32902  17.296  27.486   1.346
60555W        W32903   9.273   6.887  13.478
60556W        W32904   7.737  41.862  13.851
60557W        W32905  25.154  32.476   4.178
60558W        W32906  30.530  14.697   2.367
60559W        W32907   0.466  31.131  10.992
60560W        W32908  38.918  21.102   1.767
60561W        W32909  32.937  41.860   2.206
60562W        W32910  44.784   1.366  11.380
60563W        W32911  31.906  42.285   4.147
60564W        W32912  39.510  20.217  10.555
60565W        W32913   0.981   5.334  12.344
60566W        W32914   4.761  37.540  14.900
60567W        W32915  33.893   9.662   2.698
60568W        W32916  42.796  26.999   5.262
60569W        W32917  17.780  31.459  12.895
60570W        W32918  29.996  19.635   4.709
60571W        W32919  36.396  42.815   1.369
60572W        W32920  20.752  31.059  10.007
60573W        W32921  29.551   7.318  12.974
60574W        W32922  25.577   8.290  12.448
60575W        W32923  22.719  22.185  14.293
60576W        W32924  41.532  30.534   1.420
60577W        W32925  27.673  16.679   1.699
60578W        W32926  10.830  26.030  14.505
60579W        W32927  30.926   9.751  11.588
60580W        W32928   3.388  30.149  11.469
60581W        W32929  10.283  30.081   4.735
60582W        W32930  20.621  29.612   3.840
60583W        W32931  29.922  37.953   0.443
60584W        W32932   0.782  19.282  11.126
60585W        W32933  35.462  23.021   5.110
60586W        W32934  44.398  29.023   0.476
60587W        W32935  42.991  32.466  10.598
60588W        W32936  20.208  37.026   0.378
60589W        W32937  17.268  43.287  12.521
60590W        W32938  15.624  37.405  10.636
60591W        W32939  10.743  32.547   4.237
60592W        W32940  37.556  24.008  10.469
60593W        W32941   1.970  30.079  11.469
60594W        W32942   5.433  19.557  14.409
60595W        W32943  36.099  33.890  10.958
60596W        W32944  25.990  43.334  14.857
60597W        W32945  28.023  15.614   1.216
60598W        W32946  24.723   8.887  10.955
60599W        W32947   2.346  19.740   3.769
60600W        W32948  38.565  35.084  12.487
60601W        W32949  33.904  18.615  14.828
60602W        W32950  31.591   7.856  12.880
60603W        W32951  30.511   9.644  13.930
60604W        W32952  36.904  21.237  12.056
60605W        W32953  16.682  18.612  12.047
60606W        W32954  24.051   3.441  13.391
60607W        W32955  17.126  12.842   1.710
60608W        W32956  11.840   2.412  11.071
60609W        W32957  43.488  12.362   2.824
60610W        W32958   5.393  16.785  11.481
60611W        W32959  28.993   2.399   2.374
60612W        W32960  27.110  32.549  14.899
60613W        W32961  20.594  24.627   2.268
60614W        W32962  17.150  14.125   1.420
60615W        W32963  41.857  44.862   1.351
60616W        W32964  42.899  37.392  14.993
60617W        W32965  34.867  44.768  13.426
60618W        W32966  35.004  34.521   2.299
60619W        W32967   7.822   3.451  13.442
60620W        W32968  13.267  29.451  13.897
60621W        W32969  30.416  16.186   1.866
60622W        W32970   2.818  10.342   2.282
60623W        W32971  24.523  32.930  10.532
60624W        W32972  20.615  17.217   1.391
60625W        W32973  10.380  13.823   4.241
60626W        W32974  29.477  43.350  13.351
60627W        W32975  26.089  41.849   0.874
60628W        W32976  41.444  20.620  13.952
60629W        W32977  32.529   2.342   2.798
60630W        W32978  31.503  28.667  12.985
60631W        W32979  13.728  12.842  11.516
60632W        W32980   7.825  22.542   3.778
60633W        W32981  25.155  35.024  12.497
60634W        W32982   0.971  22.723   1.864
60635W        W32983  18.741   9.887   2.698
60636W        W32984  14.340  17.558  13.517
60637W        W32985  22.588   0.269   3.803
60638W        W32986  36.592  26.955  14.504
60639W        W32987   6.426  17.747   3.186
60640W        W32988  17.261   4.253  10.585
60641W        W32989  22.571  31.466  10.456
60642W        W32990  11.336   8.271   2.742
60643W        W32991  14.298   3.771  12.850
60644W        W32992  29.030  30.594   2.787
60645W        W32993  28.064  21.752   3.165
60646W        W32994   7.895  14.323  14.436
60647W        W32995  42.922  15.814   4.204
60648W        W32996   5.369  25.143   0.789
60649W        W32997  44.396  10.660  12.043
60650W        W32998  10.821  35.007  13.979
60651W        W32999  18.101   6.917   0.455
60652W        W33000   3.219  26.549  11.072
60653W        W33001  16.805  13.286   3.196
60654W        W33002  24.688  44.764  13.471
60655W        W33003  21.566  22.045  10.578
60656W        W33004   2.835  37.941  11.918
60657W        W33005   6.859  30.608   1.927
60658W        W33006   7.288  25.587  14.361
60659W        W33007  39.944  17.119   2.392
60660W        W33008  21.150  10.302   2.722
60661W        W33009  35.423  43.908   2.305
60662W        W33010   1.379  20.057   1.324
60663W        W33011  35.059  30.053  13.007
60664W        W33012   8.899  30.491   0.822
60665W        W33013  32.025  43.779   3.705
60666W        W33014  20.130   1.353   1.356
60667W        W33015  15.278  33.922  12.395
60668W        W33016  36.397  11.311   3.249
60669W        W33017  15.679  32.026   1.894
60670W        W33018  13.265  36.474  14.898
60671W        W33019   1.480  29.560  14.516
60672W        W33020  23.204  44.271   1.734
60673W        W33021   3.949   3.794  14.949
60674W        W33022  10.670  37.977   1.808
60675W        W33023  43.799  40.350   4.657
60676W        W33024  33.955   8.799  11.994
60677W        W33025   8.405   9.206  14.418
60678W        W33026   8.335  27.990  10.621
60679W        W33027  41.013   6.854  13.452
60680W        W33028   2.816  12.838  12.446
60681W        W33029  33.603  33.614  10.945
60682W        W33030  41.396  28.968  14.802
60683W        W33031  37.005  44.776  13.441
60684W        W33032  35.865   6.796   0.354
60685W        W33033  43.814  43.883  11.573
60686W        W33034  32.520   6.288  11.975
60687W        W33035  22.177  15.628  11.571
60688W        W33036  12.278  35.583  13.521
60689W        W33037   5.212  43.787  13.495
60690W        W33038  36.066  10.826   4.143
60691W        W33039  17.122  39.811  10.020
60692W        W33040  37.073  18.202  11.421
60693W        W33041   6.294  21.040   2.253
60694W        W33042  24.567   6.244   1.852
60695W        W33043  38.422  29.578  10.591
60696W        W33044  37.012  40.833   3.793
60697W        W33045   3.863  23.206   3.263
60698W        W33046  38.332  21.056  12.072
60699W        W33047  13.620   9.828   2.368
60700W        W33048  17.577  44.927   0.262
60701W        W33049  38.454  17.068  12.983
60702W        W33050  13.804  15.617   0.297
60703W        W33051  27.953  26.980  12.348
60704W        W33052  11.734   4.235  10.614
60705W        W33053  26.162  16.759   1.235
60706W        W33054  41.995  36.874  10.523
60707W        W33055  14.758  21.136   0.359
60708W        W33056   8.238  32.570   0.829
60709W        W33057  44.456  33.882  12.462
60710W        W33058   6.910  40.310  10.532
60711W        W33059  34.541  12.214   4.669
60712W        W33060  19.700  39.429  11.426
60713W        W33061  30.158   0.251  14.465
60714W        W33062   7.835  24.195   4.130
60715W        W33063  30.948  43.455   4.235
60716W        W33064  32.086  29.125  14.340
60717W        W33065  39.816  35.529   1.895
60718W        W33066   2.917  18.668  10.998
60719W        W33067  21.158  38.834  14.382
60720W        W33068  28.994  22.160   1.251
60721W        W33069  22.614  24.627   1.353
60722W        W33070  38.923  34.913  14.971
60723W        W33071  37.983  24.139  12.933
60724W        W33072  44.919  11.760  13.016
60725W        W33073   2.733  41.535   0.729
60726W        W33074  38.484   2.467  11.096
60727W        W33075  26.537  21.067   3.165
60728W        W33076  10.634  18.728   3.232
60729W        W33077  39.455  31.909   1.259
60730W        W33078  33.614  22.127   0.925
60731W        W33079  26.153  31.530   2.197
60732W        W33080  11.223  17.260   3.846
60733W        W33081   0.867   5.432   4.687
60734W        W33082   3.216  25.605   1.736
60735W        W33083  18.214  33.538   0.390
60736W        W33084  43.375  13.846  13.980
60737W        W33085   5.208  28.935  12.510
60738W        W33086  20.057  19.197   3.681
60739W        W33087  40.981  43.834   4.263
60740W        W33088   5.891  17.787  12.402
60741W        W33089  25.599   0.743   5.087
60742W        W33090  33.096  12.709  13.504
60743W        W33091   5.245  31.644  14.880
60744W        W33092  42.002   7.325   3.779
60745W        W33093  18.751  27.644   3.736
60746W        W33094  43.501   3.792  13.841
60747W        W33095  37.875  35.591   4.823
60748W        W33096   7.271   8.254  14.475
60749W        W33097  39.862  14.703   2.324
60750W        W33098  17.303   4.322   3.351
60751W        W33099  30.438   9.865   3.160
60752W        W33100  29.077  16.131   4.227
60753W        W33101   0.362   3.781   4.741
60754W        W33102  16.581   7.204  12.906
60755W        W33103  22.210  21.704   4.203
60756W        W33104   7.294  40.987  14.447
60757W        W33105   6.396  12.610  10.899
60758W        W33106  16.168  32.080   0.735
60759W        W33107  37.938   8.177  14.804
60760W        W33108  21.154  40.408   0.748
60761W        W33109  26.085  33.485  14.508
60762W        W33110   9.833  39.979   4.291
60763W        W33111  36.097  19.205  11.081
60764W        W33112  22.039  17.287   2.851
60765W        W33113  25.536  26.002   1.828
60766W        W33114  39.055  27.161   3.263
60767W        W33115  33.925  40.466  14.298
60768W        W33116  25.198  37.833  11.870
60769W        W33117  41.805  18.570   1.732
60770W        W33118  13.328  25.564   0.778
60771W        W33119  40.332  33.593   1.344
60772W        W33120  41.506   7.254  10.953
60773W        W33121   0.952  13.654  12.088
60774W        W33122  25.089  32.953   1.726
60775W        W33123   1.807  17.726   0.433
60776W        W33124  12.742   8.816   2.792
60777W        W33125  15.725  36.040  10.483
60778W        W33126   0.356  18.268   3.862
60779W        W33127  16.260  25.102  13.412
60780W        W33128   5.423  26.066   4.223
60781W        W33129  39.881  26.527  12.874
60782W        W33130   2.877  39.034  12.039
60783W        W33131  28.634  39.882   2.680
60784W        W33132  37.993  44.002  12.883
60785W        W33133  18.113  32.923   4.630
60786W        W33134   2.731  41.965  13.935
60787W        W33135  10.800  17.209   2.397
60788W        W33136  23.026  32.006   3.262
60789W        W33137  41.908   2.337  13.470
60790W        W33138  13.805  17.664   0.483
60791W        W33139   8.382  31.616   3.328
60792W        W33140   5.217  16.114   1.853
60793W        W33141  34.918  25.556  14.427
60794W        W33142  20.657  21.603  14.376
60795W        W33143  44.841  30.494  10.486
60796W        W33144   3.322  13.725  13.868
60797W        W33145  29.563  22.702   4.710
60798W        W33146   3.817  26.640   1.389
60799W        W33147  26.481  19.766   2.754
60800W        W33148  39.021  26.115   9.981
60801W        W33149  33.933  12.270   3.193
60802W        W33150   9.195  14.219  10.980
60803W        W33151  20.274  31.099  14.350
60804W        W33152   0.424   9.151   3.708
60805W        W33153  18.176  15.787   1.233
60806W        W33154  42.899  32.016   2.747
60807W        W33155  17.721  44.848  14.387
60808W        W33156  24.099  13.656  12.544
60809W        W33157   4.803  19.068   4.189
60810W        W33158  23.543   5.262  13.059
60811W        W33159  11.287  41.851  12.038
60812W        W33160  28.104   3.397  11.497
60813W        W33161  29.098  40.029   3.701
60814W        W33162  33.476  22.732   1.273
60815W        W33163   6.886   9.722   0.784
60816W        W33164  42.435  27.983   3.734
60817W        W33165  44.899  10.296   1.416
60818W        W33166   0.272  37.415   4.630
60819W        W33167  40.002  15.651   4.781
60820W        W33168  23.184   6.800   0.301
60821W        W33169  17.639  42.824  14.311
60822W        W33170  19.583  27.450  10.891
60823W        W33171   6.318  31.561   9.438
60824W        W33172  23.166  44.817   1.725
60825W        W33173  16.801  28.640  12.092
60826W        W33174  13.610   2.850   2.340
60827W        W33175   1.892  39.873   4.252
60828W        W33176   8.863  27.564   4.723
60829W        W33177  34.973  41.310  12.901
60830W        W33178  21.137  31.488  12.396
60831W        W33179  42.032   5.353   4.786
60832W        W33180   3.431  23.493  14.811
60833W        W33181  12.786  40.419  11.957
60834W        W33182  17.079  42.004   1.358
60835W        W33183   0.307  10.274  13.307
60836W        W33184   0.309  11.244  10.472
60837W        W33185   2.833   0.296   2.853
60838W        W33186  31.407  28.679  14.898
60839W        W33187  43.015  15.115  13.511
60840W        W33188  21.569  34.375   3.364
60841W        W33189   0.366   5.871   3.647
60842W        W33190  32.917  32.542  13.331
60843W        W33191  37.445   2.289   4.262
60844W        W33192  14.779  38.888  11.868
60845W        W33193  34.520  26.090   3.179
60846W        W33194  29.603   2.742   2.896
60847W        W33195  26.619   8.668   1.751
60848W        W33196  23.015   2.774  12.423
60849W        W33197   9.803  43.936   0.460
60850W        W33198  20.603   1.472   2.831
60851W        W33199  33.408  37.026  14.939
60852W        W33200  23.047  41.298   2.298
60853W        W33201   7.845  12.814  10.539
60854W        W33202  14.612  35.014   4.768
60855W        W33203  10.203  10.666  14.325
60856W        W33204  15.671  22.190   2.745
60857W        W33205  20.251  35.902   5.142
60858W        W33206   1.417  17.107  14.420
60859W        W33207  37.062  36.060   1.223
60860W        W33208  32.482  39.446   0.897
60861W        W33209  26.500   3.786   4.783
60862W        W33210  28.982  24.582  13.958
60863W        W33211  20.532   0.396  11.559
60864W        W33212  19.159   0.430   2.327
60865W        W33213   6.313  14.731   4.278
60866W        W33214  14.145  16.151  12.359
60867W        W33215   7.812  38.937   2.867
60868W        W33216  24.101  34.475  10.011
60869W        W33217  21.207  28.670  14.955
60870W        W33218  41.990  26.580  10.560
60871W        W33219  35.520  28.663   2.747
60872W        W33220  29.643   5.720  13.942
60873W        W33221  23.101   3.227   2.843
60874W        W33222  36.524  26.004  14.336
60875W        W33223  34.432  31.512  11.019
60876W        W33224  40.838   8.704   4.216
60877W        W33225  41.922  35.935  12.436
60878W        W33226   6.874  43.331  10.949
60879W        W33227   2.375  11.740  14.398
60880W        W33228   7.324  10.756   4.337
60881W        W33229  37.986   8.742   3.844
60882W        W33230  14.295  24.592  14.480
60883W        W33231   7.681  19.721  13.468
60884W        W33232  27.557   3.918  13.483
60885W        W33233  37.979   0.796  12.992
60886W        W33234  36.442   6.355  10.464
60887W        W33235  10.704   7.900   4.599
60888W        W33236  37.977  19.749   2.406
60889W        W33237  31.438  22.685   3.804
60890W        W33238  18.550  37.375   2.770
60891W        W33239  27.558  28.066   0.956
60892W        W33240  31.998   3.417  12.529
60893W        W33241  25.980  17.690   0.917
60894W        W33242  17.214   0.414  10.601
60895W        W33243  14.147  27.186   1.358
60896W        W33244  26.205   3.455   4.672
60897W        W33245   3.834   4.346  11.871
60898W        W33246  19.262  33.113  13.881
60899W        W33247  39.871  11.652  13.017
60900W        W33248  19.572  33.570  11.859
60901W        W33249  13.721  32.473  10.892
60902W        W33250  18.100  41.496  12.998
60903W        W33251  42.899  15.631  13.862
60904W        W33252  14.284  19.046   4.838
60905W        W33253  28.572  26.556   0.327
60906W        W33254  35.854  34.089  13.971
60907W        W33255  25.003   6.396   5.171
60908W        W33256  30.999   8.813  11.877
60909W        W33257  35.370  17.797   0.913
60910W        W33258   4.766  23.188   1.336
60911W        W33259  16.219   0.755   2.282
60912W        W33260  27.155   0.486   0.376
60913W        W33261  29.608  19.071   4.676
60914W        W33262  25.046  15.731   3.712
60915W        W33263   2.890  30.958   0.786
60916W        W33264  31.148  11.851  14.943
60917W        W33265  30.427   9.788  11.952
60918W        W33266  43.463   9.162  12.866
60919W        W33267  28.995  14.764   3.326
60920W        W33268  38.394  41.385  14.977
60921W        W33269  37.341   3.346   5.299
60922W        W33270  25.154   9.289  11.525
60923W        W33271  17.247  19.714   1.835
60924W        W33272  10.382  16.681  12.944
60925W        W33273  13.161  16.270  11.021
60926W        W33274  31.449  26.649   1.746
60927W        W33275  40.382  43.301  10.900
60928W        W33276  13.207  38.934   5.198
60929W        W33277   8.264  31.516  10.644
60930W        W33278   4.350   6.298   0.876
60931W        W33279   2.434  18.137  10.993
60932W        W33280  27.541  33.994   4.279
60933W        W33281  24.495   9.204  10.556
60934W        W33282  39.956  11.809   0.468
60935W        W33283  32.412  38.512   0.747
60936W        W33284  33.426  27.974  11.406
60937W        W33285  17.061  29.056   2.836
60938W        W33286  42.779  35.604  13.973
60939W        W33287  44.428  26.514   3.339
60940W        W33288  32.592   6.696  11.530
60941W        W33289  17.614  15.167  12.880
60942W        W33290  35.879  23.624  14.510
60943W        W33291  25.550  22.684  10.964
60944W        W33292   2.822  11.751  13.881
60945W        W33293  41.851  25.613  13.850
60946W        W33294  15.267  38.496  10.445
60947W        W33295   8.289  22.698   1.349
60948W        W33296  38.340  19.144   1.886
60949W        W33297  34.593  15.106  12.926
60950W        W33298  40.330  19.686   2.716
60951W        W33299  37.347  34.369   4.210
60952W        W33300  13.146   9.746   4.316
60953W        W33301   3.436  32.518  13.413
60954W        W33302  12.663  36.429  10.998
60955W        W33303  29.049  31.988   1.299
60956W        W33304  34.509  32.502   0.726
60957W        W33305  28.602  21.075  12.047
60958W        W33306  21.607  36.385   4.612
60959W        W33307  33.052  40.969  14.502
60960W        W33308  16.295   4.290   4.605
60961W        W33309   8.379  20.267   0.942
60962W        W33310  17.263  32.108  10.431
60963W        W33311  42.985  22.252  10.624
60964W        W33312  24.144  33.548   3.629
60965W        W33313  17.776  13.255  10.009
60966W        W33314   2.936  41.294  13.458
60967W        W33315  37.392  39.930  11.935
60968W        W33316  33.954  19.230   1.820
60969W        W33317  27.121   4.301   0.956
60970W        W33318  22.006  14.710  12.904
60971W        W33319  42.323  35.954  10.520
60972W        W33320  35.960  31.098  13.949
60973W        W33321   8.160  43.507   2.198
60974W        W33322  13.344  41.811   3.850
60975W        W33323  34.582   3.429   0.389
60976W        W33324  14.747  18.585  10.602
60977W        W33325   3.795  28.034  12.894
60978W        W33326  12.752  22.035  10.936
60979W        W33327  14.608  30.015   0.305
60980W        W33328  21.088  36.521   3.330
60981W        W33329  32.545  43.007  12.398
60982W        W33330  28.151  18.760  11.909
60983W        W33331  22.150  23.025  14.969
60984W        W33332  24.717  42.287   0.441
60985W        W33333  16.233  35.451   4.231
60986W        W33334   8.394  19.285   4.334
60987W        W33335  16.670   1.322   2.313
60988W        W33336  40.809  37.405  12.067
60989W        W33337  37.011  20.246  12.060
60990W        W33338  40.388   4.312   2.194
60991W        W33339  10.660   4.944  11.058
60992W        W33340  37.000  11.287  14.858
60993W        W33341  16.188  15.596   0.262
60994W        W33342  38.067  32.596   3.689
60995W        W33343  37.059  40.326   2.253
60996W        W33344   3.427   5.726   3.200
60997W        W33345  29.117  26.101   0.473
60998W        W33346  41.963  16.595  11.857
60999W        W33347  12.314  31.938   2.212
61000W        W33348  30.087   7.893   4.623
61001W        W33349  34.112   1.911   4.216
61002W        W33350  39.414   0.266   0.331
61003W        W33351   1.242  24.103   1.843
61004W        W33352  14.604  26.552  13.904
61005W        W33353  20.092  30.044  13.873
61006W        W33354  43.309   2.899   1.433
61007W        W33355  20.687   2.945  11.002
61008W        W33356  17.213   2.914  11.611
61009W        W33357  32.422  14.108   0.403
61010W        W33358  36.037  20.059   3.178
61011W        W33359  11.794   1.942  14.938
61012W        W33360  44.863  17.175   2.419
61013W        W33361  12.678  30.147   4.618
61014W        W33362  43.359  18.664  11.453
61015W        W33363   0.896  43.895   3.755
61016W        W33364  40.960  20.656  14.437
61017W        W33365  21.165  26.095  12.858
61018W        W33366  15.734  18.782   3.707
61019W        W33367  17.678   2.345   3.300
61020W        W33368  14.772  17.223   0.869
61021W        W33369  27.681   6.749   1.703
61022W        W33370  36.944   1.252  11.512
61023W        W33371  39.405  34.546   4.259
61024W        W33372   3.318  12.639  10.435
61025W        W33373   0.312  37.540  14.289
61026W        W33374  31.039   0.947   1.752
61027W        W33375  36.421  25.131  10.413
61028W        W33376  40.053  12.747  14.925
61029W        W33377  40.335  40.517   3.765
61030W        W33378  11.264  33.080   4.726
61031W        W33379  40.390  40.523   4.154
61032W        W33380   0.882  44.398   2.729
61033W        W33381   3.341  40.863  11.874
61034W        W33382  33.118  23.026   2.880
61035W        W33383  13.291   9.361   1.326
61036W        W33384  38.399  22.533  14.277
61037W        W33385   7.250  17.249   0.412
61038W        W33386   1.312  36.391   4.252
61039W        W33387  10.347  23.237   3.863
61040W        W33388  19.570  43.514   3.349
61041W        W33389  26.054   1.473  11.102
61042W        W33390  33.546   9.196   2.746
61043W        W33391  23.106  41.453  12.862
61044W        W33392  33.494  15.288  10.587
61045W        W33393   0.744  20.229   2.374
61046W        W33394   0.382  37.576   1.749
61047W        W33395  11.687  35.459  10.580
61048W        W33396  10.171  36.369  13.055
61049W        W33397  29.616  38.893  12.833
61050W        W33398  32.412  38.363   2.207
61051W        W33399  31.454  39.386   3.701
61052W        W33400  42.524  16.177   1.904
61053W        W33401  11.169  31.457  11.467
61054W        W33402  13.251  40.421  13.956
61055W        W33403  16.743  31.612  13.339
61056W        W33404  33.042  35.924   4.706
61057W        W33405  39.471  43.512   3.261
61058W        W33406  27.559  39.521   2.222
61059W        W33407   3.451  24.009   2.381
61060W        W33408  21.581  24.067   3.855
61061W        W33409  44.424  44.926   2.417
61062W        W33410  29.435  38.851  14.333
61063W        W33411  10.189  15.677  11.567
61064W        W33412  16.098  34.507  12.454
61065W        W33413   3.383  35.874  11.396
61066W        W33414  10.264   6.408   2.826
61067W        W33415  33.389  39.008   2.795
61068W        W33416  30.454  15.276  13.969
61069W        W33417  38.866   3.939   1.216
61070W        W33418  24.167   7.247  10.146
61071W        W33419  34.477   0.820   4.162
61072W        W33420  12.124  21.201   0.800
61073W        W33421  42.839   8.778   0.388
61074W        W33422  17.613  13.135   5.759
61075W        W33423  19.705  22.521  12.444
61076W        W33424  34.048  27.556  14.759
61077W        W33425  11.292  33.380  14.888
61078W        W33426  44.907  15.234  11.539
61079W        W33427  41.791  39.434  11.105
61080W        W33428  36.544  31.433  11.430
61081W        W33429  25.034  30.513  14.468
61082W        W33430  41.493  23.522   2.253
61083W        W33431  26.122  25.195  14.835
61084W        W33432  27.653   4.414  14.795
61085W        W33433  22.531  31.070  12.469
61086W        W33434  16.625  26.150  10.640
61087W        W33435  42.958  17.668  14.298
61088W        W33436  22.017  16.761   4.224
61089W        W33437  13.603  23.693   0.267
61090W        W33438  44.486  32.526  14.330
61091W        W33439  25.202   6.405   3.832
61092W        W33440   9.694  27.980   1.865
61093W        W33441   5.224  34.974  10.596
61094W        W33442  24.613  18.545   3.335
61095W        W33443  28.133  17.091   3.331
61096W        W33444  17.693   6.246  12.039
61097W        W33445  39.913  26.205   4.792
61098W        W33446   1.266  26.032  10.540
61099W        W33447  39.997  22.055   2.733
61100W        W33448  18.191   0.445  11.597
61101W        W33449  21.580   1.270  12.855
61102W        W33450  40.513  14.336   0.955
61103W        W33451  44.003  12.705   1.906
61104W        W33452  37.375  44.002   0.929
61105W        W33453   0.966  20.034   1.905
61106W        W33454  40.050  31.634  13.407
61107W        W33455   1.372  24.600  13.470
61108W        W33456  42.887  13.272   1.272
61109W        W33457  10.649  33.503  14.277
61110W        W33458  39.465  20.629  14.879
61111W        W33459  24.698  35.920  12.456
61112W        W33460  10.221  37.848   1.914
61113W        W33461   8.870   6.233   0.833
61114W        W33462   5.434  35.439   2.377
61115W        W33463   9.190   4.735  14.032
61116W        W33464   0.842  29.940   3.325
61117W        W33465  32.542  20.071   0.917
61118W        W33466  15.764  18.100   3.641
61119W        W33467  28.036  37.489   5.316
61120W        W33468  41.921  36.506  13.011
61121W        W33469  36.378   7.298  13.388
61122W        W33470  31.469  37.055   9.487
61123W        W33471  11.232   2.236   3.772
61124W        W33472  23.119  17.210   1.448
61125W        W33473  42.473  19.136   1.421
61126W        W33474   2.371  19.127  11.080
61127W        W33475  12.204  37.994   0.896
61128W        W33476  13.256   3.363   5.320
61129W        W33477  20.563  23.514   2.381
61130W        W33478  19.212  20.133  11.911
61131W        W33479  23.042  12.688  14.482
61132W        W33480  19.176   6.700   3.146
61133W        W33481  11.717  31.449  11.127
61134W        W33482  12.767  22.650  14.325
61135W        W33483  20.042  11.169   4.171
61136W        W33484   7.186  26.137   4.760
61137W        W33485  42.396  27.174  13.818
61138W        W33486  16.249  31.925   1.731
61139W        W33487  18.714  13.630   0.760
61140W        W33488   7.730  43.797  11.442
61141W        W33489  22.714  17.167  12.533
61142W        W33490  16.158  36.967   3.869
61143W        W33491   6.827   4.747  11.605
61144W        W33492  42.396   6.888  11.887
61145W        W33493  16.167  44.987  13.464
61146W        W33494  11.793  16.183   2.219
61147W        W33495   3.290  42.301  11.974
61148W        W33496  22.202  31.149  12.461
61149W        W33497  16.770  32.124   4.264
61150W        W33498  43.420  29.079   1.775
61151W        W33499   7.393  27.071  11.080
61152W        W33500  21.695  33.534  10.558
61153W        W33501  14.638  44.912  13.449
61154W        W33502  36.491  24.659  11.933
61155W        W33503  42.025  28.584  10.953
61156W        W33504  39.043  34.546  14.834
61157W        W33505  11.696  33.471  10.976
61158W        W33506   4.368  26.044  12.423
61159W        W33507  11.290   8.717   0.838
61160W        W33508  21.131  20.523   3.654
61161W        W33509  36.382  44.279  11.411
61162W        W33510   4.279  16.573   2.215
61163W        W33511  43.500  15.125  11.885
61164W        W33512   0.782  27.141  13.492
61165W        W33513  42.462   7.746   4.620
61166W        W33514  26.198  16.786   3.654
61167W        W33515  18.620  43.803   4.659
61168W        W33516  38.947  36.499   2.212
61169W        W33517  11.161  28.003  13.033
61170W        W33518  38.824   1.263  10.151
61171W        W33519   2.430   8.785   0.257
61172W        W33520  16.310  16.094  12.475
61173W        W33521  15.322   7.375   1.797
61174W        W33522  40.912   4.919  11.916
61175W        W33523  20.091  15.648  10.543
61176W        W33524   9.319  24.637  10.439
61177W        W33525  20.077  42.413  12.420
61178W        W33526  20.041  31.940  14.430
61179W        W33527  22.115  42.013  13.385
61180W        W33528  33.590  28.937   4.732
61181W        W33529   4.846   6.345  11.080
61182W        W33530  35.010  23.525  11.576
61183W        W33531  21.636  32.483  12.895
61184W        W33532  37.376  19.705  14.442
61185W        W33533  44.837  26.024   2.680
61186W        W33534  41.878  25.072   1.347
61187W        W33535  22.542   9.337   3.749
61188W        W33536  36.538  42.788   4.135
61189W        W33537  22.237   9.176   5.565
61190W        W33538  20.545  14.796   1.382
61191W        W33539  30.505  20.627   4.764
61192W        W33540  24.518  43.833   0.729
61193W        W33541  16.797   2.227   2.758
61194W        W33542  17.259  19.180   3.654
61195W        W33543   5.836  14.822   1.395
61196W        W33544  34.484  26.532  14.845
61197W        W33545  42.901   9.777  14.014
61198W        W33546   2.319  15.761  14.827
61199W        W33547   0.881  37.396  10.439
61200W        W33548  44.758  26.101   3.812
61201W        W33549  39.815  37.364   1.422
61202W        W33550  32.015  37.527  14.837
61203W        W33551  18.652  38.070  12.979
61204W        W33552  26.062  38.916   0.377
61205W        W33553  32.541  41.940   3.193
61206W        W33554   1.822  22.088  11.046
61207W        W33555   3.719  27.560  10.578
61208W        W33556  11.280  19.057   3.286
61209W        W33557   7.331   1.475  10.637
61210W        W33558  44.945  40.815   4.777
61211W        W33559  16.158  18.610   0.272
61212W        W33560  37.930  14.678   2.715
61213W        W33561  25.683   0.347  12.993
61214W        W33562   6.368   2.294  14.885
61215W        W33563  12.119  42.949  10.897
61216W        W33564   9.283  38.974   1.352
61217W        W33565  24.536  40.421  11.545
61218W        W33566   7.182  12.734   1.392
61219W        W33567  37.057  22.157   4.633
61220W        W33568  10.754  34.581   3.824
61221W        W33569  24.086  18.210  11.035
61222W        W33570  26.573  39.448   3.170
61223W        W33571  37.910  24.221  10.590
61224W        W33572  37.053  40.806  10.443
61225W        W33573  22.672  44.433  12.439
61226W        W33574   5.780  29.054  10.941
61227W        W33575  32.026   2.451  10.567
61228W        W33576  22.570   3.776  12.391
61229W        W33577  11.849  25.563  12.353
61230W        W33578  23.649  13.715   3.195
61231W        W33579   9.835  29.003   0.480
61232W        W33580  12.176   7.394  13.310
61233W        W33581  11.642  32.028   2.193
61234W        W33582  38.006  22.209  11.517
61235W        W33583  27.017   6.314   4.192
61236W        W33584  36.369   1.452   1.728
61237W        W33585   8.860   8.765  11.095
61238W        W33586  33.617  13.257  14.422
61239W        W33587  24.553  37.453  11.060
61240W        W33588  39.432   2.825   0.897
61241W        W33589  26.015  23.102  13.021
61242W        W33590  38.417   3.902  11.435
61243W        W33591   0.879  28.519  11.126
61244W        W33592  41.847  31.463  11.450
61245W        W33593  29.924  15.251  13.817
61246W        W33594  35.062  33.465  13.430
61247W        W33595  16.773  25.969   0.766
61248W        W33596  32.526  19.722   5.286
61249W        W33597  44.394   1.321   5.155
61250W        W33598  34.049  35.091   3.184
61251W        W33599  38.446  12.849  14.445
61252W        W33600  29.537   2.342  10.620
61253W        W33601  26.586  32.952   3.827
61254W        W33602  31.486  24.717  11.963
61255W        W33603  37.364  21.627  11.025
61256W        W33604  43.926  20.653  10.933
61257W        W33605  36.967   5.279   2.794
61258W        W33606  23.038  27.521  11.869
61259W        W33607  37.412  13.757   4.831
61260W        W33608  36.863   9.688   3.294
61261W        W33609  40.814  27.600   3.341
61262W        W33610  36.977  29.532   1.289
61263W        W33611  27.642   9.661   0.430
61264W        W33612  36.394  18.659   2.806
61265W        W33613   7.227  16.119  12.020
61266W        W33614  27.647  14.207  11.592
61267W        W33615  29.163   7.795   1.855
61268W        W33616   9.390   0.465   3.785
61269W        W33617  14.191  22.623  13.380
61270W        W33618   6.345  19.744   3.630
61271W        W33619   2.835  38.988  12.349
61272W        W33620  43.923  27.580   2.842
61273W        W33621  13.670  40.338   1.788
61274W        W33622   4.249   1.463   3.718
61275W        W33623  43.297   5.708   2.886
61276W        W33624   1.838   7.308   3.240
61277W        W33625  19.135  19.633  10.465
61278W        W33626  16.640  23.071  13.441
61279W        W33627  37.038  35.980  10.511
61280W        W33628  25.571  24.114   1.294
61281W        W33629  43.493  17.127  13.026
61282W        W33630  40.373  39.385  10.909
61283W        W33631  34.412   8.368  12.966
61284W        W33632  41.889   4.797   0.315
61285W        W33633  12.803  43.320   3.795
61286W        W33634  18.656  31.088   0.439
61287W        W33635  29.169  38.428  11.456
61288W        W33636  44.808  40.365  14.894
61289W        W33637  44.346   5.315   2.831
61290W        W33638  17.173  19.240  13.935
61291W        W33639   9.704  14.116  14.915
61292W        W33640  30.573  18.774  13.929
61293W        W33641   5.879  19.113   2.801
61294W        W33642  11.676   6.735   2.740
61295W        W33643  15.199  33.960  11.496
61296W        W33644  30.098  41.789  13.823
61297W        W33645  41.986  11.679   4.695
61298W        W33646  19.571  19.108   3.759
61299W        W33647   3.309  18.581   4.170
61300W        W33648   5.796  41.345   3.233
61301W        W33649  39.523  25.160   3.699
61302W        W33650  38.371   2.307  11.987
61303W        W33651   7.768   9.769  13.373
61304W        W33652  20.188  24.575  11.464
61305W        W33653  17.633   1.830  10.435
61306W        W33654  11.269  20.654  10.157
61307W        W33655   8.189   7.286  12.417
61308W        W33656  41.905  19.134  13.485
61309W        W33657  26.140  41.461   1.410
61310W        W33658  19.627  26.645  13.322
61311W        W33659   1.247  12.754  12.046
61312W        W33660  28.533  32.048  13.437
61313W        W33661  19.615  26.601  12.409
61314W        W33662   6.732  17.258   3.312
61315W        W33663  40.520  15.657   2.352
61316W        W33664  23.123  42.420  13.464
61317W        W33665  41.407  29.511  11.106
61318W        W33666  16.660  32.905   3.777
61319W        W33667  40.893  13.779   3.173
61320W        W33668  28.110   1.268   1.797
61321W        W33669  34.600  23.512  12.875
61322W        W33670  42.845  37.340  14.007
61323W        W33671  41.966  26.550  13.419
61324W        W33672  24.511  12.852   2.276
61325W        W33673  22.725  39.486  11.004
61326W        W33674  31.898  16.752   1.236
61327W        W33675  28.567  19.243   2.759
61328W        W33676   0.410   8.392   1.395
61329W        W33677  28.159   3.423  11.885
61330W        W33678   9.677  40.799   3.336
61331W        W33679  13.825  35.414  13.907
61332W        W33680  25.163  29.157  12.079
61333W        W33681  18.695  23.622  13.856
61334W        W33682  41.366  42.317   3.819
61335W        W33683  43.869  40.937   2.810
61336W        W33684  32.444  41.364  10.538
61337W        W33685  38.833  19.205  10.468
61338W        W33686  29.531  32.021  11.054
61339W        W33687  11.317  33.885   2.727
61340W        W33688  44.877  14.272   1.381
61341W        W33689  17.755  43.780  11.097
61342W        W33690  33.403  41.411  12.385
61343W        W33691  15.591  26.697  12.482
61344W        W33692  35.509   3.862   1.252
61345W        W33693  21.750  32.566  13.484
61346W        W33694   5.849  16.264   0.871
61347W        W33695  16.711  39.937  13.859
61348W        W33696  13.810  30.651  12.915
61349W        W33697  16.175  17.307   1.332
61350W        W33698   3.730  41.328   0.256
61351W        W33699  44.758  30.922   4.279
61352W        W33700  18.263  39.449   1.363
61353W        W33701  30.978  44.777  14.446
61354W        W33702  22.717  42.514  10.430
61355W        W33703   8.858  21.600   4.634
61356W        W33704  29.558  38.387   1.726
61357W        W33705  31.061   6.229  12.474
61358W        W33706  31.569  19.079   0.478
61359W        W33707  24.024   2.732   3.783
61360W        W33708   0.951  27.564  12.087
61361W        W33709  14.330  15.322   1.272
61362W        W33710  20.698   7.702   1.885
61363W        W33711  41.501  27.488   1.309
61364W        W33712   4.699  26.093   4.630
61365W        W33713  22.186  38.901  12.533
61366W        W33714  14.793  20.590   0.306
61367W        W33715  21.251  11.817  13.312
61368W        W33716  20.688  30.106   9.640
61369W        W33717  41.524  20.685   2.322
61370W        W33718  22.622  13.250   3.363
61371W        W33719  22.662  34.393   1.382
61372W        W33720  39.372  34.944  14.996
61373W        W33721  24.614  15.291   2.804
61374W        W33722  17.566   1.735   0.330
61375W        W33723  16.218  27.016   3.198
61376W        W33724  19.755  29.472  10.953
61377W        W33725   0.289   3.381  12.401
61378W        W33726  23.156  10.267   5.728
61379W        W33727  17.198  34.048   3.289
61380W        W33728  33.534   1.297   0.445
61381W        W33729  44.295  22.640  11.873
61382W        W33730  15.744   9.392   4.733
61383W        W33731   2.287  42.948   2.361
61384W        W33732   2.803  37.074   2.771
61385W        W33733   7.411  35.035  11.860
61386W        W33734  35.873  21.069   5.101
61387W        W33735  27.173  13.679  11.440
61388W        W33736   2.746  24.558   4.829
61389W        W33737  35.066  36.031   1.721
61390W        W33738   9.222  13.159   3.868
61391W        W33739  44.880  10.295  13.902
61392W        W33740  11.707  24.018  10.417
61393W        W33741   0.456  35.467  12.449
61394W        W33742  42.792   4.206   2.678
61395W        W33743  27.166  25.632  14.839
61396W        W33744  16.189  34.369  11.508
61397W        W33745  21.558   9.195   0.421
61398W        W33746   8.760  16.140  10.999
61399W        W33747  42.515  20.687  13.794
61400W        W33748   9.762   5.389   5.131
61401W        W33749  29.516  40.338   2.383
61402W        W33750   8.896  31.086  11.401
61403W        W33751  17.275   9.326   9.947
61404W        W33752  30.136   7.911   9.928
61405W        W33753   3.920  23.009  14.939
61406W        W33754  14.597  14.234  10.442
61407W        W33755  20.678  15.180  12.022
61408W        W33756  28.009  19.689  14.827
61409W        W33757   4.893  43.303  10.478
61410W        W33758  36.991   6.836  12.427
61411W        W33759  42.331  26.004   0.377
61412W        W33760  32.123  40.404   0.266
61413W        W33761   4.853  35.507   0.420
61414W        W33762   5.393  22.730   2.321
61415W        W33763  43.355  44.370   0.443
61416W        W33764   5.193  14.148  11.537
61417W        W33765   0.757  24.575  12.369
61418W        W33766  10.331  30.490   0.811
61419W        W33767  12.229  27.985   4.804
61420W        W33768  42.466   3.283  11.598
61421W        W33769  44.934  28.148  14.497
61422W        W33770  24.658  31.095  11.964
61423W        W33771   8.302  26.481   2.273
61424W        W33772  39.842  22.725  11.515
61425W        W33773  10.317  16.271  14.789
61426W        W33774  42.943   5.256   3.840
61427W        W33775  33.529  16.241  11.461
61428W        W33776  39.899  33.580   4.346
61429W        W33777  31.122  12.852  12.530
61430W        W33778  40.890  43.811  10.534
61431W        W33779  36.091  29.009   0.326
61432W        W33780  14.806  36.468  13.980
61433W        W33781  12.747  29.971  12.868
61434W        W33782   7.825  18.565   1.250
61435W        W33783   7.697  12.672  13.990
61436W        W33784   3.772  27.090   3.844
61437W        W33785  22.637  25.086  13.956
61438W        W33786  12.343  33.533   2.883
61439W        W33787  35.992   5.289  11.572
61440W        W33788  29.636  32.634   1.305
61441W        W33789  20.094  13.751  13.010
61442W        W33790   3.766  28.531   1.792
61443W        W33791  32.132  16.104   4.606
61444W        W33792  10.321   6.215   0.365
61445W        W33793  19.588   9.332  11.010
61446W        W33794  22.114  32.010   4.118
61447W        W33795  34.907  30.036  10.624
61448W        W33796  40.336  31.586   2.413
61449W        W33797   3.352   1.971   0.927
61450W        W33798   4.431  11.632   1.918
61451W        W33799  40.851  37.939   0.955
61452W        W33800   1.415  41.366   2.863
61453W        W33801  44.323   5.831  13.029
61454W        W33802  15.227  21.553  11.981
61455W        W33803  33.070  39.419  10.598
61456W        W33804  23.227  26.098  11.049
61457W        W33805  11.850  40.853  11.963
61458W        W33806  31.940  36.071   1.905
61459W        W33807  23.054  35.439   1.395
61460W        W33808  18.205  15.200  10.508
61461W        W33809  35.403  38.865  12.481
61462W        W33810  22.558  32.619   0.901
61463W        W33811  26.555  10.183   1.780
61464W        W33812  44.372  32.603  11.046
61465W        W33813  16.784   5.839  13.868
61466W        W33814  43.988  10.719   0.433
61467W        W33815  13.261  21.539   2.325
61468W        W33816  39.331  19.754  14.762
61469W        W33817   0.305  18.625  13.375
61470W        W33818  19.721  40.004   2.754
61471W        W33819  24.593   9.345  12.982
61472W        W33820  40.030  28.141   0.338
61473W        W33821  40.518  31.571  12.447
61474W        W33822  37.388   6.202  12.042
61475W        W33823  43.516  22.083  12.395
61476W        W33824  14.323  32.907  10.161
61477W        W33825  33.441  25.540  12.051
61478W        W33826   2.924  10.379  11.562
61479W        W33827  11.792   6.217  12.526
61480W        W33828   5.785  14.233   2.312
61481W        W33829   1.951  31.503  11.050
61482W        W33830  15.151  23.590  12.519
61483W        W33831   5.250  10.269  14.942
61484W        W33832  19.127  14.231  13.815
61485W        W33833  40.823  14.651   0.782
61486W        W33834  16.612  31.095   4.240
61487W        W33835  29.495  25.690  13.985
61488W        W33836  17.128  39.403  11.510
61489W        W33837  41.872  20.035  14.918
61490W        W33838   4.827  20.712   0.304
61491W        W33839  28.087  43.997  14.376
61492W        W33840  25.025  17.091  13.011
61493W        W33841  16.130  12.288  10.130
61494W        W33842  18.779  14.162  10.423
61495W        W33843  28.075  42.855  12.460
61496W        W33844   7.319  24.051   1.350
61497W        W33845   0.967  40.431   1.895
61498W        W33846  39.427  24.011  14.341
61499W        W33847   4.385  30.101   1.365
61500W        W33848   4.292  11.194  12.854
61501W        W33849  28.434   5.335  14.926
61502W        W33850  35.502  16.801  11.436
61503W        W33851  17.683  25.613   2.672
61504W        W33852   1.263   6.703   4.153
61505W        W33853  43.822  24.574   3.181
61506W        W33854  15.167  21.664   1.295
61507W        W33855  40.478  32.584   3.847
61508W        W33856  24.594  36.415  12.396
61509W        W33857   2.299  22.133   3.798
61510W        W33858  13.660   0.411  11.980
61511W        W33859  37.568  27.965  14.955
61512W        W33860  20.124  33.930   0.965
61513W        W33861   3.884  23.000   4.223
61514W        W33862  41.852  26.673   3.357
61515W        W33863  31.140  39.962  12.830
61516W        W33864   9.737  26.590   0.872
61517W        W33865   5.695  27.562   1.750
61518W        W33866  10.323  30.567  10.540
61519W        W33867  32.513  34.576  11.377
61520W        W33868  30.090  19.106  11.013
61521W        W33869  17.693  41.448   4.671
61522W        W33870  15.757  36.863  12.069
61523W        W33871  35.555  43.907   4.773
61524W        W33872   6.385  32.057   1.247
61525W        W33873   3.897  24.099  13.865
61526W        W33874   9.284  23.156  10.017
61527W        W33875  11.680  33.945   2.739
61528W        W33876  24.669  24.503   1.439
61529W        W33877  14.678  13.688   3.215
61530W        W33878   3.841  22.199   3.698
61531W        W33879  23.242  14.283  10.454
61532W        W33880  37.419  27.495   2.887
61533W        W33881  14.824  26.460  11.520
61534W        W33882  11.296  39.371  12.968
61535W        W33883  38.037  30.107   1.722
61536W        W33884  36.977  20.226   2.783
61537W        W33885  18.178  32.468   5.614
61538W        W33886  28.162  37.838   5.245
61539W        W33887  23.574  31.484  11.381
61540W        W33888  43.999  17.758  13.914
61541W        W33889  19.675  27.141  13.045
61542W        W33890  40.025  37.009  14.425
61543W        W33891   3.300   1.446   0.775
61544W        W33892  41.524  43.335   2.749
61545W        W33893  16.168   2.384  10.633
61546W        W33894  42.025  38.912   1.856
61547W        W33895  36.403  37.883   3.354
61548W        W33896  10.867   7.873   1.845
61549W        W33897  12.292  31.566  13.346
61550W        W33898   7.416  37.913  14.981
61551W        W33899  38.958  33.490  12.524
61552W        W33900  11.638   7.325   2.771
61553W        W33901  24.577  35.575   1.222
61554W        W33902  36.351   3.804   0.867
61555W        W33903   0.429  26.005  12.368
61556W        W33904  42.930   5.917   2.408
61557W        W33905  40.362  43.980  12.451
61558W        W33906  42.468  27.614  12.412
61559W        W33907  27.068  38.933   3.726
61560W        W33908  15.773  43.502   1.919
61561W        W33909  33.467  16.123  12.538
61562W        W33910   1.272  42.382  14.981
61563W        W33911  10.723  30.910  14.812
61564W        W33912  12.136  33.095  10.568
61565W        W33913  13.801   7.230  12.054
61566W        W33914  11.344   1.342  13.955
61567W        W33915  11.367  36.399   0.825
61568W        W33916  35.504  28.451  14.325
61569W        W33917   3.751  31.462  14.301
61570W        W33918  25.992   5.907  12.859
61571W        W33919   2.281  10.820  13.920
61572W        W33920  34.992  32.467  10.469
61573W        W33921  33.620   5.346   1.314
61574W        W33922  15.203  32.999  10.478
61575W        W33923  30.629   5.798  10.995
61576W        W33924  31.636  32.141   4.671
61577W        W33925  11.130  13.831   2.388
61578W        W33926  36.538  32.050   2.886
61579W        W33927  22.056  35.040   3.182
61580W        W33928   4.928  10.176  13.369
61581W        W33929   2.776  33.908   2.331
61582W        W33930  21.235  41.840   0.484
61583W        W33931  43.513   9.302  13.547
61584W        W33932  41.520   4.268  10.627
61585W        W33933   2.359  20.253  10.500
61586W        W33934  37.029  38.450  13.321
61587W        W33935  35.000  44.505  14.374
61588W        W33936  37.506  43.978  10.473
61589W        W33937  20.672  16.263  13.544
61590W        W33938   3.230  32.433   0.840
61591W        W33939  11.354  33.603   3.848
61592W        W33940  12.851   0.784   0.428
61593W        W33941  30.968  28.070  13.468
61594W        W33942  24.012  30.648   1.422
61595W        W33943  34.398   2.294  14.419
61596W        W33944  13.679  26.139  11.027
61597W        W33945  11.210   8.327  14.493
61598W        W33946   8.679  15.172   0.744
61599W        W33947   4.384   9.813   1.223
61600W        W33948  16.720  38.333   1.347
61601W        W33949  12.129  42.011   4.627
61602W        W33950  23.119   6.781   2.221
61603W        W33951  39.047   0.924  14.489
61604W        W33952  13.664  41.307  11.555
61605W        W33953  15.150   6.909   2.320
61606W        W33954  25.682   0.956  12.044
61607W        W33955  16.258   9.755  13.956
61608W        W33956   8.345  18.735   4.133
61609W        W33957  36.015   1.882  11.962
61610W        W33958  25.097   2.726  11.108
61611W        W33959  27.621  25.640  11.099
61612W        W33960  31.643  20.270  10.911
61613W        W33961  27.157  33.053   0.730
61614W        W33962   9.854   4.855  11.431
61615W        W33963  33.126   9.274  10.441
61616W        W33964   0.296  26.954  12.461
61617W        W33965  42.416   6.192  13.031
61618W        W33966  23.577  40.546   4.692
61619W        W33967   4.311  17.699   4.731
61620W        W33968  20.234  28.561  13.420
61621W        W33969  22.016  14.640   2.338
61622W        W33970  20.538  36.346  13.055
61623W        W33971  19.249  44.279  11.031
61624W        W33972   8.706  41.956  13.869
61625W        W33973  12.696  39.400   3.816
61626W        W33974   3.933  40.454  14.365
61627W        W33975   8.741   5.423   2.292
61628W        W33976  10.678  26.072  12.094
61629W        W33977  20.048  11.662   4.823
61630W        W33978   1.445  16.672  12.074
61631W        W33979  24.197  41.970   1.780
61632W        W33980  21.230   6.838   2.886
61633W        W33981  32.630   2.457  12.531
61634W        W33982  21.669  12.669   2.391
61635W        W33983  21.597  24.113   0.272
61636W        W33984   9.787  18.748   0.844
61637W        W33985  33.575  42.455   0.886
61638W        W33986  37.342  31.908  12.444
61639W        W33987  40.453  17.587   4.679
61640W        W33988  43.793  44.011   0.766
61641W        W33989  23.053  20.136  14.008
61642W        W33990  24.568  22.629   3.349
61643W        W33991   8.673   6.410   2.892
61644W        W33992  41.424  44.339   3.825
61645W        W33993  40.382  34.551  13.867
61646W        W33994   4.813  30.628  13.415
61647W        W33995  33.958  44.438   3.320
61648W        W33996  16.772   8.721  13.982
61649W        W33997  41.477   8.398   0.750
61650W        W33998   0.813  43.447   2.765
61651W        W33999  10.676  13.307   4.813
61652W        W34000  21.169  25.196  11.414
61653W        W34001  31.589   6.351   0.921
61654W        W34002  28.118  41.825  12.446
61655W        W34003   2.783  12.842   1.381
61656W        W34004   0.342  40.543   3.153
61657W        W34005  20.254  13.251   4.199
61658W        W34006   2.274  44.775  13.879
61659W        W34007  23.573  22.571  12.430
61660W        W34008  29.554  24.061   4.240
61661W        W34009  22.166   2.349   0.405
61662W        W34010  19.674  44.356  13.863
61663W        W34011  28.668  14.718  13.048
61664W        W34012   1.398   9.324  12.929
61665W        W34013   7.835   0.359   3.745
61666W        W34014  27.045  10.650  12.427
61667W        W34015  32.901  31.622   3.712
61668W        W34016  29.046  14.724   2.397
61669W        W34017  12.745   4.354   1.409
61670W        W34018  37.412   3.841   0.342
61671W        W34019   7.813  12.214   4.348
61672W        W34020  18.278  25.176  14.420
61673W        W34021  14.328  11.347   2.320
61674W        W34022  40.018  20.565   2.265
61675W        W34023  22.637   2.347  13.541
61676W        W34024  24.484  35.368  14.952
61677W        W34025  37.567   1.916  13.354
61678W        W34026  37.378  13.124  12.483
61679W        W34027  23.236  26.122  12.986
61680W        W34028   9.275  16.772  10.568
61681W        W34029   7.799   9.652   2.676
61682W        W34030  25.499  41.828   0.428
61683W        W34031  29.158  31.407   3.703
61684W        W34032   3.881  27.033  11.891
61685W        W34033   7.797  32.037  13.904
61686W        W34034  40.340  43.802   2.294
61687W        W34035   3.946  20.184  12.547
61688W        W34036   0.793  43.852   3.355
61689W        W34037  10.654  24.528  12.903
61690W        W34038  11.253  22.248  12.876
61691W        W34039  36.379   5.285  10.995
61692W        W34040  17.662  44.268  12.443
61693W        W34041  19.717  25.987  12.026
61694W        W34042   1.832  26.990  10.966
61695W        W34043   3.928  37.482  13.322
61696W        W34044   9.677  11.138  14.811
61697W        W34045   8.312  21.744   1.838
61698W        W34046   6.426   6.242  14.802
61699W        W34047  16.218  28.996   0.478
61700W        W34048   6.233  11.656   1.904
61701W        W34049  13.831   0.858   2.367
61702W        W34050  39.808  43.948  11.478
61703W        W34051  39.964  20.710  12.029
61704W        W34052  32.054  11.207  13.338
61705W        W34053   9.275  23.188   9.553
61706W        W34054  16.752  44.326   1.310
61707W        W34055  16.744  14.829   3.152
61708W        W34056  22.153  27.001  12.417
61709W        W34057   0.933  44.280   2.270
61710W        W34058  31.970  13.162  12.022
61711W        W34059  19.227  19.089   2.851
61712W        W34060   3.331  39.401   4.265
61713W        W34061  35.871   0.783  12.011
61714W        W34062  12.770   7.809  14.828
61715W        W34063  20.714  15.640  12.541
61716W        W34064  24.119  22.691   4.280
61717W        W34065   2.352  38.512  11.115
61718W        W34066  23.094  18.073  13.928
61719W        W34067  44.377   5.895  14.999
61720W        W34068   7.228  39.827   3.269
61721W        W34069   6.812  21.725  10.406
61722W        W34070  13.136  15.708   4.321
61723W        W34071  44.854  14.171  11.468
61724W        W34072  35.397  41.300  13.966
61725W        W34073  28.537  11.849  13.350
61726W        W34074  42.888  29.626   0.253
61727W        W34075  32.475  14.757  10.558
61728W        W34076  23.036  16.647   4.177
61729W        W34077  18.065  17.286  11.900
61730W        W34078  30.019  43.407   4.651
61731W        W34079  35.547  33.574  10.644
61732W        W34080  36.587  34.431   4.204
61733W        W34081  26.624  24.507   0.333
61734W        W34082  40.401  40.035  14.509
61735W        W34083  36.543  38.008  14.825
61736W        W34084  22.018  36.846   1.406
61737W        W34085  11.242  41.423  11.072
61738W        W34086  13.816   4.903   3.631
61739W        W34087  22.240  29.636  11.067
61740W        W34088  42.394   3.794   2.238
61741W        W34089  42.021  29.491   5.305
61742W        W34090  24.003   6.253   3.789
61743W        W34091  15.794  17.307   0.808
61744W        W34092   3.302   6.754  13.049
61745W        W34093  21.628  30.469  11.113
61746W        W34094  22.246  28.087  10.923
61747W        W34095   6.216   7.243  11.059
61748W        W34096  26.680  17.662   2.316
61749W        W34097  39.464  24.500  12.843
61750W        W34098   5.376  33.043   2.730
61751W        W34099   4.821  31.139   0.817
61752W        W34100  19.644  18.084  11.036
61753W        W34101  19.229  41.963   2.894
61754W        W34102   5.401  25.132   2.862
61755W        W34103  24.649   5.401   0.779
61756W        W34104  21.751   0.773  12.895
61757W        W34105  27.590   1.384   1.352
61758W        W34106   6.811   9.712  10.451
61759W        W34107  33.447   2.841   1.700
61760W        W34108  22.720  18.672   4.204
61761W        W34109  40.344  28.074  14.506
61762W        W34110  27.021  16.578   4.198
61763W        W34111  43.930  15.699   2.837
61764W        W34112  44.357  32.075  14.900
61765W        W34113  31.070   9.695  14.280
61766W        W34114  28.036  14.153   4.271
61767W        W34115  32.927   5.382   9.946
61768W        W34116  25.607  24.227   3.722
61769W        W34117  19.539   7.358  11.444
61770W        W34118   0.948  40.963   4.665
61771W        W34119  42.013  38.502  14.315
61772W        W34120  19.240  11.662   2.193
61773W        W34121  12.188  30.121   0.754
61774W        W34122  28.594  22.616  14.454
61775W        W34123  10.764  27.123   3.379
61776W        W34124  26.663  16.150  13.020
61777W        W34125  41.968  44.354  14.358
61778W        W34126  26.199  21.543   3.217
61779W        W34127  16.684  44.267   3.691
61780W        W34128  25.575  13.802  10.917
61781W        W34129   1.422  32.936   4.640
61782W        W34130  32.936  41.507  12.893
61783W        W34131  23.152   2.428   3.662
61784W        W34132  39.946  18.238  12.971
61785W        W34133  13.237  27.948  12.966
61786W        W34134  30.446  34.516   5.106
61787W        W34135  38.500  32.033   3.643
61788W        W34136   6.805   1.910   2.864
61789W        W34137  22.120   9.731   1.882
61790W        W34138  37.084  33.068  12.357
61791W        W34139  16.227  14.173   2.764
61792W        W34140  18.722  19.582  11.118
61793W        W34141  43.995   4.236   0.459
61794W        W34142  41.855  37.066  13.812
61795W        W34143  41.010  33.549  13.953
61796W        W34144   6.311  13.175   4.634
61797W        W34145   7.195  38.994   4.199
61798W        W34146  36.349  34.482  10.579
61799W        W34147  30.104  17.567   4.654
61800W        W34148   7.334   2.462   0.747
61801W        W34149  32.091  17.260   3.229
61802W        W34150  21.695  43.833   2.696
61803W        W34151  42.282  18.596   1.404
61804W        W34152  25.039  27.003  10.613
61805W        W34153  33.536  21.539  11.081
61806W        W34154  24.194  18.147   0.245
61807W        W34155  40.035  18.276  11.968
61808W        W34156  20.218  13.249   1.748
61809W        W34157  34.395   0.367   4.808
61810W        W34158  19.192  33.977   0.417
61811W        W34159  24.997   0.796   1.898
61812W        W34160  36.399  40.530   0.450
61813W        W34161  38.554   9.651   4.784
61814W        W34162  20.129  10.786   1.251
61815W        W34163   4.395  32.119   2.683
61816W        W34164  15.219  15.696  10.407
61817W        W34165  14.124  44.876   1.934
61818W        W34166  37.555  21.216  10.133
61819W        W34167  33.089  19.638   3.764
61820W        W34168  22.091  34.372  12.971
61821W        W34169  12.174  43.270  11.565
61822W        W34170   9.870   8.699  10.523
61823W        W34171   1.883   5.911  13.016
61824W        W34172  19.544  26.047  12.393
61825W        W34173  30.637  31.006   2.685
61826W        W34174  12.178  22.109   1.803
61827W        W34175  42.440  21.732  13.873
61828W        W34176  43.327  32.611   1.931
61829W        W34177  31.081  44.494   3.730
61830W        W34178  32.960  44.471  11.961
61831W        W34179   5.893  39.507  14.402
61832W        W34180  23.722  41.367   1.382
61833W        W34181  36.492  35.036  12.029
61834W        W34182  27.095  27.477  11.467
61835W        W34183  43.458  24.166  11.116
61836W        W34184  27.529  29.092  13.362
61837W        W34185  12.265  42.504  12.913
61838W        W34186  25.074  42.827  10.924
61839W        W34187  35.030   1.910  10.116
61840W        W34188  17.797  24.076  12.577
61841W        W34189  24.077  44.862   2.741
61842W        W34190  36.577  36.855   0.342
61843W        W34191  10.361  17.279  13.952
61844W        W34192  15.599  16.684   3.238
61845W        W34193  38.962   1.456   3.167
61846W        W34194   5.703  41.912   2.755
61847W        W34195  37.351   8.379  11.121
61848W        W34196  38.973  14.672   1.411
61849W        W34197  15.272  31.131  14.001
61850W        W34198  16.112  30.620  12.465
61851W        W34199  28.045  44.282   3.382
61852W        W34200  16.085  35.019   4.629
61853W        W34201  31.000  14.277  11.123
61854W        W34202  28.589  26.457   3.320
61855W        W34203  41.850  29.662   4.800
61856W        W34204  43.997   9.382   2.675
61857W        W34205  30.534   0.357  14.458
61858W        W34206  19.172  37.855  12.581
61859W        W34207  42.008  20.554   1.416
61860W        W34208  36.008  19.103   3.657
61861W        W34209  23.138  40.842  13.438
61862W        W34210  17.197  30.442  13.996
61863W        W34211  34.421  22.161   4.211
61864W        W34212   3.763  34.441   4.833
61865W        W34213   6.719  25.665  13.486
61866W        W34214  31.991  14.320  12.980
61867W        W34215  15.253  33.396  13.994
61868W        W34216  35.917  27.509   1.710
61869W        W34217  32.624  30.140   4.274
61870W        W34218   7.803   3.380   2.790
61871W        W34219  43.875  20.076  11.026
61872W        W34220  30.416  11.235  11.857
61873W        W34221  13.261   1.306   2.257
61874W        W34222  18.142  35.957  11.997
61875W        W34223  26.078  12.340  13.958
61876W        W34224  19.262   4.238  14.760
61877W        W34225  14.301  35.474   0.395
61878W        W34226   0.341  35.404  10.516
61879W        W34227   5.262  37.540  11.002
61880W        W34228  22.006  37.997   1.761
61881W        W34229  16.252  42.857  12.847
61882W        W34230  12.707  15.227  12.002
61883W        W34231  21.153  32.536  11.413
61884W        W34232  20.182   9.835   2.402
61885W        W34233  11.135  24.568  14.941
61886W        W34234  20.582  42.865   0.469
61887W        W34235  26.644  17.159   2.224
61888W        W34236   4.777  23.618   1.735
61889W        W34237   3.811  12.756   2.805
61890W        W34238  42.800  18.213  13.990
61891W        W34239   0.267  30.082   1.863
61892W        W34240  16.074   0.435  14.402
61893W        W34241  39.905  22.050   2.232
61894W        W34242  29.452  12.734   1.788
61895W        W34243  38.332   9.673  11.985
61896W        W34244  41.913   1.876   3.223
61897W        W34245  43.283   6.854   0.841
61898W        W34246   4.854   7.389  11.561
61899W        W34247  32.893  26.592  14.502
61900W        W34248   0.282  17.708  14.863
61901W        W34249   1.337  42.994  11.903
61902W        W34250  28.606  17.709  12.065
61903W        W34251  26.132  21.254  14.847
61904W        W34252  15.202  25.156  14.887
61905W        W34253   4.789  28.983   5.221
61906W        W34254  12.666  11.326  12.844
61907W        W34255  20.677  30.550   3.801
61908W        W34256  39.439  39.524  12.972
61909W        W34257  17.663  16.314   3.288
61910W        W34258  23.671   4.810   2.816
61911W        W34259  34.382  43.876   1.701
61912W        W34260  43.323  23.190   3.208
61913W        W34261  28.511  19.054   3.861
61914W        W34262  42.937   5.387  12.477
61915W        W34263  27.032  19.114   1.241
61916W        W34264   1.287  26.978   4.618
61917W        W34265  10.200  36.017   1.868
61918W        W34266  41.342   7.412  12.930
61919W        W34267   8.678   0.821   1.859
61920W        W34268   0.396  38.857   2.221
61921W        W34269  16.682  20.230  14.801
61922W        W34270  24.527   8.356   1.448
61923W        W34271   7.367  17.629  11.556
61924W        W34272   3.877  11.314   1.915
61925W        W34273  44.946  33.385   3.171
61926W        W34274  17.760   4.376   2.188
61927W        W34275  23.669  26.030  14.385
61928W        W34276  19.142   3.393  13.474
61929W        W34277  23.579   9.235  12.482
61930W        W34278  22.134  25.672   1.856
61931W        W34279  41.855  26.188  14.331
61932W        W34280  29.488  17.623   4.278
61933W        W34281  44.858   4.217   1.734
61934W        W34282  23.544  11.231   1.425
61935W        W34283   4.906  16.105   4.229
61936W        W34284   6.220  40.399   0.292
61937W        W34285  40.952  12.342  12.474
61938W        W34286  36.922  24.222   0.254
61939W        W34287  40.514   3.444  13.390
61940W        W34288  27.119  22.017  14.424
61941W        W34289  35.364  38.836   3.211
61942W        W34290  29.932  42.948   0.819
61943W        W34291  14.626  27.656  12.858
61944W        W34292  15.128   4.362   2.698
61945W        W34293  38.460  16.807  12.906
61946W        W34294  44.347  44.821  12.979
61947W        W34295  23.567  15.302  14.906
61948W        W34296   2.290  17.136   0.765
61949W        W34297  28.077  43.380  12.058
61950W        W34298  29.536  44.462   1.919
61951W        W34299   1.790  37.863   3.208
61952W        W34300  37.906  32.079   2.195
61953W        W34301  35.046  31.111  13.489
61954W        W34302  40.530  12.169  13.038
61955W        W34303   7.349  11.820   1.855
61956W        W34304   5.796  40.044  14.278
61957W        W34305  43.836  32.095   0.816
61958W        W34306  40.956  22.543  12.017
61959W        W34307   2.416  37.553  14.809
61960W        W34308  39.888  43.512  14.921
61961W        W34309  44.839  15.651   3.758
61962W        W34310   9.679   0.431  14.301
61963W        W34311  21.158   4.802   0.911
61964W        W34312  22.677  43.362  12.503
61965W        W34313  27.479   6.239   1.326
61966W        W34314  43.950   0.488   1.446
61967W        W34315  40.328  37.453   3.208
61968W        W34316   9.346  29.487   0.802
61969W        W34317  33.387  21.575  11.524
61970W        W34318  20.594  29.085  11.069
61971W        W34319  38.834  14.725   2.724
61972W        W34320   5.916  20.599  13.060
61973W        W34321  10.279  11.722   3.832
61974W        W34322  38.547   1.895  13.548
61975W        W34323   7.725   7.255   3.796
61976W        W34324  13.726  33.476  10.523
61977W        W34325  39.360  21.606   2.314
61978W        W34326  23.613  23.192   1.914
61979W        W34327   5.236   2.943   4.230
61980W        W34328  42.437   4.449  14.784
61981W        W34329   8.875   1.920   0.431
61982W        W34330  22.519   2.818  14.390
61983W        W34331   7.295   4.290  13.938
61984W        W34332  37.469  13.606   2.665
61985W        W34333  23.200  20.237   1.851
61986W        W34334  39.886  29.596  11.112
61987W        W34335  24.988  28.165   0.772
61988W        W34336  18.189  19.654   1.377
61989W        W34337  42.951  21.710   5.086
61990W        W34338   1.790  20.042  12.362
61991W        W34339  16.248  18.723   2.242
61992W        W34340  23.206  26.075  11.445
61993W        W34341   7.400  38.427  10.613
61994W        W34342  17.131   8.689   9.979
61995W        W34343   8.847   9.845  12.003
61996W        W34344   4.788  43.327  13.849
61997W        W34345   8.893  28.617  14.994
61998W        W34346  32.122  20.169  14.305
61999W        W34347  39.966   4.746   1.297
62000W        W34348   5.353   7.331   3.357
62001W        W34349   1.466   0.773   0.733
62002W        W34350  17.209  36.924   0.736
62003W        W34351  39.040  39.444  13.013
62004W        W34352  26.050  34.027   3.782
62005W        W34353   4.707  27.546   0.282
62006W        W34354  20.140  31.967   4.640
62007W        W34355   9.721  13.728   4.131
62008W        W34356  23.547  22.069   2.205
62009W        W34357  41.944  42.402   3.330
62010W        W34358  34.472  11.284  11.481
62011W        W34359  34.946  14.111  13.795
62012W        W34360  39.058   2.297  14.829
62013W        W34361  12.213  15.085   4.717
62014W        W34362  20.744  18.596   4.185
62015W        W34363  11.730  33.544   1.406
62016W        W34364  33.391  23.614   4.264
62017W        W34365  32.947  29.611  14.807
62018W        W34366  39.989  25.005   3.710
62019W        W34367  16.184  40.387   4.810
62020W        W34368  12.166  38.989   2.835
62021W        W34369   4.841  14.234  12.378
62022W        W34370  40.016  23.519   2.244
62023W        W34371  37.532  33.948   3.650
62024W        W34372   2.837  37.571   1.849
62025W        W34373  24.724  33.626   2.313
62026W        W34374  33.010  11.221   0.743
62027W        W34375   1.438  25.553   1.293
62028W        W34376  17.182  22.050   4.686
62029W        W34377   4.399  40.424  12.911
62030W        W34378   5.289  21.636  14.402
62031W        W34379   3.808  10.335  12.504
62032W        W34380  20.745   3.273   3.734
62033W        W34381  30.644  15.752  13.431
62034W        W34382  15.761  15.756  12.070
62035W        W34383  31.616  24.646   2.403
62036W        W34384  34.109   7.228  14.818
62037W        W34385  41.787  29.010  11.885
62038W        W34386   5.910   1.482  10.500
62039W        W34387  26.557  36.383   3.375
62040W        W34388  30.149  14.247   0.759
62041W        W34389  10.346  23.048   0.851
62042W        W34390  29.032  23.020   1.748
62043W        W34391  34.551  26.159  12.497
62044W        W34392  13.215  37.909   4.212
62045W        W34393  37.376  44.367  10.455
62046W        W34394  22.116  36.521   0.280
62047W        W34395  31.497  37.992  13.932
62048W        W34396  33.900  19.754  13.347
62049W        W34397  14.279  37.500   1.776
62050W        W34398  33.998  26.651   1.444
62051W        W34399  27.000  37.976   3.159
62052W        W34400  11.345  24.022   3.311
62053W        W34401  18.545  15.811  11.561
62054W        W34402  11.161   6.753   0.475
62055W        W34403  33.548  34.412  13.524
62056W        W34404  11.678   4.207   5.638
62057W        W34405  38.542  15.627  12.369
62058W        W34406   5.412  24.094  11.543
62059W        W34407   3.739  27.169  11.385
62060W        W34408   9.816   0.907  13.387
62061W        W34409  22.502  18.686  10.114
62062W        W34410  24.689  39.936  14.373
62063W        W34411  43.400   1.345  13.014
62064W        W34412  44.000  40.951   0.825
62065W        W34413  33.029   1.809   0.367
62066W        W34414  13.105  29.656   3.349
62067W        W34415   0.988  37.551  11.502
62068W        W34416  15.709   0.445   0.317
62069W        W34417   6.846  16.627   2.213
62070W        W34418  15.194   7.339   4.625
62071W        W34419  24.993  21.711  11.421
62072W        W34420  31.533  35.482   0.258
62073W        W34421  10.675  36.903  14.482
62074W        W34422   5.406  28.566  12.935
62075W        W34423  37.954   1.441   2.248
62076W        W34424  38.410  21.543  12.545
62077W        W34425  32.008  21.100   3.808
62078W        W34426   1.314  31.913  13.307
62079W        W34427  26.458  32.563   3.301
62080W        W34428  16.228   3.796  11.119
62081W        W34429  44.375  26.012  11.597
62082W        W34430  29.653  24.553   2.678
62083W        W34431  33.067  34.931  13.966
62084W        W34432  16.776  36.023   0.318
62085W        W34433  20.699   2.464  14.766
62086W        W34434  29.616  31.436  11.415
62087W        W34435  24.004  40.386  10.506
62088W        W34436  25.506  30.990  14.881
62089W        W34437  25.144  36.511  11.465
62090W        W34438   3.756  11.804  14.846
62091W        W34439   8.890   3.292   1.855
62092W        W34440   6.245  28.636   1.213
62093W        W34441  10.873  33.611   2.380
62094W        W34442  33.459  41.865   5.220
62095W        W34443  40.459  29.647   0.305
62096W        W34444  21.220  14.800  11.560
62097W        W34445  24.496  28.128   1.712
62098W        W34446  31.504  25.983   3.288
62099W        W34447  19.695  43.817  11.051
62100W        W34448  37.399   9.745   3.812
62101W        W34449  29.438  11.297  13.043
62102W        W34450  24.549  25.051   3.834
62103W        W34451  39.498  35.411   2.870
62104W        W34452  20.701  28.124   0.904
62105W        W34453   3.267  22.122  10.921
62106W        W34454  11.744   3.214   5.160
62107W        W34455   9.673  13.177  11.390
62108W        W34456  37.905  15.138  13.472
62109W        W34457  21.046  16.296   3.249
62110W        W34458  17.139   7.268  11.537
62111W        W34459  42.425   7.254  11.455
62112W        W34460  16.758  44.881   4.254
62113W        W34461  18.291  36.875  14.758
62114W        W34462   8.298  25.074  10.458
62115W        W34463  14.704  13.771   4.635
62116W        W34464  20.768   5.839  14.905
62117W        W34465   4.420  15.820   4.710
62118W        W34466  36.896   2.902   2.752
62119W        W34467  35.559  11.703   2.852
62120W        W34468  37.840  39.822  12.071
62121W        W34469  41.387  11.701   0.267
62122W        W34470   7.691  33.475  11.083
62123W        W34471  44.337  29.987  14.792
62124W        W34472  24.192  36.050   4.648
62125W        W34473   6.892  13.681   1.270
62126W        W34474  12.148   4.360  10.528
62127W        W34475  11.788   3.818   4.720
62128W        W34476  16.582  26.117   3.324
62129W        W34477  22.168   2.849  10.902
62130W        W34478  43.768  42.403  10.459
62131W        W34479   8.376  28.177  14.871
62132W        W34480  26.097   1.373  14.372
62133W        W34481  33.079  16.789  12.496
62134W        W34482  30.148  15.643  14.795
62135W        W34483   4.791  18.133  14.851
62136W        W34484   9.883  37.845  10.616
62137W        W34485  11.345   8.677  14.997
62138W        W34486  13.201  26.077  13.975
62139W        W34487  14.215   4.262  13.422
62140W        W34488  15.581  30.531  12.573
62141W        W34489  32.900  22.631  11.611
62142W        W34490  30.931  15.620   0.902
62143W        W34491  15.661  22.027  11.968
62144W        W34492  22.698  22.526  13.051
62145W        W34493  39.314  14.780   0.343
62146W        W34494   6.351  36.420  10.494
62147W        W34495   6.249  32.454  10.632
62148W        W34496  39.835  19.270   0.967
62149W        W34497  35.091  11.247   2.748
62150W        W34498   5.239  28.029  11.930
62151W        W34499  44.308   2.744  14.284
62152W        W34500  28.107  43.332   2.780
62153W        W34501  41.974  10.356   3.262
62154W        W34502  28.980  37.844  14.839
62155W        W34503  10.723  36.374  14.328
62156W        W34504  22.707  11.630   3.779
62157W        W34505   5.753   0.981  12.428
62158W        W34506  21.046  18.780   4.681
62159W        W34507  26.134   5.866   1.729
62160W        W34508  10.193  16.654   9.963
62161W        W34509  11.703  11.257   2.417
62162W        W34510  11.284  28.647  13.876
62163W        W34511  29.931  25.505   1.808
62164W        W34512  10.861  29.633  12.542
62165W        W34513  17.585  41.431  13.877
62166W        W34514  30.413  23.006   1.772
62167W        W34515  25.527  28.673  13.820
62168W        W34516   9.338  33.482  10.110
62169W        W34517   3.438   1.293   3.356
62170W        W34518  28.066  43.789  12.825
62171W        W34519  22.707  19.673  14.491
62172W        W34520  37.943  43.954   3.720
62173W        W34521   7.384  10.275  11.129
62174W        W34522   6.897  31.515   4.715
62175W        W34523  11.622   0.903  10.947
62176W        W34524  25.589  23.189  11.855
62177W        W34525  34.475  31.608  14.779
62178W        W34526  12.832   9.841  12.524
62179W        W34527   5.385   2.928   1.425
62180W        W34528  39.919   4.765  11.528
62181W        W34529  41.520  40.538   3.787
62182W        W34530  32.903  17.160   1.384
62183W        W34531   9.757  17.068  13.913
62184W        W34532   3.291  31.450  13.944
62185W        W34533  15.245   7.212  14.871
62186W        W34534  11.802  33.554  14.760
62187W        W34535  29.059  13.187  14.830
62188W        W34536  41.043   0.880  13.390
62189W        W34537  11.333   7.287   3.258
62190W        W34538  33.557  37.389   1.426
62191W        W34539  24.121   0.749  13.382
62192W        W34540  24.214   0.442   1.441
62193W        W34541  38.999   2.268   0.310
62194W        W34542  33.041  13.676   3.189
62195W        W34543   0.883  19.653  11.486
62196W        W34544  20.751  14.682  14.893
62197W        W34545  37.923   4.355  13.482
62198W        W34546  13.803  12.225  11.584
62199W        W34547  16.744   9.647  12.041
62200W        W34548  33.476  13.735  11.924
62201W        W34549  11.798  44.890  13.522
62202W        W34550  25.493  27.021  13.056
62203W        W34551  15.223  36.366  10.948
62204W        W34552  14.825  19.257   4.654
62205W        W34553   5.195   0.963   3.193
62206W        W34554   4.824  34.488   3.769
62207W        W34555  31.409   7.698   4.652
62208W        W34556   7.305  42.784  13.439
62209W        W34557   0.787  36.927  14.944
62210W        W34558  14.769  11.161   3.636
62211W        W34559   8.190   1.303  11.473
62212W        W34560  34.570   1.975   2.263
62213W        W34561   0.777  14.800  12.951
62214W        W34562  44.916  16.222   3.658
62215W        W34563  15.320   0.298   3.724
62216W        W34564  44.411  35.519   1.791
62217W        W34565  15.299   8.709   4.120
62218W        W34566  27.038  42.007   1.868
62219W        W34567  40.032   7.768  14.848
62220W        W34568  17.194  42.953  11.516
62221W        W34569  36.005  26.558  12.860
62222W        W34570  18.627  16.194   1.770
62223W        W34571  26.973  27.485   4.329
62224W        W34572   0.791  31.537   4.697
62225W        W34573   6.803  36.869   1.828
62226W        W34574   8.680   2.876  10.581
62227W        W34575   2.384  23.140  11.435
62228W        W34576  23.984   9.372  10.999
62229W        W34577  36.475   0.789   2.883
62230W        W34578   6.692  38.499   1.390
62231W        W34579  15.595  40.822  10.553
62232W        W34580  21.519  20.135   1.340
62233W        W34581   7.825   4.781  10.558
62234W        W34582  39.397   5.383  10.958
62235W        W34583   7.871  34.371   2.713
62236W        W34584   4.819  20.549   4.711
62237W        W34585   0.416  37.559   2.840
62238W        W34586  10.179  28.002   3.664
62239W        W34587  20.766  28.964  11.905
62240W        W34588  12.330  21.754   0.392
62241W        W34589  21.121  14.224  12.948
62242W        W34590  12.268  16.092  13.803
62243W        W34591  31.990  34.939  11.478
62244W        W34592  42.998   7.394   4.655
62245W        W34593   1.414  21.619   0.768
62246W        W34594   7.377  13.275   0.752
62247W        W34595  27.134  40.451  11.606
62248W        W34596  21.522  26.472   1.830
62249W        W34597   6.715   8.782   2.195
62250W        W34598  41.001  20.243   2.834
62251W        W34599  10.276  31.403   0.446
62252W        W34600  12.659  34.993   1.415
62253W        W34601  21.578  15.607  13.857
62254W        W34602  10.298  14.632   3.653
62255W        W34603  37.019   7.318   2.868
62256W        W34604  34.534  44.478  10.967
62257W        W34605   7.821   7.335   0.268
62258W        W34606  10.849  44.781  13.881
62259W        W34607  44.387  43.316  12.495
62260W        W34608  21.657  30.590  13.966
62261W        W34609  24.487  23.492   1.317
62262W        W34610   4.816  24.587   0.935
62263W        W34611  22.728  17.243   4.626
62264W        W34612   8.755   2.885   2.270
62265W        W34613  33.562   2.857   1.371
62266W        W34614  34.923  19.725  14.311
62267W        W34615   8.712  20.251  13.997
62268W        W34616  33.610  34.596  14.411
62269W        W34617  44.331   3.927  12.366
62270W        W34618   0.829  26.097  14.783
62271W        W34619  26.141  35.417   2.748
62272W        W34620   0.757  41.947   2.415
62273W        W34621  31.425  17.204  14.949
62274W        W34622  20.134  19.662   2.276
62275W        W34623  33.942  36.452   5.731
62276W        W34624   4.745  18.204  13.008
62277W        W34625  26.558  35.418   3.200
62278W        W34626  23.177   4.408   3.744
62279W        W34627  43.810  41.877  10.560
62280W        W34628  39.425   4.793  13.937
62281W        W34629  36.489   0.402  14.289
62282W        W34630  33.425   7.724   4.641
62283W        W34631  27.672   6.804  10.895
62284W        W34632  26.582  33.080   1.778
62285W        W34633  43.850   2.795  14.966
62286W        W34634  21.141  16.612  11.436
62287W        W34635  25.114  31.983   5.295
62288W        W34636  22.171  15.815  10.455
62289W        W34637  28.642  10.350  13.822
62290W        W34638  40.979   4.942   3.251
62291W        W34639  17.068  30.014  12.377
62292W        W34640  34.383   6.338  10.903
62293W        W34641  18.721  41.948  13.951
62294W        W34642  14.716  26.992   1.373
62295W        W34643  31.432   4.327   2.324
62296W        W34644   8.361  43.285   4.196
62297W        W34645  14.171  19.585  10.635
62298W        W34646  16.163  35.388  12.897
62299W        W34647  32.073  40.322  14.349
62300W        W34648  29.095  20.045  14.364
62301W        W34649  19.285  22.567  11.119
62302W        W34650   6.223  33.553   0.305
62303W        W34651  44.809   0.334   2.738
62304W        W34652  12.763  13.840  11.038
62305W        W34653   6.862  21.692   0.478
62306W        W34654   5.696   4.399   4.242
62307W        W34655  26.971  37.437  13.492
62308W        W34656   3.310  11.218   1.416
62309W        W34657  16.176  10.655   3.664
62310W        W34658  17.097  14.116   4.184
62311W        W34659  41.500  18.665   0.264
62312W        W34660  17.096  27.651  13.352
62313W        W34661  35.376  26.071  12.451
62314W        W34662  31.519  27.973  12.440
62315W        W34663  27.975  37.848   2.790
62316W        W34664   6.886  32.895  12.531
62317W        W34665   9.702  32.463   5.104
62318W        W34666  11.333   6.720  14.286
62319W        W34667  44.487  11.678   3.729
62320W        W34668  27.941  25.159   1.244
62321W        W34669  37.843  33.984   0.432
62322W        W34670  32.952  42.493   2.814
62323W        W34671  43.920  15.737   2.377
62324W        W34672   0.951  43.278   1.864
62325W        W34673  32.418  19.155  12.905
62326W        W34674  38.847  23.068   3.774
62327W        W34675  21.045  39.462   3.195
62328W        W34676   7.210  38.515  13.937
62329W        W34677  14.154  11.844   0.373
62330W        W34678  19.221   4.252   1.841
62331W        W34679  19.573   1.848  13.934
62332W        W34680  29.554   6.208  12.092
62333W        W34681  14.798   5.874   0.419
62334W        W34682  27.988   9.187  14.307
62335W        W34683  40.034  15.219   0.783
62336W        W34684   2.949  40.851   4.202
62337W        W34685   8.389  30.601  13.805
62338W        W34686  18.092  12.127   3.210
62339W        W34687   3.892  21.735   0.753
62340W        W34688  33.601  42.033   3.331
62341W        W34689  12.678   8.371   2.791
62342W        W34690  33.553  42.355  11.860
62343W        W34691   4.855   4.742  14.970
62344W        W34692  34.584   9.759  12.430
62345W        W34693   4.352  17.694   1.251
62346W        W34694  15.603  29.559   2.341
62347W        W34695   2.396  31.087   3.313
62348W        W34696  43.954  34.899  14.957
62349W        W34697  31.961   0.929  14.914
62350W        W34698  28.610  10.651  10.441
62351W        W34699  24.706  18.129  14.966
62352W        W34700  24.017  35.359   1.270
62353W        W34701   2.910  15.189  12.014
62354W        W34702  19.753  18.250  13.021
62355W        W34703   3.843  11.811   0.784
62356W        W34704  28.512  31.558   4.686
62357W        W34705  25.545   1.342  12.051
62358W        W34706  10.226  39.480  13.383
62359W        W34707   1.434  27.015   4.270
62360W        W34708   6.368  29.074  10.610
62361W        W34709  13.709  17.260   1.763
62362W        W34710  10.757  10.339  12.972
62363W        W34711  22.106   8.358   2.206
62364W        W34712  21.074  20.686  13.367
62365W        W34713  14.670   6.868   3.310
62366W        W34714  29.941  18.266   0.796
62367W        W34715  35.410  22.666   1.312
62368W        W34716   6.830  42.995  10.500
62369W        W34717  25.964  44.459  11.999
62370W        W34718   6.824  30.612  10.932
62371W        W34719   0.952  14.136   0.264
62372W        W34720   1.409  34.545   0.366
62373W        W34721  36.423  27.185   0.245
62374W        W34722  40.448  24.185   2.724
62375W        W34723   5.428   7.912  14.867
62376W        W34724   4.441   3.794  14.915
62377W        W34725  42.028  36.964   2.219
62378W        W34726  11.738  31.516   1.274
62379W        W34727  40.854  34.604   2.221
62380W        W34728  40.516  29.963   3.853
62381W        W34729   4.829  25.191   4.339
62382W        W34730  23.231  15.801   4.788
62383W        W34731  29.022   6.861   2.214
62384W        W34732  33.073   7.731   1.834
62385W        W34733  35.973  28.165  11.451
62386W        W34734  33.112  36.423   2.402
62387W        W34735  26.139  24.221  10.551
62388W        W34736  44.988  16.652   4.236
62389W        W34737  19.184  25.148   2.261
62390W        W34738   6.863  42.925   2.886
62391W        W34739  11.813   7.328   2.298
62392W        W34740  21.167   9.825   2.689
62393W        W34741   7.856  19.749  14.409
62394W        W34742   7.353  34.572   2.744
62395W        W34743  13.274   8.171  14.506
62396W        W34744  41.431  36.087   0.775
62397W        W34745   7.197   4.751  10.524
62398W        W34746   8.751   7.905  12.529
62399W        W34747   4.438  35.446  14.027
62400W        W34748  14.714  41.361  11.947
62401W        W34749  14.816  36.906   0.753
62402W        W34750   9.165  43.504   4.256
62403W        W34751  44.327  30.588   1.906
62404W        W34752  42.021   6.226  11.394
62405W        W34753  27.573  32.612  12.534
62406W        W34754   8.263   0.283   1.440
62407W        W34755  13.684   1.856  13.051
62408W        W34756  22.150   9.834  14.991
62409W        W34757  14.318  12.340  10.520
62410W        W34758   3.854  16.272   0.467
62411W        W34759  17.630  21.623  14.474
62412W        W34760  25.996  12.243   3.727
62413W        W34761  30.573   7.237   9.613
62414W        W34762  13.676  35.433   4.319
62415W        W34763  26.124  16.186   0.375
62416W        W34764  24.677   2.766   4.680
62417W        W34765   6.712  28.581  13.962
62418W        W34766   5.301   5.310  12.469
62419W        W34767  32.138  37.413  11.027
62420W        W34768  12.231  23.732  12.918
62421W        W34769  15.116  13.170  13.513
62422W        W34770  32.437  14.199  12.005
62423W        W34771  37.971   6.218   1.742
62424W        W34772   5.725   5.744  11.020
62425W        W34773   9.163  40.495   1.286
62426W        W34774  17.305  34.102  14.793
62427W        W34775  20.262  19.778   5.135
62428W        W34776  14.194  40.446   1.726
62429W        W34777   3.263   0.871   5.088
62430W        W34778   0.262  41.928  13.540
62431W        W34779  36.353  23.124   2.330
62432W        W34780  30.145  20.108   0.932
62433W        W34781  33.976  11.254   1.392
62434W        W34782  15.605  21.112  10.521
62435W        W34783  25.671  28.482  10.497
62436W        W34784  28.103  29.945  10.027
62437W        W34785  35.889  41.014   4.189
62438W        W34786  39.398   4.715   4.648
62439W        W34787  26.456   6.328  14.765
62440W        W34788   5.877  17.622  11.549
62441W        W34789  20.687  36.555   3.634
62442W        W34790   2.364  39.012  12.051
62443W        W34791  36.985  41.903   2.211
62444W        W34792  35.986  11.662  12.547
62445W        W34793  14.716  22.738   3.647
62446W        W34794  23.494  12.700  11.124
62447W        W34795  40.973  25.627  11.908
62448W        W34796  41.002  16.262  10.475
62449W        W34797  23.595  12.205  11.457
62450W        W34798  18.718  44.280   0.873
62451W        W34799  29.524  26.041  13.310
62452W        W34800  27.123  14.647  11.121
62453W        W34801  20.748  42.504   4.661
62454W        W34802   5.239  29.057  13.821
62455W        W34803  17.585  15.163  14.847
62456W        W34804  14.128   4.352  12.030
62457W        W34805  17.071  18.788  12.076
62458W        W34806  26.171   7.810   4.747
62459W        W34807  28.992  21.658   2.371
62460W        W34808  42.307  11.817  12.019
62461W        W34809  15.625  39.915   0.853
62462W        W34810   1.834  34.113  13.006
62463W        W34811  39.825  28.066  14.399
62464W        W34812  15.105  30.421   4.739
62465W        W34813  22.206  13.203   1.743
62466W        W34814  16.113  24.715  11.450
62467W        W34815  34.489  21.551  10.061
62468W        W34816  31.971  44.322   1.763
62469W        W34817  18.187   6.761  12.444
62470W        W34818  22.668  42.920   2.856
62471W        W34819  31.918  40.989   4.118
62472W        W34820  21.117   6.912  14.946
62473W        W34821  39.964  36.438   2.792
62474W        W34822  42.987  41.477  10.939
62475W        W34823  28.623   4.917   0.927
62476W        W34824  42.304  40.826   3.763
62477W        W34825  36.871  38.339   2.723
62478W        W34826  26.634   2.744   0.420
62479W        W34827  37.354  27.484  12.984
62480W        W34828  33.444   3.925   0.761
62481W        W34829   3.333   4.790   1.899
62482W        W34830  19.681  29.930  12.881
62483W        W34831  14.264  20.187  11.027
62484W        W34832  14.170  41.369   4.614
62485W        W34833  32.025   0.940  13.350
62486W        W34834   4.787  22.699   5.117
62487W        W34835  42.015  31.972   1.836
62488W        W34836  30.417  23.548   1.253
62489W        W34837  31.941   5.433   2.355
62490W        W34838  37.876  38.414  12.060
62491W        W34839   7.232  15.658   4.692
62492W        W34840  17.730   4.728  11.490
62493W        W34841  21.653  28.557  11.100
62494W        W34842  18.593  14.803   2.291
62495W        W34843   2.877  35.868  14.288
62496W        W34844  27.468  18.187  14.382
62497W        W34845  37.006  36.933  11.096
62498W        W34846  26.489  38.503  11.935
62499W        W34847  35.079   9.297   3.190
62500W        W34848  21.525  13.722  12.933
62501W        W34849  34.017  16.620   1.249
62502W        W34850  30.456  19.272  12.558
62503W        W34851   9.668  44.476   4.240
62504W        W34852  23.050  40.941   2.178
62505W        W34853  16.608  40.886   1.888
62506W        W34854  16.584  26.691   2.193
62507W        W34855  17.567   1.284  13.798
62508W        W34856  11.729  10.205  11.489
62509W        W34857   2.409  10.834  14.879
62510W        W34858  17.599  41.040  13.044
62511W        W34859   2.388  17.281  11.119
62512W        W34860  21.040  36.932   0.779
62513W        W34861   9.394  11.356  10.540
62514W        W34862  39.847  41.300  14.030
62515W        W34863  35.999  38.455   4.285
62516W        W34864  43.373   4.372  13.857
62517W        W34865   8.332  34.555   3.767
62518W        W34866  20.691  33.928   2.287
62519W        W34867  10.250  33.438  11.900
62520W        W34868  22.737  43.799   3.760
62521W        W34869   2.836  26.006   3.244
62522W        W34870   5.739  36.952   3.662
62523W        W34871  21.620  29.923  14.316
62524W        W34872  24.130  29.029  12.029
62525W        W34873  20.056   7.820   1.430
62526W        W34874  41.960  19.566  10.055
62527W        W34875  38.540  41.918  10.513
62528W        W34876  39.550   7.714  10.928
62529W        W34877  18.653  24.723  14.880
62530W        W34878   2.954   3.429   0.332
62531W        W34879  20.202  44.445   2.686
62532W        W34880   3.424  29.665  11.013
62533W        W34881  39.395  22.719  13.407
62534W        W34882   1.943  32.986  14.415
62535W        W34883  31.044   3.733  12.933
62536W        W34884  11.636  13.320   0.437
62537W        W34885  25.997   8.857   0.261
62538W        W34886  35.896   7.894  13.860
62539W        W34887  41.514  36.038   3.293
62540W        W34888  16.098  20.239  12.022
62541W        W34889  21.529   8.316   2.755
62542W        W34890  28.046  33.087   4.738
62543W        W34891  32.137   4.899  10.613
62544W        W34892  13.693  43.506  12.400
62545W        W34893  31.038   3.263   2.414
62546W        W34894  26.183  44.422   2.322
62547W        W34895  25.500  43.276  13.913
62548W        W34896  36.504  43.767  10.955
62549W        W34897  34.112  31.083  13.853
62550W        W34898  41.983   4.236  12.952
62551W        W34899  42.377  36.478   3.313
62552W        W34900  37.863  36.483   4.822
62553W        W34901  17.684  28.672   3.267
62554W        W34902  22.742  42.468   0.805
62555W        W34903  40.455  19.676   3.766
62556W        W34904  30.027  32.102  11.979
62557W        W34905  12.709   7.834   4.122
62558W        W34906  42.326  21.096   5.273
62559W        W34907   3.936  41.878   4.122
62560W        W34908  43.769  40.448   2.775
62561W        W34909  44.366  34.442  10.088
62562W        W34910  41.932  37.484  14.835
62563W        W34911  16.591  26.960   3.160
62564W        W34912  28.959  15.257   1.778
62565W        W34913  27.057   9.858   1.219
62566W        W34914  44.419  24.658  14.311
62567W        W34915   2.419  40.423  14.785
62568W        W34916  13.830   1.366  13.820
62569W        W34917  25.074  14.691   4.306
62570W        W34918  23.156   2.389   0.863
62571W        W34919  43.370  27.683   2.678
62572W        W34920  18.784   3.259   3.279
62573W        W34921  39.884  40.838  14.858
62574W        W34922  34.067   4.234   2.392
62575W        W34923   8.889  14.221   2.754
62576W        W34924  16.741  19.109   4.152
62577W        W34925  22.540  36.484  12.029
62578W        W34926  35.856   6.838   1.283
62579W        W34927  37.519   3.782   9.572
62580W        W34928  32.626  20.269  13.812
62581W        W34929  24.589  26.566  11.588
62582W        W34930  34.474  24.617  14.442
62583W        W34931   4.850  18.667  14.027
62584W        W34932  37.831   4.934  10.130
62585W        W34933  28.610  38.443   3.341
62586W        W34934  37.432  41.888  10.446
62587W        W34935  43.919  44.290  12.359
62588W        W34936   1.445  17.077   1.369
62589W        W34937  21.045   3.769  11.969
62590W        W34938  15.586  34.995   5.114
62591W        W34939  34.908  20.763  12.371
62592W        W34940  10.355  44.459  13.372
62593W        W34941  37.993   9.267   3.294
62594W        W34942  29.428  16.764   4.228
62595W        W34943   1.861   3.327  11.034
62596W        W34944  37.984  10.702  14.491
62597W        W34945  25.606  42.920  12.862
62598W        W34946   8.309  24.620  12.538
62599W        W34947  10.190   8.736  11.560
62600W        W34948  11.320   9.350  11.868
62601W        W34949  10.169  18.579  11.421
62602W        W34950  38.362   9.743  13.491
62603W        W34951  10.725  31.991  12.958
62604W        W34952   6.310   4.367  12.357
62605W        W34953  28.654  10.351  11.980
62606W        W34954   5.725  35.913  13.322
62607W        W34955  33.955   8.389   3.303
62608W        W34956  37.463  30.583  13.543
62609W        W34957  10.842  44.301   4.205
62610W        W34958  30.569  36.448  12.512
62611W        W34959  36.944  31.483  14.965
62612W        W34960  40.359   6.251  12.049
62613W        W34961  39.819   4.217  13.896
62614W        W34962  16.100   1.445  12.965
62615W        W34963  20.739  15.781   3.382
62616W        W34964  10.748   5.688  10.915
62617W        W34965  12.356   4.894   4.820
62618W        W34966  12.309  23.587  11.943
62619W        W34967   5.278  11.854   1.427
62620W        W34968  13.824  25.535  11.486
62621W        W34969   3.315  15.791   5.258
62622W        W34970   3.924   6.263   3.210
62623W        W34971  35.567   1.810  14.443
62624W        W34972  11.778  25.003   0.958
62625W        W34973  12.855   2.892  13.457
62626W        W34974  14.301   3.873  14.472
62627W        W34975  40.543  34.406  10.128
62628W        W34976  44.370  17.150  12.000
62629W        W34977  39.319  14.674  13.389
62630W        W34978  43.887   2.256   3.238
62631W        W34979   7.241  14.719  10.622
62632W        W34980  18.699  22.601   2.419
62633W        W34981   5.316   6.861  12.415
62634W        W34982   7.679  20.193  10.534
62635W        W34983   0.473  27.678  12.057
62636W        W34984  14.230  44.965   4.222
62637W        W34985   7.909  42.003  12.866
62638W        W34986  29.067  39.402  13.885
62639W        W34987  16.576   2.284  11.509
62640W        W34988  34.571  44.967   3.772
62641W        W34989  12.357  10.652   1.420
62642W        W34990   5.728  22.100   1.234
62643W        W34991  44.986   4.209  12.084
62644W        W34992   3.337  10.835   3.254
62645W        W34993   8.705  20.533   1.438
62646W        W34994  32.516   1.796  14.900
62647W        W34995  36.528  36.378   1.827
62648W        W34996   0.286   8.794  11.906
62649W        W34997  42.928  37.557   1.708
62650W        W34998   4.431   1.825  12.966
62651W        W34999  24.001  19.609  10.915
62652W        W35000  35.061  36.861  12.970
62653W        W35001  13.779  44.855  13.059
62654W        W35002   0.351  41.042   4.209
62655W        W35003  11.266  18.696  13.797
62656W        W35004  20.148   5.811   0.251
62657W        W35005  13.200  19.111   0.829
62658W        W35006   2.428  17.174  13.874
62659W        W35007  19.642  13.705   4.228
62660W        W35008  16.227  41.852   0.437
62661W        W35009  44.309  32.106   4.144
62662W        W35010   0.369  26.082   2.210
62663W        W35011  21.171  40.421   3.765
62664W        W35012  28.043   4.411   1.357
62665W        W35013  22.712  23.223  11.899
62666W        W35014   5.381   6.227   1.762
62667W        W35015   0.472  26.164  14.000
62668W        W35016  16.590  38.990  12.486
62669W        W35017  11.670  24.499   3.795
62670W        W35018  21.680  44.914   0.298
62671W        W35019  32.909   3.424   3.299
62672W        W35020  27.126  18.726   2.685
62673W        W35021  30.018   1.310   2.407
62674W        W35022  41.851  19.623  12.877
62675W        W35023  22.649   8.360  12.953
62676W        W35024  36.503  38.880  14.298
62677W        W35025  37.546  14.833  13.312
62678W        W35026   1.823   5.228  12.874
62679W        W35027  33.616   0.305  13.835
62680W        W35028  35.500  31.136  12.845
62681W        W35029  22.524  40.343   3.225
62682W        W35030  29.571  23.678   4.605
62683W        W35031  23.725  26.137  14.867
62684W        W35032  42.346  23.010  13.310
62685W        W35033  22.670   1.784  14.814
62686W        W35034  19.122   1.465  11.950
62687W        W35035  37.566  35.476   4.271
62688W        W35036  41.014  41.310  10.561
62689W        W35037  42.840  13.748  13.421
62690W        W35038  34.939  37.076   1.822
62691W        W35039  42.913  38.060   2.895
62692W        W35040  13.138  17.099   0.864
62693W        W35041  16.131  12.192   2.399
62694W        W35042  26.001  28.000  12.427
62695W        W35043  26.051  16.606  10.896
62696W        W35044  19.610  33.095   4.832
62697W        W35045   2.938   9.842  10.591
62698W        W35046  44.898  33.932   0.779
62699W        W35047  15.199  43.822   0.769
62700W        W35048   5.392  25.166   3.829
62701W        W35049  23.545   3.894   3.357
62702W        W35050  40.329   0.759  13.444
62703W        W35051   3.404  19.147  11.048
62704W        W35052  25.175  40.928   4.833
62705W        W35053  10.200  19.583  11.044
62706W        W35054  15.682  22.205   0.407
62707W        W35055   7.176   2.401   2.818
62708W        W35056   9.796   5.740   1.696
62709W        W35057  33.115   4.308   3.653
62710W        W35058   9.886   7.249   3.166
62711W        W35059  18.088  27.491   1.351
62712W        W35060  39.960  17.072  13.403
62713W        W35061  20.127  24.013  11.577
62714W        W35062  19.155  40.523   0.798
62715W        W35063  20.634   9.245  12.518
62716W        W35064  40.916  30.984  12.537
62717W        W35065  20.547  11.271  10.907
62718W        W35066  19.282  22.252   4.670
62719W        W35067  14.149  30.935   2.340
62720W        W35068  22.613  25.606   1.340
62721W        W35069  30.509  10.759   3.862
62722W        W35070  30.005  41.442   4.813
62723W        W35071  31.455  29.631   4.637
62724W        W35072  15.161   7.719  13.842
62725W        W35073  18.169  12.672  12.073
62726W        W35074  14.319  26.118   2.415
62727W        W35075  15.298   1.476  14.960
62728W        W35076  36.854  26.469   1.746
62729W        W35077  32.034  16.806  12.545
62730W        W35078  23.026  26.515  11.939
62731W        W35079  18.565  41.367  13.545
62732W        W35080   5.749  10.265  11.434
62733W        W35081  14.600  33.876  13.031
62734W        W35082   6.386  28.021  10.101
62735W        W35083   3.417  31.996  10.894
62736W        W35084  25.176   0.897  11.029
62737W        W35085   0.949  44.439   1.269
62738W        W35086   7.291   4.833   2.781
62739W        W35087  25.589  10.176  12.541
62740W        W35088  43.301  42.007  14.908
62741W        W35089  11.770  21.526  13.533
62742W        W35090  20.097  37.049   4.247
62743W        W35091  11.635  21.032   0.814
62744W        W35092   9.215  35.505  13.048
62745W        W35093  36.579  40.326  12.823
62746W        W35094  25.575  29.972   4.286
62747W        W35095  23.504  17.731  14.810
62748W        W35096  12.826  11.803  10.609
62749W        W35097  27.103  44.788  11.907
62750W        W35098  43.473  17.764   0.814
62751W        W35099  41.904  11.341   2.327
62752W        W35100  21.021  10.364  12.066
62753W        W35101  33.450  36.588  11.074
62754W        W35102  32.401  23.149  12.453
62755W        W35103  34.443  15.620  12.481
62756W        W35104  41.380  20.237   1.221
62757W        W35105  20.593  30.648   2.770
62758W        W35106  16.082   4.229   1.372
62759W        W35107  30.942  31.488   1.213
62760W        W35108  22.212  38.993  10.943
62761W        W35109  26.127  37.365   4.349
62762W        W35110  37.915  15.621  10.561
62763W        W35111  36.435   0.902  14.857
62764W        W35112   5.925  30.072  11.518
62765W        W35113  31.444   1.297  12.402
62766W        W35114  23.690  37.577  13.974
62767W        W35115  15.253  13.745  10.933
62768W        W35116  31.421  35.039   9.927
62769W        W35117  19.622  31.571   5.152
62770W        W35118  36.462  22.673  14.876
62771W        W35119  40.977  33.048  12.358
62772W        W35120  37.868  21.038  11.912
62773W        W35121   1.258   9.760   0.449
62774W        W35122  41.538   8.374   4.309
62775W        W35123  44.477  28.957  13.437
62776W        W35124  34.576  18.083  14.393
62777W        W35125  31.638  39.983   2.214
62778W        W35126  28.968  13.614   0.385
62779W        W35127  36.415  26.580   3.213
62780W        W35128  32.099   3.438   3.354
62781W        W35129  39.542  33.961  14.815
62782W        W35130  29.144  14.696  11.397
62783W        W35131  31.110   8.322  10.094
62784W        W35132  24.523  34.447  12.531
62785W        W35133  39.352   6.365   2.353
62786W        W35134  30.090  19.577  10.496
62787W        W35135   7.776  15.219  12.394
62788W        W35136  29.112   8.713  10.487
62789W        W35137  30.112  27.948  13.907
62790W        W35138  31.039  19.215  12.504
62791W        W35139  38.451  16.712  13.369
62792W        W35140  26.031  28.177   2.812
62793W        W35141  22.621  25.703   3.706
62794W        W35142   2.464  11.673   0.437
62795W        W35143   4.227  37.057   3.772
62796W        W35144  28.603  42.971  14.875
62797W        W35145   4.236  24.504  13.995
62798W        W35146  40.933  42.468   4.134
62799W        W35147  41.028  36.400   0.862
62800W        W35148  12.267   2.293   1.886
62801W        W35149  38.907  40.802   1.751
62802W        W35150   2.252   3.901  12.569
62803W        W35151  44.385  21.525   4.342
62804W        W35152  44.389   6.797   4.241
62805W        W35153   0.962  30.063   4.749
62806W        W35154  14.134   1.780   2.417
62807W        W35155  11.239  41.034  12.902
62808W        W35156  10.827  44.889   1.868
62809W        W35157  28.996  29.134   2.268
62810W        W35158  42.386  16.678  11.878
62811W        W35159   4.252  41.030  14.772
62812W        W35160  22.700  36.476   2.261
62813W        W35161  11.637  38.335   2.281
62814W        W35162  24.990   4.270  12.451
62815W        W35163   4.837  14.693  13.520
62816W        W35164  10.356  16.721   2.339
62817W        W35165   2.861   0.415  12.952
62818W        W35166  15.205  10.187  14.326
62819W        W35167  12.145  21.125  11.539
62820W        W35168  16.690  23.611  10.976
62821W        W35169   6.207   8.293  11.123
62822W        W35170  32.418  20.099   3.232
62823W        W35171   4.264   6.750   4.606
62824W        W35172   5.862  19.655  14.449
62825W        W35173   4.249  22.134  14.488
62826W        W35174   4.337  33.504   2.852
62827W        W35175  17.223  32.396  12.891
62828W        W35176  44.952  16.074   2.769
62829W        W35177  15.635  12.679  14.852
62830W        W35178   6.386  31.405  14.906
62831W        W35179  43.020  38.844  11.564
62832W        W35180  18.731  34.063   2.278
62833W        W35181  40.549  10.381  14.357
62834W        W35182  29.166   4.924   3.160
62835W        W35183  10.340   8.660  11.119
62836W        W35184  31.575  31.133   2.413
62837W        W35185  27.551  26.125  11.906
62838W        W35186  10.178  36.850  10.635
62839W        W35187   3.383   5.327   4.670
62840W        W35188  31.442  38.468  12.467
62841W        W35189  37.953   3.386  14.417
62842W        W35190  12.287  44.771  13.006
62843W        W35191  13.287   6.828   5.614
62844W        W35192  27.996  27.623   3.859
62845W        W35193   6.417   2.446   0.419
62846W        W35194  14.650  12.678  11.049
62847W        W35195  20.682   4.846  11.861
62848W        W35196  25.520  40.429  13.919
62849W        W35197  12.792  11.150  13.836
62850W        W35198  35.013  35.020   1.362
62851W        W35199  43.809  43.423   2.290
62852W        W35200   9.236  26.490   0.341
62853W        W35201  22.999  24.055   1.876
62854W        W35202  19.058  38.427   0.300
62855W        W35203   0.972  24.639   3.174
62856W        W35204  41.856  39.873  10.634
62857W        W35205  35.426  42.913   1.901
62858W        W35206  37.403  40.395   0.842
62859W        W35207  22.610  10.259   2.716
62860W        W35208  24.594  30.159   2.273
62861W        W35209  36.587  11.763   5.322
62862W        W35210  13.279  34.987   4.744
62863W        W35211  32.400  28.006   2.876
62864W        W35212  23.995   3.459  10.524
62865W        W35213   4.422  33.532  14.008
62866W        W35214  21.249   9.392   3.308
62867W        W35215  11.171   7.799   4.197
62868W        W35216  21.225  28.185   3.268
62869W        W35217   6.720  30.540  12.572
62870W        W35218  39.027  30.957   4.157
62871W        W35219  38.332  18.785   3.685
62872W        W35220   1.781   4.308  10.923
62873W        W35221  34.402  28.480  13.907
62874W        W35222  17.114  42.972  12.508
62875W        W35223   1.973   4.420   2.893
62876W        W35224  23.109  23.665   3.761
62877W        W35225  37.839   1.858   0.922
62878W        W35226  39.340   9.658  11.972
62879W        W35227  29.574  21.601   0.343
62880W        W35228  34.591  40.496   3.383
62881W        W35229  15.804   7.373  14.490
62882W        W35230  18.636   4.449   0.465
62883W        W35231  13.721   5.277   0.901
62884W        W35232   2.451  15.307  13.424
62885W        W35233   7.216   2.402  12.561
62886W        W35234  44.803  39.535   4.125
62887W        W35235  28.944  26.623   2.264
62888W        W35236  22.528  19.077   0.275
62889W        W35237  37.000  23.734  12.486
62890W        W35238   8.839  43.807   1.339
62891W        W35239  10.140  40.899  10.145
62892W        W35240  22.702   3.272   5.273
62893W        W35241  36.503   3.782   2.345
62894W        W35242  44.313   4.831  11.088
62895W        W35243  16.284  30.987   4.300
62896W        W35244  28.675  24.651  12.038
62897W        W35245  22.583   6.255  12.993
62898W        W35246  16.765  12.265  12.881
62899W        W35247   2.387  39.970  12.067
62900W        W35248  23.585  41.028   1.922
62901W        W35249  22.092  34.604   1.915
62902W        W35250  30.913  36.986   4.174
62903W        W35251  37.920  20.523  11.474
62904W        W35252  14.662  42.929  13.831
62905W        W35253   5.272  32.885   4.219
62906W        W35254  26.109  14.786  12.444
62907W        W35255  10.306  24.075  12.019
62908W        W35256  22.196  26.647  11.953
62909W        W35257  43.384  37.459  10.566
62910W        W35258  12.770   0.472   2.763
62911W        W35259  18.618  41.909  13.342
62912W        W35260   2.849  22.144   1.345
62913W        W35261  30.634  29.648  14.474
62914W        W35262  15.319  41.477  14.364
62915W        W35263  44.957  42.313   4.608
62916W        W35264  44.482  39.996  11.891
62917W        W35265   9.725  32.461  14.988
62918W        W35266  39.464  35.860  11.507
62919W        W35267  36.496  14.215  14.903
62920W        W35268  36.071  40.051  12.453
62921W        W35269  12.776  10.673   3.198
62922W        W35270   6.264  32.905   0.856
62923W        W35271  25.987   9.878  10.445
62924W        W35272  26.113  28.490   1.253
62925W        W35273   5.236  36.564  13.047
62926W        W35274   3.845  22.672  14.847
62927W        W35275  34.095  34.380   4.753
62928W        W35276  23.604  11.170  10.532
62929W        W35277  13.752  22.147  12.844
62930W        W35278   0.268  16.134   2.182
62931W        W35279   8.356  31.118  12.573
62932W        W35280  20.099  21.544  14.382
62933W        W35281  12.800  10.200  10.985
62934W        W35282  29.100  25.077   4.126
62935W        W35283  15.683  10.244  14.784
62936W        W35284  18.138  23.087  13.371
62937W        W35285  17.637  35.599   1.412
62938W        W35286  24.043  23.139   1.431
62939W        W35287   6.242  24.482  11.098
62940W        W35288  22.539  44.961   0.309
62941W        W35289  11.320  18.736  14.888
62942W        W35290  41.829  43.346  14.859
62943W        W35291  17.194   3.267  12.942
62944W        W35292  24.710  23.534  13.833
62945W        W35293  25.006  20.037   0.949
62946W        W35294  11.812  37.542   3.259
62947W        W35295  43.813  14.748  10.459
62948W        W35296  35.912  42.886   5.140
62949W        W35297   0.447  16.187  14.907
62950W        W35298  25.664  34.900  12.038
62951W        W35299  12.230  21.186   9.981
62952W        W35300  30.977  25.083  11.613
62953W        W35301  23.085   9.719  13.014
62954W        W35302  42.882  25.147   2.829
62955W        W35303  25.508  20.625   2.737
62956W        W35304  33.083  12.806  12.999
62957W        W35305  29.615  42.870  14.316
62958W        W35306  22.105   5.687   1.255
62959W        W35307  18.174  31.495   5.743
62960W        W35308  38.430  40.814  12.453
62961W        W35309  24.104  37.929  13.321
62962W        W35310  33.121  16.086   2.395
62963W        W35311   6.726  38.500  10.569
62964W        W35312   2.949  19.705  11.041
62965W        W35313   3.375  37.460   5.205
62966W        W35314  13.290  23.516   4.647
62967W        W35315  22.559  21.523  11.466
62968W        W35316  37.448  29.109   2.694
62969W        W35317  32.518  14.198   4.698
62970W        W35318  35.480   8.274   0.315
62971W        W35319   8.728  14.750   4.633
62972W        W35320   5.694  16.570   4.275
62973W        W35321  12.622   2.447   3.811
62974W        W35322   1.842  26.599  13.411
62975W        W35323  23.630   7.876  11.595
62976W        W35324  20.080   2.249  13.923
62977W        W35325  26.475  19.038   3.224
62978W        W35326  19.193  24.533  14.809
62979W        W35327  19.089   5.707   1.923
62980W        W35328  18.268  39.485  11.975
62981W        W35329  27.948  31.625  12.979
62982W        W35330   4.282  23.157   2.327
62983W        W35331  25.099   8.314  14.462
62984W        W35332  32.547   3.254  11.072
62985W        W35333   3.878  13.246  14.394
62986W        W35334  34.463  31.563  11.889
62987W        W35335  38.530  16.690   2.760
62988W        W35336  11.327   0.437  10.462
62989W        W35337   4.430  44.998  10.584
62990W        W35338  21.720  26.510  12.876
62991W        W35339  17.693  31.606   5.777
62992W        W35340  14.682  27.656   2.243
62993W        W35341  25.708  11.309   1.897
62994W        W35342   9.773  42.488  10.893
62995W        W35343  21.662  25.077   3.744
62996W        W35344  10.329  29.063   4.720
62997W        W35345  14.634  40.035   4.194
62998W        W35346  29.491  20.062  11.955
62999W        W35347  39.503   5.828   5.630
63000W        W35348   1.421   8.206  12.090
63001W        W35349  25.090  44.924  11.445
63002W        W35350  41.388  11.373   3.314
63003W        W35351   1.777  27.047  11.383
63004W        W35352  25.982  32.971  14.490
63005W        W35353  13.317  33.554   3.804
63006W        W35354   4.753  12.235  14.279
63007W        W35355  34.100  28.938  10.981
63008W        W35356   4.814   9.291  14.363
63009W        W35357  41.527  40.542   0.899
63010W        W35358  32.936  19.746  10.991
63011W        W35359  11.213  33.996  14.502
63012W        W35360  39.496  16.797  10.942
63013W        W35361  28.629  44.409   4.328
63014W        W35362  11.199  24.152   3.706
63015W        W35363   5.403   2.753   1.930
63016W        W35364  21.032  33.892   1.884
63017W        W35365  10.800  35.571   3.707
63018W        W35366  43.978  29.586   2.748
63019W        W35367   0.833  27.192  13.001
63020W        W35368  37.066  18.084  14.469
63021W        W35369  40.839  38.463  14.968
63022W        W35370  14.782  43.458   3.277
63023W        W35371  29.993  20.168   1.243
63024W        W35372   8.783   6.680   1.224
63025W        W35373  43.833  16.732  10.575
63026W        W35374   2.756  18.579   4.832
63027W        W35375   0.254   1.483  12.981
63028W        W35376  16.650  17.791  12.045
63029W        W35377   2.729  33.504   0.250
63030W        W35378  20.150  22.610  14.406
63031W        W35379  16.098  10.656   4.721
63032W        W35380   6.885  18.053  13.381
63033W        W35381  36.988  37.000   0.428
63034W        W35382  20.670  14.232   1.821
63035W        W35383  22.072   0.955   3.238
63036W        W35384  35.881   5.288   1.369
63037W        W35385  19.664  21.607  13.397
63038W        W35386  25.162  34.531   0.819
63039W        W35387  25.668   4.357   1.848
63040W        W35388   6.896  23.681  14.879
63041W        W35389   6.222  37.861  12.963
63042W        W35390  37.558  20.670   4.344
63043W        W35391  24.060  24.006   0.930
63044W        W35392   0.942  10.260  11.531
63045W        W35393  32.892  12.236  13.536
63046W        W35394  10.348   6.911   3.216
63047W        W35395  10.289  19.743   4.644
63048W        W35396  28.571  17.686  14.766
63049W        W35397  19.550   8.175   1.322
63050W        W35398  32.570  16.785   4.757
63051W        W35399  44.456   6.379  11.922
63052W        W35400  20.122   3.237   9.925
63053W        W35401  13.832   7.342   0.771
63054W        W35402  41.813  28.081   2.675
63055W        W35403  23.003   5.886   3.666
63056W        W35404  23.688  31.623  13.380
63057W        W35405   0.882  24.620   0.418
63058W        W35406  31.016  17.684   1.759
63059W        W35407  19.632  25.130  14.458
63060W        W35408  22.208  24.498   2.182
63061W        W35409  44.336  32.075  14.022
63062W        W35410  18.695  38.887   3.690
63063W        W35411  14.606  17.271   2.703
63064W        W35412  40.996  14.692  11.917
63065W        W35413  12.260   9.149  13.872
63066W        W35414  14.308  43.016  13.792
63067W        W35415  40.882   0.395   4.200
63068W        W35416  38.856  44.779  12.945
63069W        W35417  22.191  36.368  10.495
63070W        W35418  34.491  27.487  14.784
63071W        W35419   9.882  28.070   2.665
63072W        W35420  27.661  10.292  14.298
63073W        W35421  25.168   9.851  12.066
63074W        W35422   2.930   4.444  14.020
63075W        W35423   8.265  23.040   2.782
63076W        W35424   7.265  39.814  13.907
63077W        W35425  12.730   5.379  12.381
63078W        W35426  32.448  27.977   9.973
63079W        W35427  32.591  16.755   0.828
63080W        W35428  41.427  16.744  13.025
63081W        W35429  37.343  15.181  11.578
63082W        W35430  13.784  19.085   3.219
63083W        W35431  10.861  16.212   0.453
63084W        W35432  16.244   3.413   3.840
63085W        W35433  25.974  13.350  12.376
63086W        W35434  44.358  10.231   4.744
63087W        W35435   5.438  28.577   4.755
63088W        W35436  21.524   7.226   0.337
63089W        W35437  10.315   9.662   0.355
63090W        W35438  11.249   6.868  12.080
63091W        W35439  42.981  11.178  11.554
63092W        W35440  22.519  15.261   2.295
63093W        W35441  26.168   3.253   2.882
63094W        W35442   4.722  32.914  14.358
63095W        W35443  34.920   0.480   4.665
63096W        W35444  39.475   8.800  11.088
63097W        W35445   1.260   8.810   1.374
63098W        W35446   1.479  35.089  14.901
63099W        W35447   1.458  27.614   3.633
63100W        W35448   7.815  34.591   0.334
63101W        W35449   1.266  17.156   1.863
63102W        W35450  25.574  35.036   3.351
63103W        W35451  44.294  16.095   2.334
63104W        W35452  28.472   9.293   2.341
63105W        W35453  34.411  15.091  14.383
63106W        W35454   2.961  17.661  14.871
63107W        W35455   8.313   4.245  10.965
63108W        W35456  43.348  25.677   2.272
63109W        W35457  10.286  15.667  12.566
63110W        W35458  10.374  21.235   1.847
63111W        W35459  40.517   4.234  10.410
63112W        W35460  38.999  38.464   2.838
63113W        W35461  39.056   4.829  12.096
63114W        W35462  14.241   1.831  12.056
63115W        W35463  28.607   2.926  14.776
63116W        W35464  33.931  18.084  14.416
63117W        W35465   4.374   7.398   4.163
63118W        W35466   3.901   8.296  11.406
63119W        W35467  22.706  19.727   1.808
63120W        W35468  21.623  14.177  11.981
63121W        W35469  16.180  12.169   4.331
63122W        W35470  18.075  16.156  12.003
63123W        W35471  40.991  22.719  14.445
63124W        W35472   9.317  39.527  11.507
63125W        W35473  29.141   6.913   4.334
63126W        W35474  18.764  37.082   2.682
63127W        W35475  41.441  38.511   3.851
63128W        W35476   2.779  19.246   3.173
63129W        W35477  21.577  29.459   9.921
63130W        W35478  26.537   8.173   3.177
63131W        W35479  11.714  30.586  11.970
63132W        W35480  37.459  10.298   2.299
63133W        W35481  25.637   7.328   2.301
63134W        W35482  28.552  13.777   0.787
63135W        W35483  15.619  38.929   1.839
63136W        W35484   5.900  21.563   2.868
63137W        W35485  20.097  17.667   4.614
63138W        W35486  28.473  17.785   1.735
63139W        W35487  25.032  17.251  11.070
63140W        W35488  22.618  25.067   9.978
63141W        W35489  29.138  26.976   3.222
63142W        W35490   8.694   5.302   1.706
63143W        W35491  20.567  25.212  13.946
63144W        W35492  33.400  18.246   1.777
63145W        W35493  12.695  44.800  11.547
63146W        W35494  29.957  28.485   4.287
63147W        W35495   3.874  43.779  12.885
63148W        W35496  12.686  29.564  12.835
63149W        W35497   1.842  11.157  12.365
63150W        W35498  37.572  23.728   1.840
63151W        W35499  16.293   2.355  14.886
63152W        W35500  31.527  20.574   0.884
63153W        W35501   6.684  40.953   3.644
63154W        W35502  12.624  34.593   2.844
63155W        W35503  28.051  34.957  10.411
63156W        W35504   9.790  21.213   0.300
63157W        W35505  25.562  35.432  12.439
63158W        W35506   6.205   4.257   2.241
63159W        W35507  25.474  40.866   0.886
63160W        W35508  16.575   9.662  11.462
63161W        W35509  13.630  26.674  14.801
63162W        W35510   3.817  43.415   0.763
63163W        W35511  11.753  24.189   0.952
63164W        W35512   2.935  34.070   4.803
63165W        W35513  19.709  36.042   4.640
63166W        W35514  15.239  44.985   2.178
63167W        W35515   6.786  12.264  12.854
63168W        W35516  15.260  44.994  10.558
63169W        W35517  36.056  29.977   3.193
63170W        W35518   7.416  17.116   3.195
63171W        W35519   1.924   0.378  14.764
63172W        W35520   9.156  36.358   4.809
63173W        W35521  39.464  44.909   0.355
63174W        W35522   5.843  38.982   3.869
63175W        W35523  37.061  22.127  14.302
63176W        W35524  13.189  29.060   0.351
63177W        W35525  43.880  38.356  11.889
63178W        W35526  31.538  33.597   4.262
63179W        W35527  39.368  29.991  12.003
63180W        W35528  37.982   4.345   3.283
63181W        W35529  42.963  16.613   1.897
63182W        W35530  44.988  23.495   2.217
63183W        W35531  14.700   2.429  12.433
63184W        W35532   0.256  38.923  12.450
63185W        W35533   9.753  35.369  12.035
63186W        W35534  30.030  19.192  12.018
63187W        W35535  25.487  13.825   1.281
63188W        W35536  44.785  20.703   1.910
63189W        W35537  11.267  15.811  11.433
63190W        W35538  22.174  28.954   2.678
63191W        W35539  14.145  16.616   2.712
63192W        W35540  27.127  35.080   0.461
63193W        W35541  34.875  33.105   3.681
63194W        W35542   1.323   3.779   2.693
63195W        W35543  37.437  14.779  11.493
63196W        W35544  21.155   2.730  12.398
63197W        W35545  41.475  36.038  10.893
63198W        W35546  27.678  17.559   0.779
63199W        W35547  10.261  37.535  13.936
63200W        W35548  42.386  14.687   4.642
63201W        W35549  22.201   5.415   1.293
63202W        W35550  10.154   2.834  10.480
63203W        W35551  16.675  13.837   2.690
63204W        W35552   0.446  17.786   4.648
63205W        W35553  25.602  13.641   1.755
63206W        W35554  15.810   0.956  12.848
63207W        W35555   5.850  44.867   0.796
63208W        W35556   6.838   2.829  10.533
63209W        W35557  16.680  31.569   2.748
63210W        W35558  18.143  14.758   4.795
63211W        W35559  30.987  29.493   2.898
63212W        W35560  11.734   8.312  13.978
63213W        W35561   3.317  42.848   1.854
63214W        W35562   1.953  39.333   0.313
63215W        W35563  40.382  29.462   1.422
63216W        W35564   9.331  13.645  14.289
63217W        W35565  43.496  30.642   4.216
63218W        W35566  28.504  41.016   0.322
63219W        W35567  16.568  37.936   2.858
63220W        W35568  34.978  23.683   4.712
63221W        W35569  14.783  27.037  12.872
63222W        W35570  42.296  41.995  13.992
63223W        W35571   6.868   2.925   3.381
63224W        W35572  16.259  37.466  14.279
63225W        W35573   1.291  29.461  13.977
63226W        W35574  16.079  36.941   0.267
63227W        W35575  13.242   6.409   4.137
63228W        W35576  23.013  42.929  11.508
63229W        W35577  40.024  32.112   4.176
63230W        W35578  34.607  41.857   4.712
63231W        W35579  22.064  30.626   0.932
63232W        W35580  42.922  11.661  14.351
63233W        W35581  19.583   4.719   0.920
63234W        W35582  37.874  35.375   2.304
63235W        W35583  27.669   4.310  13.009
63236W        W35584   7.789  14.604   0.743
63237W        W35585  19.698  25.192   1.262
63238W        W35586  41.816  38.558  10.413
63239W        W35587  42.345  24.677  12.996
63240W        W35588   4.335  12.300   0.323
63241W        W35589   2.951  43.846  11.960
63242W        W35590  22.111  11.242  13.808
63243W        W35591  23.117  38.829  11.078
63244W        W35592   1.464  30.636   2.808
63245W        W35593   0.417   3.726  14.446
63246W        W35594  29.096  35.037   2.365
63247W        W35595  39.465  20.121  14.916
63248W        W35596  28.071   6.711   3.150
63249W        W35597   4.937   1.364  14.479
63250W        W35598  16.247  35.981   3.681
63251W        W35599  41.980  22.672   4.670
63252W        W35600   6.371  27.605  10.442
63253W        W35601   3.236   4.847   1.252
63254W        W35602  44.969  40.858   4.220
63255W        W35603   3.915   3.362   1.886
63256W        W35604  26.560   3.436  12.853
63257W        W35605  31.146   4.938  10.887
63258W        W35606   6.224  13.701  11.994
63259W        W35607  22.722  17.180   1.871
63260W        W35608  24.029  17.782  11.936
63261W        W35609   5.927  26.037   4.183
63262W        W35610   5.769  27.678  14.464
63263W        W35611  34.997   7.372   4.629
63264W        W35612  17.725  37.943   0.276
63265W        W35613   6.422  27.948   0.827
63266W        W35614  37.860  41.856  13.510
63267W        W35615  35.495  29.582  11.495
63268W        W35616   7.759  19.683  12.027
63269W        W35617  27.683  25.540  13.902
63270W        W35618  39.388  44.307   0.313
63271W        W35619   1.334  10.342   5.158
63272W        W35620  39.921   0.890  12.902
63273W        W35621  44.290  21.200   2.711
63274W        W35622   6.811  10.778   0.766
63275W        W35623  19.566  15.696   1.217
63276W        W35624   1.355  10.376  11.999
63277W        W35625  12.261  25.658  11.591
63278W        W35626  39.030  21.572  11.610
63279W        W35627  32.958  26.020  11.575
63280W        W35628   5.720  28.964  12.841
63281W        W35629  32.397  12.847   4.335
63282W        W35630  19.258   1.951   4.792
63283W        W35631  27.672  35.991  14.334
63284W        W35632  34.948  41.366   1.272
63285W        W35633  41.012  22.103  14.488
63286W        W35634  22.009   0.263  14.300
63287W        W35635  27.690   4.223  14.457
63288W        W35636  44.869  39.916   3.180
63289W        W35637   5.914  21.673  12.549
63290W        W35638  31.114  30.064  12.982
63291W        W35639  24.096  12.277   3.241
63292W        W35640  25.672  40.032  13.502
63293W        W35641  31.024  17.274  10.568
63294W        W35642   3.711  29.618  12.858
63295W        W35643  25.708  36.452  10.579
63296W        W35644  39.515  44.906  11.512
63297W        W35645  43.772   2.365   0.300
63298W        W35646  35.919   7.315   5.238
63299W        W35647  39.975  26.110  11.540
63300W        W35648  21.752  42.930  12.919
63301W        W35649  36.004   4.342   2.237
63302W        W35650   2.352  35.471   2.359
63303W        W35651   7.711  27.476  12.566
63304W        W35652  27.631  36.452  14.803
63305W        W35653  35.906  18.606  14.418
63306W        W35654  30.492   9.265   0.870
63307W        W35655  37.375  44.917  11.514
63308W        W35656   4.797  13.708  10.601
63309W        W35657  30.099  29.001   0.855
63310W        W35658  33.097  40.472   3.154
63311W        W35659  31.601  19.626   5.321
63312W        W35660  37.004  25.633   4.201
63313W        W35661  15.288  17.111   3.652
63314W        W35662  23.559   9.871   5.171
63315W        W35663  44.926  22.730  14.305
63316W        W35664  31.637  36.444   5.162
63317W        W35665   3.924  24.633   0.945
63318W        W35666  38.481  19.068  11.898
63319W        W35667  35.070  12.162   3.690
63320W        W35668  44.769  37.974  12.447
63321W        W35669  36.348  32.068  10.613
63322W        W35670  15.167   5.293  11.533
63323W        W35671  42.379  19.533   1.282
63324W        W35672   3.368   1.342  12.968
63325W        W35673  34.452  19.539  12.462
63326W        W35674  12.304   4.227  14.908
63327W        W35675  19.054  26.013  10.419
63328W        W35676  39.912  11.373   3.776
63329W        W35677  43.387  32.551   2.343
63330W        W35678  34.393   6.264   4.297
63331W        W35679   6.224  26.513  14.324
63332W        W35680  32.909  15.755  10.953
63333W        W35681  22.164  31.031  11.906
63334W        W35682  27.140  11.355   4.728
63335W        W35683  31.601  43.941  10.932
63336W        W35684  20.671  16.568   4.243
63337W        W35685   9.865  33.915  12.554
63338W        W35686  13.829  24.520  12.085
63339W        W35687   0.281  29.995  13.893
63340W        W35688  16.204   8.656  12.454
63341W        W35689  39.536   2.417  14.330
63342W        W35690  32.466  31.078   4.649
63343W        W35691  29.569  20.141  14.296
63344W        W35692  18.069   4.364   3.320
63345W        W35693   4.258  24.721  11.012
63346W        W35694   1.873  37.482   3.771
63347W        W35695  18.579   0.820  11.609
63348W        W35696  22.734  21.206  13.311
63349W        W35697  10.231  31.154   0.872
63350W        W35698  30.608  30.640   2.850
63351W        W35699   6.900  13.214   0.897
63352W        W35700   9.350  11.731  11.422
63353W        W35701  21.018  30.516   2.662
63354W        W35702  16.092  20.063  10.569
63355W        W35703  21.670   7.827   3.341
63356W        W35704  43.486  28.650  12.863
63357W        W35705   9.250   7.682  13.798
63358W        W35706  17.207  14.595  11.026
63359W        W35707  36.093  19.635  13.501
63360W        W35708  35.590  23.111   1.837
63361W        W35709   5.372  10.343  14.411
63362W        W35710  14.203  44.769  13.902
63363W        W35711  44.359  42.363   0.429
63364W        W35712  43.825  19.630  12.349
63365W        W35713  35.864   8.171  13.859
63366W        W35714  11.821  30.510  11.400
63367W        W35715  26.551  42.421   0.468
63368W        W35716   0.479  31.571  14.454
63369W        W35717   1.748  38.481  13.932
63370W        W35718  32.610   0.454  13.934
63371W        W35719   6.249  38.422  14.399
63372W        W35720  24.179  11.783   0.879
63373W        W35721  16.303   7.219  10.944
63374W        W35722  39.451  33.932   1.724
63375W        W35723   6.866  23.096   1.219
63376W        W35724  13.628  29.506   4.641
63377W        W35725   5.276  21.621  14.945
63378W        W35726  42.339  27.635   3.829
63379W        W35727  16.584  44.405   2.310
63380W        W35728   9.343  36.584  14.837
63381W        W35729   7.862  14.131   5.305
63382W        W35730  29.050   8.792  11.468
63383W        W35731  18.646   1.365   1.780
63384W        W35732  25.516  29.596   1.349
63385W        W35733  35.859  28.169   1.400
63386W        W35734   4.340  28.026   0.752
63387W        W35735  37.028  40.439   3.263
63388W        W35736  12.173  14.296  12.067
63389W        W35737  34.538  20.220  10.554
63390W        W35738  31.987   7.339   3.648
63391W        W35739   8.671  17.606  10.961
63392W        W35740   8.729  20.566   4.255
63393W        W35741  26.172  43.426   1.736
63394W        W35742  43.860   9.205   0.355
63395W        W35743  13.695  36.487  10.989
63396W        W35744  27.571  15.144   1.327
63397W        W35745  42.507  44.961   3.282
63398W        W35746  44.823  42.334   1.344
63399W        W35747  29.629   6.699   2.276
63400W        W35748  42.365  19.643   4.288
63401W        W35749  41.896  29.042   4.805
63402W        W35750  30.493  27.015  13.888
63403W        W35751  42.857  17.153  13.857
63404W        W35752  18.083  15.692   3.225
63405W        W35753  10.232  35.037  14.334
63406W        W35754   2.232  10.865   0.808
63407W        W35755  15.295  24.717   1.350
63408W        W35756  12.326  29.020  10.636
63409W        W35757  12.764   4.938  11.126
63410W        W35758  19.685  33.934  14.475
63411W        W35759  34.884   4.767   5.097
63412W        W35760  12.321   6.787   3.633
63413W        W35761  19.540  37.045  10.464
63414W        W35762   6.819  31.025  10.478
63415W        W35763  36.431  33.101  13.804
63416W        W35764  35.369  18.252  10.911
63417W        W35765  27.507  24.182  13.064
63418W        W35766  35.383  19.251  12.471
63419W        W35767  35.950  40.492  10.936
63420W        W35768  23.725   5.797   3.729
63421W        W35769  18.202  17.651  12.400
63422W        W35770  24.565  42.804   2.693
63423W        W35771   1.378  25.556  12.031
63424W        W35772   3.943   4.858   1.740
63425W        W35773  11.192  39.821   4.143
63426W        W35774  30.010  24.679  10.426
63427W        W35775  34.910   8.186  13.501
63428W        W35776  21.721  22.727  14.331
63429W        W35777   8.889   8.884  12.003
63430W        W35778   1.869   4.427   3.650
63431W        W35779  25.028  21.052   1.923
63432W        W35780  17.787  34.991  11.533
63433W        W35781  33.082   4.722  11.514
63434W        W35782  32.571  32.612   3.799
63435W        W35783  40.878  13.741  14.817
63436W        W35784  42.914   6.413  13.344
63437W        W35785  30.619  24.060   2.253
63438W        W35786  33.087  12.276   0.343
63439W        W35787   3.857   2.829   1.839
63440W        W35788  43.829   9.848  11.602
63441W        W35789   2.914   6.213   4.792
63442W        W35790  12.746  12.689  11.521
63443W        W35791  30.641   2.356  14.395
63444W        W35792  20.755  36.868   2.733
63445W        W35793  15.094  35.384   2.405
63446W        W35794  27.084  24.099  13.472
63447W        W35795  34.608  32.994  10.996
63448W        W35796  21.064  38.963  10.020
63449W        W35797  37.012  14.289   2.293
63450W        W35798  39.355  30.478  11.383
63451W        W35799  34.890  44.300   2.857
63452W        W35800  20.150   7.208   5.297
63453W        W35801  35.969  36.414  13.905
63454W        W35802  31.636  29.174  13.315
63455W        W35803  23.582  40.956   2.688
63456W        W35804  43.515  16.668   1.416
63457W        W35805  39.049  15.769   1.832
63458W        W35806  26.509  30.506  14.011
63459W        W35807  30.096  26.966  13.415
63460W        W35808  34.962  26.478   5.255
63461W        W35809  10.239   4.375  10.938
63462W        W35810  42.433  31.482   4.253
63463W        W35811  37.564  23.589   3.325
63464W        W35812   4.441  17.269  12.937
63465W        W35813  30.009  17.203   0.258
63466W        W35814  24.496   7.761   5.587
63467W        W35815  15.175  19.637  11.489
63468W        W35816  43.831  14.134   0.760
63469W        W35817  15.277  33.018  11.548
63470W        W35818  44.997  23.196   2.358
63471W        W35819  31.483  18.250  12.994
63472W        W35820  18.220  26.146   0.396
63473W        W35821   6.866  38.021  11.901
63474W        W35822  39.325  31.076  13.390
63475W        W35823  44.788  42.019   4.352
63476W        W35824  11.729  37.021  13.356
63477W        W35825   4.705  35.891   3.307
63478W        W35826  36.391   1.767  11.875
63479W        W35827   8.899  41.321   0.301
63480W        W35828  40.383  21.693  12.570
63481W        W35829  36.431  20.711  12.901
63482W        W35830  20.250  23.179  14.284
63483W        W35831  18.727  41.409   2.678
63484W        W35832  28.451  43.464   3.648
63485W        W35833  12.142  30.446  10.990
63486W        W35834   9.772  43.847  12.436
63487W        W35835  31.445  33.996  14.843
63488W        W35836   0.445  33.590  14.304
63489W        W35837  27.169  25.117  12.906
63490W        W35838  30.541  10.689  11.534
63491W        W35839  12.695   5.255   2.777
63492W        W35840   7.705  31.001  14.854
63493W        W35841  31.065  28.502  10.897
63494W        W35842  32.626  28.954  11.409
63495W        W35843  43.360  39.989  12.440
63496W        W35844  29.979  17.252  14.969
63497W        W35845   0.764   2.878   1.361
63498W        W35846   6.267  21.603  14.285
63499W        W35847  23.552  24.160   2.243
63500W        W35848  18.122  33.047  12.422
63501W        W35849  31.583   3.794   4.253
63502W        W35850  31.528  16.111  14.975
63503W        W35851  27.658   8.393   3.660
63504W        W35852   7.797  32.931  14.825
63505W        W35853   4.706  35.873  13.961
63506W        W35854  39.335  32.482   3.163
63507W        W35855  37.074  39.822  13.020
63508W        W35856   2.335   1.306  14.310
63509W        W35857  15.192   9.213   3.674
63510W        W35858  35.420  32.986   2.869
63511W        W35859  41.986  35.891   3.706
63512W        W35860  11.628   2.273  13.332
63513W        W35861  38.001   1.449   2.872
63514W        W35862   0.415  40.983  11.431
63515W        W35863  20.031  44.284   3.374
63516W        W35864  17.693  25.587  12.923
63517W        W35865  36.996  44.274  14.002
63518W        W35866  20.675  40.898   3.766
63519W        W35867  10.212   7.365   1.708
63520W        W35868  21.581   0.969   3.360
63521W        W35869   1.951  14.690  12.920
63522W        W35870  15.204   4.279   2.378
63523W        W35871  25.593   9.355  13.854
63524W        W35872  41.518  37.577   4.137
63525W        W35873   0.955  34.911  12.442
63526W        W35874  32.891  32.553  12.990
63527W        W35875  20.097   4.815  10.519
63528W        W35876  42.387  25.627   1.327
63529W        W35877  23.082  24.982   1.305
63530W        W35878  29.621  32.946  11.061
63531W        W35879  39.553  35.083  14.430
63532W        W35880  16.177  22.712   1.765
63533W        W35881  19.099  26.977  14.862
63534W        W35882  24.042  26.651   2.223
63535W        W35883   4.335  24.056   3.303
63536W        W35884  20.161  30.962   4.214
63537W        W35885  30.072  16.810   1.932
63538W        W35886  17.131  36.387  13.049
63539W        W35887  39.492  42.357  10.632
63540W        W35888  42.969   4.803   1.781
63541W        W35889  23.529  31.518   3.838
63542W        W35890  30.070  44.392   4.772
63543W        W35891  39.016   3.266   2.871
63544W        W35892  17.613   1.911   4.115
63545W        W35893   9.223  18.266  11.490
63546W        W35894  37.063  19.671  10.556
63547W        W35895  41.880  25.015  10.480
63548W        W35896  31.117  44.822  12.385
63549W        W35897  26.673  13.153  13.879
63550W        W35898  28.128   0.771   3.663
63551W        W35899   6.402  34.875   0.801
63552W        W35900  31.976  33.963   4.210
63553W        W35901  31.979  44.821   2.279
63554W        W35902   1.798  34.004  14.452
63555W        W35903  24.702  22.629   4.633
63556W        W35904  39.914  16.203   3.330
63557W        W35905  20.200  10.180   2.276
63558W        W35906  36.040  40.915   0.396
63559W        W35907  37.086  41.912  13.794
63560W        W35908  34.965  40.441  11.983
63561W        W35909  21.660   4.299   4.188
63562W        W35910  22.539  18.272  10.990
63563W        W35911   3.372  43.950   4.777
63564W        W35912  19.197   4.895   0.820
63565W        W35913  13.796   7.315   3.243
63566W        W35914   0.383  14.762  14.824
63567W        W35915  35.488  17.173   3.716
63568W        W35916  31.112  15.775  14.932
63569W        W35917  34.004  18.549   3.692
63570W        W35918  20.138   6.333   4.124
63571W        W35919   0.978  37.979   0.426
63572W        W35920   7.745  24.007  12.008
63573W        W35921  14.151  43.326  13.015
63574W        W35922   7.667   8.731  11.109
63575W        W35923  18.742  32.540   5.630
63576W        W35924  32.004  10.364   2.366
63577W        W35925   7.182  35.085   4.621
63578W        W35926  31.486  42.795   4.348
63579W        W35927  24.066  20.634   2.756
63580W        W35928  24.561  37.972   2.264
63581W        W35929  18.655  23.588   0.396
63582W        W35930  40.449  40.929   0.467
63583W        W35931   4.363  20.135  10.645
63584W        W35932  36.516  17.097  10.918
63585W        W35933  31.584  12.280   4.349
63586W        W35934  17.567   3.273   2.221
63587W        W35935   7.742  26.638  13.493
63588W        W35936  30.589  16.160   3.208
63589W        W35937  40.831  15.682  13.478
63590W        W35938  37.914  23.205   4.789
63591W        W35939  21.652  38.023   1.423
63592W        W35940   6.389  29.527   2.781
63593W        W35941  35.592   1.777   3.243
63594W        W35942  34.959   0.295  10.944
63595W        W35943  21.588  17.087   3.670
63596W        W35944  22.070   7.182  11.483
63597W        W35945  27.452  22.618   2.796
63598W        W35946  10.704  39.967   0.309
63599W        W35947  25.708  15.192   2.739
63600W        W35948  24.550   3.317  14.473
63601W        W35949   1.762  32.425   1.745
63602W        W35950  33.544   2.872   0.896
63603W        W35951   8.200   9.227  11.029
63604W        W35952  41.329  29.428  12.366
63605W        W35953  17.172  31.462  13.509
63606W        W35954  32.902  22.183  12.496
63607W        W35955   9.217  37.531  10.535
63608W        W35956  25.175  22.555   3.167
63609W        W35957  28.107   6.715  11.444
63610W        W35958  13.601  12.238   1.894
63611W        W35959  36.847   3.882   4.735
63612W        W35960   3.269   9.293   2.375
63613W        W35961   6.408   9.292  14.509
63614W        W35962  17.614  37.952  10.508
63615W        W35963  42.287  44.480  10.531
63616W        W35964   8.744  22.578  12.973
63617W        W35965  13.688  30.500  14.337
63618W        W35966   3.863  22.724   4.690
63619W        W35967  38.965  14.118   3.377
63620W        W35968  31.457  15.759  13.059
63621W        W35969  35.382  27.540   4.324
63622W        W35970  26.568  23.587   2.792
63623W        W35971  34.019  42.407   1.352
63624W        W35972  23.690  38.338   0.907
63625W        W35973   6.217  36.859   0.285
63626W        W35974  13.221   4.444  13.968
63627W        W35975  26.662   0.904   0.335
63628W        W35976  15.088  38.906   3.833
63629W        W35977  18.730  24.599   2.356
63630W        W35978   0.455   5.818  13.061
63631W        W35979  13.264  21.751   0.425
63632W        W35980   8.360  28.004   1.403
63633W        W35981  27.108  18.189  13.799
63634W        W35982  31.467  38.496  10.501
63635W        W35983  29.510  26.993   0.882
63636W        W35984  43.330   7.297  10.419
63637W        W35985  12.155  37.439  11.612
63638W        W35986  13.778  32.036   2.190
63639W        W35987   7.381  18.753   3.284
63640W        W35988  29.502  13.751   3.254
63641W        W35989  31.609  27.052  10.583
63642W        W35990  32.564  27.965  14.941
63643W        W35991  11.744  14.180  13.535
63644W        W35992   9.865  10.247   3.199
63645W        W35993  11.168  40.891  14.364
63646W        W35994  20.137   0.964   0.381
63647W        W35995  12.616  25.629  14.277
63648W        W35996  14.306  33.006  14.297
63649W        W35997   7.316  24.094   4.180
63650W        W35998   7.674  37.550   4.179
63651W        W35999  14.670  16.280  13.823
63652W        W36000  13.704  33.467  11.441
63653W        W36001  12.777   5.250   3.847
63654W        W36002   9.317  30.532  10.099
63655W        W36003   5.839  23.190  11.474
63656W        W36004  37.400  39.421   4.117
63657W        W36005   1.350  21.521   4.781
63658W        W36006   2.342   5.874  12.343
63659W        W36007  25.539  31.522   1.245
63660W        W36008  35.995  25.088  11.550
63661W        W36009  36.380  40.002   2.758
63662W        W36010  30.506   9.352   1.416
63663W        W36011  13.181  39.862  13.048
63664W        W36012  19.777  11.704  12.537
63665W        W36013  18.713  40.447   4.730
63666W        W36014  24.543  43.982   3.334
63667W        W36015  25.110   3.917   3.747
63668W        W36016  44.880  24.198   1.813
63669W        W36017  33.544  15.718  11.497
63670W        W36018  37.842  22.664   5.316
63671W        W36019  13.807   4.442   3.263
63672W        W36020  21.516  41.488   0.743
63673W        W36021  43.939  26.629   1.362
63674W        W36022  29.944  15.223  10.505
63675W        W36023  24.716  35.421   2.870
63676W        W36024  31.909  20.735  10.622
63677W        W36025   4.710  32.914  11.497
63678W        W36026   8.365   6.295   2.285
63679W        W36027  18.677  19.068   2.875
63680W        W36028  21.692  29.453   0.345
63681W        W36029  29.111  16.593   4.295
63682W        W36030  15.598  33.466   3.274
63683W        W36031  25.140  12.687  11.512
63684W        W36032  31.430  44.863  12.076
63685W        W36033  24.986   1.356  14.398
63686W        W36034  40.028  19.746   3.632
63687W        W36035   8.671  16.225   0.457
63688W        W36036  12.744  29.027   1.715
63689W        W36037  36.386  42.283  14.787
63690W        W36038  16.607  20.208   0.811
63691W        W36039   0.819  44.816  11.517
63692W        W36040  19.676  10.676   2.796
63693W        W36041  31.029  31.466   1.834
63694W        W36042  42.331  16.224   0.943
63695W        W36043  34.610  40.443  12.896
63696W        W36044  31.457  38.370   0.841
63697W        W36045  19.273  32.497   5.234
63698W        W36046  25.020   3.733   4.820
63699W        W36047  26.561  39.402  12.905
63700W        W36048  42.857  14.749  12.947
63701W        W36049  32.591   0.972  12.001
63702W        W36050  17.145  16.221   3.749
63703W        W36051   2.828  39.552  12.341
63704W        W36052  10.793   5.749   5.700
63705W        W36053   4.328   5.713   4.155
63706W        W36054   2.786   3.300  12.370
63707W        W36055   4.226  32.939  13.480
63708W        W36056  35.601  20.056   2.759
63709W        W36057  16.724   5.204   3.208
63710W        W36058   5.894   6.913   4.792
63711W        W36059  19.124  12.756  10.469
63712W        W36060   5.690  36.361   1.852
63713W        W36061  42.913  44.803  13.482
63714W        W36062  29.045  17.695   0.363
63715W        W36063   5.785  39.057  11.477
63716W        W36064  28.105  16.273  12.967
63717W        W36065  24.056  24.184  14.021
63718W        W36066  38.943  34.444   2.215
63719W        W36067  40.938  44.365  13.931
63720W        W36068  35.981  12.143  13.923
63721W        W36069  36.913  37.940  11.382
63722W        W36070  32.993  27.571   1.735
63723W        W36071  25.035   8.336   2.854
63724W        W36072  33.051   4.433  11.395
63725W        W36073  35.866  41.482  13.792
63726W        W36074   1.951  42.465   2.849
63727W        W36075  42.789  24.062   0.804
63728W        W36076  16.650  32.992  14.969
63729W        W36077  18.231   0.459  12.907
63730W        W36078  43.983  16.622   3.794
63731W        W36079  22.589   6.779   2.230
63732W        W36080   4.411  26.548   1.923
63733W        W36081  16.598  10.674  14.989
63734W        W36082  40.393  29.962   1.845
63735W        W36083  35.370  19.673  13.813
63736W        W36084  30.050  13.105   0.729
63737W        W36085  19.081  32.559   9.669
63738W        W36086  32.576  31.121   2.846
63739W        W36087  34.068  14.738   4.803
63740W        W36088  25.183  10.718   4.301
63741W        W36089   6.898  43.298  14.279
63742W        W36090  20.731   3.227  11.965
63743W        W36091   0.417  20.223  11.967
63744W        W36092  41.852  36.381  13.419
63745W        W36093  19.606  31.531   2.273
63746W        W36094  30.154  27.001  12.973
63747W        W36095   1.278   4.930   1.853
63748W        W36096  34.022  29.016   4.142
63749W        W36097   9.182  35.083  10.546
63750W        W36098  22.518  29.150  10.145
63751W        W36099  10.357   8.900   2.678
63752W        W36100  24.688  21.617   2.848
63753W        W36101  26.068  37.377  11.433
63754W        W36102  18.752  43.899  13.345
63755W        W36103  18.289  38.409  10.430
63756W        W36104  20.038   4.260   2.340
63757W        W36105   4.941  18.551   0.727
63758W        W36106  27.507  35.874   4.821
63759W        W36107  38.871  41.464   4.286
63760W        W36108  30.007  24.115   2.900
63761W        W36109  22.023  10.156   5.086
63762W        W36110  43.502   6.831  12.985
63763W        W36111   3.419   3.404   1.294
63764W        W36112   2.869  28.953  14.358
63765W        W36113  21.545  16.722   1.278
63766W        W36114  29.573   7.889  12.362
63767W        W36115  15.754  41.322   2.731
63768W        W36116  10.745  17.242   0.954
63769W        W36117  23.557  22.159   0.323
63770W        W36118  14.778  34.944  12.875
63771W        W36119  23.555   9.833   4.817
63772W        W36120  21.640  25.610   0.771
63773W        W36121  31.926  17.295   4.279
63774W        W36122  28.453   7.677  11.988
63775W        W36123   5.825  34.405  12.427
63776W        W36124  38.517  20.554  10.959
63777W        W36125  40.882   8.756  10.946
63778W        W36126  13.127  30.606   1.317
63779W        W36127  24.508  40.974   2.276
63780W        W36128   8.390  44.851   4.177
63781W        W36129  18.249   4.304  14.811
63782W        W36130   8.807  37.926  10.503
63783W        W36131  19.265  37.544  12.396
63784W        W36132   0.824  18.561   5.141
63785W        W36133   9.758  19.278  14.801
63786W        W36134   9.860  32.971   9.453
63787W        W36135  42.432  20.677   2.787
63788W        W36136  32.114  34.015   3.316
63789W        W36137  41.535  32.117   4.656
63790W        W36138  39.977  27.119   4.660
63791W        W36139  38.031  33.077   1.807
63792W        W36140  11.256  28.593  14.392
63793W        W36141  28.997  25.090  11.861
63794W        W36142  25.480  30.994   3.180
63795W        W36143   0.961  39.063   1.337
63796W        W36144  19.124   7.241  13.328
63797W        W36145   1.347   2.295   0.835
63798W        W36146   9.380  33.578  10.994
63799W        W36147  32.591  22.054  12.510
63800W        W36148  11.664  14.804   2.731
63801W        W36149  42.298  20.176   1.794
63802W        W36150  40.953  38.068  11.031
63803W        W36151  20.731   8.205   0.792
63804W        W36152  39.876  34.516  11.504
63805W        W36153   6.263  20.210   3.866
63806W        W36154   1.789  19.731   2.320
63807W        W36155  39.341  29.142  10.478
63808W        W36156  40.378  31.412   1.317
63809W        W36157  41.875  15.767   0.916
63810W        W36158  18.679  20.047  13.866
63811W        W36159  37.338  23.217  10.641
63812W        W36160  29.940  34.935  11.873
63813W        W36161  20.115   8.321   2.182
63814W        W36162  36.437  28.523  11.984
63815W        W36163  25.185  24.084  14.872
63816W        W36164  32.094  12.224   5.083
63817W        W36165   1.270   9.828   2.749
63818W        W36166  40.804  32.902   4.116
63819W        W36167  16.123  26.627  10.476
63820W        W36168  20.152   1.385   1.850
63821W        W36169  42.937   5.770   3.758
63822W        W36170  31.993   8.249  13.885
63823W        W36171  26.080  31.076   4.784
63824W        W36172  24.000  10.318   5.676
63825W        W36173   2.238   7.735  12.450
63826W        W36174  14.153  13.814  11.022
63827W        W36175  22.690  36.859  11.127
63828W        W36176  41.399  14.270  11.582
63829W        W36177  27.035  24.595  13.817
63830W        W36178   3.244  25.593  12.943
63831W        W36179  23.991  23.587   0.384
63832W        W36180  44.974  26.584  12.493
63833W        W36181  43.925  19.546  11.381
63834W        W36182   9.674  34.530   0.359
63835W        W36183  24.193  17.276  13.476
63836W        W36184  30.519  35.006  10.521
63837W        W36185  30.469  13.726   3.647
63838W        W36186  10.189  30.065   2.284
63839W        W36187   0.806   4.248  13.354
63840W        W36188  19.687  29.556  13.984
63841W        W36189  13.626  42.848  11.433
63842W        W36190  42.418   8.888  14.999
63843W        W36191   2.731  11.366  13.513
63844W        W36192  22.105  40.391   1.221
63845W        W36193  38.931  33.555   5.231
63846W        W36194  25.170  11.633  14.479
63847W        W36195   2.342  29.573   2.763
63848W        W36196   9.352  15.161  12.567
63849W        W36197  33.943  36.350  11.505
63850W        W36198  42.485  11.697  13.059
63851W        W36199  22.635   1.816  14.276
63852W        W36200  37.950  28.588   4.668
63853W        W36201   4.287  15.577   0.327
63854W        W36202   4.737  27.069   4.156
63855W        W36203  13.799  12.353   1.391
63856W        W36204  18.084   2.425   0.898
63857W        W36205   2.431   9.844  14.017
63858W        W36206  35.105  38.866  12.381
63859W        W36207  44.501  22.062   0.824
63860W        W36208  35.859  33.088   0.344
63861W        W36209  15.232   3.282   4.286
63862W        W36210  28.087  10.642   3.155
63863W        W36211  11.632  30.513  14.968
63864W        W36212  18.281  22.055   1.234
63865W        W36213  28.112  17.107  14.297
63866W        W36214  32.000  43.461  14.782
63867W        W36215  43.993  41.292   4.733
63868W        W36216  15.288  32.135  13.905
63869W        W36217  10.677  11.162  12.444
63870W        W36218  22.595  20.256   1.790
63871W        W36219  40.956  39.531   4.827
63872W        W36220  18.734  15.771   1.401
63873W        W36221  36.586  37.448   4.715
63874W        W36222  44.823  20.257  11.603
63875W        W36223  16.276  29.155  10.530
63876W        W36224  28.957  17.606   1.406
63877W        W36225   1.475  31.643   0.319
63878W        W36226  39.403   0.750   4.759
63879W        W36227  40.398  17.115   3.737
63880W        W36228  30.579   4.225  11.913
63881W        W36229  10.272  27.174   2.791
63882W        W36230  37.014  19.213  13.445
63883W        W36231   1.243  33.467  11.959
63884W        W36232  12.611  13.686  14.955
63885W        W36233  29.628  23.027   3.661
63886W        W36234  21.138  22.534   4.128
63887W        W36235  43.837  42.883  10.407
63888W        W36236   1.363  20.631   1.838
63889W        W36237  25.614   2.249   4.835
63890W        W36238  40.908  23.599   4.760
63891W        W36239  15.084  25.072   0.818
63892W        W36240   4.339  42.937   5.194
63893W        W36241   0.375   9.320  13.376
63894W        W36242  39.447  25.566  13.502
63895W        W36243  22.161  10.235   4.140
63896W        W36244   9.347  38.821  13.355
63897W        W36245  38.502  10.281   1.890
63898W        W36246  16.157   0.256   1.782
63899W        W36247  34.555  42.780  10.938
63900W        W36248  14.220  40.968   3.692
63901W        W36249  16.779  22.231   4.194
63902W        W36250  37.986  26.646  13.528
63903W        W36251   4.731  38.888   4.174
63904W        W36252  35.475  10.822  11.995
63905W        W36253   0.832   5.265  11.979
63906W        W36254   1.948  29.946  10.450
63907W        W36255  14.175   3.936  12.477
63908W        W36256  41.341  43.420   2.381
63909W        W36257  18.747   1.780   5.310
63910W        W36258  25.640  24.150  11.416
63911W        W36259  16.670  43.392  10.998
63912W        W36260  23.041  44.260  14.386
63913W        W36261  40.990   0.908  12.407
63914W        W36262  20.650  27.959   2.838
63915W        W36263  18.114  14.141   0.780
63916W        W36264  37.086  43.796  13.487
63917W        W36265  28.678  23.074   0.432
63918W        W36266  28.187  27.647  11.382
63919W        W36267   0.428  18.192  13.043
63920W        W36268  13.601  37.837   4.290
63921W        W36269  32.551  28.653  11.487
63922W        W36270  19.604  32.573   2.254
63923W        W36271  18.285  38.505  13.006
63924W        W36272  39.034  41.829  10.567
63925W        W36273  43.882  33.108  14.485
63926W        W36274  38.407   5.695   4.125
63927W        W36275  33.471  12.126   3.327
63928W        W36276  26.588  27.668  13.058
63929W        W36277  37.352  13.810   1.723
63930W        W36278  42.903   9.191  11.417
63931W        W36279  26.470  43.496   0.771
63932W        W36280   9.171  20.089  14.484
63933W        W36281  35.493  14.268  11.376
63934W        W36282  32.550  20.117   2.787
63935W        W36283  19.632  39.386   2.772
63936W        W36284  35.417  27.503   1.437
63937W        W36285   8.737  29.494  13.956
63938W        W36286  26.085  39.953  10.573
63939W        W36287  43.322  20.136  14.841
63940W        W36288  30.572  40.429  11.426
63941W        W36289  35.002  40.022   1.774
63942W        W36290  27.941  22.995  14.910
63943W        W36291  24.176  33.114  11.913
63944W        W36292  37.009   9.232   4.821
63945W        W36293   0.300  14.756  10.433
63946W        W36294  43.835  25.963  14.470
63947W        W36295  44.869  28.115  10.419
63948W        W36296  19.056  43.785  11.892
63949W        W36297  10.685  24.163   1.389
63950W        W36298  29.095  33.459   1.927
63951W        W36299  24.975  28.177  11.047
63952W        W36300   6.299  42.439   4.147
63953W        W36301  30.068  17.643   0.295
63954W        W36302   9.663  34.375  13.837
63955W        W36303  16.647  20.165   0.393
63956W        W36304  31.524   7.771  12.069
63957W        W36305  14.259  22.138  11.544
63958W        W36306  11.252  40.990  11.582
63959W        W36307  35.888   3.739   3.252
63960W        W36308   0.283  23.037   0.369
63961W        W36309   2.920  22.734  10.477
63962W        W36310  13.107  12.337   4.621
63963W        W36311  17.115  37.835  14.458
63964W        W36312  30.461  17.099   3.314
63965W        W36313  44.008  32.635  12.937
63966W        W36314  20.154  23.627  13.503
63967W        W36315  12.315  11.713  12.834
63968W        W36316  15.277  11.709  10.480
63969W        W36317  31.527   4.412  14.412
63970W        W36318  20.226  42.490   3.820
63971W        W36319  18.776   5.221   3.351
63972W        W36320  18.753  41.454  10.420
63973W        W36321  16.606  41.991   3.653
63974W        W36322  26.120  14.132   3.711
63975W        W36323  28.120  34.099  11.877
63976W        W36324  43.940   3.332  11.522
63977W        W36325  16.111  40.466  11.108
63978W        W36326  21.062  15.143  13.014
63979W        W36327  34.059  16.623  14.015
63980W        W36328  22.660  24.675  10.572
63981W        W36329  30.422  30.419   0.249
63982W        W36330  11.271  20.134  13.472
63983W        W36331  10.878  31.050  13.817
63984W        W36332  27.118  39.876   3.199
63985W        W36333  37.352  24.074   4.127
63986W        W36334  24.536  12.616  11.997
63987W        W36335  24.170  43.882   2.730
63988W        W36336  21.568  34.572   2.896
63989W        W36337  16.282  39.557   0.892
63990W        W36338   0.877   5.846  11.476
63991W        W36339  38.027  17.260   0.782
63992W        W36340  40.954  37.379   4.192
63993W        W36341  19.617  30.544   3.753
63994W        W36342  19.073  38.961  12.507
63995W        W36343  43.943  33.513  10.505
63996W        W36344  37.074  27.940   2.723
63997W        W36345  19.196  38.048  13.473
63998W        W36346  30.457  15.189  10.587
63999W        W36347  33.894   0.946  12.910
64000W        W36348   5.203  12.157   1.772
64001W        W36349   9.349  40.014   3.344
64002W        W36350  42.926  28.521   0.402
64003W        W36351  37.438  30.504  14.919
64004W        W36352  33.917  31.619  13.357
64005W        W36353  14.638  20.199   4.603
64006W        W36354  36.500  24.049   3.737
64007W        W36355   1.965  39.045  12.442
64008W        W36356  23.523   9.691   5.635
64009W        W36357  33.451  31.044   0.860
64010W        W36358  35.409  27.632   4.646
64011W        W36359  32.605  33.422   2.837
64012W        W36360  33.875  17.575  14.284
64013W        W36361  13.800  40.323  12.021
64014W        W36362  38.479  40.804   3.149
64015W        W36363  35.980  34.042  13.413
64016W        W36364  31.931   4.403  12.541
64017W        W36365  23.648   3.752   4.133
64018W        W36366   0.799  40.370   5.221
64019W        W36367  42.022   5.220  14.837
64020W        W36368  18.226  29.153  11.938
64021W        W36369  39.366  31.616   1.736
64022W        W36370  43.902  23.535   1.444
64023W        W36371  35.459  13.737   2.328
64024W        W36372   0.811   0.480  13.971
64025W        W36373  11.689  44.892   1.360
64026W        W36374  23.513  14.688  12.553
64027W        W36375   3.883  32.414   2.399
64028W        W36376  12.122   9.278   2.824
64029W        W36377  29.653  10.767  12.982
64030W        W36378  30.964  10.298   3.312
64031W        W36379  34.452  43.908  10.437
64032W        W36380  35.067  17.093  13.043
64033W        W36381   8.282  14.725   0.814
64034W        W36382   7.291   5.707  14.007
64035W        W36383  20.712  17.661  13.999
64036W        W36384   8.842   9.694   4.250
64037W        W36385   0.954   0.927  11.029
64038W        W36386  24.675  37.429   5.198
64039W        W36387  22.643  17.639  14.502
64040W        W36388   1.252  13.682  13.827
64041W        W36389  27.197  31.536  12.489
64042W        W36390  13.320  18.636   3.639
64043W        W36391  27.657  39.466   0.899
64044W        W36392   5.855  15.818   4.750
64045W        W36393  23.061  19.267   0.340
64046W        W36394   3.812  39.015  11.908
64047W        W36395  31.423  42.448   2.287
64048W        W36396  34.414  22.058   1.410
64049W        W36397  13.336  19.051   1.328
64050W        W36398  30.488  37.064  13.890
64051W        W36399  37.337  36.872   0.322
64052W        W36400  29.073   4.812   0.966
64053W        W36401  29.484  42.792  13.887
64054W        W36402  37.361  34.056   1.696
64055W        W36403  44.784  34.510  13.524
64056W        W36404  25.617  35.421  10.972
64057W        W36405  38.419  35.008  13.982
64058W        W36406  30.534  44.921   3.747
64059W        W36407   6.834  14.786   3.695
64060W        W36408  32.938  11.649  12.344
64061W        W36409   7.321  37.372  11.932
64062W        W36410  16.289  31.917  12.538
64063W        W36411  43.346  23.592  12.465
64064W        W36412  35.468  38.016   3.210
64065W        W36413   5.917   1.967  11.532
64066W        W36414  35.431   0.847   3.857
64067W        W36415  17.779  29.582  14.436
64068W        W36416   9.692   5.200   9.615
64069W        W36417  10.336  34.396  11.512
64070W        W36418  44.354   8.806   3.730
64071W        W36419  41.975  10.877  12.517
64072W        W36420  44.906   3.238  10.579
64073W        W36421  29.934  27.625  10.563
64074W        W36422  28.095  44.990  11.598
64075W        W36423   0.377  24.063  10.543
64076W        W36424  41.843  18.231   4.731
64077W        W36425  32.013  22.084   3.237
64078W        W36426  14.705  13.155   5.293
64079W        W36427  19.232  19.197   2.216
64080W        W36428  37.985   3.715   4.803
64081W        W36429  22.651  17.557  12.429
64082W        W36430  16.240   0.931  14.943
64083W        W36431  32.917  33.983  10.515
64084W        W36432  21.097  31.515   3.337
64085W        W36433  20.274  32.564  11.598
64086W        W36434   3.373  21.576   1.439
64087W        W36435  37.962  12.794  14.384
64088W        W36436  42.282  10.330   0.952
64089W        W36437  30.022   7.193  11.373
64090W        W36438  10.853   7.747   3.298
64091W        W36439  40.927   1.774  12.959
64092W        W36440  36.429   0.397   4.145
64093W        W36441  41.837  27.554  12.431
64094W        W36442  20.072  36.851   4.805
64095W        W36443  34.521  27.090   3.224
64096W        W36444  30.550  12.670   2.340
64097W        W36445  39.537  23.037   4.663
64098W        W36446  36.943  15.117  12.412
64099W        W36447  29.021  26.564  14.377
64100W        W36448  25.219  43.513  11.405
64101W        W36449   1.239  41.503   1.379
64102W        W36450  28.129  34.002   2.704
64103W        W36451  39.319   9.182   1.404
64104W        W36452  15.205  26.541  10.157
64105W        W36453  27.447  17.735   2.880
64106W        W36454   3.282  13.258  14.970
64107W        W36455  19.219   5.900  11.090
64108W        W36456  16.697  42.914  10.597
64109W        W36457  10.679   5.342  10.987
64110W        W36458   8.829   5.352  14.366
64111W        W36459  35.551  26.112   0.370
64112W        W36460  24.670  41.402   3.655
64113W        W36461  20.599  19.250  14.430
64114W        W36462   9.150  13.642   1.360
64115W        W36463  21.065   6.220   4.798
64116W        W36464  21.179  24.223   1.700
64117W        W36465  42.827  27.014   1.446
64118W        W36466  12.328  24.577  11.060
64119W        W36467  35.099  11.816   0.783
64120W        W36468  33.100  13.267  13.492
64121W        W36469   8.390   9.273  11.962
64122W        W36470  34.106  30.445  10.408
64123W        W36471  39.552  34.967   1.260
64124W        W36472  25.978  37.503  13.337
64125W        W36473   8.360  27.464   4.789
64126W        W36474   5.387  31.568   3.819
64127W        W36475  12.140  15.139  12.378
64128W        W36476  34.399   4.787  12.880
64129W        W36477   6.698   4.209  14.325
64130W        W36478  39.954  34.611   3.790
64131W        W36479   5.728  34.382   4.228
64132W        W36480   5.314  35.903  14.932
64133W        W36481   4.409  35.603   1.802
64134W        W36482  33.061  26.485  14.857
64135W        W36483  14.614  12.707  14.970
64136W        W36484  15.621  42.431  11.491
64137W        W36485   3.867  19.217  12.886
64138W        W36486  34.416  12.611  10.486
64139W        W36487  44.300  24.050   5.229
64140W        W36488   3.846  42.444   3.163
64141W        W36489   1.781  16.196  13.021
64142W        W36490  40.333  22.230   2.769
64143W        W36491  24.134  22.610   1.786
64144W        W36492  29.118  14.690  14.910
64145W        W36493  27.555  10.634   1.272
64146W        W36494   4.314   9.186   1.408
64147W        W36495   9.779  11.708   0.398
64148W        W36496  11.287  26.053  12.577
64149W        W36497  41.983  10.820  13.455
64150W        W36498  40.539   6.892  13.872
64151W        W36499  23.673  44.266   3.800
64152W        W36500   7.778   7.883   3.707
64153W        W36501  39.435   5.835  13.412
64154W        W36502   1.354  11.822   2.354
64155W        W36503   0.395  18.241   1.864
64156W        W36504   2.872  38.993   4.681
64157W        W36505  29.038   6.819  12.945
64158W        W36506  29.530  38.842   0.445
64159W        W36507  32.457  27.487   4.659
64160W        W36508  38.336  31.095   2.690
64161W        W36509  20.565  31.586   9.624
64162W        W36510  25.068   5.934  13.495
64163W        W36511  42.403  33.548   0.908
64164W        W36512  43.357  18.248  14.383
64165W        W36513   1.416  33.928   1.350
64166W        W36514  23.521   5.395  11.877
64167W        W36515  11.860  17.189   5.141
64168W        W36516  16.073  17.096   0.949
64169W        W36517  11.800  28.513   0.280
64170W        W36518  44.824  11.848   2.261
64171W        W36519  16.073  14.729  11.436
64172W        W36520   8.849  35.086  11.107
64173W        W36521  18.554  32.021   4.602
64174W        W36522  42.886  33.590   5.229
64175W        W36523  28.543   8.356   1.375
64176W        W36524  22.627  12.741   1.848
64177W        W36525   3.925  27.559   1.765
64178W        W36526   3.748  24.489   2.199
64179W        W36527   9.738  40.536  11.438
64180W        W36528  34.896  28.615   3.748
64181W        W36529  12.846  17.179   4.632
64182W        W36530  43.892  43.424   4.819
64183W        W36531   5.250  24.995   3.164
64184W        W36532  24.666  20.042   4.221
64185W        W36533  24.045  30.959  10.896
64186W        W36534  37.387  14.250  14.472
64187W        W36535   2.959  11.741  13.003
64188W        W36536  22.501  29.495  13.899
64189W        W36537  18.559  33.072  12.410
64190W        W36538  13.278   5.928   0.420
64191W        W36539  25.995  16.264   4.262
64192W        W36540  35.867   8.729  14.318
64193W        W36541   8.683  24.506   3.804
64194W        W36542  23.566  20.612  12.033
64195W        W36543   8.358  39.484   2.687
64196W        W36544  27.972  11.632   0.880
64197W        W36545  34.432  44.981  10.895
64198W        W36546   6.271  41.015   1.429
64199W        W36547   4.422   6.380   4.353
64200W        W36548  36.454   0.759   4.803
64201W        W36549  41.348   2.722   1.716
64202W        W36550   0.873  31.153  11.555
64203W        W36551   6.764   2.265   1.748
64204W        W36552   1.243  31.113  12.063
64205W        W36553   8.835  16.649   2.822
64206W        W36554  41.532   0.846   2.882
64207W        W36555  16.623  12.323   0.772
64208W        W36556  34.917  39.019   4.774
64209W        W36557  28.176   7.311   2.784
64210W        W36558  15.750  40.850   3.212
64211W        W36559  44.008  14.733   0.315
64212W        W36560  39.019  25.614   9.970
64213W        W36561   9.193  40.432  10.908
64214W        W36562   7.246  33.449   0.835
64215W        W36563  39.556   4.285  10.452
64216W        W36564  18.233   8.850  13.980
64217W        W36565   6.183   2.899  13.004
64218W        W36566  16.298  35.865   1.214
64219W        W36567   4.236  33.968  11.870
64220W        W36568  39.371  16.757  14.508
64221W        W36569  15.784  37.371  13.018
64222W        W36570  42.013  38.533   4.827
64223W        W36571  21.103   1.794   4.198
64224W        W36572  30.434  28.585   0.817
64225W        W36573  37.987   6.801   0.802
64226W        W36574  35.551   1.952   3.652
64227W        W36575  16.652  38.045  11.006
64228W        W36576  29.175  37.050  11.027
64229W        W36577  22.561   3.903  13.883
64230W        W36578  13.824  16.764   4.239
64231W        W36579  22.142   9.764  12.424
64232W        W36580  15.327  40.831   0.407
64233W        W36581  30.486  15.758  14.278
64234W        W36582  41.041  41.826   3.353
64235W        W36583  36.096   4.840   0.889
64236W        W36584  10.773  20.051  10.506
64237W        W36585  19.094  13.134   0.815
64238W        W36586  22.123  42.468   4.315
64239W        W36587  17.578  39.863  11.056
64240W        W36588  20.653   4.845  11.488
64241W        W36589  44.422   4.896   0.960
64242W        W36590  43.020  11.156  10.935
64243W        W36591  44.931  17.790  14.348
64244W        W36592   6.204   1.363   1.725
64245W        W36593  15.790  20.531   2.812
64246W        W36594  29.128   2.303   3.814
64247W        W36595  23.499  15.110  13.878
64248W        W36596  43.504  42.289   3.744
64249W        W36597  22.577  44.315   9.991
64250W        W36598  13.216   1.767  10.609
64251W        W36599   0.457  28.525  13.488
64252W        W36600  27.977   7.806  12.052
64253W        W36601   5.294  28.020  10.561
64254W        W36602  31.422  41.033  13.868
64255W        W36603  35.426   3.894   4.129
64256W        W36604   8.678   3.444  10.012
64257W        W36605   4.802  14.231  11.517
64258W        W36606  31.516  28.035  12.094
64259W        W36607  26.697  36.891   4.148
64260W        W36608   2.257  18.758   3.385
64261W        W36609  35.455   2.838   2.329
64262W        W36610  17.109  29.435   3.859
64263W        W36611  22.677   4.284   3.370
64264W        W36612  18.727   0.341   4.641
64265W        W36613  18.197  22.621  10.993
64266W        W36614  12.242  10.358   4.223
64267W        W36615  35.409  19.687   3.630
64268W        W36616  15.738   6.227   0.424
64269W        W36617  12.725  21.565  11.057
64270W        W36618  30.430  35.082   4.715
64271W        W36619  31.513  31.504   2.323
64272W        W36620  15.618  10.874  14.933
64273W        W36621   4.827   2.267  10.921
64274W        W36622  24.203  43.413  11.113
64275W        W36623  22.132   4.846  11.057
64276W        W36624  12.174  28.666  11.373
64277W        W36625   3.899  16.139  13.343
64278W        W36626  30.159  36.533   2.189
64279W        W36627   0.865  21.561  10.575
64280W        W36628   7.286  44.981   2.900
64281W        W36629  36.948  37.970   2.828
64282W        W36630  42.312   0.763   4.632
64283W        W36631  12.693  30.108   1.310
64284W        W36632  31.102   1.954   0.873
64285W        W36633  31.940  16.749   2.216
64286W        W36634  22.223  40.368  10.603
64287W        W36635   0.894  33.968  12.894
64288W        W36636  41.931  38.960   5.260
64289W        W36637  13.114   9.674  14.764
64290W        W36638   3.861  40.455   4.320
64291W        W36639  30.946   2.422   2.354
64292W        W36640  12.175  35.063  13.380
64293W        W36641  24.698   5.828  11.555
64294W        W36642  44.773   3.360  12.046
64295W        W36643  15.212  22.178  13.058
64296W        W36644  18.285   9.260   3.851
64297W        W36645  34.542  16.612  10.931
64298W        W36646  33.452  32.088  12.526
64299W        W36647  31.534  43.375   3.781
64300W        W36648  22.505  30.652  11.385
64301W        W36649  19.608  17.150   0.906
64302W        W36650  32.958   0.257   4.603
64303W        W36651  13.134  10.751   0.379
64304W        W36652   6.901  43.469   4.349
64305W        W36653   8.700   8.855  10.445
64306W        W36654  29.054  43.459   2.372
64307W        W36655   4.764   4.897   5.321
64308W        W36656  11.366  35.429   3.706
64309W        W36657  15.134  39.934  14.306
64310W        W36658  40.966  32.410   0.309
64311W        W36659  24.048   8.356  10.636
64312W        W36660  17.203  38.363  10.524
64313W        W36661  34.965  25.640  11.419
64314W        W36662  17.621   2.755   3.675
64315W        W36663  44.435  11.657   3.261
64316W        W36664  20.273   3.848  14.515
64317W        W36665   0.477  16.755  13.480
64318W        W36666  25.976  31.991   1.734
64319W        W36667  28.515  32.460  11.929
64320W        W36668  15.789  14.221  11.428
64321W        W36669  32.517  11.346   3.852
64322W        W36670  26.543  14.253   1.711
64323W        W36671   1.260   0.300  11.039
64324W        W36672  30.524   8.690   3.705
64325W        W36673  38.895  29.148   1.896
64326W        W36674  18.160  30.535   1.739
64327W        W36675  31.464   7.294   0.912
64328W        W36676  42.787  33.036  12.936
64329W        W36677   4.381   0.905  10.545
64330W        W36678  19.170  28.607  14.820
64331W        W36679  23.058   0.275  14.763
64332W        W36680  38.936  23.993   3.643
64333W        W36681  15.293  14.750  12.433
64334W        W36682  11.371  36.966   4.118
64335W        W36683  20.061  33.568  14.865
64336W        W36684  34.966  25.541   4.635
64337W        W36685  27.597  32.993   2.221
64338W        W36686   8.252  20.717  10.516
64339W        W36687  44.914  20.078  13.534
64340W        W36688  19.633  35.856  13.326
64341W        W36689  15.147  12.713   1.428
64342W        W36690  24.670  40.463  13.364
64343W        W36691  25.105  42.960  13.406
64344W        W36692  18.279  42.394   2.210
64345W        W36693   5.400  32.082   3.188
64346W        W36694   4.889  36.951  10.941
64347W        W36695  24.688  14.782   3.784
64348W        W36696   9.865  27.098   0.794
64349W        W36697  37.367  15.178  14.990
64350W        W36698  28.008  14.152  12.010
64351W        W36699   2.813  19.628   1.364
64352W        W36700  40.961  16.291   3.789
64353W        W36701  36.436  13.239   0.734
64354W        W36702  29.019  38.470   1.439
64355W        W36703   7.746  11.371   0.447
64356W        W36704   5.859  39.834   1.695
64357W        W36705   6.404  29.155  14.009
64358W        W36706  37.436  11.662  12.971
64359W        W36707   1.824  29.038  11.378
64360W        W36708  31.153  29.092  12.947
64361W        W36709  13.294  19.216   2.266
64362W        W36710  27.571  42.446   3.823
64363W        W36711   2.922  43.969   2.900
64364W        W36712  38.475   1.774   0.381
64365W        W36713  33.573   5.907   2.211
64366W        W36714  11.345  11.293   4.246
64367W        W36715  25.060  27.078   0.482
64368W        W36716  27.639  33.590  10.499
64369W        W36717  34.051  39.028   0.885
64370W        W36718  28.994  36.910   0.877
64371W        W36719   2.460  39.460  10.416
64372W        W36720  10.699  32.957  13.347
64373W        W36721  20.048  34.600   0.787
64374W        W36722  24.697  29.031  11.011
64375W        W36723  16.608  12.813  12.081
64376W        W36724   6.821   6.238  14.437
64377W        W36725  15.667  34.515  12.464
64378W        W36726   2.472  29.515   0.840
64379W        W36727  26.597   0.392   9.975
64380W        W36728   1.477   6.194   2.722
64381W        W36729  32.535  43.283   1.370
64382W        W36730   9.761  28.021   0.921
64383W        W36731  42.838  21.750   2.368
64384W        W36732   5.842  38.526   3.796
64385W        W36733   0.936  37.375   2.202
64386W        W36734   2.322  39.443  14.955
64387W        W36735  16.797  20.160   4.834
64388W        W36736  12.626  44.792  10.945
64389W        W36737  38.046  31.965   3.320
64390W        W36738   0.932  25.558   1.813
64391W        W36739   7.335  37.991  11.385
64392W        W36740  21.099  30.088   2.893
64393W        W36741  15.618  23.673  10.403
64394W        W36742  24.496  23.065   4.778
64395W        W36743  41.461  40.898   3.299
64396W        W36744  15.789  32.924  13.794
64397W        W36745  13.723  39.909   3.338
64398W        W36746  14.811  41.922  11.918
64399W        W36747  23.986  43.941  10.616
64400W        W36748   9.810  22.626   3.756
64401W        W36749  21.070  21.639  10.630
64402W        W36750   2.418  12.704   1.303
64403W        W36751   0.945  11.759  10.972
64404W        W36752  17.118  44.267   0.464
64405W        W36753  13.780   3.731  11.476
64406W        W36754   0.932  20.715   0.270
64407W        W36755   2.751  32.552  13.513
64408W        W36756   2.376  16.714   2.333
64409W        W36757   2.858  23.188  12.922
64410W        W36758  36.064  24.713   4.331
64411W        W36759  41.430  28.970  13.388
64412W        W36760  27.940   0.974  10.903
64413W        W36761  11.214  42.364   3.309
64414W        W36762   4.322   2.791  11.555
64415W        W36763  22.501   9.781   5.133
64416W        W36764  23.028  19.280   1.734
64417W        W36765   5.361   0.464   4.239
64418W        W36766   7.859  34.077  10.603
64419W        W36767  18.193   0.954   4.246
64420W        W36768  15.649  41.984  14.914
64421W        W36769  27.461   8.774  11.595
64422W        W36770  27.028  27.495   1.841
64423W        W36771  18.087  18.589   2.862
64424W        W36772  35.915   0.951   5.297
64425W        W36773   4.312   7.871  10.539
64426W        W36774  14.596  20.727  11.935
64427W        W36775  26.145  22.677   4.200
64428W        W36776  17.676  22.523  12.868
64429W        W36777  34.379  23.105  11.896
64430W        W36778  14.797  22.060  11.531
64431W        W36779  20.231  18.059   2.366
64432W        W36780  12.121   2.409  11.416
64433W        W36781  39.847  42.997  12.059
64434W        W36782  18.694  34.615  10.406
64435W        W36783   6.363  10.206   0.903
64436W        W36784  39.433  20.137   1.885
64437W        W36785  29.994   5.749  14.994
64438W        W36786  24.046  21.247  10.418
64439W        W36787   3.357  39.018  12.492
64440W        W36788   3.314   3.891  14.479
64441W        W36789  35.029   0.902   4.619
64442W        W36790  42.798  25.705  13.536
64443W        W36791  43.477  44.292   2.798
64444W        W36792  43.497   2.464  12.505
64445W        W36793  42.425  17.176   3.346
64446W        W36794   1.921  10.745  14.928
64447W        W36795  44.379  27.154   0.451
64448W        W36796  26.527   6.411   4.353
64449W        W36797  33.988  23.697   3.715
64450W        W36798  30.654  15.097  11.592
64451W        W36799  30.438  21.674   1.865
64452W        W36800  15.139  33.552  12.526
64453W        W36801  37.339  11.844   3.204
64454W        W36802  13.671  43.996   2.298
64455W        W36803   0.376  20.571   3.149
64456W        W36804  28.435  41.965  14.496
64457W        W36805   9.383   5.709  13.913
64458W        W36806  11.231  20.082   4.349
64459W        W36807  41.353  16.111   3.256
64460W        W36808  36.942  26.518  14.463
64461W        W36809  18.557  25.021   4.156
64462W        W36810  34.391   3.752   0.340
64463W        W36811  30.108  17.673   3.246
64464W        W36812   0.492   6.887   3.700
64465W        W36813   2.459  35.586   3.307
64466W        W36814   1.442  11.276  13.509
64467W        W36815  39.403   6.837  12.379
64468W        W36816  34.941  22.077   3.768
64469W        W36817  44.956   0.893  11.519
64470W        W36818  23.653  22.701   4.126
64471W        W36819  42.781  14.098   1.865
64472W        W36820  35.067   4.709   2.763
64473W        W36821  11.853  17.233   4.662
64474W        W36822   6.745  44.402  12.497
64475W        W36823  42.029  21.591   0.279
64476W        W36824  16.765  41.940   4.669
64477W        W36825  27.507  16.173  12.860
64478W        W36826  26.558   0.484  12.034
64479W        W36827  24.011  41.996  13.895
64480W        W36828  11.695  18.637   3.721
64481W        W36829  27.644   1.951   2.807
64482W        W36830  13.693  33.894   0.840
64483W        W36831  38.439  35.942  13.929
64484W        W36832   1.392   9.657  12.925
64485W        W36833   2.286   9.292   0.732
64486W        W36834  37.338   6.272  12.340
64487W        W36835  14.134   7.279  13.524
64488W        W36836  39.559  35.879  13.404
64489W        W36837  37.337   5.745   1.843
64490W        W36838  15.790  33.942  11.438
64491W        W36839  26.018  22.598  12.855
64492W        W36840  26.590  25.019  12.932
64493W        W36841  40.979  44.392   3.710
64494W        W36842   1.244  21.699  13.513
64495W        W36843  17.573  43.987  11.882
64496W        W36844  31.094  15.173   4.127
64497W        W36845  12.206  37.856  12.890
64498W        W36846   5.215  13.602   4.805
64499W        W36847  44.792  25.592  11.092
64500W        W36848  39.016  28.974   2.764
64501W        W36849   0.754  29.493  10.158
64502W        W36850  38.926   1.745  14.784
64503W        W36851  21.709   7.206  11.571
64504W        W36852  12.291  15.805  12.382
64505W        W36853  17.606  34.108   2.860
64506W        W36854  10.333  42.519   1.901
64507W        W36855   3.842  22.571   3.332
64508W        W36856  23.102  18.659  10.971
64509W        W36857   3.712  27.029  14.294
64510W        W36858   5.814   9.784  10.507
64511W        W36859  37.969  12.280  12.051
64512W        W36860  35.025  17.619   4.184
64513W        W36861  29.017  18.280  12.561
64514W        W36862   5.281  14.724  14.388
64515W        W36863  32.909  17.134  12.347
64516W        W36864  33.965  15.771  12.945
64517W        W36865  35.967  34.879  10.580
64518W        W36866  27.555   2.391  13.360
64519W        W36867  37.833  26.663   2.363
64520W        W36868  27.990   5.305   3.857
64521W        W36869  39.377   5.712  11.932
64522W        W36870  15.168  23.642   2.781
64523W        W36871  10.672  32.974  12.568
64524W        W36872  10.192   8.760   3.700
64525W        W36873  13.347  40.988  13.937
64526W        W36874  21.035  41.363  11.952
64527W        W36875  36.553   3.273   2.282
64528W        W36876  42.378  44.484   0.472
64529W        W36877  38.429  43.000  10.981
64530W        W36878  35.543  40.829   4.146
64531W        W36879  17.158   3.951  11.880
64532W        W36880  31.626  30.522  12.859
64533W        W36881  26.619  20.579   4.315
64534W        W36882  27.531  37.065  11.949
64535W        W36883  36.013  28.110   3.259
64536W        W36884  28.654   9.260   4.206
64537W        W36885  36.849  30.524  14.958
64538W        W36886  24.130  27.606   0.853
64539W        W36887  33.468  31.056  13.315
64540W        W36888  20.719   0.932   2.262
64541W        W36889  22.015  41.959   1.436
64542W        W36890   1.418  34.032   4.598
64543W        W36891  31.066  27.080   0.333
64544W        W36892  39.032  30.974  11.012
64545W        W36893   3.344  15.248   3.859
64546W        W36894  32.530  44.925  14.494
64547W        W36895  18.772  12.332   0.426
64548W        W36896   7.771  28.610   1.418
64549W        W36897   0.744   4.822  10.595
64550W        W36898   0.864  38.492   1.912
64551W        W36899  32.616   3.404   3.285
64552W        W36900  19.720  38.437  11.428
64553W        W36901  19.757   9.869   3.345
64554W        W36902  30.995  16.087  12.472
64555W        W36903  10.269  14.212  13.050
64556W        W36904  19.042  15.633   4.761
64557W        W36905  41.377   7.326   3.184
64558W        W36906  23.111  37.371   3.184
64559W        W36907  23.193  12.120  11.510
64560W        W36908  44.279   2.364   0.383
64561W        W36909  16.296  24.675   2.272
64562W        W36910  43.340   0.272   1.358
64563W        W36911  40.991  39.063   0.395
64564W        W36912  33.875   7.825  12.545
64565W        W36913   6.208  33.963   0.948
64566W        W36914  44.932  11.281   0.947
64567W        W36915  11.634  42.833   0.761
64568W        W36916  26.098  19.694   3.701
64569W        W36917  11.189  36.932  11.109
64570W        W36918  26.662  42.442   3.295
64571W        W36919   7.849  35.542  11.000
64572W        W36920  18.118  30.057   0.448
64573W        W36921  31.013  12.292   4.598
64574W        W36922   2.766  29.078   1.697
64575W        W36923  30.446  20.170  12.561
64576W        W36924  27.155  18.177   4.145
64577W        W36925  14.728  44.867  11.099
64578W        W36926   8.785  25.183  10.628
64579W        W36927  32.128  19.144  11.485
64580W        W36928  39.327  18.222   0.302
64581W        W36929  16.182  38.869  14.942
64582W        W36930  18.770  43.983   1.863
64583W        W36931  26.503  19.580  11.584
64584W        W36932  40.869   9.777   1.914
64585W        W36933  12.158  24.135  14.005
64586W        W36934  27.998  28.630  12.080
64587W        W36935  33.109  19.122   4.764
64588W        W36936  22.725  17.628   1.419
64589W        W36937  38.431  40.962  13.475
64590W        W36938  28.666  41.424  11.868
64591W        W36939  18.706  12.660  10.421
64592W        W36940   4.285  23.691   2.354
64593W        W36941  30.482   6.790  12.491
64594W        W36942  11.664   7.272   0.439
64595W        W36943  31.630  16.764  12.993
64596W        W36944  17.794  37.521  13.871
64597W        W36945   2.353  22.555   4.663
64598W        W36946  19.087  35.978  14.487
64599W        W36947  35.400  10.847   4.166
64600W        W36948  15.644  40.316  10.580
64601W        W36949  38.014  32.006   3.802
64602W        W36950   5.385  24.191   2.800
64603W        W36951  18.666  31.968  12.059
64604W        W36952  43.997  27.040   0.400
64605W        W36953  24.164  25.709   4.689
64606W        W36954  10.675   8.323   0.387
64607W        W36955   8.253   8.286   2.782
64608W        W36956  10.172  44.883  10.501
64609W        W36957  22.546  30.586  10.025
64610W        W36958  10.207  34.999   0.819
64611W        W36959   4.208  21.620  12.866
64612W        W36960  28.949   9.389  13.791
64613W        W36961  11.141  22.137  13.913
64614W        W36962  33.568  30.604  13.475
64615W        W36963  14.169  32.021   1.791
64616W        W36964   8.711   0.946   3.233
64617W        W36965  19.087  34.020  10.530
64618W        W36966  27.137  23.707   3.785
64619W        W36967  38.499  12.282   3.214
64620W        W36968   3.818  21.061   3.731
64621W        W36969  19.723   4.858   4.306
64622W        W36970   2.452  42.459   0.383
64623W        W36971  26.552  15.626  11.062
64624W        W36972   6.398  28.669  11.435
64625W        W36973  33.018   9.311  13.917
64626W        W36974  27.192  38.554  14.334
64627W        W36975  22.073  18.738  13.474
64628W        W36976  14.168  23.129  12.377
64629W        W36977  14.218  14.621  13.536
64630W        W36978  20.040  17.247   2.719
64631W        W36979   3.818  10.827  14.398
64632W        W36980   1.743   6.184  13.958
64633W        W36981  37.578   5.368  13.458
64634W        W36982  14.664   3.730  11.482
64635W        W36983  29.567  16.759   1.741
64636W        W36984  21.120  17.184   3.191
64637W        W36985  30.079  14.601  14.354
64638W        W36986  18.122  25.205  13.898
64639W        W36987   2.267  11.697   1.914
64640W        W36988  40.801   2.877   3.225
64641W        W36989  22.567  17.686   0.447
64642W        W36990   0.281  39.460  12.358
64643W        W36991  41.011  10.783  13.044
64644W        W36992  32.049  15.757   1.893
64645W        W36993  18.204  38.025   4.141
64646W        W36994  31.144   3.352   2.902
64647W        W36995   9.260   0.794   1.408
64648W        W36996  40.025  15.620  12.495
64649W        W36997  34.399  11.779   2.664
64650W        W36998   6.919   9.817  14.996
64651W        W36999  43.367  24.217  14.892
64652W        W37000  29.072  44.759  14.868
64653W        W37001  30.637  16.649   2.798
64654W        W37002  16.577  20.717   4.120
64655W        W37003  29.061  40.802   1.267
64656W        W37004  35.970  44.495   1.894
64657W        W37005  37.409   2.331   4.636
64658W        W37006  22.242  31.066   2.676
64659W        W37007  18.161  18.051   1.382
64660W        W37008  10.293   9.333  11.531
64661W        W37009  40.822   1.922   2.870
64662W        W37010  17.764  42.397  11.531
64663W        W37011  35.424   9.328  13.895
64664W        W37012  33.894  24.583   4.716
64665W        W37013  13.160  17.295   3.366
64666W        W37014   0.401  11.217   1.263
64667W        W37015  39.065  34.400  12.003
64668W        W37016  36.593   1.888   0.406
64669W        W37017  15.318  26.173  12.957
64670W        W37018  16.180  44.755  12.542
64671W        W37019  22.539   5.721   2.357
64672W        W37020  34.534   9.682   3.851
64673W        W37021  14.832  44.330  14.902
64674W        W37022  32.134   9.319   5.721
64675W        W37023   8.339   6.283  11.552
64676W        W37024   8.217  13.607   0.900
64677W        W37025  31.101  14.682  14.470
64678W        W37026  14.609  44.495  13.969
64679W        W37027  42.782  16.162   4.785
64680W        W37028  26.637   8.878  13.028
64681W        W37029  39.942  20.063   0.760
64682W        W37030   4.334   7.222  14.405
64683W        W37031  23.644  26.640  12.348
64684W        W37032  33.590  29.934   0.244
64685W        W37033  26.043  12.788  13.504
64686W        W37034  38.893   3.309  14.957
64687W        W37035  24.621   2.937  13.342
64688W        W37036  13.698  20.717  11.526
64689W        W37037  43.427  13.611  12.034
64690W        W37038  40.951   9.791   2.854
64691W        W37039  15.181  11.842  12.534
64692W        W37040  39.438   0.371   3.371
64693W        W37041  43.346  16.765  12.510
64694W        W37042  34.096  19.248  12.875
64695W        W37043  10.292  20.769  13.358
64696W        W37044  23.541  41.406  12.830
64697W        W37045  28.595   4.381   1.711
64698W        W37046  10.655  20.550   2.346
64699W        W37047  28.950   2.353  14.513
64700W        W37048  44.810   0.962  11.107
64701W        W37049  26.650  23.098  12.484
64702W        W37050   1.426  28.128   2.281
64703W        W37051  27.070  10.261  13.001
64704W        W37052  24.183  30.535   0.744
64705W        W37053  16.801  28.986  14.369
64706W        W37054   2.924  18.194  10.630
64707W        W37055  31.140  38.035  14.379
64708W        W37056  38.871   9.325  12.035
64709W        W37057  39.850  21.126   2.244
64710W        W37058  15.154   8.678  13.017
64711W        W37059  11.705  20.049   0.375
64712W        W37060   0.275  41.033  13.502
64713W        W37061  33.117  15.309  11.408
64714W        W37062  18.548  12.789   4.756
64715W        W37063  17.565  36.024   3.266
64716W        W37064  17.096  10.822  12.567
64717W        W37065  17.633  31.037  10.093
64718W        W37066  42.779  25.034  11.538
64719W        W37067  40.538  41.448   2.697
64720W        W37068  33.022  32.921   2.796
64721W        W37069   1.460   8.791   2.801
64722W        W37070  31.141  20.674   1.343
64723W        W37071  34.584  33.506   2.403
64724W        W37072  31.115   5.714   5.743
64725W        W37073  41.441  13.756  14.784
64726W        W37074  30.152  17.750  14.375
64727W        W37075   2.425  42.985  11.975
64728W        W37076  28.528   1.427   3.214
64729W        W37077  41.429  44.402   1.935
64730W        W37078  37.572  13.279   0.455
64731W        W37079  36.082  17.171   0.727
64732W        W37080  24.500  16.684  14.282
64733W        W37081  19.700   9.810  10.999
64734W        W37082  31.418  30.619  10.895
64735W        W37083  19.198  25.051   4.749
64736W        W37084  28.013  35.591   1.234
64737W        W37085  43.378  10.732  12.424
64738W        W37086  12.706  20.598   0.771
64739W        W37087  41.880  41.451   0.797
64740W        W37088   1.297  43.322   1.828
64741W        W37089  24.183  38.019   3.806
64742W        W37090  34.392   1.352  12.936
64743W        W37091  25.665  23.729  13.053
64744W        W37092  34.911  38.970  13.488
64745W        W37093  41.961  14.217  11.600
64746W        W37094  22.567  10.717   0.420
64747W        W37095  25.010  26.505  11.997
64748W        W37096   1.284  38.829   2.682
64749W        W37097   8.810  33.981  13.040
64750W        W37098  30.144  23.217  14.940
64751W        W37099   2.925  22.108   2.781
64752W        W37100   1.761   1.811  12.017
64753W        W37101  33.567   9.280  12.928
64754W        W37102  19.707  29.445   0.426
64755W        W37103  14.217  17.572  12.049
64756W        W37104   2.863   3.388   2.224
64757W        W37105  44.894   7.890   3.340
64758W        W37106  11.675  15.254   4.826
64759W        W37107  32.396   1.269   0.765
64760W        W37108  43.506  21.104   4.631
64761W        W37109  30.979   2.842   0.350
64762W        W37110  21.181   1.452  10.893
64763W        W37111  43.480  35.892  10.161
64764W        W37112  10.695  24.063  12.074
64765W        W37113  19.134  40.904   2.900
64766W        W37114  36.487  26.971  13.381
64767W        W37115  34.463  11.201   4.712
64768W        W37116   2.407  13.806   2.731
64769W        W37117  42.839  44.941  11.480
64770W        W37118  15.814  35.982   0.901
64771W        W37119  12.851  35.358   0.746
64772W        W37120   4.410  36.537  10.497
64773W        W37121  13.717  36.472  14.972
64774W        W37122   5.863  15.210   0.350
64775W        W37123  24.705  41.033  14.428
64776W        W37124  26.000  33.469  13.893
64777W        W37125  34.008  41.390  11.039
64778W        W37126  11.310  36.550   2.245
64779W        W37127  26.466  11.297  14.022
64780W        W37128   0.254  10.794  13.341
64781W        W37129  13.258  37.427   4.214
64782W        W37130   3.271  38.518  11.092
64783W        W37131  44.828   7.859   4.823
64784W        W37132  26.111  29.627   0.797
64785W        W37133  31.491  35.093   3.744
64786W        W37134  20.061  26.628  10.526
64787W        W37135  32.887   7.298  12.997
64788W        W37136   9.301  14.771  12.080
64789W        W37137  29.451  10.191  13.904
64790W        W37138   0.940  15.223  10.538
64791W        W37139  29.550  41.398   4.157
64792W        W37140  40.517  12.653   2.721
64793W        W37141   4.295  26.512   1.255
64794W        W37142  27.985  43.357  14.852
64795W        W37143   3.910  29.594   2.412
64796W        W37144  41.811  24.539   2.241
64797W        W37145  30.126  28.142   0.268
64798W        W37146  26.645  31.645  11.465
64799W        W37147  37.437  30.640   3.208
64800W        W37148  41.897  18.648   2.214
64801W        W37149  20.194  22.239  14.013
64802W        W37150   7.672  27.110  14.377
64803W        W37151  32.062  27.945  14.811
64804W        W37152  16.711  15.806  13.905
64805W        W37153  38.398  43.882   4.830
64806W        W37154   0.964   6.747  13.971
64807W        W37155  23.637  35.099   1.839
64808W        W37156   9.188  15.718   2.704
64809W        W37157  29.586  27.671  10.639
64810W        W37158  14.145  13.642  12.529
64811W        W37159   9.653  12.857  11.571
64812W        W37160  44.385   7.829  14.325
64813W        W37161  22.110   6.404  11.999
64814W        W37162  38.384   3.353   3.242
64815W        W37163  27.949  10.744  13.310
64816W        W37164  26.555   8.696   4.700
64817W        W37165  37.460  30.538  10.581
64818W        W37166  20.148   6.775   4.617
64819W        W37167  22.220  32.544   0.251
64820W        W37168  16.605  37.012   1.377
64821W        W37169  25.980  30.932  10.556
64822W        W37170  43.785  33.908  11.993
64823W        W37171   9.232  35.103   2.703
64824W        W37172  38.547  37.021  12.065
64825W        W37173   3.411   0.288   0.877
64826W        W37174  26.185  41.462  11.096
64827W        W37175  44.384  17.097  11.533
64828W        W37176  28.457  35.432   4.733
64829W        W37177  22.581   3.852   3.270
64830W        W37178  26.489  14.294  13.483
64831W        W37179  10.833  32.616   0.337
64832W        W37180  35.392  30.122  11.108
64833W        W37181  17.308  39.044  12.873
64834W        W37182  22.052  22.537  13.034
64835W        W37183  31.907  18.206  12.902
64836W        W37184  18.148  35.878   1.336
64837W        W37185  33.934  23.182   0.376
64838W        W37186  25.475  42.513   4.258
64839W        W37187  23.658  10.747   4.268
64840W        W37188   5.375  33.579  11.030
64841W        W37189  20.251  22.188  14.481
64842W        W37190  17.671  14.331  11.062
64843W        W37191  19.713  37.512  12.965
64844W        W37192   8.790  36.462  12.894
64845W        W37193  30.536   9.307   3.822
64846W        W37194  10.854  28.660  11.934
64847W        W37195   7.874  23.724   9.955
64848W        W37196  36.536  17.683  11.485
64849W        W37197  30.015   2.829  14.014
64850W        W37198   4.806  15.287   0.254
64851W        W37199  36.377  15.246  11.111
64852W        W37200   3.398  35.449  12.464
64853W        W37201   2.288  36.559   0.759
64854W        W37202  17.690  26.995   0.436
64855W        W37203  33.992  42.976  14.424
64856W        W37204  34.089  25.651  11.879
64857W        W37205   0.424  21.677   4.155
64858W        W37206  31.632  29.425  10.564
64859W        W37207  25.552  25.648   2.359
64860W        W37208  37.577   1.374   0.371
64861W        W37209  33.957  27.520   3.215
64862W        W37210   0.859  18.097   0.277
64863W        W37211   6.771  11.131  11.885
64864W        W37212   3.215  20.241   1.341
64865W        W37213  30.613  30.546  12.855
64866W        W37214   9.817  34.488   0.780
64867W        W37215  41.351  19.247   3.189
64868W        W37216  44.756  15.600   4.151
64869W        W37217   0.836  34.907  10.469
64870W        W37218  25.186  43.410  13.530
64871W        W37219  22.532  17.746  13.309
64872W        W37220  43.009  42.826   9.920
64873W        W37221  34.914  33.586  11.548
64874W        W37222  16.113  17.271  13.967
64875W        W37223  10.283  43.479   3.752
64876W        W37224  10.670   3.295   3.691
64877W        W37225  15.580  12.697  12.374
64878W        W37226  14.705  24.140   4.748
64879W        W37227   8.197  18.067   1.871
64880W        W37228  33.904  30.487   1.267
64881W        W37229  14.210  17.222  14.963
64882W        W37230  40.807  28.451   3.249
64883W        W37231  17.132  32.483  14.486
64884W        W37232  38.391  32.005   2.889
64885W        W37233  29.495  18.061  11.410
64886W        W37234   5.205  29.425  10.949
64887W        W37235  13.297   5.855  10.602
64888W        W37236  36.020  24.528  14.816
64889W        W37237  27.988  35.071   1.242
64890W        W37238  30.562   1.753  14.289
64891W        W37239  37.032  16.795  10.954
64892W        W37240  10.184  28.514  11.907
64893W        W37241  32.601   0.365   3.219
64894W        W37242  37.949  13.138   1.376
64895W        W37243   6.677  21.660  13.025
64896W        W37244  33.411  23.563  12.570
64897W        W37245  15.210  11.712   1.756
64898W        W37246  20.173  22.573  10.506
64899W        W37247  29.040  25.964   2.702
64900W        W37248  22.087  43.448  11.538
64901W        W37249  14.739  37.436  13.915
64902W        W37250   9.668  38.471   2.742
64903W        W37251   0.366   6.232  11.042
64904W        W37252  31.614  33.035  13.939
64905W        W37253  12.250  25.171   1.832
64906W        W37254  32.614  29.126  12.565
64907W        W37255  32.016  12.756   0.300
64908W        W37256   7.241   6.268  13.803
64909W        W37257  29.951  42.031   4.751
64910W        W37258   9.689   3.899  14.896
64911W        W37259  17.588  33.596   3.674
64912W        W37260  14.692  21.216  11.972
64913W        W37261  20.624  21.717   2.860
64914W        W37262  20.210  13.208   3.737
64915W        W37263  11.244  38.422  14.928
64916W        W37264  27.174  19.545  11.933
64917W        W37265  17.270  33.977  12.439
64918W        W37266   4.399  40.484   4.661
64919W        W37267  30.137  25.104   0.429
64920W        W37268  21.705  28.035   2.693
64921W        W37269  14.138  27.456   2.716
64922W        W37270  38.890  24.185  10.579
64923W        W37271   1.900  15.175   2.393
64924W        W37272  39.952  30.033  12.915
64925W        W37273  10.204  16.076  12.949
64926W        W37274  14.759  39.060   1.703
64927W        W37275  40.524  10.348   4.682
64928W        W37276  17.709   9.321  11.389
64929W        W37277  34.039  13.777   1.850
64930W        W37278  23.519   6.349  10.917
64931W        W37279   5.230  31.061   1.821
64932W        W37280  39.506  22.578   1.760
64933W        W37281  25.527  31.414   2.217
64934W        W37282  10.321  19.278  13.354
64935W        W37283  35.995  10.380  12.853
64936W        W37284  18.702   6.807  13.414
64937W        W37285  31.033  37.536  12.431
64938W        W37286  11.844   3.250   1.382
64939W        W37287  39.834   4.299  12.904
64940W        W37288  11.769  36.096   4.238
64941W        W37289  10.726  26.149  11.004
64942W        W37290  42.809  22.247  13.800
64943W        W37291   7.856   6.768  10.916
64944W        W37292  19.223  22.102  13.919
64945W        W37293  10.639  31.464  11.044
64946W        W37294   5.929  34.383  13.511
64947W        W37295  25.196  23.226   4.191
64948W        W37296  38.000   1.287  14.418
64949W        W37297  39.819  34.921   1.225
64950W        W37298   5.876   8.858  14.280
64951W        W37299   2.237  42.408   0.913
64952W        W37300  44.415  29.009   3.253
64953W        W37301  28.597  42.918   4.735
64954W        W37302  20.622  12.211   4.735
64955W        W37303  11.765  42.016  12.347
64956W        W37304  38.511  30.463   2.271
64957W        W37305  19.066  15.147  14.341
64958W        W37306  18.586  29.127   2.325
64959W        W37307  16.099   5.771   2.772
64960W        W37308  26.046  22.039   4.131
64961W        W37309  15.637  33.418  14.792
64962W        W37310   3.720  25.479  12.559
64963W        W37311   4.397  19.737   0.294
64964W        W37312   3.945  21.748   4.763
64965W        W37313  39.452  15.680   1.321
64966W        W37314  12.125  31.125  10.442
64967W        W37315  41.435  28.518   3.362
64968W        W37316  19.773   2.868  14.327
64969W        W37317  13.746  30.504   4.653
64970W        W37318  23.633  38.335   3.211
64971W        W37319  17.682  22.168   1.313
64972W        W37320  41.821  34.917   0.768
64973W        W37321  29.045   9.200   4.308
64974W        W37322  14.789  26.673  13.350
64975W        W37323  36.421  33.480  10.129
64976W        W37324  44.960  34.979  12.451
64977W        W37325  37.571  32.987  10.503
64978W        W37326  11.668   8.371   1.449
64979W        W37327  37.882  37.073  14.408
64980W        W37328  44.373   7.183   2.334
64981W        W37329  24.536  25.101  12.511
64982W        W37330   4.288  36.948  11.915
64983W        W37331  44.363  13.712  12.469
64984W        W37332  10.195  21.611  13.956
64985W        W37333  16.290   8.291  13.314
64986W        W37334  19.663   4.408  13.414
64987W        W37335  19.687  36.435   4.237
64988W        W37336  27.664  32.047   0.356
64989W        W37337  37.362  22.742  13.362
64990W        W37338  20.601  29.945   3.284
64991W        W37339  35.037  33.937  13.408
64992W        W37340  32.507  10.654   3.319
64993W        W37341  14.273  40.996  10.492
64994W        W37342  14.181  36.430  13.920
64995W        W37343  34.888  10.226   9.925
64996W        W37344  22.055  17.718  12.843
64997W        W37345  39.050  30.911  12.347
64998W        W37346  31.958  13.335  14.349
64999W        W37347  31.434  13.745   3.771
65000W        W37348  32.551  44.956  13.828
65001W        W37349   6.399  29.648  11.871
65002W        W37350  21.185   6.208   5.142
65003W        W37351  17.132  25.115   2.269
65004W        W37352  16.109  34.886  10.578
65005W        W37353   1.947  35.499  13.517
65006W        W37354  38.010  41.799  14.464
65007W        W37355  11.243  41.924  12.346
65008W        W37356  19.064  24.712  12.419
65009W        W37357  20.602   1.836   0.328
65010W        W37358  38.424  26.993   3.296
65011W        W37359  14.323  34.465  11.941
65012W        W37360   4.424  21.030  14.798
65013W        W37361  39.958  43.836   3.657
65014W        W37362  27.563   7.704  12.999
65015W        W37363  44.984   2.958   0.780
65016W        W37364  14.629  32.961   1.896
65017W        W37365   2.807  40.364   0.418
65018W        W37366  37.530  37.441   0.837
65019W        W37367  18.715   7.711  10.557
65020W        W37368  24.990  41.808   1.262
65021W        W37369   9.731  38.035   4.747
65022W        W37370  37.837  14.613   3.209
65023W        W37371  22.122  31.458  13.054
65024W        W37372  19.239   7.686  13.833
65025W        W37373   1.975  27.948  11.061
65026W        W37374  38.967   1.960  11.107
65027W        W37375  20.187  43.837  11.600
65028W        W37376   0.332  14.109   5.094
65029W        W37377  21.610  38.074   2.769
65030W        W37378  22.209  17.670  13.466
65031W        W37379  39.051   6.814   5.200
65032W        W37380  20.232  23.047  10.608
65033W        W37381  31.416  29.478   2.415
65034W        W37382  44.360  36.085  13.381
65035W        W37383  19.116  21.626   1.247
65036W        W37384   5.712  14.830  12.995
65037W        W37385  12.783  21.594  12.975
65038W        W37386  41.883   4.337  11.426
65039W        W37387  10.662  12.243   0.373
65040W        W37388  20.099   8.321   1.431
65041W        W37389  13.766  34.512  13.793
65042W        W37390  28.525  13.731  13.461
65043W        W37391  21.681   6.338   3.252
65044W        W37392  27.568   3.362   1.299
65045W        W37393  29.445  16.225   1.752
65046W        W37394  41.379   7.286   0.846
65047W        W37395  37.849  33.045  12.339
65048W        W37396  25.635   7.348   1.901
65049W        W37397  42.426  22.552  11.109
65050W        W37398   4.261  40.358   1.772
65051W        W37399  16.307  25.971   2.244
65052W        W37400  30.592   9.747  12.995
65053W        W37401  21.019  19.758  13.315
65054W        W37402  33.427  16.701   1.301
65055W        W37403  29.037  18.556  12.551
65056W        W37404  44.464  41.471   1.354
65057W        W37405  39.873  37.913  11.097
65058W        W37406  40.000  21.182  12.026
65059W        W37407  16.313  10.826  11.373
65060W        W37408  11.843  22.506   5.171
65061W        W37409  33.001  20.104  12.446
65062W        W37410  38.915  21.205   5.139
65063W        W37411  42.796  39.969   1.411
65064W        W37412  42.829  25.163   4.838
65065W        W37413   2.732  23.002  14.338
65066W        W37414  25.963  44.926   0.478
65067W        W37415  19.748  32.622  10.431
65068W        W37416   9.872  14.249   0.958
65069W        W37417  38.440  26.045   1.278
65070W        W37418  37.927  38.036  13.423
65071W        W37419   8.848  30.467  13.962
65072W        W37420  12.245  44.886  14.502
65073W        W37421  31.617  19.235   4.170
65074W        W37422  12.792  14.646  10.556
65075W        W37423  34.930   8.895  10.919
65076W        W37424   1.970  19.053   1.754
65077W        W37425   8.866  40.972   3.239
65078W        W37426  43.476  15.144  13.051
65079W        W37427  32.000  35.004  14.887
65080W        W37428  15.085  26.193   3.364
65081W        W37429  32.526  17.731   0.260
65082W        W37430  12.724  17.118  13.520
65083W        W37431  44.775  11.341  14.906
65084W        W37432  43.875  29.051   2.846
65085W        W37433  32.464  11.702  13.407
65086W        W37434  10.362   7.870   5.128
65087W        W37435  23.998  18.744  13.821
65088W        W37436  43.962  28.121  11.532
65089W        W37437  33.513  13.267  13.827
65090W        W37438  19.255  29.517   0.769
65091W        W37439  33.009  17.664  14.020
65092W        W37440  18.573  31.476  11.574
65093W        W37441  30.529  29.974  12.526
65094W        W37442  35.057  15.775   1.323
65095W        W37443  15.228  13.200  10.596
65096W        W37444   4.282  22.112  10.600
65097W        W37445  35.005  40.397  12.438
65098W        W37446  15.658   9.667  12.531
65099W        W37447  28.452  20.139   1.711
65100W        W37448  26.158  24.532   3.847
65101W        W37449  33.504  41.804   1.326
65102W        W37450  36.414  17.256  14.384
65103W        W37451  27.531  41.853   3.745
65104W        W37452  20.638  27.508  14.286
65105W        W37453  34.583  44.480  12.022
65106W        W37454   6.781  42.857  11.572
65107W        W37455  25.543   9.766  11.564
65108W        W37456  13.147  35.100  12.025
65109W        W37457  32.448  24.988   2.839
65110W        W37458  21.263  28.932   3.338
65111W        W37459  41.963   6.843  11.495
65112W        W37460  32.907  25.183   4.791
65113W        W37461  23.178  32.928  12.369
65114W        W37462   2.394  32.627  13.881
65115W        W37463  20.174  19.555   0.835
65116W        W37464  26.181  29.605  13.312
65117W        W37465  27.016  42.827   1.360
65118W        W37466  26.620  17.166   2.796
65119W        W37467   8.399  15.318  11.528
65120W        W37468  13.763   4.804   3.190
65121W        W37469  30.034  39.886  13.426
65122W        W37470  18.060  28.974   2.345
65123W        W37471  44.389  31.585   2.796
65124W        W37472  25.065  24.221   0.944
65125W        W37473   7.846   7.393  11.501
65126W        W37474  21.084  31.547   3.744
65127W        W37475  40.369  33.899  11.946
65128W        W37476  19.763  29.131   3.679
65129W        W37477  40.519   0.383   2.287
65130W        W37478   0.453  37.485   4.337
65131W        W37479  16.723  21.107   0.763
65132W        W37480  26.139   6.345   1.328
65133W        W37481  37.854  26.112  14.325
65134W        W37482  13.827  13.792   5.298
65135W        W37483  44.390  33.005  14.462
65136W        W37484  29.092   9.745   3.356
65137W        W37485   8.824  29.510   4.673
65138W        W37486   6.778   8.832  12.388
65139W        W37487  39.433  28.437   4.282
65140W        W37488  12.312  37.468   3.355
65141W        W37489  32.002   0.958  11.456
65142W        W37490  40.855  12.320   1.218
65143W        W37491  24.498  28.671  13.385
65144W        W37492   7.844  31.127   5.682
65145W        W37493  41.990  25.596   1.427
65146W        W37494  13.652   8.866  14.019
65147W        W37495  18.132  14.166  12.418
65148W        W37496  26.551  37.347   3.731
65149W        W37497  21.147  26.459  12.933
65150W        W37498  13.841  26.156   1.839
65151W        W37499  32.571   2.777  14.863
65152W        W37500  32.080  28.151   5.098
65153W        W37501   1.759  24.502  14.843
65154W        W37502  30.982  10.728   1.244
65155W        W37503  39.353  33.509  14.366
65156W        W37504  41.368  42.986   0.960
65157W        W37505  20.096  31.426   1.850
65158W        W37506  38.996  10.837  13.381
65159W        W37507  36.490  31.102   1.344
65160W        W37508  21.092  16.782  13.357
65161W        W37509  38.328  16.637   0.864
65162W        W37510  29.663  29.594   0.440
65163W        W37511  32.495  19.243  10.472
65164W        W37512  37.845  18.626   3.739
65165W        W37513  35.979  43.508   4.302
65166W        W37514  25.693  10.269  13.470
65167W        W37515  18.123  17.560  10.463
65168W        W37516  22.584  32.986   1.326
65169W        W37517  20.223   5.773   1.757
65170W        W37518  31.616  15.301   3.154
65171W        W37519  24.689   3.915  13.323
65172W        W37520  12.161  11.768  11.926
65173W        W37521   0.249  44.958   4.616
65174W        W37522  20.128  26.098   4.263
65175W        W37523  27.624  29.658  11.564
65176W        W37524  33.122  23.168   4.248
65177W        W37525  16.659  43.485   0.791
65178W        W37526  31.137   7.856  11.088
65179W        W37527   4.867  37.395   2.842
65180W        W37528   4.763   7.676  13.337
65181W        W37529  15.695   9.692   1.789
65182W        W37530  19.769  22.698  12.934
65183W        W37531  29.499   6.272   3.643
65184W        W37532  23.573  40.387   1.243
65185W        W37533  33.919  25.025   4.731
65186W        W37534   4.744  10.230  10.102
65187W        W37535  12.802  31.635   1.912
65188W        W37536  31.026   3.801  13.358
65189W        W37537  27.673  30.001   0.897
65190W        W37538  38.540  28.124  13.805
65191W        W37539  33.398   2.899   2.738
65192W        W37540  14.672   9.255  10.568
65193W        W37541   8.790  39.494  14.422
65194W        W37542  22.734   6.687  11.474
65195W        W37543  17.085  19.097   0.917
65196W        W37544   4.393  12.132   3.838
65197W        W37545   4.380  32.040   1.873
65198W        W37546  31.402  25.084   2.746
65199W        W37547   6.777  12.648  13.476
65200W        W37548  30.516  11.735  13.020
65201W        W37549  18.739  16.566   2.891
65202W        W37550  30.096  14.319   1.909
65203W        W37551   6.897  13.606   2.213
65204W        W37552  14.289  16.235  14.954
65205W        W37553  31.474  27.482   1.804
65206W        W37554   5.708  33.023  14.808
65207W        W37555  25.155  44.407  14.286
65208W        W37556  41.807  32.013  12.391
65209W        W37557  43.445  18.706  12.879
65210W        W37558  29.955  41.998   3.279
65211W        W37559  38.501  11.632   2.284
65212W        W37560  28.572  40.948   4.115
65213W        W37561  15.714  37.525   2.360
65214W        W37562  33.033   2.957  13.537
65215W        W37563  21.708   9.260  10.033
65216W        W37564  33.962  20.647  12.476
65217W        W37565  18.713  33.065  10.500
65218W        W37566  36.063  39.486   4.140
65219W        W37567  23.728  21.179  10.078
65220W        W37568  33.593   3.875   3.839
65221W        W37569  17.577  11.760   0.389
65222W        W37570   1.250  37.413  12.850
65223W        W37571  44.398   1.410  13.022
65224W        W37572   6.387  11.217  10.439
65225W        W37573  12.840   9.714   2.755
65226W        W37574  21.675   7.346   4.748
65227W        W37575  32.586  10.673  12.428
65228W        W37576  14.823  42.460  11.419
65229W        W37577  17.570  12.122   9.625
65230W        W37578  28.010  29.004  11.887
65231W        W37579  14.103  13.182   0.315
65232W        W37580   2.293   6.901  12.973
65233W        W37581   4.257   5.928  13.478
65234W        W37582  16.074  36.904   4.197
65235W        W37583  20.623  27.650   3.816
65236W        W37584  14.675  13.201   2.736
65237W        W37585  25.525  27.112  11.116
65238W        W37586  17.086  17.097  14.000
65239W        W37587  10.151  14.822   4.171
65240W        W37588   7.769   8.402   4.285
65241W        W37589   9.291  42.980  12.990
65242W        W37590  37.085  19.190   4.729
65243W        W37591  44.935  38.533  14.492
65244W        W37592  11.193  11.716  12.010
65245W        W37593  13.840  38.390   3.817
65246W        W37594  33.955  20.563  10.937
65247W        W37595   9.370   1.974  12.389
65248W        W37596   6.351   1.784  13.996
65249W        W37597  43.879  27.044   1.411
65250W        W37598  19.243   9.760   4.283
65251W        W37599   5.865  35.553  11.607
65252W        W37600  40.482  36.491   2.805
65253W        W37601  28.128  30.014   0.850
65254W        W37602   8.317  43.463   1.427
65255W        W37603  16.077  20.137   0.791
65256W        W37604  26.570  16.794  14.789
65257W        W37605  33.123  31.494   2.418
65258W        W37606  22.121  24.989   4.133
65259W        W37607  36.404  10.731   3.709
65260W        W37608   8.375  41.955  11.033
65261W        W37609  24.118  43.312   2.871
65262W        W37610  23.499   1.449  10.895
65263W        W37611  16.731  15.093  11.936
65264W        W37612   9.650  30.657   4.778
65265W        W37613  16.077   7.227   2.282
65266W        W37614  42.792  30.121  13.845
65267W        W37615  22.725  21.106  10.539
65268W        W37616  23.085  37.941   0.442
65269W        W37617  42.883  29.609   2.716
65270W        W37618  37.484   7.321   0.959
65271W        W37619  42.924   5.926  13.991
65272W        W37620  21.122   6.889  12.486
65273W        W37621  16.643  37.971   1.766
65274W        W37622  22.597  34.447  12.464
65275W        W37623  12.794  42.837  10.931
65276W        W37624  39.502  12.127   3.243
65277W        W37625  44.428  21.149   3.844
65278W        W37626  29.988  13.746  14.897
65279W        W37627  33.424  27.989   1.249
65280W        W37628  35.913   0.980   4.160
65281W        W37629  23.609  44.797   4.351
65282W        W37630  21.263  40.411   4.657
65283W        W37631   9.325  21.213   3.735
65284W        W37632  13.118  20.052   0.278
65285W        W37633  31.030  13.638  11.554
65286W        W37634  29.983  19.103  10.504
65287W        W37635  22.672  31.980   2.393
65288W        W37636  35.462  37.437   0.260
65289W        W37637  40.540  41.996  13.507
65290W        W37638   6.796   0.305   3.716
65291W        W37639  36.056   4.720   1.324
65292W        W37640  18.118  10.654  11.610
65293W        W37641  37.058  39.394   2.184
65294W        W37642  21.537  24.034  11.997
65295W        W37643   9.168  24.989   1.859
65296W        W37644  34.512  28.545   2.232
65297W        W37645   9.269  24.200  13.468
65298W        W37646  31.504  34.918  14.896
65299W        W37647  22.518  26.651   3.175
65300W        W37648  38.998  14.264  13.970
65301W        W37649  29.134  35.005  13.893
65302W        W37650  42.932  17.621   0.256
65303W        W37651  25.658   4.425  14.004
65304W        W37652  41.472  41.020  14.843
65305W        W37653  23.027  26.150  13.893
65306W        W37654   2.293  18.783  14.443
65307W        W37655  23.066  35.073   3.750
65308W        W37656  38.824  39.808  14.484
65309W        W37657   8.732  32.132   3.684
65310W        W37658   4.281  42.778   0.861
65311W        W37659  24.684  17.201  14.393
65312W        W37660  17.671  31.622   4.312
65313W        W37661  39.036  28.618  14.838
65314W        W37662   2.838  28.961  10.612
65315W        W37663   1.456   0.918   3.683
65316W        W37664   4.816  41.883  11.504
65317W        W37665  30.658  30.594  14.480
65318W        W37666   9.859  30.910  10.067
65319W        W37667   0.474  18.773   2.265
65320W        W37668  35.533   2.298  11.036
65321W        W37669  34.908  24.592   2.338
65322W        W37670  11.712  29.465  14.321
65323W        W37671  41.846  11.277   1.327
65324W        W37672  16.574  31.151  14.493
65325W        W37673  12.269  38.907  14.820
65326W        W37674   6.808  22.704  14.401
65327W        W37675  43.314  30.577  10.982
65328W        W37676  43.323  14.234  12.450
65329W        W37677   1.858  17.774  11.856
65330W        W37678   9.186   6.895  12.536
65331W        W37679  16.130  20.049  13.513
65332W        W37680   3.318  21.592   3.846
65333W        W37681  40.951  22.191   0.439
65334W        W37682  14.644  16.227  14.967
65335W        W37683  43.474  11.785   4.735
65336W        W37684  26.604   6.767   3.147
65337W        W37685  37.446  13.676  11.947
65338W        W37686  39.037  32.010   0.449
65339W        W37687   0.254   2.894   3.199
65340W        W37688  41.853  25.679   0.256
65341W        W37689  23.990  43.927   2.242
65342W        W37690   8.716  13.786   0.437
65343W        W37691   5.394  32.473  11.379
65344W        W37692  14.704   7.813   1.378
65345W        W37693  15.615  15.792  12.861
65346W        W37694  25.095  23.056  14.960
65347W        W37695  31.995  18.199  14.944
65348W        W37696  21.588  11.782  11.071
65349W        W37697   3.726  23.592   1.762
65350W        W37698  28.117   9.272   2.237
65351W        W37699  32.607  24.139   1.744
65352W        W37700  21.072  30.950   0.898
65353W        W37701  13.182  31.570  11.077
65354W        W37702  19.557  44.367  13.053
65355W        W37703  21.024  38.870  11.418
65356W        W37704   6.255   7.177  12.454
65357W        W37705  24.024  41.402   3.651
65358W        W37706   9.328  13.150  10.899
65359W        W37707   5.257  23.675   3.325
65360W        W37708  32.492   5.726   9.993
65361W        W37709  26.985  22.117   4.743
65362W        W37710   9.299  22.600   3.802
65363W        W37711   4.939  36.045  14.423
65364W        W37712   1.274  39.017  12.035
65365W        W37713   2.305  41.295  11.543
65366W        W37714  28.656   4.865   3.344
65367W        W37715  43.822  17.195   1.387
65368W        W37716  11.312  41.812   0.751
65369W        W37717   6.405  12.752   1.935
65370W        W37718  11.844  26.170  10.580
65371W        W37719  22.096   8.298   3.798
65372W        W37720  37.060   0.290   0.841
65373W        W37721  37.967   8.163  13.459
65374W        W37722  44.449  42.322   4.328
65375W        W37723  28.671  24.137  13.856
65376W        W37724  36.463  43.417   4.235
65377W        W37725  31.539   2.792  14.395
65378W        W37726  37.367  28.032   0.904
65379W        W37727  23.539  24.120   0.286
65380W        W37728  40.418  19.670  12.514
65381W        W37729  14.795  22.537  14.424
65382W        W37730  39.410   0.351  12.958
65383W        W37731  44.878  26.972  12.051
65384W        W37732   6.244  13.733  11.466
65385W        W37733  24.062  36.407  12.980
65386W        W37734   8.331  10.376  11.385
65387W        W37735  28.502  15.775  11.588
65388W        W37736   1.350   4.769  12.493
65389W        W37737  28.477  20.119   2.661
65390W        W37738  39.920   5.396  14.503
65391W        W37739  21.127  35.389  13.932
65392W        W37740  37.915  11.641   1.793
65393W        W37741  26.564  19.192   3.643
65394W        W37742  25.528   8.878   3.813
65395W        W37743   1.445  38.527   0.768
65396W        W37744   3.317  33.924  14.793
65397W        W37745  20.157  27.174   0.363
65398W        W37746   7.262  35.955   2.725
65399W        W37747  39.051  10.323  12.947
65400W        W37748  26.199  17.281  14.825
65401W        W37749  26.544  33.593  14.336
65402W        W37750  31.148  40.006  12.519
65403W        W37751  36.924   8.256   0.334
65404W        W37752  40.458   8.746   3.744
65405W        W37753   4.845  38.354   3.856
65406W        W37754  28.513  13.310   3.750
65407W        W37755  38.372  23.702  14.910
65408W        W37756   8.215  13.294  14.793
65409W        W37757   1.750  26.653   4.820
65410W        W37758  31.579  20.533  12.053
65411W        W37759  37.849   4.258   9.538
65412W        W37760  21.750  26.500   4.788
65413W        W37761  28.029  32.461  10.499
65414W        W37762  41.899   3.732  14.977
65415W        W37763  14.319   8.218  14.289
65416W        W37764  25.037  24.981  12.070
65417W        W37765  44.875   2.279   4.797
65418W        W37766   6.696  35.381   2.297
65419W        W37767  19.654   7.667  14.304
65420W        W37768  15.602  38.434  11.611
65421W        W37769  33.053  34.515   1.265
65422W        W37770  18.057   5.409   3.362
65423W        W37771  26.653  37.570   4.811
65424W        W37772   7.395  25.066   0.897
65425W        W37773  43.386  40.548   2.238
65426W        W37774   6.296  19.536   5.211
65427W        W37775  21.076   0.482   0.413
65428W        W37776  44.911   9.644   0.250
65429W        W37777  35.505  15.591  10.634
65430W        W37778  24.524   1.474  11.981
65431W        W37779  14.294   7.769  12.450
65432W        W37780  15.152  38.559  14.876
65433W        W37781  24.057   6.353  10.118
65434W        W37782  14.657  26.625  11.973
65435W        W37783  33.995   4.245  12.374
65436W        W37784  10.264   4.921   1.765
65437W        W37785  24.598   0.945  10.534
65438W        W37786  35.039  31.025   4.211
65439W        W37787  24.135  44.378  12.532
65440W        W37788  21.716  10.834  11.119
65441W        W37789  24.005  42.294   3.819
65442W        W37790   4.826   6.381   3.173
65443W        W37791  35.488   7.888  14.434
65444W        W37792  36.525   3.770   2.724
65445W        W37793  22.240   5.277  10.436
65446W        W37794  12.754  11.849  12.951
65447W        W37795  14.288   6.222  11.858
65448W        W37796  20.635   1.884   0.807
65449W        W37797  16.213  16.643   2.680
65450W        W37798  42.329  23.069  11.435
65451W        W37799   7.248  14.795  14.827
65452W        W37800  33.545  17.110   5.298
65453W        W37801  18.632  26.000   1.731
65454W        W37802   1.474  39.997   1.725
65455W        W37803   6.810  21.692  14.319
65456W        W37804  31.057   4.821   2.663
65457W        W37805   3.792  37.025  12.369
65458W        W37806  31.601  41.504   1.422
65459W        W37807   5.908  18.175  13.960
65460W        W37808  31.041   3.950   3.793
65461W        W37809  34.009  34.497  13.336
65462W        W37810  30.123  29.918   1.345
65463W        W37811  21.553  38.030  13.897
65464W        W37812  23.136  25.633   1.286
65465W        W37813  37.022   5.908  12.365
65466W        W37814  14.234  32.128   1.335
65467W        W37815  23.215   9.222   4.187
65468W        W37816   2.961  12.679  14.803
65469W        W37817  25.549  37.521   4.725
65470W        W37818  44.946  25.583  12.850
65471W        W37819   6.747  29.477   3.325
65472W        W37820  22.584  39.432  12.843
65473W        W37821  12.161  42.967   1.418
65474W        W37822   6.383  15.134   4.628
65475W        W37823   8.849  12.138   3.354
65476W        W37824  16.741  31.543   4.268
65477W        W37825  32.135   5.233  10.964
65478W        W37826  20.142  32.510   2.773
65479W        W37827   7.669   2.966  14.347
65480W        W37828  19.758   5.864  11.507
65481W        W37829   5.771  27.015   2.775
65482W        W37830  26.046  39.879  11.413
65483W        W37831   9.828  36.590  11.097
65484W        W37832  26.032   0.972   3.692
65485W        W37833  27.686  11.186  11.890
65486W        W37834   6.730  11.263   2.713
65487W        W37835  29.574   4.927  13.984
65488W        W37836  42.989  11.373   2.376
65489W        W37837  15.747  23.175  11.067
65490W        W37838   9.658  30.155  11.403
65491W        W37839  34.501  26.171   4.344
65492W        W37840   0.872  42.849   3.145
65493W        W37841  24.210  44.480  10.626
65494W        W37842  13.162  24.158   2.758
65495W        W37843  20.087   4.207   4.796
65496W        W37844  28.145  12.226   1.810
65497W        W37845  13.627  28.481   0.759
65498W        W37846  40.504  26.051  12.035
65499W        W37847  43.015  18.633   3.779
65500W        W37848   2.442  17.235  10.491
65501W        W37849   8.765  17.200   3.268
65502W        W37850  37.466  32.395  11.487
65503W        W37851   1.867  40.952  11.444
65504W        W37852   7.250   3.241   1.242
65505W        W37853  24.073  15.179   1.881
65506W        W37854  16.736  10.783   0.775
65507W        W37855  13.351  31.948  13.013
65508W        W37856  10.715   5.332   4.128
65509W        W37857  20.102  43.362  14.023
65510W        W37858   9.162  19.713  13.341
65511W        W37859  24.215  44.876  11.595
65512W        W37860  27.643  44.285   0.464
65513W        W37861  24.016  26.964   4.608
65514W        W37862  12.282  15.647  10.642
65515W        W37863   1.314   6.193   0.794
65516W        W37864  23.657  24.615   2.249
65517W        W37865   8.707  38.865   1.773
65518W        W37866  15.257   7.726   1.727
65519W        W37867  23.161   9.883  12.575
65520W        W37868  21.138  10.769  14.762
65521W        W37869  28.106  44.418   2.870
65522W        W37870   5.898   4.933   1.820
65523W        W37871  44.785  12.153   3.286
65524W        W37872  34.980   8.809   0.402
65525W        W37873  40.033  20.535   4.130
65526W        W37874  43.822  13.767  10.985
65527W        W37875  21.222  36.452  10.974
65528W        W37876  30.060  27.508  13.809
65529W        W37877  39.504  40.958   1.913
65530W        W37878  23.545  35.592   4.738
65531W        W37879   6.718  24.612  12.533
65532W        W37880  26.060   2.785   3.706
65533W        W37881  32.450  13.162   0.730
65534W        W37882  17.724  18.251   1.831
65535W        W37883  15.140  38.860  10.561
65536W        W37884  11.801  28.564  12.346
65537W        W37885  36.913  28.513   3.739
65538W        W37886   3.728  39.898  13.995
65539W        W37887  31.984  35.083  10.431
65540W        W37888   7.670  36.054   3.742
65541W        W37889  10.251   6.403  14.392
65542W        W37890   5.292  31.596   0.426
65543W        W37891   5.201  25.684   0.303
65544W        W37892   9.393  34.471  12.431
65545W        W37893  18.150  30.131   2.791
65546W        W37894  43.457  34.368  13.962
65547W        W37895  37.565  16.704  12.494
65548W        W37896  30.076  30.431  14.013
65549W        W37897  44.291  17.650  12.013
65550W        W37898   1.910  34.916  12.890
65551W        W37899  26.473  34.026  10.504
65552W        W37900  25.148   9.338  10.988
65553W        W37901   2.419   1.260  12.423
65554W        W37902  17.574  32.562   1.419
65555W        W37903  41.042  32.503  12.578
65556W        W37904  27.660  25.020   0.842
65557W        W37905   3.906  12.808   1.304
65558W        W37906  26.600  12.660   3.249
65559W        W37907  26.179  11.183   3.720
65560W        W37908  25.057  22.100   3.216
65561W        W37909  29.467  34.990   2.850
65562W        W37910  36.534  34.039   2.238
65563W        W37911   6.720   6.321  12.577
65564W        W37912  21.666  10.718  10.450
65565W        W37913  27.453   4.733   1.843
65566W        W37914  13.650  40.869  12.507
65567W        W37915  39.506  28.953   3.173
65568W        W37916  10.305  10.781   0.749
65569W        W37917  36.491  33.508  11.600
65570W        W37918   1.434  13.318  13.011
65571W        W37919  44.866  23.005   2.662
65572W        W37920  35.577  22.247  13.935
65573W        W37921  36.880  14.331   2.682
65574W        W37922  31.422  42.335   0.405
65575W        W37923  13.117  40.547   0.331
65576W        W37924  31.991  38.969  12.896
65577W        W37925   2.464  33.054   2.883
65578W        W37926  21.048  36.872   1.430
65579W        W37927  18.112  19.685  14.459
65580W        W37928  22.029  23.646  10.507
65581W        W37929  25.503  21.647   3.860
65582W        W37930  17.257  20.733   2.681
65583W        W37931  39.039  38.409  12.946
65584W        W37932  37.982  11.665   2.746
65585W        W37933   4.211  31.528  10.489
65586W        W37934   9.784  39.486   1.807
65587W        W37935  15.271   8.183   4.241
65588W        W37936  22.641   4.298   1.420
65589W        W37937  24.214  37.026   3.169
65590W        W37938   1.377  30.030  11.407
65591W        W37939  23.194  36.050  13.956
65592W        W37940  10.858   4.334  11.556
65593W        W37941  17.784  41.524  11.066
65594W        W37942  24.164   1.925  10.044
65595W        W37943   1.368   1.293   4.350
65596W        W37944  16.297  37.344   0.902
65597W        W37945  30.965   8.328   9.547
65598W        W37946   2.396  16.700  12.564
65599W        W37947   2.902  14.155  14.761
65600W        W37948  29.066   1.974   0.936
65601W        W37949   4.812  24.605  11.420
65602W        W37950   2.264  12.138  11.970
65603W        W37951  34.515  37.083  12.994
65604W        W37952  39.493  24.637   1.694
65605W        W37953  15.795  20.233  13.929
65606W        W37954   5.343  30.939  14.026
65607W        W37955  28.157  27.512   2.337
65608W        W37956  32.102  17.702   2.202
65609W        W37957  34.962  25.510  10.987
65610W        W37958  10.244  31.084  10.519
65611W        W37959  20.544  15.239  11.127
65612W        W37960  36.515  39.000   2.212
65613W        W37961  40.461  28.038   5.317
65614W        W37962  16.772   6.210  10.980
65615W        W37963  10.349  18.079  14.479
65616W        W37964  34.036  14.193  12.828
65617W        W37965  10.818  31.035  10.482
65618W        W37966  35.490  21.055   4.782
65619W        W37967  18.624  26.489  12.557
65620W        W37968  15.176  43.963   3.805
65621W        W37969  11.717  39.944  12.473
65622W        W37970  29.598   5.876  12.827
65623W        W37971  21.255   1.349   4.834
65624W        W37972  29.467   6.747  13.384
65625W        W37973  29.107  23.637  12.435
65626W        W37974  39.328  30.485   1.792
65627W        W37975  39.442  28.521   0.897
65628W        W37976   8.207   0.950   3.170
65629W        W37977  18.579   0.962   2.302
65630W        W37978  42.286  31.954   1.274
65631W        W37979  31.934  41.975  14.898
65632W        W37980   4.411  41.320   0.414
65633W        W37981  40.364  23.151   1.787
65634W        W37982  37.865  24.640   3.759
65635W        W37983   6.308  36.921   3.712
65636W        W37984  29.600  34.872  11.611
65637W        W37985   2.850  14.104   2.201
65638W        W37986  40.542  17.177  10.957
65639W        W37987  12.156  28.535   0.771
65640W        W37988  10.318  24.612   4.175
65641W        W37989  36.957  22.544  13.977
65642W        W37990  16.804  12.122  13.963
65643W        W37991  34.981   6.207   0.441
65644W        W37992  19.127  42.366  11.933
65645W        W37993  11.775   5.410  13.984
65646W        W37994  24.213  12.836   9.954
65647W        W37995  10.678   8.257   2.272
65648W        W37996  25.521  21.189   4.809
65649W        W37997  30.955  37.412   4.178
65650W        W37998  41.983  17.664   4.332
65651W        W37999  35.907  24.595  12.080
65652W        W38000  15.647  13.213   0.803
65653W        W38001  38.434  23.567   0.744
65654W        W38002  39.523  25.561   1.357
65655W        W38003  24.689  43.330   3.847
65656W        W38004  35.478  25.637   4.251
65657W        W38005  34.907   7.195  12.095
65658W        W38006   6.851  39.995  13.967
65659W        W38007   7.699   4.824  14.515
65660W        W38008  37.345  12.203   3.290
65661W        W38009   1.765  42.285  13.355
65662W        W38010   8.272  33.878  10.422
65663W        W38011  19.040  43.381   4.726
65664W        W38012   8.197  36.436   3.786
65665W        W38013  29.469  15.289   0.458
65666W        W38014  13.231   4.259  12.865
65667W        W38015  42.467  39.368  12.984
65668W        W38016   9.724  41.875   2.331
65669W        W38017   2.960  25.999  11.856
65670W        W38018  16.628  34.020   4.219
65671W        W38019  24.588  40.017  13.485
65672W        W38020  10.193   6.881  13.818
65673W        W38021   9.759  38.012  14.326
65674W        W38022  17.690  14.103   3.706
65675W        W38023  39.918  38.011   0.272
65676W        W38024  10.266   3.956   2.278
65677W        W38025  15.779  36.435   0.932
65678W        W38026   4.928   7.691  13.809
65679W        W38027  35.513  30.112  12.430
65680W        W38028  31.020   2.917  13.834
65681W        W38029  27.110  34.525  11.047
65682W        W38030  23.532   7.799   9.988
65683W        W38031  21.636  14.296  14.512
65684W        W38032   4.229  34.562  13.496
65685W        W38033  27.024   3.837   1.913
65686W        W38034  42.306  30.004  11.486
65687W        W38035  29.551   1.844  10.613
65688W        W38036   0.424  44.304  13.063
65689W        W38037  25.468  15.654   0.444
65690W        W38038  35.411  24.637   0.951
65691W        W38039   9.703   2.261  13.384
65692W        W38040  27.628   5.289   1.294
65693W        W38041  13.106  25.980   0.853
65694W        W38042  19.252   7.744  12.380
65695W        W38043   1.285  42.463   0.482
65696W        W38044  12.647  36.378   0.329
65697W        W38045  25.607  41.485  14.975
65698W        W38046  21.033  33.930   4.237
65699W        W38047  17.635  25.549   1.236
65700W        W38048   3.382  28.114  10.435
65701W        W38049  18.778  26.042   3.824
65702W        W38050  15.673   9.846   3.762
65703W        W38051  35.457  25.004  14.375
65704W        W38052   3.799  29.024   1.238
65705W        W38053  27.965  16.655  13.018
65706W        W38054  16.732  12.125  11.117
65707W        W38055   8.249  28.671   0.909
65708W        W38056  44.289  18.129  12.992
65709W        W38057  36.470  37.562  14.878
65710W        W38058  12.781  35.407   4.718
65711W        W38059   1.788   3.384  12.547
65712W        W38060  25.553  41.823  14.885
65713W        W38061  22.215  42.992   3.766
65714W        W38062   6.259  36.564   2.378
65715W        W38063  35.506  11.717   4.311
65716W        W38064  38.565  22.215   0.395
65717W        W38065   2.813  24.182   1.445
65718W        W38066  30.062  41.534  13.996
65719W        W38067  25.018  28.605   1.824
65720W        W38068   3.326  20.547  12.904
65721W        W38069  16.191  30.606   2.388
65722W        W38070  28.959  32.479   1.337
65723W        W38071  33.022  31.609   4.700
65724W        W38072  21.039  22.116  14.947
65725W        W38073  23.725  12.146   3.773
65726W        W38074  39.035  12.139  10.582
65727W        W38075  29.444  24.126  13.966
65728W        W38076  16.270  13.341   0.781
65729W        W38077  34.009  28.929   3.249
65730W        W38078  36.904  25.033  14.427
65731W        W38079  25.022  32.532  13.961
65732W        W38080   3.392  34.981  14.456
65733W        W38081  38.325  21.570  12.982
65734W        W38082  29.651   3.403   0.401
65735W        W38083  43.801   7.322  14.945
65736W        W38084  23.026   8.175  14.505
65737W        W38085  26.689   5.833  11.871
65738W        W38086   4.942   0.408   4.670
65739W        W38087  17.146   8.747   1.925
65740W        W38088   3.904   5.236   4.314
65741W        W38089  22.638  44.860  11.585
65742W        W38090  29.429   2.295   4.195
65743W        W38091   8.736  44.484   3.651
65744W        W38092   1.236   7.302   4.147
65745W        W38093  35.933   2.423  14.398
65746W        W38094   2.398  40.390  10.619
65747W        W38095   1.333  11.696  12.963
65748W        W38096  41.826  26.096   4.330
65749W        W38097   8.667  42.522  10.481
65750W        W38098  13.115  20.032  13.808
65751W        W38099  11.849  32.547   2.209
65752W        W38100  39.337  11.366  10.419
65753W        W38101  24.059   4.262  11.394
65754W        W38102   6.719   2.246   0.886
65755W        W38103   6.241   1.926   5.241
65756W        W38104  17.303   9.796   1.229
65757W        W38105  17.215   6.761  11.999
65758W        W38106  22.597  15.608  12.872
65759W        W38107  14.653  33.037  11.891
65760W        W38108  36.414  37.371   1.806
65761W        W38109  34.538  11.853   0.905
65762W        W38110  13.839  24.544   4.279
65763W        W38111   8.805  40.809  12.976
65764W        W38112  16.602  12.705   1.804
65765W        W38113   0.377  36.963   2.714
65766W        W38114  44.363  28.531  13.445
65767W        W38115  24.176   7.787  13.326
65768W        W38116  27.505  32.951   4.833
65769W        W38117  19.203  11.173  12.402
65770W        W38118   7.268  35.931  14.773
65771W        W38119  43.960  21.643  11.099
65772W        W38120  26.460  19.755  13.468
65773W        W38121  35.474  37.464   3.733
65774W        W38122   9.883  44.883   1.782
65775W        W38123   4.276   6.231  10.977
65776W        W38124   3.714   7.180  13.392
65777W        W38125  34.473  15.141   1.448
65778W        W38126  41.836   3.830   2.400
65779W        W38127  33.974  35.023  10.624
65780W        W38128   2.815  27.445  10.621
65781W        W38129  12.737   6.363  13.794
65782W        W38130   5.338   8.762  10.533
65783W        W38131  12.724   9.233   0.387
65784W        W38132   4.279  14.816  11.871
65785W        W38133  42.981  42.345   1.725
65786W        W38134  25.480   3.452   4.324
65787W        W38135   8.237  37.529  14.981
65788W        W38136  13.113  27.653   4.715
65789W        W38137  43.966  27.068  10.928
65790W        W38138  13.323  37.392   2.727
65791W        W38139  29.948  43.453   1.905
65792W        W38140  21.209  41.364   1.272
65793W        W38141  40.900  25.503  11.097
65794W        W38142  38.429  33.890  14.894
65795W        W38143  33.563  26.575  12.046
65796W        W38144  44.764   4.935   1.765
65797W        W38145   9.266   8.312  11.455
65798W        W38146  19.109   2.767   2.386
65799W        W38147  33.023  21.536   4.292
65800W        W38148  28.079   4.930   4.196
65801W        W38149   2.749  10.233  12.466
65802W        W38150   2.382  20.597   2.396
65803W        W38151  14.254  13.140  12.914
65804W        W38152   6.284  35.035  13.795
65805W        W38153   9.178  10.268   4.606
65806W        W38154  17.171   0.956  14.864
65807W        W38155  36.356  25.682  14.950
65808W        W38156   9.285  18.668  12.841
65809W        W38157  44.806  38.441   1.288
65810W        W38158   3.444   6.235  13.510
65811W        W38159  44.787   0.402  14.290
65812W        W38160  36.573  15.313   3.716
65813W        W38161  35.092  10.721   4.154
65814W        W38162  10.848  13.761  11.979
65815W        W38163  20.557  18.679   0.294
65816W        W38164  32.533  14.723  13.002
65817W        W38165  17.727  10.660  12.431
65818W        W38166   7.715  29.668   3.363
65819W        W38167  12.662  40.471   2.380
65820W        W38168  27.004  16.788  10.551
65821W        W38169  30.509  17.082  13.312
65822W        W38170  29.557   3.326  12.896
65823W        W38171  23.996  31.928  13.435
65824W        W38172  31.547   3.863   0.869
65825W        W38173   5.838  23.024   3.196
65826W        W38174   4.874  31.977   4.699
65827W        W38175  39.969  42.801   2.749
65828W        W38176  18.566   2.413  13.381
65829W        W38177  28.449  27.987  10.953
65830W        W38178   8.265  38.932   3.257
65831W        W38179  26.147  24.596   4.197
65832W        W38180   3.916  26.068  10.977
65833W        W38181  38.851  37.892  14.948
65834W        W38182  30.421   7.401   3.671
65835W        W38183  38.518  10.322   4.227
65836W        W38184  34.573  40.930  11.898
65837W        W38185  43.800  13.195   2.240
65838W        W38186  20.605  42.446   3.791
65839W        W38187  42.920  11.735   3.693
65840W        W38188   4.869   3.816   3.281
65841W        W38189  37.375  25.070   0.752
65842W        W38190   5.205  21.254   5.231
65843W        W38191  15.762  34.997   4.166
65844W        W38192  19.669  16.232   2.236
65845W        W38193  40.458   2.311   4.770
65846W        W38194  20.752   3.427  10.445
65847W        W38195   8.738   6.196   3.214
65848W        W38196  11.279  10.693  10.639
65849W        W38197  33.025  32.923   2.369
65850W        W38198  44.415  43.821  11.097
65851W        W38199  38.891  17.730  14.275
65852W        W38200  21.048  42.893  13.345
65853W        W38201  15.211   7.760  11.467
65854W        W38202  35.962  34.873  11.992
65855W        W38203  27.483  13.284   4.817
65856W        W38204  10.294  16.179   2.326
65857W        W38205  14.658  22.519  10.140
65858W        W38206  35.002   8.328   4.152
65859W        W38207  36.381  23.151   5.617
65860W        W38208  35.449  16.207   2.319
65861W        W38209  38.938  42.889   4.136
65862W        W38210  12.124  29.127   1.706
65863W        W38211  41.446  28.489  12.538
65864W        W38212  34.887  22.088  14.872
65865W        W38213   1.261  17.186  13.861
65866W        W38214   6.200  29.162  10.952
65867W        W38215  21.712  44.948  13.972
65868W        W38216  15.666  12.625  14.428
65869W        W38217  24.716  44.259   0.324
65870W        W38218  29.942   8.777  11.511
65871W        W38219  13.105  30.055   1.272
65872W        W38220  34.551  17.199  14.475
65873W        W38221  26.989  24.491  11.992
65874W        W38222  14.758  26.458   2.864
65875W        W38223  14.754  37.946  12.342
65876W        W38224   1.428   7.302   1.729
65877W        W38225  37.452  20.603   0.478
65878W        W38226  16.650  39.397  12.572
65879W        W38227  25.616  40.411   0.461
65880W        W38228  20.103   3.869   2.395
65881W        W38229  17.092  43.796   0.785
65882W        W38230  17.686  25.659  14.287
65883W        W38231   0.844  43.375  11.442
65884W        W38232  18.594  17.594  13.035
65885W        W38233  15.748  24.001   4.322
65886W        W38234  13.303  30.980   2.400
65887W        W38235   3.360  43.379  10.606
65888W        W38236  15.748  26.049   4.290
65889W        W38237  15.672  12.847   5.176
65890W        W38238  15.097   4.413  13.432
65891W        W38239  22.573  22.042  13.880
65892W        W38240  22.506   1.348  14.286
65893W        W38241  11.169   1.858   4.708
65894W        W38242  43.816  43.278   1.282
65895W        W38243  24.518  23.701  12.975
65896W        W38244   0.285  27.177   1.404
65897W        W38245   7.680  21.203  11.061
65898W        W38246   7.759  29.640  13.956
65899W        W38247  25.973  42.994   0.468
65900W        W38248   3.710  25.052  12.951
65901W        W38249  13.767   7.203   2.876
65902W        W38250  14.814  13.124  13.972
65903W        W38251   4.425   8.175   1.804
65904W        W38252  41.328  35.564   1.820
65905W        W38253  42.971  22.011  13.420
65906W        W38254  35.493  15.686  10.909
65907W        W38255  42.474   3.751  13.866
65908W        W38256   3.790   1.796   0.451
65909W        W38257  44.958   8.662  11.956
65910W        W38258  32.970  43.316   1.380
65911W        W38259  19.131  22.069  14.456
65912W        W38260  34.033   2.922  11.407
65913W        W38261  11.275  29.521   3.840
65914W        W38262  26.001  13.216   2.746
65915W        W38263  12.741  29.431   5.114
65916W        W38264  30.487   2.795   2.853
65917W        W38265  25.969  26.100  14.993
65918W        W38266   5.851  21.671  12.855
65919W        W38267   4.702   6.356   0.362
65920W        W38268   6.395  16.209   1.863
65921W        W38269  44.988  22.649   3.244
65922W        W38270  22.625  42.929   4.689
65923W        W38271  39.511  21.528   0.924
65924W        W38272  31.038  32.616  11.608
65925W        W38273  22.691  14.826   4.129
65926W        W38274  34.587  10.754  11.880
65927W        W38275  44.779  15.681  13.854
65928W        W38276  11.237  43.360   4.777
65929W        W38277  30.145   4.320   4.639
65930W        W38278  19.721  43.366  11.936
65931W        W38279  15.315  41.971  11.539
65932W        W38280   9.837  44.776  12.888
65933W        W38281  23.186  18.065   0.299
65934W        W38282  24.598  39.971   0.805
65935W        W38283  43.800  26.115  13.398
65936W        W38284   7.321  38.016  11.887
65937W        W38285  11.192  14.106   1.694
65938W        W38286   5.879  17.790  10.561
65939W        W38287  13.313  25.189   4.316
65940W        W38288  19.259  44.844   3.795
65941W        W38289  28.133  12.793   3.352
65942W        W38290  34.963  13.643   2.739
65943W        W38291  37.975  23.560  12.566
65944W        W38292  37.344  38.920  12.975
65945W        W38293  33.055  15.684  12.341
65946W        W38294  29.036   4.232   4.627
65947W        W38295  41.900  19.073   0.903
65948W        W38296  31.952  16.156   0.779
65949W        W38297  20.224  21.196   2.248
65950W        W38298  25.659   0.769   0.905
65951W        W38299  43.414   7.900  11.891
65952W        W38300   6.299  25.709   2.379
65953W        W38301   9.750  32.410   0.812
65954W        W38302  36.494  11.169   3.687
65955W        W38303  19.643  22.057  11.418
65956W        W38304  39.384  21.248   3.374
65957W        W38305  16.276  15.327  11.559
65958W        W38306  44.319  29.645   3.179
65959W        W38307  20.156   1.256  12.471
65960W        W38308  26.143  29.117  14.499
65961W        W38309  21.252  39.945   1.450
65962W        W38310  27.687  34.419  11.556
65963W        W38311  14.684  14.334  13.987
65964W        W38312  15.227  42.363  12.568
65965W        W38313  31.900  14.664  13.401
65966W        W38314  40.047   9.184   1.419
65967W        W38315  24.113  23.718   3.856
65968W        W38316   1.780  15.223   1.356
65969W        W38317  35.463  25.542   2.387
65970W        W38318  19.747  32.607  14.809
65971W        W38319  22.637  24.535   1.922
65972W        W38320  21.628  10.853   1.271
65973W        W38321   9.395  37.521  14.800
65974W        W38322   5.358  25.646   0.741
65975W        W38323  31.921  27.036   2.416
65976W        W38324  39.416   8.357   3.236
65977W        W38325  12.677  15.793   4.115
65978W        W38326  19.756   0.446   4.717
65979W        W38327  40.834  30.910  12.834
65980W        W38328  42.385   3.773  12.419
65981W        W38329  26.669  24.505   2.218
65982W        W38330  17.685  29.591   4.330
65983W        W38331   7.283  15.227   2.258
65984W        W38332  16.735   2.812   2.377
65985W        W38333  16.273  39.023  10.104
65986W        W38334  40.001  18.613  13.471
65987W        W38335   7.713   6.836   2.327
65988W        W38336  42.975  29.935  10.552
65989W        W38337  12.301   3.814  10.421
65990W        W38338  27.475  18.602  10.912
65991W        W38339   3.843  30.016  14.513
65992W        W38340  14.613  21.217  13.337
65993W        W38341  25.677  34.005  11.390
65994W        W38342   0.306   2.275   1.325
65995W        W38343  23.058  33.998   0.249
65996W        W38344  10.155   4.294   3.187
65997W        W38345  12.742  32.538  12.476
65998W        W38346  27.589  29.010   3.181
65999W        W38347  35.500  28.659  13.837
66000W        W38348  37.570  23.190   3.705
66001W        W38349  33.471  26.675   4.603
66002W        W38350   8.204  20.213   3.215
66003W        W38351   6.701  12.318   1.416
66004W        W38352  24.990  29.117   1.921
66005W        W38353  15.725   8.313  10.554
66006W        W38354  11.842  27.985  10.051
66007W        W38355  16.627   5.767   3.303
66008W        W38356  25.589  13.620   0.806
66009W        W38357  42.521   7.822   3.752
66010W        W38358  12.126  18.140  14.324
66011W        W38359  27.053   9.164  14.462
66012W        W38360  15.651  42.442   1.420
66013W        W38361  36.015  19.737  13.847
66014W        W38362   0.261  13.161  10.982
66015W        W38363  21.537  33.460   1.850
66016W        W38364  29.458  44.263  10.510
66017W        W38365   7.705  12.333   1.791
66018W        W38366  19.695  31.422   4.804
66019W        W38367  23.217   4.878   4.688
66020W        W38368   3.844  31.905  12.868
66021W        W38369   1.898   8.826  11.032
66022W        W38370  39.528  24.716  10.523
66023W        W38371  36.349  28.453  13.017
66024W        W38372  36.503  16.312   2.723
66025W        W38373   7.840  17.769  12.424
66026W        W38374   2.414  36.072  13.826
66027W        W38375   2.445  11.654  14.812
66028W        W38376  24.572   5.831  12.531
66029W        W38377   3.732  44.354   1.445
66030W        W38378  36.069  23.035  14.386
66031W        W38379  43.859  11.691   4.181
66032W        W38380  37.016   8.223   1.238
66033W        W38381  37.358   1.777   4.736
66034W        W38382  11.777  14.147   4.136
66035W        W38383   6.410  28.575  14.971
66036W        W38384  28.593  19.742  13.432
66037W        W38385  36.074  42.516   3.315
66038W        W38386   7.907  42.022  14.990
66039W        W38387   5.849  19.273   1.382
66040W        W38388   9.662  41.472   2.680
66041W        W38389  19.551  14.716  11.991
66042W        W38390  10.853  25.987   2.747
66043W        W38391  14.645  32.003  12.568
66044W        W38392  33.059  22.241  11.383
66045W        W38393  23.635  24.513   0.353
66046W        W38394   0.883  15.671   1.771
66047W        W38395   5.904  24.183   0.307
66048W        W38396  21.134   7.840   2.265
66049W        W38397  41.350  22.235  12.010
66050W        W38398   4.822  15.317  12.956
66051W        W38399  20.177   4.758   4.787
66052W        W38400  36.495  13.656  10.945
66053W        W38401  36.056   8.400  14.320
66054W        W38402  16.590  29.657   0.898
66055W        W38403  44.416  43.887   0.744
66056W        W38404  20.525  35.521   1.348
66057W        W38405   0.456   9.788   2.400
66058W        W38406  43.814  18.731   3.669
66059W        W38407  28.666  44.919  14.945
66060W        W38408  25.199   8.747  14.427
66061W        W38409  17.292  17.714   2.297
66062W        W38410  42.474  16.200   0.482
66063W        W38411  34.450   7.181  11.123
66064W        W38412  18.646  11.809   4.189
66065W        W38413  33.064  41.031   0.423
66066W        W38414  20.710  30.923   0.931
66067W        W38415  11.802  14.791  13.884
66068W        W38416  21.043  38.481  13.446
66069W        W38417  29.454  21.053  10.126
66070W        W38418  31.969   2.395   0.375
66071W        W38419  30.133  42.526  12.386
66072W        W38420  23.184  42.024  10.435
66073W        W38421   2.864  12.347  14.485
66074W        W38422   7.220   8.697  14.297
66075W        W38423  18.077  38.333  12.420
66076W        W38424   9.843   3.423   0.896
66077W        W38425  42.933  27.117   0.956
66078W        W38426   1.355  11.714   1.439
66079W        W38427  30.028   3.830  10.624
66080W        W38428   7.255  44.988   3.634
66081W        W38429  20.196  25.619   3.859
66082W        W38430  11.251  34.099   3.164
66083W        W38431  28.557  44.372   0.302
66084W        W38432  33.454   8.221   4.190
66085W        W38433  41.820  32.613  13.858
66086W        W38434  37.477  21.542   1.933
66087W        W38435  34.870  42.852  11.072
66088W        W38436   4.920  16.736  13.995
66089W        W38437   2.441  32.580  10.559
66090W        W38438   0.972   7.797  12.496
66091W        W38439  38.361  19.258   1.220
66092W        W38440   7.793   2.915  13.923
66093W        W38441  28.617  31.596  10.553
66094W        W38442  17.168  24.032  12.577
66095W        W38443  27.619  10.820  14.988
66096W        W38444  16.122   0.777  12.936
66097W        W38445  11.765   9.188   3.233
66098W        W38446  42.363  30.462   1.307
66099W        W38447  15.710  26.201  11.478
66100W        W38448  30.650  38.373   1.426
66101W        W38449  30.109  32.392  14.364
66102W        W38450  38.937  34.538  10.056
66103W        W38451  40.985  35.455  14.343
66104W        W38452  31.934  32.601   4.218
66105W        W38453  42.280  11.270  10.558
66106W        W38454  16.616  34.514   3.300
66107W        W38455  13.303  38.440   4.787
66108W        W38456  37.835   6.790  10.481
66109W        W38457   2.336   9.833   4.686
66110W        W38458  16.105   4.860  12.946
66111W        W38459  15.129  16.162   2.766
66112W        W38460  32.116  14.250   2.185
66113W        W38461  33.106  36.017   3.292
66114W        W38462  30.011  30.597  10.432
66115W        W38463   2.814  36.400   3.293
66116W        W38464  20.194  11.775   1.851
66117W        W38465  20.255  17.715  12.982
66118W        W38466  29.469   8.162   4.337
66119W        W38467  41.527  44.305   0.419
66120W        W38468   8.206  19.057  14.394
66121W        W38469  11.327  31.608   3.815
66122W        W38470  24.981  25.210   1.229
66123W        W38471  23.702  39.373   0.381
66124W        W38472   5.267  12.704   4.636
66125W        W38473  30.559   7.802  12.525
66126W        W38474  36.999   2.403  11.112
66127W        W38475  15.120  29.600   3.730
66128W        W38476   0.906  25.495  11.612
66129W        W38477   2.882  15.258   0.304
66130W        W38478   7.733   6.825  11.986
66131W        W38479  11.799   2.758  10.571
66132W        W38480  41.851  32.529   1.722
66133W        W38481   6.921  30.947   0.789
66134W        W38482  13.690   9.197   2.193
66135W        W38483  10.169  41.327  10.463
66136W        W38484  15.183  39.462   3.383
66137W        W38485   6.302  19.658   1.330
66138W        W38486  29.670  20.162   4.249
66139W        W38487  26.987   5.844   4.236
66140W        W38488  10.871  37.037  12.484
66141W        W38489  15.313  42.418   4.637
66142W        W38490   9.849  39.336   3.288
66143W        W38491  31.507  43.364   1.928
66144W        W38492  19.675   1.759  12.352
66145W        W38493  13.234  21.579  11.597
66146W        W38494   0.814  25.185   0.397
66147W        W38495  43.401  30.965  14.325
66148W        W38496  31.560  36.040   5.091
66149W        W38497  33.442  44.990  10.545
66150W        W38498  15.692   3.814   1.365
66151W        W38499   2.465  41.499   9.969
66152W        W38500   8.350  40.358  13.385
66153W        W38501  32.553   7.380  12.453
66154W        W38502   4.702   7.884   1.343
66155W        W38503  14.779  20.750  14.429
66156W        W38504  35.879  21.518   3.186
66157W        W38505  16.599  29.461   1.794
66158W        W38506   0.763   0.465  11.932
66159W        W38507  26.143  14.811  14.934
66160W        W38508  32.597   1.741  13.000
66161W        W38509  21.571  37.073  14.815
66162W        W38510  30.526  10.351   1.225
66163W        W38511   2.337   9.708  12.476
66164W        W38512  22.251  43.938   4.172
66165W        W38513   6.747  16.751  11.426
66166W        W38514  28.006  24.136  11.394
66167W        W38515  22.734   4.435   0.943
66168W        W38516  35.926   9.253  11.399
66169W        W38517   2.237  25.699  12.560
66170W        W38518  13.608  36.514   4.344
66171W        W38519   5.358  44.357   1.443
66172W        W38520  15.150   8.851   1.905
66173W        W38521  26.952  35.434  14.894
66174W        W38522   5.396  31.433   4.200
66175W        W38523  37.337  38.851   4.314
66176W        W38524  23.612  31.922  12.539
66177W        W38525   6.862  44.463   0.833
66178W        W38526  40.407  16.648   2.362
66179W        W38527  34.548   7.286   3.662
66180W        W38528   6.415   3.458  14.381
66181W        W38529  12.765   8.336  14.031
66182W        W38530  31.529   8.867  12.954
66183W        W38531  25.020  28.940   2.767
66184W        W38532  22.065  34.496  14.890
66185W        W38533  12.226   2.278   4.637
66186W        W38534  26.079  39.554  13.346
66187W        W38535  33.098  28.533   2.383
66188W        W38536  25.708   7.747  11.944
66189W        W38537  35.589  25.146   0.336
66190W        W38538  20.106  39.333  14.283
66191W        W38539  26.573  25.563  11.857
66192W        W38540   1.261  22.556  12.012
66193W        W38541  10.154   6.847  10.608
66194W        W38542  36.980  28.511   3.213
66195W        W38543  36.916   8.162  10.572
66196W        W38544   9.253  30.924  13.014
66197W        W38545   3.222  20.682   3.745
66198W        W38546  15.696  37.080   1.371
66199W        W38547  20.161   4.781  11.880
66200W        W38548  26.153  41.445   2.872
66201W        W38549  41.472  24.500   1.785
66202W        W38550  34.374  37.978  14.851
66203W        W38551  29.172  27.534   0.278
66204W        W38552  25.005  19.745  10.539
66205W        W38553  27.170  20.170   4.194
66206W        W38554  13.116   1.321   1.717
66207W        W38555  29.984  37.017  10.972
66208W        W38556  24.495  25.980   2.674
66209W        W38557  32.085   2.461   5.239
66210W        W38558  39.365   9.709   2.287
66211W        W38559  26.676  37.883   3.685
66212W        W38560   5.764  34.064   0.419
66213W        W38561  38.926  21.602  14.895
66214W        W38562  40.865  28.591   2.725
66215W        W38563   2.325  10.243  10.136
66216W        W38564  26.112  40.370   1.748
66217W        W38565  11.867  18.604  14.423
66218W        W38566   7.735   0.778  13.063
66219W        W38567   2.235   5.275   4.677
66220W        W38568  39.411   4.433  12.937
66221W        W38569  19.552   7.780   4.694
66222W        W38570  14.260  27.461  10.612
66223W        W38571  16.606  32.629  10.925
66224W        W38572  18.598  29.058  14.962
66225W        W38573  41.536  16.740   0.814
66226W        W38574   6.847   7.798  12.975
66227W        W38575  22.737  37.904   2.371
66228W        W38576   2.306  15.681   1.749
66229W        W38577   6.842  29.599  13.061
66230W        W38578   1.301  38.821  12.347
66231W        W38579   4.871  13.243  14.384
66232W        W38580   5.860  23.518   4.306
66233W        W38581  29.590  30.508   0.443
66234W        W38582   8.160  24.708   3.207
66235W        W38583  37.553  35.538   1.852
66236W        W38584   4.884  41.941  14.458
66237W        W38585  18.267  28.014  10.435
66238W        W38586  44.335  19.542   9.934
66239W        W38587   0.363  40.857   1.357
66240W        W38588   3.768   8.740  14.401
66241W        W38589  32.566  22.212  11.959
66242W        W38590  25.980   8.680   5.145
66243W        W38591   3.902   8.398  14.781
66244W        W38592  41.881  32.071  13.413
66245W        W38593   6.332  40.518  10.921
66246W        W38594  14.725   9.696   2.327
66247W        W38595   7.361   7.400  13.885
66248W        W38596   6.905  31.422  10.593
66249W        W38597   4.739  29.534   4.769
66250W        W38598  11.743  22.113  10.067
66251W        W38599  30.910   4.815  13.012
66252W        W38600  33.520  14.780   1.442
66253W        W38601  12.612  10.200  13.368
66254W        W38602  27.461   3.365  14.319
66255W        W38603   7.385  22.160  13.040
66256W        W38604  43.319  18.759  11.895
66257W        W38605   7.197  33.476   3.293
66258W        W38606  17.272  40.406   2.353
66259W        W38607  18.200   0.821   2.709
66260W        W38608  33.889  22.730  11.120
66261W        W38609  25.126   7.852   1.299
66262W        W38610  24.025   3.281  14.421
66263W        W38611   1.840  28.167  12.906
66264W        W38612   5.918  25.186   2.671
66265W        W38613   2.328   2.443   3.769
66266W        W38614  27.658   3.871   1.730
66267W        W38615  24.006  41.406  10.090
66268W        W38616  27.066  17.067  12.408
66269W        W38617  31.989  20.559  12.473
66270W        W38618  16.288   1.350   0.370
66271W        W38619  27.616  37.574  10.955
66272W        W38620  18.257  24.025  12.400
66273W        W38621  38.551   9.860  14.012
66274W        W38622  35.040  38.995  11.023
66275W        W38623  25.666  10.789  12.415
66276W        W38624  16.197  43.450   0.363
66277W        W38625  44.375  42.881  13.975
66278W        W38626   5.811  22.248   4.187
66279W        W38627  44.502  43.512   3.254
66280W        W38628  38.929  21.554  12.455
66281W        W38629   6.844  22.995  10.557
66282W        W38630  23.616  24.070   4.339
66283W        W38631  38.365  24.103   2.398
66284W        W38632   4.738   8.800   0.786
66285W        W38633  43.792  17.721  11.917
66286W        W38634  26.669  37.394   1.308
66287W        W38635  29.947  16.273  13.888
66288W        W38636  35.891  44.805   2.871
66289W        W38637  21.173  19.677  10.074
66290W        W38638   2.885   8.377  13.832
66291W        W38639  19.686  10.829  14.413
66292W        W38640   1.833  35.956   4.658
66293W        W38641  14.789  40.025  11.896
66294W        W38642  33.574  11.367  13.971
66295W        W38643  38.480  19.551   4.828
66296W        W38644  33.031  26.524  10.471
66297W        W38645  40.941   5.919   1.932
66298W        W38646   6.813  31.980  12.080
66299W        W38647  21.629  21.672   1.807
66300W        W38648  10.196  15.693   0.790
66301W        W38649  28.071  11.274  10.547
66302W        W38650  20.226   7.840  11.036
66303W        W38651  32.018  12.298  13.368
66304W        W38652  24.524  30.978  12.539
66305W        W38653   4.216  13.239  14.912
66306W        W38654  14.643   0.972   3.634
66307W        W38655  25.010  43.904   1.423
66308W        W38656  15.730  23.106  12.346
66309W        W38657  24.186  38.337  13.337
66310W        W38658  10.190  15.129  14.407
66311W        W38659  36.979  41.911  10.991
66312W        W38660  28.038  32.894  13.874
66313W        W38661  21.619   0.973  10.435
66314W        W38662  11.745   9.237  11.023
66315W        W38663  13.730  42.490  11.448
66316W        W38664  19.620  10.373  14.784
66317W        W38665  35.968  23.049  12.849
66318W        W38666   3.405  37.961   3.306
66319W        W38667  17.590  38.023   0.934
66320W        W38668   5.759   5.792  13.330
66321W        W38669  23.049  44.929  13.536
66322W        W38670  25.032   2.276  12.545
66323W        W38671   0.753  41.375   2.791
66324W        W38672   3.937  26.170   1.784
66325W        W38673  23.528  43.451   2.339
66326W        W38674  11.773   8.849   1.901
66327W        W38675  12.151   9.165   3.351
66328W        W38676   6.232  23.569   2.815
66329W        W38677  34.427  10.297  11.509
66330W        W38678  27.507   0.988  13.394
66331W        W38679   7.376  22.594  14.816
66332W        W38680  35.908  12.660   3.633
66333W        W38681   0.891   8.800  11.609
66334W        W38682   8.746  42.489   4.196
66335W        W38683  39.500   3.894   2.673
66336W        W38684   8.243  38.502  12.908
66337W        W38685  36.971  43.426  11.534
66338W        W38686  22.700  21.094  11.116
66339W        W38687  19.770  30.147   1.906
66340W        W38688  14.772  17.100  10.961
66341W        W38689  14.634   0.811   2.743
66342W        W38690  17.661  25.663   0.413
66343W        W38691   3.253   9.231  11.076
66344W        W38692   6.306  33.464   4.152
66345W        W38693  11.257  37.005  13.522
66346W        W38694  18.686   2.924   0.370
66347W        W38695  36.959  42.358   2.383
66348W        W38696  30.115  40.333   1.811
66349W        W38697  32.996  20.734   2.820
66350W        W38698  40.496  36.366  14.772
66351W        W38699  34.404  34.385  13.809
66352W        W38700  28.083  10.737   1.352
66353W        W38701  33.929  30.116   4.207
66354W        W38702  16.765  17.070   0.315
66355W        W38703  38.428  28.160   0.333
66356W        W38704  43.342  28.057  14.415
66357W        W38705  37.953  13.145  14.028
66358W        W38706   2.892  17.695   1.337
66359W        W38707  21.059  17.610  13.951
66360W        W38708  30.458   1.747  11.997
66361W        W38709  33.468   6.383   1.875
66362W        W38710   3.806  14.301   0.868
66363W        W38711  21.541  21.067  11.391
66364W        W38712  17.588  28.498  13.338
66365W        W38713  21.750  20.261  11.386
66366W        W38714   3.304   8.279  14.899
66367W        W38715   8.173  40.351   0.374
66368W        W38716   4.778  12.321   2.749
66369W        W38717  32.398  34.103  14.969
66370W        W38718  29.461  39.832  14.767
66371W        W38719  41.005  38.856  12.945
66372W        W38720   1.865  13.737  11.519
66373W        W38721  10.798  31.507  10.585
66374W        W38722  39.846   7.279  10.935
66375W        W38723  11.351  39.022  14.782
66376W        W38724  29.005   5.264   3.195
66377W        W38725  22.694  40.936   4.659
66378W        W38726  35.060  37.477   4.151
66379W        W38727  22.630   0.294  10.407
66380W        W38728  16.636   0.795  11.026
66381W        W38729  29.612  39.913  13.927
66382W        W38730   4.745  27.105   4.652
66383W        W38731  22.014   1.328  12.076
66384W        W38732   6.679  32.407   2.810
66385W        W38733   7.708   1.370  12.945
66386W        W38734  28.530  30.103   1.790
66387W        W38735  12.797   6.888   3.349
66388W        W38736   8.782  15.135  13.819
66389W        W38737  41.297  30.530  13.820
66390W        W38738  29.080  15.589   0.459
66391W        W38739  29.662  13.602  11.380
66392W        W38740  32.958  28.641   1.860
66393W        W38741  20.664  11.700   4.650
66394W        W38742  36.878  41.471  12.397
66395W        W38743  31.916   9.694   0.264
66396W        W38744  17.771   6.718  13.430
66397W        W38745  28.091  25.038  10.499
66398W        W38746  11.247  27.666   1.372
66399W        W38747  42.987   1.833  12.568
66400W        W38748  10.203   8.268  12.477
66401W        W38749  35.915  37.542  14.783
66402W        W38750  26.630  30.517   2.334
66403W        W38751  10.768  18.069  12.428
66404W        W38752   4.743  11.660  11.985
66405W        W38753   0.850   5.918  10.516
66406W        W38754  28.937   8.308   0.889
66407W        W38755  12.777   7.704  11.462
66408W        W38756  17.153   8.853  10.624
66409W        W38757  26.968   6.894  11.542
66410W        W38758  36.544  40.415   4.658
66411W        W38759  31.489   6.328  12.343
66412W        W38760  31.458  44.876   0.276
66413W        W38761   9.165  20.664  12.938
66414W        W38762  44.462  33.420   3.805
66415W        W38763   9.830  35.070   0.374
66416W        W38764  23.698   3.757   2.199
66417W        W38765  39.402  28.022  11.475
66418W        W38766  44.358  30.612   0.271
66419W        W38767  16.090   9.709   0.900
66420W        W38768  25.059   9.337   2.246
66421W        W38769  35.055  20.161  12.914
66422W        W38770  22.522  43.017  12.387
66423W        W38771  17.713  43.876   3.239
66424W        W38772  36.956  12.636   0.952
66425W        W38773  17.796  36.979   2.711
66426W        W38774   9.830  20.267  11.523
66427W        W38775   0.859  28.639  11.448
66428W        W38776   8.207  21.621   3.741
66429W        W38777  10.769  25.067   0.904
66430W        W38778   1.916  44.436   4.778
66431W        W38779  21.128  27.159   4.315
66432W        W38780  41.486  40.003  11.046
66433W        W38781  37.340   7.683   2.264
66434W        W38782   6.356  15.801   0.931
66435W        W38783  11.735  15.134  13.038
66436W        W38784  23.104  23.493   3.195
66437W        W38785  30.466  24.529   2.379
66438W        W38786   4.931  36.376   4.349
66439W        W38787  26.976  27.477   2.871
66440W        W38788  40.819  24.635   1.417
66441W        W38789  30.917  18.086  14.892
66442W        W38790  40.544  40.858   3.147
66443W        W38791   6.768  23.134  12.531
66444W        W38792  14.114   3.281  11.875
66445W        W38793  20.740  39.969   0.346
66446W        W38794  20.702  20.729   1.934
66447W        W38795  37.576  26.653  10.907
66448W        W38796   9.868  24.500   0.779
66449W        W38797  17.161  16.107   0.433
66450W        W38798  24.482  36.480   0.483
66451W        W38799  44.901   8.877   4.305
66452W        W38800   7.413  20.550   0.348
66453W        W38801  24.083  28.490  13.452
66454W        W38802  39.467  13.297  11.442
66455W        W38803  21.745  29.980   2.355
66456W        W38804  38.470  30.005  12.488
66457W        W38805  22.745  41.878  13.396
66458W        W38806  18.723  36.005   3.324
66459W        W38807  20.700  17.163  12.376
66460W        W38808  14.180  16.260   2.295
66461W        W38809  26.649   4.290  10.412
66462W        W38810  11.254  22.080   2.301
66463W        W38811  15.778  36.083  13.843
66464W        W38812  19.216   7.887   0.344
66465W        W38813  35.949  38.407  12.879
66466W        W38814  24.192  29.547   0.835
66467W        W38815  21.532   1.271   0.267
66468W        W38816  43.870   9.742   2.343
66469W        W38817   4.439  36.021   1.920
66470W        W38818   7.797  40.307   4.628
66471W        W38819  41.797  27.070   3.672
66472W        W38820   1.880  34.459  12.823
66473W        W38821  12.142   2.941  13.524
66474W        W38822   7.281  37.915   0.959
66475W        W38823  20.560   6.879   1.357
66476W        W38824  37.849   4.812  10.498
66477W        W38825   9.775  22.512   9.589
66478W        W38826  32.591  29.565   1.822
66479W        W38827   5.404   1.469   0.826
66480W        W38828   5.388  42.884  12.455
66481W        W38829  16.318   3.777  11.879
66482W        W38830  42.442  16.777  14.959
66483W        W38831  18.670  14.652   2.900
66484W        W38832  35.520  38.461   0.779
66485W        W38833  15.747  30.060  13.973
66486W        W38834  36.453  44.300  11.984
66487W        W38835  32.423  32.411   0.843
66488W        W38836   3.802  19.699   3.820
66489W        W38837  13.338   8.192   1.917
66490W        W38838  13.345  32.086  12.477
66491W        W38839  44.302  39.930   3.310
66492W        W38840  29.576  32.474   3.635
66493W        W38841  34.060  40.896   4.675
66494W        W38842   3.860  27.578   0.422
66495W        W38843  25.641  21.661  10.947
66496W        W38844  13.737  19.586  13.508
66497W        W38845  32.091   1.791   3.171
66498W        W38846  23.504  41.435   4.600
66499W        W38847   2.445   4.423  10.570
66500W        W38848  33.976  36.058   3.182
66501W        W38849  15.227   4.860  11.102
66502W        W38850   4.213  38.537   2.346
66503W        W38851  31.441   7.378  11.902
66504W        W38852  24.589  16.106   2.883
66505W        W38853  21.663  30.116   1.428
66506W        W38854   4.234  24.715  11.379
66507W        W38855   5.840   1.425  13.836
66508W        W38856  23.037  27.168  11.895
66509W        W38857  34.476   7.413   2.321
66510W        W38858   4.744  32.040   3.630
66511W        W38859   0.749   0.773  13.983
66512W        W38860  28.530  15.110  12.371
66513W        W38861  14.763  12.727  14.507
66514W        W38862   4.450  38.856   4.122
66515W        W38863  17.221  30.492   1.774
66516W        W38864  23.211   3.229   4.637
66517W        W38865  33.085  31.902   0.300
66518W        W38866  44.799  10.683   4.266
66519W        W38867  42.870   1.775  13.399
66520W        W38868  24.489   2.305  12.579
66521W        W38869  28.952  15.578  13.314
66522W        W38870  25.074  16.108  12.030
66523W        W38871  39.351  27.147   1.430
66524W        W38872  32.455  14.153   1.884
66525W        W38873   6.843  39.955   3.174
66526W        W38874  16.773   8.240  11.505
66527W        W38875  28.003  23.217   2.329
66528W        W38876  30.135  40.474   0.255
66529W        W38877  35.543  16.120   3.242
66530W        W38878  34.069  41.817  12.514
66531W        W38879   5.738  37.440   1.227
66532W        W38880  31.986   3.371   4.147
66533W        W38881   6.724  30.970   1.432
66534W        W38882  18.068   0.893  10.531
66535W        W38883  33.527  19.688  10.979
66536W        W38884  11.316  29.491   2.189
66537W        W38885  17.232   5.927   4.291
66538W        W38886  33.090  11.128  11.071
66539W        W38887   9.688  22.652   1.286
66540W        W38888  36.033  30.123   3.669
66541W        W38889  24.067   9.732   1.884
66542W        W38890  18.617  41.004   3.306
66543W        W38891  27.603  33.613   4.302
66544W        W38892  10.256   6.703   1.327
66545W        W38893  16.590  43.901  11.524
66546W        W38894  17.247  22.660  13.946
66547W        W38895  10.864  31.094   0.791
66548W        W38896  11.223  37.067  12.885
66549W        W38897  34.579   0.345  12.525
66550W        W38898  43.280  44.411  11.921
66551W        W38899   8.817   0.931  12.501
66552W        W38900  40.975  21.029  14.309
66553W        W38901  40.873  17.577  12.903
66554W        W38902  23.698  43.969  12.542
66555W        W38903  25.637  33.491   1.698
66556W        W38904  28.576  28.155  13.347
66557W        W38905  37.849  31.975  11.010
66558W        W38906  26.951  22.009  12.899
66559W        W38907   3.381  36.474  13.795
66560W        W38908  43.808  32.420   0.957
66561W        W38909  17.681   8.792  10.574
66562W        W38910  39.035  37.543  11.936
66563W        W38911   8.310  23.138  14.794
66564W        W38912  42.800  39.064   1.429
66565W        W38913  12.233  42.911  12.899
66566W        W38914  15.804  27.013   4.816
66567W        W38915  32.132  27.159   3.828
66568W        W38916  29.525  14.175  12.990
66569W        W38917  10.824   5.221   1.212
66570W        W38918  28.488  20.127   0.331
66571W        W38919  36.009  36.985   0.451
66572W        W38920  28.040   1.451   0.833
66573W        W38921  42.485  22.118   4.123
66574W        W38922  27.943   1.444   0.254
66575W        W38923  28.565  14.204   5.251
66576W        W38924  15.186  27.173  12.002
66577W        W38925  19.749  13.191   4.772
66578W        W38926  38.404  33.462  10.524
66579W        W38927  14.171  13.754  12.068
66580W        W38928  30.109  10.150  14.452
66581W        W38929  23.057  42.464  14.349
66582W        W38930  22.734  13.641   1.745
66583W        W38931  22.721   3.953   2.382
66584W        W38932  30.552  12.120  11.912
66585W        W38933  16.635  26.062  14.401
66586W        W38934  36.845  38.956   1.242
66587W        W38935  38.923  38.021   4.276
66588W        W38936  23.112   0.340  11.877
66589W        W38937  44.317  10.840   0.372
66590W        W38938  19.096  43.988  11.570
66591W        W38939  28.113  20.650   3.859
66592W        W38940   4.800  31.964   5.306
66593W        W38941   1.943  24.591   2.192
66594W        W38942  44.839  37.874   3.731
66595W        W38943  23.565   4.814   4.225
66596W        W38944  38.029  31.908  10.116
66597W        W38945  41.975  31.009  11.893
66598W        W38946  14.301  25.129   4.141
66599W        W38947   0.954  37.945   3.853
66600W        W38948  21.182  35.419   4.126
66601W        W38949  27.997   9.853   0.915
66602W        W38950  12.687  17.121   3.843
66603W        W38951  40.896   0.944  12.075
66604W        W38952  42.839  32.954   2.777
66605W        W38953  28.539   4.352  12.557
66606W        W38954  23.664  38.847  12.501
66607W        W38955  22.586  38.414  14.019
66608W        W38956  17.756  38.443  12.465
66609W        W38957   7.328  20.529   9.932
66610W        W38958  40.967  25.039   4.128
66611W        W38959  29.089  18.180   1.851
66612W        W38960  34.590  13.716  11.480
66613W        W38961  36.031  16.572  11.882
66614W        W38962   7.318  35.486   4.627
66615W        W38963   9.690  33.061  10.934
66616W        W38964  13.197  16.106  14.923
66617W        W38965  36.900  36.359  10.959
66618W        W38966  27.020  42.379  11.922
66619W        W38967  22.074  27.116  14.306
66620W        W38968  44.910  41.301  10.942
66621W        W38969  31.076  31.413   4.122
66622W        W38970  35.574  17.685   2.254
66623W        W38971  17.110  21.666  13.350
66624W        W38972  43.021  36.016  11.891
66625W        W38973  22.589  29.566   3.318
66626W        W38974   5.393   2.255  13.020
66627W        W38975   0.255  26.196  11.468
66628W        W38976  16.256  35.602   2.404
66629W        W38977  20.657   4.893  12.339
66630W        W38978  25.029  17.298  14.847
66631W        W38979  42.348  27.511  10.480
66632W        W38980  28.187   0.852   4.189
66633W        W38981  35.485  43.811   4.147
66634W        W38982  17.714   3.821   0.287
66635W        W38983  13.635   5.911  14.931
66636W        W38984  22.636   7.795   2.778
66637W        W38985  30.113  25.125   1.345
66638W        W38986  12.277  14.628  13.494
66639W        W38987  33.400  15.284  14.859
66640W        W38988  13.843  24.544   4.763
66641W        W38989   0.938  29.426  11.897
66642W        W38990  22.023  35.369  11.480
66643W        W38991   6.225  21.053  10.025
66644W        W38992   6.262  20.240  14.933
66645W        W38993  22.561   0.419  13.354
66646W        W38994   0.960  15.245  10.989
66647W        W38995  30.501  32.989  11.121
66648W        W38996   0.385   3.217   4.706
66649W        W38997  21.563  35.478   3.753
66650W        W38998  24.720   8.899  13.953
66651W        W38999   4.235  30.915   2.342
66652W        W39000  38.462  33.912   2.696
66653W        W39001  30.025  34.992  12.938
66654W        W39002  21.229   1.975  11.981
66655W        W39003  10.776  32.590   3.296
66656W        W39004  40.527  25.053   5.088
66657W        W39005  16.187  43.488  14.950
66658W        W39006  21.075  28.072   3.856
66659W        W39007  44.953  27.941   1.286
66660W        W39008  21.079   6.754   4.271
66661W        W39009  14.799  15.122  14.279
66662W        W39010  26.092  43.463  10.571
66663W        W39011  42.886  33.491   3.328
66664W        W39012   4.326  15.170  13.455
66665W        W39013  43.970   3.813   0.411
66666W        W39014  28.088  34.027   4.252
66667W        W39015  20.241  30.602   2.685
66668W        W39016  34.549  25.642  11.108
66669W        W39017  24.520  31.026  14.826
66670W        W39018  40.321  39.955  12.397
66671W        W39019  38.903  14.315  11.980
66672W        W39020   1.795  30.469   4.608
66673W        W39021  33.420  18.606   1.299
66674W        W39022  36.513  28.154   1.825
66675W        W39023   7.907  21.678  10.093
66676W        W39024   2.834  19.615   2.896
66677W        W39025  21.060  42.423  10.434
66678W        W39026   9.391  31.465  10.586
66679W        W39027  12.844  31.516  13.843
66680W        W39028   9.715  29.603   3.281
66681W        W39029  26.120  22.017  14.369
66682W        W39030  23.205   8.900   0.729
66683W        W39031  24.994   0.409  10.641
66684W        W39032  37.520   5.844   4.684
66685W        W39033  29.492   6.222   2.704
66686W        W39034   5.736   9.702  14.786
66687W        W39035  20.731  29.987  12.977
66688W        W39036  37.038   3.830  14.472
66689W        W39037  38.025  25.498   3.288
66690W        W39038  21.084  20.266  14.957
66691W        W39039  38.983   0.862   1.782
66692W        W39040   6.319   0.747   1.743
66693W        W39041  19.605  39.004   2.809
66694W        W39042  14.164   0.988   0.315
66695W        W39043   1.453   3.834  13.944
66696W        W39044  27.475  32.949   0.288
66697W        W39045   1.796  35.859   2.398
66698W        W39046  12.748  11.823   1.924
66699W        W39047  38.911   2.431  11.911
66700W        W39048  30.970  34.428  13.310
66701W        W39049  38.037  10.849  14.808
66702W        W39050  31.150   5.871   1.397
66703W        W39051  26.528  30.452  10.009
66704W        W39052   7.825  14.154  11.400
66705W        W39053   3.822   4.264  14.915
66706W        W39054  37.941  35.393  13.887
66707W        W39055  33.484   3.221   1.803
66708W        W39056  39.990  31.154  14.977
66709W        W39057  23.604  27.675  13.830
66710W        W39058   3.785  26.095   2.686
66711W        W39059  15.692  35.953   0.364
66712W        W39060  12.214   7.860   4.636
66713W        W39061  43.917  31.559   1.218
66714W        W39062   2.864  26.200   1.425
66715W        W39063  42.342  15.672   0.795
66716W        W39064  19.720  28.680  11.589
66717W        W39065  23.200  22.532  11.862
66718W        W39066  33.009  40.505  11.466
66719W        W39067  30.492  21.199  12.398
66720W        W39068  12.265  38.488   2.685
66721W        W39069   9.650  32.089   5.574
66722W        W39070  13.133  34.404   2.703
66723W        W39071  32.600  30.105  14.484
66724W        W39072   1.905  44.930  13.995
66725W        W39073  28.181   1.846   0.331
66726W        W39074  27.129  24.015  11.056
66727W        W39075  25.196  14.699  11.870
66728W        W39076  17.098  24.606  13.832
66729W        W39077  30.105  12.704  14.477
66730W        W39078   1.846  18.579   0.371
66731W        W39079  13.166  18.255  14.490
66732W        W39080  11.774  38.963   5.286
66733W        W39081  19.046  14.281  12.920
66734W        W39082  40.453  44.283   4.331
66735W        W39083  32.563  24.559  10.615
66736W        W39084  30.426  22.618   2.695
66737W        W39085  31.081  14.698   4.705
66738W        W39086  30.473  28.547  13.491
66739W        W39087   1.784  12.154   4.826
66740W        W39088  30.563  10.208   3.725
66741W        W39089  41.976  31.580   0.961
66742W        W39090  35.040  23.695   0.949
66743W        W39091  44.485  16.690   4.262
66744W        W39092   7.819   8.291   2.314
66745W        W39093  27.951  15.682  10.452
66746W        W39094  32.958   2.930  14.974
66747W        W39095  42.457   4.934   2.401
66748W        W39096  10.144  39.909  11.942
66749W        W39097  14.139   9.304  11.596
66750W        W39098  12.707  34.590   4.317
66751W        W39099  33.105  14.656   3.151
66752W        W39100  41.898  27.091   4.232
66753W        W39101  14.244  14.664  14.806
66754W        W39102   3.306  14.628   5.220
66755W        W39103  11.181   5.256  10.486
66756W        W39104  30.963  19.776   4.666
66757W        W39105  33.421  34.377   5.192
66758W        W39106  14.243  24.160  11.062
66759W        W39107   6.303   6.335  10.974
66760W        W39108  31.122  40.861   2.343
66761W        W39109  24.604  13.241  10.432
66762W        W39110  38.849   0.462  14.281
66763W        W39111  36.386   6.754   9.992
66764W        W39112   2.913  38.904  14.985
66765W        W39113   8.233   6.338   0.285
66766W        W39114   1.464  38.031   0.354
66767W        W39115  19.048  14.304   2.726
66768W        W39116  14.138   9.150   3.771
66769W        W39117   7.333  25.198   4.734
66770W        W39118   8.829  19.275  12.880
66771W        W39119  18.217  20.258   0.317
66772W        W39120  34.480  39.026   3.287
66773W        W39121  22.172  18.622   3.256
66774W        W39122   7.731  40.804  14.971
66775W        W39123  28.456  24.557   0.468
66776W        W39124  16.097   0.381  11.060
66777W        W39125  34.932  30.994   0.962
66778W        W39126  34.485  42.858  14.406
66779W        W39127  25.092  30.531   2.417
66780W        W39128  44.378  44.001   4.659
66781W        W39129   1.247  20.591  13.969
66782W        W39130   2.738  14.627   4.238
66783W        W39131  16.229  17.730   4.318
66784W        W39132  27.540  21.043   0.824
66785W        W39133   8.362  18.052   0.878
66786W        W39134   6.308  34.932   0.392
66787W        W39135  39.046  25.633  13.806
66788W        W39136  40.819  41.819  14.999
66789W        W39137  13.792  26.644  12.389
66790W        W39138  27.616   8.352   0.781
66791W        W39139  33.054  36.395   9.989
66792W        W39140   5.926  19.559   0.797
66793W        W39141  38.360  19.577  10.940
66794W        W39142   8.288   1.774  12.084
66795W        W39143   4.822  17.070   2.813
66796W        W39144  18.225   3.730   0.321
66797W        W39145  30.989  16.786  13.320
66798W        W39146   5.300  29.082   0.811
66799W        W39147  11.670  40.014  13.794
66800W        W39148  39.875  21.734   0.391
66801W        W39149  21.515  37.959  14.774
66802W        W39150  23.610   3.364   3.339
66803W        W39151  22.172  25.079  14.827
66804W        W39152  34.436   0.917   0.447
66805W        W39153  40.032  28.584  10.962
66806W        W39154  31.903  30.650   3.344
66807W        W39155   6.370  39.907   0.393
66808W        W39156  41.894  19.078   1.417
66809W        W39157  20.703  40.875   4.142
66810W        W39158   4.770  13.739  12.374
66811W        W39159   3.331  30.484   2.383
66812W        W39160  22.110  35.516   3.644
66813W        W39161  39.973  42.387  12.976
66814W        W39162   9.779  35.382  11.038
66815W        W39163   6.399  21.615   3.724
66816W        W39164  25.182  22.655  11.564
66817W        W39165  39.323  44.910   4.286
66818W        W39166  29.968  21.053   3.667
66819W        W39167   0.414  36.969  13.933
66820W        W39168  26.008  27.583   2.903
66821W        W39169  42.489  23.719   4.113
66822W        W39170  33.095  40.490   3.741
66823W        W39171  17.241  32.127   1.242
66824W        W39172  11.168  11.783   1.724
66825W        W39173  22.507  14.639  11.408
66826W        W39174  16.765  19.617  11.506
66827W        W39175  41.318  14.325   4.347
66828W        W39176  44.283  39.864  11.531
66829W        W39177  42.884  39.484   0.797
66830W        W39178  26.119  15.294  11.605
66831W        W39179  19.625   9.274  10.604
66832W        W39180  30.462  22.079  13.444
66833W        W39181  43.827   9.353   2.251
66834W        W39182  37.409  44.411  10.938
66835W        W39183  26.621  34.515  14.920
66836W        W39184  12.257  43.435   1.740
66837W        W39185  36.436  23.240  11.420
66838W        W39186   1.858  31.541   1.865
66839W        W39187  19.156   2.412  11.867
66840W        W39188   2.257  20.089   2.801
66841W        W39189  41.940   7.809   1.306
66842W        W39190  29.589  41.389   1.834
66843W        W39191  37.574  23.595  11.957
66844W        W39192  18.711   3.719  13.500
66845W        W39193  44.766  11.206  12.074
66846W        W39194   9.385   5.396   0.834
66847W        W39195  23.586   9.882   0.342
66848W        W39196   1.812  13.181   4.289
66849W        W39197  32.515   9.158  12.990
66850W        W39198  43.427  14.661  12.507
66851W        W39199  26.118  28.991   3.827
66852W        W39200  25.608  41.912  10.978
66853W        W39201  28.478  15.580  14.857
66854W        W39202  15.761  15.167   1.833
66855W        W39203  29.959  33.972  13.458
66856W        W39204  43.451  14.138   4.674
66857W        W39205  44.487   3.334   4.279
66858W        W39206  41.473  42.798   1.320
66859W        W39207   9.301   2.284  13.952
66860W        W39208  41.324  20.684  13.334
66861W        W39209   1.440  11.735   3.358
66862W        W39210  39.808  21.135  10.909
66863W        W39211  40.046  14.329   0.402
66864W        W39212  24.573  34.992   1.872
66865W        W39213  21.557  22.643  12.079
66866W        W39214  18.571   1.842  10.157
66867W        W39215  17.077   2.238   1.447
66868W        W39216  18.756  25.077   5.145
66869W        W39217  41.529  41.484   1.895
66870W        W39218  28.463  28.676  14.022
66871W        W39219  24.147   2.416  14.435
66872W        W39220  11.251  31.007   0.319
66873W        W39221  22.072  39.375   1.430
66874W        W39222  25.091  27.968  13.056
66875W        W39223  28.144  20.206   4.776
66876W        W39224  16.136  43.919  13.386
66877W        W39225  19.746  26.497  11.450
66878W        W39226  15.194  10.877  11.540
66879W        W39227  42.350  22.010  12.362
66880W        W39228  11.216   2.749   2.400
66881W        W39229  39.372  42.782  14.407
66882W        W39230  26.511  44.497   1.748
66883W        W39231  15.109  22.079  11.537
66884W        W39232  31.630  32.976   3.711
66885W        W39233  16.225  12.235  13.876
66886W        W39234  21.593  20.725  13.527
66887W        W39235  23.087  13.775  12.002
66888W        W39236  16.611  43.441   2.820
66889W        W39237   2.898  20.126  12.390
66890W        W39238   0.754  43.772   1.764
66891W        W39239  24.645  33.067   4.759
66892W        W39240  31.537  32.013   3.239
66893W        W39241  22.594  28.644   2.795
66894W        W39242   5.824  43.931   3.206
66895W        W39243   7.895  25.662  14.928
66896W        W39244  44.346   9.793  10.931
66897W        W39245   8.362  24.144  14.944
66898W        W39246  33.936  43.856  12.450
66899W        W39247   6.222  33.876  12.028
66900W        W39248   1.246  41.292   0.804
66901W        W39249  13.274  43.405  13.352
66902W        W39250  44.920  33.464   4.792
66903W        W39251   6.243  37.401   1.922
66904W        W39252  33.487  35.061   1.395
66905W        W39253  44.826  38.547  11.873
66906W        W39254   9.686  13.702   4.644
66907W        W39255   0.356  33.395  12.378
66908W        W39256  44.859  11.811  12.413
66909W        W39257  43.995  38.328  14.992
66910W        W39258  26.640  11.822  13.007
66911W        W39259  32.130  20.227   1.801
66912W        W39260  29.607  13.796   2.353
66913W        W39261  22.642  30.144  12.051
66914W        W39262  25.021   2.731   0.766
66915W        W39263  11.210  13.325   1.234
66916W        W39264   6.848  37.531  12.951
66917W        W39265  38.072  13.628  13.987
66918W        W39266  36.371  18.735   2.319
66919W        W39267  31.455   0.883   3.821
66920W        W39268  34.079  39.378   1.918
66921W        W39269  29.516  15.270   1.428
66922W        W39270  39.423  20.672  12.944
66923W        W39271  14.637  34.565   0.754
66924W        W39272  26.598  28.603  13.919
66925W        W39273  42.865  10.236  13.908
66926W        W39274  18.122  15.122  11.882
66927W        W39275  30.033  42.423  13.043
66928W        W39276   8.758   6.832   3.196
66929W        W39277  33.504  39.512  11.415
66930W        W39278  41.404  25.028  13.962
66931W        W39279  30.585  26.610  11.064
66932W        W39280  42.942  40.846   4.747
66933W        W39281  43.356  20.077  13.971
66934W        W39282  25.699   9.305  10.531
66935W        W39283  13.295  37.568  11.440
66936W        W39284   3.439  26.041   1.356
66937W        W39285  23.005  28.144   2.699
66938W        W39286  21.645   6.868   1.841
66939W        W39287  12.178   0.386  14.492
66940W        W39288  23.048  12.294   2.268
66941W        W39289  32.081  28.670  14.394
66942W        W39290  12.298  24.701   2.324
66943W        W39291  31.589  20.254  12.056
66944W        W39292   0.294  23.017  14.817
66945W        W39293  37.358  11.727   2.200
66946W        W39294  35.863  12.171   4.657
66947W        W39295  30.070  34.533   2.828
66948W        W39296  42.333  22.684  13.472
66949W        W39297   5.787   7.749  14.798
66950W        W39298  43.337  38.560  12.025
66951W        W39299   0.878  28.143   1.859
66952W        W39300  23.993   0.291   0.247
66953W        W39301  14.288   0.785   1.263
66954W        W39302  13.178  20.131   1.837
66955W        W39303  20.653   3.772  13.522
66956W        W39304   7.780  41.415  12.368
66957W        W39305   3.294  40.042  11.548
66958W        W39306  28.665   4.927  12.080
66959W        W39307  14.127  32.473   0.915
66960W        W39308   1.909  17.236  13.320
66961W        W39309  16.641  16.782  14.932
66962W        W39310  41.298   9.715   4.266
66963W        W39311   3.935  27.194  13.949
66964W        W39312   6.758  29.512  13.925
66965W        W39313  10.779  38.917  14.930
66966W        W39314  41.469  21.698   4.352
66967W        W39315   6.310  26.013  14.294
66968W        W39316  17.597  18.775   3.289
66969W        W39317   0.841  30.466  11.395
66970W        W39318  15.581   3.790  14.402
66971W        W39319  19.124  29.919   2.203
66972W        W39320  11.683   1.376   0.301
66973W        W39321  21.669   2.283  10.606
66974W        W39322   7.236  26.029  11.465
66975W        W39323   4.766   3.745   0.771
66976W        W39324  22.110  29.442  13.822
66977W        W39325  28.527  34.924   3.190
66978W        W39326  31.431  44.843  14.277
66979W        W39327   0.423  21.665  10.434
66980W        W39328   9.296  42.431  13.524
66981W        W39329  16.589  14.762  12.957
66982W        W39330   3.944   8.893  10.966
66983W        W39331  20.575  41.815  13.338
66984W        W39332  22.054  31.916   3.303
66985W        W39333  17.576   4.267  11.055
66986W        W39334   6.409  25.125  10.606
66987W        W39335   9.772  40.849  11.460
66988W        W39336  24.216  42.953   3.708
66989W        W39337  35.879  21.743  11.125
66990W        W39338  10.265   0.871   1.738
66991W        W39339  20.049   8.241   3.691
66992W        W39340  23.612  10.705   9.923
66993W        W39341  20.744   0.761  13.015
66994W        W39342  21.729  42.993  11.083
66995W        W39343   5.812  28.465   0.459
66996W        W39344  16.292  22.531   0.910
66997W        W39345   8.258  34.430   1.398
66998W        W39346  25.513   3.756  11.387
66999W        W39347  43.793   6.279  10.505
67000W        W39348  19.116  11.173  14.800
67001W        W39349  30.130  34.564   4.295
67002W        W39350  22.021  11.360   0.454
67003W        W39351  29.103  43.779   3.340
67004W        W39352  24.711  20.754  13.873
67005W        W39353  32.563   5.904  14.514
67006W        W39354  27.966  27.562  12.837
67007W        W39355  27.101  35.422   0.810
67008W        W39356  13.181  41.860   4.131
67009W        W39357  37.847   7.714  14.815
67010W        W39358  14.200  13.748   5.301
67011W        W39359  15.219  11.726  11.936
67012W        W39360   1.773   6.214   1.444
67013W        W39361  26.003  12.850  12.841
67014W        W39362  34.928  32.563   1.247
67015W        W39363  19.535   5.411   3.825
67016W        W39364  17.288  33.615  14.977
67017W        W39365  33.601   2.343   0.836
67018W        W39366  17.637   7.297   0.479
67019W        W39367  37.041  39.994   0.751
67020W        W39368  30.583   5.210   4.624
67021W        W39369  37.539  36.442   0.336
67022W        W39370  34.564  18.620   0.468
67023W        W39371   4.891  39.473   3.631
67024W        W39372  24.521   7.841   4.817
67025W        W39373  33.941   6.395   4.698
67026W        W39374   6.352  43.816   3.728
67027W        W39375  27.008  29.108   4.126
67028W        W39376  13.193   7.202  12.462
67029W        W39377  17.556  32.019   2.315
67030W        W39378  12.713  29.918   3.677
67031W        W39379  32.561  29.935  12.534
67032W        W39380  20.617  13.829   3.790
67033W        W39381  39.880   6.779   1.777
67034W        W39382  34.948  17.248  11.018
67035W        W39383  42.400  41.907   3.221
67036W        W39384  15.760  24.170   5.223
67037W        W39385  40.308  37.462   3.647
67038W        W39386  21.051  34.595   2.849
67039W        W39387  21.640  37.033  10.937
67040W        W39388  43.900  29.997  13.030
67041W        W39389  27.133  38.393   1.332
67042W        W39390   3.881  33.954  13.402
67043W        W39391  33.906  42.497  11.393
67044W        W39392  44.382  13.284   4.641
67045W        W39393  38.394  13.244   1.935
67046W        W39394  41.996   0.347  10.578
67047W        W39395  40.371   2.735  11.968
67048W        W39396   7.334   3.935  14.401
67049W        W39397  28.510  29.647  11.586
67050W        W39398   5.904  31.453  11.416
67051W        W39399  28.063   3.857   4.731
67052W        W39400   2.237  10.739   3.853
67053W        W39401  26.644  17.759  10.567
67054W        W39402  12.624  16.217   4.163
67055W        W39403   0.919  33.089  14.313
67056W        W39404  14.718  38.925  13.810
67057W        W39405   9.347  27.664  13.515
67058W        W39406  42.508  11.139  13.902
67059W        W39407  29.142  33.927  12.943
67060W        W39408  10.306   9.861   4.325
67061W        W39409  24.085   7.243   1.768
67062W        W39410  38.952   7.199   2.226
67063W        W39411  32.034  24.141  13.412
67064W        W39412  16.745  10.782   4.214
67065W        W39413  28.070  25.972   3.188
67066W        W39414  40.982  20.139  11.444
67067W        W39415  41.964   4.221   2.821
67068W        W39416  30.136  43.771   2.745
67069W        W39417  24.094  10.865  12.894
67070W        W39418  12.222   5.338   2.842
67071W        W39419   4.361  10.365   3.347
67072W        W39420  36.428  35.582  11.543
67073W        W39421  40.834   8.358  13.335
67074W        W39422  23.600  13.713  12.348
67075W        W39423  33.406  10.258  11.097
67076W        W39424  17.638  30.143  10.455
67077W        W39425  37.953   4.777   1.441
67078W        W39426  21.148   7.185   4.704
67079W        W39427  42.898  40.516   4.190
67080W        W39428  26.574  25.969   0.811
67081W        W39429  37.462  21.148  13.902
67082W        W39430  34.501  28.562   1.803
67083W        W39431  11.862  29.594  12.963
67084W        W39432  34.006  42.787  11.001
67085W        W39433  34.061  13.195   3.794
67086W        W39434   5.364   3.868   1.290
67087W        W39435   1.877  23.139   4.127
67088W        W39436  43.850  35.901  11.465
67089W        W39437  10.160  22.679  10.614
67090W        W39438  34.495  44.267  13.499
67091W        W39439   6.864  39.828  11.512
67092W        W39440  13.149  36.573  13.801
67093W        W39441  44.942  13.130  10.526
67094W        W39442  25.603   4.773   0.923
67095W        W39443  25.628   7.290   4.708
67096W        W39444  29.574  11.272   3.231
67097W        W39445  40.427  16.577  12.961
67098W        W39446  34.936   6.752   0.953
67099W        W39447  17.631  12.797  10.641
67100W        W39448  26.967   2.469  13.058
67101W        W39449  33.929  30.114   1.243
67102W        W39450  16.643  27.026  11.049
67103W        W39451  16.707  44.379   0.755
67104W        W39452  36.985  42.786  13.851
67105W        W39453  28.655  21.535  13.469
67106W        W39454  23.609  26.522   0.943
67107W        W39455  15.284   0.797  14.010
67108W        W39456  37.063  25.607  14.904
67109W        W39457   8.228  37.498   0.810
67110W        W39458  36.451  36.547   0.959
67111W        W39459  16.170  26.622  13.910
67112W        W39460   2.296  39.924  13.420
67113W        W39461  21.201  41.348   2.227
67114W        W39462  33.400  23.601  10.622
67115W        W39463  42.491   4.352   2.215
67116W        W39464   7.376  38.391  14.830
67117W        W39465  26.674  18.750   4.695
67118W        W39466  37.075  21.622  11.414
67119W        W39467  43.357  26.568  11.408
67120W        W39468  18.224   8.287   2.207
67121W        W39469  11.154  25.581   1.702
67122W        W39470   3.767  27.971  11.985
67123W        W39471  24.564  26.569   2.890
67124W        W39472  32.950  16.226   4.746
67125W        W39473   1.434   3.388  10.152
67126W        W39474  14.595   3.441  14.791
67127W        W39475   6.247  28.930   1.343
67128W        W39476  40.318  21.558  11.893
67129W        W39477  14.102   3.435   5.182
67130W        W39478  29.475   0.866   3.201
67131W        W39479   9.681   2.873  10.890
67132W        W39480  12.684  24.541   3.294
67133W        W39481  24.499  36.843  14.893
67134W        W39482   2.730  32.615  13.862
67135W        W39483   5.783  29.162  12.467
67136W        W39484   4.903  20.114   1.429
67137W        W39485  35.102  12.178   4.819
67138W        W39486  41.503   9.204   2.324
67139W        W39487  13.829   7.252  13.338
67140W        W39488  22.720  10.327   5.317
67141W        W39489   1.476  20.744  14.377
67142W        W39490  36.394  33.439   2.813
67143W        W39491  43.437  35.038  11.114
67144W        W39492  42.936  22.166  10.936
67145W        W39493  18.227  43.272  11.875
67146W        W39494  16.677  14.730   0.356
67147W        W39495  14.614  28.099   4.126
67148W        W39496  11.195  17.259  12.363
67149W        W39497  32.023  17.687   4.282
67150W        W39498  39.560   0.921  11.125
67151W        W39499  13.105  38.013  11.043
67152W        W39500  31.579  23.229  11.564
67153W        W39501  36.931  26.579  12.025
67154W        W39502  38.029  32.414  12.423
67155W        W39503  16.215  26.552  14.823
67156W        W39504   2.340   9.820  14.911
67157W        W39505  14.598  12.190  10.639
67158W        W39506  42.841  26.966   2.826
67159W        W39507  12.807  20.565  10.934
67160W        W39508  20.677  21.564  12.340
67161W        W39509  14.670  13.753   4.219
67162W        W39510  16.779   9.325   2.266
67163W        W39511  32.495  34.565   4.752
67164W        W39512  15.103  32.438  14.970
67165W        W39513   1.257  20.044   2.791
67166W        W39514  37.371  13.293   2.203
67167W        W39515   9.814  39.848  11.950
67168W        W39516  24.492  34.396  11.084
67169W        W39517  15.790   7.361  11.979
67170W        W39518  38.418  26.585   2.902
67171W        W39519  35.059  40.991   2.233
67172W        W39520  24.706  36.908  12.020
67173W        W39521  25.708   5.266  11.097
67174W        W39522  14.615  15.777  11.388
67175W        W39523   4.931  13.755   3.790
67176W        W39524  41.500  41.829   1.842
67177W        W39525   4.377   1.311   1.780
67178W        W39526  30.459  19.127  11.522
67179W        W39527  40.488   5.750   9.936
67180W        W39528  28.084   1.914   0.778
67181W        W39529   8.399  19.758   0.904
67182W        W39530  42.010  13.605   0.784
67183W        W39531  17.597  31.630   2.348
67184W        W39532  32.523  34.599  13.482
67185W        W39533  12.126  12.250  10.942
67186W        W39534  11.789  31.113  11.565
67187W        W39535  17.695   0.272   4.735
67188W        W39536  39.539  24.511  13.438
67189W        W39537  21.679   9.316  13.951
67190W        W39538  10.824   6.884   9.594
67191W        W39539  34.613  40.494  12.386
67192W        W39540  37.564  39.495   2.791
67193W        W39541   6.294  29.552   2.347
67194W        W39542   5.804   5.268  14.438
67195W        W39543  14.799  35.432  10.414
67196W        W39544  10.231  28.451   1.424
67197W        W39545  38.522  31.986  12.437
67198W        W39546  29.470  43.873  10.554
67199W        W39547  42.364  26.119  10.576
67200W        W39548  40.401  37.878  11.925
67201W        W39549  20.568   9.150  11.450
67202W        W39550   2.781  17.214   0.960
67203W        W39551  13.260   9.355  10.415
67204W        W39552  41.322   6.692  14.485
67205W        W39553  37.070  39.317   2.677
67206W        W39554  23.617  14.194   0.348
67207W        W39555  23.178   8.695   4.298
67208W        W39556  26.089  24.669  13.938
67209W        W39557  18.129   1.856  14.810
67210W        W39558   2.429  36.386   2.819
67211W        W39559  22.196  19.156  13.420
67212W        W39560   9.701  31.508  12.889
67213W        W39561   6.199  44.339  10.071
67214W        W39562  10.141   8.402   0.395
67215W        W39563  44.923  22.187   2.880
67216W        W39564  44.815  25.524  10.571
67217W        W39565  44.928  13.148  13.046
67218W        W39566  43.416   6.792  12.044
67219W        W39567  34.923   2.802   2.702
67220W        W39568  26.603  14.283  12.527
67221W        W39569   0.782  44.837  13.505
67222W        W39570  22.067  26.169  14.883
67223W        W39571  19.141  17.708   0.782
67224W        W39572  10.296   1.237   1.273
67225W        W39573  14.752  35.467   0.350
67226W        W39574   1.739   8.697  14.482
67227W        W39575  41.996   8.661   0.267
67228W        W39576  25.659  37.546  10.108
67229W        W39577  38.983  33.950   2.891
67230W        W39578  35.877  41.512   0.352
67231W        W39579  44.942  20.612   2.811
67232W        W39580  21.755  24.668  11.408
67233W        W39581   7.302  34.095   4.347
67234W        W39582  19.132  13.802   4.308
67235W        W39583  19.111  30.949   0.290
67236W        W39584  22.211  40.381   0.728
67237W        W39585   5.715  23.661  14.883
67238W        W39586   5.697  34.482  14.812
67239W        W39587   0.944  27.512   0.943
67240W        W39588  40.421  13.722  14.987
67241W        W39589   6.705  20.157  11.468
67242W        W39590  12.353  35.875   3.801
67243W        W39591  32.469  40.987  11.860
67244W        W39592  29.562  25.642   1.366
67245W        W39593  39.964  17.721   0.457
67246W        W39594   7.674  21.723   5.265
67247W        W39595  20.191  10.153   0.430
67248W        W39596  31.090  33.924   1.291
67249W        W39597  24.226  40.913  10.550
67250W        W39598  25.993  42.477   4.166
67251W        W39599  21.230  25.199   0.378
67252W        W39600   9.378  32.541   2.217
67253W        W39601  30.983  37.382   2.360
67254W        W39602  33.947  42.336  14.433
67255W        W39603   9.197   4.931   4.756
67256W        W39604  44.916  15.105  10.588
67257W        W39605  40.897   1.905   4.165
67258W        W39606  14.663  17.129  14.342
67259W        W39607  13.329  40.937   0.741
67260W        W39608  39.329  35.542  11.415
67261W        W39609  23.084  26.484  14.958
67262W        W39610  40.982  32.917   0.954
67263W        W39611  30.491  33.484   1.839
67264W        W39612  20.662  27.675   0.246
67265W        W39613  28.151  36.954   1.361
67266W        W39614  20.189   5.724   1.308
67267W        W39615  38.050  32.472   4.164
67268W        W39616  44.464  15.746   0.817
67269W        W39617  28.064  24.503   1.307
67270W        W39618   4.836  34.922   4.186
67271W        W39619  18.209  30.100  11.497
67272W        W39620   1.952  30.919   0.921
67273W        W39621  28.181   6.384  12.858
67274W        W39622   9.189  36.047  10.084
67275W        W39623  23.091  12.666   1.922
67276W        W39624  26.547  18.651   0.362
67277W        W39625  41.327  23.994   3.175
67278W        W39626   3.840  16.699   1.935
67279W        W39627   6.414   1.773  14.509
67280W        W39628  35.380  22.644  10.114
67281W        W39629  25.982  44.982  12.524
67282W        W39630  20.591   2.374  13.367
67283W        W39631  30.589   6.705   0.446
67284W        W39632   6.920   2.954  12.069
67285W        W39633  37.899   0.891  13.370
67286W        W39634  30.102   6.912   1.299
67287W        W39635  19.260   8.269  11.881
67288W        W39636  35.389  24.711  12.343
67289W        W39637   6.361  24.017   2.187
67290W        W39638  17.295  37.346   3.731
67291W        W39639  17.226  26.128  12.355
67292W        W39640  23.708  44.782  14.981
67293W        W39641  27.105  35.893  12.078
67294W        W39642  12.699  31.612   0.304
67295W        W39643  28.439  14.716   2.410
67296W        W39644   1.853  18.250  10.568
67297W        W39645  35.090   5.307  12.458
67298W        W39646   3.831   2.467  11.599
67299W        W39647  17.686  28.463  10.543
67300W        W39648  12.215   2.410   0.266
67301W        W39649  22.578   2.751  10.042
67302W        W39650  15.809  40.477   3.217
67303W        W39651   6.854  20.769   1.374
67304W        W39652  13.689  18.670  11.989
67305W        W39653   5.842  35.041   3.298
67306W        W39654  21.099   3.365  10.029
67307W        W39655   6.203  42.946  11.080
67308W        W39656   2.742  12.833  12.966
67309W        W39657  31.079  39.462  12.025
67310W        W39658   2.916  24.490  13.006
67311W        W39659   0.744  38.407  13.515
67312W        W39660  24.147  29.606  11.891
67313W        W39661  19.770  28.121   4.119
67314W        W39662  16.773  39.512  13.935
67315W        W39663  14.182   5.846   3.702
67316W        W39664  32.501   7.900  12.840
67317W        W39665  26.095  15.211  14.427
67318W        W39666  16.620  16.140  13.824
67319W        W39667  40.829  33.392   0.841
67320W        W39668   3.750  25.609  11.978
67321W        W39669  29.947  28.627  13.010
67322W        W39670   3.826  40.368   0.917
67323W        W39671  10.215  23.542  14.946
67324W        W39672  43.360  11.169  11.543
67325W        W39673  24.576  13.812  13.802
67326W        W39674  41.500   7.904   1.441
67327W        W39675  24.693  20.032  12.035
67328W        W39676  39.484  22.029  12.457
67329W        W39677  13.327   2.821  12.565
67330W        W39678  30.456  30.945   4.606
67331W        W39679  37.003  16.171  11.489
67332W        W39680  18.691  30.659   2.248
67333W        W39681  16.130  17.631  14.421
67334W        W39682  30.158   7.173  12.861
67335W        W39683  41.881  31.589   2.252
67336W        W39684  27.513  31.509  13.860
67337W        W39685  20.071  16.702  13.028
67338W        W39686  36.021   5.808   1.438
67339W        W39687   6.208  28.154   3.353
67340W        W39688  38.483  35.421  14.778
67341W        W39689   6.863  31.909   2.418
67342W        W39690  42.776  22.714   2.732
67343W        W39691   9.348   5.346   3.712
67344W        W39692  42.412  40.828   2.262
67345W        W39693  10.713  35.446   1.330
67346W        W39694  14.831  15.646  12.909
67347W        W39695  44.485  32.414  12.943
67348W        W39696  29.961  18.694   4.232
67349W        W39697  23.990  43.983   1.221
67350W        W39698   4.384  41.009   4.660
67351W        W39699  40.451  27.064   4.192
67352W        W39700   7.304  10.667   0.930
67353W        W39701   1.339  15.321   1.864
67354W        W39702  19.730   1.776  13.312
67355W        W39703  26.628  36.459   3.764
67356W        W39704  15.305  14.098  13.508
67357W        W39705  35.573  23.563   0.760
67358W        W39706  12.361   9.851   4.212
67359W        W39707  38.514  17.701  13.456
67360W        W39708  14.191  18.656   4.826
67361W        W39709   8.877  36.022  10.920
67362W        W39710  41.382  32.981   2.729
67363W        W39711   3.871  22.502   0.376
67364W        W39712  12.708  35.376   3.779
67365W        W39713  14.829  42.516   4.278
67366W        W39714  27.013  44.796  10.913
67367W        W39715  21.146  20.541   1.426
67368W        W39716  29.514  38.039   1.722
67369W        W39717  14.681  37.922  11.000
67370W        W39718  40.474  18.659   4.786
67371W        W39719  36.359  23.667   2.347
67372W        W39720  24.598   3.352   1.389
67373W        W39721  44.757  25.111   0.786
67374W        W39722  20.120   4.402   3.237
67375W        W39723  44.964  28.644  11.871
67376W        W39724  31.435  24.219   4.177
67377W        W39725  43.515  39.928   3.760
67378W        W39726   7.697   3.379   3.793
67379W        W39727  27.483   9.307  14.000
67380W        W39728  42.368  11.844   2.797
67381W        W39729  31.074  36.491  12.490
67382W        W39730   8.174  25.650   2.314
67383W        W39731  14.234  24.088   1.291
67384W        W39732  34.045  22.137  10.627
67385W        W39733  14.704  28.105   0.256
67386W        W39734  23.195  14.202   2.801
67387W        W39735  34.979  18.579   3.383
67388W        W39736  13.303  18.052  10.890
67389W        W39737  35.042   4.354   1.750
67390W        W39738  28.026  10.174  12.469
67391W        W39739  25.558  16.718   3.858
67392W        W39740  11.654  30.149  12.444
67393W        W39741  28.678  34.967   1.764
67394W        W39742  23.123  20.187   3.164
67395W        W39743  31.015  31.989   3.327
67396W        W39744   4.226  41.794   3.666
67397W        W39745  31.998  44.313  10.924
67398W        W39746  21.156   5.865   5.141
67399W        W39747  42.929  36.375   0.483
67400W        W39748  11.839  12.747   5.169
67401W        W39749  27.531  10.173   0.360
67402W        W39750  36.499  38.832   0.384
67403W        W39751  37.005  40.882   4.325
67404W        W39752   1.843  17.690   4.833
67405W        W39753   3.889  43.346   0.310
67406W        W39754  18.185  40.856   1.895
67407W        W39755  42.421  41.025   0.244
67408W        W39756  14.651  25.651  13.482
67409W        W39757   0.440  20.269  13.031
67410W        W39758  43.436  11.817  10.586
67411W        W39759  37.951   6.725  12.917
67412W        W39760  12.336   2.948   2.208
67413W        W39761  29.994  30.613   2.285
67414W        W39762  14.655  14.814   3.724
67415W        W39763  27.131  38.488   3.767
67416W        W39764  28.031  14.153   4.683
67417W        W39765  30.652  26.987  11.913
67418W        W39766  42.338  44.842   4.307
67419W        W39767  26.648   5.859   4.774
67420W        W39768   0.802   8.790   5.236
67421W        W39769   5.407   4.710  10.022
67422W        W39770  31.913  41.860  10.548
67423W        W39771  26.054  29.993  12.940
67424W        W39772  20.683   0.387   2.804
67425W        W39773  28.947   2.889   3.263
67426W        W39774  21.149  19.559  10.588
67427W        W39775   5.915   9.865  11.868
67428W        W39776   8.715  35.905   4.210
67429W        W39777  11.169   6.290   3.337
67430W        W39778   5.281  34.895  14.862
67431W        W39779  22.504   5.373   3.842
67432W        W39780  42.014  15.258   3.244
67433W        W39781  42.924  18.628  12.081
67434W        W39782   7.339  10.664   3.237
67435W        W39783  28.470  15.606  12.503
67436W        W39784  39.387   7.729  12.939
67437W        W39785  40.307  25.074   3.335
67438W        W39786   4.877  36.389   3.310
67439W        W39787  28.447  17.304  11.040
67440W        W39788  28.670  21.101  12.832
67441W        W39789  38.933  38.871   2.370
67442W        W39790  16.796  29.008  11.550
67443W        W39791   0.859  26.114   2.251
67444W        W39792   8.842  35.041   3.214
67445W        W39793  28.560  22.043  13.884
67446W        W39794   7.826  20.671  12.549
67447W        W39795  26.981  35.544  14.281
67448W        W39796  19.188  23.618  13.829
67449W        W39797   9.885  31.523   5.123
67450W        W39798   9.169  21.222   1.763
67451W        W39799  41.830  44.298  13.028
67452W        W39800  43.313   2.859  13.519
67453W        W39801  41.962  33.561   4.288
67454W        W39802  28.032  25.636  10.909
67455W        W39803   5.213  32.078  13.339
67456W        W39804  11.749  11.361   4.615
67457W        W39805   6.765  21.220   3.292
67458W        W39806  19.285   6.833  12.965
67459W        W39807   3.824  32.465  12.512
67460W        W39808   2.746  32.103  12.959
67461W        W39809  21.650  14.338  12.487
67462W        W39810  37.907  10.363  10.909
67463W        W39811  44.349   5.815  12.016
67464W        W39812  14.608  39.880  14.294
67465W        W39813  36.052  15.126   4.250
67466W        W39814  12.328  34.528   2.661
67467W        W39815  35.038  34.005  14.793
67468W        W39816   0.987   2.456   1.787
67469W        W39817  15.624  44.391   1.794
67470W        W39818  19.669   6.372  13.039
67471W        W39819  27.528  15.695  12.361
67472W        W39820  19.669  36.908   2.894
67473W        W39821  33.471  10.761  12.070
67474W        W39822   6.912   1.732   3.240
67475W        W39823  41.915  12.311   3.275
67476W        W39824   3.340   6.337  13.045
67477W        W39825   4.243  28.449   4.598
67478W        W39826  44.393   1.262  14.974
67479W        W39827  14.830  13.724  14.936
67480W        W39828  30.435   6.833  14.365
67481W        W39829  25.546  16.638  10.410
67482W        W39830   9.807   8.700  12.368
67483W        W39831  17.267  44.985   3.777
67484W        W39832  36.044  14.621   4.278
67485W        W39833   7.695   9.693  14.810
67486W        W39834  42.987  41.984  12.571
67487W        W39835   3.743   5.699  11.397
67488W        W39836  36.975  21.599  14.454
67489W        W39837  18.565  39.477  12.891
67490W        W39838   1.449  37.524   3.851
67491W        W39839  25.170  27.671  14.777
67492W        W39840  19.729   1.830   2.225
67493W        W39841  12.844  18.781  14.919
67494W        W39842  23.616  30.959  14.986
67495W        W39843   9.693  39.975   2.889
67496W        W39844  28.617   6.261  11.437
67497W        W39845  39.346  38.857   4.141
67498W        W39846  20.638   1.333   0.788
67499W        W39847  29.470  27.630  14.925
67500W        W39848   4.297   3.268   0.293
67501W        W39849  29.125   6.796   2.676
67502W        W39850  23.141  18.763   4.165
67503W        W39851  11.148   2.877   0.320
67504W        W39852   7.274  20.056   3.633
67505W        W39853  15.197  28.963  11.031
67506W        W39854  29.112  22.688  12.498
67507W        W39855  18.053  10.284  12.966
67508W        W39856  23.145  21.605  13.525
67509W        W39857  18.721  37.844  11.927
67510W        W39858  44.754  32.407   1.416
67511W        W39859  34.919  21.087   0.307
67512W        W39860  23.105  16.195   4.625
67513W        W39861  10.770  24.036  13.798
67514W        W39862  43.328  28.123  14.762
67515W        W39863   9.753  17.231   1.717
67516W        W39864  24.622  20.554   4.680
67517W        W39865  26.597   2.270  11.882
67518W        W39866  40.996  12.201  11.478
67519W        W39867  27.474  19.562  14.790
67520W        W39868  19.676  19.633  13.345
67521W        W39869  29.946   8.218   2.876
67522W        W39870  28.500  15.136   4.222
67523W        W39871   0.447  29.136  12.971
67524W        W39872  13.297  35.978  10.462
67525W        W39873   3.297  22.199  11.891
67526W        W39874  15.280  22.015  13.418
67527W        W39875  26.465  13.833   3.349
67528W        W39876  12.701  10.814  13.513
67529W        W39877  24.152   9.693   0.394
67530W        W39878   7.829  15.309  12.960
67531W        W39879   7.688  32.900  10.093
67532W        W39880  42.919   2.231  11.124
67533W        W39881  11.661  29.997  11.004
67534W        W39882  31.567  36.370   3.265
67535W        W39883   8.763  37.448  11.962
67536W        W39884  39.841   6.329   0.298
67537W        W39885  34.099   0.385   0.805
67538W        W39886   2.330  24.503  12.903
67539W        W39887  32.041  39.394   2.237
67540W        W39888  41.881  35.597  10.601
67541W        W39889  13.322  31.959   3.296
67542W        W39890  18.252  22.241   0.440
67543W        W39891  18.293   0.425  11.095
67544W        W39892  30.040  37.342   2.210
67545W        W39893  29.602  18.567  10.583
67546W        W39894  35.561   0.440  10.603
67547W        W39895   4.837  33.470   3.162
67548W        W39896  19.552   3.313  10.600
67549W        W39897  22.171   6.207   3.696
67550W        W39898  20.590  30.591  11.867
67551W        W39899  16.129  25.995  11.418
67552W        W39900   2.739  12.133   3.778
67553W        W39901  33.018  17.069   4.741
67554W        W39902  32.548  32.060  11.423
67555W        W39903  28.455  36.979   4.717
67556W        W39904  31.987  16.671  11.864
67557W        W39905   3.856  16.801  10.952
67558W        W39906  44.782   6.919   4.670
67559W        W39907  32.608  30.918  11.443
67560W        W39908  37.391   6.883   4.823
67561W        W39909   9.701  32.929   1.218
67562W        W39910  28.956  19.096   3.677
67563W        W39911  40.869   6.413   4.817
67564W        W39912  28.638   3.724   0.392
67565W        W39913  12.734  30.476  11.483
67566W        W39914  30.557  19.249  13.311
67567W        W39915  44.930  44.261  12.876
67568W        W39916  40.360  31.051  11.534
67569W        W39917   0.361  30.034  14.328
67570W        W39918  26.668  35.945  12.081
67571W        W39919  35.536  18.731   0.297
67572W        W39920  38.556   8.317   0.921
67573W        W39921  19.706   1.285   4.153
67574W        W39922   5.800  40.419   4.242
67575W        W39923  17.277  11.836  13.039
67576W        W39924   4.407  22.068  11.087
67577W        W39925  23.091  12.144  10.461
67578W        W39926  21.528   6.225  10.942
67579W        W39927  18.733  21.119   1.401
67580W        W39928  13.315  25.097  12.522
67581W        W39929  33.953  41.411   1.335
67582W        W39930  11.711  31.566  14.503
67583W        W39931  27.980  15.300  11.465
67584W        W39932  16.638  30.447   4.222
67585W        W39933  21.082   6.736   1.242
67586W        W39934  30.481  24.479   1.897
67587W        W39935  37.416   2.406   3.759
67588W        W39936  16.076  31.057  13.921
67589W        W39937   7.698   2.368  11.492
67590W        W39938  15.095   0.751  11.536
67591W        W39939  21.032  23.142  11.464
67592W        W39940   9.687  15.234   3.318
67593W        W39941   6.207  12.239   0.289
67594W        W39942   4.214  14.191   2.748
67595W        W39943   1.907  23.099   2.299
67596W        W39944   3.426  28.568  13.346
67597W        W39945   7.700  35.016   2.727
67598W        W39946  12.156  30.091   3.305
67599W        W39947  25.521   9.300   4.836
67600W        W39948   7.410   0.257  11.075
67601W        W39949  12.663  22.623  10.518
67602W        W39950   6.287   7.335  13.438
67603W        W39951  20.705  38.549   2.875
67604W        W39952  23.169  34.416  12.054
67605W        W39953  31.009   1.240   1.347
67606W        W39954  27.989  29.577   4.136
67607W        W39955  23.593  14.755  14.371
67608W        W39956  22.711  23.621  10.951
67609W        W39957  19.050  27.163  10.584
67610W        W39958   0.970   5.246   2.752
67611W        W39959  30.431  14.813   0.776
67612W        W39960   6.901   1.479   0.267
67613W        W39961  32.521  35.589   9.956
67614W        W39962  17.699  39.521  13.992
67615W        W39963  12.331  25.973   0.861
67616W        W39964  14.309  31.620  11.888
67617W        W39965  29.927   4.751  14.493
67618W        W39966   0.782  10.785  11.005
67619W        W39967  30.932  36.434   5.130
67620W        W39968  23.055   7.326   3.202
67621W        W39969  36.505   8.278   4.612
67622W        W39970  33.895  37.895   2.857
67623W        W39971  44.487  29.129  10.488
67624W        W39972  34.987  13.270  13.996
67625W        W39973  28.636  14.821   4.833
67626W        W39974  13.815   5.739   3.717
67627W        W39975  31.588  17.121  14.487
67628W        W39976   9.290  14.610  11.121
67629W        W39977  25.179  19.201   0.304
67630W        W39978  18.557   2.250   4.278
67631W        W39979  15.177   2.814  11.879
67632W        W39980  25.985  24.527   0.782
67633W        W39981  28.157   7.719   0.334
67634W        W39982  42.317  14.256   1.388
67635W        W39983  21.226  10.808   1.330
67636W        W39984  31.142  26.132   0.296
67637W        W39985  24.545  18.769   4.629
67638W        W39986  12.793   1.474  13.439
67639W        W39987  11.832  26.961   2.661
67640W        W39988  25.123  31.090   4.127
67641W        W39989  14.335   3.369   2.853
67642W        W39990  32.129   7.764   0.938
67643W        W39991  11.302  22.529  11.573
67644W        W39992  37.936   1.828   1.804
67645W        W39993  30.004  32.115  14.791
67646W        W39994  33.896  35.929  14.836
67647W        W39995  20.252  28.658   1.408
67648W        W39996  37.882  37.858   2.763
67649W        W39997  34.439   1.249  13.382
67650W        W39998   4.279  25.588  13.430
67651W        W39999  41.294  31.476  13.349
67652W        W40000  14.168  19.576  11.442
67653W        W40001   7.351  16.131   0.378
67654W        W40002  42.839  12.121  14.826
67655W        W40003  21.205  26.955  10.468
67656W        W40004  40.395   1.919  12.824
67657W        W40005  18.283  20.753   0.305
67658W        W40006  31.422  17.693   0.342
67659W        W40007  38.530   0.952  10.443
67660W        W40008   8.744  10.384  12.423
67661W        W40009  34.110  15.598  13.448
67662W        W40010  26.575   1.251   1.306
67663W        W40011   5.766  18.127  13.504
67664W        W40012  20.156   9.284  12.402
67665W        W40013  21.754   2.430   2.710
67666W        W40014   0.305   4.878   2.692
67667W        W40015  25.584  40.380   2.291
67668W        W40016  25.197  36.589   1.259
67669W        W40017  26.177   7.728   2.829
67670W        W40018  43.893  29.094   3.821
67671W        W40019  36.364   7.245   4.240
67672W        W40020   6.190   8.257   0.861
67673W        W40021  28.956  27.125   3.839
67674W        W40022  35.573  26.164   4.314
67675W        W40023  22.250  44.854  14.360
67676W        W40024  13.698  25.682   1.918
67677W        W40025  39.041  10.171   0.811
67678W        W40026   6.803  14.826  13.968
67679W        W40027  18.556  40.531  10.931
67680W        W40028  21.156  31.493  13.409
67681W        W40029   0.484  20.155   0.852
67682W        W40030   0.962  39.927   2.289
67683W        W40031  43.424  37.534   0.457
67684W        W40032  15.577  33.971   4.216
67685W        W40033  39.942   5.241  11.989
67686W        W40034   5.201  21.158   3.160
67687W        W40035  17.236   1.292   0.430
67688W        W40036   8.332  38.425   1.857
67689W        W40037  41.411  32.043  10.560
67690W        W40038  13.742  37.382   4.639
67691W        W40039  28.525  19.561   0.334
67692W        W40040  23.519   5.271  11.438
67693W        W40041  44.345  35.587  10.437
67694W        W40042  30.146  33.485  14.354
67695W        W40043   1.741  11.649  12.495
67696W        W40044  36.443   3.380  12.022
67697W        W40045   5.399   7.363   5.222
67698W        W40046  42.898   3.775  14.449
67699W        W40047  31.530  24.187   0.343
67700W        W40048  27.590  43.823  14.997
67701W        W40049  22.116  28.020  12.503
67702W        W40050   6.860   5.750   1.416
67703W        W40051  17.138  41.933  12.481
67704W        W40052  22.076  26.150   2.396
67705W        W40053  16.080  16.569   1.776
67706W        W40054  19.107   7.251   1.273
67707W        W40055  27.493  25.962   4.315
67708W        W40056  15.819  22.676   0.250
67709W        W40057  24.130  21.690  11.863
67710W        W40058  31.419   2.892  13.479
67711W        W40059  41.447  22.052  14.502
67712W        W40060   9.172  19.609   0.878
67713W        W40061   3.808  15.625   9.993
67714W        W40062  38.527  27.531  13.504
67715W        W40063  39.048  28.935   4.311
67716W        W40064  31.568  15.258   4.826
67717W        W40065  12.287  29.462  12.426
67718W        W40066  44.325  36.463   3.170
67719W        W40067   1.945  19.671  14.899
67720W        W40068  40.405  32.959   3.170
67721W        W40069  21.751  31.631  11.417
67722W        W40070  34.464   4.761   0.729
67723W        W40071  25.514  34.591   3.320
67724W        W40072   7.382  38.354   0.392
67725W        W40073  39.850  38.010  14.790
67726W        W40074  30.058  28.653  12.005
67727W        W40075  30.635  32.560  13.498
67728W        W40076   7.855  19.568  11.394
67729W        W40077  20.678   7.773   1.223
67730W        W40078  20.589  26.493   4.124
67731W        W40079  28.126  36.901   1.811
67732W        W40080  27.155  17.189  11.985
67733W        W40081  10.319  13.615   1.908
67734W        W40082   2.409   2.902  12.550
67735W        W40083  21.683   2.815  14.304
67736W        W40084  12.804  31.415  13.521
67737W        W40085  18.729  40.303  13.336
67738W        W40086   8.406  42.840  13.313
67739W        W40087  38.051  14.598   0.898
67740W        W40088  16.689   2.942  11.038
67741W        W40089  34.610   0.757  11.864
67742W        W40090  26.976  11.224  13.487
67743W        W40091  44.982  20.157  14.278
67744W        W40092  25.003  27.972  13.460
67745W        W40093  34.378  38.036  12.056
67746W        W40094  43.375  44.308  10.443
67747W        W40095   1.839  25.205   3.172
67748W        W40096  18.747   3.298  11.962
67749W        W40097  35.440  11.312  14.342
67750W        W40098  25.032  26.464   1.890
67751W        W40099  39.015  12.127  13.981
67752W        W40100   7.783  25.595  13.461
67753W        W40101  44.001  32.514   2.868
67754W        W40102  44.843  32.057  12.386
67755W        W40103  13.821  37.843   3.285
67756W        W40104  22.565  13.665   2.221
67757W        W40105  22.738  16.085   1.774
67758W        W40106  16.130   9.170   3.864
67759W        W40107  35.528   1.293  12.901
67760W        W40108  19.750  32.630   1.726
67761W        W40109  26.155  11.149   2.720
67762W        W40110  37.899  14.192  12.931
67763W        W40111  26.700   9.781  11.996
67764W        W40112  44.367  16.677   1.814
67765W        W40113   5.217  16.245   1.336
67766W        W40114  39.875   1.383   1.862
67767W        W40115  43.435  32.894   4.726
67768W        W40116   8.187   0.423   4.339
67769W        W40117  32.506  18.561  10.911
67770W        W40118  41.873  40.932   2.294
67771W        W40119  32.914   4.333  14.920
67772W        W40120  13.303  13.349   4.751
67773W        W40121   0.487   6.762  13.929
67774W        W40122  42.416  25.553  13.896
67775W        W40123  40.547   7.193   0.756
67776W        W40124  26.017  26.019  12.043
67777W        W40125   1.935  28.644  11.524
67778W        W40126  43.413  43.488  11.072
67779W        W40127  16.172  24.021   3.817
67780W        W40128  21.607   6.300   1.823
67781W        W40129  24.525  10.322   1.243
67782W        W40130  11.842  13.604   4.309
67783W        W40131  22.512  14.639  14.406
67784W        W40132   9.247  22.678   9.628
67785W        W40133  24.601  17.567   1.796
67786W        W40134  17.130   6.350  13.034
67787W        W40135  27.562   3.250   0.736
67788W        W40136  28.488  35.016   2.334
67789W        W40137  17.593  29.650  11.949
67790W        W40138  11.183  44.487   1.876
67791W        W40139  33.391  29.619   1.241
67792W        W40140  44.862  11.724   3.243
67793W        W40141   4.801  37.393   3.723
67794W        W40142  33.937  34.385  12.434
67795W        W40143   9.159  21.750   5.303
67796W        W40144  27.048  26.026  14.844
67797W        W40145  44.787  44.267   3.830
67798W        W40146  11.359  12.675  11.491
67799W        W40147   8.732   0.915   0.408
67800W        W40148   2.785   8.814   1.379
67801W        W40149  32.637  21.707  12.485
67802W        W40150  32.061  10.688  11.515
67803W        W40151  31.535  13.144   2.834
67804W        W40152  41.417  28.557  13.389
67805W        W40153  36.062  11.864   0.455
67806W        W40154  18.291  21.083   2.231
67807W        W40155   3.763  43.458  10.977
67808W        W40156  35.000  13.697  11.504
67809W        W40157  19.073   9.386  12.547
67810W        W40158   1.329  12.718   0.814
67811W        W40159  11.643  10.351   0.868
67812W        W40160  28.090  11.226  12.534
67813W        W40161  12.330  22.164  12.843
67814W        W40162   4.374  13.222   4.236
67815W        W40163  27.175  23.588  11.390
67816W        W40164  16.253   2.844  14.027
67817W        W40165  17.617  43.360  10.908
67818W        W40166  30.643  23.016  12.905
67819W        W40167  34.907  14.765   0.264
67820W        W40168   7.213  17.569   1.259
67821W        W40169  26.602   4.865  13.312
67822W        W40170  14.608  24.082   5.125
67823W        W40171  31.638  44.784  10.635
67824W        W40172  32.553   6.418  14.950
67825W        W40173  44.912   3.751   0.842
67826W        W40174   0.763  11.242  10.043
67827W        W40175  32.031  29.111  13.798
67828W        W40176  40.428  17.254  13.462
67829W        W40177  28.591  39.497   3.714
67830W        W40178  36.439  42.354  13.540
67831W        W40179   1.405   3.217  14.433
67832W        W40180   1.393   4.354   1.293
67833W        W40181  13.223  34.092   0.470
67834W        W40182  12.125  13.759  14.394
67835W        W40183  29.102  40.846  14.317
67836W        W40184  21.024   7.762   1.212
67837W        W40185  37.013  28.133  14.314
67838W        W40186  27.083  19.274  13.970
67839W        W40187  43.973  24.136   4.131
67840W        W40188  11.238  15.727   2.688
67841W        W40189  25.039  38.837  14.997
67842W        W40190  14.254  28.160  11.051
67843W        W40191  14.704  42.489   3.184
67844W        W40192   9.191  12.245   1.327
67845W        W40193  39.501  10.756   0.454
67846W        W40194   1.371  22.733  12.944
67847W        W40195   5.823  17.253   1.931
67848W        W40196  43.873   5.823  14.312
67849W        W40197  24.075  40.936   4.831
67850W        W40198   3.792   3.394  14.352
67851W        W40199  24.077  25.210   4.145
67852W        W40200  10.633  30.003   0.484
67853W        W40201   3.846   9.162   2.771
67854W        W40202  36.995  20.083   5.289
67855W        W40203  40.465  20.048  11.989
67856W        W40204  42.458  33.528  12.552
67857W        W40205   8.162  39.848  11.388
67858W        W40206   9.332  14.217   1.766
67859W        W40207  41.916  21.514   4.647
67860W        W40208  28.104  12.666   1.227
67861W        W40209  30.646  36.095   2.341
67862W        W40210  27.034  14.807   3.267
67863W        W40211  17.250  34.903   4.275
67864W        W40212  19.270   2.869  10.458
67865W        W40213  25.169  23.106   1.748
67866W        W40214   5.785  40.993  12.473
67867W        W40215  29.954   9.340   1.239
67868W        W40216  26.561  30.545   5.095
67869W        W40217  10.331   3.735   4.200
67870W        W40218   6.814  15.603   1.781
67871W        W40219  14.732  23.676   2.774
67872W        W40220  38.952  26.962   2.769
67873W        W40221  34.979  13.349   1.717
67874W        W40222   2.437   0.821  13.829
67875W        W40223  44.393  30.431   4.310
67876W        W40224  14.641  32.531   1.733
67877W        W40225   1.301  37.930  14.762
67878W        W40226  23.025  42.397   2.866
67879W        W40227  34.485   2.958  12.548
67880W        W40228  31.640  39.483  11.585
67881W        W40229  28.174  10.223  14.492
67882W        W40230  38.029  21.566  11.502
67883W        W40231  21.237  11.183   4.120
67884W        W40232  26.202  14.676  12.847
67885W        W40233   7.391  25.527   4.131
67886W        W40234  18.775  40.444  12.863
67887W        W40235  39.472   0.396   1.225
67888W        W40236  44.007  23.031   1.415
67889W        W40237  18.233  22.593   4.206
67890W        W40238  37.934  18.787  11.911
67891W        W40239  28.675  28.157  12.885
67892W        W40240   3.377  10.349  14.956
67893W        W40241  18.086   3.776   0.925
67894W        W40242  22.182  32.017  14.004
67895W        W40243   5.414  26.584   1.263
67896W        W40244   6.732  27.597   4.227
67897W        W40245  26.657   1.373   3.334
67898W        W40246   2.784  43.285  11.889
67899W        W40247  30.613  19.151   1.907
67900W        W40248  22.744  24.047  11.434
67901W        W40249  33.624  36.570   5.126
67902W        W40250  17.159  21.599  11.929
67903W        W40251  22.054   3.265  13.817
67904W        W40252  23.137   3.754  14.892
67905W        W40253   9.878  31.990  10.628
67906W        W40254  34.009  29.618  14.387
67907W        W40255   1.472   1.287  12.402
67908W        W40256  23.624   6.831   2.242
67909W        W40257  14.680  24.012   1.887
67910W        W40258  44.807   0.260   2.179
67911W        W40259   1.762  30.927  12.544
67912W        W40260  19.056  19.123   4.637
67913W        W40261  36.555  40.519  11.497
67914W        W40262  34.410   6.722   1.308
67915W        W40263  31.559  25.126  11.933
67916W        W40264  37.013  35.514   0.393
67917W        W40265  35.545  29.090   1.728
67918W        W40266   2.765  11.806   4.311
67919W        W40267  43.785   7.224  10.579
67920W        W40268  26.980  40.466  13.488
67921W        W40269  14.815  14.242   5.281
67922W        W40270  29.986  30.548  13.005
67923W        W40271  20.063   8.852   4.292
67924W        W40272  18.587  39.900   0.372
67925W        W40273  14.203   8.681   0.915
67926W        W40274  39.984  44.788  12.377
67927W        W40275  20.581   8.693  10.570
67928W        W40276  14.230  29.980   2.409
67929W        W40277  22.105  32.477   4.333
67930W        W40278  19.207   0.469   1.872
67931W        W40279  26.119  44.897   2.836
67932W        W40280   2.397  22.246  14.763
67933W        W40281  43.945  31.000  11.402
67934W        W40282   0.249   7.298   1.391
67935W        W40283   7.242   5.918   3.818
67936W        W40284  21.739  34.985  13.892
67937W        W40285  34.941   7.180   5.125
67938W        W40286   8.177  38.911   1.367
67939W        W40287  34.494  15.205  12.339
67940W        W40288  43.353  10.301   2.672
67941W        W40289  23.163  20.577  14.794
67942W        W40290  18.256  27.062   4.172
67943W        W40291  22.593  20.038  11.398
67944W        W40292  44.812  29.979  13.898
67945W        W40293   4.373  24.555   1.898
67946W        W40294   0.482  23.689   0.259
67947W        W40295  16.315   7.810   0.748
67948W        W40296  34.447   0.914  11.500
67949W        W40297  34.537  12.172   4.352
67950W        W40298  28.016   9.864  12.398
67951W        W40299  41.526  27.122  12.901
67952W        W40300  12.743  21.087   0.417
67953W        W40301  29.516  12.172   2.345
67954W        W40302  39.395   5.193   1.857
67955W        W40303   5.243  38.510  10.598
67956W        W40304  29.030  14.623   3.762
67957W        W40305  43.980  19.533   4.768
67958W        W40306  15.657  32.421  14.976
67959W        W40307   9.741  35.896  14.455
67960W        W40308  38.007  10.293   4.679
67961W        W40309   3.230  27.152  12.896
67962W        W40310  16.598  33.005  12.992
67963W        W40311  12.727  29.165  10.545
67964W        W40312  17.667  34.487  14.325
67965W        W40313   2.226  25.588  13.543
67966W        W40314  38.362   3.832  11.865
67967W        W40315  32.023  19.091   4.722
67968W        W40316  10.865  10.851   1.800
67969W        W40317  29.103  16.233  11.565
67970W        W40318  14.786  16.633  11.905
67971W        W40319  33.596  20.183  14.316
67972W        W40320   7.330   9.383   2.322
67973W        W40321  24.109   1.336  13.905
67974W        W40322  22.176   9.684  13.444
67975W        W40323  20.666   1.742   2.184
67976W        W40324  28.500  19.650   0.815
67977W        W40325  33.069   7.255  14.340
67978W        W40326   3.415  26.071   0.246
67979W        W40327   5.884  37.836   1.773
67980W        W40328   6.218  42.401   3.200
67981W        W40329  15.678  15.249   1.227
67982W        W40330   1.916  12.253  13.792
67983W        W40331  14.236  29.982   0.781
67984W        W40332  21.579   2.313  12.438
67985W        W40333  33.518  18.245   5.138
67986W        W40334  39.435  36.843  12.892
67987W        W40335  43.936  23.513   3.235
67988W        W40336  32.524  20.066  12.535
67989W        W40337  39.859  19.669   0.912
67990W        W40338   0.451  33.974  13.352
67991W        W40339   9.696   8.211   3.208
67992W        W40340  28.646  21.727   4.342
67993W        W40341  36.097  24.612  10.532
67994W        W40342  34.078  29.142  10.525
67995W        W40343  30.479   6.217   2.879
67996W        W40344   5.366   8.740   1.934
67997W        W40345  37.562   9.759   0.935
67998W        W40346  27.142  41.941  13.052
67999W        W40347  28.636  15.800  13.369
68000W        W40348   0.494  19.200   3.727
68001W        W40349  21.076  26.621   1.328
68002W        W40350   1.933   5.744  12.466
68003W        W40351  25.100  30.459   1.705
68004W        W40352  17.607  17.279   3.660
68005W        W40353  17.707   7.307  13.360
68006W        W40354  24.691  41.455   0.253
68007W        W40355  44.281   6.295  11.475
68008W        W40356  12.184  38.946   1.243
68009W        W40357  31.111  22.213   1.749
68010W        W40358  14.145  38.012   0.302
68011W        W40359   2.891   4.907  10.494
68012W        W40360  25.680  34.608  11.895
68013W        W40361  34.009  44.797   2.306
68014W        W40362   3.344  17.766  12.908
68015W        W40363  29.609  22.559  12.925
68016W        W40364   9.889  13.815   0.326
68017W        W40365  43.768  22.668   1.345
68018W        W40366  34.535  22.172   5.147
68019W        W40367  14.767  22.580   4.289
68020W        W40368   7.871  37.934  12.970
68021W        W40369  28.658  29.042  13.526
68022W        W40370  30.130   2.733  14.859
68023W        W40371  23.016  29.014  10.561
68024W        W40372  25.608  21.114  13.920
68025W        W40373  27.030  34.442   0.927
68026W        W40374  30.131  17.768  11.390
68027W        W40375  30.598   1.421   1.743
68028W        W40376  36.589  26.006  13.908
68029W        W40377  10.693  25.587  13.495
68030W        W40378  37.045   9.785   1.248
68031W        W40379  40.865  27.971   1.886
68032W        W40380  28.584  43.337   2.369
68033W        W40381  23.988  33.041  13.307
68034W        W40382  20.123  31.908   5.094
68035W        W40383  13.270   4.914  13.393
68036W        W40384   5.764   9.246  12.502
68037W        W40385   7.275  37.498   2.893
68038W        W40386  34.604  13.629   4.662
68039W        W40387  11.258   7.691  14.931
68040W        W40388   6.409  15.691   0.325
68041W        W40389  24.571  12.808  12.364
68042W        W40390  27.482  39.880   2.718
68043W        W40391  40.025   1.461   3.804
68044W        W40392   1.270  23.686   4.834
68045W        W40393   4.773  37.925  12.339
68046W        W40394   7.297  10.729  13.312
68047W        W40395  44.289   0.923   4.707
68048W        W40396   7.218  41.023   2.776
68049W        W40397  25.501  27.104   0.782
68050W        W40398  26.192  15.728   0.337
68051W        W40399  34.907   4.412  13.481
68052W        W40400  17.301   0.296   1.418
68053W        W40401   6.350  27.978   3.711
68054W        W40402  23.531  16.804  13.536
68055W        W40403  31.087   8.739   2.801
68056W        W40404   5.238   1.907   3.330
68057W        W40405   6.877   1.279   1.411
68058W        W40406  19.092  17.198   0.937
68059W        W40407  24.518   3.954  13.810
68060W        W40408  27.557  28.474   1.366
68061W        W40409  43.899  17.068  11.393
68062W        W40410  13.650   1.483   1.298
68063W        W40411  18.251  25.527   1.741
68064W        W40412   9.793   7.755  13.888
68065W        W40413  31.121   5.785   2.700
68066W        W40414  25.652   2.454  12.072
68067W        W40415  40.892  14.267  10.628
68068W        W40416  36.051   8.786   0.296
68069W        W40417  41.378  23.107  13.915
68070W        W40418   5.820  18.551   2.379
68071W        W40419   0.918  15.194   4.220
68072W        W40420  35.082   7.270  13.530
68073W        W40421  42.303   2.342   0.947
68074W        W40422  24.033  41.452   4.351
68075W        W40423  27.517  32.561   4.721
68076W        W40424  15.646  37.014  14.383
68077W        W40425  25.061  21.018   3.764
68078W        W40426  38.841  29.055  13.532
68079W        W40427  23.659  30.931  13.363
68080W        W40428  15.646  44.804   3.825
68081W        W40429  29.488  42.032   4.177
68082W        W40430  22.526  27.456  11.034
68083W        W40431   2.857   8.861  10.410
68084W        W40432  24.490  40.815   1.819
68085W        W40433  38.883  25.694  13.392
68086W        W40434  38.979  32.902  12.915
68087W        W40435  37.471  27.549   3.199
68088W        W40436  37.848  30.492   4.156
68089W        W40437  36.928   1.833  13.989
68090W        W40438   7.180   1.301   4.339
68091W        W40439  25.622  24.522  11.081
68092W        W40440  14.645  12.134   1.210
68093W        W40441  39.861   2.908  12.011
68094W        W40442  13.257  26.643   0.449
68095W        W40443  40.942  35.552   1.879
68096W        W40444  22.722  13.662   0.764
68097W        W40445  24.998  30.529   4.750
68098W        W40446  20.665  20.707  10.947
68099W        W40447   8.171  42.004  10.408
68100W        W40448  13.618  32.394  14.839
68101W        W40449  31.593  14.201  12.368
68102W        W40450  42.818  39.879  12.487
68103W        W40451  24.126   2.456   0.776
68104W        W40452  18.700  21.032   4.269
68105W        W40453   7.308  22.084  11.084
68106W        W40454  36.439  28.513   3.324
68107W        W40455  20.709  36.519  11.026
68108W        W40456  38.870  42.935  10.519
68109W        W40457  24.059  14.784   4.826
68110W        W40458  20.680  15.124   3.790
68111W        W40459  42.311  13.139   3.236
68112W        W40460   5.785  26.203  14.387
68113W        W40461  39.367  29.445   4.249
68114W        W40462  41.944  24.714  11.102
68115W        W40463   2.927  21.541   2.812
68116W        W40464  29.449   2.951  12.053
68117W        W40465  38.356  18.680   4.256
68118W        W40466  14.705  33.551   3.801
68119W        W40467  16.693  28.085  13.950
68120W        W40468   7.256  29.459  12.861
68121W        W40469  31.097  37.560  10.952
68122W        W40470  33.020  14.696   3.822
68123W        W40471   5.203  31.646   1.349
68124W        W40472   8.743  21.693  14.286
68125W        W40473  35.062  16.811   4.611
68126W        W40474  12.766  32.113  12.547
68127W        W40475  15.209  24.675  13.434
68128W        W40476  28.946  13.231   4.191
68129W        W40477  13.178  40.883  10.627
68130W        W40478   9.238  28.978   2.675
68131W        W40479  17.660   1.824   2.745
68132W        W40480  31.948  20.269   2.819
68133W        W40481   4.261  27.056   2.338
68134W        W40482  17.124  29.445  13.857
68135W        W40483  18.581  10.342  10.480
68136W        W40484  35.964  11.709  11.558
68137W        W40485  40.819  30.060   2.732
68138W        W40486  39.904  41.521   1.783
68139W        W40487   8.862   3.806   1.254
68140W        W40488  20.611   5.365  11.501
68141W        W40489  11.813  21.070   3.301
68142W        W40490  43.342   9.782  11.392
68143W        W40491  19.216  12.142  13.378
68144W        W40492  21.126  23.523  13.848
68145W        W40493  17.680  18.586  10.449
68146W        W40494  43.302   1.362  14.788
68147W        W40495  35.046  36.518  11.919
68148W        W40496  10.664  40.497   1.226
68149W        W40497   4.753  31.043   1.698
68150W        W40498  43.872   5.722   3.329
68151W        W40499   9.760   6.196  13.452
68152W        W40500  16.610  36.501   1.267
68153W        W40501  20.093   0.477   2.206
68154W        W40502  14.197   9.370   2.409
68155W        W40503   7.253  41.507  14.318
68156W        W40504  19.615  26.471   1.759
68157W        W40505  39.352  15.820   2.294
68158W        W40506  15.802  28.680   1.393
68159W        W40507  43.884  16.298   2.783
68160W        W40508  28.578  29.631  12.488
68161W        W40509  34.490  38.523  12.452
68162W        W40510   0.335  37.042  11.015
68163W        W40511  29.509   9.864   2.386
68164W        W40512  17.794  13.783   0.856
68165W        W40513  25.584  31.965  12.942
68166W        W40514   2.797  35.549   1.259
68167W        W40515  43.269   1.396  10.560
68168W        W40516   8.266  22.221  11.392
68169W        W40517  29.928  17.249   1.706
68170W        W40518  13.175  36.010  12.022
68171W        W40519  26.967  19.558   0.903
68172W        W40520  35.098   4.743   0.472
68173W        W40521  40.538  44.488  13.453
68174W        W40522  11.754  37.417   3.730
68175W        W40523   6.267  33.014  10.948
68176W        W40524  34.068   3.226  12.494
68177W        W40525  20.745  27.608  13.441
68178W        W40526  38.564  38.431  13.466
68179W        W40527   0.935  21.044   3.365
68180W        W40528  43.863   7.906   0.843
68181W        W40529  15.310  25.093   4.279
68182W        W40530  25.633  17.091   0.393
68183W        W40531  43.854  24.123  11.399
68184W        W40532  23.613  37.377  14.890
68185W        W40533  19.256  38.052  11.965
68186W        W40534  16.593  27.100  13.933
68187W        W40535  16.759  39.953   4.298
68188W        W40536  16.316  28.613   1.890
68189W        W40537  16.227  35.903   0.907
68190W        W40538  44.486   8.773  10.921
68191W        W40539  44.505  31.936  14.412
68192W        W40540  30.468   7.897   5.709
68193W        W40541  13.805  28.537  11.524
68194W        W40542  11.810   6.856   9.631
68195W        W40543   9.238  18.287  13.473
68196W        W40544  42.336   2.876   1.245
68197W        W40545  32.468  16.756  12.986
68198W        W40546   3.884  38.034   0.877
68199W        W40547  44.353  37.383   1.215
68200W        W40548  31.602   0.747  14.376
68201W        W40549   3.345  21.117  12.915
68202W        W40550   3.335  14.174  10.411
68203W        W40551  26.029  32.135   1.270
68204W        W40552  34.002  32.966  12.025
68205W        W40553  40.533  35.917  14.031
68206W        W40554   7.705  20.703   0.475
68207W        W40555  43.430  14.265   1.880
68208W        W40556  25.531  15.584  11.933
68209W        W40557  43.000  15.638  11.535
68210W        W40558  38.977   1.915  11.583
68211W        W40559   7.728  33.619   4.213
68212W        W40560  41.321  30.000   4.166
68213W        W40561   7.819  13.740   1.388
68214W        W40562   1.322  26.594   2.873
68215W        W40563  21.598  22.017   1.915
68216W        W40564  12.761  40.931   3.363
68217W        W40565  14.670   8.698   2.804
68218W        W40566  11.854  42.487  10.128
68219W        W40567   8.273  20.106   3.787
68220W        W40568  36.561  14.203  11.075
68221W        W40569  34.872  26.105  12.084
68222W        W40570  21.237   1.465   1.332
68223W        W40571   2.371  22.725   2.296
68224W        W40572  37.070   9.227  14.417
68225W        W40573  26.165  30.048   3.726
68226W        W40574  39.409  21.157   2.709
68227W        W40575  10.208  33.962   0.260
68228W        W40576  17.729   5.701   0.383
68229W        W40577   8.251  35.434  14.986
68230W        W40578  35.580   0.834  13.950
68231W        W40579  36.509  26.571  11.972
68232W        W40580  14.710  13.722   3.807
68233W        W40581  22.737  28.046   0.936
68234W        W40582  43.475   0.954  12.448
68235W        W40583  16.604  21.671  13.856
68236W        W40584  44.780  22.648   2.791
68237W        W40585  19.140  15.597  14.471
68238W        W40586  15.202   1.778  13.061
68239W        W40587  35.383   5.931   1.862
68240W        W40588  40.399  30.605  13.932
68241W        W40589   0.770  10.320   3.196
68242W        W40590  29.075  29.091  13.405
68243W        W40591  41.037  16.657   1.785
68244W        W40592  27.187  10.830   3.317
68245W        W40593   8.188  36.081   0.749
68246W        W40594  15.690  41.301  13.006
68247W        W40595  16.123  16.221  10.898
68248W        W40596  24.206  13.185   1.311
68249W        W40597  43.783  33.907   0.328
68250W        W40598  30.077   4.306   1.365
68251W        W40599  22.154  39.884   4.711
68252W        W40600   5.733  41.002   3.863
68253W        W40601  40.047  33.537  10.460
68254W        W40602   4.353  37.393  12.030
68255W        W40603  21.672   1.739  10.617
68256W        W40604  17.653  41.804  11.959
68257W        W40605  11.343  27.076   1.286
68258W        W40606  30.080  39.516   1.394
68259W        W40607  25.107  26.558  10.618
68260W        W40608  23.514  13.639  13.886
68261W        W40609  39.906   0.882  11.936
68262W        W40610  28.648  11.741   3.372
68263W        W40611  38.023  27.158  12.365
68264W        W40612  20.136   9.886  14.435
68265W        W40613  28.028  14.323  13.422
68266W        W40614   2.291  39.914   3.865
68267W        W40615   5.771  10.154  10.479
68268W        W40616  23.723  43.412  11.899
68269W        W40617  20.226  36.395   2.665
68270W        W40618  16.577  10.298  12.901
68271W        W40619  11.841  43.419  14.288
68272W        W40620   2.758  18.716  10.510
68273W        W40621  16.164  44.321   3.156
68274W        W40622  36.038  30.148   0.452
68275W        W40623  10.800  26.534   0.734
68276W        W40624  30.567  35.529   5.204
68277W        W40625  26.063  33.542  14.930
68278W        W40626  22.545  11.164   1.316
68279W        W40627  44.863  40.930  14.275
68280W        W40628  38.357  10.696   2.764
68281W        W40629  31.430  12.700  11.895
68282W        W40630  12.630  19.618   4.194
68283W        W40631  22.104  23.992  13.923
68284W        W40632  32.041  39.400   1.745
68285W        W40633  11.787  23.623  11.545
68286W        W40634  42.481  16.109   4.156
68287W        W40635   4.882  40.419   3.777
68288W        W40636   7.285   0.843   3.772
68289W        W40637  42.456  27.028   1.261
68290W        W40638  38.398   9.334  11.889
68291W        W40639  36.857  15.159  13.500
68292W        W40640  14.645  31.505  14.923
68293W        W40641  11.747  18.278  12.983
68294W        W40642  31.480  32.948  12.000
68295W        W40643  14.332  40.841   2.736
68296W        W40644   7.705  35.993   1.248
68297W        W40645  10.837  11.685  11.961
68298W        W40646  21.589   3.744   0.868
68299W        W40647  43.983   2.863  11.121
68300W        W40648  10.775   0.977   4.607
68301W        W40649  22.725   1.432   3.284
68302W        W40650  26.580  24.555  12.957
68303W        W40651  22.595  44.871   4.153
68304W        W40652  35.998  32.458  10.420
68305W        W40653  25.634  30.587  14.998
68306W        W40654  25.176  16.266   0.447
68307W        W40655  42.524  33.416   2.724
68308W        W40656  38.463   0.300   0.448
68309W        W40657   4.942  14.690  10.490
68310W        W40658  36.936  12.666   0.273
68311W        W40659  23.204   1.464  12.353
68312W        W40660   0.881  38.490   3.689
68313W        W40661  19.648  17.172  14.767
68314W        W40662  33.519  30.570  14.831
68315W        W40663  29.560  28.008   5.192
68316W        W40664  16.704  11.202  11.004
68317W        W40665  10.357  20.689  10.057
68318W        W40666  32.040  33.541   2.405
68319W        W40667  32.056  16.074  12.938
68320W        W40668   6.774   3.273  10.408
68321W        W40669  25.034  28.651  14.851
68322W        W40670  16.602   3.743   0.949
68323W        W40671  16.274  23.106   1.224
68324W        W40672  35.493  36.541   4.781
68325W        W40673   4.327   8.860   0.360
68326W        W40674  44.281  12.680   3.646
68327W        W40675   5.295  26.999   1.820
68328W        W40676  37.016  21.239   2.312
68329W        W40677  43.876   0.892   0.850
68330W        W40678  33.126   8.368   2.192
68331W        W40679   2.793  23.176  13.308
68332W        W40680   0.842  29.094   2.710
68333W        W40681  10.876  11.268   2.842
68334W        W40682  14.646   3.416   3.316
68335W        W40683  11.185   8.835  12.530
68336W        W40684  20.581   0.949   0.325
68337W        W40685  20.158  20.562  13.494
68338W        W40686  39.425  28.089   2.798
68339W        W40687   5.196   1.929  14.936
68340W        W40688   5.195   1.934   4.194
68341W        W40689  16.241  34.565   3.288
68342W        W40690  10.158  37.394  14.864
68343W        W40691  17.187  31.434  12.951
68344W        W40692  44.887  30.511  12.453
68345W        W40693  40.865  26.644  11.477
68346W        W40694  25.974  44.820   3.367
68347W        W40695  24.628  40.336  14.994
68348W        W40696  33.563   2.418  14.784
68349W        W40697  44.312  31.147  14.436
68350W        W40698  20.765  20.725  12.410
68351W        W40699  24.540  23.734  14.778
68352W        W40700  13.197  33.423   2.703
68353W        W40701  12.236  29.468  13.791
68354W        W40702  39.550  28.183   1.765
68355W        W40703   5.759  44.991   2.316
68356W        W40704   8.359  27.104  12.524
68357W        W40705  41.994   3.284  11.046
68358W        W40706  41.016  11.821   3.249
68359W        W40707  36.350  35.976  13.861
68360W        W40708  34.584  20.751  13.803
68361W        W40709  20.210   4.243   2.805
68362W        W40710   5.776  19.251  13.875
68363W        W40711  39.821   2.833   3.172
68364W        W40712  43.933   2.943   4.174
68365W        W40713   0.382  11.372  14.923
68366W        W40714  21.084  15.315   4.217
68367W        W40715  36.456  17.563  14.385
68368W        W40716  33.118  26.594  11.475
68369W        W40717  13.807   4.423  10.958
68370W        W40718  41.914  12.264  12.925
68371W        W40719  20.546  29.604  11.863
68372W        W40720  39.870  36.378   2.240
68373W        W40721  19.689  26.049   1.361
68374W        W40722  34.428  22.731  11.075
68375W        W40723  17.171  18.075   2.700
68376W        W40724  26.973  15.204  14.489
68377W        W40725  42.797  14.117   3.765
68378W        W40726  35.867  38.440   0.471
68379W        W40727  37.478  32.990  10.050
68380W        W40728  28.597  38.020   4.706
68381W        W40729   5.432  18.189   5.138
68382W        W40730   9.719   9.835  13.912
68383W        W40731  14.789  10.857   4.634
68384W        W40732   3.350  44.798   3.781
68385W        W40733   2.939   4.888  13.520
68386W        W40734  31.093  31.572   0.337
68387W        W40735  33.115  19.236  11.421
68388W        W40736   6.677  15.771   0.875
68389W        W40737  14.749  12.306   2.285
68390W        W40738  35.966  24.982   1.275
68391W        W40739  13.323  38.845   1.878
68392W        W40740  12.197  15.206  10.902
68393W        W40741  22.699  15.112  12.934
68394W        W40742  40.393  11.837  10.633
68395W        W40743  28.471  21.715  13.819
68396W        W40744  11.233  39.352  14.424
68397W        W40745   2.835  14.227  12.430
68398W        W40746  13.827  10.663  11.537
68399W        W40747   4.277   6.689   3.292
68400W        W40748  30.045  44.810  10.621
68401W        W40749  13.157  18.063  13.408
68402W        W40750  36.964  21.113  10.463
68403W        W40751  25.643  20.647   1.859
68404W        W40752  10.241  28.466   2.378
68405W        W40753  15.242  41.998   1.760
68406W        W40754  37.953  31.425   3.257
68407W        W40755  33.024  13.658   1.231
68408W        W40756  41.941   8.669   2.812
68409W        W40757  32.970  19.754   2.381
68410W        W40758  27.530  37.027   3.770
68411W        W40759  22.554   1.970  12.961
68412W        W40760  12.662  10.817   1.255
68413W        W40761   1.869  32.580  12.440
68414W        W40762  19.651  31.644   5.726
68415W        W40763  40.398  27.134  14.499
68416W        W40764   1.352  28.654  11.971
68417W        W40765  28.537   6.733   2.245
68418W        W40766  38.512  15.701  11.434
68419W        W40767  15.752  26.616   1.750
68420W        W40768  37.058  33.050  14.512
68421W        W40769  25.706  22.158  11.946
68422W        W40770   3.374  21.021   1.929
68423W        W40771   6.306   8.838  10.599
68424W        W40772  44.308  12.646  11.950
68425W        W40773  29.662  25.588   0.279
68426W        W40774  25.189  35.870  11.371
68427W        W40775   4.739  21.567   1.219
68428W        W40776  44.269  11.276   3.231
68429W        W40777  37.426  25.073  14.849
68430W        W40778  20.712  15.276   1.759
68431W        W40779  30.960  30.052   1.210
68432W        W40780  21.149   1.875  10.015
68433W        W40781  40.031  13.223  11.079
68434W        W40782  36.454  14.140   1.433
68435W        W40783  41.534  25.539   3.368
68436W        W40784  32.619   3.319   4.828
68437W        W40785  34.377  44.427  12.366
68438W        W40786  14.337  33.565  13.947
68439W        W40787  20.603  42.523  13.947
68440W        W40788  16.679  24.019  13.446
68441W        W40789  22.100  22.127  11.032
68442W        W40790  23.588  28.592  12.387
68443W        W40791   5.802  41.919  12.920
68444W        W40792  30.129  27.979   3.656
68445W        W40793  29.963  20.680   2.394
68446W        W40794  43.343  14.244   0.941
68447W        W40795  21.160  30.562   9.963
68448W        W40796  38.375  40.802   1.762
68449W        W40797   6.297  13.150   0.858
68450W        W40798  38.857   7.713   0.276
68451W        W40799  12.725  18.242   3.244
68452W        W40800  32.074  13.655  13.331
68453W        W40801  34.864  12.616   0.279
68454W        W40802  19.537  35.861   0.464
68455W        W40803  24.208  12.827   3.262
68456W        W40804  42.916   8.826   1.278
68457W        W40805  37.560  12.629  12.549
68458W        W40806  18.058  24.723   4.832
68459W        W40807  31.551  32.999   0.915
68460W        W40808  27.594  17.560  12.458
68461W        W40809   1.483   2.395  12.948
68462W        W40810  32.047  19.139   2.339
68463W        W40811  22.144  18.561   4.210
68464W        W40812  12.177  14.824  12.076
68465W        W40813   0.773  40.444  10.159
68466W        W40814  32.903  14.821   0.924
68467W        W40815  27.552  36.051   1.792
68468W        W40816  43.004  28.000   1.354
68469W        W40817  25.703   6.890   0.784
68470W        W40818  32.538   0.442   4.282
68471W        W40819  25.518  25.559  13.316
68472W        W40820  33.075   3.835  10.629
68473W        W40821   0.270  35.925  13.425
68474W        W40822   3.843  29.967  10.903
68475W        W40823  30.606  42.363  14.452
68476W        W40824  26.208   3.352  12.512
68477W        W40825  29.964  33.880   4.131
68478W        W40826  31.952  19.687  11.995
68479W        W40827   1.841  24.613   4.332
68480W        W40828  40.490  36.888  13.821
68481W        W40829  25.684  27.088   2.209
68482W        W40830  26.648  44.953  10.581
68483W        W40831  19.772  44.427   4.194
68484W        W40832  38.536  11.783   3.695
68485W        W40833   7.689  38.876  12.390
68486W        W40834  26.111   5.920   4.695
68487W        W40835  42.843  19.074   0.434
68488W        W40836  29.039  23.624   4.759
68489W        W40837  10.869  13.142  12.920
68490W        W40838   3.447   1.270  12.363
68491W        W40839  19.160   5.422   0.964
68492W        W40840  28.602  31.467   4.222
68493W        W40841  16.593   8.833   0.249
68494W        W40842  39.044   6.409  14.830
68495W        W40843  17.625  35.888   1.873
68496W        W40844  34.967  34.508   0.442
68497W        W40845  35.969   4.736  11.969
68498W        W40846  14.117   8.858   2.203
68499W        W40847   7.694   1.901   2.258
68500W        W40848  25.709  30.413  11.470
68501W        W40849  30.623  27.490  12.345
68502W        W40850  26.970  40.415   0.762
68503W        W40851  26.539   4.769   1.412
68504W        W40852  26.171  35.900  14.453
68505W        W40853  43.430  26.142   0.445
68506W        W40854  23.116  13.778  12.546
68507W        W40855  25.196  40.442   0.291
68508W        W40856  10.141   7.701   1.727
68509W        W40857  10.807   2.763   4.151
68510W        W40858  14.734  26.061   0.243
68511W        W40859  11.313  21.140  14.419
68512W        W40860  12.261  38.834  10.455
68513W        W40861   5.870  20.272  12.908
68514W        W40862   9.383  44.366   1.776
68515W        W40863  21.744  39.451   4.311
68516W        W40864  11.156  43.771   2.800
68517W        W40865  20.173  33.552   0.742
68518W        W40866   0.437  13.119   0.266
68519W        W40867  18.212   1.761   2.838
68520W        W40868  21.070  17.132   2.833
68521W        W40869  31.004  44.936   4.330
68522W        W40870  19.566  18.293  11.594
68523W        W40871  10.235   7.738  14.389
68524W        W40872  35.532  24.192  14.359
68525W        W40873  25.084   8.179  10.626
68526W        W40874  13.750  20.733  13.936
68527W        W40875  35.565  17.196  10.516
68528W        W40876   4.241  26.499  14.808
68529W        W40877   5.732  41.793   0.821
68530W        W40878  29.154  21.533  13.858
68531W        W40879  35.976  17.798   4.747
68532W        W40880  41.433  44.830  13.510
68533W        W40881  16.252   6.233  13.480
68534W        W40882  25.689  17.119   2.413
68535W        W40883  12.825   9.190  10.617
68536W        W40884  21.608  29.137  14.975
68537W        W40885  26.564   9.367  10.941
68538W        W40886  33.426  34.912  12.071
68539W        W40887  39.901  40.048   3.257
68540W        W40888  33.087  36.086   0.372
68541W        W40889  25.478  42.949   1.234
68542W        W40890  35.510  12.270   0.360
68543W        W40891  25.661  11.223  14.320
68544W        W40892  36.365  44.301  14.985
68545W        W40893  13.834  39.905  11.421
68546W        W40894  11.830   6.392   2.196
68547W        W40895  43.865  35.457   0.889
68548W        W40896  30.978   0.456   4.244
68549W        W40897  40.434  13.312   5.113
68550W        W40898   7.818  23.226   2.413
68551W        W40899  23.158   9.851   9.619
68552W        W40900   4.792   9.223  11.004
68553W        W40901  26.984  26.007  14.451
68554W        W40902  19.280  11.259  14.282
68555W        W40903  33.596  44.267  10.474
68556W        W40904  37.953  17.571   4.775
68557W        W40905  27.491   2.287  11.005
68558W        W40906  21.086  37.540   2.898
68559W        W40907  21.241   9.266   4.334
68560W        W40908  17.120  43.810  13.510
68561W        W40909   3.394   6.428   0.285
68562W        W40910  44.292   7.912  12.573
68563W        W40911  30.643   6.709   3.306
68564W        W40912  20.126  18.190   1.702
68565W        W40913  19.117  38.398   1.704
68566W        W40914  24.067  38.934   9.999
68567W        W40915  36.024   6.419   2.248
68568W        W40916   2.900  40.029   4.321
68569W        W40917  17.294  10.734   0.838
68570W        W40918  41.496   0.329   4.334
68571W        W40919  39.503  22.151   2.240
68572W        W40920  40.937   6.727  13.792
68573W        W40921  22.573  29.001  12.378
68574W        W40922  16.777  44.933  12.010
68575W        W40923  13.734  21.248  12.916
68576W        W40924  27.181  42.007  13.461
68577W        W40925  34.104   6.761   0.284
68578W        W40926  39.876  40.534  13.364
68579W        W40927  29.493  43.765   1.820
68580W        W40928  18.670   6.820   4.819
68581W        W40929  43.431  25.192   2.898
68582W        W40930  34.608  10.255  11.009
68583W        W40931   1.929  34.488   2.772
68584W        W40932   2.337  44.809   3.669
68585W        W40933  20.612  31.518   5.210
68586W        W40934  12.761  15.321  10.980
68587W        W40935  20.259  33.891   2.253
68588W        W40936  33.907  18.172  14.889
68589W        W40937   9.830  30.593   9.946
68590W        W40938   4.912   8.285  12.576
68591W        W40939   9.877  30.910   5.667
68592W        W40940  24.484  14.155   1.284
68593W        W40941   5.204  19.229   4.646
68594W        W40942  11.629   8.856   4.133
68595W        W40943  11.207   2.800   2.899
68596W        W40944   0.985  19.725   4.790
68597W        W40945  10.719  12.150  12.027
68598W        W40946  26.572   2.258   1.394
68599W        W40947  25.526  13.124  14.881
68600W        W40948  15.210  30.568   2.195
68601W        W40949  39.961  16.203   2.821
68602W        W40950  36.365  38.361  12.526
68603W        W40951  33.599  30.592   1.907
68604W        W40952   8.347  14.183   3.843
68605W        W40953   3.458  32.406  14.914
68606W        W40954  25.057  30.107   3.830
68607W        W40955  18.658   7.197   0.867
68608W        W40956  33.388  31.097  11.894
68609W        W40957  14.627  24.479  11.406
68610W        W40958  33.390  29.606  12.045
68611W        W40959  18.674   9.207  11.075
68612W        W40960  44.266  36.348   1.396
68613W        W40961  33.625   4.838   4.666
68614W        W40962  20.129   6.688  11.388
68615W        W40963  10.352   6.728  13.382
68616W        W40964  25.048  27.472  11.401
68617W        W40965   9.842  31.559   3.342
68618W        W40966  19.178  32.887  13.484
68619W        W40967  38.438  26.017  13.417
68620W        W40968  27.622  40.804   3.323
68621W        W40969   5.821  26.155   3.662
68622W        W40970  39.863  31.619   0.879
68623W        W40971  22.607   2.231   3.764
68624W        W40972  29.033  34.064   2.190
68625W        W40973  26.680  14.176  11.528
68626W        W40974  18.066  16.200  14.793
68627W        W40975  17.254  33.483  13.983
68628W        W40976   1.733  35.999   3.736
68629W        W40977  32.928  44.397   3.636
68630W        W40978   0.941  19.125  13.369
68631W        W40979  33.969  21.659   4.192
68632W        W40980  16.784  20.680  10.992
68633W        W40981  35.580  31.026  14.920
68634W        W40982   5.394   6.222  12.027
68635W        W40983  31.008  27.486  12.928
68636W        W40984  28.012  20.105  13.525
68637W        W40985  24.649  22.563  14.954
68638W        W40986   2.324  18.243   2.871
68639W        W40987   9.366   5.730   2.370
68640W        W40988  30.575  32.049  12.024
68641W        W40989  38.009   0.867   1.797
68642W        W40990  33.608  36.867   4.344
68643W        W40991   2.264  44.315  12.008
68644W        W40992  14.231   4.290   2.189
68645W        W40993  30.445  15.237   2.353
68646W        W40994  19.710  42.879   0.320
68647W        W40995  30.415  37.840  13.823
68648W        W40996   8.314   3.738  10.587
68649W        W40997   6.211   1.346   2.217
68650W        W40998  44.915   8.322   2.188
68651W        W40999  10.789   8.353   3.249
68652W        W41000  26.551  44.443   2.798
68653W        W41001  32.967  35.430  11.887
68654W        W41002  13.794   0.489   3.630
68655W        W41003   7.838  10.345   5.314
68656W        W41004   2.454  11.814   0.839
68657W        W41005  29.042  13.749  12.514
68658W        W41006  22.049  15.242   3.702
68659W        W41007   4.375  40.340   3.871
68660W        W41008  30.944  38.899  13.514
68661W        W41009   9.735  22.048   1.694
68662W        W41010  42.986  18.561   2.372
68663W        W41011  36.536  18.577   1.880
68664W        W41012  41.955  43.512   3.175
68665W        W41013  20.730  30.046   2.760
68666W        W41014   5.265  11.250  13.810
68667W        W41015  35.454   9.826  14.847
68668W        W41016   4.714  25.203  11.481
68669W        W41017  43.777   3.249   0.903
68670W        W41018   8.177   3.855   3.840
68671W        W41019  37.085  43.764   2.840
68672W        W41020  26.695  11.768  14.301
68673W        W41021   5.766  11.830   0.308
68674W        W41022  35.390  39.435  14.406
68675W        W41023  35.979  20.037   0.867
68676W        W41024  26.138   6.387  13.880
68677W        W41025  20.056   4.235  11.392
68678W        W41026  42.315  28.176  10.553
68679W        W41027  41.964  33.034   2.730
68680W        W41028  17.752  28.015  10.625
68681W        W41029  29.482   3.315   1.696
68682W        W41030   6.350  24.573   0.349
68683W        W41031  24.132  42.863   5.154
68684W        W41032  23.589  15.128   4.649
68685W        W41033  39.392  23.671   4.270
68686W        W41034  31.059  20.114  14.278
68687W        W41035  27.999  31.937  14.511
68688W        W41036  43.469   9.736  12.043
68689W        W41037   0.872   0.432   1.438
68690W        W41038  12.146  37.427  14.292
68691W        W41039  30.056   5.707   1.805
68692W        W41040  40.005   2.742  13.331
68693W        W41041  30.009  42.934   1.236
68694W        W41042  11.185   8.869  11.530
68695W        W41043  17.650   6.719  10.419
68696W        W41044  26.654  10.209   0.398
68697W        W41045  14.660  18.097  12.499
68698W        W41046  24.558   4.380  10.900
68699W        W41047  34.973  39.327   1.897
68700W        W41048  13.164  34.386  12.866
68701W        W41049  29.666   8.171   3.343
68702W        W41050  34.028   3.813   2.845
68703W        W41051  10.731  10.654   4.253
68704W        W41052  15.616  18.558   2.240
68705W        W41053  38.967  32.007   0.794
68706W        W41054  12.156  21.677   4.301
68707W        W41055   4.734  26.150   2.229
68708W        W41056  35.030   1.339   0.755
68709W        W41057  14.785  38.540   2.401
68710W        W41058  39.390  33.395   4.272
68711W        W41059  36.364  10.680   3.343
68712W        W41060  37.432  41.397  10.062
68713W        W41061  14.290  11.373  11.464
68714W        W41062   1.453  38.947   0.880
68715W        W41063  11.300  15.263  12.973
68716W        W41064  34.566  19.180   1.882
68717W        W41065  32.922   2.724  10.420
68718W        W41066   9.250  21.719  11.919
68719W        W41067  26.637   7.236  10.480
68720W        W41068   1.375   5.272   2.178
68721W        W41069  15.270   6.775  12.539
68722W        W41070  30.982  23.238  13.813
68723W        W41071  19.537   9.370  12.856
68724W        W41072  33.977  28.150   2.328
68725W        W41073  32.937  13.205  12.865
68726W        W41074  23.716   2.413  14.947
68727W        W41075  18.722  44.883  12.544
68728W        W41076   9.212  16.784   2.259
68729W        W41077  12.246  18.633   1.323
68730W        W41078  29.115  15.754  14.991
68731W        W41079  29.174  18.699  14.986
68732W        W41080  22.174  27.187   3.806
68733W        W41081   2.290  10.782  12.060
68734W        W41082  14.692  28.145  12.415
68735W        W41083  22.568   8.836  14.429
68736W        W41084  12.845  32.459  10.463
68737W        W41085  12.136  13.199  10.955
68738W        W41086  16.757   3.443   2.714
68739W        W41087  15.230   1.339  14.002
68740W        W41088   7.370   2.228  12.055
68741W        W41089  10.827   6.278   4.698
68742W        W41090  37.384  36.488   1.738
68743W        W41091   1.960  34.386   1.917
68744W        W41092  22.726  43.358  10.992
68745W        W41093  23.220  15.283   0.956
68746W        W41094  27.455  15.675   4.827
68747W        W41095  23.195  28.110  11.885
68748W        W41096  12.662  33.388  11.463
68749W        W41097  32.531  16.756   3.212
68750W        W41098   5.231  36.552  11.094
68751W        W41099  32.071   4.248   2.683
68752W        W41100  15.301  37.540   1.796
68753W        W41101  22.642  15.301   1.734
68754W        W41102   8.784   9.790   4.636
68755W        W41103   8.835   0.325   4.785
68756W        W41104  15.328  33.108   2.204
68757W        W41105  31.139  39.867  11.111
68758W        W41106  40.405  21.113   2.740
68759W        W41107  43.455   1.844  14.760
68760W        W41108  30.450  34.382   2.829
68761W        W41109  11.835   5.303  14.893
68762W        W41110  43.390  41.354  11.556
68763W        W41111   2.799  15.203  13.973
68764W        W41112  43.898  30.133  14.397
68765W        W41113  26.477  41.442   4.817
68766W        W41114   6.868  34.546   1.342
68767W        W41115  18.167  11.251   0.728
68768W        W41116  43.001  35.541   4.683
68769W        W41117   0.808  16.227  13.910
68770W        W41118  29.583  13.694  10.437
68771W        W41119  33.492  39.497  10.001
68772W        W41120  43.976  27.111  14.946
68773W        W41121  15.644  32.558  11.005
68774W        W41122   4.737  42.840   1.881
68775W        W41123  42.488  42.520  10.643
68776W        W41124   2.886   7.903   1.378
68777W        W41125  27.561  36.925   2.864
68778W        W41126  12.649  16.800  14.282
68779W        W41127  12.202  41.466  12.469
68780W        W41128  38.362   9.214  14.285
68781W        W41129  12.749  26.610  14.466
68782W        W41130   5.882   8.174  13.456
68783W        W41131  30.051  16.299   2.884
68784W        W41132  31.603  15.754  13.494
68785W        W41133   2.723  19.247   4.667
68786W        W41134  26.183  31.938   2.799
68787W        W41135   3.410  10.201   0.332
68788W        W41136  18.117   8.186   0.773
68789W        W41137  38.012  41.424  14.985
68790W        W41138  15.222  41.938  13.332
68791W        W41139   8.654   4.778  14.831
68792W        W41140  41.816  23.700   1.358
68793W        W41141   6.205  44.288  14.985
68794W        W41142   5.411  36.388   4.723
68795W        W41143  32.075   0.344  10.480
68796W        W41144   6.212  33.571  10.932
68797W        W41145  38.875  12.822  14.961
68798W        W41146  14.291  36.847  10.524
68799W        W41147   8.312  44.263   4.209
68800W        W41148  18.067  25.181  13.423
68801W        W41149  40.329  42.331  13.323
68802W        W41150  27.474   9.707  14.418
68803W        W41151  14.810  16.175   1.329
68804W        W41152  27.019  23.610   1.728
68805W        W41153  24.531   9.660   4.260
68806W        W41154  42.456  31.090   0.727
68807W        W41155  31.027  33.471   3.249
68808W        W41156  22.593  28.980  10.593
68809W        W41157  30.619  10.816   2.340
68810W        W41158   6.681  28.077  13.839
68811W        W41159  25.550  25.196   3.629
68812W        W41160  19.260   0.954   2.834
68813W        W41161  37.340  38.428   9.936
68814W        W41162  39.387   7.801   4.614
68815W        W41163   5.226  27.542  11.484
68816W        W41164  36.552  12.655  10.976
68817W        W41165  41.398  31.573   4.744
68818W        W41166  14.823  20.587  12.927
68819W        W41167  38.507  23.083   0.836
68820W        W41168  15.671  24.631   4.145
68821W        W41169  39.840  33.055  11.106
68822W        W41170   4.925  32.567  12.934
68823W        W41171  31.529   5.874   1.421
68824W        W41172  18.145  16.244  12.921
68825W        W41173  35.529  27.997   4.260
68826W        W41174  16.128  11.246  10.120
68827W        W41175  35.364  13.208   3.353
68828W        W41176  35.402  25.020  14.030
68829W        W41177  37.886  37.867  11.526
68830W        W41178   5.194  10.667  13.392
68831W        W41179  35.886   2.299   2.890
68832W        W41180  23.716  22.674  13.955
68833W        W41181  24.654  32.028  11.070
68834W        W41182   8.872   8.372  13.374
68835W        W41183   3.240  10.876  11.548
68836W        W41184  17.745  29.065  13.409
68837W        W41185  44.371  36.473  13.900
68838W        W41186  37.412  18.651   0.773
68839W        W41187  29.626  13.798   4.751
68840W        W41188  31.540  18.258  11.941
68841W        W41189  14.672  23.673   3.657
68842W        W41190  22.598   6.759   1.226
68843W        W41191  10.863   8.381   4.667
68844W        W41192   2.920   7.177  12.411
68845W        W41193  35.475   0.328   4.615
68846W        W41194  24.113  32.502  12.507
68847W        W41195  44.318  25.509  12.363
68848W        W41196  40.929  44.373   4.761
68849W        W41197  32.635  34.407   9.458
68850W        W41198  17.257  13.303   4.597
68851W        W41199  25.477  32.057  14.831
68852W        W41200  14.747  37.401  13.331
68853W        W41201  34.482  27.056  12.427
68854W        W41202  24.511  25.668  10.599
68855W        W41203  40.032  18.786  14.827
68856W        W41204  21.571  43.973  14.836
68857W        W41205  42.875  33.454  13.319
68858W        W41206  32.054  15.732   3.162
68859W        W41207  15.823  37.380  10.069
68860W        W41208   5.241  21.654   0.378
68861W        W41209   7.707  30.948  11.918
68862W        W41210   8.865  36.367  11.587
68863W        W41211  15.583  11.270  10.148
68864W        W41212  33.569  12.769  10.545
68865W        W41213  37.386  41.807   1.393
68866W        W41214  32.615  17.784   0.868
68867W        W41215   0.439   5.421   2.261
68868W        W41216  11.202  10.305  10.591
68869W        W41217  18.210   9.653   3.719
68870W        W41218  28.077  43.854   1.370
68871W        W41219  16.112  31.563   2.403
68872W        W41220  27.011   3.279  14.416
68873W        W41221  19.713  22.010  12.525
68874W        W41222  37.066   7.790   4.705
68875W        W41223  16.195  41.014  14.939
68876W        W41224  33.382   5.356  12.559
68877W        W41225   5.318  39.983  11.957
68878W        W41226  18.560  37.545   4.612
68879W        W41227  42.319  26.985   0.375
68880W        W41228  34.915  26.017   3.261
68881W        W41229  42.338   7.827   2.703
68882W        W41230  21.655  44.766  12.970
68883W        W41231  25.132  43.806   4.263
68884W        W41232  15.638  16.237  14.488
68885W        W41233  21.632   3.385   5.275
68886W        W41234  38.415   9.776  14.785
68887W        W41235  31.427  13.259   4.619
68888W        W41236   4.855  11.279  14.836
68889W        W41237  38.039  26.141   4.335
68890W        W41238  40.030  38.338  11.973
68891W        W41239  42.889   0.793   3.750
68892W        W41240  25.163  29.636   1.924
68893W        W41241  13.121   6.746  14.918
68894W        W41242  38.356  26.093  10.924
68895W        W41243  12.210   3.401   2.213
68896W        W41244  25.474  32.515   1.748
68897W        W41245   5.412  14.716   4.811
68898W        W41246  11.162   0.899  11.575
68899W        W41247  22.099  37.517   2.713
68900W        W41248   3.823  42.811  11.571
68901W        W41249  14.316  31.090   0.284
68902W        W41250  28.558  36.556   0.756
68903W        W41251  14.797  36.493  14.779
68904W        W41252  10.281   8.901  13.899
68905W        W41253  32.597  12.358   2.367
68906W        W41254  32.461  13.226   3.269
68907W        W41255  14.608  33.460   0.910
68908W        W41256  19.621  21.639   2.701
68909W        W41257  16.711  35.099  11.374
68910W        W41258  15.642  30.026   4.624
68911W        W41259  13.733  31.962   5.084
68912W        W41260  30.624  36.463  13.875
68913W        W41261  43.949   0.286  10.577
68914W        W41262  16.230  35.076  12.915
68915W        W41263  17.786  28.942  12.971
68916W        W41264  39.529  26.153   2.390
68917W        W41265  15.810  31.034   0.266
68918W        W41266  10.326   7.856  10.643
68919W        W41267   6.371  36.363  11.092
68920W        W41268  20.255  26.526  11.980
68921W        W41269  39.872  31.463   3.722
68922W        W41270  18.561   0.829  13.453
68923W        W41271  21.546  30.983   0.388
68924W        W41272   8.753   9.192   5.122
68925W        W41273  39.415   2.270   1.837
68926W        W41274  11.309  38.028  13.804
68927W        W41275  31.638   3.913  13.352
68928W        W41276  21.742  21.545  10.938
68929W        W41277   9.831  14.766   0.466
68930W        W41278   0.271  16.235   1.728
68931W        W41279  10.367  28.646  14.952
68932W        W41280  20.631  24.135   0.906
68933W        W41281  39.017  23.591  13.413
68934W        W41282  41.489  40.329   4.736
68935W        W41283  30.114   0.456  11.509
68936W        W41284  12.344   9.814   0.440
68937W        W41285  29.931  38.042   2.344
68938W        W41286   6.304  42.495  14.297
68939W        W41287  16.103  34.046  11.420
68940W        W41288  20.064  13.141   3.211
68941W        W41289  40.881  36.964   4.119
68942W        W41290  43.465  37.978  14.985
68943W        W41291  37.343  39.973  12.908
68944W        W41292   7.414  40.912   2.290
68945W        W41293  37.411  14.593  11.083
68946W        W41294  27.686  35.963  12.047
68947W        W41295   6.899  42.500   3.812
68948W        W41296   6.415  34.580   4.252
68949W        W41297  36.480  10.153  11.017
68950W        W41298  39.426   1.345   3.248
68951W        W41299  10.816   9.258   4.778
68952W        W41300  43.021  17.701  10.911
68953W        W41301  44.305  29.070  10.984
68954W        W41302  40.950  35.897   3.862
68955W        W41303  28.011  12.314  11.396
68956W        W41304   0.767  18.688   3.278
68957W        W41305  35.959  11.371   3.326
68958W        W41306  24.066  29.462  14.385
68959W        W41307  41.494  34.035  14.003
68960W        W41308  14.187  44.374  12.842
68961W        W41309   2.383   1.272   0.833
68962W        W41310  15.778  40.323   1.854
68963W        W41311  40.883  16.169   1.368
68964W        W41312  42.343  15.624   4.719
68965W        W41313  23.038  15.690   1.838
68966W        W41314  10.171  26.166   1.229
68967W        W41315  19.266  44.281   1.705
68968W        W41316   2.422  14.241   3.218
68969W        W41317  25.116  14.099   0.862
68970W        W41318  10.227  34.941   2.273
68971W        W41319   2.768   9.330   2.290
68972W        W41320   0.947  31.422  10.617
68973W        W41321  15.821   9.670   4.750
68974W        W41322   7.285   3.775   0.429
68975W        W41323  24.983  10.167   0.379
68976W        W41324  16.316   8.755  10.642
68977W        W41325  21.195   5.263  12.348
68978W        W41326  10.875  22.691   4.119
68979W        W41327  40.534  27.099  11.004
68980W        W41328  32.053  38.361   4.349
68981W        W41329   9.325   1.818  11.018
68982W        W41330  34.471   2.963  11.471
68983W        W41331   0.427  25.081  10.950
68984W        W41332   7.853  17.274  12.577
68985W        W41333  17.658  16.162   3.673
68986W        W41334  33.477  17.226   0.928
68987W        W41335  16.763   7.338  13.516
68988W        W41336  30.914   4.754  11.465
68989W        W41337   3.383  41.940  11.868
68990W        W41338   9.288  44.332   2.357
68991W        W41339  23.196  21.568  13.954
68992W        W41340  25.588  44.872  10.917
68993W        W41341   3.268   3.371  11.968
68994W        W41342  24.061   6.215   2.825
68995W        W41343  35.564   4.310  14.786
68996W        W41344  13.337  29.960   4.676
68997W        W41345   2.376  41.845  14.458
68998W        W41346  18.098  22.741   3.859
68999W        W41347   4.373  16.581   4.710
69000W        W41348  35.418   9.843   1.376
69001W        W41349  37.042  29.659   0.958
69002W        W41350  42.922  20.122  13.325
69003W        W41351  41.382  27.953  12.913
69004W        W41352  26.039  16.268   1.447
69005W        W41353   4.227  43.420   2.672
69006W        W41354  41.443  36.462  13.893
69007W        W41355  17.223  19.578   0.771
69008W        W41356  43.840  31.082   0.786
69009W        W41357  20.732  11.282   2.879
69010W        W41358  35.995  44.851  13.976
69011W        W41359  32.613  12.210   2.734
69012W        W41360  25.063  19.740   1.928
69013W        W41361  26.686  33.874  11.071
69014W        W41362  44.420  33.469  10.483
69015W        W41363  11.364  41.882   2.324
69016W        W41364  28.042   2.302   1.760
69017W        W41365  16.772  39.061  12.971
69018W        W41366   1.915  40.423  12.470
69019W        W41367  20.159  34.034  12.851
69020W        W41368   4.762  37.429  12.077
69021W        W41369  36.969  36.087   0.940
69022W        W41370   2.863  28.986   3.839
69023W        W41371  44.975  13.652   3.303
69024W        W41372  24.572  13.696   3.293
69025W        W41373   2.941  18.074   2.666
69026W        W41374  15.162  33.125  13.350
69027W        W41375  29.460  12.256  10.576
69028W        W41376  28.103  23.583  11.493
69029W        W41377  35.008   6.193   2.378
69030W        W41378   9.859   8.281  14.801
69031W        W41379  19.146  11.239   2.269
69032W        W41380  31.094  44.280   2.838
69033W        W41381  35.062  36.425  12.367
69034W        W41382  44.333  43.808   3.841
69035W        W41383  44.782  37.944   0.726
69036W        W41384  28.461  31.921  14.473
69037W        W41385   0.935  12.336   0.334
69038W        W41386   9.802  22.735  10.909
69039W        W41387  27.484   0.958  14.890
69040W        W41388  42.795   3.786   4.337
69041W        W41389  32.976   8.222  14.483
69042W        W41390  12.648  34.078  11.958
69043W        W41391  18.216  11.769   3.263
69044W        W41392   1.732  20.266  11.492
69045W        W41393  30.954  32.565  13.432
69046W        W41394  42.010  21.132   3.240
69047W        W41395  30.137  35.601  10.456
69048W        W41396  28.164  25.582  10.493
69049W        W41397  19.724  40.515  10.532
69050W        W41398  32.566   5.807   1.296
69051W        W41399   7.392  39.322   2.777
69052W        W41400  29.091  23.618   3.763
69053W        W41401  18.664   0.952  13.876
69054W        W41402  20.082  21.537   4.720
69055W        W41403  19.636  25.489   3.338
69056W        W41404  23.721   1.446   4.282
69057W        W41405   7.231   0.343  13.348
69058W        W41406   5.290   6.735   3.279
69059W        W41407   4.896   8.754  13.893
69060W        W41408  31.921   4.275   4.627
69061W        W41409  11.705  38.865   4.627
69062W        W41410  33.960  39.508  11.894
69063W        W41411  15.195  16.609  14.864
69064W        W41412  22.221  39.825  13.011
69065W        W41413  32.487   7.336   4.161
69066W        W41414  35.005  15.212   3.762
69067W        W41415  29.586  20.633  14.995
69068W        W41416   0.749  33.381   5.112
69069W        W41417  35.972  43.977   4.243
69070W        W41418   5.867   2.390   1.245
69071W        W41419  40.008  21.638   0.737
69072W        W41420  34.425  10.853   3.868
69073W        W41421  12.644  27.546  11.921
69074W        W41422  13.117   5.755  13.380
69075W        W41423  29.598  12.217   4.628
69076W        W41424  33.082  25.168   0.455
69077W        W41425  44.947  10.321  11.394
69078W        W41426  10.311  34.579  11.908
69079W        W41427  40.478  11.694   3.338
69080W        W41428  14.595  12.731  12.393
69081W        W41429   2.763  21.687  13.896
69082W        W41430  28.493  16.232  14.464
69083W        W41431  35.861  28.459   0.937
69084W        W41432  21.681  41.914   2.291
69085W        W41433  26.105   1.768   3.630
69086W        W41434  25.638   6.869  13.032
69087W        W41435  25.698  29.037   4.742
69088W        W41436  33.089   0.933   2.875
69089W        W41437  14.726  10.159   0.437
69090W        W41438  39.930  14.210  12.880
69091W        W41439  18.225   4.852   0.381
69092W        W41440  22.083  16.162  14.003
69093W        W41441  22.573  35.450   0.276
69094W        W41442  12.169  32.637  12.041
69095W        W41443  14.756  24.671  11.989
69096W        W41444  36.083  38.352  12.454
69097W        W41445  14.274  19.730  12.369
69098W        W41446  44.383  32.008   3.641
69099W        W41447   4.229  31.989  12.539
69100W        W41448  23.032  11.306   1.345
69101W        W41449   7.204  42.371  11.074
69102W        W41450  22.113   2.739   2.835
69103W        W41451  37.545  27.008  12.924
69104W        W41452  41.932  10.873  12.021
69105W        W41453  26.034  16.763  10.520
69106W        W41454  23.048  18.113   4.120
69107W        W41455   2.420   3.843   3.195
69108W        W41456  10.299   6.766  10.046
69109W        W41457  42.803  13.775   1.326
69110W        W41458  11.714   0.489   2.896
69111W        W41459  37.419  38.380  14.027
69112W        W41460  16.688  14.309  11.948
69113W        W41461   9.334  32.420   1.861
69114W        W41462  10.819  11.163   3.850
69115W        W41463  25.983  32.058   3.786
69116W        W41464  16.193  15.631   4.803
69117W        W41465  27.691  42.418   4.683
69118W        W41466   5.353  10.228   2.711
69119W        W41467  14.778  23.699  13.944
69120W        W41468  43.938  30.919   3.774
69121W        W41469  33.924  23.997  11.953
69122W        W41470   2.812  31.109  13.049
69123W        W41471  10.232  11.744   3.257
69124W        W41472  28.638  38.986   1.781
69125W        W41473   9.337  16.731   1.852
69126W        W41474  24.664  31.065   2.208
69127W        W41475  37.840  38.060   3.352
69128W        W41476  34.921  18.643  12.066
69129W        W41477  22.155  16.146   3.345
69130W        W41478   7.902  26.577   0.320
69131W        W41479  22.033  39.913   1.249
69132W        W41480  23.128  10.851   0.960
69133W        W41481  30.442  28.008  10.970
69134W        W41482  36.924  14.197  13.878
69135W        W41483  44.996  40.035   0.448
69136W        W41484  29.597  11.159   1.310
69137W        W41485  31.985  31.451   0.276
69138W        W41486  26.951  13.720   2.817
69139W        W41487  11.631   7.754  13.354
69140W        W41488  44.915  26.534   0.848
69141W        W41489  30.597  15.303  12.367
69142W        W41490  12.823  29.029   3.341
69143W        W41491  23.531  27.125   4.209
69144W        W41492  21.095  31.635   0.334
69145W        W41493  25.707  18.221   2.229
69146W        W41494   6.825  17.081   2.839
69147W        W41495  17.566   0.983   0.249
69148W        W41496   9.683  20.083  12.899
69149W        W41497  35.935   8.901  11.524
69150W        W41498  14.784  42.450  12.559
69151W        W41499  19.183   5.735  11.442
69152W        W41500   7.209  42.899   1.829
69153W        W41501  21.245   2.918   2.349
69154W        W41502  13.200   1.889  13.397
69155W        W41503  15.643  21.597   2.221
69156W        W41504  12.117  16.581   4.697
69157W        W41505   3.346   8.248   3.813
69158W        W41506  40.489  34.485   5.085
69159W        W41507  33.006  12.268  13.973
69160W        W41508  43.293  31.638  12.484
69161W        W41509  39.896   2.830  14.412
69162W        W41510  31.620  13.820  13.044
69163W        W41511  13.267  11.274  14.509
69164W        W41512   8.256  19.282  11.959
69165W        W41513  19.603  21.159  13.867
69166W        W41514   8.849  11.295   0.389
69167W        W41515  25.577  13.691   4.325
69168W        W41516  43.971  37.886   1.274
69169W        W41517   3.258  32.916  13.368
69170W        W41518  36.926  12.680   2.709
69171W        W41519  26.156  19.242  12.047
69172W        W41520   8.298  22.226   0.951
69173W        W41521   5.355  22.671  14.805
69174W        W41522   9.266  43.813  13.544
69175W        W41523  25.571  13.330  12.036
69176W        W41524   6.893   5.253  12.030
69177W        W41525  35.944   5.801   0.445
69178W        W41526  23.056   5.875   3.304
69179W        W41527  16.299  11.730  13.431
69180W        W41528  24.226  27.572   2.260
69181W        W41529  33.410  16.679   2.733
69182W        W41530   0.925  37.075   3.175
69183W        W41531  18.184  24.675  14.842
69184W        W41532  29.114  17.703   3.313
69185W        W41533  17.728   0.861  14.845
69186W        W41534   4.815  20.630  13.894
69187W        W41535  17.764  30.955  14.389
69188W        W41536  38.336  14.588   4.704
69189W        W41537  31.426  36.083   3.695
69190W        W41538  21.660   2.720   2.328
69191W        W41539  41.435  33.544  14.008
69192W        W41540  11.721  35.515  13.417
69193W        W41541   6.676  26.546  11.969
69194W        W41542  39.994  13.334  11.868
69195W        W41543   8.821  40.406   3.745
69196W        W41544  43.351  19.661  13.005
69197W        W41545  13.229  15.595  13.384
69198W        W41546  11.245  33.581   1.906
69199W        W41547  21.131  43.309   5.278
69200W        W41548  39.877  21.609  12.087
69201W        W41549  26.972  34.405   3.809
69202W        W41550  17.092  11.141   1.849
69203W        W41551  15.177  14.150  11.570
69204W        W41552   3.379  12.824   0.415
69205W        W41553  30.445   8.257   1.249
69206W        W41554  16.748  43.412  14.303
69207W        W41555  24.023  13.791  13.932
69208W        W41556  18.784  10.280   4.250
69209W        W41557  19.115   8.707   3.259
69210W        W41558  13.835  38.877  12.089
69211W        W41559  35.081   6.897   4.780
69212W        W41560  12.290  44.313  10.119
69213W        W41561  40.852  38.905   0.890
69214W        W41562  41.487  32.901   4.325
69215W        W41563  11.730  42.426   2.315
69216W        W41564   4.302  29.588   2.832
69217W        W41565  25.513  39.964  15.000
69218W        W41566  26.481  33.964  12.508
69219W        W41567   8.743  16.768   3.302
69220W        W41568  20.620  24.052   1.332
69221W        W41569  25.478   2.760  13.310
69222W        W41570  22.040  24.991  11.946
69223W        W41571  39.974  26.607   2.222
69224W        W41572  33.626  28.047  14.003
69225W        W41573   7.742   2.769   3.245
69226W        W41574   5.765  12.313   3.819
69227W        W41575   8.269  13.202  12.898
69228W        W41576  37.042  30.572   0.847
69229W        W41577  36.995  27.089   1.814
69230W        W41578  37.559   6.866  12.391
69231W        W41579   3.312  29.526  10.609
69232W        W41580  39.397  26.525  14.423
69233W        W41581  25.022  32.105   2.397
69234W        W41582  23.714  28.001   2.791
69235W        W41583  32.581  12.243   0.816
69236W        W41584  14.589  42.357   3.842
69237W        W41585  12.751  43.860   3.278
69238W        W41586  21.655   4.846   2.837
69239W        W41587  44.818  14.784   3.163
69240W        W41588  19.284  43.328   4.339
69241W        W41589  28.628  44.334  10.585
69242W        W41590  36.914  14.645   4.183
69243W        W41591   2.773  38.027  13.962
69244W        W41592  25.114   3.421  10.974
69245W        W41593  43.310  25.110  13.456
69246W        W41594  30.650  17.769   4.310
69247W        W41595   5.302  22.181   3.309
69248W        W41596  16.667   3.831   4.689
69249W        W41597  21.083  28.616   4.311
69250W        W41598   0.882   4.237   1.432
69251W        W41599  44.409  33.887   2.413
69252W        W41600  31.904  43.403  13.805
69253W        W41601  37.963  18.192  11.597
69254W        W41602  25.982  35.947  10.459
69255W        W41603  13.682  32.985   0.827
69256W        W41604  34.570  41.961  10.948
69257W        W41605  14.809  30.584  10.415
69258W        W41606  28.081   4.319  12.515
69259W        W41607  32.433  18.565  13.808
69260W        W41608   9.852  19.749  11.597
69261W        W41609  36.405  15.314  13.439
69262W        W41610  23.541  15.810  14.435
69263W        W41611  36.374  27.991  14.487
69264W        W41612  15.640   4.440  11.978
69265W        W41613  16.080  23.175   0.736
69266W        W41614  30.649  12.177  12.465
69267W        W41615  38.487  18.095  10.624
69268W        W41616  26.659  22.613  12.452
69269W        W41617   2.744   0.818   1.403
69270W        W41618  14.338  41.377  10.532
69271W        W41619  14.814  30.143  14.326
69272W        W41620  33.426  14.101  10.031
69273W        W41621   1.391  35.852   1.405
69274W        W41622  44.009   0.799   1.214
69275W        W41623   1.458  36.560  12.037
69276W        W41624   0.463  27.944  11.402
69277W        W41625   0.345  38.552   4.143
69278W        W41626   0.832  37.484  13.503
69279W        W41627  29.016   4.308  13.900
69280W        W41628  25.555  42.941   0.960
69281W        W41629  39.397  40.848   4.205
69282W        W41630   6.900  29.978   1.865
69283W        W41631  14.214  21.608  11.911
69284W        W41632  10.311  32.938  10.420
69285W        W41633  24.988  43.483   0.433
69286W        W41634  33.414  37.544  11.989
69287W        W41635  25.006  17.572   2.780
69288W        W41636  34.410   5.809   4.193
69289W        W41637   7.788  13.161  11.451
69290W        W41638  16.285  33.035  12.866
69291W        W41639   5.729   6.846   0.352
69292W        W41640  37.482   9.876  14.907
69293W        W41641  28.088  38.962   4.641
69294W        W41642  37.972  42.852   1.220
69295W        W41643  34.369  40.903   3.231
69296W        W41644  41.032  32.063  12.570
69297W        W41645   3.790  26.479  10.414
69298W        W41646  32.615   1.266   1.884
69299W        W41647  30.936  39.054  13.807
69300W        W41648  37.354   5.884  12.570
69301W        W41649  34.529   1.418   2.275
69302W        W41650  24.101  17.275  10.449
69303W        W41651   7.317  44.350  12.553
69304W        W41652  28.989  29.483  13.384
69305W        W41653   6.284  15.743   4.801
69306W        W41654  15.684  38.504   2.343
69307W        W41655  35.541  33.452   0.286
69308W        W41656   4.223  25.588   3.828
69309W        W41657  35.505  35.930   3.381
69310W        W41658   0.452  14.218  12.363
69311W        W41659  14.820   1.845   2.365
69312W        W41660  10.183  15.263  12.456
69313W        W41661  28.591  10.704   2.233
69314W        W41662  44.381  26.685   0.874
69315W        W41663  14.250  39.425  14.409
69316W        W41664  31.424  26.038   2.750
69317W        W41665  34.580   7.334  13.479
69318W        W41666  16.078  25.681  12.915
69319W        W41667   2.756  41.367   0.399
69320W        W41668  23.496  31.044   3.254
69321W        W41669  34.392   6.277   2.823
69322W        W41670  12.640  31.583   4.345
69323W        W41671  41.468   7.827  14.834
69324W        W41672  32.477  40.400   3.185
69325W        W41673  14.662  15.620  13.387
69326W        W41674   0.833  44.360  13.897
69327W        W41675   3.749  32.131  11.567
69328W        W41676  24.113  18.089  13.901
69329W        W41677   8.213  30.613  11.064
69330W        W41678  17.141  38.820   4.620
69331W        W41679  33.960  24.998   3.809
69332W        W41680   5.814  37.462  13.343
69333W        W41681  43.439  36.426   0.912
69334W        W41682  34.904  16.596   2.728
69335W        W41683  20.633  31.575  14.490
69336W        W41684   6.367  27.501   3.263
69337W        W41685  33.128  23.652   4.285
69338W        W41686  17.243   1.436  11.090
69339W        W41687  18.653   2.793  12.082
69340W        W41688  44.272  16.286   3.221
69341W        W41689  43.974  26.562  10.607
69342W        W41690  36.854  34.406  12.069
69343W        W41691   3.317   9.805  11.856
69344W        W41692  32.597  13.763  13.055
69345W        W41693  15.209  21.652  14.776
69346W        W41694   1.770  25.508   3.657
69347W        W41695  24.519  17.796   4.338
69348W        W41696  31.451   8.849  10.630
69349W        W41697  40.512   5.713   3.347
69350W        W41698  30.477   9.210  13.328
69351W        W41699  25.185   1.906  11.091
69352W        W41700  29.941  35.995  12.931
69353W        W41701  25.113  32.583  11.908
69354W        W41702  40.885  10.837   4.279
69355W        W41703  25.220  41.798   0.832
69356W        W41704  36.027   7.275   1.791
69357W        W41705  38.396  37.554   4.178
69358W        W41706  11.827   3.255  13.954
69359W        W41707  11.307   2.446   0.381
69360W        W41708   6.349  29.531  10.990
69361W        W41709  36.395   8.887   1.904
69362W        W41710  36.903  22.112  11.864
69363W        W41711  33.095  18.762  11.433
69364W        W41712  19.689   5.416  11.005
69365W        W41713   4.270   7.197  11.911
69366W        W41714  17.065  18.060  11.027
69367W        W41715  30.148   8.827   3.820
69368W        W41716  19.106  32.526   2.416
69369W        W41717  39.905  40.441  10.607
69370W        W41718   5.893  35.576   1.877
69371W        W41719  17.176  24.542   2.365
69372W        W41720   5.296  40.844  14.335
69373W        W41721  14.109  35.388   2.342
69374W        W41722   5.250  43.844  14.941
69375W        W41723  31.029  15.803  13.898
69376W        W41724  22.517  28.619   0.912
69377W        W41725  42.335  37.010   3.760
69378W        W41726  24.011  25.476   3.804
69379W        W41727  31.090  11.199   3.841
69380W        W41728  32.969  23.568   2.226
69381W        W41729  19.610  14.821   3.340
69382W        W41730  42.971  32.510  12.490
69383W        W41731  31.089  38.521   4.284
69384W        W41732  21.048  22.718  13.343
69385W        W41733   8.843  42.834  11.455
69386W        W41734   5.329  15.129  13.429
69387W        W41735   5.726  31.500   4.782
69388W        W41736   8.662  44.489  14.416
69389W        W41737  26.494   2.892   2.861
69390W        W41738  42.422  13.651   3.279
69391W        W41739   4.295  44.291  11.919
69392W        W41740  15.209  35.003   0.796
69393W        W41741  28.588  40.496  13.470
69394W        W41742   1.898  35.526  10.446
69395W        W41743  29.461  42.776   4.692
69396W        W41744  37.564  44.781   3.862
69397W        W41745   0.932  10.821   2.270
69398W        W41746   2.449  38.401  12.424
69399W        W41747   0.458  12.305  11.031
69400W        W41748  16.577  42.347   2.329
69401W        W41749   5.231  42.026   4.760
69402W        W41750  16.603   6.840   4.119
69403W        W41751  35.898  38.004   4.307
69404W        W41752  11.173   2.422   4.349
69405W        W41753  44.308  11.799  11.462
69406W        W41754  43.275  29.514   0.943
69407W        W41755  42.482  42.807   4.675
69408W        W41756  27.661  21.051  11.491
69409W        W41757  26.958  17.746  13.997
69410W        W41758   8.255   0.444   3.312
69411W        W41759  41.373  30.069   1.230
69412W        W41760  32.392  25.484   4.780
69413W        W41761  36.884   3.879   0.793
69414W        W41762  32.474  12.793  12.544
69415W        W41763   3.951  31.150  14.360
69416W        W41764  24.669  38.933  14.801
69417W        W41765  26.592  40.913   2.318
69418W        W41766  31.990  19.064  14.849
69419W        W41767  25.504  35.900  14.833
69420W        W41768  18.546  32.608   3.317
69421W        W41769  11.366  20.615   1.699
69422W        W41770  33.469  43.363  10.557
69423W        W41771  24.565   3.300  14.800
69424W        W41772  28.602   5.690  13.047
69425W        W41773  38.837  42.517   4.700
69426W        W41774  14.131  33.059  12.023
69427W        W41775  21.035  42.353  11.967
69428W        W41776  29.649  14.609   4.617
69429W        W41777  20.545  41.009  10.585
69430W        W41778  35.386  27.610   3.270
69431W        W41779  29.568  41.374  13.984
69432W        W41780  35.969   6.913   2.357
69433W        W41781  14.204  18.573   3.669
69434W        W41782  36.048  38.872   0.267
69435W        W41783  29.552  28.490  12.858
69436W        W41784  33.074  43.451   0.790
69437W        W41785  33.586  41.320   0.268
69438W        W41786  18.679  18.730  12.903
69439W        W41787  14.733   3.367   4.819
69440W        W41788   0.385  29.045  11.576
69441W        W41789  37.852  12.750   1.840
69442W        W41790  14.223  27.164   4.750
69443W        W41791  37.582  28.981  14.853
69444W        W41792   8.370  14.309  14.385
69445W        W41793  37.851  21.233   1.401
69446W        W41794   3.745  10.328   0.394
69447W        W41795  35.569  17.578  12.885
69448W        W41796  37.494  12.700  11.958
69449W        W41797  38.545  16.703  14.775
69450W        W41798  20.667   6.851  11.115
69451W        W41799   2.881  18.173   1.397
69452W        W41800   6.688   0.869   1.815
69453W        W41801  37.067  28.929  11.397
69454W        W41802  15.814  34.511   1.354
69455W        W41803  43.841   4.789  11.936
69456W        W41804  37.568   4.269   1.449
69457W        W41805  28.572  11.818  11.960
69458W        W41806   6.274  20.673   0.279
69459W        W41807  20.104  19.087   3.183
69460W        W41808   8.299  44.799  13.826
69461W        W41809  36.879  11.694   3.807
69462W        W41810  44.828  15.094  12.371
69463W        W41811  12.699  37.939   4.274
69464W        W41812  41.999   4.349   1.770
69465W        W41813  40.375  37.456   4.215
69466W        W41814  16.157  42.976  10.526
69467W        W41815  35.905   8.392   2.334
69468W        W41816  36.470   2.932  11.861
69469W        W41817  27.975  20.159   0.438
69470W        W41818  44.977   8.338   1.347
69471W        W41819  40.509  29.149  13.362
69472W        W41820  26.599   8.666   1.222
69473W        W41821  10.816   0.420  10.934
69474W        W41822   4.257  35.911   3.298
69475W        W41823  35.405  12.815   2.677
69476W        W41824  43.961   9.704   3.651
69477W        W41825  30.422  33.622  12.466
69478W        W41826  12.760  18.169   2.723
69479W        W41827  38.980  19.188   1.370
69480W        W41828  15.684  30.058  10.105
69481W        W41829  37.523  18.677   4.694
69482W        W41830   4.881  40.942  10.530
69483W        W41831  10.223  24.556   0.803
69484W        W41832   9.311  30.978   3.188
69485W        W41833  26.674  20.100  11.948
69486W        W41834   5.237  27.949   0.407
69487W        W41835   6.248  27.959  14.818
69488W        W41836  10.176  15.728  13.548
69489W        W41837  39.826  25.527   1.214
69490W        W41838   6.226   2.806   1.931
69491W        W41839  36.550   6.267   3.724
69492W        W41840  36.358  40.437   2.347
69493W        W41841  12.625  24.180   4.297
69494W        W41842  11.738  30.502   3.826
69495W        W41843  12.634  30.499   4.602
69496W        W41844  43.007  23.132   1.843
69497W        W41845  33.408  14.131  12.065
69498W        W41846  27.081   3.368  14.812
69499W        W41847  35.993  15.101  12.472
69500W        W41848   8.763   3.230  11.522
69501W        W41849  39.397  20.631   0.965
69502W        W41850   9.884  37.042  14.800
69503W        W41851  34.607   5.406  14.324
69504W        W41852  37.009   0.858   4.770
69505W        W41853  17.243  33.620   2.826
69506W        W41854  20.091  38.966  12.987
69507W        W41855  42.385  18.220  11.413
69508W        W41856   8.760  38.388  12.987
69509W        W41857  44.986  32.392   3.155
69510W        W41858  40.353  31.613  10.959
69511W        W41859  22.039   5.343  14.405
69512W        W41860  15.790  22.017   1.746
69513W        W41861   8.672  34.600   4.168
69514W        W41862  24.071  22.166   3.223
69515W        W41863   7.806  27.045  12.492
69516W        W41864   9.839  41.877  14.938
69517W        W41865  44.425  39.381   0.434
69518W        W41866  24.219  19.157   2.279
69519W        W41867  11.788  38.847  12.481
69520W        W41868  16.603  31.049   3.365
69521W        W41869  28.181  17.134   1.351
69522W        W41870   9.358   8.247   1.776
69523W        W41871   2.386  41.392   0.924
69524W        W41872  34.983   3.347  10.045
69525W        W41873  43.509   4.315  11.973
69526W        W41874  21.256  11.766  14.865
69527W        W41875   0.875  32.052   2.410
69528W        W41876  14.617  28.674  12.404
69529W        W41877  19.121  31.629   1.325
69530W        W41878   4.741  14.588  11.433
69531W        W41879  19.213  34.027  12.852
69532W        W41880  14.768   6.868  14.887
69533W        W41881   0.749  42.429   4.643
69534W        W41882  10.247  26.664   1.277
69535W        W41883  29.447   5.344   2.269
69536W        W41884  39.955   2.358  11.933
69537W        W41885   4.868  24.692  10.434
69538W        W41886  30.630  44.282  12.445
69539W        W41887   5.769  34.978  13.498
69540W        W41888  41.933  38.916  11.038
69541W        W41889  22.541  39.820  11.594
69542W        W41890  40.500  28.501   0.813
69543W        W41891  24.029  28.656   4.135
69544W        W41892  42.937  29.487  13.456
69545W        W41893  40.003  39.478   1.764
69546W        W41894   8.313   8.739   1.820
69547W        W41895  35.896  13.202   1.783
69548W        W41896   0.988  43.900  11.905
69549W        W41897  33.570  32.627  13.367
69550W        W41898  37.901  40.881   0.751
69551W        W41899  41.895  14.129   2.809
69552W        W41900  26.096  21.092  12.503
69553W        W41901   0.772   9.848  14.803
69554W        W41902  41.395   2.352  11.571
69555W        W41903  25.586  16.807  12.447
69556W        W41904   5.721  38.937   1.751
69557W        W41905  17.069  13.615   5.666
69558W        W41906  11.165  27.632  11.026
69559W        W41907  25.610  36.071   2.350
69560W        W41908  14.131  33.426  11.003
69561W        W41909   1.420  31.147  12.886
69562W        W41910  35.513  31.992   2.189
69563W        W41911  42.454  21.122  11.570
69564W        W41912  15.264  35.931   3.155
69565W        W41913  22.245   0.321  12.550
69566W        W41914  40.392  13.187  13.467
69567W        W41915  19.193  38.402   3.377
69568W        W41916  37.026  34.097  10.603
69569W        W41917  37.474  44.759  10.942
69570W        W41918   2.454   5.350   3.838
69571W        W41919  13.766  39.427   0.415
69572W        W41920   4.778  14.280   2.730
69573W        W41921  25.198  11.271  13.879
69574W        W41922  37.899   6.857   2.902
69575W        W41923  42.929  41.299   0.817
69576W        W41924  35.931  41.538  11.570
69577W        W41925  44.920  31.622  10.991
69578W        W41926  30.110  32.899  12.972
69579W        W41927  15.614   6.791   2.685
69580W        W41928   0.789  22.996   2.855
69581W        W41929   5.757  30.094   3.356
69582W        W41930  42.527  18.757   3.671
69583W        W41931  29.929  23.531  11.888
69584W        W41932   9.867  19.181   3.645
69585W        W41933  27.990  33.614   1.830
69586W        W41934  30.554  37.010  10.435
69587W        W41935  42.934  42.809   1.332
69588W        W41936  15.271  24.554  10.925
69589W        W41937  12.316  32.119   1.853
69590W        W41938  31.426  36.498  13.052
69591W        W41939  11.744  11.138   4.135
69592W        W41940  32.499  27.453   3.742
69593W        W41941   1.333   3.444  12.964
69594W        W41942  44.901  32.464   4.354
69595W        W41943  31.903  11.147   3.203
69596W        W41944  42.838   0.252  12.354
69597W        W41945   2.374  18.085   1.275
69598W        W41946  13.799  28.017  13.797
69599W        W41947  23.077  14.313   1.859
69600W        W41948  35.938  25.594   0.427
69601W        W41949  42.803  37.917  13.518
69602W        W41950  42.374  11.864   1.350
69603W        W41951  32.545  22.605   0.308
69604W        W41952  14.786  26.663  14.331
69605W        W41953  14.223  22.555  11.409
69606W        W41954  11.227   4.756   3.712
69607W        W41955  16.724  42.444  14.890
69608W        W41956   9.753   1.736  14.332
69609W        W41957  14.655  11.757   4.145
69610W        W41958  25.118  10.345   2.347
69611W        W41959  42.841  21.618  13.951
69612W        W41960  11.140  26.601   2.711
69613W        W41961  29.490   1.382  11.126
69614W        W41962  10.274  30.451  14.774
69615W        W41963  11.838   7.280  10.445
69616W        W41964   3.357  16.220   1.445
69617W        W41965  14.250  18.567  12.880
69618W        W41966   9.658  41.307   2.222
69619W        W41967  25.029  37.359   0.817
69620W        W41968   2.766  38.430  14.466
69621W        W41969  41.375  19.543   1.448
69622W        W41970  10.644  28.674   4.697
69623W        W41971  17.111  21.087   0.415
69624W        W41972  16.787  32.390  12.017
69625W        W41973  43.348  24.151   2.775
69626W        W41974   5.280  33.581  12.984
69627W        W41975  10.715  27.028  10.892
69628W        W41976  41.898  13.677  11.978
69629W        W41977  20.659  37.975   2.705
69630W        W41978  31.981  18.064   0.924
69631W        W41979  21.749  30.089  11.376
69632W        W41980  34.112   3.226   2.784
69633W        W41981   7.308  20.574   3.733
69634W        W41982  23.119  35.531  12.879
69635W        W41983  18.243  36.392  11.385
69636W        W41984  40.851  37.421  13.436
69637W        W41985   9.239  33.047   1.704
69638W        W41986  11.334  14.699   3.828
69639W        W41987  18.233  23.160   1.921
69640W        W41988   4.247  10.646   3.195
69641W        W41989   5.374  38.859  14.989
69642W        W41990  22.600  24.542   3.814
69643W        W41991  37.068  21.083   3.790
69644W        W41992  40.911  37.943   0.272
69645W        W41993  36.011  24.604   3.782
69646W        W41994  38.922  14.127   1.444
69647W        W41995  11.160   4.901   9.992
69648W        W41996  15.583   1.355  13.465
69649W        W41997  26.656  36.499   4.286
69650W        W41998  15.213   9.215   4.255
69651W        W41999  17.254  13.677  13.427
69652W        W42000   3.775   8.378  14.289
69653W        W42001  29.989  19.564   4.208
69654W        W42002  41.810   8.340   1.383
69655W        W42003  11.754   9.804   2.765
69656W        W42004  31.967  23.209  11.426
69657W        W42005  31.002  15.152   3.296
69658W        W42006   4.857  43.956   3.860
69659W        W42007  27.564  18.241   3.728
69660W        W42008   5.852  32.616  12.439
69661W        W42009  24.654  31.108  11.374
69662W        W42010   0.272   6.278   4.352
69663W        W42011  31.594  40.989   0.771
69664W        W42012  27.175   0.862   3.236
69665W        W42013  29.143   6.724  11.985
69666W        W42014   3.413  23.492   4.724
69667W        W42015   7.800  15.823   0.410
69668W        W42016  40.354   7.304   1.381
69669W        W42017   8.712   4.440  12.383
69670W        W42018  15.802  11.792   9.933
69671W        W42019  31.477  22.121  11.531
69672W        W42020  11.300   8.690   0.308
69673W        W42021  24.176  26.694  14.318
69674W        W42022  44.934  36.509   3.294
69675W        W42023  17.205  17.282   4.200
69676W        W42024  14.633  16.318   4.273
69677W        W42025  35.011  18.086   5.321
69678W        W42026  11.811   5.397   0.282
69679W        W42027  43.279  33.506  14.891
69680W        W42028   0.800   1.378  10.921
69681W        W42029  27.595  34.452   0.903
69682W        W42030  34.502  38.541   4.310
69683W        W42031  41.866  10.192  13.015
69684W        W42032  19.222  28.621   4.137
69685W        W42033   9.234   1.379   3.807
69686W        W42034  18.622  23.166  10.576
69687W        W42035  32.003  43.786  12.828
69688W        W42036  44.301  11.741   5.093
69689W        W42037  29.034  27.684   4.760
69690W        W42038   2.301  25.580  14.949
69691W        W42039   4.224  27.188  12.876
69692W        W42040  41.328  21.032  14.799
69693W        W42041  23.209  32.553  11.416
69694W        W42042   2.364  29.483  12.558
69695W        W42043   5.739   2.919  13.948
69696W        W42044  28.595  10.318   2.390
69697W        W42045  10.288  20.586   3.298
69698W        W42046   7.885   6.400  13.416
69699W        W42047  36.463  37.436   1.279
69700W        W42048  16.275  33.424  14.788
69701W        W42049  36.576  16.724   2.315
69702W        W42050  31.097  18.699  11.878
69703W        W42051  31.624  20.760  13.480
69704W        W42052  23.166   9.248   3.776
69705W        W42053  24.561  33.434  13.412
69706W        W42054  12.119   6.286   5.717
69707W        W42055  19.120  10.687   2.792
69708W        W42056  25.977  26.593  10.111
69709W        W42057  19.671   5.418   1.725
69710W        W42058  37.382  14.714   0.289
69711W        W42059  15.168   2.451  14.473
69712W        W42060  27.482   3.769  12.004
69713W        W42061  40.958  19.637   3.706
69714W        W42062  12.630   8.350  14.939
69715W        W42063  13.821  43.007   0.793
69716W        W42064  21.049  10.633  14.382
69717W        W42065  29.436  28.077   3.844
69718W        W42066  10.659   0.360  12.520
69719W        W42067  24.115  44.875  13.954
69720W        W42068   3.241  33.381   3.310
69721W        W42069  39.315  27.583  11.405
69722W        W42070  31.152   2.302  12.051
69723W        W42071  13.683   4.759  12.867
69724W        W42072  42.031  12.717  12.410
69725W        W42073  34.477  24.571   2.203
69726W        W42074  17.197   2.331   2.688
69727W        W42075  10.275  38.452   1.766
69728W        W42076  44.336  37.352  12.036
69729W        W42077  31.115  27.531  10.987
69730W        W42078  16.810  22.721   3.777
69731W        W42079   0.376  26.021  14.307
69732W        W42080  36.891  32.065   3.729
69733W        W42081  41.979  22.549  11.071
69734W        W42082  12.843   0.924   3.812
69735W        W42083  33.551  38.465  14.976
69736W        W42084   6.228  37.861   4.130
69737W        W42085  15.701  37.041  10.971
69738W        W42086  41.960  40.340   3.765
69739W        W42087   9.869  10.687  12.835
69740W        W42088  11.156  30.016   0.257
69741W        W42089  42.371  36.520  12.580
69742W        W42090  26.547  17.802   2.732
69743W        W42091  16.585  28.587  14.501
69744W        W42092  31.088  37.963  10.585
69745W        W42093  40.874  31.430   0.418
69746W        W42094  44.822  20.551   1.347
69747W        W42095   9.875  15.099  14.398
69748W        W42096  18.590   7.709  10.896
69749W        W42097  16.602  34.046   1.239
69750W        W42098  40.936   5.211  14.342
69751W        W42099  33.408  21.041  10.459
69752W        W42100   1.466  29.072  12.072
69753W        W42101  22.192  40.869  12.465
69754W        W42102  16.128  15.198  11.975
69755W        W42103  21.512  13.726   2.899
69756W        W42104  39.436  17.180  12.991
69757W        W42105  19.736  29.023   2.692
69758W        W42106  20.053  37.365  13.478
69759W        W42107  17.708  39.388   0.753
69760W        W42108   7.814   5.918   4.154
69761W        W42109  10.689  19.569  11.500
69762W        W42110  27.507  33.901  13.016
69763W        W42111  40.454  27.040  12.031
69764W        W42112  10.243  15.285  10.561
69765W        W42113   0.297   4.411   3.846
69766W        W42114  30.466  10.636  12.493
69767W        W42115  20.737  24.688  14.762
69768W        W42116  21.249  38.921  12.345
69769W        W42117  26.629  40.429  12.836
69770W        W42118  18.162  16.264   3.631
69771W        W42119  27.569  17.206   2.826
69772W        W42120  38.377  21.692  11.587
69773W        W42121   5.781   2.241  13.919
69774W        W42122  16.182  15.265   1.331
69775W        W42123  24.109  18.676   3.692
69776W        W42124  43.017   2.262   4.634
69777W        W42125   3.758  37.858  13.312
69778W        W42126   0.408  12.812  12.063
69779W        W42127  41.292  39.917   3.255
69780W        W42128  28.013   7.820  14.401
69781W        W42129  32.492  13.183   1.371
69782W        W42130  33.966  35.030  12.027
69783W        W42131  31.442  27.580   2.850
69784W        W42132  39.364  22.664  14.964
69785W        W42133  44.418  43.891   4.215
69786W        W42134  43.908   4.746  10.954
69787W        W42135  12.129   7.717   3.639
69788W        W42136  17.655   5.387  10.493
69789W        W42137  27.150  44.921   4.613
69790W        W42138  36.993   6.817  10.009
69791W        W42139   2.729  31.479   3.375
69792W        W42140  33.013  26.571   4.349
69793W        W42141  32.572  41.463   1.732
69794W        W42142  30.441  30.116   0.335
69795W        W42143   8.356  26.560  11.104
69796W        W42144  24.581   8.238   4.653
69797W        W42145  44.292  12.628  14.462
69798W        W42146  11.805  10.795   3.372
69799W        W42147  41.429   0.886  13.005
69800W        W42148  10.833  41.492  11.398
69801W        W42149   3.411   3.328   1.791
69802W        W42150  17.583  11.740   4.625
69803W        W42151  20.582   6.260  14.957
69804W        W42152  14.167   0.978   1.935
69805W        W42153  18.708   3.309   5.180
69806W        W42154  40.052  13.781   0.954
69807W        W42155  20.164  13.788  10.899
69808W        W42156   8.395  33.507  14.968
69809W        W42157  38.379  10.640   2.243
69810W        W42158  21.097  35.544   1.697
69811W        W42159   2.868  34.048  13.486
69812W        W42160  38.537  26.615  13.793
69813W        W42161  44.294   3.316  10.069
69814W        W42162  28.162  28.139  12.072
69815W        W42163  33.882  44.284  13.815
69816W        W42164  39.045  33.547  10.103
69817W        W42165   0.759   3.298   9.999
69818W        W42166  31.600   4.263  11.883
69819W        W42167  41.461  32.537  12.486
69820W        W42168  38.439  28.021  11.482
69821W        W42169  11.364  23.986  14.957
69822W        W42170   3.835  26.590   9.964
69823W        W42171   1.827  22.151  12.359
69824W        W42172   9.375   8.656  14.343
69825W        W42173  29.035  24.062  14.496
69826W        W42174  29.004  39.868   4.331
69827W        W42175  31.055  43.812   2.895
69828W        W42176   2.375  43.352   0.820
69829W        W42177  28.053  21.164  13.307
69830W        W42178   9.740  24.716   1.711
69831W        W42179  13.700  11.759   0.283
69832W        W42180  10.157  17.062   1.906
69833W        W42181  12.857   7.872  10.567
69834W        W42182  36.023  34.000  11.925
69835W        W42183  32.636  41.801  13.493
69836W        W42184  14.763  40.915  14.377
69837W        W42185  19.725  11.342   2.337
69838W        W42186  37.944   2.759  13.996
69839W        W42187  36.036  19.264  12.020
69840W        W42188  16.646   4.314   2.753
69841W        W42189  37.391  23.229  13.513
69842W        W42190  42.382   5.706   1.405
69843W        W42191  20.149  32.455  10.915
69844W        W42192  25.025   7.740   5.254
69845W        W42193   0.798  14.766   2.843
69846W        W42194  44.401  43.771  13.325
69847W        W42195  20.063  24.029   3.169
69848W        W42196  15.290   5.416  12.366
69849W        W42197   5.326  12.723  11.474
69850W        W42198  14.271  44.270   1.898
69851W        W42199  22.582  10.844   5.164
69852W        W42200  40.320  15.608  13.432
69853W        W42201  25.494  36.876   0.809
69854W        W42202  37.856  35.073  13.497
69855W        W42203  20.535  11.185   1.402
69856W        W42204  18.580  16.770   9.956
69857W        W42205  19.687   0.373  11.454
69858W        W42206   5.856   8.304   2.405
69859W        W42207   1.850  31.474  12.448
69860W        W42208  24.668  32.054  11.925
69861W        W42209  44.795   9.263  13.457
69862W        W42210   0.247  23.585   2.737
69863W        W42211  10.223  17.115  14.876
69864W        W42212  27.953  28.554   2.752
69865W        W42213  38.820  34.077   0.360
69866W        W42214  44.771  31.628   0.478
69867W        W42215   2.288  29.948  14.352
69868W        W42216  15.679  38.004  12.968
69869W        W42217  15.660  26.197  13.510
69870W        W42218  27.129  18.161  11.980
69871W        W42219  17.072  14.265  13.474
69872W        W42220   1.960  20.619   1.245
69873W        W42221  16.225  42.424   1.290
69874W        W42222  38.451  35.033   2.714
69875W        W42223  15.284  19.245   0.849
69876W        W42224  17.786  22.737   2.230
69877W        W42225  38.940  35.448   1.756
69878W        W42226  43.387  22.557  12.845
69879W        W42227  39.925  37.046  11.952
69880W        W42228  29.152  16.779   3.848
69881W        W42229  38.331  38.075  12.013
69882W        W42230  35.029  12.233  14.877
69883W        W42231  16.072  27.479  12.576
69884W        W42232  18.180  13.174  13.949
69885W        W42233  36.021   0.261   3.685
69886W        W42234  12.838  14.200   3.633
69887W        W42235  30.995  38.074   4.723
69888W        W42236   8.795  43.424   4.180
69889W        W42237   9.363   6.366   4.624
69890W        W42238   8.254  38.566  14.021
69891W        W42239   0.958   0.884  13.465
69892W        W42240  30.019  11.278   2.289
69893W        W42241  18.180  31.466  11.604
69894W        W42242  38.072  28.971  10.514
69895W        W42243  25.468  19.642   0.821
69896W        W42244  33.924  14.318  10.407
69897W        W42245  43.284   0.432  14.471
69898W        W42246  24.036  14.163   2.861
69899W        W42247  33.429   3.884  12.578
69900W        W42248   5.324  19.537  13.484
69901W        W42249  44.833  17.178  12.910
69902W        W42250   5.902   1.307   0.403
69903W        W42251   7.351  19.236   1.933
69904W        W42252  17.138  44.278   1.338
69905W        W42253   9.373  11.280   2.686
69906W        W42254  30.944  11.325   4.669
69907W        W42255  18.639  23.027   1.392
69908W        W42256  18.650  25.686   4.623
69909W        W42257  36.855   9.189  11.409
69910W        W42258  38.913  13.307  10.411
69911W        W42259   2.467   8.838   2.672
69912W        W42260  19.043   5.857  13.865
69913W        W42261  34.092  37.450   1.916
69914W        W42262   6.309  13.146   1.860
69915W        W42263  11.327   4.263   5.209
69916W        W42264  21.019  13.799  12.422
69917W        W42265  42.280  37.947   0.941
69918W        W42266  15.103  32.099  14.366
69919W        W42267  23.178   3.870  12.962
69920W        W42268  37.478  37.402   0.315
69921W        W42269   5.916  42.309  14.427
69922W        W42270   4.725  28.958  11.470
69923W        W42271  12.199  42.380  13.995
69924W        W42272  33.450  28.585   4.342
69925W        W42273  25.044  11.847   0.242
69926W        W42274  18.657  20.587  13.791
69927W        W42275  35.963  19.168  13.441
69928W        W42276  28.964  36.850   3.732
69929W        W42277  23.603   8.740  14.834
69930W        W42278  21.705  44.431   3.748
69931W        W42279   1.339  31.936   5.217
69932W        W42280  10.343  34.516   3.245
69933W        W42281  42.901   4.250  11.595
69934W        W42282  12.614  31.074  11.574
69935W        W42283  30.016  12.201  12.354
69936W        W42284   9.367  44.814  11.484
69937W        W42285  24.096   5.418   3.246
69938W        W42286  15.805   7.297  10.104
69939W        W42287  19.082  31.111  13.362
69940W        W42288  17.092   7.669  13.387
69941W        W42289  40.425  44.930   0.278
69942W        W42290  43.375  41.429   2.789
69943W        W42291  16.617  15.231   2.294
69944W        W42292   9.335  16.678  12.351
69945W        W42293  16.677  30.073  11.055
69946W        W42294  44.396  40.945   4.224
69947W        W42295   9.645  12.719  12.360
69948W        W42296   5.426  42.476   0.817
69949W        W42297   7.769   8.307   0.797
69950W        W42298  39.443  30.161   2.200
69951W        W42299  15.303  34.582  14.308
69952W        W42300   6.426   2.459  13.419
69953W        W42301  15.153  31.551  14.306
69954W        W42302  33.068   3.925  12.558
69955W        W42303  13.249   4.328   4.636
69956W        W42304   1.893  43.990   0.368
69957W        W42305  11.280  34.452  14.421
69958W        W42306  20.646  40.435   1.346
69959W        W42307  25.209  25.674  12.872
69960W        W42308   0.751  27.547   1.211
69961W        W42309   7.299  39.482  10.455
69962W        W42310  30.998  27.088  12.931
69963W        W42311   1.389  16.269   4.827
69964W        W42312   1.257  11.223  13.804
69965W        W42313   2.448  17.124   2.722
69966W        W42314  12.847  15.684   2.359
69967W        W42315   2.228   7.316   1.445
69968W        W42316  18.634  34.086   4.753
69969W        W42317   6.406  18.154  14.453
69970W        W42318   7.203  38.472  12.069
69971W        W42319  14.240  43.451   1.449
69972W        W42320  21.173  18.746  10.419
69973W        W42321  31.587  15.237  10.940
69974W        W42322  22.532  24.684   4.265
69975W        W42323  35.092  39.809   0.799
69976W        W42324  41.917  37.933   3.220
69977W        W42325  14.590  33.926  10.506
69978W        W42326  24.213  44.769   1.897
69979W        W42327   3.808  20.076   2.399
69980W        W42328  31.505  17.194  11.012
69981W        W42329  16.316   4.339  11.575
69982W        W42330  21.575   6.724  13.508
69983W        W42331  22.101  27.038   2.893
69984W        W42332   3.356  41.454  11.380
69985W        W42333   2.876  16.274   3.750
69986W        W42334  35.936  33.002  14.482
69987W        W42335  38.936   2.745   2.324
69988W        W42336  25.974  10.693  10.984
69989W        W42337  29.009  38.827   0.747
69990W        W42338   0.880  13.751   1.744
69991W        W42339  41.299  22.679  13.431
69992W        W42340  11.633  40.862   2.685
69993W        W42341   2.269  29.004  11.487
69994W        W42342  26.019  44.968  13.825
69995W        W42343  12.213   1.281  14.816
69996W        W42344  21.743  40.939   1.717
69997W        W42345  11.180  31.935   4.826
69998W        W42346  44.292  24.190   1.433
69999W        W42347   1.418   3.891   3.152
70000W        W42348   0.488  11.150  12.043
70001W        W42349  17.689  37.460  10.915
70002W        W42350  34.415  31.974  10.564
70003W        W42351  13.781  23.240  11.994
70004W        W42352  10.288  19.561   3.867
70005W        W42353  11.683  36.917  14.844
70006W        W42354  39.398  15.200   3.862
70007W        W42355  35.582   6.834  13.996
70008W        W42356  21.127  18.150   4.240
70009W        W42357  27.954  14.760  12.492
70010W        W42358   5.743   6.797  14.768
70011W        W42359  34.953  43.985   2.877
70012W        W42360  34.096   9.257  11.952
70013W        W42361   5.411  10.657   3.740
70014W        W42362  44.422   9.372  11.090
70015W        W42363  27.478  37.976   3.804
70016W        W42364  40.527  29.131  11.502
70017W        W42365  32.935   9.274   2.196
70018W        W42366  17.718  21.100   1.323
70019W        W42367  40.356   3.312   4.681
70020W        W42368  10.672  11.371  10.632
70021W        W42369  23.046  32.023  13.403
70022W        W42370   5.297   2.369  12.437
70023W        W42371  41.335   1.293   4.246
70024W        W42372  10.735  41.398  14.510
70025W        W42373  14.213  26.116  11.504
70026W        W42374  33.441   6.768   4.241
70027W        W42375  17.129   9.243   3.682
70028W        W42376  21.656  29.601   3.220
70029W        W42377   2.416  24.034   1.710
70030W        W42378  41.967  26.068   1.348
70031W        W42379  13.217  14.332   1.907
70032W        W42380  12.217  18.685  11.013
70033W        W42381  27.468  21.661   4.303
70034W        W42382  19.186  40.019   3.720
70035W        W42383  12.784   1.411   0.373
70036W        W42384  34.549  31.991   4.803
70037W        W42385   5.407  34.414   1.402
70038W        W42386  24.151  22.129   1.717
70039W        W42387   3.876  34.023  13.871
70040W        W42388  16.626  11.301   1.229
70041W        W42389  40.481  21.584   1.436
70042W        W42390  17.140  18.255  12.085
70043W        W42391  40.366   6.855   3.150
70044W        W42392  10.698  14.144   3.777
70045W        W42393  18.204  33.024  13.342
70046W        W42394  10.767  38.831   4.629
70047W        W42395  10.225  40.029   0.299
70048W        W42396  15.803   5.341   2.269
70049W        W42397   6.258  23.104  11.905
70050W        W42398  40.943   4.397   3.148
70051W        W42399  18.676  18.173  13.995
70052W        W42400   6.356  31.604   1.917
70053W        W42401  40.445   7.185  10.519
70054W        W42402  30.423  11.260  10.947
70055W        W42403  35.389  27.975  13.061
70056W        W42404  32.433  24.574  11.092
70057W        W42405   4.208   1.868  14.959
70058W        W42406  16.768   0.947  11.875
70059W        W42407   5.364  25.476  10.553
70060W        W42408  22.511  13.166   4.118
70061W        W42409  14.590  22.056  13.430
70062W        W42410  33.620  26.025  13.844
70063W        W42411  20.031  38.517   1.242
70064W        W42412  43.353  44.002   1.233
70065W        W42413  43.446  34.023  11.542
70066W        W42414  30.977  21.544  14.784
70067W        W42415  35.973  18.702  12.978
70068W        W42416  12.125  23.155  12.972
70069W        W42417  32.031   9.389  11.375
70070W        W42418   0.925  14.240  10.077
70071W        W42419  44.992   2.291   3.192
70072W        W42420   1.921  37.456  12.080
70073W        W42421  27.582  35.504   2.743
70074W        W42422  29.488  39.020  10.574
70075W        W42423  38.553  31.099   4.704
70076W        W42424   9.879   6.305   5.244
70077W        W42425   0.452  18.107   4.330
70078W        W42426  29.111   5.744  13.893
70079W        W42427  32.086  42.416   1.264
70080W        W42428  28.183  22.098   4.338
70081W        W42429  33.927  26.113   2.823
70082W        W42430   2.279  33.434   1.830
70083W        W42431   0.348  14.229   3.372
70084W        W42432  37.837  19.072  10.642
70085W        W42433  24.977  12.781  14.017
70086W        W42434  20.652  32.068   3.183
70087W        W42435   7.707  31.422  12.359
70088W        W42436   3.769  36.055   2.389
70089W        W42437  23.617  41.040   1.327
70090W        W42438  32.888   7.338   1.349
70091W        W42439  41.032  40.415   1.776
70092W        W42440  15.086  39.840  12.960
70093W        W42441  44.449  15.631   5.085
70094W        W42442  35.060   7.712   2.229
70095W        W42443   7.823   4.406   0.935
70096W        W42444  29.018  15.646   1.396
70097W        W42445  31.490  21.065  11.606
70098W        W42446  22.744   4.730  12.002
70099W        W42447   1.798  27.000   0.273
70100W        W42448  44.395  12.697   4.246
70101W        W42449   7.754  33.917   3.369
70102W        W42450  31.974  23.237  13.372
70103W        W42451  38.410  10.678   4.180
70104W        W42452   2.925   0.416   2.314
70105W        W42453  18.169  28.028  11.082
70106W        W42454  42.905  34.563   0.831
70107W        W42455   0.891  29.056  12.932
70108W        W42456   4.872   0.765   0.454
70109W        W42457   5.812  38.355   1.216
70110W        W42458   4.367   1.294  14.766
70111W        W42459  14.703  35.558   0.808
70112W        W42460  21.666   9.832   1.752
70113W        W42461   5.693  26.128  11.063
70114W        W42462  44.996  37.387   4.620
70115W        W42463  23.220  12.745  11.056
70116W        W42464  38.450  36.538   4.796
70117W        W42465  41.403  36.091   4.766
70118W        W42466   9.220  21.520   1.797
70119W        W42467   2.346  29.096   0.306
70120W        W42468  12.289  11.334  10.589
70121W        W42469  27.555  18.057   3.291
70122W        W42470  36.088  20.082  10.001
70123W        W42471  22.102  27.595   1.264
70124W        W42472  20.100  32.561  12.379
70125W        W42473  23.635  19.149   4.307
70126W        W42474  29.000  32.633   4.302
70127W        W42475   5.387  41.991   3.760
70128W        W42476  33.011  39.373   2.199
70129W        W42477  22.996  40.421   1.297
70130W        W42478   8.266  43.828  12.059
70131W        W42479   4.412  41.300  10.943
70132W        W42480  21.047  21.112  10.556
70133W        W42481  44.910  44.317  10.520
70134W        W42482  27.473  15.128   3.158
70135W        W42483  35.938  25.683  12.861
70136W        W42484  23.089   8.302  11.021
70137W        W42485  43.460  16.302   4.180
70138W        W42486  32.078   0.761   2.709
70139W        W42487  27.610  17.719   0.258
70140W        W42488  35.963  31.608  11.987
70141W        W42489  15.119  22.661  12.907
70142W        W42490   8.182  34.415   2.388
70143W        W42491  34.893  17.164   3.845
70144W        W42492  23.071  13.790  14.828
70145W        W42493  26.646  22.242   2.836
70146W        W42494  34.953  44.388  10.898
70147W        W42495  22.027   6.378  14.888
70148W        W42496  42.003   7.820   2.892
70149W        W42497  39.827  29.533   1.745
70150W        W42498  24.608   2.470  12.904
70151W        W42499   9.245   9.253  10.906
70152W        W42500  24.123  18.271   3.739
70153W        W42501   2.247   7.341  14.465
70154W        W42502  44.259  36.082   4.304
70155W        W42503  38.867  37.441   2.316
70156W        W42504  20.109   6.766  10.434
70157W        W42505  10.660  10.188   0.785
70158W        W42506  43.890  36.955   1.752
70159W        W42507   5.877  39.812   2.822
70160W        W42508  43.272  33.879   1.337
70161W        W42509  39.499  17.262   4.197
70162W        W42510  34.513  41.487  10.606
70163W        W42511   8.301  19.198  14.003
70164W        W42512  40.313  44.974  14.440
70165W        W42513  10.845  35.377   2.401
70166W        W42514   3.241   4.825   3.243
70167W        W42515   4.346  21.151  14.380
70168W        W42516  27.672  16.278  10.908
70169W        W42517   4.809  34.485  13.411
70170W        W42518  40.519  15.176   0.859
70171W        W42519   3.221  27.010   1.293
70172W        W42520   8.702  41.530  10.895
70173W        W42521   2.849   5.707  11.101
70174W        W42522  40.961  42.467  10.504
70175W        W42523  36.478  23.008   3.171
70176W        W42524  20.086  15.691   0.435
70177W        W42525   1.311  10.159   4.307
70178W        W42526  41.902  39.854   1.240
70179W        W42527  20.243  36.577  10.479
70180W        W42528   0.446  10.688  12.376
70181W        W42529  30.628  24.117  13.389
70182W        W42530  31.635  29.666   4.278
70183W        W42531  14.258   3.748   1.716
70184W        W42532  11.759   0.351   4.274
70185W        W42533  15.196  20.560  14.430
70186W        W42534  19.213  16.698  14.837
70187W        W42535  38.957  30.032  13.054
70188W        W42536  33.974  40.845  11.482
70189W        W42537  10.786  31.987   3.239
70190W        W42538  29.082   0.914   3.225
70191W        W42539  23.996  22.029  12.997
70192W        W42540  13.138   6.326   9.633
70193W        W42541  15.125   5.396  14.481
70194W        W42542  42.516   5.365   1.762
70195W        W42543  15.685  26.195  12.090
70196W        W42544  40.493  34.475  14.329
70197W        W42545  37.039  11.331  13.921
70198W        W42546  40.522  23.154   3.186
70199W        W42547   3.905  27.462   3.207
70200W        W42548  17.710  26.054   3.205
70201W        W42549  17.165  31.906   3.174
70202W        W42550  21.077  17.738   3.851
70203W        W42551  27.467  37.481   1.282
70204W        W42552  35.537  40.998   4.620
70205W        W42553  42.340  44.888  14.872
70206W        W42554   8.870  13.765   4.806
70207W        W42555  18.093   7.371   4.240
70208W        W42556  40.357  17.686   4.256
70209W        W42557  20.241  33.399  10.963
70210W        W42558   0.273  19.218  13.334
70211W        W42559  32.042   7.826   5.649
70212W        W42560  43.448   7.844   0.908
70213W        W42561  16.573  41.364  14.916
70214W        W42562  19.060  28.535  14.439
70215W        W42563  23.129   1.938   2.318
70216W        W42564  32.546  31.550   0.897
70217W        W42565  35.484  42.440   2.806
70218W        W42566  43.428  27.081   4.705
70219W        W42567  25.500  44.348   2.326
70220W        W42568  23.531   2.798   3.180
70221W        W42569  38.480  24.534   1.395
70222W        W42570  27.526  33.422   1.780
70223W        W42571   0.866   2.292  13.911
70224W        W42572  31.921   3.272  12.992
70225W        W42573  43.922  12.643  10.484
70226W        W42574  44.476  31.646   2.341
70227W        W42575  30.974  43.874   1.862
70228W        W42576  35.953  18.057  10.537
70229W        W42577  40.407  15.677  14.295
70230W        W42578   0.285  36.427   2.323
70231W        W42579  20.589  36.004  14.839
70232W        W42580  30.571  15.625   2.296
70233W        W42581  40.847  33.957  11.040
70234W        W42582  43.896  27.535   2.341
70235W        W42583  18.755  42.983   0.929
70236W        W42584  21.239  18.190  13.499
70237W        W42585   4.339  30.026   3.778
70238W        W42586  34.370  33.096   1.384
70239W        W42587  20.089  10.707   3.253
70240W        W42588  35.057  36.086  10.637
70241W        W42589  41.919   0.353  14.765
70242W        W42590  29.546  27.985   4.299
70243W        W42591  36.436  14.134  12.965
70244W        W42592  28.058  28.097   0.401
70245W        W42593   7.827  14.296   0.356
70246W        W42594  40.810   2.932   0.873
70247W        W42595  12.853   0.419   3.813
70248W        W42596   0.357  32.986   3.700
70249W        W42597  12.717   6.392   3.748
70250W        W42598  24.565  23.591   2.757
70251W        W42599   6.734  34.973  12.500
70252W        W42600   5.377  17.282  14.331
70253W        W42601  29.925   2.235   1.776
70254W        W42602  36.456   3.273   4.728
70255W        W42603   1.860  19.656   1.212
70256W        W42604   5.423  34.103  12.362
70257W        W42605  28.566  22.602  13.952
70258W        W42606  40.993  32.586  10.440
70259W        W42607  37.013  37.895  10.411
70260W        W42608  11.351   6.908   9.449
70261W        W42609  26.200   8.698   3.800
70262W        W42610  34.551  33.379  11.124
70263W        W42611   4.721  34.461  14.324
70264W        W42612   4.722  11.175  13.812
70265W        W42613  25.124  25.964  14.933
70266W        W42614  21.212  20.668  10.588
70267W        W42615  40.978  16.284  11.995
70268W        W42616  21.647   8.665  10.550
70269W        W42617  19.153  13.797   0.440
70270W        W42618   7.262  28.020  13.026
70271W        W42619  33.416  10.827  14.314
70272W        W42620  22.555  25.041  11.539
70273W        W42621   0.830   2.444   4.807
70274W        W42622  44.757  26.677   3.235
70275W        W42623  38.049  28.115  12.385
70276W        W42624  16.810   5.389  11.517
70277W        W42625  32.515  43.915  11.930
70278W        W42626   4.414  35.426   3.296
70279W        W42627   7.203  23.156   1.219
70280W        W42628  10.347   4.209   0.743
70281W        W42629  31.442  43.369  12.898
70282W        W42630  35.507   7.226   4.672
70283W        W42631   0.486   4.756  11.536
70284W        W42632  16.668  14.142  10.019
70285W        W42633   4.221  37.908  11.530
70286W        W42634  37.013   4.234  11.958
70287W        W42635   9.812   4.849  13.437
70288W        W42636  11.794  44.443   2.263
70289W        W42637  28.547   7.178  12.440
70290W        W42638  22.738  35.602   4.638
70291W        W42639  12.619  30.121  11.613
70292W        W42640  40.985  29.960  11.003
70293W        W42641  19.187  28.463   5.140
70294W        W42642  25.506  21.676  14.969
70295W        W42643  42.281   7.281  14.847
70296W        W42644  27.546  22.648   3.282
70297W        W42645  32.524  21.656  11.575
70298W        W42646  33.619   0.271   1.444
70299W        W42647   0.818   4.825   0.443
70300W        W42648  22.612  18.605   0.903
70301W        W42649  12.254  39.502   3.341
70302W        W42650   5.857  27.156  13.022
70303W        W42651  28.571  42.910   2.879
70304W        W42652   3.719  24.086  11.901
70305W        W42653   8.243  30.523   3.800
70306W        W42654  42.790  33.889   3.282
70307W        W42655   5.376  11.687  12.486
70308W        W42656  35.469  37.396  14.946
70309W        W42657   1.939  33.578   2.419
70310W        W42658  23.078   3.409   0.426
70311W        W42659   6.342  40.983   2.385
70312W        W42660  35.867  42.788   4.176
70313W        W42661  12.295  20.110   4.702
70314W        W42662  18.052  20.662  12.415
70315W        W42663  43.949  42.439   4.352
70316W        W42664  30.649  37.340   2.325
70317W        W42665  21.258   7.241   0.856
70318W        W42666  31.637   4.415  10.937
70319W        W42667  28.662  44.262   0.810
70320W        W42668   5.273  13.229  11.065
70321W        W42669   6.268  30.002  13.862
70322W        W42670  38.437  21.207   2.796
70323W        W42671  16.218   2.932   2.835
70324W        W42672  42.951  41.870  14.759
70325W        W42673  17.683  20.555  10.896
70326W        W42674  37.447  35.409  14.846
70327W        W42675   3.297  25.610  11.411
70328W        W42676  16.733  38.963   3.313
70329W        W42677  33.888   7.803   3.787
70330W        W42678  10.779   2.302   1.794
70331W        W42679  41.441   6.856  13.444
70332W        W42680  23.617  37.053  12.573
70333W        W42681  39.496   5.252   0.279
70334W        W42682  27.138   9.875  10.956
70335W        W42683  12.743  36.542  11.909
70336W        W42684  10.371  13.142  13.923
70337W        W42685  23.190  40.465  13.347
70338W        W42686  17.569  40.867  12.417
70339W        W42687  31.050  33.485   4.160
70340W        W42688  17.659   7.265  12.578
70341W        W42689   7.671  33.072  10.564
70342W        W42690  40.482  38.535  12.051
70343W        W42691  25.530  39.497   0.298
70344W        W42692  10.807   5.716   2.691
70345W        W42693   3.803  11.354  10.518
70346W        W42694  14.820  44.324   4.316
70347W        W42695  19.596  20.168   4.304
70348W        W42696   6.887  31.486   3.814
70349W        W42697  43.916  14.719  11.400
70350W        W42698  33.478   2.757  12.906
70351W        W42699   8.300   2.848   1.255
70352W        W42700  35.435  38.838   4.748
70353W        W42701  15.585   9.830   0.730
70354W        W42702  27.468  21.031   3.170
70355W        W42703   4.229  10.162   4.324
70356W        W42704   5.218  23.230   0.342
70357W        W42705  25.204   7.835   2.780
70358W        W42706  22.695  44.310  10.467
70359W        W42707   0.982  12.229   0.962
70360W        W42708  43.503  29.512  14.399
70361W        W42709  34.455  37.379   4.628
70362W        W42710  26.101  25.583   3.242
70363W        W42711  29.667  34.949   0.385
70364W        W42712   6.843  13.821   4.702
70365W        W42713   6.389  10.756  10.615
70366W        W42714  18.683  23.987  13.918
70367W        W42715  22.016   4.746   3.350
70368W        W42716  13.263  26.690   3.229
70369W        W42717  35.978  18.688  11.868
70370W        W42718   4.854  21.580  13.396
70371W        W42719  39.999   3.896  14.886
70372W        W42720  14.781   3.328   2.338
70373W        W42721  19.193  35.369  11.056
70374W        W42722   2.453  41.906   4.193
70375W        W42723   2.384  44.329  14.476
70376W        W42724  10.178  22.578  10.986
70377W        W42725   3.268  16.740   4.725
70378W        W42726  23.693  14.630   3.859
70379W        W42727  28.670  35.391   2.671
70380W        W42728   3.406  31.535  14.811
70381W        W42729  16.148  29.093   1.772
70382W        W42730  29.031  29.594  12.921
70383W        W42731  35.534  21.726   2.319
70384W        W42732  16.101   2.962   0.941
70385W        W42733   4.756  12.660  12.010
70386W        W42734  28.523  18.092   2.878
70387W        W42735  43.396  37.355  12.458
70388W        W42736  20.762   8.818   3.688
70389W        W42737  35.997  28.668  12.525
70390W        W42738   7.367  20.144   1.799
70391W        W42739  38.923   7.185   0.895
70392W        W42740  30.632   3.858  12.427
70393W        W42741  15.224  40.488  13.812
70394W        W42742  29.139  15.656   4.774
70395W        W42743  17.702  41.859   2.271
70396W        W42744   6.412  17.260  14.003
70397W        W42745  22.243  17.771  12.019
70398W        W42746  19.693  17.303   4.195
70399W        W42747   6.237  29.533   0.338
70400W        W42748   8.772  27.941   5.245
70401W        W42749   2.796  42.853   4.818
70402W        W42750  31.134  18.288  12.859
70403W        W42751  38.414   6.312  12.083
70404W        W42752  11.853  21.643   1.838
70405W        W42753  14.712   7.328   4.128
70406W        W42754   4.772  43.390   9.924
70407W        W42755  12.782  16.663  11.994
70408W        W42756  31.932  38.912  12.559
70409W        W42757   0.938  15.117   1.848
70410W        W42758  10.715   9.355  13.457
70411W        W42759  28.572  23.512   2.816
70412W        W42760  14.611   0.470   1.343
70413W        W42761  21.705  42.390   2.883
70414W        W42762  23.650   2.883   0.438
70415W        W42763  31.477   3.880   4.800
70416W        W42764   7.357  43.489   0.414
70417W        W42765   7.183   3.272  11.919
70418W        W42766  39.890  41.380   4.825
70419W        W42767  11.648   9.202   1.352
70420W        W42768   9.298  23.085   4.606
70421W        W42769  27.180  17.179  10.529
70422W        W42770  44.381  34.512  14.956
70423W        W42771   6.701   0.803   0.823
70424W        W42772  10.163   4.250   4.324
70425W        W42773  43.359  18.557  13.528
70426W        W42774  14.688   2.282  10.436
70427W        W42775  36.453  14.108  13.811
70428W        W42776  34.444  29.028  10.489
70429W        W42777  43.308   7.681  13.387
70430W        W42778  43.331  36.988  12.868
70431W        W42779  10.343   3.852   1.924
70432W        W42780   6.738  40.828  12.437
70433W        W42781  34.419   8.211  11.608
70434W        W42782  26.128  32.978  14.764
70435W        W42783  11.187   9.334   3.284
70436W        W42784  31.123   6.393   3.716
70437W        W42785   8.726  37.843  12.429
70438W        W42786   1.891   1.743   4.204
70439W        W42787  27.062  21.690   4.759
70440W        W42788  29.071   1.903  13.802
70441W        W42789  25.128   9.282  14.383
70442W        W42790   9.778  18.550  13.044
70443W        W42791  36.504  42.415   3.193
70444W        W42792  13.782   6.683  12.554
70445W        W42793  16.698   2.879  12.073
70446W        W42794  36.517  26.634  14.835
70447W        W42795  20.560   1.301  14.384
70448W        W42796  39.326  23.713  13.802
70449W        W42797  28.448  14.304   0.733
70450W        W42798  30.164  43.826  13.949
70451W        W42799  13.228   4.271   2.322
70452W        W42800   9.224  28.104  12.861
70453W        W42801  18.728  42.868   4.646
70454W        W42802  20.157   6.392   4.624
70455W        W42803  30.583  16.576  14.925
70456W        W42804  26.959  35.997  12.482
70457W        W42805   3.777  20.541  13.880
70458W        W42806  29.495   6.845   3.714
70459W        W42807   8.291   1.967  10.591
70460W        W42808  31.499  20.628   4.221
70461W        W42809  24.202  40.386   2.891
70462W        W42810  10.678  22.674   4.759
70463W        W42811  12.738  39.876   4.624
70464W        W42812  40.041  31.933  12.089
70465W        W42813  23.566  38.396   1.275
70466W        W42814  26.550  27.551   3.148
70467W        W42815  11.733  35.088   0.306
70468W        W42816  13.724  41.363   2.698
70469W        W42817  41.489  34.475   1.397
70470W        W42818  17.665   3.831   3.821
70471W        W42819   6.853  42.441   2.775
70472W        W42820  25.526  37.425  11.506
70473W        W42821   7.380  15.210   2.849
70474W        W42822  10.334  32.449  11.865
70475W        W42823  24.159  32.440   1.724
70476W        W42824  15.262  15.217  12.884
70477W        W42825   9.810   8.274   2.768
70478W        W42826   4.225   0.809   2.361
70479W        W42827  40.527  33.481   2.418
70480W        W42828   3.747   2.387  14.894
70481W        W42829  44.485  38.376  14.882
70482W        W42830  27.021  27.137  12.433
70483W        W42831  15.165  12.238  11.073
70484W        W42832  33.494  26.140   3.755
70485W        W42833  34.897  31.972  12.885
70486W        W42834  24.108  13.220   0.767
70487W        W42835  30.908  16.077   0.414
70488W        W42836  20.745  25.688   1.838
70489W        W42837  14.278   4.843  12.946
70490W        W42838   1.264  32.435  12.401
70491W        W42839  21.229  19.170  14.341
70492W        W42840  40.818  12.815  12.062
70493W        W42841   5.914  25.134  12.521
70494W        W42842   8.841  35.904   3.189
70495W        W42843  22.593   5.436   1.808
70496W        W42844  11.206  21.703  14.870
70497W        W42845  38.379  41.824  11.446
70498W        W42846  40.856   5.321   1.906
70499W        W42847  23.051  33.457   4.648
70500W        W42848  39.363  42.507  10.989
70501W        W42849   4.720  34.454   4.266
70502W        W42850  35.481  28.105  14.503
70503W        W42851  10.726  27.577   4.157
70504W        W42852  22.092  42.477  11.110
70505W        W42853  15.126   6.338  10.959
70506W        W42854   9.349  27.467  13.961
70507W        W42855  38.912  20.709  13.402
70508W        W42856  27.508  16.173   2.408
70509W        W42857  28.167   9.376  13.403
70510W        W42858  18.581  43.482   3.678
70511W        W42859  38.511   1.267   1.915
70512W        W42860   2.267  38.381   1.350
70513W        W42861  33.602  42.854  14.825
70514W        W42862  22.086  19.191  11.980
70515W        W42863  17.187  41.036  13.878
70516W        W42864  38.878  11.629  14.448
70517W        W42865   0.922  13.790   4.213
70518W        W42866  35.500  42.338   3.271
70519W        W42867   6.397  10.837  14.434
70520W        W42868  19.672   8.820  11.469
70521W        W42869  34.964   2.800   1.884
70522W        W42870   7.741  16.207  13.978
70523W        W42871  35.942  39.500   3.191
70524W        W42872  27.154  16.235   1.245
70525W        W42873  40.545  10.851  11.548
70526W        W42874  25.999  23.622  10.598
70527W        W42875  18.671  37.836  11.507
70528W        W42876   6.339  24.680  12.992
70529W        W42877  20.085  34.585   3.386
70530W        W42878  22.187  12.203   3.173
70531W        W42879  11.235  28.986   3.351
70532W        W42880  34.559  10.151   3.666
70533W        W42881   8.244  21.197  14.852
70534W        W42882  19.624   6.849  12.926
70535W        W42883  43.413   9.762   0.432
70536W        W42884  41.309  36.981   4.348
70537W        W42885  37.914  25.995  10.962
70538W        W42886  16.810  24.129   2.764
70539W        W42887  10.172  28.041   1.303
70540W        W42888  43.476  42.512  10.905
70541W        W42889  14.169  12.815   3.634
70542W        W42890  35.567  28.569  14.958
70543W        W42891   1.290   7.828   3.297
70544W        W42892  16.248  14.740   3.775
70545W        W42893  14.124   0.391  12.963
70546W        W42894   0.844  23.632   0.788
70547W        W42895  33.541  15.171  13.440
70548W        W42896  17.212  22.220   0.360
70549W        W42897   0.897   3.777   0.267
70550W        W42898  40.884   3.264  13.318
70551W        W42899  16.308  31.416   0.295
70552W        W42900   6.725  41.515   4.725
70553W        W42901  20.112  10.728   0.927
70554W        W42902  17.246  41.383  10.906
70555W        W42903   3.772  22.208  10.986
70556W        W42904  23.071  11.780   4.631
70557W        W42905  36.970  38.923   1.873
70558W        W42906  37.402  33.564   5.108
70559W        W42907  23.227  27.669   0.273
70560W        W42908   0.941  24.715   2.347
70561W        W42909   8.317  26.101  13.447
70562W        W42910  25.479  43.835   0.898
70563W        W42911  44.395  40.526   3.337
70564W        W42912  13.228   7.286   4.715
70565W        W42913   9.318  19.774   3.149
70566W        W42914  28.167   5.897   1.262
70567W        W42915   6.892   6.858  11.593
70568W        W42916  26.483  18.554   1.708
70569W        W42917   8.366   8.191  14.460
70570W        W42918  11.703  24.213  12.549
70571W        W42919  40.388  18.709  11.445
70572W        W42920  42.002  42.328  14.005
70573W        W42921  13.156  23.138  12.538
70574W        W42922   7.196  42.416   0.958
70575W        W42923  15.701  41.338  13.452
70576W        W42924  31.500  11.740  13.011
70577W        W42925   0.308   3.950  11.926
70578W        W42926  44.302  25.980  13.037
70579W        W42927   9.675  18.753   0.244
70580W        W42928  33.604  29.981   2.762
70581W        W42929  10.259  36.871   0.738
70582W        W42930   6.738  30.423  11.498
70583W        W42931  27.570  30.009   2.279
70584W        W42932  27.536  12.251  10.546
70585W        W42933   8.895  17.559  10.480
70586W        W42934  38.034  20.089   3.814
70587W        W42935  30.601   2.309  14.803
70588W        W42936  27.123   0.777  14.838
70589W        W42937   1.973   3.739   0.377
70590W        W42938  35.535  29.122   3.825
70591W        W42939  23.711  30.549   3.287
70592W        W42940   6.417  11.336  13.841
70593W        W42941  35.391  22.191   1.889
70594W        W42942  11.239  33.574   2.756
70595W        W42943  33.502   9.217  11.975
70596W        W42944  24.065   5.337  10.476
70597W        W42945  32.928  12.309   2.211
70598W        W42946  44.430  25.180   2.395
70599W        W42947  18.199  39.949   4.135
70600W        W42948  31.056  10.219  14.795
70601W        W42949  34.114  36.987   9.656
70602W        W42950  20.543   8.356  13.407
70603W        W42951  36.468  12.168   1.703
70604W        W42952  11.132  18.072   1.819
70605W        W42953  14.095  16.583  12.563
70606W        W42954  17.557  33.493  11.042
70607W        W42955  28.974  24.041  12.471
70608W        W42956  10.239  11.169   1.397
70609W        W42957  15.326  26.150  12.520
70610W        W42958   3.454  38.492   0.747
70611W        W42959  18.632   9.224  13.499
70612W        W42960  28.673  12.782   2.244
70613W        W42961  10.690  39.484  12.040
70614W        W42962  14.690  25.965   2.824
70615W        W42963  18.787  31.521   4.794
70616W        W42964  24.991  19.089  13.444
70617W        W42965  16.597  26.639   2.819
70618W        W42966  28.439  34.957   4.835
70619W        W42967  43.876  13.244  11.450
70620W        W42968  37.430   7.296   3.276
70621W        W42969  17.073  21.604   2.826
70622W        W42970  13.655  24.974  12.573
70623W        W42971  34.555  35.380  13.446
70624W        W42972  34.541  40.859   2.778
70625W        W42973  10.877   9.316   2.370
70626W        W42974  34.997  23.520   4.204
70627W        W42975  19.237  23.145  13.378
70628W        W42976   3.820  17.239   4.780
70629W        W42977  24.538  18.135   3.214
70630W        W42978  30.634  43.922  12.371
70631W        W42979  23.142  11.850   1.872
70632W        W42980  31.603  29.504   3.682
70633W        W42981  30.090   7.831   0.762
70634W        W42982  15.823  11.339   0.421
70635W        W42983   4.433  18.132  14.772
70636W        W42984   6.744   4.325   0.446
70637W        W42985  28.103  25.511   1.779
70638W        W42986  30.106  41.886  12.465
70639W        W42987  44.782  24.229  13.495
70640W        W42988   2.766  39.506   1.435
70641W        W42989  37.984   8.897  13.006
70642W        W42990  41.999  22.666   3.263
70643W        W42991  13.815  37.021  12.483
70644W        W42992  15.795  17.679   2.361
70645W        W42993   9.725  27.016  12.538
70646W        W42994   1.321  34.892   1.275
70647W        W42995   5.392  30.622  12.979
70648W        W42996   6.718  33.966  10.438
70649W        W42997  14.591  15.305  11.599
70650W        W42998  16.745  41.808   3.248
70651W        W42999  39.383  16.575   1.736
70652W        W43000   8.332  23.661  10.532
70653W        W43001  43.958  31.129   2.336
70654W        W43002  13.678   0.407   3.189
70655W        W43003  36.893  33.060   1.838
70656W        W43004  34.024  14.214   0.790
70657W        W43005   3.354  38.038   1.360
70658W        W43006  24.108  34.608  12.564
70659W        W43007  14.732  15.272   4.260
70660W        W43008  24.488  41.792  12.504
70661W        W43009  39.555  15.803  10.907
70662W        W43010   2.359  19.146  13.986
70663W        W43011  40.457   8.774   0.385
70664W        W43012  19.742   4.901  14.992
70665W        W43013   0.378  15.118   1.805
70666W        W43014  37.565  15.324  12.014
70667W        W43015  38.488  28.461   4.811
70668W        W43016   6.819  13.111   4.327
70669W        W43017  31.527  14.339  11.039
70670W        W43018  36.406  14.296  11.600
70671W        W43019  27.158  43.462  11.041
70672W        W43020  27.994  13.702  12.019
70673W        W43021  23.716  27.589  10.561
70674W        W43022  35.478  31.424  14.319
70675W        W43023  39.326  14.179  14.831
70676W        W43024  22.533   5.295  11.880
70677W        W43025   2.264  35.061  13.317
70678W        W43026  10.361  31.932  10.019
70679W        W43027  22.532  17.683  14.784
70680W        W43028   5.828   7.676  10.505
70681W        W43029  43.426  10.849  10.554
70682W        W43030  30.960  19.108   2.323
70683W        W43031  43.397  20.737  10.411
70684W        W43032  26.034  23.498   2.717
70685W        W43033   8.807  30.948  14.828
70686W        W43034  23.206  15.768   2.364
70687W        W43035   1.778  28.614   4.668
70688W        W43036  25.180   8.723  10.436
70689W        W43037  25.536   3.253  12.351
70690W        W43038  31.407  12.827   0.365
70691W        W43039  18.101   3.944  13.507
70692W        W43040  38.418  17.176   4.164
70693W        W43041  12.310   3.215  13.435
70694W        W43042  32.044   8.225   3.341
70695W        W43043  17.290  26.096   2.840
70696W        W43044  24.647   3.902  14.485
70697W        W43045  23.018   1.759  14.954
70698W        W43046  28.603  34.892  11.937
70699W        W43047  37.070  24.688   4.673
70700W        W43048  43.351  43.889   3.630
70701W        W43049  24.210  20.207   0.285
70702W        W43050  24.166   8.212  11.984
70703W        W43051   5.433  29.549   0.376
70704W        W43052  19.180   2.917   3.295
70705W        W43053   5.204  17.580   4.206
70706W        W43054  30.473  23.565  14.861
70707W        W43055  37.435  10.241  12.861
70708W        W43056  16.601  43.872   1.339
70709W        W43057  27.063   3.892   3.202
70710W        W43058   4.336   8.323  11.531
70711W        W43059  30.545  40.470  13.838
70712W        W43060   0.494  11.205   4.171
70713W        W43061   4.278   3.813   4.146
70714W        W43062  28.119  11.291   2.271
70715W        W43063   0.952  18.224  11.079
70716W        W43064  13.246  40.864   1.901
70717W        W43065   7.185  26.033   4.345
70718W        W43066  17.666   2.363   2.885
70719W        W43067  21.024   5.333   1.796
70720W        W43068   9.664  43.447  11.861
70721W        W43069  13.714  19.100  12.344
70722W        W43070  31.416  39.409   0.936
70723W        W43071  36.849  16.642  13.908
70724W        W43072  39.005  20.054   4.828
70725W        W43073  25.126  24.014  10.544
70726W        W43074  36.045   8.218  11.129
70727W        W43075  36.372  32.895  10.508
70728W        W43076  35.895  19.729   3.718
70729W        W43077  35.025   0.439   1.379
70730W        W43078  33.020  21.598  12.992
70731W        W43079  20.262  17.257  12.857
70732W        W43080  19.671  40.886   1.404
70733W        W43081  37.459   2.958   3.282
70734W        W43082  12.286  21.618  10.934
70735W        W43083   0.882  23.705   2.785
70736W        W43084   4.905  42.459  14.482
70737W        W43085  12.773  23.031  14.836
70738W        W43086  25.695  43.963  13.473
70739W        W43087  15.634   9.194   0.262
70740W        W43088  41.324  36.998  14.802
70741W        W43089  26.081   6.806  11.507
70742W        W43090  30.014  24.624  14.984
70743W        W43091  14.761  36.462   1.702
70744W        W43092  25.614   6.878   3.186
70745W        W43093  39.373  23.106   0.806
70746W        W43094  30.993  33.457  11.986
70747W        W43095  25.664  19.171   4.796
70748W        W43096  25.581  14.644  13.346
70749W        W43097  37.371   2.967  10.606
70750W        W43098  32.391  32.112  11.955
70751W        W43099  26.028  43.988   4.649
70752W        W43100  19.255  37.472   0.409
70753W        W43101  10.866  30.988  12.918
70754W        W43102   2.755  33.393  10.425
70755W        W43103  20.724  26.967   1.425
70756W        W43104  44.347  21.621  13.486
70757W        W43105  32.398   5.296   2.865
70758W        W43106  25.543  19.588  12.362
70759W        W43107  14.756  13.760  11.095
70760W        W43108  42.428   1.441  14.005
70761W        W43109   0.950  11.288   0.429
70762W        W43110  38.071  32.996  11.970
70763W        W43111  14.295  27.192  13.054
70764W        W43112  14.741   6.286   4.214
70765W        W43113  41.880   3.740   0.778
70766W        W43114  10.782  28.024  11.932
70767W        W43115  30.500  18.700   3.801
70768W        W43116  29.651  16.288  12.496
70769W        W43117  11.136   8.816  14.307
70770W        W43118  17.178   5.330  12.091
70771W        W43119  28.985  35.933  11.906
70772W        W43120   4.865  40.474   4.730
70773W        W43121  10.659  43.482  11.374
70774W        W43122   6.703  18.197   1.339
70775W        W43123  19.191   1.828   3.787
70776W        W43124  30.155  10.794  14.476
70777W        W43125  18.751  39.408  11.927
70778W        W43126  42.511  28.509   2.875
70779W        W43127  16.119  42.464  12.413
70780W        W43128  29.134  18.768   4.335
70781W        W43129  28.090  32.915  11.890
70782W        W43130  27.664  40.421   2.335
70783W        W43131  43.009  27.029  13.468
70784W        W43132  29.088  43.431   0.943
70785W        W43133  19.564  28.148  10.906
70786W        W43134  19.637  37.349  13.319
70787W        W43135  42.020  41.819   4.306
70788W        W43136  44.929  26.577  13.403
70789W        W43137  35.466  27.959   4.693
70790W        W43138  16.293   1.372   3.172
70791W        W43139   7.881   3.728  12.339
70792W        W43140  37.941  17.173   2.331
70793W        W43141   6.684  30.483   0.943
70794W        W43142  38.984  31.933  14.440
70795W        W43143  38.860  23.498  12.551
70796W        W43144  34.538   1.790  11.884
70797W        W43145   8.663   2.446   3.711
70798W        W43146   0.440  23.984  14.881
70799W        W43147  34.584  23.676   1.412
70800W        W43148  18.653   4.370  11.105
70801W        W43149  22.591  11.348   2.260
70802W        W43150  21.557  24.632   4.298
70803W        W43151  40.302  19.553  14.352
70804W        W43152  36.455   3.778   1.857
70805W        W43153  16.183  26.648   0.431
70806W        W43154  38.031  40.938  10.991
70807W        W43155   4.414  20.124   0.741
70808W        W43156  18.789  16.173   2.202
70809W        W43157  10.317  41.461   3.716
70810W        W43158   7.371  31.457   2.737
70811W        W43159  32.560  35.499  12.076
70812W        W43160  15.761  12.815   0.352
70813W        W43161   5.383   1.244  11.996
70814W        W43162  33.477  11.730   4.128
70815W        W43163  10.791  16.197  12.479
70816W        W43164  40.831  24.713   0.359
70817W        W43165   0.426  33.106   0.797
70818W        W43166  43.876  33.933   4.685
70819W        W43167  22.583  42.852   3.834
70820W        W43168  32.088  27.023  12.881
70821W        W43169  31.135  42.314   4.655
70822W        W43170   9.817   8.858   4.352
70823W        W43171  30.084  22.566  14.880
70824W        W43172  41.816  43.353  12.510
70825W        W43173  12.668  21.041  10.531
70826W        W43174  33.432   7.354  13.938
70827W        W43175   8.671  35.002  14.866
70828W        W43176  24.081  29.572   4.646
70829W        W43177  23.056  34.909   2.187
70830W        W43178  30.452  13.224  14.386
70831W        W43179  38.985  22.529  13.962
70832W        W43180  36.987   4.288   2.851
70833W        W43181  14.753  20.211  13.529
70834W        W43182  37.041  44.422  12.087
70835W        W43183  30.482  33.565   4.745
70836W        W43184  20.667  22.745   1.727
70837W        W43185  33.499  43.893  13.518
70838W        W43186  28.092   3.885  12.017
70839W        W43187  35.603  22.082   3.212
70840W        W43188  41.974  42.985  12.380
70841W        W43189   8.870   4.337   3.215
70842W        W43190  41.365  28.672   1.444
70843W        W43191  26.004   0.403   2.789
70844W        W43192   0.932   3.873   3.735
70845W        W43193  15.111  39.430  13.471
70846W        W43194  31.973   4.242  14.841
70847W        W43195   4.203  31.537   4.127
70848W        W43196  27.499  20.653   1.365
70849W        W43197  19.055  14.717  14.974
70850W        W43198  10.832  38.028   4.747
70851W        W43199   4.888   5.309   3.847
70852W        W43200  18.118  10.339   4.123
70853W        W43201  41.359  12.307  14.024
70854W        W43202  31.628  22.230   0.744
70855W        W43203  16.080  11.305  13.033
70856W        W43204   4.443  19.150   3.673
70857W        W43205  19.771  24.212   3.188
70858W        W43206  21.725  16.811   3.686
70859W        W43207  36.079  29.979  14.930
70860W        W43208  39.834  23.497   0.427
70861W        W43209  27.487   0.459  11.901
70862W        W43210  10.689  19.603  13.950
70863W        W43211  32.121  11.304   2.229
70864W        W43212   6.289  39.996  11.556
70865W        W43213   4.914  10.806  11.971
70866W        W43214  44.767   3.751   1.909
70867W        W43215  17.120  18.643  11.037
70868W        W43216  19.747  20.587  13.823
70869W        W43217   1.468   0.441  12.398
70870W        W43218  44.386   8.230  10.438
70871W        W43219  28.655  39.476  10.937
70872W        W43220  33.597  15.229  11.881
70873W        W43221  19.244   2.850  14.436
70874W        W43222  39.050   6.329   1.880
70875W        W43223  30.558  25.962  13.825
70876W        W43224  27.988  32.635   4.603
70877W        W43225  43.965  35.920   2.826
70878W        W43226  10.173   7.795  13.385
70879W        W43227   3.770  43.966  11.412
70880W        W43228  16.587  15.321  13.394
70881W        W43229   2.298   4.826   4.780
70882W        W43230  17.598  11.351  12.471
70883W        W43231  30.937   0.285   4.655
70884W        W43232  25.097   8.827  13.828
70885W        W43233  39.434   7.247   0.352
70886W        W43234  23.605  26.072   0.866
70887W        W43235   7.836  29.027  10.088
70888W        W43236  37.848  36.931  13.439
70889W        W43237  25.010   9.183  13.017
70890W        W43238  37.005  39.440  13.548
70891W        W43239  39.941  42.866  12.463
70892W        W43240  41.959   9.682   3.204
70893W        W43241  29.064  40.004  10.963
70894W        W43242  30.551  12.141  13.945
70895W        W43243   4.381   1.462   4.667
70896W        W43244  24.657  40.053  13.818
70897W        W43245   7.712   1.732   1.240
70898W        W43246  15.666   0.893  12.473
70899W        W43247  23.199   9.879  14.811
70900W        W43248  30.011  20.220  10.890
70901W        W43249  24.654  27.631   1.737
70902W        W43250   7.241   6.298  14.889
70903W        W43251   8.698  38.419  13.884
70904W        W43252   1.965   6.817   3.314
70905W        W43253  38.382  19.756   4.263
70906W        W43254  13.170  40.837   1.402
70907W        W43255  27.566  34.452   1.380
70908W        W43256  32.022  36.520   4.310
70909W        W43257  42.527  39.337   3.659
70910W        W43258  35.512   2.802   1.211
70911W        W43259   6.193  32.491   9.651
70912W        W43260   1.857  42.434   1.792
70913W        W43261   8.811  43.980   0.820
70914W        W43262  20.748  42.005  14.497
70915W        W43263  28.525  24.214   1.264
70916W        W43264  30.066  22.510  10.452
70917W        W43265   5.892  34.541   2.216
70918W        W43266  43.958  43.932  13.548
70919W        W43267  13.223  43.292  10.533
70920W        W43268  43.350   3.937   2.710
70921W        W43269   6.891  20.540   4.312
70922W        W43270   5.696  23.644   3.701
70923W        W43271   6.298  24.507   2.883
70924W        W43272  11.277  39.031  13.451
70925W        W43273  12.193  28.510   4.113
70926W        W43274  23.725  40.415   2.874
70927W        W43275   5.384  34.057   0.810
70928W        W43276   6.213  15.287  14.440
70929W        W43277  17.711  10.154   1.799
70930W        W43278  44.819  31.973  10.086
70931W        W43279  37.567  17.065  10.438
70932W        W43280  20.144  36.009   4.290
70933W        W43281  44.294  21.712   3.222
70934W        W43282   5.839  21.563  11.037
70935W        W43283   6.771  31.501  11.490
70936W        W43284  25.630   6.351  14.327
70937W        W43285  19.067  23.053   4.326
70938W        W43286  35.508  33.453  13.484
70939W        W43287  42.424  41.020  11.041
70940W        W43288  30.103  17.589  14.928
70941W        W43289   6.725  28.626  12.385
70942W        W43290   9.742  22.667  10.014
70943W        W43291  21.549   0.773   2.742
70944W        W43292  28.601  25.125   1.270
70945W        W43293  35.378   1.406  11.063
70946W        W43294  20.041   5.439   4.756
70947W        W43295  28.165  15.319  14.790
70948W        W43296   1.916  24.644  11.407
70949W        W43297  31.526  39.380   1.784
70950W        W43298  26.164   7.327   0.344
70951W        W43299  42.376   4.277   3.834
70952W        W43300  15.686   7.377   3.649
70953W        W43301  26.092   3.847   2.670
70954W        W43302  24.640  33.031  14.446
70955W        W43303  27.974   7.247   4.210
70956W        W43304   6.311  43.464  12.521
70957W        W43305   4.761  17.724   3.247
70958W        W43306  21.055  23.211   0.253
70959W        W43307   7.214  24.585  14.342
70960W        W43308  12.335  32.524  11.096
70961W        W43309  33.446  12.282   2.850
70962W        W43310  13.131  25.603   1.395
70963W        W43311  26.533  40.969  12.391
70964W        W43312  27.536  13.717  12.354
70965W        W43313  11.738  29.951  12.931
70966W        W43314   4.232  40.333  13.944
70967W        W43315  13.268  33.402   2.193
70968W        W43316  25.496  33.930  12.000
70969W        W43317  38.383  43.284   4.200
70970W        W43318  35.382   5.694   3.357
70971W        W43319  12.169  25.573   1.314
70972W        W43320  16.244  10.717  14.439
70973W        W43321  37.410  24.090   1.277
70974W        W43322   5.275  25.097   2.232
70975W        W43323  44.010  37.958  13.811
70976W        W43324   3.412  23.225  14.828
70977W        W43325   9.237  31.490  10.906
70978W        W43326  38.023  35.058  14.825
70979W        W43327  18.198  41.827  12.075
70980W        W43328  14.204  12.263  14.850
70981W        W43329   5.249  15.601  11.561
70982W        W43330  18.284  43.375  14.908
70983W        W43331  38.440  41.953  14.373
70984W        W43332  42.372   4.881  13.914
70985W        W43333  21.125   6.845  11.033
70986W        W43334  40.313  44.994   1.773
70987W        W43335  29.623  13.765  12.509
70988W        W43336  14.245  13.644  14.016
70989W        W43337  25.025  15.795   2.874
70990W        W43338  16.086  22.642  13.990
70991W        W43339  34.913  21.687   0.250
70992W        W43340  20.533   5.391   3.747
70993W        W43341  32.967  43.957   3.216
70994W        W43342  43.922   5.371   3.240
70995W        W43343  25.035  27.190  14.904
70996W        W43344   6.204  11.638  10.406
70997W        W43345  38.487  26.500  12.494
70998W        W43346  15.091  35.065  14.860
70999W        W43347  17.093  24.030   0.266
71000W        W43348   2.852  18.286  14.981
71001W        W43349  36.363  30.442   4.817
71002W        W43350   0.799   5.747  13.893
71003W        W43351  11.261   1.803  12.052
71004W        W43352  18.593  10.789   0.919
71005W        W43353  19.199  13.624  13.994
71006W        W43354  36.051  33.568  13.387
71007W        W43355  21.669   2.874   0.817
71008W        W43356  21.548  14.306   4.608
71009W        W43357  34.440  10.366   2.857
71010W        W43358  38.361  26.159  14.008
71011W        W43359   6.722  25.513   2.783
71012W        W43360  15.163   1.798  12.024
71013W        W43361   8.708   3.424   0.449
71014W        W43362  40.465  17.560  14.918
71015W        W43363  24.021  10.256   1.315
71016W        W43364   8.666  26.075   1.818
71017W        W43365  33.953  32.409   3.864
71018W        W43366  34.469   9.366   2.847
71019W        W43367  30.030  26.534  10.448
71020W        W43368  24.226   0.771   0.934
71021W        W43369   1.942  43.344  10.634
71022W        W43370  41.333  18.292   1.387
71023W        W43371  35.418  38.052   4.666
71024W        W43372  21.579   5.235   4.243
71025W        W43373  43.805  38.460   0.303
71026W        W43374  32.966  44.919   2.729
71027W        W43375  36.429  40.878  13.457
71028W        W43376  36.098  35.470   1.778
71029W        W43377  26.496  20.740   3.777
71030W        W43378  42.966   2.298   2.815
71031W        W43379   2.227   1.802  13.843
71032W        W43380  28.444  20.255   4.781
71033W        W43381  12.749  14.157   3.266
71034W        W43382  38.448  17.208   2.887
71035W        W43383  42.465  28.011  14.412
71036W        W43384   4.427  33.080   4.804
71037W        W43385  29.467  25.120   2.841
71038W        W43386   6.423  27.152  10.576
71039W        W43387  38.949   6.695   5.686
71040W        W43388  16.734  31.567  12.834
71041W        W43389  39.985   2.277  13.932
71042W        W43390  24.043  12.849  11.023
71043W        W43391  41.475  22.121  12.980
71044W        W43392  17.689   5.392   2.400
71045W        W43393  44.998   4.910   2.370
71046W        W43394   2.944  26.524  14.774
71047W        W43395  23.216   7.225   0.742
71048W        W43396  39.481  16.617   0.814
71049W        W43397   9.702  41.980   2.670
71050W        W43398  36.439   3.360   2.690
71051W        W43399  38.535  11.145   0.899
71052W        W43400   8.776  10.861   3.713
71053W        W43401  41.490  14.722   4.819
71054W        W43402  29.534  11.679   1.777
71055W        W43403  13.257  39.423   2.687
71056W        W43404  27.534  22.176  10.909
71057W        W43405  13.132  21.602  14.413
71058W        W43406  29.123  34.604  11.090
71059W        W43407  28.183  12.793  13.452
71060W        W43408  24.132  30.103  11.927
71061W        W43409  20.201   7.782  13.457
71062W        W43410  23.510   5.742  11.931
71063W        W43411  17.716   9.172  14.006
71064W        W43412   2.468   7.764  12.945
71065W        W43413  33.620  22.504  10.082
71066W        W43414  13.135  42.928  12.833
71067W        W43415  20.242  15.779   2.717
71068W        W43416  37.887  15.168   3.810
71069W        W43417  38.856  39.485  13.465
71070W        W43418   4.403  38.563   3.763
71071W        W43419  30.934  22.707  11.858
71072W        W43420  14.143  13.734   5.569
71073W        W43421   2.809  31.009   1.904
71074W        W43422  11.156   5.810  10.928
71075W        W43423  41.010  20.157   3.242
71076W        W43424  36.553  41.022   3.642
71077W        W43425  19.202  34.925   4.606
71078W        W43426   6.799  35.943  12.957
71079W        W43427   6.797  19.165   4.676
71080W        W43428  14.666   4.303   2.301
71081W        W43429  27.535  29.534  14.453
71082W        W43430   9.815  13.252   3.765
71083W        W43431  38.006  23.723   4.339
71084W        W43432  28.436   8.755   1.266
71085W        W43433  26.970  26.577  11.375
71086W        W43434   3.416  40.328  12.531
71087W        W43435   4.418  28.998  12.421
71088W        W43436  24.718  18.125   4.769
71089W        W43437  17.673  28.138   4.648
71090W        W43438   8.202  34.586  12.516
71091W        W43439  27.518  39.824   3.192
71092W        W43440  12.318  25.132  11.982
71093W        W43441   2.277  32.442   4.344
71094W        W43442  11.766  36.032  10.991
71095W        W43443  31.073   8.736   3.204
71096W        W43444  41.960  36.400   4.631
71097W        W43445  13.840  14.602  11.128
71098W        W43446  35.901  15.246  12.040
71099W        W43447  25.986  25.027  12.052
71100W        W43448  39.362  11.210  11.446
71101W        W43449  34.465  24.698   3.829
71102W        W43450   0.251  16.251   2.702
71103W        W43451  18.275  34.604  13.391
71104W        W43452  39.900  36.477  14.918
71105W        W43453  41.019  24.164   3.658
71106W        W43454  25.173  43.847  11.376
71107W        W43455  14.285  39.008  14.934
71108W        W43456  37.371  15.658   2.343
71109W        W43457  44.413  25.482  11.913
71110W        W43458   1.344  25.020   1.303
71111W        W43459   7.752  13.257  10.522
71112W        W43460  17.560  44.842   2.389
71113W        W43461  16.130  14.335  14.311
71114W        W43462  25.991  30.518  12.857
71115W        W43463  25.122  40.912  11.899
71116W        W43464  36.066  13.109   4.705
71117W        W43465  19.126  27.542  10.585
71118W        W43466  24.567  40.970  12.511
71119W        W43467  16.314  44.903   1.840
71120W        W43468   9.299   0.805   5.318
71121W        W43469  34.115  40.825  12.520
71122W        W43470  12.152  36.585  14.927
71123W        W43471  18.112  10.162   2.745
71124W        W43472  27.531  23.005   3.720
71125W        W43473  27.578  40.927   3.631
71126W        W43474  13.630   8.861   0.931
71127W        W43475   9.214   4.343   2.226
71128W        W43476  14.124  39.018   0.955
71129W        W43477  17.295  34.994  14.485
71130W        W43478  40.468   1.907  13.530
71131W        W43479  41.949  11.230  14.473
71132W        W43480  34.068  15.589   4.196
71133W        W43481   7.221  17.567   2.403
71134W        W43482  16.185  42.317  11.119
71135W        W43483  12.626  38.900  11.939
71136W        W43484  22.238  24.533   4.637
71137W        W43485  31.958  31.060  12.350
71138W        W43486  13.717  35.392  10.465
71139W        W43487   0.820  41.976  14.990
71140W        W43488  13.662  37.379   1.767
71141W        W43489   4.354  25.551  11.125
71142W        W43490  28.595  41.888   1.220
71143W        W43491  44.840  36.523  10.894
71144W        W43492  15.711  22.563   1.746
71145W        W43493  29.929  25.648  11.864
71146W        W43494  29.969  34.424   4.776
71147W        W43495   3.746  39.487  11.454
71148W        W43496  31.642   9.669   2.757
71149W        W43497  21.063  11.199  12.507
71150W        W43498  38.398  39.960  13.516
71151W        W43499  36.029  42.357  12.062
71152W        W43500  39.033   9.338   1.934
71153W        W43501  36.350   7.232   4.624
71154W        W43502  12.209  36.032  10.624
71155W        W43503  14.778  18.074   1.225
71156W        W43504   1.284   4.801  14.025
71157W        W43505  30.036  29.493   1.778
71158W        W43506  28.040  14.608   0.735
71159W        W43507  31.415  30.566  14.975
71160W        W43508   0.250  13.764   2.903
71161W        W43509  38.843  24.014   1.846
71162W        W43510  21.608  13.832  12.478
71163W        W43511  40.461  38.844  14.898
71164W        W43512   1.343  21.733   2.308
71165W        W43513  11.696  21.179   2.863
71166W        W43514  39.467  32.603  11.110
71167W        W43515  20.671   6.396   1.851
71168W        W43516  12.727   4.250   1.863
71169W        W43517  37.502  30.953  13.850
71170W        W43518  32.032  24.976   4.230
71171W        W43519  21.543  14.337  10.487
71172W        W43520   2.939  17.710  12.436
71173W        W43521  11.271  43.957  11.414
71174W        W43522  10.757  19.664  14.869
71175W        W43523  22.673  35.068   4.604
71176W        W43524  38.409  37.955   3.199
71177W        W43525  17.734  29.614  11.076
71178W        W43526  22.590  34.579  13.008
71179W        W43527  38.533  28.667  11.596
71180W        W43528  41.821  12.770  12.007
71181W        W43529   9.689   4.916   0.785
71182W        W43530  34.452   5.814  14.457
71183W        W43531  28.182  24.093   3.810
71184W        W43532  35.517  23.501  11.070
71185W        W43533  38.530  12.752  13.954
71186W        W43534  29.469  16.229  10.910
71187W        W43535  22.181  22.094  14.328
71188W        W43536  17.555  39.318  13.332
71189W        W43537  35.535  21.657  14.292
71190W        W43538  35.077  27.043   0.339
71191W        W43539  10.142  27.611   0.430
71192W        W43540   2.870  18.575   4.133
71193W        W43541   3.414  44.358   1.709
71194W        W43542  31.502  34.613   1.308
71195W        W43543  20.673   3.722  14.907
71196W        W43544  34.543  35.574  13.998
71197W        W43545  14.672  21.730  14.497
71198W        W43546  15.234  26.652  11.588
71199W        W43547  41.883   5.697  12.411
71200W        W43548  33.092   5.902   4.345
71201W        W43549   7.893  23.729   4.716
71202W        W43550  21.121  12.657   3.162
71203W        W43551  28.167  29.435  14.966
71204W        W43552  35.860  19.100  10.630
71205W        W43553   6.831  42.458  11.101
71206W        W43554  11.840  26.969   0.839
71207W        W43555  20.559  41.508   4.135
71208W        W43556  29.075   2.819  14.786
71209W        W43557  17.189  29.656  14.921
71210W        W43558   3.782  22.194  12.405
71211W        W43559  20.546  13.247   1.365
71212W        W43560  23.003  22.601   1.410
71213W        W43561  44.879   8.311   3.290
71214W        W43562  20.171  43.461   4.184
71215W        W43563   2.803  41.388  10.565
71216W        W43564  30.158  20.526   3.249
71217W        W43565  32.591  38.555   4.192
71218W        W43566  37.935  43.806  14.784
71219W        W43567  20.549  17.612  14.292
71220W        W43568  12.215  19.553   3.238
71221W        W43569  26.052   9.170   3.156
71222W        W43570   3.427   7.822  10.606
71223W        W43571  15.122  19.776   3.662
71224W        W43572  17.629  29.997  12.877
71225W        W43573  30.593  21.512  14.978
71226W        W43574  29.051  31.925   0.965
71227W        W43575  13.734   7.783   0.857
71228W        W43576  22.109  43.889  12.539
71229W        W43577  12.280  18.763   3.739
71230W        W43578  11.151  28.160   4.762
71231W        W43579  35.523  40.348  13.366
71232W        W43580  12.765  11.856   1.367
71233W        W43581  26.167  41.529   0.798
71234W        W43582  40.466  26.701   0.310
71235W        W43583   2.731  24.042  12.471
71236W        W43584  20.670  21.156  10.611
71237W        W43585   1.420  14.206  10.410
71238W        W43586   6.363  15.767  14.818
71239W        W43587   5.198  21.565   4.649
71240W        W43588  11.252  21.740  13.390
71241W        W43589  36.949  10.709   4.248
71242W        W43590  17.096  25.971  10.631
71243W        W43591  37.358   3.935   4.825
71244W        W43592   1.333  12.620  14.792
71245W        W43593  42.467  20.207  12.465
71246W        W43594  16.694  15.580  14.902
71247W        W43595  10.285   0.395   4.806
71248W        W43596   2.748  42.969  14.915
71249W        W43597  30.945  10.827   3.360
71250W        W43598  13.843  27.448  12.021
71251W        W43599   1.378   3.401   1.817
71252W        W43600  36.885  44.423   1.699
71253W        W43601  42.937  41.791  10.438
71254W        W43602  18.553  17.149  10.455
71255W        W43603  20.250  17.659   1.731
71256W        W43604  39.469   4.904  11.909
71257W        W43605   0.477  30.601   0.338
71258W        W43606  23.721  29.435   1.279
71259W        W43607  43.325  21.583  11.860
71260W        W43608  15.627  25.019  14.955
71261W        W43609  31.019  24.036  12.544
71262W        W43610  34.589  22.164   0.837
71263W        W43611  14.292  28.664  13.842
71264W        W43612  36.563   4.944   4.834
71265W        W43613  21.691  17.651   1.279
71266W        W43614   2.273  36.018   2.796
71267W        W43615  16.772   6.882   1.758
71268W        W43616  36.920   1.964   0.816
71269W        W43617   8.365  39.348  13.474
71270W        W43618  44.920  43.011  14.501
71271W        W43619  30.122   6.720  10.507
71272W        W43620  38.053  24.483  11.927
71273W        W43621  30.595  39.517   3.240
71274W        W43622  20.048  16.184   1.773
71275W        W43623   3.795  42.931   1.708
71276W        W43624  14.322  19.732   2.693
71277W        W43625  32.533  24.171  14.885
71278W        W43626  38.483  34.992  12.076
71279W        W43627   0.362   4.252   1.228
71280W        W43628   0.927   6.283  13.948
71281W        W43629  33.889  10.771   2.729
71282W        W43630  14.245  24.008  12.559
71283W        W43631  10.818   4.923  13.051
71284W        W43632  15.169  21.667   3.272
71285W        W43633  37.069  13.145  14.785
71286W        W43634   0.936  20.200  14.978
71287W        W43635  36.074  17.789  14.464
71288W        W43636  40.546  28.133   2.742
71289W        W43637  24.150  10.375  14.990
71290W        W43638  29.606  35.573  11.113
71291W        W43639  14.207   6.253  13.044
71292W        W43640   6.326  28.623   0.446
71293W        W43641  38.994  44.995   2.875
71294W        W43642  21.033   7.897   3.725
71295W        W43643   7.728  21.663   4.732
71296W        W43644   8.899   0.293  12.478
71297W        W43645   5.711  42.472  13.477
71298W        W43646   9.674  11.809   3.844
71299W        W43647  10.816  12.232   4.119
71300W        W43648   8.821  30.460   3.324
71301W        W43649   6.246  36.390   1.424
71302W        W43650  43.808  25.510   3.857
71303W        W43651  34.557  24.572  11.109
71304W        W43652   8.866  37.054   4.759
71305W        W43653  22.191  26.563  10.634
71306W        W43654   2.781  22.103  11.497
71307W        W43655  40.925   2.752  12.997
71308W        W43656  25.500  11.150   3.288
71309W        W43657  33.616  21.588   2.885
71310W        W43658  11.254   2.740  12.382
71311W        W43659  41.880   6.711   2.724
71312W        W43660   3.712   6.375   1.291
71313W        W43661  43.964   2.295  13.528
71314W        W43662  12.219  29.609  11.995
71315W        W43663  33.991  43.804   2.220
71316W        W43664  19.078  39.485   3.196
71317W        W43665  20.028   6.350  10.104
71318W        W43666  43.893  11.257   3.206
71319W        W43667  44.986  42.782  11.110
71320W        W43668  35.418  12.803  11.025
71321W        W43669   8.327  33.874   2.675
71322W        W43670  27.022  16.633  12.409
71323W        W43671   0.350   6.363  14.769
71324W        W43672  36.513   8.660  10.047
71325W        W43673  14.756  17.077  11.941
71326W        W43674  37.002  23.013  12.847
71327W        W43675  22.656  34.864   4.119
71328W        W43676  34.489  15.789   4.714
71329W        W43677  21.061  42.850  10.435
71330W        W43678  30.605  34.055   0.809
71331W        W43679  22.599  20.111   2.900
71332W        W43680   6.410  24.557   4.715
71333W        W43681  32.516  25.547   2.350
71334W        W43682  38.467  25.548  13.332
71335W        W43683  15.695  11.814   3.749
71336W        W43684  34.006  11.200  12.869
71337W        W43685  18.691   7.817  13.992
71338W        W43686  41.020  37.039  11.115
71339W        W43687   3.886  19.572  11.057
71340W        W43688  13.289   5.335   2.780
71341W        W43689   9.341  17.599  14.767
71342W        W43690   4.832  20.268   0.314
71343W        W43691   6.248  19.607   0.949
71344W        W43692  19.731  37.010   1.431
71345W        W43693  39.351   5.811   2.800
71346W        W43694  26.100  27.067  13.480
71347W        W43695   9.287  23.103  10.946
71348W        W43696  11.737  19.086  11.450
71349W        W43697  18.694  22.542   0.326
71350W        W43698  11.329   9.223  12.963
71351W        W43699  18.691  26.674   3.235
71352W        W43700  43.507   3.784  14.345
71353W        W43701   3.238  24.633  12.874
71354W        W43702  33.015  36.066   0.945
71355W        W43703  16.198  36.039  14.309
71356W        W43704   8.752  39.996   3.181
71357W        W43705  43.975  27.081  11.570
71358W        W43706  44.465  18.715   0.936
71359W        W43707  23.172  25.534   1.831
71360W        W43708  35.415  20.084  12.903
71361W        W43709   6.880  35.397  10.439
71362W        W43710   6.708  36.868  14.992
71363W        W43711   8.251  12.124   0.426
71364W        W43712   4.305  15.289  12.935
71365W        W43713  23.124  16.588   1.865
71366W        W43714   0.287  25.546   3.795
71367W        W43715  12.163  35.559  11.539
71368W        W43716   8.342   5.231  14.820
71369W        W43717  33.580  19.077   4.710
71370W        W43718  12.633  19.555   2.199
71371W        W43719  15.733  32.620  11.586
71372W        W43720   8.197  23.224   0.271
71373W        W43721  25.601  19.698  14.769
71374W        W43722  18.190  14.273  12.828
71375W        W43723  42.366  34.379   1.786
71376W        W43724  28.163   8.398   4.344
71377W        W43725  23.196  41.914   4.696
71378W        W43726  13.768   8.245  14.416
71379W        W43727   8.373  41.027  10.887
71380W        W43728  15.689  12.808   3.237
71381W        W43729  33.544  20.530  11.578
71382W        W43730  31.488  44.802  12.460
71383W        W43731   8.884  23.054   5.254
71384W        W43732  36.536   5.741  11.083
71385W        W43733  28.064  15.192  12.421
71386W        W43734  26.080  21.622  12.434
71387W        W43735  37.563  18.641  11.049
71388W        W43736  24.602   9.881  10.487
71389W        W43737  37.450  22.511   2.190
71390W        W43738  23.494   9.357  11.863
71391W        W43739  36.479  29.936   4.230
71392W        W43740  25.133   0.260  11.125
71393W        W43741   7.769   0.924  11.558
71394W        W43742  40.382   4.936   3.377
71395W        W43743  31.912  38.000   0.268
71396W        W43744  26.967  16.629  10.984
71397W        W43745  24.148   8.766  11.058
71398W        W43746  23.663  31.495   4.313
71399W        W43747  29.069  33.519  11.055
71400W        W43748  34.920  33.073   4.759
71401W        W43749  33.512  40.385  12.050
71402W        W43750  35.978   5.338  10.125
71403W        W43751  40.019  30.911   1.284
71404W        W43752   0.817   4.318   0.246
71405W        W43753  26.016   2.417   0.244
71406W        W43754  30.910   8.808   4.172
71407W        W43755  14.246  19.088  14.276
71408W        W43756  11.251  33.079   3.200
71409W        W43757  19.210  36.389  12.464
71410W        W43758   3.278   0.841   0.805
71411W        W43759  22.241  38.568   2.273
71412W        W43760  32.995  36.019  11.484
71413W        W43761  22.562  41.523   5.198
71414W        W43762  34.399  43.491   0.340
71415W        W43763  44.498   7.193  12.402
71416W        W43764   3.813  43.796   2.302
71417W        W43765  12.647  36.016  12.909
71418W        W43766  31.931  36.380  11.400
71419W        W43767  31.123  34.465  13.003
71420W        W43768  27.661  26.480   3.653
71421W        W43769  15.824  38.063  12.350
71422W        W43770  10.350   2.961  14.018
71423W        W43771  37.891  43.888   0.943
71424W        W43772   1.455  25.649   1.762
71425W        W43773  36.091  32.412   1.280
71426W        W43774   1.913  30.908  14.314
71427W        W43775  34.063   5.335   0.824
71428W        W43776  13.339  32.966   0.253
71429W        W43777   0.446  26.143   3.235
71430W        W43778   7.737  23.165  12.347
71431W        W43779  38.057  19.701   2.843
71432W        W43780  38.865  20.723  11.104
71433W        W43781  33.007  12.831   0.785
71434W        W43782  16.158  39.997  11.083
71435W        W43783  42.442   9.650   1.840
71436W        W43784  35.871  30.567  11.521
71437W        W43785  23.112  44.002   1.826
71438W        W43786  35.434  24.620  10.604
71439W        W43787  25.482  25.161  14.880
71440W        W43788  20.595  19.588  10.627
71441W        W43789  14.621   2.375  12.043
71442W        W43790   3.366   6.294   2.750
71443W        W43791  27.485  26.010   2.218
71444W        W43792  15.269  19.702  13.351
71445W        W43793  13.210   4.745  13.839
71446W        W43794  38.467   0.406  11.391
71447W        W43795   2.775  31.025  12.512
71448W        W43796  28.630   6.331   4.184
71449W        W43797  29.614   4.332   4.153
71450W        W43798  12.155  44.830  12.344
71451W        W43799  18.559  27.553  10.913
71452W        W43800  28.475   8.309   2.816
71453W        W43801  24.182  21.597   4.639
71454W        W43802   8.720  31.072   4.679
71455W        W43803  18.682   7.785   3.216
71456W        W43804  26.666  24.654  14.469
71457W        W43805  34.899   6.392  13.923
71458W        W43806  36.862  29.168   1.307
71459W        W43807  41.011  28.929  10.889
71460W        W43808   4.405  23.641   1.325
71461W        W43809   6.334  44.831   1.781
71462W        W43810  26.970   9.653   4.130
71463W        W43811  25.179  39.878   0.469
71464W        W43812  41.019  31.095   0.801
71465W        W43813  26.094   0.253  10.459
71466W        W43814  36.403  23.181   3.787
71467W        W43815   1.407   5.871   4.598
71468W        W43816  15.696  28.482   1.923
71469W        W43817   1.384  14.173   4.809
71470W        W43818  16.741  41.538   2.835
71471W        W43819  34.421  41.977  13.490
71472W        W43820  41.968  13.612   2.734
71473W        W43821  16.101  37.881   0.813
71474W        W43822  23.104  33.077  12.058
71475W        W43823  15.222  42.396  12.845
71476W        W43824  19.674  13.338   2.775
71477W        W43825   6.251  13.140   3.343
71478W        W43826  30.926  40.885  12.944
71479W        W43827  15.152  33.900  13.505
71480W        W43828  12.611  37.427   1.266
71481W        W43829  30.614   5.419  12.941
71482W        W43830  40.431  29.576   2.722
71483W        W43831  20.119  28.000   0.886
71484W        W43832  16.232  32.415   3.748
71485W        W43833  19.219   8.822  14.303
71486W        W43834  43.276  29.983  13.046
71487W        W43835   4.808   7.860   2.878
71488W        W43836   5.308  17.762   3.650
71489W        W43837  19.202  10.633   1.336
71490W        W43838  29.086   3.799   4.817
71491W        W43839  15.623  12.678   4.685
71492W        W43840  38.947  22.207  14.307
71493W        W43841  43.820  29.592   2.236
71494W        W43842  26.693   8.775  10.443
71495W        W43843  28.576   5.837   1.368
71496W        W43844  32.637   3.327  13.011
71497W        W43845   0.955  16.737  14.466
71498W        W43846  11.855  21.656   1.231
71499W        W43847  16.576  17.725  14.311
71500W        W43848  14.639  18.714  13.412
71501W        W43849  41.343  12.838  13.972
71502W        W43850  22.666  33.415  14.300
71503W        W43851  22.061  21.149  14.996
71504W        W43852  11.770  31.924   2.759
71505W        W43853  40.920  10.654  13.385
71506W        W43854  34.610  33.875  14.793
71507W        W43855   8.240   7.806   0.752
71508W        W43856  15.776  17.110  13.513
71509W        W43857  30.499   7.753  11.433
71510W        W43858  33.510   8.838   4.731
71511W        W43859  32.113  30.484  10.493
71512W        W43860  23.070   8.885  13.372
71513W        W43861  22.245  17.099  10.958
71514W        W43862  30.627  44.958   4.797
71515W        W43863  12.817  24.064   3.304
71516W        W43864  43.447  31.982  12.486
71517W        W43865  17.076  25.019  10.630
71518W        W43866  39.446  11.225   2.737
71519W        W43867  30.013   2.310  11.058
71520W        W43868   6.401   4.861  13.980
71521W        W43869   9.318  10.725  12.398
71522W        W43870  40.990  41.872  10.529
71523W        W43871  44.900   0.326   0.746
71524W        W43872  20.668  10.650   2.731
71525W        W43873  28.445  40.926  14.303
71526W        W43874  17.739  33.949  14.505
71527W        W43875   8.665  15.610  10.929
71528W        W43876  37.474   7.875   4.152
71529W        W43877   7.182  16.794  12.975
71530W        W43878  29.924   0.801  10.531
71531W        W43879  21.619   8.188  10.126
71532W        W43880  23.504  11.183   0.883
71533W        W43881  16.664  18.278  12.484
71534W        W43882  29.654  44.368  10.954
71535W        W43883  12.343  39.342  11.612
71536W        W43884   6.206  19.207  14.891
71537W        W43885  44.343   2.866   2.324
71538W        W43886   9.172  17.248   0.828
71539W        W43887   7.186  18.678  13.416
71540W        W43888  41.474  14.763  14.840
71541W        W43889   8.259  13.230   0.766
71542W        W43890  18.706  40.519  13.968
71543W        W43891  19.228  21.749   0.402
71544W        W43892  21.207  27.568   1.766
71545W        W43893   6.709  22.539  14.904
71546W        W43894  31.592  36.537  10.129
71547W        W43895  10.276  13.614  13.824
71548W        W43896  42.032   1.907  14.820
71549W        W43897  21.757  22.167   1.445
71550W        W43898   6.338  20.110  12.045
71551W        W43899   2.332  19.267   0.255
71552W        W43900  15.164  35.004   3.800
71553W        W43901  37.995  34.972  12.399
71554W        W43902  41.839  30.580  10.509
71555W        W43903  15.759  35.358  12.542
71556W        W43904  41.372  43.400  13.053
71557W        W43905  18.573  40.809  10.404
71558W        W43906  41.787  37.531   3.795
71559W        W43907  42.351  10.205   0.407
71560W        W43908   0.280  22.192   2.900
71561W        W43909  26.559   7.706  13.044
71562W        W43910  18.179  43.998   3.789
71563W        W43911   3.270  10.771  14.982
71564W        W43912  18.653  29.084  12.339
71565W        W43913  20.061  18.556  13.323
71566W        W43914  30.025  26.548  11.865
71567W        W43915  34.447   6.795   4.195
71568W        W43916  25.048  37.391  11.399
71569W        W43917   4.926  39.845   0.737
71570W        W43918  14.729   1.453  12.030
71571W        W43919   1.309  16.636   2.844
71572W        W43920  42.994  35.433  11.605
71573W        W43921  35.512  31.083   1.741
71574W        W43922  12.812  32.073  14.966
71575W        W43923   8.343  12.729   0.316
71576W        W43924   6.778  25.616   2.299
71577W        W43925   3.908  28.000  12.564
71578W        W43926   7.773  10.330   1.876
71579W        W43927  41.515  39.927  13.817
71580W        W43928   7.256  21.596  13.870
71581W        W43929   1.298   6.842   0.437
71582W        W43930  42.936  41.994   2.406
71583W        W43931  29.989  38.546  11.123
71584W        W43932  21.144  26.675   0.811
71585W        W43933  24.122  44.997   0.871
71586W        W43934  39.945  15.201  12.569
71587W        W43935   8.828   4.449  11.120
71588W        W43936  15.617  31.951  14.296
71589W        W43937  26.102  42.503  14.807
71590W        W43938   9.259  35.870  11.908
71591W        W43939  32.132  23.721  14.832
71592W        W43940   0.410  24.572   0.405
71593W        W43941  29.560  22.042   0.869
71594W        W43942  43.445  35.941   5.106
71595W        W43943   5.401  16.760   1.916
71596W        W43944  38.445  14.625  11.974
71597W        W43945  10.240  37.422  10.984
71598W        W43946   2.462  34.881  14.498
71599W        W43947  29.456  36.923  12.477
71600W        W43948   9.292   1.814  11.405
71601W        W43949   1.297  28.929  11.376
71602W        W43950  18.546  32.415   3.648
71603W        W43951   4.742  17.791   5.210
71604W        W43952  20.693  14.777   3.752
71605W        W43953  12.264  27.586   2.841
71606W        W43954  12.636  16.717   2.828
71607W        W43955  34.921  29.475   1.714
71608W        W43956   8.877  28.159  12.829
71609W        W43957  43.351   1.886  12.398
71610W        W43958   4.912  23.728   4.267
71611W        W43959  33.982  44.979  12.958
71612W        W43960   7.215   1.482   2.854
71613W        W43961  18.612  24.214   3.704
71614W        W43962   8.301  32.398   5.225
71615W        W43963  10.244   7.844  12.890
71616W        W43964  16.592   6.712   0.435
71617W        W43965  30.473  36.385  12.035
71618W        W43966  25.111   1.850  11.458
71619W        W43967   8.396  27.176  12.024
71620W        W43968   2.380  44.983   2.754
71621W        W43969   0.744  32.118   4.208
71622W        W43970  32.455  29.146   4.652
71623W        W43971  17.798  21.534   1.271
71624W        W43972  32.442   8.783   2.890
71625W        W43973  27.167  43.851  11.965
71626W        W43974  32.139  41.809  11.004
71627W        W43975  19.056   6.344   4.751
71628W        W43976  25.109  22.598   2.766
71629W        W43977   4.279   5.916   2.254
71630W        W43978   7.696  37.930   2.263
71631W        W43979  21.163   6.199  14.460
71632W        W43980   5.420  16.199   2.894
71633W        W43981   4.899   2.451  11.895
71634W        W43982   2.836  36.546  13.337
71635W        W43983  29.929  28.639   0.786
71636W        W43984  29.164  44.911  13.922
71637W        W43985  27.160   8.406   2.818
71638W        W43986  33.417  31.022   1.932
71639W        W43987  16.610   0.876   1.790
71640W        W43988  26.164   7.832  12.872
71641W        W43989  27.074  16.756   0.826
71642W        W43990  27.958   3.322  10.131
71643W        W43991  29.980  37.048  12.382
71644W        W43992  10.818  20.627  10.075
71645W        W43993  14.101   2.790   4.613
71646W        W43994   5.302  18.263  14.419
71647W        W43995  20.735   8.875   1.328
71648W        W43996  29.059  36.414   3.211
71649W        W43997  22.124  41.453  11.555
71650W        W43998  17.075  18.586   0.351
71651W        W43999  44.758  16.654   3.373
71652W        W44000  23.112  27.534   2.770
71653W        W44001  30.445  30.929   2.411
71654W        W44002   0.317   1.424  10.596
71655W        W44003  32.416  14.683  12.351
71656W        W44004  38.393   7.817  11.515
71657W        W44005  20.609  35.455  11.956
71658W        W44006  13.606  41.894   3.746
71659W        W44007   9.801  31.033   5.215
71660W        W44008   4.420  32.433   3.680
71661W        W44009  25.573  18.668   3.762
71662W        W44010  31.434  19.561  14.475
71663W        W44011  16.239  42.810   3.163
71664W        W44012  10.872  29.436   3.774
71665W        W44013  36.072  32.478  11.877
71666W        W44014   2.818  18.560  12.490
71667W        W44015  14.117   7.713  13.791
71668W        W44016   8.335   5.401  11.390
71669W        W44017  23.231  22.185  11.472
71670W        W44018  33.036  18.066   2.267
71671W        W44019  26.643  12.767   1.216
71672W        W44020  13.134  15.648   3.646
71673W        W44021   4.280   0.856   0.263
71674W        W44022  13.736  22.715  12.029
71675W        W44023   4.365   3.282  11.086
71676W        W44024  40.340  20.654   2.278
71677W        W44025  44.988  34.071   4.310
71678W        W44026   7.858  27.120   1.902
71679W        W44027   1.303   5.321   0.801
71680W        W44028  12.296   7.770  12.531
71681W        W44029  25.571  38.512   2.318
71682W        W44030  39.528  12.262  12.512
71683W        W44031  10.182  40.535  12.457
71684W        W44032  38.870  30.419  12.040
71685W        W44033  38.974  35.450  11.472
71686W        W44034  44.956  40.965  10.491
71687W        W44035  43.802  13.690   2.246
71688W        W44036  13.169  16.236  10.529
71689W        W44037  20.133  31.536   2.700
71690W        W44038  42.884  23.679   0.892
71691W        W44039  24.570   3.777   0.782
71692W        W44040  17.209  38.374   1.441
71693W        W44041  24.145  36.452   2.745
71694W        W44042  37.534  37.027   4.631
71695W        W44043   5.270   9.852  12.456
71696W        W44044  40.014   5.323   2.872
71697W        W44045   3.890  19.634  12.482
71698W        W44046  42.933  39.953  13.935
71699W        W44047  42.999  24.641   3.852
71700W        W44048   3.408   4.888  12.881
71701W        W44049   5.847  14.666   0.417
71702W        W44050   3.748   0.752  14.439
71703W        W44051  22.651  41.345  14.771
71704W        W44052  14.107  35.942  12.408
71705W        W44053  44.324  20.674  10.584
71706W        W44054  29.588  42.910  10.037
71707W        W44055  41.373  25.149   3.646
71708W        W44056  34.988  24.979  10.123
71709W        W44057  40.380  39.862   0.732
71710W        W44058   7.219  31.119  11.917
71711W        W44059  36.054  26.667  11.606
71712W        W44060   6.891  44.935   4.712
71713W        W44061  15.306   7.257  12.462
71714W        W44062  44.895  27.077   0.729
71715W        W44063   0.864  25.181   4.175
71716W        W44064  16.092  13.127   3.840
71717W        W44065  25.120   4.216  12.849
71718W        W44066  13.785  15.722  10.410
71719W        W44067  24.072  23.203  11.439
71720W        W44068  24.483  20.639  13.315
71721W        W44069  11.373  42.454   2.409
71722W        W44070  11.195   4.857  14.803
71723W        W44071  17.746  29.024   4.738
71724W        W44072  31.129  20.526  14.988
71725W        W44073   3.924  38.953  12.399
71726W        W44074  42.807  20.112  12.351
71727W        W44075  23.656  17.256  10.948
71728W        W44076  19.611   5.329  14.278
71729W        W44077  28.051  20.034   1.813
71730W        W44078   1.284  33.510   0.283
71731W        W44079  13.313  38.552  14.487
71732W        W44080  16.278  19.110   0.375
71733W        W44081  17.698  31.073  14.846
71734W        W44082  33.539   6.358  11.393
71735W        W44083  35.509   5.877  10.481
71736W        W44084  24.101  42.961  12.864
71737W        W44085  28.129   9.837   2.364
71738W        W44086  29.154  18.654  11.581
71739W        W44087  43.449  23.034   2.741
71740W        W44088  11.739  42.420   3.752
71741W        W44089   2.764  28.968   3.386
71742W        W44090  38.036  28.152  10.621
71743W        W44091  14.824  11.757   2.717
71744W        W44092  25.996  27.486   3.361
71745W        W44093   5.404  36.929   4.818
71746W        W44094  22.629  11.328   0.755
71747W        W44095  27.679  39.443  13.542
71748W        W44096   5.405  37.487  14.924
71749W        W44097  16.183   7.733   3.656
71750W        W44098  28.992  36.518   4.638
71751W        W44099  28.989  31.589   0.312
71752W        W44100  25.632  41.481   3.145
71753W        W44101   7.342  13.605   1.360
71754W        W44102  42.974   6.355   4.297
71755W        W44103  10.296  14.590   0.738
71756W        W44104   6.739  19.043   2.805
71757W        W44105  11.293  12.642  10.644
71758W        W44106  29.044  36.030  13.911
71759W        W44107  15.808  18.719   3.360
71760W        W44108   2.333  33.004  14.455
71761W        W44109  34.369  25.043   3.817
71762W        W44110   0.474  14.591   0.427
71763W        W44111  42.805   3.265  14.000
71764W        W44112  44.415   7.191  10.134
71765W        W44113  29.038  38.033  11.903
71766W        W44114  35.072   8.164   0.316
71767W        W44115  12.155  43.442  10.463
71768W        W44116  19.715   5.923  13.395
71769W        W44117   9.689   5.390   4.763
71770W        W44118  19.621  22.089  13.539
71771W        W44119  18.569  20.128   3.746
71772W        W44120  17.161  37.053  10.409
71773W        W44121  24.579  15.302   1.223
71774W        W44122  29.624  27.523   2.371
71775W        W44123  24.017   7.360  12.911
71776W        W44124  37.923   7.770   4.804
71777W        W44125   1.251   4.822  13.415
71778W        W44126   0.369  42.848   3.163
71779W        W44127  39.526  31.031  13.038
71780W        W44128  33.919  30.066  13.918
71781W        W44129  34.882   7.893   4.273
71782W        W44130  23.514  25.556   1.817
71783W        W44131  17.121  37.573  10.922
71784W        W44132   5.836  31.490  14.918
71785W        W44133  36.383   5.331   1.759
71786W        W44134  43.352  28.125   3.197
71787W        W44135  19.103  34.025   3.761
71788W        W44136  40.396  18.716   1.278
71789W        W44137  17.188  25.139   4.272
71790W        W44138  19.161   2.944  13.429
71791W        W44139  32.123  10.754  13.020
71792W        W44140  15.314  32.034  11.867
71793W        W44141   9.825  17.150  14.321
71794W        W44142  16.284   5.817  14.516
71795W        W44143  42.918  14.324  13.991
71796W        W44144   9.866  23.091  10.136
71797W        W44145  30.616  31.470  14.307
71798W        W44146   7.900   9.875  10.575
71799W        W44147  44.496  32.067  10.027
71800W        W44148  43.476  14.137  11.511
71801W        W44149  22.640  20.531  13.510
71802W        W44150  19.751  38.844   1.432
71803W        W44151  23.036  17.701   3.803
71804W        W44152  39.353  38.937  13.366
71805W        W44153   7.360  13.201  11.590
71806W        W44154  15.149  32.106   3.842
71807W        W44155  12.125  44.270   4.615
71808W        W44156  28.498  38.378  10.625
71809W        W44157   5.302  19.596  10.925
71810W        W44158  11.151  43.428  13.459
71811W        W44159  14.225   6.736   2.901
71812W        W44160  34.963  13.800  12.399
71813W        W44161   9.312  29.972  13.911
71814W        W44162  12.359   1.454   1.848
71815W        W44163  36.458  35.377  14.974
71816W        W44164  21.645  22.006   0.386
71817W        W44165  15.801  10.346   0.885
71818W        W44166  14.819  39.448  10.434
71819W        W44167   5.358  24.688   1.406
71820W        W44168  40.486  25.067  14.316
71821W        W44169   3.872  38.915   0.910
71822W        W44170  39.943  24.041   2.803
71823W        W44171  32.579  21.550   4.829
71824W        W44172   0.322   1.806  12.531
71825W        W44173  30.577  34.903  12.896
71826W        W44174  31.912  23.131   0.938
71827W        W44175   5.223  13.775  12.986
71828W        W44176  17.245  14.835   0.478
71829W        W44177  33.900  39.824   0.454
71830W        W44178   1.783  17.653  13.413
71831W        W44179  23.026  31.060  10.563
71832W        W44180  15.283  36.997  14.820
71833W        W44181  33.597   1.778  14.516
71834W        W44182  14.623  28.494   1.834
71835W        W44183  30.528  34.384   1.357
71836W        W44184  39.481  14.257  13.444
71837W        W44185   4.923  22.603  10.414
71838W        W44186  28.436  24.633   4.146
71839W        W44187  41.531  23.993   1.330
71840W        W44188  20.552   0.411   1.835
71841W        W44189  30.612  38.988   1.319
71842W        W44190  14.137   7.848  11.499
71843W        W44191  38.826  38.515   4.715
71844W        W44192  22.102   0.318  13.454
71845W        W44193  32.550  28.939  11.929
71846W        W44194  34.058   2.360  14.936
71847W        W44195   5.213  16.078  12.063
71848W        W44196   9.888  20.271   3.771
71849W        W44197  11.850  39.066  11.924
71850W        W44198  10.832  36.908   4.244
71851W        W44199  42.022  13.675   4.603
71852W        W44200  39.047  43.967  11.493
71853W        W44201  22.525  44.349   5.138
71854W        W44202  23.157  36.919  12.937
71855W        W44203  28.590   7.311  14.479
71856W        W44204  12.161  21.524  13.360
71857W        W44205  27.031   0.824  12.520
71858W        W44206  14.188  43.449  13.333
71859W        W44207  35.927  43.962  10.623
71860W        W44208  30.150  25.645   4.264
71861W        W44209   1.868  39.374  11.388
71862W        W44210  35.924  32.557   0.458
71863W        W44211  36.371  35.889   3.196
71864W        W44212  44.761  37.979   1.935
71865W        W44213  14.244  39.388  11.901
71866W        W44214  43.826  10.633   0.811
71867W        W44215  17.677  28.142   0.784
71868W        W44216  13.603  22.998   1.884
71869W        W44217  16.724  30.134   0.886
71870W        W44218  37.459  37.385   3.837
71871W        W44219  41.407  22.746  10.448
71872W        W44220  26.196  42.841  12.987
71873W        W44221  33.547  20.641  12.421
71874W        W44222  31.017  39.021  11.109
71875W        W44223  36.055  35.368   2.400
71876W        W44224  36.445   8.233  14.814
71877W        W44225  26.972  42.323  14.962
71878W        W44226  15.782  27.078  11.583
71879W        W44227   2.376  29.478   4.208
71880W        W44228  25.631  43.839  12.938
71881W        W44229  19.196  18.632  11.886
71882W        W44230  39.362  29.550  11.484
71883W        W44231  13.805  43.461   3.217
71884W        W44232  34.602   9.291   3.248
71885W        W44233   6.262  28.135   2.416
71886W        W44234   4.868  33.428   0.429
71887W        W44235  36.511  20.084  13.790
71888W        W44236  14.668  18.653   0.363
71889W        W44237  14.636  11.679  10.531
71890W        W44238  36.552   1.241  11.488
71891W        W44239  40.348  35.553  12.024
71892W        W44240  35.964  33.512   4.156
71893W        W44241  19.281  28.445   0.252
71894W        W44242   3.217  26.604  10.440
71895W        W44243  23.639  43.904   4.141
71896W        W44244  25.687  18.252  14.005
71897W        W44245  34.872  24.102   3.273
71898W        W44246   6.248   6.788   0.258
71899W        W44247  28.985  36.903  13.858
71900W        W44248  32.593  25.989   3.839
71901W        W44249  24.167  11.730  13.944
71902W        W44250  27.642  44.827   3.379
71903W        W44251  32.062   7.763   1.771
71904W        W44252  41.485  10.255   9.951
71905W        W44253  27.036  34.106  10.473
71906W        W44254  16.575   4.247   4.767
71907W        W44255  31.586  39.013   1.432
71908W        W44256   2.400  22.562   3.179
71909W        W44257  22.088   0.250   3.838
71910W        W44258  10.382  41.012  14.948
71911W        W44259   6.777  36.065   3.702
71912W        W44260  32.010  31.095   3.757
71913W        W44261   8.728  24.117  12.416
71914W        W44262  24.006  20.696  10.918
71915W        W44263  26.618  35.451   3.812
71916W        W44264  38.972  33.114  11.390
71917W        W44265  21.168  42.309  12.448
71918W        W44266   3.341  15.236   1.783
71919W        W44267   7.848  22.243  13.518
71920W        W44268  25.986  21.236   0.916
71921W        W44269  16.761  39.539   1.370
71922W        W44270  41.945  21.234  14.451
71923W        W44271  29.545  33.906  12.467
71924W        W44272  13.632   2.738   0.838
71925W        W44273   4.237  30.922  11.907
71926W        W44274  12.740   5.433   5.201
71927W        W44275  19.068  28.169  10.461
71928W        W44276  32.139  29.606  12.982
71929W        W44277  16.252  42.989  13.534
71930W        W44278  41.951  28.449  13.502
71931W        W44279  43.998  31.500   4.258
71932W        W44280  20.694  26.188  13.330
71933W        W44281   8.782  30.154  10.525
71934W        W44282   4.398  11.746  10.932
71935W        W44283  35.594  38.898  13.819
71936W        W44284  35.560  38.527   1.849
71937W        W44285  40.859  23.178   1.748
71938W        W44286   5.265  31.101   0.881
71939W        W44287  43.015  42.372  14.028
71940W        W44288  44.773   3.403  13.859
71941W        W44289  29.643  29.932   2.833
71942W        W44290  31.523   5.687   4.120
71943W        W44291  29.592  27.031   4.164
71944W        W44292  38.480  16.251  13.927
71945W        W44293  33.000   0.487   0.466
71946W        W44294   8.766  10.263   5.233
71947W        W44295   6.774  20.250   3.173
71948W        W44296  12.229  30.553  14.864
71949W        W44297  31.930  23.604  10.091
71950W        W44298  44.009  33.449  14.968
71951W        W44299  17.272  13.840   3.841
71952W        W44300   5.886  23.723  13.819
71953W        W44301   9.798  19.675   9.672
71954W        W44302  38.826  37.512  14.468
71955W        W44303  11.156  41.867   3.326
71956W        W44304  39.861  10.879   0.890
71957W        W44305  40.985  31.101   2.290
71958W        W44306   5.365  39.972  11.070
71959W        W44307  23.593  25.136  14.497
71960W        W44308  39.019  44.913  10.645
71961W        W44309   8.879  29.143   3.379
71962W        W44310  13.348   7.379  11.542
71963W        W44311  31.967  33.614   5.114
71964W        W44312  10.863  22.018   2.261
71965W        W44313  44.469  40.520  10.936
71966W        W44314  12.797  36.586   2.349
71967W        W44315   6.341  23.030  13.350
71968W        W44316  24.122  36.433   1.320
71969W        W44317  38.535   2.723  10.512
71970W        W44318  19.149  42.970   3.159
71971W        W44319  13.236  25.198  13.994
71972W        W44320  34.896  40.845   2.765
71973W        W44321  24.552  32.479   4.717
71974W        W44322   7.389  32.926   1.760
71975W        W44323  12.352   4.381  11.977
71976W        W44324   7.176  18.110  11.937
71977W        W44325  20.613  17.600   2.188
71978W        W44326   2.431   6.867   1.214
71979W        W44327  20.203   4.305   4.202
71980W        W44328   7.766  21.663  13.316
71981W        W44329   2.858  33.063   2.271
71982W        W44330  29.547  44.422   1.360
71983W        W44331   1.369   5.744   0.810
71984W        W44332  16.089   4.373   0.468
71985W        W44333  26.654  20.685  10.918
71986W        W44334  20.658  22.504  13.509
71987W        W44335  10.762  10.220  13.540
71988W        W44336  20.643  21.559  13.390
71989W        W44337   5.883  44.862  13.837
71990W        W44338  36.070  41.932   4.182
71991W        W44339   7.291  21.061  10.545
71992W        W44340  33.576  22.613   4.198
71993W        W44341  36.030  43.387  11.376
71994W        W44342  14.200  41.390   0.953
71995W        W44343  19.688  10.327   2.890
71996W        W44344  32.459  15.605   4.784
71997W        W44345  12.271  10.833  11.609
71998W        W44346  22.224  20.575  10.415
71999W        W44347  26.089  23.080  14.431
72000W        W44348   9.373  22.226  10.617
72001W        W44349  42.339  18.226  13.977
72002W        W44350  11.243  12.613  13.533
72003W        W44351   7.386  17.669   1.722
72004W        W44352  15.637  16.711  13.814
72005W        W44353   2.451  34.071  13.488
72006W        W44354   4.315  39.541   4.229
72007W        W44355  18.285   8.316   0.475
72008W        W44356  25.495   0.330   1.301
72009W        W44357  10.696  31.626   0.864
72010W        W44358  11.792  18.119   3.385
72011W        W44359  12.220  28.042  11.093
72012W        W44360   7.229   7.825   2.689
72013W        W44361  37.519  27.460  14.812
72014W        W44362  26.465   3.795   3.147
72015W        W44363  11.220  22.145  10.617
72016W        W44364   3.360  34.888   0.758
72017W        W44365  10.383  14.659  12.371
72018W        W44366  12.807   7.284  12.920
72019W        W44367  31.412  44.412   0.341
72020W        W44368   4.800  14.238  12.837
72021W        W44369  10.848  18.579  13.319
72022W        W44370   1.399  41.830   4.808
72023W        W44371   3.444  13.772   2.316
72024W        W44372  11.766   6.888   4.685
72025W        W44373  36.017  13.182  14.010
72026W        W44374  13.257  12.768  13.838
72027W        W44375  39.442  11.298  12.461
72028W        W44376   7.743  40.855  14.379
72029W        W44377  34.975  31.090  11.583
72030W        W44378   0.428  39.421  10.573
72031W        W44379  34.612   3.292   0.868
72032W        W44380  42.463   9.224   0.295
72033W        W44381  11.694  42.854   2.790
72034W        W44382  20.554  18.121   1.405
72035W        W44383  37.918  16.101   0.748
72036W        W44384   2.373  28.063  14.016
72037W        W44385   9.674  19.171  10.548
72038W        W44386   1.765  34.583  14.316
72039W        W44387  35.988   2.823  14.771
72040W        W44388  20.624  35.094  13.986
72041W        W44389   0.802   9.191  11.886
72042W        W44390  30.462  10.700  13.356
72043W        W44391  42.852  33.956  12.427
72044W        W44392  31.990  31.509  10.623
72045W        W44393  41.527  18.290   4.143
72046W        W44394   7.377  33.447   2.811
72047W        W44395  43.774  30.650  11.530
72048W        W44396   8.730   9.180   0.904
72049W        W44397  41.790   9.800  14.883
72050W        W44398  38.465  31.582  12.846
72051W        W44399  27.551  30.472   2.772
72052W        W44400   0.895  22.635  11.522
72053W        W44401  25.475  26.540  12.475
72054W        W44402  29.042  13.118  13.807
72055W        W44403  43.853  37.964   3.831
72056W        W44404  42.986  19.269   3.736
72057W        W44405  15.321  40.397  12.524
72058W        W44406  35.991  31.631   4.174
72059W        W44407   9.308  14.163  13.035
72060W        W44408  29.640  26.077  13.851
72061W        W44409  40.366  11.262   9.923
72062W        W44410  21.592  14.751  11.399
72063W        W44411  32.636  11.165   0.310
72064W        W44412  43.850   8.866   4.631
72065W        W44413  31.088  11.698  13.476
72066W        W44414  17.223  12.209   0.943
72067W        W44415  24.506  31.061   4.650
72068W        W44416  13.626  18.763   3.251
72069W        W44417   8.769  21.171  10.623
72070W        W44418  26.506  31.902   3.161
72071W        W44419   4.446  11.367  12.510
72072W        W44420  21.532   3.831  12.841
72073W        W44421   7.897  33.090   4.237
72074W        W44422  17.764  28.044   2.819
72075W        W44423  19.240  23.102   0.311
72076W        W44424   5.859  16.793   0.349
72077W        W44425   2.812  29.042  12.997
72078W        W44426   2.319  15.625   3.691
72079W        W44427  41.878  34.871  12.965
72080W        W44428   7.796  29.624   3.857
72081W        W44429   0.273  18.556   1.413
72082W        W44430  12.228  37.969  11.483
72083W        W44431  27.524  15.113  11.573
72084W        W44432  35.559  24.998   4.701
72085W        W44433   0.781  18.735   4.142
72086W        W44434  19.555   8.178  10.566
72087W        W44435  27.587  18.215  10.919
72088W        W44436   2.412  27.509  12.492
72089W        W44437  20.212   1.811   2.253
72090W        W44438  38.362  25.573   4.297
72091W        W44439  20.107  34.889  13.374
72092W        W44440  12.657  44.299  13.943
72093W        W44441  36.428   0.875  14.386
72094W        W44442  35.950   8.247  13.382
72095W        W44443  10.236   0.463   2.825
72096W        W44444   5.823  25.648   4.638
72097W        W44445  42.961  23.501   1.786
72098W        W44446   8.372  42.460  14.826
72099W        W44447  37.476  21.108   2.763
72100W        W44448  19.540  43.922  11.912
72101W        W44449  32.556  23.602   1.841
72102W        W44450  35.940  22.210   2.324
72103W        W44451  22.680  36.567   2.878
72104W        W44452  24.642  10.210   3.688
72105W        W44453  38.330  28.936  14.960
72106W        W44454   7.400  14.826  11.539
72107W        W44455  24.108  36.954   0.438
72108W        W44456  44.441  43.274   0.952
72109W        W44457   6.813  19.636  14.972
72110W        W44458  12.716   8.346  11.594
72111W        W44459   9.311  36.465  11.996
72112W        W44460  41.487  33.995  12.388
72113W        W44461  24.482  19.214   2.217
72114W        W44462  25.000  22.061   1.429
72115W        W44463  30.560  38.534   1.901
72116W        W44464  11.181   8.873  11.073
72117W        W44465  28.075  29.028  11.112
72118W        W44466  36.469  15.662   3.355
72119W        W44467   6.884  41.992  12.989
72120W        W44468  21.255   6.711  13.796
72121W        W44469  18.222  43.931  13.852
72122W        W44470  12.133  16.168   0.318
72123W        W44471  34.429  43.906  12.998
72124W        W44472   7.813   9.235   4.751
72125W        W44473   5.325   7.233   4.248
72126W        W44474  33.570   0.250   5.286
72127W        W44475  21.222  42.330   1.396
72128W        W44476  13.208  37.477   1.935
72129W        W44477  41.797   7.786   3.711
72130W        W44478   8.171  15.625   0.401
72131W        W44479  14.830  35.584   1.251
72132W        W44480   4.312  24.554  12.981
72133W        W44481  25.621  41.035  12.941
72134W        W44482  40.813  14.826  10.570
72135W        W44483  20.112  33.530   1.406
72136W        W44484  29.994  40.473   4.754
72137W        W44485  34.117  13.158  13.926
72138W        W44486  29.963  15.261   1.831
72139W        W44487  33.926  17.279   1.233
72140W        W44488  35.509   4.805  11.938
72141W        W44489  39.869  35.600  14.384
72142W        W44490   6.184  44.325   5.142
72143W        W44491  28.076  44.903  13.402
72144W        W44492   4.703   5.241   2.788
72145W        W44493  44.416  18.678   3.776
72146W        W44494  24.174   6.424   0.959
72147W        W44495  14.310   0.988  10.632
72148W        W44496  33.555   3.390   5.095
72149W        W44497  37.886  30.919   3.289
72150W        W44498  21.077   3.361  10.490
72151W        W44499  15.153  21.563  12.580
72152W        W44500  12.802  42.372   4.140
72153W        W44501  40.524   6.794  12.421
72154W        W44502   3.951  36.403   4.124
72155W        W44503  41.867   4.727   9.964
72156W        W44504  31.639   3.372  12.547
72157W        W44505  38.488  11.325  12.503
72158W        W44506  12.753  44.831   2.378
72159W        W44507  40.308  19.557   2.290
72160W        W44508  37.403  33.098  11.575
72161W        W44509  41.322  35.979  11.985
72162W        W44510   4.911  11.784   1.381
72163W        W44511  25.015  13.697   1.224
72164W        W44512  10.307  12.229   5.239
72165W        W44513  21.587   3.833  11.599
72166W        W44514  15.098  25.014   2.881
72167W        W44515  34.951  15.630  14.399
72168W        W44516   3.405   2.783   2.825
72169W        W44517   2.330  37.874   0.345
72170W        W44518  31.035   1.326   1.814
72171W        W44519  34.887  33.554  14.880
72172W        W44520  30.952  39.358   4.808
72173W        W44521  22.572   8.873   3.725
72174W        W44522  32.947  39.559  13.485
72175W        W44523  28.503  39.485   3.281
72176W        W44524   5.779  30.615   2.389
72177W        W44525  32.098   9.267   3.793
72178W        W44526  35.040  39.996  10.548
72179W        W44527  17.242  16.690  12.087
72180W        W44528  29.955  29.471  12.086
72181W        W44529  13.299  31.557  13.391
72182W        W44530   6.837   6.250  13.540
72183W        W44531  20.186  21.737  14.773
72184W        W44532  35.359  33.036   4.304
72185W        W44533  24.151  13.238  11.538
72186W        W44534  21.180   2.735  11.127
72187W        W44535   6.201  19.551  10.011
72188W        W44536  43.281  18.244   2.758
72189W        W44537  40.952  17.266  13.906
72190W        W44538  23.565  14.337  12.824
72191W        W44539  16.135   0.850   2.889
72192W        W44540  30.994  44.901   4.822
72193W        W44541   4.713  36.565  14.438
72194W        W44542  14.735  11.712   3.361
72195W        W44543  25.505  17.110   1.250
72196W        W44544   4.327  15.765  13.048
72197W        W44545  21.207  13.601   3.779
72198W        W44546   1.340  20.561  11.881
72199W        W44547  20.120  30.659  13.985
72200W        W44548  20.051  26.676   2.354
72201W        W44549  11.725  41.526  11.013
72202W        W44550   8.406  20.038   4.752
72203W        W44551  30.106  10.287   1.863
72204W        W44552   4.743  18.149   2.896
72205W        W44553  16.676  31.130   1.786
72206W        W44554   4.306  42.404   3.250
72207W        W44555  42.916   8.817  14.910
72208W        W44556  26.140  39.006  12.895
72209W        W44557   5.794  32.536   2.663
72210W        W44558  29.638   4.815   4.617
72211W        W44559   6.194  18.250  10.914
72212W        W44560  22.737  29.562  10.588
72213W        W44561  32.501   5.201  14.453
72214W        W44562   8.881  10.271   3.293
72215W        W44563  26.090   2.903  13.370
72216W        W44564  31.474   7.886  12.580
72217W        W44565  25.135  10.695   2.779
72218W        W44566  14.242   7.846  14.280
72219W        W44567  10.736   3.887  10.915
72220W        W44568  26.024  17.166  12.886
72221W        W44569  33.429  25.170  11.386
72222W        W44570   0.791  14.116   4.298
72223W        W44571  31.632  13.823   1.425
72224W        W44572  33.052  28.525  12.433
72225W        W44573  29.664  14.691  12.863
72226W        W44574   3.840   0.477   0.350
72227W        W44575  42.292  15.223   1.702
72228W        W44576  35.015  24.980   2.183
72229W        W44577  20.141  15.657   0.819
72230W        W44578   5.835   0.306   1.396
72231W        W44579   9.225  39.421  13.859
72232W        W44580   1.831  35.557  10.971
72233W        W44581   5.689  30.441   4.767
72234W        W44582   7.293   7.787   4.688
72235W        W44583  27.105  27.652  14.785
72236W        W44584   7.747  31.485   3.692
72237W        W44585   6.270   0.297   4.623
72238W        W44586  28.059  28.512   3.858
72239W        W44587  20.255  13.683  11.485
72240W        W44588   0.422   3.827   3.161
72241W        W44589  33.477  33.607   3.314
72242W        W44590  13.693  22.596   1.748
72243W        W44591  40.398   3.334   5.089
72244W        W44592  37.005  42.439   0.351
72245W        W44593   6.887   7.763   2.224
72246W        W44594   1.350  13.140   1.337
72247W        W44595  16.115   9.151  10.546
72248W        W44596  38.977  36.355  13.452
72249W        W44597  21.560  23.683   2.664
72250W        W44598  19.119  32.085   2.705
72251W        W44599   9.232  34.073   0.344
72252W        W44600   9.725  16.647  14.363
72253W        W44601   7.411  12.625   0.242
72254W        W44602  16.140  40.480  12.572
72255W        W44603   7.742  19.244   1.897
72256W        W44604  40.496  43.974  14.488
72257W        W44605  38.480  27.661   1.754
72258W        W44606   1.294  17.561   0.790
72259W        W44607   6.343  30.618   5.280
72260W        W44608  39.049   9.390  14.433
72261W        W44609   8.171  39.017   4.646
72262W        W44610   2.385  14.334  13.457
72263W        W44611   7.350  17.669   0.808
72264W        W44612  10.207   3.760  11.116
72265W        W44613   7.725  30.617  12.064
72266W        W44614  33.493  11.798   0.908
72267W        W44615  16.295  34.527   2.352
72268W        W44616  28.490   8.888  13.468
72269W        W44617  32.498   1.251   2.866
72270W        W44618  34.013   8.361   4.619
72271W        W44619  38.373  13.749  11.981
72272W        W44620  30.471  15.747   5.103
72273W        W44621  14.253  30.509  14.909
72274W        W44622  29.520  38.426   4.235
72275W        W44623  22.126  30.056   2.255
72276W        W44624  26.206  20.592   2.901
72277W        W44625  17.187  25.067   9.992
72278W        W44626  24.709   2.379  11.501
72279W        W44627  31.087  37.084   0.465
72280W        W44628  12.145   7.691  13.323
72281W        W44629  34.546  43.927   0.827
72282W        W44630  16.169  40.024   0.325
72283W        W44631  11.792  24.598   3.328
72284W        W44632  41.345  41.502  13.847
72285W        W44633  43.855   7.787   4.195
72286W        W44634   5.295   9.361  14.299
72287W        W44635  27.193  15.786   4.331
72288W        W44636  44.360  40.809   5.263
72289W        W44637  15.132  44.817   4.153
72290W        W44638  42.376   7.728  11.873
72291W        W44639  43.779  12.189  14.443
72292W        W44640  31.959  34.015  12.377
72293W        W44641  27.987   5.721   4.737
72294W        W44642  14.734  27.568   4.624
72295W        W44643  29.587  41.315  14.903
72296W        W44644  27.046  17.248  12.875
72297W        W44645  44.313  12.331  11.573
72298W        W44646  15.659   6.695  12.557
72299W        W44647  18.228  40.971  13.978
72300W        W44648  38.942  14.725  14.406
72301W        W44649  44.338  22.723   1.894
72302W        W44650  38.552  12.214   1.722
72303W        W44651  24.162  32.562   3.693
72304W        W44652   5.363  24.599   3.307
72305W        W44653   1.876  34.950   3.765
72306W        W44654  10.809  25.011   1.777
72307W        W44655  42.813  42.851  13.353
72308W        W44656  32.140  33.541  10.926
72309W        W44657  19.042   5.715   3.757
72310W        W44658  36.535  31.564  10.410
72311W        W44659  36.994  39.943  12.543
72312W        W44660  19.545   0.906   1.311
72313W        W44661  10.729   3.416  14.864
72314W        W44662  23.732   4.283   3.834
72315W        W44663  20.645  24.679  13.438
72316W        W44664   0.805  27.665  12.449
72317W        W44665  38.031  14.167   0.431
72318W        W44666  43.902  13.818  12.955
72319W        W44667  32.929  33.012   1.351
72320W        W44668  37.414  21.544  12.361
72321W        W44669  23.996  32.522   1.353
72322W        W44670   9.391  32.906  14.355
72323W        W44671  29.434   7.819   4.662
72324W        W44672  41.013  32.129   2.880
72325W        W44673  23.126  20.619   3.754
72326W        W44674  12.615  25.126  13.837
72327W        W44675  27.153  23.708  14.773
72328W        W44676  16.288  35.993  13.517
72329W        W44677  11.746  19.094   0.471
72330W        W44678   9.285  38.426  13.543
72331W        W44679   9.247  30.983  12.534
72332W        W44680  30.006  40.455  12.088
72333W        W44681  40.433   1.811  10.590
72334W        W44682   0.428  27.184   0.790
72335W        W44683   4.718  41.511  11.883
72336W        W44684  21.571  37.342  12.532
72337W        W44685  37.510   6.790   1.445
72338W        W44686  21.610   9.205  11.571
72339W        W44687  13.650  40.398   3.772
72340W        W44688  17.235  13.616  12.554
72341W        W44689  41.987  26.547   0.905
72342W        W44690  23.096  11.793   2.827
72343W        W44691  30.496  30.612  12.052
72344W        W44692  43.357  40.862  10.500
72345W        W44693  18.777  18.110   1.918
72346W        W44694  35.944  11.769   4.122
72347W        W44695   7.404  32.446   5.292
72348W        W44696  24.010  42.827   1.309
72349W        W44697  43.321  34.551   4.795
72350W        W44698   5.289  39.054  13.805
72351W        W44699  18.646  21.038   3.307
72352W        W44700  40.887  24.647  10.406
72353W        W44701  15.781  17.292   0.418
72354W        W44702  13.671  25.481   1.393
72355W        W44703  25.712  37.579   3.271
72356W        W44704  29.116  16.689   4.770
72357W        W44705  10.712  42.850   3.790
72358W        W44706   6.367  37.383   0.438
72359W        W44707  12.166   6.237  10.003
72360W        W44708   4.325   6.842   3.726
72361W        W44709  28.174  39.363   3.782
72362W        W44710  13.601  11.813  12.368
72363W        W44711  33.024   9.833   1.855
72364W        W44712  28.081  27.011   3.233
72365W        W44713  26.656  33.560   4.224
72366W        W44714   0.801  21.564  14.414
72367W        W44715  14.774  36.416  10.987
72368W        W44716   3.244  31.564  12.893
72369W        W44717  10.174   4.395   2.672
72370W        W44718  33.008  18.247  12.003
72371W        W44719   8.712  27.554  13.933
72372W        W44720   3.426  38.375  13.378
72373W        W44721  16.250   1.359   0.882
72374W        W44722  44.799  18.591  13.473
72375W        W44723   3.388   9.329   3.328
72376W        W44724  27.966  26.102  11.985
72377W        W44725  18.759   7.672   0.257
72378W        W44726  17.155   9.822  13.332
72379W        W44727   1.343  32.895   1.372
72380W        W44728   9.353  39.522  12.372
72381W        W44729   5.227  28.086   0.946
72382W        W44730  29.487  36.841  11.926
72383W        W44731  41.380  26.966   3.295
72384W        W44732  43.821  21.061   1.335
72385W        W44733  24.011  39.057  14.824
72386W        W44734  18.059  40.305  11.040
72387W        W44735  43.306  26.081   2.897
72388W        W44736  37.050  41.506   4.611
72389W        W44737   8.785  27.505  11.406
72390W        W44738  35.958  10.223   2.808
72391W        W44739  30.629   5.429  13.917
72392W        W44740  39.968  25.485  14.910
72393W        W44741  15.084  28.053  14.496
72394W        W44742  30.025  33.468  13.379
72395W        W44743   7.290   3.953  11.989
72396W        W44744  14.668   6.351  12.942
72397W        W44745   5.246  39.968  11.548
72398W        W44746   1.967  25.570   1.211
72399W        W44747  20.745  36.051   3.235
72400W        W44748   3.734  42.861   4.653
72401W        W44749  27.461  26.581  13.835
72402W        W44750  44.821   5.422   1.824
72403W        W44751  13.111  18.225  11.483
72404W        W44752  15.756  27.603   4.281
72405W        W44753  35.379  27.049  13.857
72406W        W44754  34.968  30.462  14.441
72407W        W44755  34.936  28.601   1.865
72408W        W44756  22.087  27.024  12.981
72409W        W44757   8.281  44.364   3.315
72410W        W44758  42.782  37.386  14.442
72411W        W44759  24.227   4.904  10.948
72412W        W44760  22.141  15.666  11.029
72413W        W44761  13.147   3.237  11.912
72414W        W44762  31.436   6.224  14.950
72415W        W44763  42.821   9.860  13.386
72416W        W44764  35.473  32.968   0.470
72417W        W44765   0.882  38.031  14.345
72418W        W44766  10.157  10.773   2.841
72419W        W44767   8.861   4.405   0.311
72420W        W44768  30.139  42.461  14.008
72421W        W44769  25.678   6.194   1.890
72422W        W44770  32.898  28.445  13.827
72423W        W44771  22.162  28.655   3.380
72424W        W44772   0.361  37.399   3.336
72425W        W44773   6.287  12.324  10.628
72426W        W44774  33.611  10.316  11.884
72427W        W44775  29.170   8.896   0.843
72428W        W44776  19.726   1.950  14.425
72429W        W44777  35.479  30.974  13.918
72430W        W44778  44.262  31.584   0.475
72431W        W44779  15.593   4.317  13.875
72432W        W44780  42.892  33.536   4.309
72433W        W44781  24.693  26.957  13.006
72434W        W44782  39.052   6.222   0.254
72435W        W44783  34.874  30.933  14.400
72436W        W44784   8.793   5.275   3.358
72437W        W44785  17.079   3.855   0.270
72438W        W44786   0.274   9.813  12.859
72439W        W44787  20.754  41.939   3.718
72440W        W44788   9.860  41.415  11.034
72441W        W44789   7.208  12.767   1.731
72442W        W44790   6.841  23.182  12.021
72443W        W44791  29.582  17.259  11.470
72444W        W44792  40.459  18.700  12.991
72445W        W44793  41.297  30.929  13.494
72446W        W44794   8.253  10.806  13.931
72447W        W44795  43.786  12.307   3.725
72448W        W44796  14.243   0.476   1.270
72449W        W44797  17.620   8.342  10.890
72450W        W44798  27.467  44.858   2.383
72451W        W44799  44.956  22.053  14.801
72452W        W44800   8.858  19.039  14.993
72453W        W44801  27.156  18.680  11.501
72454W        W44802  23.215  22.719   2.308
72455W        W44803  15.603   6.319  11.069
72456W        W44804   4.210   5.746  14.768
72457W        W44805  39.499  38.061  11.046
72458W        W44806  33.554  11.692  11.015
72459W        W44807  40.336   4.373  11.564
72460W        W44808   9.670   3.917   2.311
72461W        W44809  39.003  17.607   3.793
72462W        W44810  25.592  35.916  12.066
72463W        W44811  36.905  24.091   0.880
72464W        W44812   1.941  31.106  12.965
72465W        W44813  15.325  18.097  10.541
72466W        W44814  37.050  24.188  12.977
72467W        W44815  11.178  29.166  14.774
72468W        W44816   1.897  31.051  11.536
72469W        W44817  42.026  44.974   4.768
72470W        W44818  44.883   6.792   4.335
72471W        W44819  21.112  19.234  10.961
72472W        W44820   2.884  10.725   2.352
72473W        W44821   8.863  34.598   2.690
72474W        W44822  18.211  32.599  11.863
72475W        W44823  14.700  14.718   1.353
72476W        W44824  39.415   5.438  10.527
72477W        W44825   8.395  13.338   1.933
72478W        W44826  44.858  43.794   2.219
72479W        W44827  20.070  14.148  10.554
72480W        W44828  43.975  21.598   3.780
72481W        W44829  28.552  18.733   4.737
72482W        W44830  37.432  33.441   1.405
72483W        W44831   3.921  19.754  14.015
72484W        W44832  21.230  21.035  11.982
72485W        W44833   0.336   5.220  10.430
72486W        W44834   2.859  24.200  13.374
72487W        W44835  27.122   3.732  14.004
72488W        W44836  14.161  23.561   9.926
72489W        W44837  29.104  42.462  14.921
72490W        W44838  18.176  29.989   1.242
72491W        W44839   3.749   3.397   5.322
72492W        W44840  12.285  17.086   3.197
72493W        W44841  35.438  11.815   1.221
72494W        W44842  36.037  38.981   4.781
72495W        W44843  38.480  20.189   4.682
72496W        W44844  23.168  23.644   2.677
72497W        W44845  41.398  14.171   0.396
72498W        W44846   7.907   4.766  11.530
72499W        W44847  28.072   8.876   3.774
72500W        W44848   3.773  34.406   1.426
72501W        W44849  32.032  29.492   1.746
72502W        W44850  27.071  23.683  13.820
72503W        W44851   5.219  35.523  13.826
72504W        W44852  40.517  15.247   4.729
72505W        W44853  19.565   9.794   1.216
72506W        W44854  44.811  20.566   2.363
72507W        W44855  19.613  35.958  10.511
72508W        W44856  23.691   1.857   0.907
72509W        W44857  44.843   9.298   2.220
72510W        W44858  15.784  25.101   4.619
72511W        W44859  19.184  20.229  13.339
72512W        W44860  43.349  22.698   0.937
72513W        W44861  26.612   7.793   2.801
72514W        W44862  35.486   8.753  10.979
72515W        W44863  20.177  29.586  10.132
72516W        W44864   6.350   1.264  13.382
72517W        W44865  20.073   3.320   2.856
72518W        W44866  20.192   4.833  11.409
72519W        W44867  18.747  24.598   4.801
72520W        W44868  16.711   3.783  14.857
72521W        W44869  27.984  43.809  11.567
72522W        W44870  17.265   7.193   3.211
72523W        W44871   4.813  37.909   2.335
72524W        W44872  26.202  24.984  10.926
72525W        W44873   0.951  42.302  10.529
72526W        W44874   5.320  42.513  13.845
72527W        W44875  24.047  19.597  12.563
72528W        W44876  39.838  25.698   0.301
72529W        W44877  33.017  21.546   1.821
72530W        W44878  42.480   2.321   1.292
72531W        W44879   6.303  12.854  14.017
72532W        W44880  25.711  27.682  11.457
72533W        W44881  39.410  38.535  12.390
72534W        W44882  31.442   0.870  13.318
72535W        W44883  20.610  43.906  11.531
72536W        W44884  31.129  40.492  11.880
72537W        W44885  39.004  42.359   3.318
72538W        W44886  33.035  29.146   2.212
72539W        W44887  23.706   9.854   9.979
72540W        W44888   9.816  28.082  13.009
72541W        W44889  30.068  40.451   0.951
72542W        W44890  32.507  26.087  14.771
72543W        W44891  44.323   5.716   4.800
72544W        W44892  15.784  18.771  13.874
72545W        W44893  25.692   7.266  12.034
72546W        W44894  34.992   3.717   1.830
72547W        W44895  34.003  30.470  13.511
72548W        W44896  24.681  15.758   3.298
72549W        W44897   6.387  33.006  11.535
72550W        W44898   7.356  13.306  14.859
72551W        W44899  36.867  15.305  12.039
72552W        W44900  12.725  42.447  13.817
72553W        W44901  21.235  28.674  10.976
72554W        W44902  10.153  37.071   3.255
72555W        W44903  12.704  14.801  13.357
72556W        W44904  10.290  39.485   3.269
72557W        W44905  43.320  35.364  14.028
72558W        W44906   3.932  41.301  11.478
72559W        W44907  17.121   5.729  10.413
72560W        W44908  36.060  13.773  12.012
72561W        W44909  38.037  19.744  14.413
72562W        W44910  38.947  39.905   3.867
72563W        W44911   0.883  29.513  13.388
72564W        W44912   6.726  33.451  12.565
72565W        W44913  33.387  39.816   4.116
72566W        W44914  40.809  41.330  10.972
72567W        W44915  34.879  41.355   2.704
72568W        W44916  10.795  33.065  10.530
72569W        W44917  38.386  11.262   1.776
72570W        W44918  28.173  34.059  12.409
72571W        W44919  30.520   8.801   2.391
72572W        W44920  10.291  44.935   0.482
72573W        W44921  23.234   9.876  14.379
72574W        W44922  43.346   6.787  11.556
72575W        W44923  30.982  28.083  10.045
72576W        W44924   6.242  38.822  10.560
72577W        W44925   5.757   2.774  11.403
72578W        W44926  42.029  43.859  14.828
72579W        W44927  30.575   9.252   4.173
72580W        W44928  20.579  39.434   0.258
72581W        W44929   8.276  44.322   4.838
72582W        W44930  31.538  18.714  14.956
72583W        W44931  42.961  23.192  11.024
72584W        W44932  44.865  24.137   3.750
72585W        W44933  37.446   9.844  12.000
72586W        W44934   0.403  27.564  14.983
72587W        W44935  43.290  35.063   3.286
72588W        W44936   3.939  24.034   3.773
72589W        W44937  22.544   4.413  11.536
72590W        W44938  23.079  29.922   3.231
72591W        W44939  34.472  26.206   1.881
72592W        W44940  28.645  39.391   2.303
72593W        W44941  25.034  18.777   4.821
72594W        W44942  36.491  13.110  12.952
72595W        W44943  24.223   4.761   1.722
72596W        W44944  39.320   3.829  10.620
72597W        W44945  25.588  39.520  10.468
72598W        W44946  36.012  20.703  14.500
72599W        W44947  20.101  18.652   1.859
72600W        W44948  35.456  40.003   4.694
72601W        W44949  18.287  27.596  11.940
72602W        W44950  31.130  35.886   1.859
72603W        W44951   4.705   7.725  11.091
72604W        W44952  34.912   7.295   1.382
72605W        W44953  26.976   6.280   1.346
72606W        W44954   7.896  20.244   3.299
72607W        W44955   6.233  31.415  13.929
72608W        W44956  27.466  22.238   1.747
72609W        W44957  14.745  19.659   2.390
72610W        W44958  15.222  33.120  14.372
72611W        W44959  20.722  28.102  11.877
72612W        W44960  10.743   7.188  13.831
72613W        W44961   9.742  18.204  13.530
72614W        W44962  16.177  15.809   4.243
72615W        W44963  25.510  30.092  13.342
72616W        W44964  11.144   0.329  11.980
72617W        W44965  38.826  28.490   4.824
72618W        W44966  36.068  16.767  12.489
72619W        W44967  21.057  26.171  14.367
72620W        W44968  18.684  44.458  11.936
72621W        W44969  27.076  13.308   4.320
72622W        W44970  32.088  15.249   3.822
72623W        W44971  40.950  39.808   0.461
72624W        W44972  39.500  23.588  14.861
72625W        W44973   3.777   6.403  11.914
72626W        W44974  41.831  21.112  11.086
72627W        W44975  44.458  30.023   1.847
72628W        W44976  34.076  37.865  11.996
72629W        W44977  27.148  27.193   0.461
72630W        W44978  36.946  33.046  14.019
72631W        W44979  19.189   1.833  13.792
72632W        W44980  11.771  28.604   2.740
72633W        W44981  23.073  25.590  14.342
72634W        W44982   1.264  36.056   1.831
72635W        W44983  20.221  16.080   1.211
72636W        W44984  31.526  35.573   1.318
72637W        W44985  19.600  40.539   0.393
72638W        W44986  28.565  25.519   1.860
72639W        W44987   0.264   7.223   2.738
72640W        W44988  13.344  12.292   2.736
72641W        W44989   1.291  40.915   3.173
72642W        W44990  43.304  29.586   1.750
72643W        W44991  24.044   3.797   2.401
72644W        W44992  29.648   3.436  14.833
72645W        W44993  25.007  11.852   3.330
72646W        W44994  20.049   7.242  14.359
72647W        W44995  33.405   9.234  13.415
72648W        W44996   7.892   4.288  10.453
72649W        W44997  37.989   2.911   1.934
72650W        W44998  24.660   5.297  13.856
72651W        W44999  12.216  28.000   0.853
72652W        W45000   2.447  13.779   0.293
72653W        W45001  15.721  19.119  10.542
72654W        W45002  35.079  44.289  13.919
72655W        W45003  25.684  42.784  11.918
72656W        W45004  34.074  27.077  14.854
72657W        W45005   8.839   7.672  13.473
72658W        W45006  17.685  23.158   4.655
72659W        W45007  22.708   6.815   3.835
72660W        W45008   3.353  39.005   2.212
72661W        W45009  29.565  14.816  11.481
72662W        W45010  22.019   5.689  11.611
72663W        W45011   4.292  13.778   2.839
72664W        W45012  37.852   1.455  11.879
72665W        W45013  15.819  38.866  11.375
72666W        W45014   5.807   9.251  11.006
72667W        W45015  27.590  29.977  14.972
72668W        W45016  33.432  15.092   3.289
72669W        W45017  21.527  34.384  11.509
72670W        W45018  17.181   6.329  11.574
72671W        W45019   8.392  16.222  10.521
72672W        W45020   4.904  37.541   5.165
72673W        W45021  17.215   4.255   0.954
72674W        W45022  27.091  34.117   4.624
72675W        W45023  38.387   7.841   2.274
72676W        W45024  22.112  25.577  10.417
72677W        W45025   0.398  21.549  13.314
72678W        W45026  13.227  16.219   2.248
72679W        W45027   7.822  36.373  13.841
72680W        W45028   4.307  30.015  13.841
72681W        W45029  16.732  30.585   3.750
72682W        W45030   3.412  44.859  13.853
72683W        W45031  28.483  29.612   4.707
72684W        W45032   0.432  23.571   2.306
72685W        W45033  28.008  39.990   2.200
72686W        W45034  19.082  23.527   1.295
72687W        W45035  10.663  22.093   4.121
72688W        W45036  36.347  42.836  11.011
72689W        W45037  28.563  11.727  10.491
72690W        W45038  25.599  24.686  10.602
72691W        W45039  12.267  14.275  12.358
72692W        W45040   6.203  24.989  14.296
72693W        W45041  14.590   8.728  10.514
72694W        W45042  10.153  29.960  10.599
72695W        W45043  42.511  18.697   2.750
72696W        W45044  39.540  41.881   3.716
72697W        W45045   8.685  16.196  11.441
72698W        W45046   8.189  41.041   0.321
72699W        W45047  30.014  37.440  14.004
72700W        W45048   2.900  11.160   3.154
72701W        W45049   1.929   6.890   0.452
72702W        W45050  14.324  32.598  10.931
72703W        W45051  41.340  18.706  10.560
72704W        W45052  40.456   0.779  11.125
72705W        W45053  37.423  20.270   0.868
72706W        W45054  29.038  44.295  12.066
72707W        W45055  17.306  16.800   3.658
72708W        W45056  38.845  20.161  14.801
72709W        W45057  41.825   1.442  10.562
72710W        W45058  12.839  21.724  12.463
72711W        W45059  39.391  20.541   0.481
72712W        W45060  43.968  21.533  14.799
72713W        W45061   0.804   4.837  13.422
72714W        W45062   1.770  10.777   0.480
72715W        W45063  37.567  40.014  12.566
72716W        W45064  25.026  25.983   2.344
72717W        W45065  18.059  31.432  13.532
72718W        W45066  17.605   5.689   4.829
72719W        W45067   9.646  18.184   3.334
72720W        W45068  35.427  22.600  14.367
72721W        W45069  17.686  14.829  10.052
72722W        W45070  37.948   1.748   3.160
72723W        W45071  25.218  20.673  12.400
72724W        W45072  40.976  40.865   0.288
72725W        W45073  29.918  12.632  13.896
72726W        W45074   1.872  18.672  14.906
72727W        W45075   1.846   8.281   1.438
72728W        W45076  21.170  37.884   1.761
72729W        W45077   6.308  42.503  14.005
72730W        W45078  17.213  33.489  11.019
72731W        W45079   6.393  44.326   0.962
72732W        W45080  39.428  12.782   0.820
72733W        W45081  38.489  44.311  14.504
72734W        W45082  26.088   6.734  14.489
72735W        W45083  31.979   1.419  10.611
72736W        W45084  41.996  16.117   0.871
72737W        W45085   2.938   4.723  13.996
72738W        W45086  31.470  21.020  10.434
72739W        W45087   0.926  28.993   0.826
72740W        W45088   7.193  27.985  13.532
72741W        W45089   6.750  27.477   2.748
72742W        W45090   4.772  43.365   0.476
72743W        W45091   7.216   2.334  14.346
72744W        W45092  12.160  23.085  13.902
72745W        W45093  44.916  11.841  10.537
72746W        W45094  11.663  13.803   2.903
72747W        W45095  20.602  31.072  12.937
72748W        W45096  30.136  37.508  11.462
72749W        W45097  33.591  11.260  14.482
72750W        W45098  26.093  13.711   1.443
72751W        W45099  10.759  33.527  12.886
72752W        W45100  24.991  41.388   4.177
72753W        W45101  15.173  43.009   1.358
72754W        W45102  32.113  30.911   4.140
72755W        W45103  32.574  25.158  14.395
72756W        W45104  38.950   6.762   0.468
72757W        W45105  40.342  13.257   4.167
72758W        W45106  22.251  10.374   1.878
72759W        W45107  18.238  41.358  10.413
72760W        W45108  10.653  34.595  13.003
72761W        W45109  20.523  35.487  10.903
72762W        W45110  10.660  30.953   1.247
72763W        W45111   1.287  10.743  10.556
72764W        W45112   4.762  20.636  10.497
72765W        W45113  25.209  10.756  10.976
72766W        W45114  22.015  41.487   1.340
72767W        W45115  23.012   1.392  11.081
72768W        W45116  41.506  34.490  14.968
72769W        W45117   3.270  43.471   2.784
72770W        W45118  18.058  23.182   1.305
72771W        W45119  29.011   7.333   0.881
72772NA+    NA+45120  27.064  34.079  12.869
72773NA+    NA+45121  30.436  35.409   3.353
72774NA+    NA+45122  26.108  27.182  12.873
72775NA+    NA+45123  34.407  14.271   2.703
72776NA+    NA+45124  13.180  30.627  12.354
72777NA+    NA+45125  24.563  31.967   2.315
72778NA+    NA+45126   9.255  23.635   3.339
72779NA+    NA+45127   3.906  35.959  11.436
72780NA+    NA+45128   5.840  10.724   1.765
72781NA+    NA+45129  10.168   5.377  10.643
72782NA+    NA+45130  17.569  37.997  13.950
72783NA+    NA+45131  35.854  15.639   4.721
72784NA+    NA+45132   6.722  10.236   3.150
72785NA+    NA+45133  29.039  39.890  11.537
72786NA+    NA+45134  34.483  11.188  10.991
72787NA+    NA+45135  13.106  29.489  11.939
72788NA+    NA+45136  25.041  37.969   3.706
72789NA+    NA+45137  29.534  23.664   2.313
72790NA+    NA+45138  34.523  20.116   1.435
72791NA+    NA+45139  26.063  19.137   4.324
72792NA+    NA+45140  19.169  20.579   1.282
72793NA+    NA+45141  21.725   8.752   0.279
72794NA+    NA+45142  42.466   9.853  14.287
72795NA+    NA+45143  40.357   8.200   3.335
72796NA+    NA+45144  40.454  35.470   2.672
72797NA+    NA+45145  37.526   4.789  11.472
72798NA+    NA+45146   0.959  26.025   0.900
72799NA+    NA+45147  37.838  29.483  14.961
72800NA+    NA+45148  41.395  36.000  11.562
72801NA+    NA+45149  14.691  41.994  10.565
72802NA+    NA+45150  10.720  32.037  10.573
72803NA+    NA+45151  20.254  34.568  14.007
72804NA+    NA+45152  33.581  28.555  10.485
72805NA+    NA+45153  32.917   6.250  13.949
72806NA+    NA+45154  11.270   2.422   2.727
72807NA+    NA+45155  34.899  36.878   2.413
72808NA+    NA+45156  16.235  16.307  12.084
72809NA+    NA+45157   5.720  15.639   0.757
72810NA+    NA+45158  36.393  44.414   2.762
72811NA+    NA+45159   3.411  43.843   3.825
72812NA+    NA+45160   1.868   8.386  13.494
72813NA+    NA+45161  42.835  38.917   3.146
72814NA+    NA+45162   2.800  23.200  12.434
72815NA+    NA+45163  14.826  31.130   0.766
72816NA+    NA+45164  27.543  21.068  13.874
72817NA+    NA+45165   6.723  36.046   3.304
72818NA+    NA+45166   5.308  12.798  13.015
72819NA+    NA+45167  27.639   2.396  13.874
72820NA+    NA+45168   4.235  35.368   4.253
72821NA+    NA+45169  33.941  42.368  11.039
72822NA+    NA+45170   2.260  15.291  12.910
72823NA+    NA+45171  10.239   7.309  13.960
72824NA+    NA+45172  34.922  22.035  12.381
72825NA+    NA+45173  38.466  28.497   1.791
72826NA+    NA+45174  25.210  31.923   0.416
72827NA+    NA+45175  20.577  30.428   0.731
72828NA+    NA+45176  23.588  32.406  11.980
72829NA+    NA+45177  38.559   7.323   3.784
72830NA+    NA+45178   2.333  16.081   4.631
72831NA+    NA+45179   5.929  38.939  13.448
72832NA+    NA+45180  12.724  27.605   3.683
72833NA+    NA+45181  23.684  36.525  13.429
72834NA+    NA+45182  14.642   5.368   0.453
72835NA+    NA+45183   2.927   0.958  14.758
72836NA+    NA+45184  29.125  38.067   4.673
72837NA+    NA+45185  20.037  24.521  11.939
72838NA+    NA+45186  28.561  42.870  10.535
72839NA+    NA+45187  35.970  11.334  12.017
72840NA+    NA+45188  44.463  26.486  13.974
72841NA+    NA+45189  27.142  34.091   1.410
72842NA+    NA+45190   9.367  27.624  14.416
72843NA+    NA+45191  26.574  23.689  11.453
72844NA+    NA+45192  12.229  23.619   2.396
72845NA+    NA+45193  43.514  23.544   0.877
72846NA+    NA+45194   6.770   6.735  12.388
72847NA+    NA+45195  15.259  28.653   1.356
72848NA+    NA+45196   5.402   1.288  14.300
72849NA+    NA+45197  22.651  38.522   2.246
72850NA+    NA+45198   7.370   5.407  14.850
72851NA+    NA+45199  34.032  41.993   0.801
72852NA+    NA+45200  10.166  20.638   2.402
72853NA+    NA+45201  16.204  11.349   3.327
72854NA+    NA+45202   5.281  40.880   1.807
72855NA+    NA+45203  27.622  21.206   4.697
72856NA+    NA+45204  32.095  43.982   2.827
72857NA+    NA+45205  25.089   9.879  13.831
72858NA+    NA+45206  38.346  44.996   0.385
72859NA+    NA+45207  28.985  41.825   2.338
72860NA+    NA+45208  24.533  29.162   1.889
72861NA+    NA+45209  17.646  15.307   1.248
72862NA+    NA+45210  26.607  12.772  11.387
72863NA+    NA+45211  26.044  19.194   0.395
72864NA+    NA+45212  42.401  24.139  13.489
72865NA+    NA+45213  29.025  39.985  12.567
72866NA+    NA+45214  17.596  36.428  11.030
72867NA+    NA+45215  11.248   2.811   0.866
72868NA+    NA+45216  22.221  13.298  12.474
72869NA+    NA+45217  29.566  10.776   4.765
72870NA+    NA+45218  40.417  29.173   0.414
72871NA+    NA+45219  40.432  11.658  13.440
72872NA+    NA+45220  25.674  15.208  14.374
72873NA+    NA+45221  10.249  29.437   4.722
72874NA+    NA+45222  23.638  27.950  13.410
72875NA+    NA+45223   9.240  10.354  12.865
72876NA+    NA+45224  24.664  22.020  14.500
72877NA+    NA+45225   5.287  32.989   0.952
72878NA+    NA+45226  15.772  29.006   3.848
72879NA+    NA+45227  31.011  44.865  14.959
72880NA+    NA+45228  28.141  17.126   4.674
72881NA+    NA+45229  21.686   7.900   2.379
72882NA+    NA+45230  28.021  29.537  14.304
72883NA+    NA+45231  16.172   7.817  11.379
72884NA+    NA+45232   6.239  27.102  14.812
72885NA+    NA+45233  31.009  33.920   3.663
72886NA+    NA+45234  35.391  35.004  11.885
72887NA+    NA+45235  12.764  26.690   3.706
72888NA+    NA+45236  23.584  18.788   3.633
72889NA+    NA+45237  22.619  13.626   4.653
72890NA+    NA+45238  44.760  25.567   4.322
72891NA+    NA+45239  30.103   0.297   1.818
72892NA+    NA+45240  40.988  22.208   1.790
72893NA+    NA+45241  17.730  32.419  12.841
72894NA+    NA+45242  41.460  35.099  13.800
72895NA+    NA+45243  10.348  14.824   4.646
72896NA+    NA+45244  41.476  17.216   1.922
72897NA+    NA+45245  21.710  33.564   0.895
72898NA+    NA+45246  28.475  18.715  11.981
72899NA+    NA+45247  24.991  28.597   3.756
72900NA+    NA+45248  16.163  31.987  10.077
72901NA+    NA+45249   6.328   0.427  12.874
72902NA+    NA+45250  15.241   8.813   4.765
72903NA+    NA+45251  11.296  40.495  14.384
72904NA+    NA+45252   2.250  19.074  12.014
72905NA+    NA+45253  11.199  15.788   3.165
72906NA+    NA+45254  33.451  14.259   0.313
72907NA+    NA+45255   4.871  28.503   3.302
72908NA+    NA+45256  34.945  30.965  11.949
72909NA+    NA+45257  43.959  14.155  13.314
72910NA+    NA+45258  15.577  30.420  10.595
72911NA+    NA+45259  44.794   0.907   2.696
72912NA+    NA+45260  11.159  28.996  14.472
72913NA+    NA+45261  26.499  42.314   1.368
72914NA+    NA+45262   0.907  29.941  14.433
72915NA+    NA+45263  18.083  20.106  12.942
72916NA+    NA+45264  34.587  32.130   3.153
72917NA+    NA+45265   2.807   6.801  14.418
72918NA+    NA+45266  32.625  44.488  13.817
72919NA+    NA+45267  39.344   5.866  14.895
72920NA+    NA+45268  31.122   0.980  10.894
72921NA+    NA+45269  25.683  34.468  12.990
72922NA+    NA+45270   0.814  32.538  12.945
72923NA+    NA+45271  10.356  12.223  11.383
72924NA+    NA+45272   4.327  29.035  14.387
72925NA+    NA+45273   2.242  23.051  13.910
72926NA+    NA+45274  40.847  23.081   4.150
72927NA+    NA+45275   4.392   6.413   3.765
72928NA+    NA+45276   6.708  39.410  14.982
72929NA+    NA+45277  30.155  44.799  11.456
72930NA+    NA+45278  32.111   0.950  12.500
72931NA+    NA+45279  23.134  30.430  12.378
72932NA+    NA+45280   1.298  43.300   3.653
72933NA+    NA+45281  11.188  14.744   1.699
72934NA+    NA+45282  41.013  10.275   0.277
72935NA+    NA+45283  25.193   5.715  12.919
72936NA+    NA+45284  29.007  24.496  12.079
72937NA+    NA+45285  28.621  28.678   2.756
72938NA+    NA+45286  37.481  41.508   0.377
72939NA+    NA+45287  32.037  19.570   0.342
72940NA+    NA+45288   0.355   3.894  13.543
72941NA+    NA+45289  41.007   9.183  12.472
72942NA+    NA+45290  38.017   7.182  14.394
72943NA+    NA+45291  16.212  36.356  12.995
72944NA+    NA+45292  10.656  35.954  12.467
72945NA+    NA+45293  31.955   1.398  12.046
72946NA+    NA+45294  28.472  28.977   2.249
72947NA+    NA+45295  43.998  34.452   4.603
72948NA+    NA+45296  22.621  29.530   2.844
72949NA+    NA+45297   7.330  13.615  13.449
72950NA+    NA+45298  27.167  20.063  14.818
72951NA+    NA+45299  25.054  26.670   3.213
72952NA+    NA+45300  40.328  11.798  14.349
72953NA+    NA+45301   2.329  22.629  11.442
72954NA+    NA+45302  32.119   0.383  12.474
72955NA+    NA+45303  22.580   4.374   4.257
72956NA+    NA+45304  44.436   1.789   1.410
72957NA+    NA+45305   4.939  28.070  12.008
72958NA+    NA+45306  15.141   5.276   3.839
72959NA+    NA+45307  43.342   9.645   4.777
72960NA+    NA+45308  41.036   5.703  13.348
72961NA+    NA+45309  25.579   3.336   1.308
72962NA+    NA+45310  22.168  37.078   0.454
72963NA+    NA+45311  29.662  19.650  10.596
72964NA+    NA+45312   4.775  39.977   0.371
72965NA+    NA+45313  42.921  12.691   0.431
72966NA+    NA+45314  14.236  30.567   2.774
72967NA+    NA+45315  32.453  34.110  11.453
72968NA+    NA+45316  37.444  36.918  14.372
72969NA+    NA+45317   2.872  11.717  11.445
72970NA+    NA+45318  32.914  12.265  14.315
72971NA+    NA+45319   9.798  42.834   0.837
72972NA+    NA+45320   6.717  30.015  13.880
72973NA+    NA+45321   1.778  18.102  12.879
72974NA+    NA+45322  14.709   4.820   1.883
72975NA+    NA+45323  34.099  10.142  14.402
72976NA+    NA+45324  25.650  28.671  13.487
72977NA+    NA+45325  41.529   5.370  11.030
72978NA+    NA+45326   7.888   3.309   2.281
72979NA+    NA+45327   3.816  30.445   3.802
72980NA+    NA+45328  34.119  20.105  10.573
72981NA+    NA+45329  43.391  33.541  14.511
72982NA+    NA+45330  12.799  31.981   2.419
72983NA+    NA+45331  34.952  11.283  12.870
72984NA+    NA+45332  36.978  35.383   4.318
72985NA+    NA+45333  36.380  37.426  12.476
72986NA+    NA+45334  29.120  44.828  13.323
72987NA+    NA+45335  13.133  26.059  13.525
72988NA+    NA+45336  39.961  29.494   1.343
72989NA+    NA+45337  40.801  37.353  10.046
72990NA+    NA+45338   3.252   0.475  11.101
72991NA+    NA+45339  22.528  28.585   0.258
72992NA+    NA+45340   3.772  23.702  10.543
72993NA+    NA+45341  19.691  34.968  10.576
72994NA+    NA+45342  20.646  31.984  13.001
72995NA+    NA+45343  28.017  34.425   4.817
72996NA+    NA+45344  43.812   3.445  10.934
72997NA+    NA+45345  28.945   8.272   1.309
72998NA+    NA+45346  18.130  37.831   2.726
72999NA+    NA+45347   7.857  38.982   2.383
73000NA+    NA+45348  20.673  31.000  14.376
73001NA+    NA+45349  24.483  22.050  13.376
73002NA+    NA+45350  41.800  17.702  10.475
73003NA+    NA+45351   8.162  27.664  13.868
73004NA+    NA+45352  32.417   1.908  11.499
73005NA+    NA+45353  25.019  11.790  13.025
73006NA+    NA+45354  44.274  10.849  11.566
73007NA+    NA+45355   0.396  27.449   2.182
73008NA+    NA+45356  15.307  20.091   2.253
73009NA+    NA+45357  21.075  23.626  12.088
73010NA+    NA+45358   1.413  16.302   3.222
73011NA+    NA+45359  36.374   9.657  14.301
73012NA+    NA+45360  21.721  38.498   1.725
73013NA+    NA+45361   2.942  16.198  13.413
73014NA+    NA+45362  39.420  42.320  14.007
73015NA+    NA+45363  22.649  42.973  14.378
73016NA+    NA+45364  26.584  36.051   2.683
73017NA+    NA+45365  14.322   0.287   3.218
73018NA+    NA+45366   6.748  27.575   1.431
73019NA+    NA+45367  15.296  29.973  14.887
73020NA+    NA+45368   3.282  41.896  12.505
73021NA+    NA+45369  15.180  12.218  13.347
73022NA+    NA+45370  20.202  34.403   1.235
73023NA+    NA+45371   3.797  27.987   1.930
73024NA+    NA+45372   8.825  25.494   4.650
73025NA+    NA+45373   3.827  30.541  12.343
73026NA+    NA+45374  26.023   5.293  14.790
73027NA+    NA+45375  20.051  23.671  14.830
73028NA+    NA+45376  32.012  36.024   2.742
73029NA+    NA+45377  11.727   5.791  14.417
73030NA+    NA+45378   2.736  38.475  10.910
73031NA+    NA+45379  11.856   3.403  11.415
73032NA+    NA+45380  13.142   8.268  12.087
73033NA+    NA+45381  28.954  43.292  11.546
73034NA+    NA+45382  25.506   4.808   2.714
73035NA+    NA+45383  32.442  39.907   3.653
73036NA+    NA+45384  15.113  27.581  11.049
73037NA+    NA+45385  37.422  22.218   2.224
73038NA+    NA+45386  28.546  17.306  14.870
73039NA+    NA+45387   6.773  15.245   2.247
73040NA+    NA+45388  13.837  42.788   4.670
73041NA+    NA+45389  38.504  34.591   4.782
73042NA+    NA+45390  30.988  43.512  11.099
73043NA+    NA+45391  31.538  25.491   1.873
73044NA+    NA+45392  20.046  31.625   0.811
73045NA+    NA+45393  30.077  13.321   0.283
73046NA+    NA+45394   6.739  38.465  14.026
73047NA+    NA+45395  26.555  38.548   3.743
73048NA+    NA+45396   2.275  43.349   2.221
73049NA+    NA+45397   3.443  23.702  14.383
73050NA+    NA+45398  12.326  33.891  14.015
73051NA+    NA+45399  14.135   7.316  12.563
73052NA+    NA+45400  16.626  31.523   3.331
73053NA+    NA+45401  33.032  41.965  13.478
73054NA+    NA+45402  29.573  18.204  11.935
73055NA+    NA+45403  27.133  38.020   2.749
73056NA+    NA+45404  22.562  19.055   1.403
73057NA+    NA+45405   7.869  13.790   0.868
73058NA+    NA+45406  16.578  18.657   4.682
73059NA+    NA+45407   3.361  13.769   0.841
73060NA+    NA+45408  36.408  25.036  13.817
73061NA+    NA+45409  19.615  27.536   0.444
73062NA+    NA+45410  11.323  35.523   2.845
73063NA+    NA+45411  23.500   4.861  12.384
73064NA+    NA+45412  10.821  12.634  14.001
73065NA+    NA+45413  39.897  16.737  14.873
73066NA+    NA+45414   9.852  32.905  12.823
73067NA+    NA+45415   2.432  12.785  12.413
73068NA+    NA+45416  23.649  41.834   1.742
73069NA+    NA+45417  26.164  33.584   2.332
73070NA+    NA+45418  16.140  36.458   2.791
73071NA+    NA+45419  43.919  44.376  11.011
73072NA+    NA+45420   9.150  43.882  10.949
73073NA+    NA+45421  23.185  35.000   3.317
73074NA+    NA+45422  29.042  14.339  12.466
73075NA+    NA+45423  37.338   8.735  13.894
73076NA+    NA+45424  38.359   4.336  11.040
73077NA+    NA+45425   2.779  21.691  10.609
73078NA+    NA+45426  30.996   2.245  13.426
73079NA+    NA+45427   4.323  18.296   4.685
73080NA+    NA+45428  14.300  29.517   1.762
73081NA+    NA+45429  27.484  38.379   1.770
73082NA+    NA+45430  29.043  10.254  12.895
73083NA+    NA+45431  26.967  34.601  12.528
73084NA+    NA+45432  14.778  20.161  11.067
73085NA+    NA+45433  21.680   1.941  12.434
73086NA+    NA+45434   5.692  19.602  13.953
73087NA+    NA+45435   2.755  37.501   3.636
73088NA+    NA+45436  22.615  18.186  12.543
73089NA+    NA+45437   9.162  38.068  14.444
73090NA+    NA+45438   2.350  14.250  12.533
73091NA+    NA+45439  13.319   3.855  14.381
73092NA+    NA+45440  39.889   3.242   0.750
73093NA+    NA+45441  40.823   9.164   4.712
73094NA+    NA+45442  41.861  17.561   2.858
73095NA+    NA+45443  11.268  26.621  10.577
73096NA+    NA+45444  30.093   1.369  11.069
73097NA+    NA+45445   1.395  11.730  11.865
73098NA+    NA+45446  19.705  26.017   4.683
73099NA+    NA+45447  18.118  38.335  14.828
73100NA+    NA+45448  15.251  26.085   1.825
73101NA+    NA+45449  42.308  12.670   3.699
73102NA+    NA+45450  21.027  29.937  14.956
73103NA+    NA+45451  18.100  40.493  13.498
73104NA+    NA+45452  32.402  34.582   2.688
73105NA+    NA+45453  41.438  20.232  10.494
73106NA+    NA+45454  28.453  36.426   2.849
73107NA+    NA+45455  26.465  39.365   3.799
73108NA+    NA+45456  17.262  12.791  11.515
73109NA+    NA+45457  28.092  22.692   3.783
73110NA+    NA+45458  25.512   6.390   1.222
73111NA+    NA+45459  15.700  24.655   0.896
73112NA+    NA+45460  27.498  41.842  11.525
73113NA+    NA+45461  27.162  12.674   4.134
73114NA+    NA+45462  22.234  33.883  14.769
73115NA+    NA+45463   9.378  26.634   3.710
73116NA+    NA+45464  44.862  33.977  14.799
73117NA+    NA+45465  10.355  10.670   3.810
73118NA+    NA+45466   4.820  42.968   4.605
73119NA+    NA+45467  41.514  39.543  14.846
73120NA+    NA+45468  28.658  31.519   2.292
73121NA+    NA+45469  22.094  10.636  10.517
73122NA+    NA+45470  36.364  18.599  11.384
73123NA+    NA+45471   2.275  40.416   5.083
73124NA+    NA+45472  41.918  37.035  14.924
73125NA+    NA+45473  23.695  24.980   1.237
73126NA+    NA+45474  27.473   0.987  12.492
73127NA+    NA+45475  41.453  38.387   4.616
73128NA+    NA+45476  12.347  20.058  13.965
73129NA+    NA+45477  10.683  29.966   2.730
73130NA+    NA+45478  32.611   1.378  14.780
73131NA+    NA+45479  42.440  16.151  12.874
73132NA+    NA+45480  39.056  20.216   2.337
73133NA+    NA+45481   4.937  13.606   2.293
73134NA+    NA+45482   3.843  21.088   2.271
73135NA+    NA+45483  43.337  27.524   2.391
73136NA+    NA+45484  27.669   3.321  11.984
73137NA+    NA+45485  33.625  36.398   3.729
73138NA+    NA+45486  34.035  42.833   2.872
73139NA+    NA+45487  12.159  39.358   3.822
73140NA+    NA+45488  11.250  16.224   2.720
73141NA+    NA+45489  43.954   5.764  13.528
73142NA+    NA+45490  20.049   5.827  10.633
73143NA+    NA+45491   4.744  37.039   4.621
73144NA+    NA+45492  42.956  40.473   4.696
73145NA+    NA+45493  43.511  17.234   0.851
73146NA+    NA+45494  26.542  42.450   1.829
73147NA+    NA+45495  33.972  29.126   4.808
73148NA+    NA+45496  35.958   8.314   3.633
73149NA+    NA+45497   3.773  13.698  13.874
73150NA+    NA+45498  19.615  24.106   3.817
73151NA+    NA+45499  19.754   8.791   4.599
73152NA+    NA+45500  37.932  11.204   0.315
73153NA+    NA+45501  14.260  24.577   3.785
73154NA+    NA+45502   0.386  15.583   4.118
73155NA+    NA+45503  35.099  21.655   4.295
73156NA+    NA+45504  13.182  18.570  14.769
73157NA+    NA+45505  32.041  33.000  10.506
73158NA+    NA+45506   6.323  36.054  10.626
73159NA+    NA+45507  21.211  29.447   5.094
73160NA+    NA+45508  30.601  21.624   4.825
73161NA+    NA+45509  44.394  33.087   2.247
73162NA+    NA+45510  43.957  38.917  11.045
73163NA+    NA+45511  12.757  23.705   0.802
73164NA+    NA+45512  40.410  25.201  11.508
73165NA+    NA+45513  23.713   8.327  12.899
73166NA+    NA+45514  20.731   2.893   2.315
73167NA+    NA+45515  35.388  12.126   0.904
73168NA+    NA+45516  35.591  35.971  10.546
73169NA+    NA+45517  28.436  37.493  13.915
73170NA+    NA+45518  26.084  14.173   2.771
73171NA+    NA+45519  25.219   2.867   4.780
73172NA+    NA+45520  41.479  32.088  14.296
73173NA+    NA+45521  36.995  11.701  13.851
73174NA+    NA+45522   2.327  39.900   1.444
73175NA+    NA+45523  23.198  36.443   3.260
73176NA+    NA+45524  14.644   8.768  10.940
73177NA+    NA+45525  19.623   9.869  10.563
73178NA+    NA+45526  23.511  34.372  11.859
73179NA+    NA+45527  12.786   1.879  13.535
73180NA+    NA+45528   9.335  12.816   5.197
73181NA+    NA+45529  16.074   6.870   2.785
73182NA+    NA+45530  29.451   8.781  11.540
73183NA+    NA+45531   6.292   8.393   1.392
73184NA+    NA+45532  28.967  35.917   1.916
73185NA+    NA+45533  26.466   7.758   1.315
73186NA+    NA+45534  39.913  14.692   3.281
73187NA+    NA+45535  19.153  10.772  12.908
73188NA+    NA+45536  43.904   0.269  10.907
73189NA+    NA+45537  26.486  43.439  14.298
73190NA+    NA+45538   6.896  12.335  13.537
73191NA+    NA+45539   4.788  18.769   3.739
73192NA+    NA+45540  37.005  30.134  12.568
73193NA+    NA+45541  25.078  29.500  11.465
73194NA+    NA+45542  44.830   2.944  13.813
73195NA+    NA+45543  32.999  16.649  14.964
73196NA+    NA+45544   8.341  20.261   5.319
73197NA+    NA+45545  33.489   0.487   0.873
73198NA+    NA+45546  23.133  18.742  10.485
73199NA+    NA+45547  35.368  11.361   1.889
73200NA+    NA+45548  27.479  14.673   4.206
73201NA+    NA+45549  18.142   3.784  11.411
73202NA+    NA+45550  30.552  18.245   3.146
73203NA+    NA+45551  31.596  10.667  11.865
73204NA+    NA+45552  29.120   9.797   2.384
73205NA+    NA+45553  14.806  32.524  14.495
73206NA+    NA+45554   8.761  29.071   0.800
73207NA+    NA+45555  22.239   0.790   2.309
73208NA+    NA+45556   5.797  35.475   4.693
73209NA+    NA+45557  16.625  31.642  14.450
73210NA+    NA+45558  32.122  24.648   4.182
73211NA+    NA+45559  17.687  35.936   2.317
73212NA+    NA+45560   0.965  29.568  14.378
73213NA+    NA+45561  38.561   6.285  11.110
73214NA+    NA+45562   0.914  36.487  10.981
73215NA+    NA+45563  33.467  21.254   2.368
73216NA+    NA+45564   0.275  43.832  14.456
73217NA+    NA+45565  40.307   8.889  10.953
73218NA+    NA+45566  23.092   5.373  10.467
73219NA+    NA+45567  29.960   2.791  11.875
73220NA+    NA+45568  11.196  44.943   3.340
73221NA+    NA+45569   6.821  36.439  14.320
73222NA+    NA+45570   1.959  37.844  12.877
73223NA+    NA+45571  36.422   6.842   3.283
73224NA+    NA+45572  25.212  29.606   2.306
73225NA+    NA+45573  14.710  12.120  11.535
73226NA+    NA+45574  25.706  15.329   4.679
73227NA+    NA+45575  41.494  22.030  11.527
73228NA+    NA+45576  21.718   9.260  14.957
73229NA+    NA+45577   8.407  17.734  12.091
73230NA+    NA+45578  11.365  43.399  14.769
73231NA+    NA+45579  42.884   4.336  14.401
73232NA+    NA+45580  40.440  36.910  12.965
73233NA+    NA+45581  10.675  18.791  14.900
73234NA+    NA+45582  16.633  37.476  10.939
73235NA+    NA+45583  15.661  24.609   2.228
73236NA+    NA+45584  20.656  44.000   0.387
73237NA+    NA+45585  42.890   3.907   2.326
73238NA+    NA+45586  29.962  38.929  12.028
73239NA+    NA+45587   4.214  14.323   4.294
73240NA+    NA+45588   3.743   0.355   4.308
73241NA+    NA+45589  24.605   8.271   2.897
73242NA+    NA+45590  39.922  19.217  14.274
73243NA+    NA+45591   1.382   0.270  14.912
73244NA+    NA+45592  42.928   0.332  13.824
73245NA+    NA+45593  32.398  30.650   5.085
73246NA+    NA+45594  20.271  20.084  12.008
73247NA+    NA+45595  29.574  36.396   4.762
73248NA+    NA+45596  15.213  36.986  11.003
73249NA+    NA+45597  44.327  30.592   1.421
73250NA+    NA+45598  17.732   9.330   0.934
73251NA+    NA+45599  36.859  22.507  14.930
73252NA+    NA+45600  40.432   9.166   4.637
73253NA+    NA+45601  33.081   4.855  13.921
73254NA+    NA+45602  40.826   9.801  13.995
73255NA+    NA+45603  31.428   1.839   2.902
73256NA+    NA+45604   9.766   4.802  11.008
73257NA+    NA+45605  23.526  15.188   3.248
73258NA+    NA+45606  29.593  33.381   4.330
73259NA+    NA+45607  37.559  28.109   4.226
73260NA+    NA+45608   1.936   9.751  14.513
73261NA+    NA+45609  27.500  32.945  12.974
73262NA+    NA+45610  22.714   9.281   2.891
73263NA+    NA+45611  14.258  17.217  13.430
73264NA+    NA+45612   1.963   9.240   2.363
73265NA+    NA+45613  19.764  17.579  13.333
73266NA+    NA+45614   4.369  10.220   1.214
73267NA+    NA+45615  26.034  36.394  12.445
73268NA+    NA+45616  22.211  12.781  13.322
73269NA+    NA+45617  41.326   1.465  14.469
73270NA+    NA+45618   7.774  29.633   2.745
73271NA+    NA+45619  29.648  40.402   3.639
73272NA+    NA+45620  14.191  37.033  10.976
73273NA+    NA+45621  29.093  18.772  10.519
73274NA+    NA+45622  19.095  17.248  13.043
73275NA+    NA+45623  25.520   7.813  11.412
73276NA+    NA+45624  33.117  37.365   0.458
73277NA+    NA+45625   1.904  23.071  14.868
73278NA+    NA+45626  32.131   2.393   0.772
73279NA+    NA+45627  28.489  34.603  10.532
73280NA+    NA+45628  40.352  27.077   4.602
73281NA+    NA+45629  43.821  20.641  10.492
73282NA+    NA+45630  20.657  43.473   0.878
73283NA+    NA+45631  34.561  16.808   0.479
73284NA+    NA+45632   6.188  24.014   0.917
73285NA+    NA+45633  34.083   2.281   4.730
73286NA+    NA+45634   0.291  31.103   4.782
73287NA+    NA+45635  31.009   0.818  10.450
73288NA+    NA+45636   7.266  19.683  10.555
73289NA+    NA+45637  44.813  15.119   4.231
73290NA+    NA+45638  31.944  29.138   2.867
73291NA+    NA+45639   0.364  16.077  10.552
73292NA+    NA+45640  28.053  23.673   1.935
73293NA+    NA+45641  32.445  31.471   0.353
73294NA+    NA+45642   1.344  25.607   3.253
73295NA+    NA+45643   8.881   9.654  10.607
73296NA+    NA+45644  33.973   7.402   0.735
73297NA+    NA+45645  14.769  33.105  13.440
73298NA+    NA+45646  18.679  28.547  10.988
73299NA+    NA+45647  21.679  41.036   4.302
73300NA+    NA+45648  29.497  41.487  10.903
73301NA+    NA+45649  13.250  26.489   2.827
73302NA+    NA+45650  11.851   1.960  10.983
73303NA+    NA+45651  32.040  23.521   3.312
73304NA+    NA+45652  18.216   0.408  14.353
73305NA+    NA+45653   5.874  38.409  11.014
73306NA+    NA+45654   4.934   6.248  12.970
73307NA+    NA+45655  25.557  10.844   1.819
73308NA+    NA+45656  22.036  38.493   3.369
73309NA+    NA+45657  39.956  30.948   0.478
73310NA+    NA+45658  34.431  44.997  14.944
73311NA+    NA+45659   8.834  37.854  12.008
73312NA+    NA+45660  16.621  21.627   4.342
73313NA+    NA+45661  22.590  25.615  12.966
73314NA+    NA+45662   1.866   7.308  12.949
73315NA+    NA+45663  35.109  19.080  13.382
73316NA+    NA+45664  13.148   2.300   4.116
73317NA+    NA+45665  27.530   8.670  12.352
73318NA+    NA+45666  40.954  12.668  12.843
73319NA+    NA+45667   0.940   9.212   4.708
73320NA+    NA+45668  32.907  33.957  12.056
73321NA+    NA+45669  24.608  25.113   0.401
73322NA+    NA+45670  35.404  42.991   2.279
73323NA+    NA+45671  17.627  18.201   3.677
73324NA+    NA+45672   7.251  11.834   1.348
73325NA+    NA+45673  37.987  28.030   1.711
73326NA+    NA+45674  29.646   8.885  10.512
73327NA+    NA+45675  28.666  23.716   0.295
73328NA+    NA+45676  18.719   9.151  14.879
73329NA+    NA+45677  17.195  19.075  11.397
73330NA+    NA+45678   5.422  27.078   3.818
73331NA+    NA+45679  10.787  13.755   1.865
73332NA+    NA+45680   6.376  14.187  14.293
73333NA+    NA+45681  25.997  33.626   4.646
73334NA+    NA+45682  14.789   5.436  14.895
73335NA+    NA+45683  32.040  39.476   4.343
73336NA+    NA+45684  23.717  31.041   0.944
73337NA+    NA+45685  30.615  24.079   4.679
73338NA+    NA+45686   1.449  22.028  11.382
73339NA+    NA+45687  15.807  44.273   0.270
73340NA+    NA+45688  38.834   1.977  13.334
73341NA+    NA+45689  27.067  44.371   3.162
73342NA+    NA+45690  43.769   0.750   0.263
73343NA+    NA+45691  37.539   8.265   4.832
73344NA+    NA+45692  32.572  11.269  13.983
73345NA+    NA+45693  15.258  35.365   2.771
73346NA+    NA+45694  23.511  28.115   2.352
73347NA+    NA+45695  31.988  11.259  14.389
73348NA+    NA+45696   0.292  24.538   1.422
73349NA+    NA+45697  19.213  29.029   0.243
73350NA+    NA+45698  29.560  38.541  13.988
73351NA+    NA+45699  16.681  29.960   2.330
73352NA+    NA+45700   0.772  38.386  10.991
73353NA+    NA+45701  43.272  20.093  11.011
73354NA+    NA+45702  32.002  13.213   1.926
73355NA+    NA+45703   2.858  30.112   2.846
73356NA+    NA+45704  40.032  20.522   0.930
73357NA+    NA+45705  18.605   4.943   0.901
73358NA+    NA+45706  37.429  38.399  12.477
73359NA+    NA+45707   0.428  22.046  11.531
73360NA+    NA+45708  40.398  23.641  14.918
73361NA+    NA+45709  32.472  41.496  14.864
73362NA+    NA+45710   9.327  23.125  13.367
73363NA+    NA+45711  22.518  12.172  13.919
73364NA+    NA+45712  14.803  13.750   1.787
73365NA+    NA+45713  23.542  18.101   0.754
73366NA+    NA+45714  24.013   3.427  12.499
73367NA+    NA+45715   1.261  24.131   3.373
73368NA+    NA+45716  25.704  11.709  10.094
73369NA+    NA+45717  14.189  35.537  11.041
73370NA+    NA+45718  15.262   0.941   4.796
73371NA+    NA+45719  43.767  11.233   4.188
73372NA+    NA+45720  11.278   1.383   0.782
73373NA+    NA+45721  42.844  26.988   4.666
73374NA+    NA+45722  44.303   7.287   3.147
73375NA+    NA+45723   5.214  26.597  13.351
73376NA+    NA+45724  38.975  32.440  11.093
73377NA+    NA+45725  43.984  36.394   2.767
73378NA+    NA+45726  37.037  33.469   3.771
73379NA+    NA+45727  13.141  24.516   0.360
73380NA+    NA+45728  42.981   5.900  12.478
73381NA+    NA+45729   9.322  24.593  13.898
73382NA+    NA+45730   7.847  17.691   0.377
73383NA+    NA+45731  40.832   2.447  11.405
73384NA+    NA+45732  26.089  19.229   0.767
73385NA+    NA+45733  20.744   3.276  11.550
73386NA+    NA+45734  17.729  43.459  12.872
73387NA+    NA+45735  15.674  25.707  11.985
73388NA+    NA+45736  35.370  33.885  12.852
73389NA+    NA+45737  24.991   6.345  14.876
73390NA+    NA+45738  38.327  10.711  11.027
73391NA+    NA+45739  35.525   3.437   2.701
73392NA+    NA+45740  13.738  30.654  11.029
73393NA+    NA+45741  33.913  12.763   1.836
73394NA+    NA+45742  17.113  24.088   1.442
73395NA+    NA+45743  31.488   2.458   3.778
73396NA+    NA+45744  43.843   6.700  12.522
73397NA+    NA+45745   3.741  23.208  11.470
73398NA+    NA+45746   1.840  40.451  11.602
73399NA+    NA+45747  28.591  27.638   4.342
73400NA+    NA+45748  27.023  34.929   4.786
73401NA+    NA+45749  34.502   4.922  13.347
73402NA+    NA+45750  38.448  23.219   0.455
73403NA+    NA+45751  33.589   1.735  10.417
73404NA+    NA+45752  12.325  23.632   1.788
73405NA+    NA+45753  28.071   5.804   0.892
73406NA+    NA+45754  30.514  20.532   2.226
73407NA+    NA+45755  24.530   6.740   3.272
73408NA+    NA+45756  38.016   4.333   2.182
73409NA+    NA+45757  29.477  38.055  13.443
73410NA+    NA+45758  40.019   3.822  11.479
73411NA+    NA+45759  26.676  28.022  10.891
73412NA+    NA+45760   5.834  41.945   4.675
73413NA+    NA+45761  40.400  39.518   2.372
73414NA+    NA+45762   1.450  37.386   0.923
73415NA+    NA+45763  40.935  34.394   1.309
73416NA+    NA+45764  16.763   7.854  11.383
73417NA+    NA+45765  23.118   5.800  13.938
73418NA+    NA+45766  10.310  28.616   1.900
73419NA+    NA+45767  15.591   5.227  11.860
73420NA+    NA+45768   1.737  20.046   2.681
73421NA+    NA+45769  34.095  32.099   1.324
73422NA+    NA+45770  21.617   2.238   0.729
73423NA+    NA+45771  24.081   8.328   4.197
73424NA+    NA+45772   1.269   5.883   1.365
73425NA+    NA+45773  11.361  12.720  14.965
73426NA+    NA+45774  19.049   3.269  11.112
73427NA+    NA+45775   1.367   5.798  10.589
73428NA+    NA+45776   7.666  17.647   1.900
73429NA+    NA+45777   3.408  29.097   3.159
73430NA+    NA+45778  29.016  34.474  11.437
73431NA+    NA+45779  33.993  32.560   1.413
73432NA+    NA+45780   2.339  33.972   2.323
73433NA+    NA+45781  12.353   5.699  10.146
73434NA+    NA+45782   2.877  10.152  14.769
73435NA+    NA+45783  42.869   3.450   3.190
73436NA+    NA+45784  12.806  43.982  11.978
73437NA+    NA+45785  11.810  27.963  14.838
73438NA+    NA+45786  24.068  17.792   0.874
73439NA+    NA+45787  20.122  22.161   3.304
73440NA+    NA+45788  21.674  39.003  10.141
73441NA+    NA+45789  36.510  11.626  13.915
73442NA+    NA+45790  20.251  26.129  14.285
73443NA+    NA+45791  38.327  26.559  13.351
73444NA+    NA+45792  26.541  29.135  14.362
73445NA+    NA+45793  44.813  31.433   3.645
73446NA+    NA+45794  30.456   7.780   0.337
73447NA+    NA+45795  14.736   8.187   3.835
73448NA+    NA+45796  39.935  36.398  13.857
73449NA+    NA+45797  11.300   0.407  11.423
73450NA+    NA+45798  28.097   3.252   4.340
73451NA+    NA+45799  23.546  19.671   3.745
73452NA+    NA+45800   8.885  31.142   2.309
73453NA+    NA+45801  24.588  24.119  12.558
73454NA+    NA+45802  43.888  41.408  12.946
73455NA+    NA+45803  35.401   5.318   2.218
73456NA+    NA+45804   5.897  32.447   4.740
73457NA+    NA+45805  24.157   5.417   0.268
73458NA+    NA+45806  42.455  29.425  13.522
73459NA+    NA+45807  30.437   9.316  14.477
73460NA+    NA+45808  12.665  29.985  14.782
73461NA+    NA+45809  22.587   9.318   4.823
73462NA+    NA+45810  15.785   2.900  12.458
73463NA+    NA+45811  27.633  18.750   2.826
73464NA+    NA+45812  37.465  16.173   1.777
73465NA+    NA+45813   9.191  39.487  13.356
73466NA+    NA+45814  25.481  44.982   2.220
73467NA+    NA+45815  32.130  13.704   2.385
73468NA+    NA+45816  42.917   5.201   0.458
73469NA+    NA+45817   8.293  36.539  13.022
73470NA+    NA+45818  34.491  34.475   1.892
73471NA+    NA+45819  20.619  21.738  11.095
73472NA+    NA+45820   1.283  28.001   4.814
73473NA+    NA+45821  12.638  26.189   4.285
73474NA+    NA+45822  10.296  23.588  12.520
73475NA+    NA+45823   5.307  33.914  10.565
73476NA+    NA+45824  41.801   9.783  11.960
73477NA+    NA+45825   5.201  36.490   2.238
73478NA+    NA+45826  23.036  12.240   4.127
73479NA+    NA+45827   4.266  17.102   0.869
73480NA+    NA+45828  13.118  43.299   0.754
73481NA+    NA+45829  34.883  14.831  12.041
73482NA+    NA+45830  19.534   6.826  11.427
73483NA+    NA+45831  29.601  26.982   2.787
73484NA+    NA+45832  44.847  43.357   3.850
73485NA+    NA+45833  37.435   4.886  10.627
73486NA+    NA+45834  33.414  37.557  10.446
73487NA+    NA+45835   1.799   7.310  13.949
73488NA+    NA+45836  28.680   7.807  14.867
73489NA+    NA+45837  15.788  35.020   0.741
73490NA+    NA+45838   3.397  29.497   1.441
73491NA+    NA+45839  20.101  29.099   0.401
73492NA+    NA+45840  15.173  22.044   0.882
73493NA+    NA+45841  35.940   9.857   4.804
73494NA+    NA+45842   8.765  33.923  13.872
73495NA+    NA+45843  34.991  25.152  12.084
73496NA+    NA+45844  20.071  29.510   3.235
73497NA+    NA+45845  40.454  44.003   3.821
73498NA+    NA+45846   3.246  37.453  12.962
73499NA+    NA+45847   8.797   8.762  14.472
73500NA+    NA+45848  30.419  37.466   4.686
73501NA+    NA+45849  11.676   9.842  11.581
73502NA+    NA+45850  12.211   7.722   3.316
73503NA+    NA+45851  17.616   3.894   4.710
73504NA+    NA+45852  14.799  21.525   4.703
73505NA+    NA+45853  34.574  11.719   2.327
73506NA+    NA+45854  18.208  38.483  14.280
73507NA+    NA+45855   0.414  41.500   2.681
73508NA+    NA+45856  28.594  33.423   0.928
73509NA+    NA+45857  32.027  43.976   1.816
73510NA+    NA+45858  26.471  35.044  13.920
73511NA+    NA+45859   1.779  39.441   2.264
73512NA+    NA+45860  44.261  24.107   3.216
73513NA+    NA+45861  34.453  23.111   4.665
73514NA+    NA+45862  42.428  36.999  13.824
73515NA+    NA+45863  25.594  39.834   1.390
73516NA+    NA+45864  39.824  18.069  12.364
73517NA+    NA+45865  13.807  20.083  14.805
73518NA+    NA+45866  35.976  31.538   2.751
73519NA+    NA+45867  33.889  41.468  13.919
73520NA+    NA+45868  34.890  20.066   1.916
73521NA+    NA+45869  21.674   9.654   2.194
73522NA+    NA+45870  23.727  18.740   1.358
73523NA+    NA+45871  23.076  11.141   4.114
73524NA+    NA+45872  26.552  20.089   4.186
73525NA+    NA+45873  37.851  36.964  11.412
73526NA+    NA+45874  44.878   9.681   2.298
73527NA+    NA+45875  24.713   0.881  11.958
73528NA+    NA+45876  33.945  40.497   1.917
73529NA+    NA+45877  13.744  10.795   2.202
73530NA+    NA+45878   6.224   2.259   2.812
73531NA+    NA+45879  36.444  26.459  10.928
73532NA+    NA+45880   8.744   7.674  14.785
73533NA+    NA+45881  23.695   9.761   9.533
73534NA+    NA+45882  32.995   2.411   4.213
73535NA+    NA+45883  13.227  25.210   0.340
73536NA+    NA+45884  38.953  34.375  13.508
73537NA+    NA+45885   8.733  38.970   4.274
73538NA+    NA+45886   7.232  21.199  13.884
73539NA+    NA+45887  28.645  20.062  13.015
73540NA+    NA+45888  19.227  42.820  11.568
73541NA+    NA+45889  26.051  42.878   4.306
73542NA+    NA+45890  38.524   1.963  14.920
73543NA+    NA+45891  22.525  38.363   0.419
73544NA+    NA+45892  27.053  28.061   0.304
73545NA+    NA+45893  41.864  33.903  12.087
73546NA+    NA+45894  34.876  36.465   0.386
73547NA+    NA+45895  44.808  34.378   4.785
73548NA+    NA+45896  22.513  29.124   4.839
73549NA+    NA+45897  39.447   0.393  14.312
73550NA+    NA+45898  29.035   2.779   3.731
73551NA+    NA+45899  41.882   8.686   1.379
73552NA+    NA+45900   8.377  31.535  14.900
73553NA+    NA+45901  31.072  13.143   1.420
73554NA+    NA+45902  34.033  19.646  11.448
73555NA+    NA+45903  26.601   9.709   0.283
73556NA+    NA+45904   1.862  19.133  10.486
73557NA+    NA+45905  35.516  42.441   4.784
73558NA+    NA+45906  37.467  42.895   2.809
73559NA+    NA+45907  20.259   4.277  11.026
73560NA+    NA+45908  37.088  41.330   3.699
73561NA+    NA+45909  26.652  18.212  10.034
73562NA+    NA+45910  39.933  31.062  10.956
73563NA+    NA+45911  17.200  40.012  12.574
73564NA+    NA+45912  43.482  39.007  14.913
73565NA+    NA+45913  38.436  42.869  14.021
73566NA+    NA+45914   6.742  43.419   2.413
73567NA+    NA+45915  39.402  31.107   1.450
73568NA+    NA+45916   6.314   9.720  13.317
73569NA+    NA+45917   0.824  25.517  13.388
73570NA+    NA+45918  42.008  15.259   0.388
73571NA+    NA+45919   8.734  22.562   2.877
73572NA+    NA+45920  24.138   5.778   3.752
73573NA+    NA+45921  12.669  26.558  10.955
73574NA+    NA+45922  42.302  38.478   3.219
73575NA+    NA+45923  21.031  37.034   1.712
73576NA+    NA+45924  32.417  34.899   2.891
73577NA+    NA+45925  37.913  43.466  14.395
73578NA+    NA+45926   3.837   4.401   0.476
73579NA+    NA+45927  43.322  34.996  10.559
73580NA+    NA+45928   8.305  43.281  11.523
73581NA+    NA+45929  13.745  14.260   4.124
73582NA+    NA+45930  31.085   9.203  12.522
73583NA+    NA+45931  21.225  18.076   9.998
73584NA+    NA+45932  26.106  25.519  11.106
73585NA+    NA+45933   9.288  38.547  12.511
73586NA+    NA+45934  28.486  13.783   2.789
73587NA+    NA+45935  16.225  43.456   2.826
73588NA+    NA+45936  21.128  17.062   5.144
73589NA+    NA+45937  34.997  14.651   3.302
73590NA+    NA+45938  33.007   4.863   4.626
73591NA+    NA+45939  19.564   1.972   4.283
73592NA+    NA+45940  37.340  17.602  12.899
73593NA+    NA+45941   3.731  24.620  12.831
73594NA+    NA+45942  28.504   6.843   3.340
73595NA+    NA+45943  16.778   1.904  11.565
73596NA+    NA+45944   2.449  37.852   4.210
73597NA+    NA+45945  40.360   6.351   0.250
73598NA+    NA+45946  27.617  31.563  10.599
73599NA+    NA+45947   1.899  41.422   1.719
73600NA+    NA+45948  18.618  11.734  14.021
73601NA+    NA+45949  17.630   3.390  11.512
73602NA+    NA+45950  27.047  30.925   4.209
73603NA+    NA+45951  26.966   4.366  11.001
73604NA+    NA+45952  16.771  25.194   2.785
73605NA+    NA+45953  11.202  38.821   3.734
73606NA+    NA+45954   8.333  36.518  11.587
73607NA+    NA+45955   0.927  21.156  11.077
73608NA+    NA+45956  38.377  26.525  13.062
73609NA+    NA+45957  17.624  16.151   1.295
73610NA+    NA+45958  34.050  16.676  11.042
73611NA+    NA+45959  23.671   8.300  14.932
73612NA+    NA+45960  36.392  13.645   1.891
73613NA+    NA+45961   1.480   2.391  12.039
73614NA+    NA+45962   3.803  27.083   2.674
73615NA+    NA+45963  38.844  28.601  11.079
73616NA+    NA+45964  30.416  22.128  14.784
73617NA+    NA+45965  43.937  27.037   2.737
73618NA+    NA+45966  22.068  37.023   2.253
73619NA+    NA+45967  23.133  11.137   0.389
73620NA+    NA+45968   2.789  32.626  12.354
73621NA+    NA+45969  26.558  35.052   4.619
73622NA+    NA+45970   7.320  16.688  14.979
73623NA+    NA+45971  22.698  37.830   3.751
73624NA+    NA+45972  33.515  20.638   4.640
73625NA+    NA+45973  38.898  38.026   0.813
73626NA+    NA+45974  18.177  19.600   0.396
73627NA+    NA+45975  19.128  10.220   0.734
73628NA+    NA+45976  38.540  39.543  11.576
73629NA+    NA+45977   2.740  25.109  14.337
73630NA+    NA+45978  31.603  33.116  10.417
73631NA+    NA+45979  20.704  36.490   0.832
73632NA+    NA+45980  41.864  16.575   3.235
73633NA+    NA+45981  24.216   6.209   3.197
73634NA+    NA+45982  15.246  19.246  11.896
73635NA+    NA+45983   8.312  34.563  12.052
73636NA+    NA+45984   9.887  13.163  14.311
73637NA+    NA+45985  11.643  13.313  14.932
73638NA+    NA+45986  22.171  27.609  13.386
73639NA+    NA+45987  43.855  40.946   4.168
73640NA+    NA+45988   2.394  24.006  12.987
73641NA+    NA+45989  32.590  25.175  11.080
73642NA+    NA+45990  34.421  23.208   1.245
73643NA+    NA+45991   1.870  39.404   4.293
73644NA+    NA+45992  14.697  20.702   1.931
73645NA+    NA+45993  28.935  33.591  10.466
73646NA+    NA+45994  41.897  32.481   2.225
73647NA+    NA+45995   9.679   3.872   0.301
73648NA+    NA+45996  44.755  16.221   4.743
73649NA+    NA+45997  22.112  13.658  12.030
73650NA+    NA+45998  25.023  43.775   4.724
73651NA+    NA+45999   9.152   1.801   3.680
73652NA+    NA+46000   9.389  41.808  11.507
73653NA+    NA+46001  32.433  23.001   4.291
73654NA+    NA+46002  33.918  41.852   0.344
73655NA+    NA+46003  16.632   5.257   4.825
73656NA+    NA+46004  44.771  36.529  12.429
73657NA+    NA+46005   3.332  32.584  11.942
73658NA+    NA+46006  37.988  29.519   2.242
73659NA+    NA+46007  13.301  39.827   4.163
73660NA+    NA+46008   3.360   0.814   3.773
73661NA+    NA+46009   0.319  40.342   4.642
73662NA+    NA+46010  24.144  24.688   3.762
73663NA+    NA+46011   0.787  11.127  13.001
73664NA+    NA+46012  21.124  35.913   0.768
73665NA+    NA+46013  16.184  33.017  11.957
73666NA+    NA+46014  42.300  13.110  14.960
73667NA+    NA+46015  33.489   8.701   0.378
73668NA+    NA+46016  27.191  29.097  10.642
73669NA+    NA+46017  27.999  18.620   2.662
73670NA+    NA+46018  38.063  26.544  13.049
73671NA+    NA+46019   1.835   3.430   3.810
73672NA+    NA+46020  33.114  39.912   4.344
73673NA+    NA+46021   9.360  41.989  12.960
73674NA+    NA+46022  13.172  33.408  10.607
73675NA+    NA+46023  17.753  15.267  12.017
73676NA+    NA+46024   6.726  20.124  14.298
73677NA+    NA+46025   3.886  27.681  12.351
73678NA+    NA+46026  15.752  31.100  10.453
73679NA+    NA+46027  38.399  20.051   1.915
73680NA+    NA+46028  23.580   5.208  14.976
73681NA+    NA+46029  25.502  16.807  10.907
73682NA+    NA+46030  27.549  20.197   0.791
73683NA+    NA+46031  29.998  18.165  11.038
73684NA+    NA+46032  22.631   6.262  14.456
73685NA+    NA+46033  20.562  44.935  14.846
73686NA+    NA+46034  42.837  24.582  12.084
73687NA+    NA+46035  10.297  33.483   4.347
73688NA+    NA+46036   7.366  28.458   4.331
73689NA+    NA+46037   3.723  35.415   1.887
73690NA+    NA+46038  10.258  30.637  13.404
73691NA+    NA+46039  22.238  17.585  13.852
73692NA+    NA+46040  43.329  28.541   0.379
73693NA+    NA+46041  29.547  44.888   2.241
73694NA+    NA+46042  29.448  20.175  12.858
73695NA+    NA+46043  20.629  10.184   4.328
73696NA+    NA+46044  34.381  16.290  12.423
73697NA+    NA+46045  26.457  38.546   3.285
73698NA+    NA+46046  25.538  31.464  13.344
73699NA+    NA+46047  32.549   5.760   2.782
73700NA+    NA+46048  29.116  30.015   4.783
73701NA+    NA+46049  33.594  31.620   4.705
73702NA+    NA+46050  27.692  11.148   0.351
73703NA+    NA+46051  30.656  39.012   3.826
73704NA+    NA+46052  21.199  17.097  10.626
73705NA+    NA+46053  42.469  30.634  13.028
73706NA+    NA+46054  33.450  43.996   3.673
73707NA+    NA+46055  39.926   8.169  14.402
73708NA+    NA+46056  17.163  14.777  13.823
73709NA+    NA+46057  28.476  38.476   0.900
73710NA+    NA+46058  28.013   6.688  14.325
73711NA+    NA+46059  24.504  36.053   0.741
73712NA+    NA+46060   1.890  41.921  10.407
73713NA+    NA+46061  32.427  40.042   4.817
73714NA+    NA+46062  16.677  35.544  12.490
73715NA+    NA+46063  40.445  26.976  12.857
73716NA+    NA+46064  11.341  31.085  12.378
73717NA+    NA+46065  17.119  44.773   4.221
73718NA+    NA+46066  21.540  20.117   2.285
73719NA+    NA+46067   4.813  24.046   1.301
73720NA+    NA+46068  17.753  23.097   4.226
73721NA+    NA+46069   8.233  33.422  14.342
73722NA+    NA+46070  15.630  26.462   2.200
73723NA+    NA+46071   9.731  11.262  12.985
73724NA+    NA+46072  23.693  12.805   4.119
73725NA+    NA+46073  13.742  12.170  11.121
73726NA+    NA+46074  13.111  10.652   0.794
73727NA+    NA+46075  17.773  14.189  11.907
73728NA+    NA+46076  37.346  19.583   0.887
73729NA+    NA+46077  12.800  16.748   2.220
73730NA+    NA+46078  14.630  33.416  14.925
73731NA+    NA+46079   1.861  10.702  14.404
73732NA+    NA+46080   4.937  28.070   2.301
73733NA+    NA+46081  33.062  25.471  14.404
73734NA+    NA+46082  28.125  38.326   2.416
73735NA+    NA+46083  44.981  24.509  10.543
73736NA+    NA+46084  42.967  37.862   5.194
73737NA+    NA+46085   0.765  32.530   4.206
73738NA+    NA+46086  28.104   9.832   1.869
73739NA+    NA+46087   6.851  40.314  14.318
73740NA+    NA+46088   3.423   3.888   4.122
73741NA+    NA+46089  10.821  22.154   0.384
73742NA+    NA+46090  39.059  33.927  10.617
73743NA+    NA+46091  21.087  30.967  11.569
73744NA+    NA+46092  33.095  38.015   4.143
73745NA+    NA+46093  13.678  41.909   4.799
73746NA+    NA+46094  29.131  18.267  14.914
73747NA+    NA+46095  14.325   7.737  14.881
73748NA+    NA+46096  35.438  19.272  14.323
73749NA+    NA+46097  44.332  29.454   1.390
73750NA+    NA+46098  14.301  33.131  11.541
73751NA+    NA+46099  32.560  26.033   1.846
73752NA+    NA+46100  14.101  30.966   4.714
73753NA+    NA+46101   1.740  34.061   4.676
73754NA+    NA+46102  19.161  13.839  12.429
73755NA+    NA+46103  26.999   1.910   5.288
73756NA+    NA+46104  13.617  19.549  13.901
73757NA+    NA+46105   1.927  25.587  11.097
73758NA+    NA+46106  33.894  15.619  14.020
73759NA+    NA+46107   0.841  24.127  14.890
73760NA+    NA+46108  26.626  14.127   3.826
73761NA+    NA+46109  36.570  12.122   1.294
73762NA+    NA+46110  10.265  34.036   3.656
73763NA+    NA+46111  10.805  18.567  12.966
73764NA+    NA+46112  12.289  19.623  10.929
73765NA+    NA+46113   9.280  10.291   1.861
73766NA+    NA+46114  41.027  19.740   4.707
73767NA+    NA+46115   7.330  33.470  10.561
73768NA+    NA+46116  11.855  11.844   2.685
73769NA+    NA+46117  14.674  25.005  10.120
73770NA+    NA+46118  30.629   9.379  10.935
73771NA+    NA+46119  37.050  21.714  12.499
73772NA+    NA+46120  27.664  16.619   0.272
73773NA+    NA+46121   1.431  23.043  10.602
73774NA+    NA+46122   4.832  32.599   1.922
73775NA+    NA+46123  43.865  23.068  11.534
73776NA+    NA+46124  40.054  37.042   0.363
73777NA+    NA+46125  28.511  16.095   3.818
73778NA+    NA+46126  37.962  12.795   2.232
73779NA+    NA+46127  27.455  17.248   4.761
73780NA+    NA+46128  39.418  10.792  13.353
73781NA+    NA+46129  36.988  17.785   0.349
73782NA+    NA+46130  13.829  34.453   1.383
73783NA+    NA+46131  33.042  25.475   2.355
73784NA+    NA+46132  25.567   2.327   1.810
73785NA+    NA+46133  26.983  28.527   3.364
73786NA+    NA+46134  15.317  15.176   0.937
73787NA+    NA+46135  36.042   0.326   4.814
73788NA+    NA+46136   0.430  42.857   3.766
73789NA+    NA+46137   6.828  23.548   1.794
73790NA+    NA+46138  30.977  44.464   0.773
73791NA+    NA+46139   6.326  24.042  10.423
73792NA+    NA+46140  20.550  13.677   4.784
73793NA+    NA+46141  24.623  37.399  13.828
73794NA+    NA+46142  42.324  32.441  13.945
73795NA+    NA+46143  35.413  23.174   0.750
73796NA+    NA+46144   1.849  13.747  14.917
73797NA+    NA+46145  16.715  21.089   2.307
73798NA+    NA+46146   7.723  24.698  10.470
73799NA+    NA+46147   0.365  44.457  14.802
73800NA+    NA+46148   7.326  37.477   4.667
73801NA+    NA+46149  31.628  34.501   0.311
73802NA+    NA+46150   5.281  12.234  12.570
73803NA+    NA+46151  38.033  10.236   0.335
73804NA+    NA+46152  39.969   9.324   0.762
73805NA+    NA+46153  28.504  33.043  12.561
73806NA+    NA+46154  14.788  26.495   4.646
73807NA+    NA+46155   5.918  38.328  14.316
73808NA+    NA+46156  16.136  14.754   1.799
73809NA+    NA+46157  33.041  18.139  13.460
73810NA+    NA+46158  10.266  40.843   4.351
73811NA+    NA+46159  21.163  36.488   3.863
73812NA+    NA+46160  12.679  31.064   3.308
73813NA+    NA+46161  23.586  15.784   1.384
73814NA+    NA+46162  24.660  41.512   0.896
73815NA+    NA+46163  42.898  43.955  11.969
73816NA+    NA+46164  26.197   7.853  11.473
73817NA+    NA+46165  18.248  20.029  13.983
73818NA+    NA+46166  15.624  28.144   0.285
73819NA+    NA+46167  16.795  20.745   1.430
73820NA+    NA+46168  23.526  43.809  14.915
73821NA+    NA+46169  22.560   3.230   1.301
73822NA+    NA+46170  11.693  26.144  14.984
73823NA+    NA+46171  10.280  19.595   4.228
73824NA+    NA+46172  13.227  29.030  13.526
73825NA+    NA+46173  10.779  41.380  11.857
73826NA+    NA+46174   6.246   4.831  10.159
73827NA+    NA+46175   7.381  33.071   3.352
73828NA+    NA+46176  13.225  34.484  10.033
73829NA+    NA+46177  44.853   8.870   1.256
73830NA+    NA+46178  41.315  38.483   3.176
73831NA+    NA+46179   9.275  21.259  12.420
73832NA+    NA+46180  24.618  37.416   3.720
73833NA+    NA+46181  43.469  23.648  13.049
73834NA+    NA+46182  28.648  35.390   0.961
73835NA+    NA+46183   0.314  31.543  10.969
73836NA+    NA+46184  17.265  15.630   3.379
73837NA+    NA+46185  16.684  31.466  11.517
73838NA+    NA+46186  25.684  18.273  14.774
73839NA+    NA+46187  11.702  14.666   0.263
73840NA+    NA+46188   3.945  26.478   2.802
73841NA+    NA+46189  41.443   1.372  11.433
73842NA+    NA+46190  40.924  18.232  14.377
73843NA+    NA+46191  29.549   3.278  11.600
73844NA+    NA+46192  11.305  44.973  11.573
73845NA+    NA+46193  15.773  29.145   0.841
73846NA+    NA+46194   9.383   5.872   1.847
73847NA+    NA+46195  25.713   7.875   4.133
73848NA+    NA+46196  21.093  40.873  11.948
73849NA+    NA+46197   0.419   5.428   0.333
73850NA+    NA+46198  24.609  30.035   4.283
73851NA+    NA+46199  41.925   4.302   2.223
73852NA+    NA+46200  33.601  33.906  13.046
73853NA+    NA+46201  11.699   0.894  13.023
73854NA+    NA+46202  24.228  44.359  11.475
73855NA+    NA+46203  34.545   8.829   0.352
73856NA+    NA+46204  44.352  33.951   5.168
73857NA+    NA+46205  42.787  41.349  10.544
73858NA+    NA+46206  15.249  36.570  11.605
73859NA+    NA+46207  24.509  24.610   0.923
73860NA+    NA+46208  36.988  40.929   2.793
73861NA+    NA+46209  32.982   8.161  13.344
73862NA+    NA+46210  27.095  33.575  13.008
73863NA+    NA+46211  44.766   6.195  12.950
73864NA+    NA+46212  10.862  33.408  14.861
73865NA+    NA+46213   2.828   6.377   2.885
73866NA+    NA+46214  42.381  14.131   4.299
73867NA+    NA+46215  32.047   0.376  13.369
73868NA+    NA+46216   1.431  21.173  11.378
73869NA+    NA+46217  41.365  42.949  14.411
73870NA+    NA+46218   0.803  44.986   4.696
73871NA+    NA+46219  31.529   9.240  12.485
73872NA+    NA+46220  22.648  36.097  10.921
73873NA+    NA+46221  27.619  33.489   2.390
73874NA+    NA+46222  33.429  25.519   2.790
73875NA+    NA+46223  26.083  41.003   2.417
73876NA+    NA+46224   9.773   9.825  13.497
73877NA+    NA+46225  25.554  20.167  12.512
73878NA+    NA+46226  14.163  30.491   2.412
73879NA+    NA+46227   5.733   9.336   0.922
73880NA+    NA+46228  38.538  24.157   3.683
73881NA+    NA+46229  24.614  10.256  13.022
73882NA+    NA+46230  15.236  17.752  12.916
73883NA+    NA+46231  15.197  14.609   9.526
73884NA+    NA+46232  26.572  30.495   4.336
73885NA+    NA+46233  36.974  38.982  14.443
73886NA+    NA+46234  11.778  21.723   2.686
73887NA+    NA+46235  38.027  23.581  10.528
73888NA+    NA+46236  19.070  31.089  10.134
73889NA+    NA+46237  36.000   8.686   3.774
73890NA+    NA+46238  25.520   3.945   2.344
73891NA+    NA+46239   3.260  18.173   2.683
73892NA+    NA+46240  20.123  44.393   1.819
73893NA+    NA+46241  36.876  17.210   4.686
73894NA+    NA+46242  14.289   4.873  14.302
73895NA+    NA+46243  24.585  44.388  11.127
73896NA+    NA+46244   7.734  41.843  14.381
73897NA+    NA+46245  17.078  13.643   2.770
73898NA+    NA+46246   1.386  25.113   4.703
73899NA+    NA+46247   0.856   5.710   0.370
73900NA+    NA+46248   4.435  37.374  14.371
73901NA+    NA+46249  42.959  11.751   2.712
73902NA+    NA+46250  32.976   1.803  10.492
73903NA+    NA+46251  32.926  40.546   4.742
73904NA+    NA+46252   9.171  24.129   4.167
73905NA+    NA+46253  21.120  28.573  13.008
73906NA+    NA+46254   7.397  35.594  12.012
73907NA+    NA+46255  13.282  43.977  11.983
73908NA+    NA+46256  14.640   9.889   0.814
73909NA+    NA+46257  19.729  22.026  10.503
73910NA+    NA+46258  28.970   2.895   1.723
73911NA+    NA+46259  13.256  20.746  14.491
73912NA+    NA+46260   6.677   2.252  14.817
73913NA+    NA+46261  26.566  24.615  11.382
73914NA+    NA+46262  23.992   3.887   2.689
73915NA+    NA+46263  32.412  11.190   2.793
73916NA+    NA+46264   1.764  13.296   3.631
73917NA+    NA+46265  20.172   2.304  12.892
73918NA+    NA+46266  22.742  30.542   4.763
73919NA+    NA+46267  23.529  34.607  14.343
73920NA+    NA+46268  38.394  34.075  13.418
73921NA+    NA+46269   0.431   0.402  13.006
73922NA+    NA+46270  38.968  12.684  11.016
73923NA+    NA+46271  35.006   6.263   3.232
73924NA+    NA+46272  41.972   8.713  10.947
73925NA+    NA+46273  18.250  12.712  14.303
73926NA+    NA+46274  36.038  35.013  12.424
73927NA+    NA+46275  42.302   7.333  13.436
73928NA+    NA+46276  31.110  34.891   0.952
73929NA+    NA+46277  29.995   8.399  12.391
73930NA+    NA+46278  32.431  40.894  13.809
73931NA+    NA+46279  17.610  36.071  13.803
73932NA+    NA+46280   1.262  27.192   1.391
73933NA+    NA+46281  28.604  20.599  11.069
73934NA+    NA+46282  40.896  14.797  14.770
73935NA+    NA+46283   8.180  23.056   5.112
73936NA+    NA+46284  41.472  20.190   4.198
73937NA+    NA+46285  42.929  37.547  12.849
73938NA+    NA+46286   7.359  32.539  11.390
73939NA+    NA+46287  12.199  35.375   3.749
73940NA+    NA+46288  33.422  14.741  13.844
73941NA+    NA+46289  43.416  44.384   1.270
73942NA+    NA+46290  24.640  41.954  13.326
73943NA+    NA+46291   4.212  28.015   4.607
73944NA+    NA+46292  24.724   9.169  14.895
73945NA+    NA+46293  14.611  33.053   3.295
73946NA+    NA+46294  30.642  34.539   2.240
73947NA+    NA+46295  35.398  17.187   2.898
73948NA+    NA+46296  41.488  31.931  11.390
73949NA+    NA+46297   2.302   0.377  14.300
73950NA+    NA+46298  36.024  32.969  12.460
73951NA+    NA+46299   9.818  19.626  11.048
73952NA+    NA+46300   9.385  29.609  10.581
73953NA+    NA+46301  21.213  18.754  14.279
73954NA+    NA+46302  32.485   0.867   1.407
73955NA+    NA+46303   8.233  25.026   2.185
73956NA+    NA+46304  39.905   2.313  12.381
73957NA+    NA+46305  44.440  23.578  12.079
73958NA+    NA+46306  26.135  30.486   0.350
73959NA+    NA+46307  18.115  13.759  12.875
73960NA+    NA+46308  31.577  26.678   1.433
73961NA+    NA+46309  17.194  30.149  10.006
73962NA+    NA+46310  19.608  21.581   4.138
73963NA+    NA+46311  42.390  14.129  14.467
73964NA+    NA+46312  18.102  44.893  14.759
73965NA+    NA+46313  17.198  18.245   3.315
73966NA+    NA+46314  40.357  28.135  10.489
73967NA+    NA+46315   3.447  31.540  12.432
73968NA+    NA+46316  23.542  39.035   1.231
73969NA+    NA+46317  28.498  27.493   1.818
73970NA+    NA+46318  27.513   5.254  13.488
73971NA+    NA+46319  39.414  40.046  12.990
73972NA+    NA+46320  26.560  44.968  14.768
73973NA+    NA+46321  38.062  30.482  14.023
73974NA+    NA+46322  14.686  25.060   3.175
73975NA+    NA+46323  15.814   3.908  10.952
73976NA+    NA+46324  16.236  31.972  11.990
73977NA+    NA+46325  26.595  41.942   3.816
73978NA+    NA+46326  41.976   9.810   0.734
73979NA+    NA+46327   0.899  24.519  13.841
73980NA+    NA+46328  40.530  15.252   3.647
73981NA+    NA+46329   5.763  24.050  11.886
73982NA+    NA+46330  14.769  14.169  14.283
73983NA+    NA+46331  16.808   7.826   2.840
73984NA+    NA+46332  10.759  25.578  12.076
73985NA+    NA+46333   7.902   0.973   4.718
73986NA+    NA+46334  15.756  20.709   4.286
73987NA+    NA+46335  16.634  35.601   0.744
73988NA+    NA+46336  27.944  42.785   1.707
73989NA+    NA+46337  27.683  14.793   3.805
73990NA+    NA+46338  44.861  29.468   1.768
73991NA+    NA+46339  17.711  36.497   2.720
73992NA+    NA+46340  35.584  31.427   2.817
73993NA+    NA+46341  37.515  10.356   1.827
73994NA+    NA+46342  14.180  43.839   3.327
73995NA+    NA+46343  16.182   3.319  12.034
73996NA+    NA+46344   1.760   6.900  11.062
73997NA+    NA+46345  37.916  39.999   4.645
73998NA+    NA+46346  44.479  16.624  12.433
73999NA+    NA+46347  15.774  14.626  10.462
74000NA+    NA+46348  25.535  25.704   4.145
74001NA+    NA+46349  42.326  14.708   0.783
74002NA+    NA+46350   5.437  23.083   1.329
74003NA+    NA+46351  42.851  28.104   4.760
74004NA+    NA+46352   0.860  40.831  11.927
74005NA+    NA+46353   9.173  35.506   4.684
74006NA+    NA+46354  12.655  35.558  14.348
74007NA+    NA+46355   2.414  39.020  11.468
74008NA+    NA+46356   2.791  39.891   2.413
74009NA+    NA+46357  42.459  12.772   1.254
74010NA+    NA+46358  32.125  29.637  14.371
74011NA+    NA+46359  22.723  44.841   4.836
74012NA+    NA+46360  28.060   6.335   3.348
74013NA+    NA+46361   9.283  35.451  11.971
74014NA+    NA+46362  14.223  32.507  14.332
74015NA+    NA+46363  15.741  12.674  11.551
74016NA+    NA+46364  21.638   1.810  13.497
74017NA+    NA+46365   8.259  16.792   4.823
74018NA+    NA+46366  34.898   1.946   0.740
74019NA+    NA+46367  11.182  10.142   0.246
74020NA+    NA+46368  41.481  35.498   0.727
74021NA+    NA+46369   6.411  34.549  13.525
74022NA+    NA+46370   3.399  31.543   0.763
74023NA+    NA+46371  23.666   2.856  13.057
74024NA+    NA+46372   9.231   4.421  11.926
74025NA+    NA+46373  23.193  26.456  14.342
74026NA+    NA+46374   8.863   4.897   4.344
74027NA+    NA+46375  44.392  29.549  10.919
74028NA+    NA+46376   0.832  14.800  13.958
74029NA+    NA+46377  20.690  35.389  11.490
74030NA+    NA+46378  37.050   8.846   0.728
74031NA+    NA+46379  38.337  11.341  13.362
74032NA+    NA+46380  20.753  20.086   1.271
74033NA+    NA+46381  25.660  17.269   5.129
74034NA+    NA+46382  27.196  14.282   2.791
74035NA+    NA+46383  10.375  15.805   1.760
74036NA+    NA+46384  16.117  10.221  14.779
74037NA+    NA+46385  44.824  17.118  14.495
74038NA+    NA+46386  31.902  43.957   4.809
74039NA+    NA+46387  14.797  24.974  11.030
74040NA+    NA+46388  30.437  15.312  14.395
74041NA+    NA+46389  10.722   0.983  14.324
74042NA+    NA+46390  29.441   5.850   4.349
74043NA+    NA+46391   0.493  38.530   2.284
74044NA+    NA+46392  43.371   1.813   1.223
74045NA+    NA+46393  16.219  28.571  13.933
74046NA+    NA+46394  39.546  30.097  12.863
74047NA+    NA+46395  34.378  26.955   3.773
74048NA+    NA+46396  13.632   1.974   2.230
74049NA+    NA+46397  42.434  44.952   1.339
74050NA+    NA+46398   8.835  10.350  14.795
74051NA+    NA+46399  22.252  25.653   4.699
74052NA+    NA+46400  19.537  14.286  14.394
74053NA+    NA+46401   5.217  34.519   3.774
74054NA+    NA+46402  22.247   6.184   3.211
74055NA+    NA+46403  29.076  40.526  12.000
74056NA+    NA+46404  37.052  13.258   0.472
74057NA+    NA+46405   1.455  31.936   0.953
74058NA+    NA+46406  19.551  21.225  13.394
74059NA+    NA+46407  32.477  35.530  14.478
74060NA+    NA+46408   2.885  35.985   4.281
74061NA+    NA+46409   2.255  29.619   1.215
74062NA+    NA+46410  19.278  33.958  13.805
74063NA+    NA+46411  12.802   5.354  14.508
74064NA+    NA+46412  18.612  26.983   4.316
74065NA+    NA+46413  24.132  25.597   0.747
74066NA+    NA+46414  36.549  31.950  11.566
74067NA+    NA+46415  15.789   5.858   1.884
74068NA+    NA+46416  32.108  34.571   9.956
74069NA+    NA+46417  24.690  30.991   1.227
74070NA+    NA+46418  21.553  32.075  13.977
74071NA+    NA+46419  11.222  19.631  12.435
74072NA+    NA+46420  14.254   2.251   2.316
74073NA+    NA+46421  30.415  19.067  13.872
74074NA+    NA+46422   4.379  37.029  14.779
74075NA+    NA+46423  24.606  37.491   0.403
74076NA+    NA+46424  35.980  40.498  14.976
74077NA+    NA+46425  21.042  25.633   4.225
74078NA+    NA+46426  23.045  38.495  14.883
74079NA+    NA+46427  21.170   8.253  12.453
74080NA+    NA+46428   6.731  13.795  14.888
74081NA+    NA+46429  43.442  23.039   1.242
74082NA+    NA+46430  37.391  22.710  11.855
74083NA+    NA+46431  37.577  32.432   2.701
74084NA+    NA+46432  33.001  36.390  12.515
74085NA+    NA+46433  33.933  18.051  10.952
74086NA+    NA+46434  38.984   0.909   4.179
74087NA+    NA+46435  30.144   8.179  14.314
74088NA+    NA+46436   1.805  18.213   1.709
74089NA+    NA+46437  34.115  40.936   3.659
74090NA+    NA+46438  41.890  20.560  13.007
74091NA+    NA+46439   0.323  11.297  10.902
74092NA+    NA+46440  39.316  27.462   4.819
74093NA+    NA+46441  26.622  33.080  14.507
74094NA+    NA+46442   6.810  20.240  13.446
74095NA+    NA+46443  41.374   5.856   1.213
74096NA+    NA+46444  28.140  12.752  12.498
74097NA+    NA+46445  27.594  27.563  10.478
74098NA+    NA+46446  18.682  27.644   3.344
74099NA+    NA+46447  42.020  24.567   3.734
74100NA+    NA+46448   4.430  32.579   1.716
74101NA+    NA+46449   2.771  29.077   0.389
74102NA+    NA+46450  15.327  16.311   2.253
74103NA+    NA+46451   2.263  13.120   1.401
74104NA+    NA+46452  15.151  38.364  13.469
74105NA+    NA+46453  24.196   9.160   4.127
74106NA+    NA+46454  27.162  43.420   1.884
74107NA+    NA+46455  16.231  29.077  13.339
74108NA+    NA+46456  30.493  38.869   5.149
74109NA+    NA+46457  28.088  36.583   0.310
74110NA+    NA+46458  14.653   7.735  13.471
74111NA+    NA+46459  22.556   3.941  11.909
74112NA+    NA+46460  24.605  22.606   2.795
74113NA+    NA+46461   4.898   1.339   2.665
74114NA+    NA+46462  29.921  38.985   0.349
74115NA+    NA+46463   8.314  30.914   1.278
74116NA+    NA+46464  40.443  40.459  11.935
74117NA+    NA+46465  17.198  10.675  14.308
74118NA+    NA+46466  11.134  39.334   2.727
74119NA+    NA+46467  20.139  32.947   4.287
74120NA+    NA+46468  20.180  15.696   1.333
74121NA+    NA+46469  10.795  31.483   2.807
74122NA+    NA+46470  28.079  35.963  10.079
74123NA+    NA+46471  14.834   9.389   2.317
74124NA+    NA+46472  25.132  20.753   2.178
74125NA+    NA+46473  16.227   3.719  10.530
74126NA+    NA+46474  23.709  41.015   0.967
74127NA+    NA+46475   8.299  44.259  11.055
74128NA+    NA+46476  33.398  38.431   2.795
74129NA+    NA+46477   1.788  15.092   2.850
74130NA+    NA+46478  42.871   2.374   0.366
74131NA+    NA+46479  21.649  19.594   4.641
74132NA+    NA+46480   6.867  34.417  14.943
74133NA+    NA+46481   8.657  29.435  13.013
74134NA+    NA+46482  31.478  22.668  10.901
74135NA+    NA+46483   7.775  39.514  13.335
74136NA+    NA+46484  15.752  44.880   1.711
74137NA+    NA+46485  31.048  35.493  13.959
74138NA+    NA+46486   9.307  33.585   4.604
74139NA+    NA+46487  11.834  34.590   3.182
74140NA+    NA+46488   5.198  11.233   2.334
74141NA+    NA+46489  34.047  28.107  13.381
74142NA+    NA+46490   7.195  38.529  11.042
74143NA+    NA+46491  26.171  16.696   3.202
74144NA+    NA+46492  37.416  22.074  11.040
74145NA+    NA+46493  23.216  19.733  12.947
74146NA+    NA+46494   0.958  30.064  13.865
74147NA+    NA+46495   2.297  38.324   3.793
74148NA+    NA+46496  20.659  36.949  14.351
74149NA+    NA+46497  16.774  31.042  10.632
74150NA+    NA+46498  36.477  40.320  11.079
74151NA+    NA+46499  15.258   0.914  12.043
74152NA+    NA+46500  36.356   9.377  10.451
74153NA+    NA+46501  33.625   8.665  10.915
74154NA+    NA+46502  43.383  42.468  12.989
74155NA+    NA+46503  12.702  30.496  12.555
74156NA+    NA+46504  43.327  19.114   0.798
74157NA+    NA+46505  24.010  20.604   1.355
74158NA+    NA+46506  30.570   4.342   1.795
74159NA+    NA+46507  20.732   9.675  12.861
74160NA+    NA+46508  27.025  19.623   3.329
74161NA+    NA+46509  37.498  20.235   1.263
74162NA+    NA+46510  44.271  38.477   2.240
74163NA+    NA+46511   6.315   4.708   2.227
74164NA+    NA+46512  42.788  26.633  10.443
74165NA+    NA+46513  42.923  27.632   3.376
74166NA+    NA+46514  28.171  29.079   1.388
74167NA+    NA+46515  33.958  17.638   1.808
74168NA+    NA+46516   5.361   9.773  11.439
74169NA+    NA+46517  24.086  17.684  11.122
74170NA+    NA+46518   2.242  14.773  12.369
74171NA+    NA+46519  41.507  30.655  11.545
74172NA+    NA+46520  20.560  37.485  14.286
74173NA+    NA+46521   0.431  27.983   0.462
74174NA+    NA+46522  14.726  32.915   2.731
74175NA+    NA+46523  27.124  16.084   0.256
74176NA+    NA+46524  21.024   8.745   1.306
74177NA+    NA+46525  37.008  18.786   3.161
74178NA+    NA+46526   0.778  25.067  12.061
74179NA+    NA+46527  42.957   7.358  13.903
74180NA+    NA+46528  35.954  44.470   4.344
74181NA+    NA+46529  22.726  44.772  13.411
74182NA+    NA+46530  21.651  30.592   2.809
74183NA+    NA+46531  25.195   0.264  13.863
74184NA+    NA+46532  26.156  25.198   2.202
74185NA+    NA+46533  25.109   7.267  13.895
74186NA+    NA+46534  15.186  11.325  12.576
74187NA+    NA+46535  10.382   3.219   1.366
74188NA+    NA+46536  32.905  22.100   4.179
74189NA+    NA+46537  22.524  26.679   2.808
74190NA+    NA+46538  37.361  15.218  10.008
74191NA+    NA+46539  11.151  27.665  13.961
74192NA+    NA+46540   0.348   0.448   3.387
74193NA+    NA+46541  19.720  29.580   9.982
74194NA+    NA+46542  22.579   6.836   4.241
74195NA+    NA+46543  24.144  27.044  14.338
74196NA+    NA+46544   4.810  40.848   1.285
74197NA+    NA+46545  18.206  34.611   2.828
74198NA+    NA+46546  39.828   1.882   2.276
74199NA+    NA+46547  28.573   2.433   4.693
74200NA+    NA+46548  20.570   8.216  13.993
74201NA+    NA+46549  38.015  41.872  14.770
74202NA+    NA+46550  20.116  41.817   0.445
74203NA+    NA+46551   5.325  24.041   1.306
74204NA+    NA+46552  38.831  32.999  11.990
74205NA+    NA+46553  38.495  21.084  11.452
74206NA+    NA+46554  43.273  30.517   1.379
74207NA+    NA+46555   4.909  42.905  12.341
74208NA+    NA+46556   8.856  30.045  10.982
74209NA+    NA+46557  43.274  37.357  12.996
74210NA+    NA+46558  21.173   7.370  10.112
74211NA+    NA+46559  34.952  18.105   4.649
74212NA+    NA+46560  25.147  16.092  11.496
74213NA+    NA+46561   7.701  12.754  14.896
74214NA+    NA+46562   1.434  19.046  11.028
74215NA+    NA+46563  27.974  26.579   5.099
74216NA+    NA+46564  31.937   4.800   5.230
74217NA+    NA+46565  28.630   4.322  14.992
74218NA+    NA+46566  43.393  11.808   3.195
74219NA+    NA+46567  12.325  31.019   1.903
74220NA+    NA+46568  33.454  15.767  14.415
74221NA+    NA+46569   2.938   5.332   2.242
74222NA+    NA+46570   8.266  23.496   4.788
74223NA+    NA+46571  13.290   6.683  10.414
74224NA+    NA+46572  27.652  24.689   0.305
74225NA+    NA+46573   2.339  40.019   4.156
74226NA+    NA+46574  23.080  31.529  11.443
74227NA+    NA+46575  26.691  35.437   0.822
74228NA+    NA+46576  35.938  33.123   1.433
74229NA+    NA+46577   9.295  38.971   4.320
74230NA+    NA+46578  41.405  33.558  12.382
74231NA+    NA+46579  42.488   8.256   1.283
74232NA+    NA+46580  28.483   5.904   4.132
74233NA+    NA+46581  27.984   9.700   9.959
74234NA+    NA+46582  10.704  11.658   0.478
74235NA+    NA+46583   4.435  41.829  13.825
74236NA+    NA+46584  28.042  31.483  14.411
74237NA+    NA+46585  37.891  31.150   4.655
74238NA+    NA+46586   4.438  32.474  13.530
74239NA+    NA+46587   4.284  23.650   3.210
74240NA+    NA+46588  12.229  32.430  14.022
74241NA+    NA+46589   9.304  15.291   1.887
74242NA+    NA+46590  30.949  31.033   2.828
74243NA+    NA+46591   3.920   4.775  12.892
74244NA+    NA+46592  31.150   9.877   2.238
74245NA+    NA+46593  11.845  39.392  12.418
74246NA+    NA+46594   3.791  39.491   1.261
74247NA+    NA+46595  44.991  43.014  10.623
74248NA+    NA+46596  17.754  22.216  10.494
74249NA+    NA+46597  41.833  17.164   1.337
74250NA+    NA+46598  38.951  43.338   0.791
74251NA+    NA+46599   3.286   2.319   4.141
74252NA+    NA+46600  37.568   6.206   4.285
74253NA+    NA+46601  36.056  14.126  13.372
74254NA+    NA+46602   0.881  17.748   3.380
74255NA+    NA+46603  27.193   5.750  10.996
74256NA+    NA+46604  18.068  25.113   0.316
74257NA+    NA+46605  22.113   1.294  11.480
74258NA+    NA+46606  23.068   1.323   1.724
74259NA+    NA+46607   9.386  15.086   4.693
74260NA+    NA+46608  30.482  31.949  12.525
74261NA+    NA+46609  31.425  10.214   3.251
74262NA+    NA+46610  18.564  21.220   3.868
74263NA+    NA+46611  22.661  38.008  11.606
74264NA+    NA+46612  16.137   3.356   9.974
74265NA+    NA+46613  11.290   1.808   0.918
74266NA+    NA+46614  15.147  30.029   4.287
74267NA+    NA+46615  34.506   3.731   4.295
74268NA+    NA+46616   6.189  22.012  14.484
74269NA+    NA+46617  28.565  12.702   0.861
74270NA+    NA+46618  11.221  20.677  14.817
74271NA+    NA+46619   8.210   3.830   3.225
74272NA+    NA+46620   7.301   7.185   1.341
74273NA+    NA+46621  14.692   8.245   2.867
74274NA+    NA+46622  23.108  43.767  13.009
74275NA+    NA+46623  36.427  35.935  12.459
74276NA+    NA+46624  33.532  30.524   5.102
74277NA+    NA+46625  19.223  16.669  12.920
74278NA+    NA+46626  20.036  36.965  14.948
74279NA+    NA+46627  15.758  27.069   1.361
74280NA+    NA+46628  36.436  17.630   2.775
74281NA+    NA+46629  30.132  23.129  10.446
74282NA+    NA+46630  33.896  32.073   0.817
74283NA+    NA+46631  38.568   1.433  14.284
74284NA+    NA+46632  21.701  10.868   2.246
74285NA+    NA+46633  34.498  35.967   2.699
74286NA+    NA+46634  32.919  37.845  10.454
74287NA+    NA+46635  19.173  15.297  11.452
74288NA+    NA+46636  15.128  25.512   0.334
74289NA+    NA+46637  30.935   8.187  11.547
74290NA+    NA+46638  11.636  23.123  14.377
74291NA+    NA+46639  17.100  10.749  13.891
74292NA+    NA+46640   1.401  30.618  13.985
74293NA+    NA+46641  25.711   7.702   1.450
74294NA+    NA+46642  18.053  33.565  11.419
74295NA+    NA+46643  42.819  40.952   1.371
74296NA+    NA+46644  28.948  26.507   1.789
74297NA+    NA+46645   8.752  14.242   0.882
74298NA+    NA+46646   1.322  37.415  11.056
74299NA+    NA+46647  32.595   9.852  12.431
74300NA+    NA+46648  32.563  37.062   0.350
74301NA+    NA+46649  10.365  15.243   3.150
74302NA+    NA+46650  40.963  37.526  12.996
74303NA+    NA+46651  18.092   6.867  11.085
74304NA+    NA+46652  11.832   4.307   2.307
74305NA+    NA+46653  27.068  25.969   1.284
74306NA+    NA+46654   0.774   0.312  10.573
74307NA+    NA+46655  26.108  34.400   4.754
74308NA+    NA+46656   8.873  30.571  11.496
74309NA+    NA+46657   6.748   5.409   0.361
74310NA+    NA+46658  18.140  24.503   4.293
74311NA+    NA+46659  24.063  25.999   4.333
74312NA+    NA+46660  10.686   9.176   0.305
74313NA+    NA+46661  10.768  36.473  14.871
74314NA+    NA+46662  38.011  33.903   1.397
74315NA+    NA+46663   8.384  21.136  10.427
74316NA+    NA+46664  16.182   1.371   2.689
74317NA+    NA+46665  21.614  30.039  12.394
74318NA+    NA+46666  14.826  34.460   3.272
74319NA+    NA+46667  33.552  30.056   2.181
74320NA+    NA+46668  24.644   5.802  13.406
74321NA+    NA+46669  39.502  13.345   4.782
74322NA+    NA+46670  41.920  20.753   1.906
74323NA+    NA+46671  17.737  31.050   3.282
74324NA+    NA+46672  31.627  30.606   1.329
74325NA+    NA+46673  44.399  16.649   2.707
74326NA+    NA+46674   5.690  32.610  13.520
74327NA+    NA+46675  42.453  42.375   1.835
74328NA+    NA+46676  31.454  10.265  11.537
74329NA+    NA+46677   4.850  27.564   4.670
74330NA+    NA+46678  41.951  10.662   4.825
74331NA+    NA+46679  31.622  18.709   3.633
74332NA+    NA+46680  40.421  21.066  10.900
74333NA+    NA+46681   7.299  18.669   1.381
74334NA+    NA+46682  36.070   9.223  10.433
74335NA+    NA+46683  12.151  19.163   2.708
74336NA+    NA+46684  41.871  30.913  10.918
74337NA+    NA+46685  27.652  29.516   4.672
74338NA+    NA+46686  36.899   7.700  14.401
74339NA+    NA+46687   3.818  41.938  10.411
74340NA+    NA+46688   5.429  20.650   3.171
74341NA+    NA+46689  39.337   7.396  11.922
74342NA+    NA+46690  31.963  25.650   0.768
74343NA+    NA+46691  16.691   8.740   1.795
74344NA+    NA+46692  16.241  30.926   3.840
74345NA+    NA+46693   8.807  32.573  10.071
74346NA+    NA+46694   8.823  42.958  14.503
74347NA+    NA+46695  20.714  19.745   2.808
74348NA+    NA+46696   7.378  31.984  10.942
74349NA+    NA+46697  23.989  14.618   2.898
74350NA+    NA+46698  12.231  33.979  12.893
74351NA+    NA+46699  24.105   1.762  10.459
74352NA+    NA+46700   2.260  36.872   1.816
74353NA+    NA+46701  35.870  28.936   2.701
74354NA+    NA+46702  18.097   8.186  11.022
74355NA+    NA+46703  13.205  43.838   0.824
74356NA+    NA+46704  34.592  43.384   0.921
74357NA+    NA+46705  44.340  12.287  10.931
74358NA+    NA+46706  31.914  16.571  11.581
74359NA+    NA+46707  14.313  24.690   2.229
74360NA+    NA+46708  43.931  15.271   0.751
74361NA+    NA+46709   0.796  26.678   3.147
74362NA+    NA+46710  32.409  12.265  13.857
74363NA+    NA+46711  30.653   7.275   1.388
74364NA+    NA+46712   2.755  26.691   1.707
74365NA+    NA+46713  19.758  12.747   0.924
74366NA+    NA+46714  30.613   3.731  14.995
74367NA+    NA+46715  22.541   2.241   3.306
74368NA+    NA+46716  34.437   3.375  14.490
74369NA+    NA+46717  40.044  27.028  14.408
74370NA+    NA+46718  27.445  42.947  12.577
74371NA+    NA+46719   0.820  18.246   4.319
74372NA+    NA+46720  20.697  36.011   0.788
74373NA+    NA+46721   7.753   5.761  13.508
74374NA+    NA+46722  31.134  35.043  13.399
74375NA+    NA+46723  16.700  28.986  13.347
74376NA+    NA+46724   4.349  43.500   1.316
74377NA+    NA+46725  37.937  34.508   5.173
74378NA+    NA+46726  44.773   7.839  14.810
74379NA+    NA+46727  32.999  35.371   2.403
74380NA+    NA+46728  11.638  42.947  14.842
74381NA+    NA+46729  26.642  16.225   4.128
74382NA+    NA+46730  14.130  10.685   0.260
74383NA+    NA+46731  10.739  43.819   0.383
74384NA+    NA+46732   5.382  21.022  14.324
74385NA+    NA+46733  42.874   5.716   2.715
74386NA+    NA+46734   8.380  13.628  11.570
74387NA+    NA+46735  44.445  33.568   2.703
74388NA+    NA+46736   6.765   6.808   4.326
74389NA+    NA+46737  31.077  37.051   3.729
74390NA+    NA+46738  25.031  24.153   0.456
74391NA+    NA+46739  40.851  16.137   2.835
74392NA+    NA+46740  26.576  28.501  11.431
74393NA+    NA+46741  36.497   0.976   0.770
74394NA+    NA+46742  37.040  33.417   4.260
74395NA+    NA+46743  22.072  11.133  11.099
74396NA+    NA+46744  34.035  40.448  12.403
74397NA+    NA+46745  18.773  30.917  12.033
74398NA+    NA+46746  20.607  25.121   4.186
74399NA+    NA+46747   2.419  24.601   4.730
74400NA+    NA+46748  44.945   8.786   2.315
74401NA+    NA+46749  33.978  28.491   0.311
74402NA+    NA+46750  28.063  38.569  14.896
74403NA+    NA+46751   1.745  29.538   0.944
74404NA+    NA+46752  16.744   9.774   1.287
74405NA+    NA+46753  32.906  24.986  14.374
74406NA+    NA+46754  23.026  38.396  13.030
74407NA+    NA+46755  36.516  32.604   0.932
74408NA+    NA+46756   7.353   1.429  13.367
74409NA+    NA+46757   5.886   7.670  11.610
74410NA+    NA+46758   9.834  24.215  12.461
74411NA+    NA+46759  19.541  11.171  13.042
74412NA+    NA+46760   6.889  31.114   1.846
74413NA+    NA+46761   7.895  24.658  10.924
74414NA+    NA+46762  31.915  16.155  13.440
74415NA+    NA+46763  23.038  37.948  10.895
74416NA+    NA+46764  28.049  43.889  12.079
74417NA+    NA+46765   2.401  42.391   3.676
74418NA+    NA+46766  15.651  31.407   3.311
74419NA+    NA+46767  42.450   1.899   4.741
74420NA+    NA+46768  38.571  13.107   2.369
74421NA+    NA+46769  12.159   7.251  12.448
74422NA+    NA+46770   4.322  19.553   3.741
74423NA+    NA+46771  26.580  11.194   4.705
74424NA+    NA+46772  15.711  44.406  14.883
74425NA+    NA+46773  20.673  27.099  11.096
74426NA+    NA+46774  21.041  30.970   4.793
74427NA+    NA+46775  32.591   3.800   2.366
74428NA+    NA+46776  41.396   1.932  10.486
74429NA+    NA+46777   7.720  21.248   4.763
74430NA+    NA+46778  40.412  11.357   4.228
74431NA+    NA+46779  22.167   2.750   3.342
74432NA+    NA+46780  38.996  16.722   4.329
74433NA+    NA+46781  25.710  43.385  11.944
74434NA+    NA+46782  43.800   9.737  10.588
74435NA+    NA+46783  13.783  37.566   2.292
74436NA+    NA+46784  16.164  38.518   0.437
74437NA+    NA+46785  25.629  11.345  11.866
74438NA+    NA+46786  44.427  15.294   4.761
74439NA+    NA+46787  26.614   3.225  13.359
74440NA+    NA+46788  11.199  40.028  10.995
74441NA+    NA+46789  31.507  42.794  13.456
74442NA+    NA+46790  34.047  30.462  13.810
74443NA+    NA+46791   2.881  13.278  12.524
74444NA+    NA+46792  39.532  11.706  11.978
74445NA+    NA+46793   9.693  38.482  11.091
74446NA+    NA+46794   0.452  26.037  11.879
74447NA+    NA+46795  11.772  28.034   1.326
74448NA+    NA+46796  12.164  28.585  13.347
74449NA+    NA+46797  28.653   6.815  11.085
74450NA+    NA+46798  20.586  28.974  11.460
74451NA+    NA+46799   5.919   4.842   2.815
74452NA+    NA+46800  19.656  24.580  11.514
74453NA+    NA+46801  13.605  28.661   0.245
74454NA+    NA+46802   3.758  18.757  14.291
74455NA+    NA+46803  27.145   3.349  11.068
74456NA+    NA+46804   8.876  43.911  14.275
74457NA+    NA+46805  44.492  25.702   1.449
74458NA+    NA+46806  22.995   9.814   0.941
74459NA+    NA+46807  44.260  15.819  10.620
74460NA+    NA+46808  24.688   2.765  14.837
74461NA+    NA+46809  24.636  35.089  12.864
74462NA+    NA+46810  23.672  35.537  11.374
74463NA+    NA+46811  19.204  21.749   4.767
74464NA+    NA+46812  27.013  26.018   1.848
74465NA+    NA+46813   6.755  40.369  13.401
74466NA+    NA+46814  25.533  32.616   2.367
74467NA+    NA+46815  44.873  26.983  14.428
74468NA+    NA+46816  10.744   0.886  11.077
74469NA+    NA+46817  38.996  16.120  14.850
74470NA+    NA+46818   2.449  31.081  10.604
74471NA+    NA+46819   4.933  24.131  10.588
74472NA+    NA+46820  19.065  25.676  11.591
74473NA+    NA+46821  22.553  20.100   0.347
74474NA+    NA+46822  39.358  41.953   1.763
74475NA+    NA+46823  11.241  31.505   1.885
74476NA+    NA+46824  30.617  26.032   4.167
74477NA+    NA+46825  41.798  42.951  10.121
74478NA+    NA+46826  36.028  30.054   1.433
74479NA+    NA+46827  13.297  40.046  10.530
74480NA+    NA+46828  12.703  23.551  12.519
74481NA+    NA+46829  42.458  35.365  13.805
74482NA+    NA+46830  37.984  18.269   3.726
74483NA+    NA+46831  34.902  43.006  10.565
74484NA+    NA+46832   0.426   7.810   3.162
74485NA+    NA+46833   4.944  27.596  13.887
74486NA+    NA+46834  34.598  35.062   4.240
74487NA+    NA+46835   3.844  29.478  10.533
74488NA+    NA+46836  31.484  32.636  14.866
74489NA+    NA+46837  12.819  14.669   4.243
74490NA+    NA+46838  27.042   6.294   0.759
74491NA+    NA+46839  23.210  32.917  11.426
74492NA+    NA+46840  18.655  33.585  14.847
74493NA+    NA+46841   1.274  39.328  11.957
74494NA+    NA+46842  27.475  37.992   2.185
74495NA+    NA+46843  26.543  25.517  12.437
74496NA+    NA+46844  14.173  44.818   3.785
74497NA+    NA+46845  23.512   3.911   1.930
74498NA+    NA+46846  31.586   9.817  12.062
74499NA+    NA+46847  11.755  29.629  12.555
74500NA+    NA+46848  44.438   9.657  14.889
74501NA+    NA+46849  41.002  41.802  12.484
74502NA+    NA+46850   6.309   4.830   4.697
74503NA+    NA+46851   1.328  17.645   2.667
74504NA+    NA+46852  36.497   5.232  14.502
74505NA+    NA+46853  27.009  42.489  12.579
74506NA+    NA+46854  38.407  42.316   4.212
74507NA+    NA+46855  19.265   3.280   2.671
74508NA+    NA+46856  28.135  27.642   4.744
74509NA+    NA+46857  23.591  36.026  13.328
74510NA+    NA+46858  37.557  25.665  12.055
74511NA+    NA+46859  23.693  34.613  12.484
74512NA+    NA+46860  23.159  34.543   4.632
74513NA+    NA+46861  11.710  22.204   2.825
74514NA+    NA+46862   9.334  17.802   4.807
74515NA+    NA+46863   1.750  36.860   0.369
74516NA+    NA+46864  35.082   0.918  14.492
74517NA+    NA+46865  41.337   0.823   1.783
74518NA+    NA+46866  29.021   2.911  14.395
74519NA+    NA+46867  39.478  25.587  11.428
74520NA+    NA+46868  20.227  17.272   0.369
74521NA+    NA+46869  41.311  13.169   3.863
74522NA+    NA+46870  40.387  41.334   2.307
74523NA+    NA+46871  13.245  35.501   0.379
74524NA+    NA+46872  43.299  38.973  12.033
74525NA+    NA+46873  22.191  14.283  14.863
74526NA+    NA+46874  25.134  13.182   4.806
74527NA+    NA+46875  21.621  10.787   4.216
74528NA+    NA+46876  43.912   5.306   2.356
74529NA+    NA+46877  35.563   5.923  12.391
74530NA+    NA+46878   1.306  25.615   2.719
74531NA+    NA+46879  37.545  31.107  12.952
74532NA+    NA+46880  21.044  29.964  14.509
74533NA+    NA+46881  22.111   8.388  14.498
74534NA+    NA+46882  23.673  24.012   3.225
74535NA+    NA+46883  27.090   7.317   3.718
74536NA+    NA+46884  20.152  22.683  12.454
74537NA+    NA+46885  39.402  17.180   1.807
74538NA+    NA+46886  38.919  37.512  13.029
74539NA+    NA+46887  39.933   7.356   0.767
74540NA+    NA+46888  11.256  26.027  13.467
74541NA+    NA+46889  36.387   1.951  13.999
74542NA+    NA+46890  22.224  15.248  12.900
74543NA+    NA+46891   4.921  31.599   4.661
74544NA+    NA+46892  43.828  37.475   1.237
74545NA+    NA+46893   1.849   0.756  13.939
74546NA+    NA+46894  18.281  26.092  14.467
74547NA+    NA+46895   1.375  21.052  13.355
74548NA+    NA+46896   5.220  19.731  10.413
74549NA+    NA+46897   7.204   0.946   1.757
74550NA+    NA+46898  39.479  41.958   2.745
74551NA+    NA+46899  37.059  36.438  13.060
74552NA+    NA+46900   3.766  11.636   2.680
74553NA+    NA+46901  15.291  25.152  12.073
74554NA+    NA+46902  14.297  21.217  11.462
74555NA+    NA+46903   7.716  22.023  11.447
74556NA+    NA+46904  37.963  25.988   2.320
74557NA+    NA+46905   3.439  44.773   2.883
74558NA+    NA+46906  41.995  40.467  11.108
74559NA+    NA+46907  11.757  16.741   4.831
74560NA+    NA+46908  39.872  41.413   0.801
74561NA+    NA+46909  14.173  31.575  12.505
74562NA+    NA+46910   6.830   1.924  11.395
74563NA+    NA+46911  39.964   9.338  14.355
74564NA+    NA+46912  16.657  28.132  13.436
74565NA+    NA+46913  13.205  18.771  12.049
74566NA+    NA+46914  43.879  25.991  14.924
74567NA+    NA+46915   6.686  39.374   0.416
74568NA+    NA+46916  14.808   5.816   4.265
74569NA+    NA+46917  17.679  30.543  11.464
74570NA+    NA+46918  40.825  18.273  14.923
74571NA+    NA+46919  28.958  24.073   1.251
74572NA+    NA+46920  44.406   6.237   3.254
74573NA+    NA+46921  41.484  30.985   4.811
74574NA+    NA+46922  26.035  31.432  13.490
74575NA+    NA+46923  10.648   5.707  14.320
74576NA+    NA+46924   2.261   4.828   1.368
74577NA+    NA+46925  12.833  15.580   3.168
74578NA+    NA+46926  19.580  11.754  13.876
74579NA+    NA+46927  42.360  20.524   0.473
74580NA+    NA+46928  32.558  31.105   1.763
74581NA+    NA+46929   7.258  19.744   0.928
74582NA+    NA+46930  25.525  26.014  11.968
74583NA+    NA+46931  41.526  30.134  11.506
74584NA+    NA+46932   9.650  40.999  11.031
74585NA+    NA+46933   9.315  10.837   2.281
74586NA+    NA+46934  16.167  21.212  11.525
74587NA+    NA+46935  33.517   0.825  14.321
74588NA+    NA+46936   7.759  14.603  10.523
74589NA+    NA+46937  33.130  25.137   4.219
74590NA+    NA+46938   3.421  13.757  11.953
74591NA+    NA+46939   0.958  41.911  11.087
74592NA+    NA+46940   6.238  21.159   0.835
74593NA+    NA+46941  19.620   6.205  11.500
74594NA+    NA+46942  38.523  30.002   0.310
74595NA+    NA+46943  19.064  42.946   1.450
74596NA+    NA+46944  27.601  40.412   0.793
74597NA+    NA+46945  16.716   5.206  14.860
74598NA+    NA+46946  23.030  29.118   2.366
74599NA+    NA+46947  16.634  40.404  13.332
74600NA+    NA+46948  28.664   5.886  10.490
74601NA+    NA+46949  36.927  31.977   1.230
74602NA+    NA+46950   2.245  35.860   1.921
74603NA+    NA+46951   0.381  37.557  10.891
74604NA+    NA+46952  38.858  44.949   0.948
74605CL-    CL-46953   8.216  21.588   2.825
74606CL-    CL-46954   5.768  44.456  11.495
74607CL-    CL-46955   7.710  34.492   4.264
74608CL-    CL-46956  14.761  33.888   3.218
74609CL-    CL-46957  32.914  36.854   3.372
74610CL-    CL-46958  35.415  27.047  13.531
74611CL-    CL-46959  29.050  10.781  12.951
74612CL-    CL-46960  18.117  42.409   4.606
74613CL-    CL-46961  38.913  17.218  14.386
74614CL-    CL-46962  30.968  18.191  13.933
74615CL-    CL-46963  24.213  13.759   4.325
74616CL-    CL-46964   6.723  28.507   0.243
74617CL-    CL-46965  10.190  31.449  10.937
74618CL-    CL-46966  21.261  28.634   4.731
74619CL-    CL-46967  39.975  39.321  14.809
74620CL-    CL-46968  34.872  42.292  10.985
74621CL-    CL-46969  15.724  14.640   0.269
74622CL-    CL-46970  12.754  12.243  13.309
74623CL-    CL-46971   4.301  30.502   4.248
74624CL-    CL-46972  12.136   6.803   2.862
74625CL-    CL-46973  24.175  40.350   3.313
74626CL-    CL-46974  13.163   2.415  13.811
74627CL-    CL-46975   7.884  30.601   0.474
74628CL-    CL-46976  20.170  32.600   0.899
74629CL-    CL-46977   8.313  12.229   4.648
74630CL-    CL-46978  20.115   1.298  12.883
74631CL-    CL-46979   0.419  12.857  14.787
74632CL-    CL-46980  24.524  21.681  12.908
74633CL-    CL-46981  39.999  35.507   3.316
74634CL-    CL-46982  43.437  41.892   2.242
74635CL-    CL-46983  29.503  44.985  14.886
74636CL-    CL-46984  24.705  38.908   4.658
74637CL-    CL-46985  14.155   5.207  12.073
74638CL-    CL-46986  30.933  43.010   2.342
74639CL-    CL-46987  44.967  23.513   2.796
74640CL-    CL-46988  19.703  14.717   4.313
74641CL-    CL-46989   3.807  25.086   3.794
74642CL-    CL-46990  31.597  39.955  10.941
74643CL-    CL-46991  13.193  24.547  13.035
74644CL-    CL-46992  33.571  31.144   3.803
74645CL-    CL-46993  27.580  29.069  11.487
74646CL-    CL-46994  23.137   0.309   3.377
74647CL-    CL-46995  44.436   2.385   2.386
74648CL-    CL-46996  30.928   7.176  11.527
74649CL-    CL-46997  37.981  31.552   1.265
74650CL-    CL-46998   7.851  14.206  12.364
74651CL-    CL-46999  23.599  33.588   3.842
74652CL-    CL-47000  32.510  15.738  14.335
74653CL-    CL-47001   6.880   0.402   4.121
74654CL-    CL-47002  14.260  20.620   1.792
74655CL-    CL-47003  15.615  17.591   3.164
74656CL-    CL-47004  41.508   2.924   3.747
74657CL-    CL-47005   8.889  44.859   0.732
74658CL-    CL-47006  24.080  39.508  11.012
74659CL-    CL-47007  32.556  25.595  14.015
74660CL-    CL-47008  21.173  32.047  14.315
74661CL-    CL-47009  20.243  31.926  13.475
74662CL-    CL-47010  30.059  18.614   3.258
74663CL-    CL-47011  15.761  26.083  10.411
74664CL-    CL-47012  25.096  26.543   2.714
74665CL-    CL-47013  32.995  33.603  10.615
74666CL-    CL-47014  22.604   1.831   2.380
74667CL-    CL-47015  23.635  39.412   1.303
74668CL-    CL-47016  13.238   3.459  14.320
74669CL-    CL-47017  16.292  15.791  10.030
74670CL-    CL-47018  30.458  38.524  11.129
74671CL-    CL-47019   4.327  34.983  13.004
74672CL-    CL-47020  40.966  15.688   0.852
74673CL-    CL-47021   7.769  27.013   4.350
74674CL-    CL-47022  33.948   4.434  12.907
74675CL-    CL-47023  42.414  27.487  13.491
74676CL-    CL-47024  27.613  36.387   2.289
74677CL-    CL-47025   4.331  44.482  13.939
74678CL-    CL-47026  42.011  21.604   2.768
74679CL-    CL-47027  33.049  12.191  14.972
74680CL-    CL-47028  28.951  21.634   1.407
74681CL-    CL-47029  34.448  40.941   4.290
74682CL-    CL-47030  17.630  23.560  14.886
74683CL-    CL-47031  28.038   6.731  10.149
74684CL-    CL-47032  17.720   6.335   0.402
74685CL-    CL-47033  15.111   4.354   0.951
74686CL-    CL-47034  39.010  13.834   4.310
74687CL-    CL-47035  21.524  27.559   0.433
74688CL-    CL-47036  44.279  29.949   2.729
74689CL-    CL-47037  34.884  27.969   1.429
74690CL-    CL-47038  14.176  31.597   1.302
74691CL-    CL-47039  21.032  13.703  13.047
74692CL-    CL-47040  34.066  41.385   4.293
74693CL-    CL-47041  40.814   2.413   3.714
74694CL-    CL-47042  40.361  17.064   0.300
74695CL-    CL-47043  14.681   3.813   3.242
74696CL-    CL-47044  30.622  18.103  13.896
74697CL-    CL-47045   8.340  32.563  14.786
74698CL-    CL-47046  42.870  12.258   4.774
74699CL-    CL-47047   8.192   0.837  11.512
74700CL-    CL-47048  38.370  26.991  11.085
74701CL-    CL-47049  13.683  12.124  14.358
74702CL-    CL-47050   0.939  13.741   0.285
74703CL-    CL-47051  40.385  15.723  11.565
74704CL-    CL-47052  27.476  36.566   4.702
74705CL-    CL-47053  29.933  11.760  11.921
74706CL-    CL-47054  39.846  35.034  14.783
74707CL-    CL-47055  12.636  12.675  11.882
74708CL-    CL-47056  19.621  31.060  12.851
74709CL-    CL-47057  35.545  26.158   1.713
74710CL-    CL-47058  13.242  42.456   0.254
74711CL-    CL-47059  40.901  32.022   0.287
74712CL-    CL-47060  38.057  43.007   0.784
74713CL-    CL-47061  34.939   0.893   0.378
74714CL-    CL-47062   8.176   3.907   1.244
74715CL-    CL-47063  20.732   8.832  12.024
74716CL-    CL-47064  23.117   0.356   3.793
74717CL-    CL-47065  18.216   5.212  11.879
74718CL-    CL-47066  44.369  18.689   1.310
74719CL-    CL-47067   3.843  10.180   3.675
74720CL-    CL-47068  19.538  34.471   0.436
74721CL-    CL-47069  11.633  36.515  14.393
74722CL-    CL-47070  20.059  35.484  11.074
74723CL-    CL-47071  28.033   5.271   2.803
74724CL-    CL-47072  36.941  38.431   2.212
74725CL-    CL-47073   7.883  42.421  13.054
74726CL-    CL-47074  42.017  42.366  13.408
74727CL-    CL-47075  29.427  14.625   0.836
74728CL-    CL-47076  36.981  37.530   0.472
74729CL-    CL-47077  19.272   1.808  10.914
74730CL-    CL-47078  19.078  11.699   0.401
74731CL-    CL-47079   9.646  16.092  14.906
74732CL-    CL-47080   5.244  23.128   3.800
74733CL-    CL-47081  44.372  14.794   2.685
74734CL-    CL-47082  11.668  33.041  14.987
74735CL-    CL-47083  20.040  36.528   0.268
74736CL-    CL-47084  10.662   1.340  11.453
74737CL-    CL-47085   1.337  20.632   2.867
74738CL-    CL-47086  27.561   7.207  13.845
74739CL-    CL-47087  12.342  37.863   1.870
74740CL-    CL-47088  11.692  15.189  10.442
74741CL-    CL-47089  35.912   4.908  14.820
74742CL-    CL-47090  35.902   7.741   1.400
74743CL-    CL-47091  38.472   4.352   4.791
74744CL-    CL-47092  24.032   4.766  11.900
74745CL-    CL-47093  26.545  29.119   2.895
74746CL-    CL-47094  17.256  10.364  12.343
74747CL-    CL-47095  39.453   0.745   2.332
74748CL-    CL-47096   6.393  19.253   4.269
74749CL-    CL-47097  32.575  16.116  12.980
74750CL-    CL-47098  15.709  19.250   0.432
74751CL-    CL-47099  36.890  23.127  14.788
74752CL-    CL-47100   9.235  39.969  14.820
74753CL-    CL-47101  18.256   4.310   4.792
74754CL-    CL-47102  41.382   2.885  11.566
74755CL-    CL-47103  19.603   9.883   3.844
74756CL-    CL-47104   4.754   6.337   2.756
74757CL-    CL-47105   8.286  41.502  11.018
74758CL-    CL-47106  30.649   5.762   3.774
74759CL-    CL-47107  30.938  27.504   0.830
74760CL-    CL-47108   6.736  33.424   9.999
74761CL-    CL-47109  40.307  18.228   3.803
74762CL-    CL-47110  33.950  10.158  10.579
74763CL-    CL-47111  23.634  12.616   2.829
74764CL-    CL-47112  13.844  20.674  11.023
74765CL-    CL-47113  26.169  12.316   1.751
74766CL-    CL-47114  34.376   8.363   3.674
74767CL-    CL-47115  38.963  27.074   1.837
74768CL-    CL-47116  15.131  33.097   4.277
74769CL-    CL-47117  29.644   5.853   1.237
74770CL-    CL-47118   8.356  30.917   1.814
74771CL-    CL-47119  35.451  32.903   4.671
74772CL-    CL-47120  39.386  16.584  10.591
74773CL-    CL-47121   2.290  33.995  14.831
74774CL-    CL-47122   4.905  33.506  11.592
74775CL-    CL-47123   8.851  35.416  14.888
74776CL-    CL-47124   2.872  12.187   1.301
74777CL-    CL-47125  34.903  24.630  11.986
74778CL-    CL-47126  16.127  11.127   5.272
74779CL-    CL-47127  15.739  36.589  12.558
74780CL-    CL-47128  35.875  24.606  12.412
74781CL-    CL-47129  28.183  28.571  10.987
74782CL-    CL-47130  25.586   5.867   3.345
74783CL-    CL-47131  26.500   3.824  11.604
74784CL-    CL-47132  24.036  24.546  14.278
74785CL-    CL-47133  28.480  18.090   2.347
74786CL-    CL-47134  23.610   7.841   3.866
74787CL-    CL-47135   3.745   9.823  11.405
74788CL-    CL-47136  33.604  31.074   3.280
74789CL-    CL-47137  29.096   3.815   2.358
74790CL-    CL-47138  10.320   5.741  10.598
74791CL-    CL-47139   7.765  26.162   3.158
74792CL-    CL-47140  42.807  23.149  11.591
74793CL-    CL-47141  30.073  22.189   3.159
74794CL-    CL-47142  28.625  33.462  11.528
74795CL-    CL-47143   4.439  12.166   1.732
74796CL-    CL-47144  24.137  44.499  14.955
74797CL-    CL-47145   2.921  10.851  13.505
74798CL-    CL-47146  11.242  35.893   2.799
74799CL-    CL-47147   2.888  10.233  13.430
74800CL-    CL-47148   8.880   2.408   4.143
74801CL-    CL-47149  10.808  14.812  11.470
74802CL-    CL-47150  28.970  18.745  13.379
74803CL-    CL-47151  18.085  33.125  11.448
74804CL-    CL-47152  26.609  21.018  12.075
74805CL-    CL-47153  13.616  30.997   3.326
74806CL-    CL-47154  15.325  26.481   0.326
74807CL-    CL-47155  42.297  29.991   0.897
74808CL-    CL-47156  27.625  18.550  14.764
74809CL-    CL-47157  19.234  31.434   2.181
74810CL-    CL-47158   3.258  12.319  12.995
74811CL-    CL-47159   9.851  32.126   3.223
74812CL-    CL-47160  29.563  25.713   3.352
74813CL-    CL-47161  30.133  30.460   4.631
74814CL-    CL-47162  44.410  34.892   3.779
74815CL-    CL-47163  41.452   6.749   4.785
74816CL-    CL-47164  37.023  35.886   3.767
74817CL-    CL-47165  19.568  13.724   3.322
74818CL-    CL-47166   3.870  44.935  14.926
74819CL-    CL-47167  13.609  43.015   3.868
74820CL-    CL-47168   3.267  34.476   1.749
74821CL-    CL-47169  23.004  39.027   4.695
74822CL-    CL-47170   5.911  35.459  12.023
74823CL-    CL-47171  29.629  22.179  11.978
74824CL-    CL-47172   9.867  34.070  13.885
74825CL-    CL-47173  26.032  16.098  14.425
74826CL-    CL-47174  32.465   5.774   9.534
74827CL-    CL-47175  33.053  35.096   1.933
74828CL-    CL-47176  35.538  25.126  12.851
74829CL-    CL-47177   0.897  21.531   1.439
74830CL-    CL-47178  38.856  33.579  12.946
74831CL-    CL-47179  32.416  21.122  14.984
74832CL-    CL-47180  30.096  34.466   1.859
74833CL-    CL-47181  39.900  18.672   1.294
74834CL-    CL-47182  35.563  21.108  12.539
74835CL-    CL-47183  17.590  11.258   1.440
74836CL-    CL-47184  42.525  30.459  13.443
74837CL-    CL-47185   4.227   3.323   4.697
74838CL-    CL-47186  32.466  28.979   0.424
74839CL-    CL-47187  37.858   4.393   3.787
74840CL-    CL-47188  13.703  19.668   2.241
74841CL-    CL-47189  42.409   8.405   4.643
74842CL-    CL-47190  37.056  24.037   3.660
74843CL-    CL-47191  38.060  11.364  11.455
74844CL-    CL-47192   5.258  15.821   2.245
74845CL-    CL-47193  26.143   3.365  12.901
74846CL-    CL-47194  15.181  31.638  11.411
74847CL-    CL-47195  11.134  11.805   1.293
74848CL-    CL-47196  20.702  23.127   1.873
74849CL-    CL-47197  23.236  28.448   0.753
74850CL-    CL-47198  17.790   3.261   4.310
74851CL-    CL-47199  14.257  18.589  11.041
74852CL-    CL-47200   5.729  31.021  13.012
74853CL-    CL-47201  21.548  36.554   2.731
74854CL-    CL-47202  14.817  28.153   0.766
74855CL-    CL-47203  29.946  44.972  12.938
74856CL-    CL-47204  24.982  30.503   1.369
74857CL-    CL-47205   1.382  32.007  10.453
74858CL-    CL-47206   5.396  42.838   0.458
74859CL-    CL-47207  18.733  15.125  14.487
74860CL-    CL-47208  10.265  20.605  12.464
74861CL-    CL-47209   4.852  12.768  12.974
74862CL-    CL-47210  31.137  42.938   4.246
74863CL-    CL-47211   5.730  11.846  14.463
74864CL-    CL-47212   1.957  25.510   4.319
74865CL-    CL-47213  10.271   3.898   1.288
74866CL-    CL-47214  39.406   8.214  14.925
74867CL-    CL-47215   0.457  18.083  13.946
74868CL-    CL-47216  40.021  38.839   1.933
74869CL-    CL-47217   3.848  29.589  13.376
74870CL-    CL-47218  24.554  17.699   0.353
74871CL-    CL-47219  15.726  30.114  14.423
74872CL-    CL-47220  43.323   0.859  12.864
74873CL-    CL-47221   4.251  36.447  13.315
74874CL-    CL-47222  17.144  21.179   2.678
74875CL-    CL-47223  33.464  30.505  12.013
74876CL-    CL-47224   2.436  27.115   4.702
74877CL-    CL-47225  30.025  21.524   1.747
74878CL-    CL-47226  34.548  24.027   4.308
74879CL-    CL-47227  20.718  33.056   3.299
74880CL-    CL-47228  34.604  44.838   2.853
74881CL-    CL-47229  14.810   9.661  14.847
74882CL-    CL-47230  26.028  26.532  11.418
74883CL-    CL-47231  17.577  19.594   2.852
74884CL-    CL-47232  10.297  26.685  11.944
74885CL-    CL-47233   5.384  13.701   0.729
74886CL-    CL-47234  15.244  42.915  10.630
74887CL-    CL-47235   8.849   0.374   2.322
74888CL-    CL-47236   7.258  31.068  10.127
74889CL-    CL-47237   9.371  15.250   3.240
74890CL-    CL-47238  10.723   9.853   2.395
74891CL-    CL-47239  11.265  16.693  14.477
74892CL-    CL-47240   8.685   0.933  14.433
74893CL-    CL-47241  16.203  18.727  14.936
74894CL-    CL-47242  21.206  42.809  10.986
74895CL-    CL-47243  26.472  36.090   4.299
74896CL-    CL-47244  11.215  36.954  13.908
74897CL-    CL-47245  16.710  23.655  13.422
74898CL-    CL-47246  34.376  37.568  13.540
74899CL-    CL-47247  26.519  29.937   3.331
74900CL-    CL-47248  40.043  20.568   1.908
74901CL-    CL-47249  13.652  41.911   1.791
74902CL-    CL-47250  27.635  32.550  10.620
74903CL-    CL-47251   2.270  36.928   3.690
74904CL-    CL-47252  23.168  18.248  10.487
74905CL-    CL-47253  14.331  12.643   0.882
74906CL-    CL-47254   2.903  40.962  14.977
74907CL-    CL-47255  44.824  26.012  12.844
74908CL-    CL-47256  37.355  29.010  12.060
74909CL-    CL-47257  39.049  23.649  10.534
74910CL-    CL-47258  21.610  41.330   0.413
74911CL-    CL-47259  42.878   5.793   1.825
74912CL-    CL-47260  21.022  20.705  14.281
74913CL-    CL-47261   0.873  35.940  12.066
74914CL-    CL-47262  33.986  28.666   2.234
74915CL-    CL-47263  17.108  15.245   0.893
74916CL-    CL-47264  31.628   5.396   1.218
74917CL-    CL-47265  11.201  28.453  10.539
74918CL-    CL-47266   4.754  12.316   0.949
74919CL-    CL-47267  43.482  25.110  14.428
74920CL-    CL-47268  28.511  16.708   4.774
74921CL-    CL-47269  36.029   1.421   2.723
74922CL-    CL-47270  26.104  41.529   0.307
74923CL-    CL-47271  35.003  44.892   0.461
74924CL-    CL-47272  42.381  17.691  13.863
74925CL-    CL-47273   6.710  26.980   3.331
74926CL-    CL-47274  24.505  28.538  11.880
74927CL-    CL-47275  43.458  18.668   4.723
74928CL-    CL-47276  38.357   2.920   4.645
74929CL-    CL-47277  28.501  13.764   0.287
74930CL-    CL-47278  31.554   5.340  13.970
74931CL-    CL-47279  25.065  16.101  13.493
74932CL-    CL-47280  36.521  34.076   3.673
74933CL-    CL-47281  43.849  28.082   4.820
74934CL-    CL-47282   3.790   2.761  14.909
74935CL-    CL-47283  41.454  13.300  12.907
74936CL-    CL-47284  40.354  12.737   1.270
74937CL-    CL-47285  38.486  17.091  10.471
74938CL-    CL-47286  34.567  36.384  12.978
74939CL-    CL-47287  33.438   1.863   4.262
74940CL-    CL-47288  15.091  15.671   2.897
74941CL-    CL-47289  41.296  41.832   2.211
74942CL-    CL-47290  33.905  17.121   1.805
74943CL-    CL-47291  21.116   8.857  13.835
74944CL-    CL-47292  31.948  26.600  13.833
74945CL-    CL-47293   5.406  36.454  13.965
74946CL-    CL-47294  17.099  19.666  10.550
74947CL-    CL-47295  15.182  23.610  13.921
74948CL-    CL-47296   7.368  20.173  14.447
74949CL-    CL-47297  33.395  23.702  13.531
74950CL-    CL-47298  23.645  27.046   4.753
74951CL-    CL-47299  17.081  34.084  12.890
74952CL-    CL-47300   1.365  44.758  13.371
74953CL-    CL-47301  22.530  40.347   4.703
74954CL-    CL-47302  27.588  31.016   2.809
74955CL-    CL-47303  37.930  10.284   2.892
74956CL-    CL-47304  20.260  38.013  10.888
74957CL-    CL-47305  13.665   0.453   1.316
74958CL-    CL-47306  14.338  38.934  12.038
74959CL-    CL-47307  15.268  43.449  11.426
74960CL-    CL-47308  39.333  11.695   2.809
74961CL-    CL-47309  35.573  22.707  11.112
74962CL-    CL-47310  39.520   5.415   2.231
74963CL-    CL-47311  17.197  27.108   4.279
74964CL-    CL-47312  18.733  43.353  11.397
74965CL-    CL-47313   4.303  21.182  12.558
74966CL-    CL-47314  24.073  10.837   5.192
74967CL-    CL-47315  20.030  28.063   4.727
74968CL-    CL-47316   2.251   4.926  11.093
74969CL-    CL-47317  14.140   0.946  12.539
74970CL-    CL-47318  41.380  41.936  11.518
74971CL-    CL-47319  43.377  25.632   1.875
74972CL-    CL-47320  30.634   8.868   1.269
74973CL-    CL-47321  36.573   9.785   0.860
74974CL-    CL-47322  43.421  34.606   1.339
74975CL-    CL-47323  24.105   3.222   3.717
74976CL-    CL-47324  21.099  21.582   4.142
74977CL-    CL-47325  14.668  35.397   4.282
74978CL-    CL-47326  38.878  15.120  14.403
74979CL-    CL-47327  39.006  19.576  10.436
74980CL-    CL-47328  10.717  18.676   0.815
74981CL-    CL-47329  14.270  26.020  11.948
74982CL-    CL-47330  15.814  38.883  13.368
74983CL-    CL-47331  13.229  32.572   4.268
74984CL-    CL-47332   6.411  36.929  12.011
74985CL-    CL-47333  27.507  31.568   3.341
74986CL-    CL-47334  37.860  44.933  13.513
74987CL-    CL-47335   4.819  42.287   4.714
74988CL-    CL-47336  44.397  43.416  12.976
74989CL-    CL-47337   8.754   8.333   1.933
74990CL-    CL-47338  19.106  39.550   1.850
74991CL-    CL-47339   6.741  31.537   3.344
74992CL-    CL-47340  21.173   2.869   3.185
74993CL-    CL-47341  31.907  41.443  14.472
74994CL-    CL-47342  10.871  13.174  11.916
74995CL-    CL-47343  26.027   0.875   3.246
74996CL-    CL-47344  43.291  43.955   2.715
74997CL-    CL-47345  11.629   6.413  13.892
74998CL-    CL-47346  42.457   9.655  10.903
74999CL-    CL-47347  27.113  10.816   0.329
75000CL-    CL-47348   0.282  28.931  14.837
75001CL-    CL-47349  36.069  30.912  12.993
75002CL-    CL-47350  16.646  29.954  12.371
75003CL-    CL-47351  10.759  42.015  12.023
75004CL-    CL-47352  31.563  23.094   1.219
75005CL-    CL-47353  42.893  42.485  12.377
75006CL-    CL-47354  18.211  36.394  14.983
75007CL-    CL-47355  22.019  24.090  12.994
75008CL-    CL-47356  26.667   8.342   4.264
75009CL-    CL-47357   4.822  14.736   4.208
75010CL-    CL-47358   9.766  32.502   3.795
75011CL-    CL-47359  17.166  35.985   0.925
75012CL-    CL-47360  21.122  15.313  14.284
75013CL-    CL-47361  11.738  31.898   0.259
75014CL-    CL-47362  33.453  38.467  12.467
75015CL-    CL-47363  19.229  27.669   2.711
75016CL-    CL-47364  28.468  34.057  13.380
75017CL-    CL-47365  25.590  22.140  13.327
75018CL-    CL-47366  36.931  22.125  11.404
75019CL-    CL-47367   4.847  11.841  10.594
75020CL-    CL-47368  17.306  25.968   4.838
75021CL-    CL-47369  21.018  11.185   3.855
75022CL-    CL-47370  37.842  19.174   3.714
75023CL-    CL-47371   0.468  27.196  13.892
75024CL-    CL-47372  31.130  26.002   1.383
75025CL-    CL-47373  40.468  14.147  12.551
75026CL-    CL-47374  38.869  24.492  14.439
75027CL-    CL-47375  18.080  19.049   1.390
75028CL-    CL-47376  20.258  23.626   4.705
75029CL-    CL-47377  37.514  41.383   2.725
75030CL-    CL-47378  37.494  35.075  14.905
75031CL-    CL-47379  32.458  35.489   2.402
75032CL-    CL-47380  42.025  21.516   3.359
75033CL-    CL-47381   3.388  16.595  10.492
75034CL-    CL-47382  22.059   7.813  12.423
75035CL-    CL-47383  34.014   2.796  13.345
75036CL-    CL-47384   5.899  22.145  13.961
75037CL-    CL-47385  20.084   0.423  10.889
75038CL-    CL-47386  11.322  24.056   2.354
75039CL-    CL-47387  37.919   2.377   2.284
75040CL-    CL-47388  18.127  40.497   4.770
75041CL-    CL-47389  42.355  43.798  12.924
75042CL-    CL-47390   7.415   8.694  12.004
75043CL-    CL-47391  31.406  38.333   4.167
75044CL-    CL-47392  22.053  21.637   1.920
75045CL-    CL-47393  44.311  42.291   0.941
75046CL-    CL-47394   5.757  19.565   4.120
75047CL-    CL-47395  31.503   1.753   0.788
75048CL-    CL-47396  23.055  17.657   3.321
75049CL-    CL-47397  19.630  39.378   0.902
75050CL-    CL-47398  15.243  13.742  13.329
75051CL-    CL-47399  10.651   5.780   1.257
75052CL-    CL-47400   0.921  31.972   1.238
75053CL-    CL-47401  26.958  20.263  12.355
75054CL-    CL-47402  30.062  44.869  13.404
75055CL-    CL-47403   0.752  39.491  12.078
75056CL-    CL-47404  42.352  17.670  12.871
75057CL-    CL-47405  17.673   4.252  10.589
75058CL-    CL-47406  42.994  28.095   0.330
75059CL-    CL-47407  26.532  33.596   1.450
75060CL-    CL-47408  20.186  15.256   2.858
75061CL-    CL-47409  11.851  12.779  13.919
75062CL-    CL-47410  31.572  31.615  12.441
75063CL-    CL-47411  31.639  17.602  11.513
75064CL-    CL-47412  28.037  28.111  10.910
75065CL-    CL-47413   7.722   1.786   4.795
75066CL-    CL-47414  18.717  19.546   1.831
75067CL-    CL-47415   5.396  33.527  13.548
75068CL-    CL-47416  44.904   4.397  13.863
75069CL-    CL-47417  44.265   0.829  13.854
75070CL-    CL-47418  35.369  29.507   0.245
75071CL-    CL-47419   6.724  35.109  14.366
75072CL-    CL-47420  14.611  19.167  12.040
75073CL-    CL-47421  32.001  37.498  14.472
75074CL-    CL-47422   2.227  40.001   4.746
75075CL-    CL-47423  16.801  12.274   3.691
75076CL-    CL-47424   5.854  40.880   0.405
75077CL-    CL-47425  22.037  30.546   3.166
75078CL-    CL-47426   8.782   6.376  10.616
75079CL-    CL-47427   9.328   5.305   1.788
75080CL-    CL-47428   5.809  32.065  14.335
75081CL-    CL-47429   2.403  37.343  11.488
75082CL-    CL-47430  44.264   3.887  11.459
75083CL-    CL-47431  34.939  40.383   2.826
75084CL-    CL-47432  21.159  33.385   4.195
75085CL-    CL-47433  36.990  11.230   1.770
75086CL-    CL-47434   4.742  20.679  12.872
75087CL-    CL-47435  18.691   7.192  12.033
75088CL-    CL-47436  16.757  39.826  12.090
75089CL-    CL-47437  12.156  13.767  14.806
75090CL-    CL-47438  22.045   5.353   3.712
75091CL-    CL-47439  24.002  43.817   3.216
75092CL-    CL-47440  36.487  14.624   1.877
75093CL-    CL-47441   6.801  21.122  11.428
75094CL-    CL-47442  36.485   7.358  13.011
75095CL-    CL-47443  27.506  43.972   1.378
75096CL-    CL-47444   8.247   9.867   3.221
75097CL-    CL-47445  12.341  18.286   4.245
75098CL-    CL-47446  42.952  36.395  10.998
75099CL-    CL-47447  44.286   2.813  12.418
75100CL-    CL-47448  17.689  42.441  10.956
75101CL-    CL-47449  11.743  16.116   4.714
75102CL-    CL-47450  30.568  13.640  12.969
75103CL-    CL-47451  25.494   9.387   2.741
75104CL-    CL-47452  28.972   0.469  14.330
75105CL-    CL-47453  38.371  21.072  13.434
75106CL-    CL-47454  32.427  14.130   3.747
75107CL-    CL-47455  13.814  29.476   3.311
75108CL-    CL-47456  16.590  14.339  10.624
75109CL-    CL-47457   8.257  25.064   3.247
75110CL-    CL-47458  38.413   0.291  14.958
75111CL-    CL-47459  44.783  34.868   4.252
75112CL-    CL-47460  36.899  14.324   3.814
75113CL-    CL-47461  13.291  30.106  10.888
75114CL-    CL-47462  15.746  29.547   2.831
75115CL-    CL-47463  31.078  43.482   2.396
75116CL-    CL-47464  24.205  27.679   1.400
75117CL-    CL-47465   6.400  31.647   5.693
75118CL-    CL-47466  41.479   9.271  12.431
75119CL-    CL-47467  24.038  39.404  14.509
75120CL-    CL-47468   1.238  10.145   2.895
75121CL-    CL-47469  11.284   8.258  11.033
75122CL-    CL-47470  43.465   0.898   2.808
75123CL-    CL-47471  40.425  16.648  12.384
75124CL-    CL-47472  17.300  38.979  10.616
75125CL-    CL-47473  15.269  10.795   4.769
75126CL-    CL-47474  26.148  19.576   0.426
75127CL-    CL-47475  20.546  31.120  11.476
75128CL-    CL-47476  34.560  24.516   4.680
75129CL-    CL-47477  35.521  23.051  12.480
75130CL-    CL-47478  34.944  35.911   3.269
75131CL-    CL-47479  35.558  39.548   4.163
75132CL-    CL-47480  26.542  27.562   4.818
75133CL-    CL-47481  40.413  43.965  11.912
75134CL-    CL-47482   0.377  16.704   4.815
75135CL-    CL-47483   9.186   1.792  13.838
75136CL-    CL-47484   8.732  33.070   4.725
75137CL-    CL-47485  32.127  44.934  10.507
75138CL-    CL-47486  32.408  26.566  13.934
75139CL-    CL-47487  20.270   9.184  14.506
75140CL-    CL-47488   8.822   4.710   2.808
75141CL-    CL-47489  18.740   0.267  12.849
75142CL-    CL-47490  12.253  12.127  12.934
75143CL-    CL-47491  43.784  25.612  11.583
75144CL-    CL-47492  10.370   8.721  12.569
75145CL-    CL-47493  16.283   4.244   2.685
75146CL-    CL-47494  36.000  39.470   2.417
75147CL-    CL-47495  18.678  29.613  14.372
75148CL-    CL-47496   6.800  10.819  14.341
75149CL-    CL-47497  27.082  14.332  12.925
75150CL-    CL-47498  37.368  35.489  10.597
75151CL-    CL-47499  43.923  39.956  14.283
75152CL-    CL-47500   5.828  20.259  13.989
75153CL-    CL-47501  38.553  15.237   2.900
75154CL-    CL-47502   4.281  15.770  13.493
75155CL-    CL-47503  32.454  32.006  12.850
75156CL-    CL-47504  44.930  23.208  11.475
75157CL-    CL-47505  43.918   3.247  14.023
75158CL-    CL-47506   6.921  36.445   4.132
75159CL-    CL-47507  17.664  26.560  13.980
75160CL-    CL-47508  24.204  36.877  12.368
75161CL-    CL-47509  26.697  34.440  12.561
75162CL-    CL-47510  21.612  25.596  13.837
75163CL-    CL-47511  18.716  22.542   4.717
75164CL-    CL-47512  14.602  27.038   0.841
75165CL-    CL-47513  26.004   2.744   3.250
75166CL-    CL-47514  15.310  36.430  12.557
75167CL-    CL-47515  20.225  25.481  11.555
75168CL-    CL-47516   4.333  40.912   2.795
75169CL-    CL-47517  35.045   0.435  12.564
75170CL-    CL-47518  22.020  30.505  10.542
75171CL-    CL-47519  14.297  44.993   1.404
75172CL-    CL-47520  41.485  18.629  13.049
75173CL-    CL-47521  39.520  29.669  14.282
75174CL-    CL-47522  23.195   6.412   1.439
75175CL-    CL-47523  35.602   4.839  11.049
75176CL-    CL-47524   0.309  37.858   2.314
75177CL-    CL-47525  24.155   5.726  12.406
75178CL-    CL-47526  17.153  11.795   3.820
75179CL-    CL-47527   9.859  16.749  13.520
75180CL-    CL-47528  13.686  44.382  13.988
75181CL-    CL-47529  18.283  37.002  10.514
75182CL-    CL-47530  23.190  20.587  11.861
75183CL-    CL-47531   2.802  18.121   3.801
75184CL-    CL-47532   9.213  33.050   9.981
75185CL-    CL-47533  37.519   8.810   0.253
75186CL-    CL-47534   6.280   8.795   2.404
75187CL-    CL-47535   7.289   2.303   1.233
75188CL-    CL-47536   1.278   2.293  13.535
75189CL-    CL-47537  32.538   5.244   3.634
75190CL-    CL-47538  11.681  23.644   3.770
75191CL-    CL-47539  11.263  34.992  12.574
75192CL-    CL-47540  24.036  32.497  14.764
75193CL-    CL-47541  39.499  15.319   2.340
75194CL-    CL-47542  40.048  35.084  11.970
75195CL-    CL-47543  41.380  34.519  12.903
75196CL-    CL-47544  28.173  26.183  14.331
75197CL-    CL-47545  30.152   4.408  11.926
75198CL-    CL-47546  23.591  33.985   0.289
75199CL-    CL-47547   3.938  31.591   0.332
75200CL-    CL-47548  44.844  37.901  11.071
75201CL-    CL-47549  32.940   4.385   1.716
75202CL-    CL-47550  23.184   0.784  14.329
75203CL-    CL-47551  39.815  32.997   2.876
75204CL-    CL-47552  23.006  17.714   4.777
75205CL-    CL-47553  25.703  39.001  14.807
75206CL-    CL-47554   5.280  43.470   3.720
75207CL-    CL-47555  28.590   9.296   3.658
75208CL-    CL-47556  28.051  42.301  13.947
75209CL-    CL-47557  28.995  43.974   1.258
75210CL-    CL-47558   4.772  43.891  13.816
75211CL-    CL-47559  24.525  14.276   2.311
75212CL-    CL-47560  34.074  30.577   2.180
75213CL-    CL-47561  41.340   2.337  10.927
75214CL-    CL-47562  28.951  17.179   1.718
75215CL-    CL-47563  20.659  42.491   0.750
75216CL-    CL-47564  40.935  30.525   3.209
75217CL-    CL-47565  26.068  35.566  13.804
75218CL-    CL-47566  33.970  41.859   2.772
75219CL-    CL-47567  18.715  36.479   2.265
75220CL-    CL-47568   9.805   1.733  12.423
75221CL-    CL-47569   1.405  35.526   1.260
75222CL-    CL-47570   2.402  27.035   4.200
75223CL-    CL-47571  27.152  31.027  11.564
75224CL-    CL-47572  28.633   4.264  13.048
75225CL-    CL-47573   8.179   1.812   2.228
75226CL-    CL-47574   9.291  29.121  13.482
75227CL-    CL-47575  30.965   6.399  10.472
75228CL-    CL-47576  10.309  18.261   3.854
75229CL-    CL-47577  24.665   5.249  14.306
75230CL-    CL-47578  22.054  39.513   4.809
75231CL-    CL-47579  38.875  29.116  10.156
75232CL-    CL-47580  33.991  37.497  12.571
75233CL-    CL-47581  41.032   2.819   2.788
75234CL-    CL-47582  10.307  20.040   9.437
75235CL-    CL-47583  28.543  11.621   1.892
75236CL-    CL-47584  12.765   6.200   1.908
75237CL-    CL-47585  28.936  40.307   0.464
75238CL-    CL-47586  36.413  24.008   2.416
75239CL-    CL-47587  13.600   2.444  10.536
75240CL-    CL-47588  17.704  25.039  11.871
75241CL-    CL-47589  17.648  21.731   3.669
75242CL-    CL-47590  38.976  25.513   5.295
75243CL-    CL-47591  35.408  40.522   3.800
75244CL-    CL-47592  21.064  20.688   3.210
75245CL-    CL-47593  41.796  25.041   4.318
75246CL-    CL-47594  37.370  15.610   5.246
75247CL-    CL-47595  33.003  11.762  14.764
75248CL-    CL-47596  10.187  17.652   4.235
75249CL-    CL-47597  11.166  40.800  12.536
75250CL-    CL-47598  15.600   0.981   0.848
75251CL-    CL-47599   2.446  11.214   0.733
75252CL-    CL-47600  28.016   8.161  11.596
75253CL-    CL-47601   3.393  42.797   2.256
75254CL-    CL-47602   5.315   8.169  12.416
75255CL-    CL-47603  10.165  38.960  11.505
75256CL-    CL-47604  11.779  35.045   0.755
75257CL-    CL-47605   1.237   3.776   1.323
75258CL-    CL-47606  15.774  39.524   4.781
75259CL-    CL-47607  42.388  26.063  14.796
75260CL-    CL-47608  27.035  34.576   2.672
75261CL-    CL-47609   0.389   0.770   1.695
75262CL-    CL-47610  28.461  18.645   0.243
75263CL-    CL-47611   7.388   4.814  13.923
75264CL-    CL-47612  29.999   8.239   3.297
75265CL-    CL-47613  12.732  23.033  10.474
75266CL-    CL-47614  29.589  34.119   0.445
75267CL-    CL-47615  42.509  32.047   4.709
75268CL-    CL-47616   5.734  21.079   3.858
75269CL-    CL-47617  34.584  20.725   0.834
75270CL-    CL-47618  37.421  21.241   0.948
75271CL-    CL-47619  37.562  27.516   0.742
75272CL-    CL-47620  27.509  29.098   2.260
75273CL-    CL-47621  23.104  13.258  14.898
75274CL-    CL-47622  19.622  29.114   1.420
75275CL-    CL-47623  22.148  16.769  14.978
75276CL-    CL-47624  35.920  44.880   1.392
75277CL-    CL-47625  34.374  11.840  10.898
75278CL-    CL-47626   7.728  35.970  11.505
75279CL-    CL-47627  16.191  25.703  12.465
75280CL-    CL-47628   9.238   9.205  11.398
75281CL-    CL-47629  23.549  29.091  11.496
75282CL-    CL-47630  14.723  30.647  11.376
75283CL-    CL-47631  23.016   9.864  10.071
75284CL-    CL-47632   3.796  18.121   2.269
75285CL-    CL-47633  43.289  27.995   3.723
75286CL-    CL-47634  44.870  44.922  14.952
75287CL-    CL-47635  24.073  27.107   3.297
75288CL-    CL-47636   8.723  18.698   3.661
75289CL-    CL-47637  43.849   8.869  12.579
75290CL-    CL-47638  14.210  31.942   4.293
75291CL-    CL-47639   6.735  12.773  10.953
75292CL-    CL-47640   7.763  10.650  12.578
75293CL-    CL-47641  12.184  18.183  14.870
75294CL-    CL-47642  33.968  35.096   4.619
75295CL-    CL-47643  25.016   6.205  14.391
75296CL-    CL-47644  40.817  11.263  14.337
75297CL-    CL-47645   6.367  27.490   1.738
75298CL-    CL-47646  25.482  29.652  11.504
75299CL-    CL-47647  32.983  17.209  12.994
75300CL-    CL-47648  37.480  42.953  13.436
75301CL-    CL-47649  37.338  30.451  14.502
75302CL-    CL-47650  41.536  30.967  12.849
75303CL-    CL-47651  27.539  13.754  10.893
75304CL-    CL-47652  13.644  22.674   4.329
75305CL-    CL-47653   5.931  20.760   0.813
75306CL-    CL-47654  16.776   6.267  10.473
75307CL-    CL-47655  36.419   1.303   0.365
75308CL-    CL-47656  39.964  30.912   0.967
75309CL-    CL-47657  14.776  39.904  14.909
75310CL-    CL-47658  39.851  35.474   4.251
75311CL-    CL-47659  40.524  19.593  13.431
75312CL-    CL-47660  25.541   8.697   2.854
75313CL-    CL-47661  23.109   8.183  10.489
75314CL-    CL-47662  32.568  17.289  13.047
75315CL-    CL-47663  37.548  12.194  14.420
75316CL-    CL-47664  32.965  35.511  13.315
75317CL-    CL-47665  18.760  15.740   2.711
75318CL-    CL-47666  23.592  14.317   5.220
75319CL-    CL-47667  40.807  13.316   4.270
75320CL-    CL-47668  43.790  15.790  12.977
75321CL-    CL-47669   5.820   3.361   1.786
75322CL-    CL-47670  34.874  41.300   5.141
75323CL-    CL-47671   3.326   4.759   2.744
75324CL-    CL-47672  29.970  31.582   3.646
75325CL-    CL-47673  39.058  29.458   3.205
75326CL-    CL-47674  44.457  43.355   2.310
75327CL-    CL-47675  12.760  33.010  13.543
75328CL-    CL-47676  36.488  26.957  11.106
75329CL-    CL-47677   2.321  25.693  11.126
75330CL-    CL-47678  30.614  31.561   0.789
75331CL-    CL-47679  41.903  28.563  10.461
75332CL-    CL-47680  11.867  26.478   4.307
75333CL-    CL-47681  35.921  28.581  11.997
75334CL-    CL-47682  36.023  10.210   4.164
75335CL-    CL-47683  28.133  40.416  12.038
75336CL-    CL-47684  11.800  42.889  12.503
75337CL-    CL-47685  33.889   0.358  12.482
75338CL-    CL-47686  40.451   1.970   0.946
75339CL-    CL-47687  39.387  39.918  13.534
75340CL-    CL-47688  15.598  27.960  11.505
75341CL-    CL-47689  41.922   9.155  10.563
75342CL-    CL-47690  19.277  24.681   3.740
75343CL-    CL-47691   3.309  28.985   0.448
75344CL-    CL-47692   3.372  39.513   0.860
75345CL-    CL-47693  42.939   9.274  14.776
75346CL-    CL-47694  17.580  16.293   2.278
75347CL-    CL-47695  30.915  27.592   1.316
75348CL-    CL-47696  43.971   3.826  13.899
75349CL-    CL-47697  13.171   9.322  14.319
75350CL-    CL-47698  33.883  25.104  13.011
75351CL-    CL-47699   5.899  26.647   3.348
75352CL-    CL-47700  44.816   4.233  11.100
75353CL-    CL-47701  32.052  10.269  10.913
75354CL-    CL-47702  44.464  22.202   0.318
75355CL-    CL-47703   8.256  28.447  10.478
75356CL-    CL-47704  25.699  32.477  11.092
75357CL-    CL-47705  30.585  20.757   1.935
75358CL-    CL-47706  20.582  34.612   2.247
75359CL-    CL-47707  14.701   5.777  11.579
75360CL-    CL-47708  10.265  25.135  10.908
75361CL-    CL-47709  24.151  11.648   3.756
75362CL-    CL-47710  24.152  23.511  10.901
75363CL-    CL-47711  16.281  41.345   0.793
75364CL-    CL-47712  20.111  38.055   2.240
75365CL-    CL-47713  17.656  44.384   2.777
75366CL-    CL-47714  43.012  12.666  13.322
75367CL-    CL-47715   8.713  27.002  13.486
75368CL-    CL-47716  42.920  12.715  10.539
75369CL-    CL-47717  42.994  33.940  14.763
75370CL-    CL-47718   7.684  41.850   3.870
75371CL-    CL-47719  23.504   7.869   4.196
75372CL-    CL-47720  22.689   0.266  11.413
75373CL-    CL-47721   4.710  26.185  14.926
75374CL-    CL-47722  44.845  16.302  12.478
75375CL-    CL-47723  31.032  31.998  14.844
75376CL-    CL-47724  43.877   5.722   0.374
75377CL-    CL-47725  24.170  13.202   3.699
75378CL-    CL-47726  35.363  12.141   1.899
75379CL-    CL-47727  40.372  21.597   3.147
75380CL-    CL-47728   2.311  44.441   2.210
75381CL-    CL-47729  43.939  40.494   0.347
75382CL-    CL-47730   8.822   0.797  13.333
75383CL-    CL-47731  27.564  36.051  12.922
75384CL-    CL-47732   4.253   2.472  12.539
75385CL-    CL-47733  30.513  25.620   3.366
75386CL-    CL-47734  31.009   5.731  14.808
75387CL-    CL-47735  24.704  21.536  11.581
75388CL-    CL-47736  38.840  31.932  13.543
75389CL-    CL-47737   9.203  11.182   2.401
75390CL-    CL-47738  14.199  40.358   5.152
75391CL-    CL-47739  27.945  35.542  14.835
75392CL-    CL-47740  27.957  36.010   2.788
75393CL-    CL-47741  14.750  10.273   5.252
75394CL-    CL-47742  20.105  20.037   4.663
75395CL-    CL-47743  33.507  33.023  14.450
75396CL-    CL-47744  12.339  26.165  11.882
75397CL-    CL-47745   8.831  32.551   3.669
75398CL-    CL-47746  10.832  34.593  13.379
75399CL-    CL-47747  18.063  19.726   1.695
75400CL-    CL-47748  20.688  25.684   0.910
75401CL-    CL-47749  41.370   2.252   0.468
75402CL-    CL-47750  28.063  23.020   2.717
75403CL-    CL-47751  43.386   3.938  13.409
75404CL-    CL-47752  15.586   8.771  14.371
75405CL-    CL-47753  10.218   2.393  14.488
75406CL-    CL-47754  35.865  42.447   0.400
75407CL-    CL-47755  31.562   9.338  14.375
75408CL-    CL-47756  28.607  41.909   0.860
75409CL-    CL-47757  35.441  16.122   2.849
75410CL-    CL-47758  35.469  40.000   3.331
75411CL-    CL-47759  42.290   3.381   2.321
75412CL-    CL-47760  16.121   4.374   4.192
75413CL-    CL-47761  44.803   1.869  13.857
75414CL-    CL-47762  38.956  22.205   0.467
75415CL-    CL-47763   2.245  41.385   4.209
75416CL-    CL-47764  20.534  35.563  12.835
75417CL-    CL-47765   9.290  16.673   0.750
75418CL-    CL-47766  18.548  35.404  12.870
75419CL-    CL-47767  13.291  13.351  11.071
75420CL-    CL-47768  42.921  40.329   1.346
75421CL-    CL-47769  16.117   9.677   1.881
75422CL-    CL-47770  14.129  15.173   3.841
75423CL-    CL-47771  29.119   4.901  13.010
75424CL-    CL-47772   3.310  19.248  13.992
75425CL-    CL-47773  35.007  32.975   2.748
75426CL-    CL-47774  26.484  37.420  11.006
75427CL-    CL-47775  22.188   2.442  11.007
75428CL-    CL-47776  44.858  21.127   1.335
75429CL-    CL-47777  28.060  27.492  10.108
75430CL-    CL-47778  14.827  44.900   4.688
75431CL-    CL-47779   3.341  20.221  11.473
75432CL-    CL-47780  37.395  39.491   0.252
75433CL-    CL-47781  16.663  17.120  11.392
75434CL-    CL-47782   8.752  19.210   3.809
75435CL-    CL-47783  16.210   9.186   2.828
75436CL-    CL-47784  28.648  34.429  12.493
75437CL-    CL-47785  35.507   3.917   0.385
75438CL-    CL-47786   2.420  13.737  12.871
75439CL-    CL-47787  33.029  20.112   2.799
75440CL-    CL-47788  36.094  28.132   0.318
75441CL-    CL-47789  19.537  42.954   1.735
75442CL-    CL-47790  23.996  38.973   2.190
75443CL-    CL-47791  22.690   1.279  13.439
75444CL-    CL-47792  24.078  34.952   3.748
75445CL-    CL-47793  34.028  34.960   9.452
75446CL-    CL-47794  29.083  25.188   0.400
75447CL-    CL-47795   3.263   2.409   2.764
75448CL-    CL-47796  30.017  25.608   1.376
75449CL-    CL-47797  24.551  22.180   1.839
75450CL-    CL-47798  44.756  22.123  12.836
75451CL-    CL-47799  37.912  24.514  13.931
75452CL-    CL-47800   9.153  26.961   4.823
75453CL-    CL-47801  41.350  27.536  12.910
75454CL-    CL-47802  32.455  20.136   4.258
75455CL-    CL-47803  17.736  44.281  11.419
75456CL-    CL-47804  35.600  28.540  13.363
75457CL-    CL-47805  15.148   3.862   0.377
75458CL-    CL-47806  15.102  10.638  12.887
75459CL-    CL-47807   6.352  30.913   4.314
75460CL-    CL-47808  32.087   2.739   1.353
75461CL-    CL-47809  21.655  16.207   2.351
75462CL-    CL-47810  10.720  26.656   2.711
75463CL-    CL-47811  44.809  14.286  13.812
75464CL-    CL-47812  38.372  26.106   2.692
75465CL-    CL-47813   1.374  30.557  12.378
75466CL-    CL-47814  29.576  11.658  13.459
75467CL-    CL-47815  30.430  35.089   2.295
75468CL-    CL-47816  19.269  31.586   5.275
75469CL-    CL-47817  36.932  39.032   0.344
75470CL-    CL-47818  33.431  30.960  12.346
75471CL-    CL-47819  37.401  44.260  11.553
75472CL-    CL-47820   2.437  32.400  12.903
75473CL-    CL-47821   8.860  20.768   2.398
75474CL-    CL-47822  10.752  40.008  13.309
75475CL-    CL-47823  20.221  11.727   0.476
75476CL-    CL-47824   0.466  42.483   0.937
75477CL-    CL-47825  14.773   8.764   2.408
75478CL-    CL-47826  22.622  19.149  12.897
75479CL-    CL-47827  13.311   6.254  14.827
75480CL-    CL-47828  36.028  39.379   4.830
75481CL-    CL-47829   8.371  26.164  14.387
75482CL-    CL-47830  34.509  14.258   3.236
75483CL-    CL-47831  42.891  26.182  13.921
75484CL-    CL-47832  41.434  14.612  10.489
75485CL-    CL-47833   5.307   6.376   3.387
75486CL-    CL-47834  14.603   0.955  13.868
75487CL-    CL-47835  28.098  25.966   0.371
75488CL-    CL-47836  24.495   8.187  10.499
75489CL-    CL-47837   0.271   9.706  13.434
75490CL-    CL-47838  22.536  32.006   2.885
75491CL-    CL-47839   9.190  13.188  11.408
75492CL-    CL-47840   0.451  43.872  14.944
75493CL-    CL-47841  30.565  20.078   0.342
75494CL-    CL-47842  12.320  42.804  11.412
75495CL-    CL-47843  41.443   1.382   0.410
75496CL-    CL-47844  26.629  15.685  12.881
75497CL-    CL-47845  17.202   7.686  13.844
75498CL-    CL-47846  43.324  29.955   0.449
75499CL-    CL-47847   0.418   0.271  14.361
75500CL-    CL-47848  44.446  43.906   3.197
75501CL-    CL-47849  30.418  12.657   0.360
75502CL-    CL-47850  24.988  34.555   4.753
75503CL-    CL-47851  44.939  23.021   1.401
75504CL-    CL-47852  27.569  23.531   3.226
75505CL-    CL-47853  33.434  33.606  14.307
75506CL-    CL-47854  16.805  13.233  11.908
75507CL-    CL-47855  14.289  33.440   0.334
75508CL-    CL-47856   7.868  22.531  10.145
75509CL-    CL-47857  24.154  37.900  12.981
75510CL-    CL-47858  36.882  20.227  11.472
75511CL-    CL-47859  26.998   2.952  13.865
75512CL-    CL-47860  44.430  39.547  11.040
75513CL-    CL-47861  10.259  23.689  11.505
75514CL-    CL-47862  29.172   8.740   3.637
75515CL-    CL-47863  35.472  23.000   4.247
75516CL-    CL-47864  42.843  26.541  14.275
75517CL-    CL-47865   8.751  17.271   4.249
75518CL-    CL-47866  25.050  30.484  10.548
75519CL-    CL-47867  32.599  23.535  14.927
75520CL-    CL-47868  11.166  25.589   4.164
75521CL-    CL-47869  44.757  33.115   2.696
75522CL-    CL-47870   2.772  12.122  14.772
75523CL-    CL-47871   7.749   5.736   1.779
75524CL-    CL-47872   7.363  17.202   4.298
75525CL-    CL-47873  32.588   3.257   3.751
75526CL-    CL-47874  21.257   0.283   3.314
75527CL-    CL-47875  10.797  35.399  11.467
75528CL-    CL-47876  11.653   5.767   1.757
75529CL-    CL-47877  16.101  25.695   1.759
75530CL-    CL-47878  10.725  12.288  13.315
75531CL-    CL-47879  16.573  35.109   3.720
75532CL-    CL-47880  13.158  43.840  10.551
75533CL-    CL-47881  14.741  19.684   3.328
75534CL-    CL-47882  22.585   0.960   0.877
75535CL-    CL-47883  24.078   5.276   3.656
75536CL-    CL-47884  32.481   2.882  11.061
75537CL-    CL-47885  37.563   4.295  13.001
75538CL-    CL-47886  41.528  20.206  12.879
75539CL-    CL-47887  12.144  35.907  12.364
75540CL-    CL-47888  18.689   4.225  12.887
75541CL-    CL-47889  24.062  20.682  14.507
75542CL-    CL-47890  16.773  28.443   2.266
75543CL-    CL-47891  42.842  33.582  10.524
75544CL-    CL-47892   7.854  25.191   3.340
75545CL-    CL-47893  14.320  24.211  13.870
75546CL-    CL-47894  28.531  25.650   4.753
75547CL-    CL-47895  21.216  34.889  14.370
75548CL-    CL-47896  11.157  12.182  14.842
75549CL-    CL-47897  38.355  21.233   2.219
75550CL-    CL-47898  43.391  15.790   4.344
75551CL-    CL-47899  13.638   1.858   1.346
75552CL-    CL-47900  27.095  22.585   3.383
75553CL-    CL-47901  41.803   0.744  12.073
75554CL-    CL-47902   4.247  23.188   4.821
75555CL-    CL-47903  39.468  20.083   2.842
75556CL-    CL-47904  29.630   1.833   2.388
75557CL-    CL-47905   6.746  33.490   4.120
75558CL-    CL-47906   5.417   9.720   4.812
75559CL-    CL-47907  42.874  39.867  14.978
75560CL-    CL-47908   9.190   6.764  11.864
75561CL-    CL-47909  40.977   8.178  14.765
75562CL-    CL-47910   0.262  36.067   4.175
75563CL-    CL-47911  17.720  33.473   4.599
75564CL-    CL-47912  33.389  26.647  14.331
75565CL-    CL-47913  23.028  23.140   0.319
75566CL-    CL-47914  35.915  19.043  14.941
75567CL-    CL-47915  27.106  19.635  14.352
75568CL-    CL-47916   1.804   3.434   3.363
75569CL-    CL-47917   6.815  20.187  12.433
75570CL-    CL-47918  23.634   3.861  13.428
75571CL-    CL-47919  19.640  38.878   3.813
75572CL-    CL-47920  27.480  12.213  14.471
75573CL-    CL-47921   5.690  36.442   3.789
75574CL-    CL-47922  40.397  39.406  13.351
75575CL-    CL-47923   5.844  42.853  13.545
75576CL-    CL-47924  35.358  27.195  11.466
75577CL-    CL-47925  13.605  12.647   1.724
75578CL-    CL-47926  40.008  33.045   3.662
75579CL-    CL-47927  23.082  10.767  12.827
75580CL-    CL-47928  14.799   4.220   2.769
75581CL-    CL-47929  33.485  21.135   3.283
75582CL-    CL-47930  21.705  34.461   2.257
75583CL-    CL-47931   3.277  44.982   4.635
75584CL-    CL-47932   3.867   5.425  11.918
75585CL-    CL-47933  35.364   7.374   2.690
75586CL-    CL-47934  43.474   3.887  12.931
75587CL-    CL-47935  34.102  21.723   5.611
75588CL-    CL-47936  25.179   6.405   0.359
75589CL-    CL-47937  26.661  24.028  11.864
75590CL-    CL-47938   9.689   4.772   5.105
75591CL-    CL-47939   1.280  41.938  12.081
75592CL-    CL-47940  38.477  39.380   1.288
75593CL-    CL-47941  31.086  31.018   0.419
75594CL-    CL-47942  28.057  34.481   3.691
75595CL-    CL-47943  28.124  13.620   4.704
75596CL-    CL-47944  19.735   5.894   3.639
75597CL-    CL-47945  41.786  40.504   2.802
75598CL-    CL-47946  16.221  23.099   3.172
75599CL-    CL-47947   3.711   4.240   2.273
75600CL-    CL-47948  39.922   0.747   0.381
75601CL-    CL-47949   3.235  35.494  14.871
75602CL-    CL-47950  28.055  37.855  14.276
75603CL-    CL-47951  21.246  41.038   0.462
75604CL-    CL-47952  25.665  34.418   0.741
75605CL-    CL-47953  27.606  44.394   3.171
75606CL-    CL-47954  31.937  14.702   1.239
75607CL-    CL-47955  43.337   6.852   1.347
75608CL-    CL-47956   0.395  19.275  12.442
75609CL-    CL-47957   0.885  22.745   4.169
75610CL-    CL-47958   6.335  41.851   3.836
75611CL-    CL-47959   2.753  39.507   0.837
75612CL-    CL-47960   9.786  42.850   1.917
75613CL-    CL-47961  44.283  27.648  12.504
75614CL-    CL-47962   0.474  15.728  13.049
75615CL-    CL-47963  44.977  18.126  11.475
75616CL-    CL-47964   7.338  35.883   4.789
75617CL-    CL-47965  44.825  41.031  12.495
75618CL-    CL-47966  31.914  31.465   0.836
75619CL-    CL-47967   0.920  23.034  12.865
75620CL-    CL-47968  28.471  24.171   4.736
75621CL-    CL-47969  38.835  15.600  13.379
75622CL-    CL-47970  14.702  29.959   0.783
75623CL-    CL-47971  12.716  12.852  13.313
75624CL-    CL-47972  11.809   8.813  13.479
75625CL-    CL-47973  15.285  18.152   3.169
75626CL-    CL-47974   2.816  32.547   2.283
75627CL-    CL-47975  24.516  34.469  12.046
75628CL-    CL-47976  37.526  16.572   0.402
75629CL-    CL-47977  23.701  21.683  13.937
75630CL-    CL-47978  32.533  13.830   4.181
75631CL-    CL-47979   4.756  28.617   3.776
75632CL-    CL-47980  27.639  25.019  10.517
75633CL-    CL-47981   0.951   9.653  12.961
75634CL-    CL-47982  40.054  22.171  10.545
75635CL-    CL-47983  18.789  41.957  11.475
75636CL-    CL-47984  35.896   2.815   3.208
75637CL-    CL-47985  14.664  30.095  13.331
75638CL-    CL-47986  11.152  11.758   2.413
75639CL-    CL-47987  21.240   0.402   1.814
75640CL-    CL-47988   2.243  31.976  11.372
75641CL-    CL-47989  14.250  13.635  13.365
75642CL-    CL-47990  12.361  30.572  12.505
75643CL-    CL-47991  33.901  11.685  14.319
75644CL-    CL-47992  22.540  10.756   1.352
75645CL-    CL-47993  20.599  29.647   9.543
75646CL-    CL-47994  10.866  44.308   0.869
75647CL-    CL-47995  10.147  33.060  12.369
75648CL-    CL-47996   2.416  39.364  11.010
75649CL-    CL-47997  30.045  33.877  12.558
75650CL-    CL-47998  23.723  27.970  13.948
75651CL-    CL-47999  18.140  29.931  14.929
75652CL-    CL-48000  21.198  18.128  13.968
75653CL-    CL-48001  18.763   8.719  12.091
75654CL-    CL-48002   6.410  28.010   2.829
75655CL-    CL-48003  20.731  33.900   4.660
75656CL-    CL-48004  39.558  38.378  10.983
75657CL-    CL-48005   3.748  43.455  10.576
75658CL-    CL-48006  39.375  25.181  14.318
75659CL-    CL-48007   0.314  35.043   4.163
75660CL-    CL-48008  21.694   2.819   4.305
75661CL-    CL-48009  36.026  18.734   1.318
75662CL-    CL-48010   3.255  23.226  11.582
75663CL-    CL-48011  36.544  15.612   1.415
75664CL-    CL-48012  26.550  28.441   1.240
75665CL-    CL-48013   2.763  18.123   0.732
75666CL-    CL-48014  37.930  37.381  14.831
75667CL-    CL-48015  23.024  18.224   0.952
75668CL-    CL-48016  44.455  18.649  11.856
75669CL-    CL-48017  29.966  20.637   4.190
75670CL-    CL-48018  38.358   0.802   0.853
75671CL-    CL-48019  40.026  44.866  10.637
75672CL-    CL-48020  20.611  23.237   4.272
75673CL-    CL-48021  44.977   6.906  13.016
75674CL-    CL-48022  16.141   6.772  14.015
75675CL-    CL-48023   3.940  24.033  10.507
75676CL-    CL-48024  34.465  24.201  14.956
75677CL-    CL-48025  35.525  19.092  10.508
75678CL-    CL-48026   2.756  18.218   4.121
75679CL-    CL-48027  19.137  23.522   2.717
75680CL-    CL-48028  11.838   3.356   4.269
75681CL-    CL-48029  13.678  24.716  13.844
75682CL-    CL-48030   8.825   5.933  12.475
75683CL-    CL-48031  13.846   8.238   3.312
75684CL-    CL-48032  18.275  28.563   2.314
75685CL-    CL-48033   9.800  25.642  12.536
75686CL-    CL-48034   8.711  14.291  11.385
75687CL-    CL-48035  10.836  19.709  14.504
75688CL-    CL-48036  44.940  13.185  14.330
75689CL-    CL-48037   7.909  28.970  14.414
75690CL-    CL-48038   1.911  23.644  13.465
75691CL-    CL-48039  26.180  42.803  10.487
75692CL-    CL-48040  20.766   6.782  13.535
75693CL-    CL-48041  19.262  36.066   3.737
75694CL-    CL-48042   7.847  40.543  12.378
75695CL-    CL-48043  10.356  19.274   0.827
75696CL-    CL-48044  18.122  33.106   3.384
75697CL-    CL-48045  13.144  14.320  11.608
75698CL-    CL-48046  24.506  29.081   3.870
75699CL-    CL-48047  19.250  21.114  11.939
75700CL-    CL-48048  25.561  38.350   1.376
75701CL-    CL-48049  15.694  39.385   3.784
75702CL-    CL-48050   8.744  11.816  10.912
75703CL-    CL-48051  21.631  14.774   1.860
75704CL-    CL-48052  31.036  27.009   1.843
75705CL-    CL-48053   1.321  30.450   0.283
75706CL-    CL-48054  35.936   8.716   4.195
75707CL-    CL-48055  21.140  19.713   2.732
75708CL-    CL-48056  30.161  26.655   4.762
75709CL-    CL-48057  44.311  17.625  14.407
75710CL-    CL-48058  10.311  36.433  14.456
75711CL-    CL-48059  39.902  39.371  13.971
75712CL-    CL-48060  39.993  38.894   2.319
75713CL-    CL-48061  13.274  36.395   3.354
75714CL-    CL-48062  35.387  42.896   0.360
75715CL-    CL-48063   4.804  27.542   2.742
75716CL-    CL-48064  30.908   9.791  13.795
75717CL-    CL-48065   8.838  23.678   1.706
75718CL-    CL-48066   7.774  32.895   2.403
75719CL-    CL-48067  33.605  24.103   9.922
75720CL-    CL-48068  32.890  41.294  13.863
75721CL-    CL-48069  13.136  11.673  10.925
75722CL-    CL-48070  23.619   9.194   5.297
75723CL-    CL-48071  27.101  31.590  14.515
75724CL-    CL-48072  26.638  29.617  13.351
75725CL-    CL-48073  26.087   3.917  14.808
75726CL-    CL-48074   3.227  28.618   3.177
75727CL-    CL-48075  33.904  28.439  13.953
75728CL-    CL-48076  35.862  19.642  10.117
75729CL-    CL-48077  16.778  17.642   0.337
75730CL-    CL-48078  29.958  17.792  12.459
75731CL-    CL-48079  15.159  40.977   2.673
75732CL-    CL-48080   9.359  29.502   4.183
75733CL-    CL-48081  13.617  30.129   1.367
75734CL-    CL-48082   3.457   0.287  13.392
75735CL-    CL-48083  20.162  42.925   4.638
75736CL-    CL-48084  12.167  31.946  13.501
75737CL-    CL-48085  27.517  29.525   2.750
75738CL-    CL-48086   9.670  17.277   3.835
75739CL-    CL-48087  34.116  39.979  10.956
75740CL-    CL-48088  21.229  42.305   0.457
75741CL-    CL-48089  36.592  44.342   0.747
75742CL-    CL-48090  44.754  27.645  11.020
75743CL-    CL-48091  36.022   5.317   9.583
75744CL-    CL-48092  23.561  33.881   4.171
75745CL-    CL-48093   0.465  43.940   2.813
75746CL-    CL-48094  19.095  37.837  11.428
75747CL-    CL-48095  17.785  38.371   0.827
75748CL-    CL-48096  38.418  26.043   4.221
75749CL-    CL-48097  44.863  40.943   1.912
75750CL-    CL-48098  23.495  44.417  12.896
75751CL-    CL-48099  12.169  33.480  10.529
75752CL-    CL-48100  34.593  36.918  13.365
75753CL-    CL-48101  18.652  41.470  14.418
75754CL-    CL-48102  28.613  39.497  12.368
75755CL-    CL-48103  40.530  44.380  14.375
75756CL-    CL-48104  32.496  40.523  14.816
75757CL-    CL-48105  33.009  43.937  11.054
75758CL-    CL-48106   5.811   7.385  12.972
75759CL-    CL-48107  32.562  15.697  11.094
75760CL-    CL-48108  33.997  38.569  14.806
75761CL-    CL-48109   1.746  13.722  13.412
75762CL-    CL-48110   0.907  11.173   1.241
75763CL-    CL-48111  25.511   6.840  10.997
75764CL-    CL-48112  35.383  15.275   3.806
75765CL-    CL-48113  15.727  27.510  14.823
75766CL-    CL-48114  10.676  34.596   2.354
75767CL-    CL-48115  34.561  41.828  12.550
75768CL-    CL-48116  12.340  19.174   4.231
75769CL-    CL-48117  21.061  18.614   1.866
75770CL-    CL-48118  31.061   8.701   4.614
75771CL-    CL-48119  12.133  40.369   4.633
75772CL-    CL-48120  14.179   7.728  11.986
75773CL-    CL-48121  13.265  39.410   1.410
75774CL-    CL-48122   3.936  18.715  10.441
75775CL-    CL-48123  15.590  28.090   3.378
75776CL-    CL-48124   5.215   4.743   0.957
75777CL-    CL-48125   1.758  23.992  12.393
75778CL-    CL-48126   5.321  35.068  13.903
75779CL-    CL-48127  38.963  14.606  10.919
75780CL-    CL-48128  30.647   1.789  14.030
75781CL-    CL-48129  18.680  42.513   4.114
75782CL-    CL-48130  31.579  38.069   1.869
75783CL-    CL-48131  38.952  26.079  10.448
75784CL-    CL-48132  22.700  29.046  10.960
75785CL-    CL-48133  29.670  27.990  13.369
75786CL-    CL-48134  40.381  43.324   1.834
75787CL-    CL-48135  40.818  44.364  12.384
75788CL-    CL-48136   8.701  13.260  10.428
75789CL-    CL-48137  11.188  12.337   1.298
75790CL-    CL-48138   7.764  13.175   1.921
75791CL-    CL-48139  11.321  23.662   4.785
75792CL-    CL-48140  27.084   0.396  11.507
75793CL-    CL-48141  11.149  27.080  12.877
75794CL-    CL-48142   6.812   7.884   1.238
75795CL-    CL-48143  43.924  36.519  14.824
75796CL-    CL-48144  37.412  20.104   3.794
75797CL-    CL-48145  37.567  26.648  13.888
75798CL-    CL-48146   5.738  39.559   4.339
75799CL-    CL-48147  24.169  26.034   3.679
75800CL-    CL-48148  18.562  24.662  13.064
75801CL-    CL-48149  38.874  10.155  10.454
75802CL-    CL-48150  27.079   0.750  11.941
75803CL-    CL-48151   1.773  31.556   1.275
75804CL-    CL-48152  32.040  16.725  14.280
75805CL-    CL-48153  24.517  31.610  13.476
75806CL-    CL-48154  22.081  32.916  11.513
75807CL-    CL-48155  12.333   6.803   0.479
75808CL-    CL-48156  30.931  22.164  14.901
75809CL-    CL-48157  34.581  29.174   3.817
75810CL-    CL-48158  34.528  15.319  11.942
75811CL-    CL-48159  13.824  42.423   3.772
75812CL-    CL-48160  11.135  13.619  14.514
75813CL-    CL-48161   5.753  36.867   0.745
75814CL-    CL-48162  21.666  44.996  10.544
75815CL-    CL-48163   8.175  29.109  10.895
75816CL-    CL-48164   2.383  28.543  14.352
75817CL-    CL-48165   5.375   7.692   1.745
75818CL-    CL-48166  26.650  24.033  13.955
75819CL-    CL-48167   3.906  19.275  10.632
75820CL-    CL-48168  31.974   3.369   1.413
75821CL-    CL-48169  13.812  25.490   4.773
75822CL-    CL-48170  41.473  17.257  11.912
75823CL-    CL-48171  11.327  42.376   2.742
75824CL-    CL-48172  10.377  29.163   9.971
75825CL-    CL-48173  29.505  40.827  10.971
75826CL-    CL-48174  19.660   3.325  12.526
75827CL-    CL-48175  16.168  13.195  11.966
75828CL-    CL-48176  33.435  36.848  10.452
75829CL-    CL-48177   8.321  34.431   2.884
75830CL-    CL-48178  21.132  43.817   2.393
75831CL-    CL-48179  43.511  12.634  11.412
75832CL-    CL-48180  32.049   5.748  11.577
75833CL-    CL-48181   9.180   2.470   3.660
75834CL-    CL-48182  11.635  15.772  13.963
75835CL-    CL-48183  31.937  36.865   9.641
75836CL-    CL-48184   5.222  15.121  10.561
75837CL-    CL-48185   4.419  13.628  14.342
75838CL-    CL-48186  21.654   2.887   1.755
75839CL-    CL-48187  38.054  20.528  13.823
75840CL-    CL-48188   1.246  37.077   1.866
75841CL-    CL-48189  44.859   0.957   3.814
75842CL-    CL-48190  30.657  21.202   0.452
75843CL-    CL-48191  13.655  30.627   0.316
75844CL-    CL-48192  17.079  28.988   4.771
75845CL-    CL-48193  36.878  44.880   4.118
75846CL-    CL-48194  30.523   5.266   2.404
75847CL-    CL-48195  10.750   3.324  13.971
75848CL-    CL-48196  26.023  29.661  14.817
75849CL-    CL-48197   7.714  23.237   1.312
75850CL-    CL-48198  22.575  24.074   2.400
75851CL-    CL-48199  21.128  29.526   3.357
75852CL-    CL-48200  16.711  14.619  14.988
75853CL-    CL-48201  43.959  38.995  12.858
75854CL-    CL-48202  19.194  11.697   3.638
75855CL-    CL-48203   1.284  34.588  13.396
75856CL-    CL-48204  35.383  12.196  11.451
75857CL-    CL-48205   7.313  15.803   0.387
75858CL-    CL-48206  39.064  35.509  10.995
75859CL-    CL-48207   9.257  12.622  13.881
75860CL-    CL-48208  36.502   7.726  11.114
75861CL-    CL-48209  12.635   7.204   2.184
75862CL-    CL-48210  15.096  27.065  13.040
75863CL-    CL-48211  16.111  39.376  11.973
75864CL-    CL-48212  12.244   6.734   1.854
75865CL-    CL-48213  28.456  29.649   0.315
75866CL-    CL-48214  19.068  21.132   1.393
75867CL-    CL-48215  37.951  30.087  12.949
75868CL-    CL-48216   5.350  31.501  10.436
75869CL-    CL-48217  26.634  22.168  14.508
75870CL-    CL-48218   8.233   6.874   0.905
75871CL-    CL-48219  16.788  30.063  10.442
75872CL-    CL-48220  32.103   5.752  12.036
75873CL-    CL-48221  33.620  37.355   4.243
75874CL-    CL-48222  39.334   0.977   3.681
75875CL-    CL-48223  27.076  21.260   4.310
75876CL-    CL-48224  44.810  12.713  13.896
75877CL-    CL-48225  34.427   3.831  10.616
75878CL-    CL-48226  21.531  16.140  10.405
75879CL-    CL-48227  41.345   6.252   2.260
75880CL-    CL-48228  26.676  16.574  12.882
75881CL-    CL-48229  21.072   0.775   1.410
75882CL-    CL-48230  10.706  15.583   1.838
75883CL-    CL-48231   0.471  26.086   4.767
75884CL-    CL-48232  10.637  17.103  14.478
75885CL-    CL-48233  11.345  41.949   2.737
75886CL-    CL-48234  18.601  17.680   3.652
75887CL-    CL-48235  41.455   1.354  13.008
75888CL-    CL-48236   3.948  19.134  14.296
75889CL-    CL-48237  40.452  30.980   3.205
75890CL-    CL-48238   2.341  42.974  13.347
75891CL-    CL-48239   7.324  32.036   4.204
75892CL-    CL-48240  23.174  41.343  14.786
75893CL-    CL-48241  11.864  34.420   0.356
75894CL-    CL-48242  41.985  19.172   2.311
75895CL-    CL-48243  42.917  25.710   1.257
75896CL-    CL-48244  17.077   4.745  10.921
75897CL-    CL-48245  12.255  37.996  10.908
75898CL-    CL-48246  28.950   0.976  14.942
75899CL-    CL-48247  42.843  37.376   9.944
75900CL-    CL-48248  31.942  43.335   0.843
75901CL-    CL-48249  37.498   1.890   4.269
75902CL-    CL-48250  43.932   8.855  13.858
75903CL-    CL-48251  22.710  16.169   2.306
75904CL-    CL-48252  21.583   2.405   1.707
75905CL-    CL-48253  30.144  27.179  11.393
75906CL-    CL-48254  44.472  44.851  11.045
75907CL-    CL-48255  18.286  23.649   1.393
75908CL-    CL-48256  34.048  29.436   2.768
75909CL-    CL-48257  24.536   4.321   0.461
75910CL-    CL-48258  34.074  44.386  14.281
75911CL-    CL-48259  17.623  42.785  11.426
75912CL-    CL-48260  27.193  10.343   3.701
75913CL-    CL-48261  31.908  25.550  11.486
75914CL-    CL-48262  17.557   0.827  14.470
75915CL-    CL-48263   3.457  11.203   1.767
75916CL-    CL-48264  43.516   7.233  12.934
75917CL-    CL-48265  12.127  35.007   3.741
75918CL-    CL-48266   0.306  43.477  11.933
75919CL-    CL-48267  28.676  32.558  11.111
75920CL-    CL-48268   1.903  11.735   0.461
75921CL-    CL-48269  43.318  15.287   4.226
75922CL-    CL-48270  39.404  34.943  13.464
75923CL-    CL-48271  44.978  39.977  12.347
75924CL-    CL-48272  33.589  11.306  11.040
75925CL-    CL-48273  31.060  30.915   4.602
75926CL-    CL-48274  43.439  41.375  12.561
75927CL-    CL-48275  12.851  14.180   2.706
75928CL-    CL-48276  29.581  18.174  12.827
75929CL-    CL-48277   6.846  22.026   2.772
75930CL-    CL-48278   6.834  29.659   0.933
75931CL-    CL-48279  37.457  32.981   0.792
75932CL-    CL-48280  30.100  44.380   0.376
75933CL-    CL-48281  37.843  18.723   4.206
75934CL-    CL-48282   3.923  22.014   4.687
75935CL-    CL-48283  29.575  39.962   1.797
75936CL-    CL-48284  30.146  32.063  13.800
75937CL-    CL-48285  36.571  38.400   4.126
75938CL-    CL-48286  26.530  27.145  14.315
75939CL-    CL-48287  20.555  42.345  11.056
75940CL-    CL-48288   2.783   6.880  11.383
75941CL-    CL-48289  36.457  23.134   5.183
75942CL-    CL-48290  35.994  11.800   1.278
75943CL-    CL-48291   6.678  12.175  13.855
75944CL-    CL-48292  21.203  40.915   2.372
75945CL-    CL-48293  35.930  15.231   0.379
75946CL-    CL-48294  30.052  44.811   4.320
75947CL-    CL-48295   6.730  43.968  13.468
75948CL-    CL-48296  10.822  21.636  12.862
75949CL-    CL-48297  36.470  20.754   4.759
75950CL-    CL-48298   3.795  23.504   3.772
75951CL-    CL-48299  28.121  40.845  10.549
75952CL-    CL-48300  44.929  13.613  13.375
75953CL-    CL-48301   5.234  30.584   3.809
75954CL-    CL-48302  30.156  13.661   4.336
75955CL-    CL-48303  32.522  37.996  11.454
75956CL-    CL-48304  21.611  17.684   1.883
75957CL-    CL-48305  36.039   1.923   2.342
75958CL-    CL-48306  29.989  38.442   1.864
75959CL-    CL-48307  14.684  33.883   4.301
75960CL-    CL-48308   9.859  20.182   4.337
75961CL-    CL-48309  40.423   7.359   4.712
75962CL-    CL-48310   2.443  14.183   2.281
75963CL-    CL-48311   6.195  18.062  12.894
75964CL-    CL-48312  12.725  39.833   3.303
75965CL-    CL-48313  20.566   0.868  12.416
75966CL-    CL-48314  13.302  24.500  13.887
75967CL-    CL-48315  28.541   8.798   2.892
75968CL-    CL-48316   0.264   7.885   4.769
75969CL-    CL-48317  37.410   1.803   1.853
75970CL-    CL-48318  35.437  43.771   0.305
75971CL-    CL-48319  24.984  12.635  10.526
75972CL-    CL-48320  30.651   4.233  10.985
75973CL-    CL-48321   0.406  34.117  12.025
75974CL-    CL-48322   7.847  41.499  12.958
75975CL-    CL-48323  13.811  21.538  11.432
75976CL-    CL-48324   1.337   4.445   2.334
75977CL-    CL-48325  21.656  31.498   4.723
75978CL-    CL-48326  32.051  28.185  10.457
75979CL-    CL-48327  38.022  19.149   4.258
75980CL-    CL-48328   7.791  20.685   0.749
75981CL-    CL-48329  31.142  10.269   0.317
75982CL-    CL-48330  12.345   1.761  14.399
75983CL-    CL-48331  35.059  22.010  12.835
75984CL-    CL-48332  17.590  34.565   4.209
75985CL-    CL-48333  33.463  32.444   0.404
75986CL-    CL-48334   3.247   8.730  14.279
75987CL-    CL-48335  27.979  29.020   3.382
75988CL-    CL-48336  18.146  21.106  14.898
75989CL-    CL-48337  20.042   0.773  13.411
75990CL-    CL-48338  10.201  22.609   4.779
75991CL-    CL-48339  27.599  38.825   1.387
75992CL-    CL-48340  23.641  10.811   1.258
75993CL-    CL-48341  13.788  16.743  12.972
75994CL-    CL-48342   2.325  44.376  10.516
75995CL-    CL-48343  25.969  40.913  13.335
75996CL-    CL-48344   0.460  17.288  14.281
75997CL-    CL-48345  42.355  40.797  13.351
75998CL-    CL-48346  42.430  21.147  14.908
75999CL-    CL-48347  27.109  39.444  14.406
76000CL-    CL-48348  23.645  30.037  13.958
76001CL-    CL-48349  10.165   3.365  10.466
76002CL-    CL-48350  18.193   5.250   0.786
76003CL-    CL-48351  42.900  43.812   0.273
76004CL-    CL-48352  22.561  20.688  14.478
76005CL-    CL-48353   3.265  24.660  13.952
76006CL-    CL-48354  30.475   5.871   3.299
76007CL-    CL-48355  36.546  22.666   9.982
76008CL-    CL-48356  11.680  37.905   4.606
76009CL-    CL-48357  27.180  42.924   0.895
76010CL-    CL-48358   3.753  26.204  14.991
76011CL-    CL-48359  31.067   2.427   3.221
76012CL-    CL-48360  31.500  26.619   0.322
76013CL-    CL-48361   3.366   2.310   0.387
76014CL-    CL-48362   5.196  37.949  14.919
76015CL-    CL-48363  19.632  27.450  12.051
76016CL-    CL-48364  15.216  15.591   4.164
76017CL-    CL-48365  23.076  42.985   3.330
76018CL-    CL-48366  14.790   6.870  13.019
76019CL-    CL-48367  36.485   1.801   5.275
76020CL-    CL-48368   3.946   9.792   3.299
76021CL-    CL-48369  38.823   8.661  14.022
76022CL-    CL-48370   7.667  44.892  12.386
76023CL-    CL-48371  35.409  23.565  11.557
76024CL-    CL-48372   6.242  33.089   1.315
76025CL-    CL-48373  28.096  27.072  11.397
76026CL-    CL-48374  32.611  23.999  13.408
76027CL-    CL-48375  41.434  40.900   3.810
76028CL-    CL-48376  38.953  34.377   1.813
76029CL-    CL-48377  31.473  34.473  14.855
76030CL-    CL-48378   7.263  34.098   3.805
76031CL-    CL-48379  44.949  31.538   2.880
76032CL-    CL-48380  13.347  31.009   0.462
76033CL-    CL-48381  21.531  14.642   3.288
76034CL-    CL-48382  15.628  22.649  10.439
76035CL-    CL-48383  27.967  13.313  12.539
76036CL-    CL-48384  35.454  10.356  13.863
76037CL-    CL-48385   2.402  16.215  14.503
76038CL-    CL-48386  31.606   7.206   1.244
76039CL-    CL-48387  42.363  43.807  14.997
76040CL-    CL-48388  42.493  22.234   4.666
76041CL-    CL-48389  23.497  19.617   2.308
76042CL-    CL-48390   0.481  44.893  10.908
76043CL-    CL-48391   2.266  26.600   1.262
76044CL-    CL-48392  34.381   0.295   3.239
76045CL-    CL-48393  29.596  44.294   0.343
76046CL-    CL-48394  11.690  26.663   9.941
76047CL-    CL-48395  28.508  31.136   3.369
76048CL-    CL-48396   1.921  14.143   0.296
76049CL-    CL-48397  33.011   8.859  14.406
76050CL-    CL-48398  16.264   6.900   0.903
76051CL-    CL-48399  37.878  20.639  13.338
76052CL-    CL-48400  28.482  11.181  12.983
76053CL-    CL-48401  30.470  12.178  14.515
76054CL-    CL-48402  18.558   9.813   4.342
76055CL-    CL-48403  21.720  38.959   0.313
76056CL-    CL-48404  21.138   2.285  14.762
76057CL-    CL-48405  21.684   0.490   3.814
76058CL-    CL-48406  38.350   4.908   3.731
76059CL-    CL-48407  14.675  43.904   3.181
76060CL-    CL-48408  38.409  27.670   2.762
76061CL-    CL-48409  10.638  22.630   1.450
76062CL-    CL-48410  13.826  18.229   4.257
76063CL-    CL-48411  30.158   8.794   4.721
76064CL-    CL-48412  17.695   7.817   4.629
76065CL-    CL-48413   1.360   4.897   4.759
76066CL-    CL-48414  22.678  20.702   1.386
76067CL-    CL-48415  13.339  43.973   3.285
76068CL-    CL-48416  17.275  28.451   3.335
76069CL-    CL-48417  18.157  31.980  10.628
76070CL-    CL-48418  38.075  14.282   4.183
76071CL-    CL-48419  34.435  20.563   3.705
76072CL-    CL-48420   3.417  14.713  11.867
76073CL-    CL-48421  34.520   1.368   4.761
76074CL-    CL-48422  33.893  18.265   1.272
76075CL-    CL-48423  38.978   8.732  14.482
76076CL-    CL-48424   2.360  14.801   2.318
76077CL-    CL-48425   8.176  14.598  13.547
76078CL-    CL-48426  44.916  23.193  14.897
76079CL-    CL-48427  23.713  17.641  13.523
76080CL-    CL-48428  42.414  11.748  14.448
76081CL-    CL-48429  18.606  24.210  11.412
76082CL-    CL-48430  43.328  21.605   1.702
76083CL-    CL-48431   1.819  26.197   1.798
76084CL-    CL-48432   9.845  19.074   4.285
76085CL-    CL-48433  22.526  13.709   4.124
76086CL-    CL-48434  38.889  18.242   2.266
76087CL-    CL-48435  33.518  38.984   3.378
76088CL-    CL-48436  15.795  25.044   4.157
76089CL-    CL-48437   9.849  35.466  14.986
76090CL-    CL-48438  28.099  41.827   0.734
76091CL-    CL-48439  34.977   5.892   3.322
76092CL-    CL-48440  39.336  41.992  12.912
76093CL-    CL-48441  31.624  13.685  11.006
76094CL-    CL-48442  23.509   2.346   0.755
76095CL-    CL-48443  23.681  17.253   1.350
76096CL-    CL-48444  27.500  30.986  14.011
76097CL-    CL-48445  24.011   9.353  13.369
76098CL-    CL-48446   1.771   5.771   3.793
76099CL-    CL-48447  20.758  13.695  11.599
76100CL-    CL-48448   4.450   7.233   0.317
76101CL-    CL-48449  44.407  13.318  10.958
76102CL-    CL-48450  15.696  40.926   4.118
76103CL-    CL-48451  17.081  38.348   3.721
76104CL-    CL-48452  17.113  17.263  14.417
76105CL-    CL-48453  15.796  17.639  11.500
76106CL-    CL-48454   1.475  14.245   2.780
76107CL-    CL-48455  32.395   3.256  13.351
76108CL-    CL-48456  12.798  36.907  12.844
76109CL-    CL-48457  36.943  34.956  12.402
76110CL-    CL-48458   1.753  27.036  14.925
76111CL-    CL-48459  18.748   8.240   0.363
76112CL-    CL-48460   4.724  30.955   3.226
76113CL-    CL-48461  15.220   1.411   4.146
76114CL-    CL-48462  28.119  33.566  12.941
76115CL-    CL-48463  25.621  23.210   4.779
76116CL-    CL-48464  15.819  11.141  10.896
76117CL-    CL-48465  38.064  14.802  12.493
76118CL-    CL-48466  32.948  16.213  11.448
76119CL-    CL-48467  13.109  27.016  12.459
76120CL-    CL-48468  19.724  42.378  10.978
76121CL-    CL-48469   8.402  37.433  11.380
76122CL-    CL-48470  39.857  42.510   4.269
76123CL-    CL-48471   7.244  39.046   4.642
76124CL-    CL-48472  25.026  34.982   0.359
76125CL-    CL-48473  41.462  44.920   3.818
76126CL-    CL-48474  18.133   3.432   1.439
76127CL-    CL-48475  20.553  28.046  13.844
76128CL-    CL-48476  15.634   0.359   2.265
76129CL-    CL-48477   4.273  41.888   4.702
76130CL-    CL-48478   8.678   6.404   1.766
76131CL-    CL-48479  41.300  43.369   3.651
76132CL-    CL-48480   4.845  36.513   1.749
76133CL-    CL-48481  26.613  29.081   0.384
76134CL-    CL-48482  14.792  20.042   1.435
76135CL-    CL-48483  26.042   3.269   1.391
76136CL-    CL-48484  10.696   1.238  14.896
76137CL-    CL-48485  38.066  10.791   1.908
76138CL-    CL-48486  23.608  18.240   1.886
76139CL-    CL-48487  38.925  23.055   4.295
76140CL-    CL-48488  15.584   6.918   3.742
76141CL-    CL-48489   5.823  20.569  14.943
76142CL-    CL-48490  11.155   7.885  14.343
76143CL-    CL-48491  28.454  21.736   0.311
76144CL-    CL-48492  39.838  19.564  10.924
76145CL-    CL-48493  29.954  38.832   2.873
76146CL-    CL-48494   6.237  32.000  14.402
76147CL-    CL-48495  10.346  41.037  13.996
76148CL-    CL-48496  11.324  26.017  11.909
76149CL-    CL-48497  16.130   9.685   3.227
76150CL-    CL-48498  20.142  11.732   4.195
76151CL-    CL-48499  24.690  41.917  12.095
76152CL-    CL-48500  40.437  26.627  14.392
76153CL-    CL-48501  16.258  34.943  13.517
76154CL-    CL-48502  13.616  12.688   1.319
76155CL-    CL-48503  28.974  15.819  13.929
76156CL-    CL-48504  38.859  37.456   3.866
76157CL-    CL-48505  20.236   7.309  10.556
76158CL-    CL-48506   6.721  10.264   2.696
76159CL-    CL-48507  25.054  11.349  11.479
76160CL-    CL-48508  29.426  31.567   1.306
76161CL-    CL-48509  10.315  37.933  13.013
76162CL-    CL-48510  17.646  11.750   3.730
76163CL-    CL-48511  41.830  30.497  12.519
76164CL-    CL-48512  10.823  14.711  12.975
76165CL-    CL-48513  44.304   8.791   2.253
76166CL-    CL-48514  33.004  13.171   1.717
76167CL-    CL-48515  25.631  32.512  14.496
76168CL-    CL-48516  32.021  35.463   0.906
76169CL-    CL-48517  14.698  32.065  12.852
76170CL-    CL-48518  36.416  40.478   0.812
76171CL-    CL-48519  31.049  29.097   3.234
76172CL-    CL-48520   6.716  32.519  11.509
76173CL-    CL-48521   1.810  34.446   3.288
76174CL-    CL-48522  21.208   9.847   0.806
76175CL-    CL-48523  16.245  43.021  12.474
76176CL-    CL-48524  31.153   4.213   3.276
76177CL-    CL-48525   7.176   4.414  12.406
76178CL-    CL-48526  38.533  17.249  14.455
76179CL-    CL-48527  34.052  35.580  11.462
76180CL-    CL-48528  19.587  36.876   3.286
76181CL-    CL-48529  20.723   9.253  13.049
76182CL-    CL-48530  31.531  30.499  11.950
76183CL-    CL-48531  19.773  11.807   2.196
76184CL-    CL-48532  23.704  38.460  14.327
76185CL-    CL-48533  39.975  27.498  12.886
76186CL-    CL-48534  23.224  43.788   0.442
76187CL-    CL-48535  30.531   4.321   4.758
76188CL-    CL-48536  44.303  36.390  14.835
76189CL-    CL-48537  35.494  29.124  11.061
76190CL-    CL-48538  13.303  37.894   3.705
76191CL-    CL-48539  43.315   5.793   1.391
76192CL-    CL-48540  37.436   2.724  12.007
76193CL-    CL-48541  22.037  43.875  11.518
76194CL-    CL-48542  43.905  32.018  12.360
76195CL-    CL-48543  35.550  31.016  11.399
76196CL-    CL-48544  14.706   2.787   2.349
76197CL-    CL-48545  27.100   1.864  13.541
76198CL-    CL-48546   9.380  43.814   1.352
76199CL-    CL-48547  43.766  20.088   2.196
76200CL-    CL-48548  17.216  12.168  12.351
76201CL-    CL-48549  28.496   2.906   4.812
76202CL-    CL-48550  14.130  14.124   3.711
76203CL-    CL-48551  18.133  26.961  11.566
76204CL-    CL-48552  23.069  42.518   1.416
76205CL-    CL-48553  43.819  19.079  14.764
76206CL-    CL-48554  27.502   5.718  11.486
76207CL-    CL-48555   7.355  43.802   3.835
76208CL-    CL-48556   3.901  33.494   1.428
76209CL-    CL-48557  22.697  42.321   2.848
76210CL-    CL-48558  24.101   5.265   1.796
76211CL-    CL-48559  29.979   0.255   2.841
76212CL-    CL-48560   7.215  21.203  12.902
76213CL-    CL-48561  14.793  17.079   1.341
76214CL-    CL-48562  34.065  29.514   4.189
76215CL-    CL-48563  42.013   2.734  11.391
76216CL-    CL-48564  29.480  34.520  11.470
76217CL-    CL-48565  29.525  28.499  10.474
76218CL-    CL-48566  10.649  17.758  13.002
76219CL-    CL-48567   8.268   4.368   1.891
76220CL-    CL-48568  38.968   1.436  14.398
76221CL-    CL-48569  22.237   8.237  11.037
76222CL-    CL-48570   3.324  15.278  13.458
76223CL-    CL-48571  17.301  15.600   2.229
76224CL-    CL-48572  36.862  16.789  12.073
76225CL-    CL-48573   5.358  31.145  10.934
76226CL-    CL-48574  32.052  37.075  10.592
76227CL-    CL-48575  12.678  19.182  11.958
76228CL-    CL-48576  16.722  10.376   2.257
76229CL-    CL-48577  21.077  39.370   0.767
76230CL-    CL-48578  33.029  44.954  12.952
76231CL-    CL-48579   8.692  37.518   0.259
76232CL-    CL-48580  10.168  40.997  10.558
76233CL-    CL-48581  35.852  17.230  10.994
76234CL-    CL-48582  25.523  33.089   0.953
76235CL-    CL-48583   0.288  29.048  11.064
76236CL-    CL-48584  18.269  34.904   1.419
76237CL-    CL-48585  42.288  22.074  14.324
76238CL-    CL-48586  32.128  10.226  10.623
76239CL-    CL-48587   5.865  34.105  13.483
76240CL-    CL-48588   6.296   3.794   4.625
76241CL-    CL-48589  26.478  28.984   1.877
76242CL-    CL-48590  38.826  17.229  12.543
76243CL-    CL-48591  21.701  19.196   0.934
76244CL-    CL-48592  34.046  35.438  12.837
76245CL-    CL-48593  17.110  26.031  11.107
76246CL-    CL-48594  11.295   9.868  12.418
76247CL-    CL-48595  20.690  39.430   3.329
76248CL-    CL-48596   5.865   2.907   3.252
76249CL-    CL-48597  28.101   0.884  14.436
76250CL-    CL-48598  22.065  23.040  12.882
76251CL-    CL-48599  27.132  36.435   4.665
76252CL-    CL-48600  34.381  31.494  12.898
76253CL-    CL-48601  27.130  26.953   0.929
76254CL-    CL-48602  30.452   9.773   2.676
76255CL-    CL-48603  19.248  29.526   3.728
76256CL-    CL-48604   2.384  33.995  14.487
76257CL-    CL-48605  37.914   6.243  10.569
76258CL-    CL-48606  10.213  30.924  12.495
76259CL-    CL-48607   0.918  35.015  12.943
76260CL-    CL-48608   3.742   1.958  13.879
76261CL-    CL-48609  29.461  24.979  12.034
76262CL-    CL-48610  38.465   6.836  14.511
76263CL-    CL-48611  22.169  44.330  14.893
76264CL-    CL-48612  19.649  30.520   4.208
76265CL-    CL-48613  10.350  37.381   5.123
76266CL-    CL-48614   9.291   8.667   3.357
76267CL-    CL-48615  18.742  11.806   1.286
76268CL-    CL-48616  43.436  29.028  14.921
76269CL-    CL-48617   4.932   3.426   1.809
76270CL-    CL-48618  31.579   7.241  11.468
76271CL-    CL-48619  20.179  17.609  13.388
76272CL-    CL-48620  24.558  29.974   2.735
76273CL-    CL-48621  42.335  39.022   0.267
76274CL-    CL-48622  19.205  39.939  14.388
76275CL-    CL-48623  22.062   1.426   3.698
76276CL-    CL-48624   4.275  19.063  14.872
76277CL-    CL-48625  22.066  20.735   1.338
76278CL-    CL-48626  36.463  28.041   0.829
76279CL-    CL-48627  42.410  28.616   3.152
76280CL-    CL-48628  22.227   1.289  14.848
76281CL-    CL-48629  17.658   3.368  11.869
76282CL-    CL-48630  26.569   2.265   3.799
76283CL-    CL-48631   8.328  42.024   2.315
76284CL-    CL-48632   2.733  29.004  11.592
76285CL-    CL-48633   4.856  42.331  10.530
76286CL-    CL-48634  40.797  39.869   0.917
76287CL-    CL-48635  29.558   2.356  12.418
76288CL-    CL-48636  19.582  29.635  14.944
76289CL-    CL-48637  16.215  41.016   4.823
76290CL-    CL-48638   0.311   7.323  11.061
76291CL-    CL-48639  26.070  44.455   3.781
76292CL-    CL-48640  37.555  33.014   3.693
76293CL-    CL-48641  23.165  10.180   4.278
76294CL-    CL-48642  36.091  35.036   4.342
76295CL-    CL-48643  33.521  41.302  10.942
76296CL-    CL-48644  20.547  21.169   1.845
76297CL-    CL-48645  23.024  38.862   3.354
76298CL-    CL-48646  23.687  32.997  10.983
76299CL-    CL-48647   5.765  36.456  11.438
76300CL-    CL-48648  20.570  34.015   1.404
76301CL-    CL-48649  31.524  20.064  10.582
76302CL-    CL-48650  35.478   6.347  14.313
76303CL-    CL-48651  11.323   9.298  13.310
76304CL-    CL-48652  29.043   4.861  14.369
76305CL-    CL-48653   8.845   1.372  12.078
76306CL-    CL-48654   6.422   9.235  12.484
76307CL-    CL-48655  35.063  17.779  13.478
76308CL-    CL-48656   0.788  28.653   4.679
76309CL-    CL-48657   6.404  27.564  12.371
76310CL-    CL-48658  22.111  36.984  12.567
76311CL-    CL-48659  11.811  42.320  14.502
76312CL-    CL-48660  31.067  11.683  10.024
76313CL-    CL-48661  36.435  11.246   2.674
76314CL-    CL-48662  38.006  32.967   2.848
76315CL-    CL-48663   9.175  40.921  14.310
76316CL-    CL-48664  13.725  44.957   0.943
76317CL-    CL-48665   6.764  25.596   0.837
76318CL-    CL-48666   6.814  10.326  11.554
76319CL-    CL-48667   2.887  41.953  13.440
76320CL-    CL-48668  28.051  34.611  11.428
76321CL-    CL-48669  25.025  10.696   3.778
76322CL-    CL-48670  21.557  43.967  11.536
76323CL-    CL-48671  40.903  12.159   2.261
76324CL-    CL-48672  12.704   0.954   1.450
76325CL-    CL-48673  30.425  33.527  10.533
76326CL-    CL-48674  13.740  10.637   0.256
76327CL-    CL-48675  33.047   4.847  10.922
76328CL-    CL-48676  31.929  30.511   2.863
76329CL-    CL-48677   4.729   7.376   2.739
76330CL-    CL-48678  42.377  38.507  13.335
76331CL-    CL-48679  44.935   6.728  14.314
76332CL-    CL-48680  28.479  12.641   1.307
76333CL-    CL-48681  18.154  29.513  13.847
76334CL-    CL-48682   8.867  10.876   1.893
76335CL-    CL-48683  36.937   7.399   0.348
76336CL-    CL-48684  32.511  25.049  13.410
76337CL-    CL-48685  11.659  13.698   1.367
76338CL-    CL-48686  13.239  25.470   2.209
76339CL-    CL-48687  29.468   2.417  14.890
76340CL-    CL-48688   8.210  13.653   2.311
76341CL-    CL-48689  13.199  38.563   0.822
76342CL-    CL-48690  15.224  36.917  12.469
76343CL-    CL-48691  24.686  34.120   2.385
76344CL-    CL-48692  35.027  34.527  12.977
76345CL-    CL-48693   4.410  18.069  12.829
76346CL-    CL-48694  35.384   3.805  13.503
76347CL-    CL-48695  20.574   4.701   1.325
76348CL-    CL-48696  40.959  33.525  13.318
76349CL-    CL-48697  11.298  17.188  14.487
76350CL-    CL-48698  25.145  31.105  12.392
76351CL-    CL-48699  37.461  38.971  12.567
76352CL-    CL-48700  44.290  41.488   2.203
76353CL-    CL-48701  19.257  10.805  10.500
76354CL-    CL-48702  37.985  32.135  14.948
76355CL-    CL-48703  38.960  41.424   0.839
76356CL-    CL-48704   1.307  15.170  14.815
76357CL-    CL-48705  38.036   0.438   4.197
76358CL-    CL-48706  25.642  12.148  10.964
76359CL-    CL-48707  44.302  34.480  10.907
76360CL-    CL-48708  23.236  39.559   3.384
76361CL-    CL-48709  39.326   3.437  12.391
76362CL-    CL-48710  17.304  21.183   2.231
76363CL-    CL-48711  43.802  22.722  14.502
76364CL-    CL-48712  21.713  12.183   4.183
76365CL-    CL-48713  38.073  40.443  14.972
76366CL-    CL-48714   8.251  34.111   5.683
76367CL-    CL-48715  21.705   5.264   3.827
76368CL-    CL-48716  36.016  24.193   1.747
76369CL-    CL-48717  27.538  23.559  10.567
76370CL-    CL-48718   0.306   8.870  14.487
76371CL-    CL-48719  36.348   1.440   2.679
76372CL-    CL-48720  12.694   3.258   0.911
76373CL-    CL-48721  26.110  30.503   4.156
76374CL-    CL-48722   2.853  27.074   1.728
76375CL-    CL-48723  28.973   7.837   2.704
76376CL-    CL-48724  25.622  16.573   0.871
76377CL-    CL-48725  43.394  37.959   2.885
76378CL-    CL-48726  30.086  26.621   0.252
76379CL-    CL-48727  15.144   2.891   0.307
76380CL-    CL-48728  19.122   2.235  11.505
76381CL-    CL-48729  17.297  37.396  13.809
76382CL-    CL-48730  21.260   3.459   4.789
76383CL-    CL-48731  25.177  35.043   5.098
76384CL-    CL-48732  42.449   6.213   4.779
76385CL-    CL-48733  37.431  11.182   4.229
76386CL-    CL-48734  44.428  26.577  12.064
76387CL-    CL-48735  10.659   9.347   3.240
76388CL-    CL-48736   6.211  11.352  14.326
76389CL-    CL-48737  40.989  35.040   4.174
76390CL-    CL-48738  21.058  25.637   1.793
76391CL-    CL-48739  16.287  38.953   0.414
76392CL-    CL-48740  25.015  43.908  13.360
76393CL-    CL-48741  22.053  37.383   1.835
76394CL-    CL-48742   4.367  22.501   1.242
76395CL-    CL-48743  44.800  12.161  12.425
76396CL-    CL-48744   3.716  16.701  11.451
76397CL-    CL-48745  17.091   3.415  10.161
76398CL-    CL-48746   7.191  15.793  12.888
76399CL-    CL-48747  33.453  11.371   3.684
76400CL-    CL-48748   1.867  35.473   4.637
76401CL-    CL-48749  27.019  21.062  11.493
76402CL-    CL-48750  26.578  32.102   3.738
76403CL-    CL-48751  29.489  44.947   4.226
76404CL-    CL-48752  39.007   8.846  11.069
76405CL-    CL-48753   7.208  24.070  13.525
76406CL-    CL-48754  41.426  34.485  13.932
76407CL-    CL-48755  34.510  18.725  10.495
76408CL-    CL-48756  39.421  21.174  11.585
76409CL-    CL-48757   6.356  10.798   2.225
76410CL-    CL-48758  22.506   7.855  12.950
76411CL-    CL-48759   4.877   3.784   1.894
76412CL-    CL-48760  30.088  29.563  13.513
76413CL-    CL-48761  21.021  43.918   9.935
76414CL-    CL-48762  34.940  36.886  14.289
76415CL-    CL-48763  16.265  35.012   3.767
76416CL-    CL-48764  11.653   5.245  12.510
76417CL-    CL-48765  12.228   6.886  11.447
76418CL-    CL-48766  31.405  11.254  12.910
76419CL-    CL-48767  28.952   6.706  14.292
76420CL-    CL-48768   3.457  17.253   3.854
76421CL-    CL-48769  14.322  14.627   0.917
76422CL-    CL-48770  16.310   8.356   4.609
76423CL-    CL-48771   1.737   8.363   2.409
76424CL-    CL-48772   2.765   8.173  12.996
76425CL-    CL-48773  20.097   3.913  12.936
76426CL-    CL-48774  13.256  40.895  12.435
76427CL-    CL-48775  15.592  17.102   1.326
76428CL-    CL-48776  16.762   7.720   3.154
76429CL-    CL-48777  13.784   7.795  11.489
76430CL-    CL-48778  28.175  21.234  10.906
76431CL-    CL-48779  43.865  16.269   3.292
76432CL-    CL-48780  16.222  24.183  10.976
76433CL-    CL-48781   3.393   8.778   1.285
76434CL-    CL-48782  27.175   7.182  11.432
76435CL-    CL-48783  36.435  16.198   3.666
76436CL-    CL-48784  33.610  17.240   1.247
76437CL-    CL-48785  41.793  32.546   3.684
  45.00000  45.00000  15.00000   0.00000   0.00000   0.00000   0.00000   0.00000   0.00000

